Title
43188
    1CHL1    C3    1   0.948   2.124   6.384 -0.3126  0.0160  0.2744
    1CHL1    H3    2   1.037   2.190   6.381 -0.9744  0.8783 -2.2865
    1CHL1    O3    3   0.906   2.133   6.517  0.9588 -0.5717 -0.3773
    1CHL1   H3'    4   0.811   2.142   6.522  1.0410 -0.1500  0.5867
    1CHL1    C4    5   0.848   2.175   6.286  0.7744 -0.2198  1.2570
    1CHL1   H4A    6   0.757   2.113   6.298  1.2913 -1.1392  0.5543
    1CHL1   H4B    7   0.829   2.280   6.318  1.7864 -0.1949  1.8111
    1CHL1    C5    8   0.885   2.176   6.139 -0.1892 -0.3721  0.1934
    1CHL1    C6    9   0.871   2.286   6.061 -0.1927  0.2726  0.0080
    1CHL1    H6   10   0.834   2.380   6.104 -0.5727 -0.3142  0.9967
    1CHL1    C7   11   0.914   2.285   5.918  0.3662  0.0286  0.0374
    1CHL1   H7A   12   0.847   2.345   5.853 -1.0817 -0.3179  1.1546
    1CHL1   H7B   13   1.013   2.334   5.911 -0.2674  1.4772  0.9212
    1CHL1    C8   14   0.916   2.145   5.862  0.5710  0.7451  0.6059
    1CHL1    H8   15   0.812   2.111   5.846  0.8567  0.2159 -0.1582
    1CHL1   C14   16   0.987   2.145   5.724 -0.0144 -0.2355  0.5212
    1CHL1   H14   17   1.091   2.174   5.748  0.2692 -1.6168  1.0498
    1CHL1   C15   18   0.932   2.236   5.606 -0.1108  0.3089  0.4188
    1CHL1  H15A   19   0.822   2.223   5.600  0.0437 -0.5647 -0.8024
    1CHL1  H15B   20   0.955   2.343   5.624  0.0208  0.4723 -0.6438
    1CHL1   C16   21   0.997   2.180   5.478  0.2328  0.1530  0.1985
    1CHL1  H16A   22   0.913   2.153   5.410 -2.8130 -0.9719  4.0288
    1CHL1  H16B   23   1.070   2.249   5.432 -0.2433  1.3927  1.2315
    1CHL1   C17   24   1.067   2.041   5.521 -0.1640  0.2429 -0.5200
    1CHL1   H17   25   1.172   2.064   5.549 -0.5641  1.3190  0.1812
    1CHL1   C13   26   1.005   2.004   5.659 -0.0399 -0.2373 -0.2584
    1CHL1   C18   27   0.862   1.939   5.636  0.5261  0.4243 -0.8658
    1CHL1  H18A   28   0.780   2.001   5.594 -0.7229 -0.5218  0.1184
    1CHL1  H18B   29   0.865   1.836   5.595  1.0662  0.4611 -0.9254
    1CHL1  H18C   30   0.817   1.925   5.736 -1.2015 -0.2120 -1.6889
    1CHL1   C12   31   1.096   1.924   5.754 -0.3885 -1.3125 -0.8520
    1CHL1  H12A   32   1.118   1.821   5.717  0.1905 -1.5930  0.2545
    1CHL1  H12B   33   1.192   1.979   5.763 -1.3226  0.1332  0.8657
    1CHL1   C11   34   1.032   1.908   5.894  0.5584 -0.0319  0.1871
    1CHL1  H11A   35   0.954   1.832   5.874  1.0347 -0.2142 -1.0836
    1CHL1  H11B   36   1.108   1.863   5.961  1.3925  0.1094 -0.6235
    1CHL1    C9   37   0.992   2.046   5.954 -0.2994  0.2577  0.2946
    1CHL1    H9   38   1.091   2.093   5.974 -0.8953  0.7313  2.3338
    1CHL1   C10   39   0.929   2.036   6.097  0.2068  0.6112 -0.2502
    1CHL1   C19   40   0.801   1.945   6.076 -0.5831  0.1393 -0.7316
    1CHL1  H19A   41   0.824   1.843   6.038  0.0463 -0.6013  1.4726
    1CHL1  H19B   42   0.750   1.934   6.174 -2.6803  0.6271 -1.7106
    1CHL1  H19C   43   0.725   2.003   6.018 -0.4119  0.4708 -0.6286
    1CHL1    C1   44   1.038   1.976   6.196 -0.3597  0.9440  0.1843
    1CHL1   H1A   45   1.050   1.868   6.172  0.0813  1.1579 -0.5659
    1CHL1   H1B   46   1.126   2.042   6.184 -1.5982  2.7598  0.6101
    1CHL1    C2   47   0.989   1.982   6.344  0.3757 -0.7031 -0.1396
    1CHL1   H2A   48   1.079   1.966   6.408  0.4267  3.7290  1.2246
    1CHL1   H2B   49   0.916   1.900   6.364 -0.8859  0.6737  1.1453
    1CHL1   C20   50   1.047   1.941   5.407  0.1624 -0.1555  0.2025
    1CHL1   H20   51   0.941   1.914   5.388  0.4624  0.0423 -2.0159
    1CHL1   C21   52   1.120   1.812   5.428 -0.1254 -0.2709  0.7538
    1CHL1  H21A   53   1.071   1.762   5.514 -1.3664  0.1536  0.3051
    1CHL1  H21B   54   1.218   1.841   5.472 -1.9230  2.5713  3.2960
    1CHL1  H21C   55   1.120   1.742   5.342  0.6373  1.7619 -0.9985
    1CHL1   C22   56   1.094   1.992   5.270  0.5561 -0.2965  0.4393
    1CHL1  H22A   57   1.104   1.899   5.210 -0.9194 -1.0551  1.3055
    1CHL1  H22B   58   1.018   2.058   5.224  1.6873  0.9068  0.2264
    1CHL1   C23   59   1.220   2.069   5.254  0.0503 -0.4844  0.6421
    1CHL1  H23A   60   1.199   2.173   5.287 -0.1134 -0.3914  0.2509
    1CHL1  H23B   61   1.301   2.021   5.313 -0.1515 -2.4787 -0.5866
    1CHL1   C24   62   1.269   2.074   5.102 -0.2815  0.2312 -0.4521
    1CHL1  H24A   63   1.248   1.972   5.066 -0.7002 -0.8255  2.4657
    1CHL1  H24B   64   1.230   2.156   5.038  1.0552 -0.0501 -1.6765
    1CHL1   C25   65   1.423   2.084   5.092 -0.6415  0.7250  0.2666
    1CHL1   H25   66   1.457   2.006   5.164 -1.0819  1.3062  1.1287
    1CHL1   C26   67   1.490   2.085   4.951 -0.1928 -0.1433 -0.0709
    1CHL1  H26A   68   1.600   2.089   4.966  0.3151  0.9862 -3.2555
    1CHL1  H26B   69   1.476   1.990   4.896 -0.2880 -1.4111  2.0302
    1CHL1  H26C   70   1.457   2.167   4.883 -0.0585  0.4171  0.5266
    1CHL1   C27   71   1.458   2.220   5.156 -0.3033 -0.6556  0.9409
    1CHL1  H27A   72   1.566   2.219   5.182 -0.1575 -0.0307  0.3760
    1CHL1  H27B   73   1.426   2.303   5.089  0.1470 -1.0424  0.2270
    1CHL1  H27C   74   1.414   2.254   5.252  0.5474  2.4682  0.3426
    2CHL1    C3   75   1.274   5.075   6.335  0.2257 -0.0150  0.3647
    2CHL1    H3   76   1.340   5.164   6.342 -1.2580  1.1291  0.3385
    2CHL1    O3   77   1.197   5.054   6.456  0.2500 -0.1515  0.0825
    2CHL1   H3'   78   1.261   5.054   6.527 -0.1705  1.4074  0.5048
    2CHL1    C4   79   1.163   5.088   6.222 -0.6937 -0.2448 -0.1254
    2CHL1   H4A   80   1.101   4.996   6.224 -1.3302  0.1804  1.3970
    2CHL1   H4B   81   1.095   5.169   6.256  1.7520  2.0888 -0.4174
    2CHL1    C5   82   1.241   5.113   6.089  0.9372  0.1480 -0.1543
    2CHL1    C6   83   1.218   5.220   6.012 -0.1677 -0.3410 -0.4825
    2CHL1    H6   84   1.156   5.304   6.046 -1.1968 -0.4841 -1.9187
    2CHL1    C7   85   1.263   5.239   5.874 -0.5020 -0.3720 -0.0668
    2CHL1   H7A   86   1.187   5.272   5.799  0.0982  1.5169  0.1017
    2CHL1   H7B   87   1.339   5.319   5.876  1.9372 -2.4961 -1.5856
    2CHL1    C8   88   1.335   5.110   5.816 -0.1212 -0.7568 -0.3596
    2CHL1    H8   89   1.254   5.037   5.792 -0.7407 -0.3316  0.3755
    2CHL1   C14   90   1.409   5.144   5.694 -0.1325  0.1990 -1.0053
    2CHL1   H14   91   1.491   5.212   5.724  0.4496 -0.5354 -0.9052
    2CHL1   C15   92   1.330   5.221   5.577 -0.0625  0.0029  0.0901
    2CHL1  H15A   93   1.237   5.163   5.562  0.6424 -0.9158 -0.8699
    2CHL1  H15B   94   1.319   5.327   5.609 -0.3227  0.2549 -0.8277
    2CHL1   C16   95   1.419   5.202   5.460 -0.7366 -1.1416  0.7173
    2CHL1  H16A   96   1.362   5.179   5.367 -0.0372  0.3697 -0.1146
    2CHL1  H16B   97   1.470   5.300   5.450  0.6494 -1.7770  1.3074
    2CHL1   C17   98   1.526   5.093   5.497 -0.4077  0.7007  0.5382
    2CHL1   H17   99   1.616   5.154   5.522  1.1338 -1.6148  0.8933
    2CHL1   C13  100   1.480   5.025   5.627 -0.1162  0.3703  0.1081
    2CHL1   C18  101   1.374   4.915   5.584  0.2516 -0.0675  0.5844
    2CHL1  H18A  102   1.308   4.885   5.668  1.1662 -3.6636  0.1761
    2CHL1  H18B  103   1.311   4.946   5.498  1.2534 -0.7451 -0.4078
    2CHL1  H18C  104   1.416   4.814   5.563  0.7793  0.3817 -0.6366
    2CHL1   C12  105   1.584   4.970   5.727 -0.2951  0.0498 -0.6286
    2CHL1  H12A  106   1.640   4.880   5.694 -1.5203 -1.2429  0.6504
    2CHL1  H12B  107   1.672   5.034   5.748  0.8144 -1.7342  0.4569
    2CHL1   C11  108   1.507   4.926   5.857  0.3363  0.0936 -0.1717
    2CHL1  H11A  109   1.434   4.845   5.839 -2.1329  1.9994  0.6997
    2CHL1  H11B  110   1.588   4.898   5.927 -0.4544  0.1148  0.7621
    2CHL1    C9  111   1.420   5.038   5.921 -0.3451  0.4064  0.1519
    2CHL1    H9  112   1.490   5.117   5.956 -0.2665  0.8856 -1.0340
    2CHL1   C10  113   1.335   5.000   6.048 -0.1221  1.0988  0.1771
    2CHL1   C19  114   1.255   4.866   6.024  0.3051  0.3176 -0.7482
    2CHL1  H19A  115   1.171   4.878   5.952  0.0347 -1.3487 -0.7612
    2CHL1  H19B  116   1.314   4.776   5.996 -0.0889  0.1570 -1.0846
    2CHL1  H19C  117   1.201   4.839   6.117 -1.0311  2.0730 -0.9503
    2CHL1    C1  118   1.436   4.980   6.172  0.2921  0.2317 -0.1157
    2CHL1   H1A  119   1.504   4.895   6.148  0.0625  0.0706 -0.1981
    2CHL1   H1B  120   1.510   5.059   6.199  0.0233  0.1504  0.8819
    2CHL1    C2  121   1.369   4.956   6.312  0.1700 -0.4688 -0.3025
    2CHL1   H2A  122   1.450   4.954   6.388  0.3383  1.2329 -0.3980
    2CHL1   H2B  123   1.317   4.858   6.317  1.7444 -1.5753 -3.1145
    2CHL1   C20  124   1.577   4.996   5.390 -0.2459 -0.6713  0.6787
    2CHL1   H20  125   1.575   4.894   5.434  0.3146 -0.8623  0.2710
    2CHL1   C21  126   1.721   5.037   5.361  0.1765 -0.0241  0.1130
    2CHL1  H21A  127   1.776   4.971   5.291  0.6642  0.9421 -0.4357
    2CHL1  H21B  128   1.775   5.059   5.456 -0.2432 -2.1805  0.8969
    2CHL1  H21C  129   1.717   5.138   5.315 -0.4310 -0.2073 -0.2415
    2CHL1   C22  130   1.494   4.988   5.260  0.6936 -0.7278  0.1574
    2CHL1  H22A  131   1.385   4.979   5.276 -0.0894  2.1384 -2.5984
    2CHL1  H22B  132   1.513   5.083   5.206 -3.2453  0.6551  0.8838
    2CHL1   C23  133   1.524   4.870   5.174 -0.0735  0.2464 -0.3085
    2CHL1  H23A  134   1.634   4.859   5.159  0.0465  0.6882  0.2374
    2CHL1  H23B  135   1.477   4.789   5.233 -1.8968  0.3205 -1.6004
    2CHL1   C24  136   1.468   4.867   5.031  0.0816  0.2038  0.6542
    2CHL1  H24A  137   1.358   4.856   5.046  0.3502 -0.4235  2.2648
    2CHL1  H24B  138   1.486   4.962   4.975  1.0837 -0.9269 -1.0295
    2CHL1   C25  139   1.503   4.756   4.936 -0.2946 -0.0212  0.2938
    2CHL1   H25  140   1.431   4.775   4.854  1.8876 -1.0575 -2.0184
    2CHL1   C26  141   1.642   4.768   4.893 -0.1029  0.0300  0.6181
    2CHL1  H26A  142   1.708   4.766   4.982 -0.1363  0.6467  0.6625
    2CHL1  H26B  143   1.675   4.694   4.817 -0.5080 -0.3429  0.7997
    2CHL1  H26C  144   1.662   4.862   4.837  0.4006 -1.3418 -1.6528
    2CHL1   C27  145   1.473   4.626   5.001 -0.2779  0.2297 -0.4389
    2CHL1  H27A  146   1.507   4.545   4.933  1.6551  0.2936  0.3898
    2CHL1  H27B  147   1.532   4.609   5.093  0.2204 -2.1922 -1.1399
    2CHL1  H27C  148   1.365   4.614   5.021 -0.5709  1.0513 -1.4201
    3CHL1    C3  149   1.436   2.101   6.402  0.5427 -0.9678 -0.9778
    3CHL1    H3  150   1.344   2.138   6.353  2.3346  3.7070 -1.3054
    3CHL1    O3  151   1.419   2.124   6.545  0.2493 -0.0531  0.6794
    3CHL1   H3'  152   1.500   2.092   6.584  0.1129 -0.4419  0.6490
    3CHL1    C4  153   1.452   1.950   6.360 -0.3413  0.0707 -0.1543
    3CHL1   H4A  154   1.536   1.903   6.416  1.0722 -2.0224 -3.7197
    3CHL1   H4B  155   1.366   1.897   6.408 -0.4912 -0.5460 -1.0908
    3CHL1    C5  156   1.470   1.937   6.208 -0.1380 -0.3917 -1.0611
    3CHL1    C6  157   1.393   1.874   6.129  0.7375  0.3135  0.7546
    3CHL1    H6  158   1.308   1.818   6.170 -2.8032  3.2807 -1.8936
    3CHL1    C7  159   1.414   1.853   5.977 -0.0115  0.0401 -0.4460
    3CHL1   H7A  160   1.405   1.744   5.955  0.7976 -0.0570 -0.3385
    3CHL1   H7B  161   1.347   1.917   5.916  0.0413  0.8993  0.3724
    3CHL1    C8  162   1.560   1.882   5.943 -0.8329  0.5150  0.0190
    3CHL1    H8  163   1.634   1.805   5.974  0.0127  1.3765  0.1674
    3CHL1   C14  164   1.566   1.901   5.789 -0.5137 -0.9225  0.0347
    3CHL1   H14  165   1.512   1.995   5.765 -0.0529 -0.1475  1.9125
    3CHL1   C15  166   1.500   1.795   5.697  0.8371 -0.1041 -0.1271
    3CHL1  H15A  167   1.513   1.694   5.740  2.5717 -0.9687 -2.4659
    3CHL1  H15B  168   1.395   1.829   5.692  1.7701  3.0842 -0.6483
    3CHL1   C16  169   1.565   1.811   5.560  0.1502  0.5267 -0.2077
    3CHL1  H16A  170   1.607   1.713   5.528 -1.0956  0.4957 -1.9009
    3CHL1  H16B  171   1.482   1.851   5.498  0.5414  1.7143 -0.0045
    3CHL1   C17  172   1.671   1.930   5.580 -0.1503 -0.1310  0.7004
    3CHL1   H17  173   1.620   2.028   5.570  1.5969  0.8865  1.1881
    3CHL1   C13  174   1.702   1.931   5.729 -0.3731  0.5270 -0.7825
    3CHL1   C18  175   1.793   1.809   5.748  0.1851 -0.1802 -1.0784
    3CHL1  H18A  176   1.800   1.783   5.855 -0.3503  0.4881 -0.8756
    3CHL1  H18B  177   1.749   1.718   5.700  1.9014 -0.0416 -3.0801
    3CHL1  H18C  178   1.888   1.813   5.691  0.7348 -1.3558 -0.2731
    3CHL1   C12  179   1.761   2.050   5.791 -0.2279 -0.2287  0.4940
    3CHL1  H12A  180   1.870   2.053   5.769 -0.0531 -3.3116  0.4094
    3CHL1  H12B  181   1.710   2.138   5.747 -1.0091  0.1886  2.1737
    3CHL1   C11  182   1.743   2.061   5.940 -0.5041 -0.0079 -0.4776
    3CHL1  H11A  183   1.823   2.005   5.993 -0.6321  2.0772  2.1635
    3CHL1  H11B  184   1.772   2.166   5.964 -0.1960 -0.4324  1.1241
    3CHL1    C9  185   1.609   2.014   6.006  0.1311  0.1564  0.2099
    3CHL1    H9  186   1.542   2.097   5.973  0.6850 -0.1517 -1.8561
    3CHL1   C10  187   1.601   2.010   6.161 -0.5776 -0.3299  0.1160
    3CHL1   C19  188   1.717   1.928   6.220 -0.1513 -0.4845  0.2017
    3CHL1  H19A  189   1.809   1.990   6.218 -0.7683  0.7292  3.6986
    3CHL1  H19B  190   1.707   1.920   6.330 -2.7773  1.0389  0.1505
    3CHL1  H19C  191   1.728   1.825   6.180  0.7278 -0.1763 -0.3996
    3CHL1    C1  192   1.589   2.162   6.210  0.5427  0.2040 -0.1773
    3CHL1   H1A  193   1.686   2.208   6.183  1.1537 -0.5627  0.6198
    3CHL1   H1B  194   1.509   2.206   6.148  1.0693  2.5028  0.6838
    3CHL1    C2  195   1.557   2.180   6.353 -0.5015 -0.1486 -0.9008
    3CHL1   H2A  196   1.541   2.285   6.385 -2.6834 -0.0533 -2.1161
    3CHL1   H2B  197   1.646   2.157   6.416 -0.7668  0.5816 -0.2335
    3CHL1   C20  198   1.777   1.946   5.471  0.0592 -0.3233  0.2229
    3CHL1   H20  199   1.840   1.855   5.459  2.2096  1.2971 -1.5448
    3CHL1   C21  200   1.859   2.076   5.497 -0.1858  0.2595 -0.3322
    3CHL1  H21A  201   1.934   2.103   5.420  1.7530 -0.5892  1.1399
    3CHL1  H21B  202   1.925   2.064   5.586 -0.5105  0.2569 -0.0878
    3CHL1  H21C  203   1.805   2.173   5.495 -1.7946 -0.4760  2.2467
    3CHL1   C22  204   1.698   1.954   5.335 -0.6995  0.1813 -0.2222
    3CHL1  H22A  205   1.647   1.856   5.322 -1.7332  0.4898  1.2166
    3CHL1  H22B  206   1.614   2.027   5.336 -0.8841 -0.0309  0.8864
    3CHL1   C23  207   1.785   1.987   5.212 -0.1368 -0.0498 -0.2613
    3CHL1  H23A  208   1.709   1.997   5.133 -0.7607  1.3409  0.4712
    3CHL1  H23B  209   1.836   2.085   5.221 -0.9229  0.3385  0.1106
    3CHL1   C24  210   1.879   1.871   5.170  0.3076 -0.5386  0.3639
    3CHL1  H24A  211   1.947   1.851   5.255  1.6952 -0.3596 -0.6800
    3CHL1  H24B  212   1.816   1.779   5.177 -3.9611  2.2206  2.1754
    3CHL1   C25  213   1.971   1.899   5.047 -0.3741  0.0236 -0.5978
    3CHL1   H25  214   1.910   1.927   4.958 -0.9776  1.1162  0.1435
    3CHL1   C26  215   2.073   2.013   5.070 -0.2874  0.1868  0.5184
    3CHL1  H26A  216   2.127   1.991   5.165  1.7523  3.5732  0.2963
    3CHL1  H26B  217   2.138   2.022   4.981 -2.4449 -1.9925 -1.4041
    3CHL1  H26C  218   2.020   2.110   5.071  1.3541  1.1615 -1.5410
    3CHL1   C27  219   2.046   1.768   5.020 -0.1622  0.1701  0.8078
    3CHL1  H27A  220   2.117   1.784   4.936 -1.6083  0.5145 -0.3990
    3CHL1  H27B  221   2.101   1.741   5.112  0.5537 -0.1699  0.2903
    3CHL1  H27C  222   1.976   1.683   5.005  1.5130 -1.0398 -0.5900
    4CHL1    C3  223   1.014   3.317   6.133 -0.2465 -0.4176 -0.1714
    4CHL1    H3  224   0.921   3.278   6.088 -1.3268  1.1753  0.5992
    4CHL1    O3  225   0.992   3.354   6.268 -0.6350  0.0659  0.3723
    4CHL1   H3'  226   1.034   3.283   6.318 -0.1850 -1.1481 -1.6265
    4CHL1    C4  227   1.133   3.217   6.127  0.5090  0.4413  0.1971
    4CHL1   H4A  228   1.210   3.279   6.178 -0.4610  2.1838 -0.3757
    4CHL1   H4B  229   1.107   3.125   6.185  3.1017 -0.8836 -0.5774
    4CHL1    C5  230   1.167   3.177   5.990  0.0470  0.5707 -0.4763
    4CHL1    C6  231   1.162   3.052   5.945  0.3206 -0.2247  0.3373
    4CHL1    H6  232   1.142   2.973   6.020 -0.7139 -0.8853 -0.6124
    4CHL1    C7  233   1.202   3.011   5.808  0.2807 -0.5508  0.2356
    4CHL1   H7A  234   1.262   2.918   5.802 -0.0475 -0.6965 -1.4831
    4CHL1   H7B  235   1.106   2.979   5.760 -0.2200  1.1921 -0.0141
    4CHL1    C8  236   1.277   3.123   5.719  0.3265  0.0613 -0.5741
    4CHL1    H8  237   1.381   3.128   5.757  1.5544 -0.8548 -3.4838
    4CHL1   C14  238   1.286   3.084   5.579  0.6302  0.2340  0.8457
    4CHL1   H14  239   1.181   3.072   5.545  0.7915  1.1318 -0.0185
    4CHL1   C15  240   1.366   2.957   5.544  0.2391 -0.8731 -0.3076
    4CHL1  H15A  241   1.466   2.948   5.594  1.1190  0.1235 -1.8099
    4CHL1  H15B  242   1.321   2.858   5.564 -0.1152 -0.5479  0.5622
    4CHL1   C16  243   1.382   2.971   5.391 -0.6060 -0.2496 -0.2371
    4CHL1  H16A  244   1.491   2.971   5.373 -0.4072  0.5726  0.8677
    4CHL1  H16B  245   1.340   2.901   5.314  0.6290 -1.5543  0.2282
    4CHL1   C17  246   1.338   3.121   5.358  0.1237 -0.3105  0.2311
    4CHL1   H17  247   1.237   3.135   5.314  0.8815  1.3078 -1.1230
    4CHL1   C13  248   1.342   3.195   5.493  0.4655 -0.2012 -0.2202
    4CHL1   C18  249   1.482   3.241   5.532  0.1144 -0.0719 -0.6434
    4CHL1  H18A  250   1.559   3.166   5.503  1.5323  0.9561  0.2651
    4CHL1  H18B  251   1.512   3.338   5.487  0.0959 -0.5948 -1.8133
    4CHL1  H18C  252   1.499   3.237   5.642  1.3328 -1.0058 -0.8344
    4CHL1   C12  253   1.243   3.309   5.506  0.5087 -0.2672 -0.2325
    4CHL1  H12A  254   1.268   3.398   5.445  0.1994 -0.9880 -1.4582
    4CHL1  H12B  255   1.141   3.278   5.473  0.3760  2.1522 -2.3935
    4CHL1   C11  256   1.234   3.365   5.649 -0.2348  0.4617 -0.1674
    4CHL1  H11A  257   1.332   3.403   5.682  0.1621  0.8885 -1.7596
    4CHL1  H11B  258   1.163   3.451   5.641 -0.1488  0.3636 -3.7592
    4CHL1    C9  259   1.195   3.251   5.744  0.1089 -0.0821 -0.1652
    4CHL1    H9  260   1.089   3.226   5.720 -0.7474  2.1534  1.0316
    4CHL1   C10  261   1.201   3.291   5.897  0.1404  0.9206  0.3192
    4CHL1   C19  262   1.346   3.341   5.933 -0.3848 -0.3755 -0.2315
    4CHL1  H19A  263   1.427   3.274   5.898  0.2584  0.1327  0.2536
    4CHL1  H19B  264   1.366   3.444   5.895 -0.6840 -0.8448 -1.7112
    4CHL1  H19C  265   1.362   3.348   6.043 -1.2853 -0.6062 -0.0729
    4CHL1    C1  266   1.092   3.403   5.915  0.2722 -0.3938  0.1302
    4CHL1   H1A  267   1.128   3.495   5.865  2.0644 -0.7665  0.6599
    4CHL1   H1B  268   1.001   3.362   5.866  0.0399  0.0154  0.2190
    4CHL1    C2  269   1.049   3.442   6.053  0.5888  0.2883 -0.9621
    4CHL1   H2A  270   0.966   3.515   6.054 -1.1577 -1.5956  0.2452
    4CHL1   H2B  271   1.129   3.500   6.103 -1.5658  1.3154  1.5385
    4CHL1   C20  272   1.431   3.188   5.249 -0.2212  0.8065  0.1748
    4CHL1   H20  273   1.531   3.183   5.297 -0.4320  1.1985  0.6651
    4CHL1   C21  274   1.393   3.337   5.220 -0.1678 -0.2873 -0.2169
    4CHL1  H21A  275   1.434   3.403   5.299  1.6392 -0.5687 -0.8819
    4CHL1  H21B  276   1.289   3.369   5.195  0.5255  1.7290 -0.6740
    4CHL1  H21C  277   1.462   3.356   5.135 -0.2712 -1.3254 -0.5540
    4CHL1   C22  278   1.436   3.108   5.116  0.6619 -0.3329 -0.0624
    4CHL1  H22A  279   1.504   3.167   5.052 -1.3737  2.8912  0.4788
    4CHL1  H22B  280   1.478   3.008   5.139  1.5901  0.0127 -0.2526
    4CHL1   C23  281   1.297   3.089   5.051 -0.2435  0.5559 -0.1869
    4CHL1  H23A  282   1.229   3.047   5.128  1.0413  0.5253  0.9757
    4CHL1  H23B  283   1.261   3.189   5.021 -0.7312  0.4470  0.0319
    4CHL1   C24  284   1.295   2.985   4.932  0.5784 -0.1482 -0.1440
    4CHL1  H24A  285   1.370   3.019   4.857 -0.7148 -0.0011 -1.3945
    4CHL1  H24B  286   1.335   2.888   4.969  2.6535  0.6597 -0.0994
    4CHL1   C25  287   1.170   2.982   4.862  0.3540 -0.8169  0.1304
    4CHL1   H25  288   1.142   3.085   4.833 -0.7660 -0.8253  1.1325
    4CHL1   C26  289   1.188   2.902   4.729 -0.8612  0.4103 -0.0603
    4CHL1  H26A  290   1.259   2.944   4.655  0.0189 -0.1689  0.4459
    4CHL1  H26B  291   1.219   2.798   4.752 -1.4115 -0.2455 -2.0464
    4CHL1  H26C  292   1.092   2.885   4.675  0.2524  1.2436 -2.4464
    4CHL1   C27  293   1.067   2.908   4.943 -0.4811 -0.5443 -0.3196
    4CHL1  H27A  294   1.101   2.807   4.974 -0.9197 -0.8438 -0.8153
    4CHL1  H27B  295   1.035   2.954   5.039 -0.1600 -0.1838 -0.3831
    4CHL1  H27C  296   0.976   2.893   4.881 -1.1814  1.5006  0.1450
    5CHL1    C3  297   2.231   5.988   6.559 -0.4486  0.1332 -0.2661
    5CHL1    H3  298   2.150   5.917   6.588 -0.9344 -0.1353 -2.0992
    5CHL1    O3  299   2.307   6.011   6.676 -0.1422 -0.2844 -0.4691
    5CHL1   H3'  300   2.331   5.924   6.709  1.6980 -0.6986 -2.5963
    5CHL1    C4  301   2.316   5.906   6.452  0.1848 -1.2886  0.5802
    5CHL1   H4A  302   2.411   5.963   6.453 -1.6161  2.0199  3.5335
    5CHL1   H4B  303   2.323   5.802   6.491  1.9497 -1.5349 -0.3052
    5CHL1    C5  304   2.256   5.915   6.313 -0.0296  0.1981 -0.0342
    5CHL1    C6  305   2.259   5.803   6.240 -0.5705  0.3810 -0.6213
    5CHL1    H6  306   2.298   5.707   6.279 -1.1887 -0.1964 -1.3978
    5CHL1    C7  307   2.206   5.794   6.101 -0.2002 -0.2712  0.5255
    5CHL1   H7A  308   2.273   5.748   6.025  1.9259  0.8708  1.6170
    5CHL1   H7B  309   2.120   5.723   6.102 -2.0970  1.8547  3.0513
    5CHL1    C8  310   2.167   5.925   6.040 -0.1553  0.2048  0.7800
    5CHL1    H8  311   2.264   5.968   6.006  2.4458 -4.5642  1.2173
    5CHL1   C14  312   2.079   5.903   5.921  0.0899  0.7599 -0.2200
    5CHL1   H14  313   1.995   5.851   5.970  0.9060  0.1420  0.5679
    5CHL1   C15  314   2.128   5.809   5.804  0.2514  0.0591  0.0990
    5CHL1  H15A  315   2.233   5.830   5.773  0.3605  0.8449  0.9686
    5CHL1  H15B  316   2.121   5.703   5.836 -1.7209 -0.3752 -1.5784
    5CHL1   C16  317   2.030   5.830   5.688 -0.3063  0.0441 -0.3006
    5CHL1  H16A  318   2.081   5.834   5.589  0.7643 -1.8241  0.1398
    5CHL1  H16B  319   1.958   5.745   5.691 -0.7284  0.1948 -3.3600
    5CHL1   C17  320   1.959   5.961   5.724  0.5350  0.2658  0.2513
    5CHL1   H17  321   1.858   5.932   5.758 -0.5781 -0.5107 -3.2956
    5CHL1   C13  322   2.035   6.031   5.845 -0.0593  0.3469  0.8352
    5CHL1   C18  323   2.152   6.110   5.785 -0.1379  0.2411 -0.4647
    5CHL1  H18A  324   2.120   6.213   5.758  0.2952  0.0187 -1.9623
    5CHL1  H18B  325   2.232   6.121   5.861 -1.6517 -1.0462  1.4063
    5CHL1  H18C  326   2.184   6.062   5.690 -0.1281 -0.5189 -0.0842
    5CHL1   C12  327   1.957   6.125   5.937 -0.6779  0.2326  0.1414
    5CHL1  H12A  328   1.930   6.221   5.890  0.1239  0.1741 -0.4598
    5CHL1  H12B  329   1.858   6.075   5.940 -0.8305  0.3120 -2.1345
    5CHL1   C11  330   2.035   6.140   6.071  0.1128  0.1752 -0.1558
    5CHL1  H11A  331   2.124   6.198   6.037  1.9182 -1.9440  0.6427
    5CHL1  H11B  332   1.974   6.187   6.151  1.2213  0.3871  0.5894
    5CHL1    C9  333   2.096   6.014   6.145 -0.6860 -0.4341  0.3937
    5CHL1    H9  334   2.009   5.951   6.173 -0.4980 -1.3763 -1.0347
    5CHL1   C10  335   2.191   6.049   6.269 -0.3446 -0.6941 -0.2659
    5CHL1   C19  336   2.302   6.152   6.229  0.0602  0.4999  1.0176
    5CHL1  H19A  337   2.266   6.256   6.213  1.6815  1.1775  1.5695
    5CHL1  H19B  338   2.382   6.165   6.305  1.1532  2.1905 -0.3522
    5CHL1  H19C  339   2.355   6.114   6.139 -2.7665  1.8626 -1.3861
    5CHL1    C1  340   2.109   6.116   6.384  0.1696  1.1832 -0.4905
    5CHL1   H1A  341   2.085   6.221   6.355 -1.7878  0.9278  0.0254
    5CHL1   H1B  342   2.011   6.066   6.401  1.9908 -2.3986  0.3993
    5CHL1    C2  343   2.176   6.122   6.510 -0.6817 -0.2873 -0.2370
    5CHL1   H2A  344   2.123   6.176   6.591  2.0494  0.3918  1.2207
    5CHL1   H2B  345   2.266   6.187   6.499 -1.6969  1.0019 -1.2042
    5CHL1   C20  346   1.925   6.046   5.593 -0.3333 -0.0544  0.1450
    5CHL1   H20  347   2.018   6.091   5.555 -1.7354  0.6712 -2.6776
    5CHL1   C21  348   1.838   6.164   5.630 -0.6862 -0.9805  0.2934
    5CHL1  H21A  349   1.900   6.238   5.685  0.2466  0.9314 -3.0468
    5CHL1  H21B  350   1.751   6.140   5.695 -0.7241 -0.4631  0.4387
    5CHL1  H21C  351   1.810   6.229   5.545  1.0500  0.1491  0.5262
    5CHL1   C22  352   1.857   5.958   5.483  0.3753  0.2895 -0.1891
    5CHL1  H22A  353   1.911   5.861   5.469 -0.7255 -0.1367 -1.8336
    5CHL1  H22B  354   1.751   5.940   5.511  1.0931  0.4838  2.9364
    5CHL1   C23  355   1.861   6.033   5.347  0.3961  0.1048  0.5298
    5CHL1  H23A  356   1.811   6.132   5.343  0.9390  0.3859 -3.7290
    5CHL1  H23B  357   1.965   6.057   5.318  0.2368  0.9546  0.6397
    5CHL1   C24  358   1.791   5.962   5.237  0.6169 -0.1235  0.0385
    5CHL1  H24A  359   1.839   5.864   5.214 -1.2727 -0.5217 -2.7525
    5CHL1  H24B  360   1.687   5.927   5.255  0.2212  0.7792 -0.4460
    5CHL1   C25  361   1.787   6.033   5.094  0.2555  0.2728 -0.0307
    5CHL1   H25  362   1.715   6.117   5.106  0.0288  0.4095 -2.0392
    5CHL1   C26  363   1.920   6.088   5.062  0.1786  0.1697  0.7263
    5CHL1  H26A  364   1.940   6.170   5.134 -1.1855  0.1825  1.1011
    5CHL1  H26B  365   1.990   6.004   5.083  1.0150  0.5746 -0.3653
    5CHL1  H26C  366   1.922   6.121   4.956 -0.8263 -0.2010  0.5850
    5CHL1   C27  367   1.733   5.941   4.984 -0.1502  0.1811  0.4961
    5CHL1  H27A  368   1.642   5.892   5.025 -0.5143  0.1697 -0.3117
    5CHL1  H27B  369   1.711   6.002   4.894 -1.8122 -3.4122 -1.8141
    5CHL1  H27C  370   1.811   5.870   4.950 -0.9089 -1.7408  2.4725
    6CHL1    C3  371   6.688   2.184   6.476 -0.3727  0.2967  0.4817
    6CHL1    H3  372   6.611   2.263   6.459 -1.9828 -1.3659 -0.2237
    6CHL1    O3  373   6.694   2.158   6.617  0.6521 -0.0988 -0.0100
    6CHL1   H3'  374   6.717   2.065   6.621 -0.3378 -0.3869 -0.6350
    6CHL1    C4  375   6.645   2.056   6.399  0.2322  0.0425  0.1485
    6CHL1   H4A  376   6.705   1.967   6.426  0.0215  0.1180  0.8704
    6CHL1   H4B  377   6.543   2.028   6.431 -0.7167  2.4708 -0.5038
    6CHL1    C5  378   6.627   2.086   6.251  0.1829 -0.2504 -0.1560
    6CHL1    C6  379   6.512   2.075   6.182  0.3454 -0.7712  0.7008
    6CHL1    H6  380   6.420   2.043   6.233  0.3521 -2.7077 -0.4124
    6CHL1    C7  381   6.498   2.079   6.025  0.2364  0.1428 -0.6408
    6CHL1   H7A  382   6.460   1.987   5.976 -0.0153 -0.1969  0.1720
    6CHL1   H7B  383   6.434   2.165   5.995 -0.2620  0.3901  0.9904
    6CHL1    C8  384   6.635   2.113   5.953  0.1199  0.1651  0.3977
    6CHL1    H8  385   6.685   2.015   5.938 -0.6116  0.1041 -2.0716
    6CHL1   C14  386   6.623   2.172   5.813  0.0721 -0.5908  0.6297
    6CHL1   H14  387   6.593   2.277   5.834 -1.1640 -0.7444 -0.2608
    6CHL1   C15  388   6.520   2.130   5.715  0.5862  0.2634  0.8566
    6CHL1  H15A  389   6.515   2.020   5.704 -0.2389  0.3171  0.6241
    6CHL1  H15B  390   6.418   2.173   5.729 -0.5515 -1.0825 -2.3658
    6CHL1   C16  391   6.576   2.187   5.579 -0.4817  0.6561 -0.6885
    6CHL1  H16A  392   6.594   2.110   5.501 -0.9679 -0.8194  0.6089
    6CHL1  H16B  393   6.504   2.253   5.526  0.4021 -1.2676 -4.6642
    6CHL1   C17  394   6.705   2.262   5.605  0.0737  0.0690 -0.1421
    6CHL1   H17  395   6.679   2.369   5.620  0.5903  0.7034 -3.1388
    6CHL1   C13  396   6.755   2.194   5.736  0.3984  0.0334 -0.4018
    6CHL1   C18  397   6.820   2.060   5.695  0.2019 -0.7188  0.3147
    6CHL1  H18A  398   6.763   1.995   5.625  0.4735  0.0427 -0.6403
    6CHL1  H18B  399   6.925   2.084   5.668  1.2067 -1.1415  3.4390
    6CHL1  H18C  400   6.828   1.992   5.783  0.2864 -0.8145  0.2340
    6CHL1   C12  401   6.852   2.281   5.823  0.0427 -0.3194 -0.1924
    6CHL1  H12A  402   6.952   2.290   5.776 -0.4713 -1.0097 -1.4487
    6CHL1  H12B  403   6.805   2.381   5.831  0.8383 -0.0770  3.2116
    6CHL1   C11  404   6.865   2.218   5.961 -0.0792  0.1936 -0.1262
    6CHL1  H11A  405   6.923   2.123   5.965  1.1300  0.8266 -1.4744
    6CHL1  H11B  406   6.929   2.281   6.026 -1.6543  2.4930 -0.6836
    6CHL1    C9  407   6.733   2.198   6.039  0.5575  0.8275 -0.1731
    6CHL1    H9  408   6.681   2.295   6.052  2.1588  1.4754  2.0041
    6CHL1   C10  409   6.758   2.136   6.185 -0.1941  0.4150  0.1184
    6CHL1   C19  410   6.851   2.009   6.177  0.1497  0.4083 -0.2355
    6CHL1  H19A  411   6.876   1.981   6.282 -0.7017  0.3042 -0.0505
    6CHL1  H19B  412   6.801   1.919   6.134 -0.6682  0.0379  1.4115
    6CHL1  H19C  413   6.948   2.021   6.125  0.1501  2.0187  0.0711
    6CHL1    C1  414   6.832   2.243   6.273  0.0222  0.2788  0.0843
    6CHL1   H1A  415   6.939   2.253   6.245  0.3261 -0.8788  0.7722
    6CHL1   H1B  416   6.769   2.328   6.239  0.3248  2.0555  3.4975
    6CHL1    C2  417   6.829   2.230   6.431  0.1812 -0.7226  0.0371
    6CHL1   H2A  418   6.863   2.323   6.482  3.7516 -1.4895 -0.7339
    6CHL1   H2B  419   6.900   2.147   6.450 -0.1493 -0.8113  0.9664
    6CHL1   C20  420   6.796   2.266   5.481 -0.0133 -0.2261  0.2411
    6CHL1   H20  421   6.807   2.165   5.436  1.0196  0.1674 -0.4215
    6CHL1   C21  422   6.930   2.327   5.507 -0.1416  0.0275 -0.1533
    6CHL1  H21A  423   6.987   2.354   5.415 -0.8249 -0.0785 -0.6178
    6CHL1  H21B  424   6.985   2.261   5.577  0.7365 -2.4843 -3.0050
    6CHL1  H21C  425   6.916   2.425   5.558 -2.1580 -1.4443  2.3323
    6CHL1   C22  426   6.717   2.346   5.373 -0.7642  0.8021 -0.2025
    6CHL1  H22A  427   6.635   2.286   5.327 -1.0197  0.8441  0.1970
    6CHL1  H22B  428   6.664   2.434   5.415  2.1078  3.0040 -0.8343
    6CHL1   C23  429   6.791   2.403   5.247 -1.1877  0.2621 -0.4697
    6CHL1  H23A  430   6.870   2.479   5.267 -0.3584 -0.3776 -1.2260
    6CHL1  H23B  431   6.838   2.318   5.193 -1.7212  0.8357 -1.8906
    6CHL1   C24  432   6.694   2.464   5.137 -0.1012  0.1938 -0.0595
    6CHL1  H24A  433   6.604   2.400   5.144 -0.7415  0.9215 -1.4296
    6CHL1  H24B  434   6.683   2.573   5.154 -0.6057  0.2363 -0.6319
    6CHL1   C25  435   6.758   2.453   4.990  0.1386 -0.6770  0.0062
    6CHL1   H25  436   6.787   2.346   4.982 -1.0525 -1.0097 -0.0358
    6CHL1   C26  437   6.648   2.494   4.894  0.5001 -1.1319  0.1307
    6CHL1  H26A  438   6.693   2.520   4.796  0.6642 -4.5325 -0.8239
    6CHL1  H26B  439   6.566   2.419   4.890  0.0688 -0.6528 -0.0604
    6CHL1  H26C  440   6.603   2.588   4.932  0.6753 -0.8102 -0.4531
    6CHL1   C27  441   6.881   2.547   4.975 -0.2539 -0.5748 -0.1495
    6CHL1  H27A  442   6.928   2.543   4.875 -0.0769  0.7077 -0.1344
    6CHL1  H27B  443   6.844   2.650   4.996 -0.4190 -0.7489  0.4316
    6CHL1  H27C  444   6.960   2.520   5.048  2.3504  2.5381 -1.5706
    7CHL1    C3  445   0.331   1.531   6.284  0.2944  0.3083  0.3564
    7CHL1    H3  446   0.405   1.448   6.277  1.9687  1.7135  0.5273
    7CHL1    O3  447   0.302   1.555   6.421  0.3266  0.0042 -0.2085
    7CHL1   H3'  448   0.385   1.575   6.464 -0.2275  1.5754  0.1830
    7CHL1    C4  449   0.387   1.655   6.223 -0.9310 -0.0161  0.4581
    7CHL1   H4A  450   0.334   1.749   6.252  0.4546  0.4763  1.5043
    7CHL1   H4B  451   0.491   1.674   6.255 -0.0754 -1.3892 -1.3179
    7CHL1    C5  452   0.391   1.654   6.069  0.5356 -0.1528 -0.0196
    7CHL1    C6  453   0.507   1.670   6.008 -0.4566  0.2569 -0.5689
    7CHL1    H6  454   0.598   1.686   6.069  0.1410  0.1538 -1.4158
    7CHL1    C7  455   0.528   1.675   5.862 -0.5634  0.4764  0.2999
    7CHL1   H7A  456   0.602   1.756   5.849 -0.9655  1.1504  2.0489
    7CHL1   H7B  457   0.567   1.575   5.833 -0.5373  0.2340  1.1429
    7CHL1    C8  458   0.390   1.696   5.792  0.6039 -0.2508 -0.3662
    7CHL1    H8  459   0.358   1.800   5.810  0.6215 -0.1498 -0.9104
    7CHL1   C14  460   0.409   1.665   5.646 -0.3450  0.4042  0.8276
    7CHL1   H14  461   0.453   1.563   5.645 -0.2339  0.4222  2.2041
    7CHL1   C15  462   0.521   1.747   5.576  0.2308 -0.3897  0.5400
    7CHL1  H15A  463   0.515   1.854   5.603 -0.9660  0.2006 -1.8342
    7CHL1  H15B  464   0.624   1.717   5.607  0.3665 -0.8525 -0.3145
    7CHL1   C16  465   0.489   1.718   5.429  0.0896  0.3074  1.0450
    7CHL1  H16A  466   0.492   1.816   5.378 -2.6346  0.9633  1.9603
    7CHL1  H16B  467   0.567   1.646   5.395 -1.0700  0.0879 -1.3776
    7CHL1   C17  468   0.350   1.638   5.415  0.1119 -1.1286  0.4880
    7CHL1   H17  469   0.371   1.530   5.402  0.5590 -0.7688 -2.3486
    7CHL1   C13  470   0.285   1.670   5.556 -0.7031 -0.2601 -0.3454
    7CHL1   C18  471   0.228   1.815   5.546 -0.7672 -0.0431  0.0624
    7CHL1  H18A  472   0.127   1.805   5.502 -0.7752  0.4003 -0.0309
    7CHL1  H18B  473   0.205   1.855   5.647  0.8955  1.1246  0.0269
    7CHL1  H18C  474   0.289   1.892   5.494 -0.7276 -0.1065  0.0142
    7CHL1   C12  475   0.180   1.572   5.614 -0.1840 -0.2353 -0.0935
    7CHL1  H12A  476   0.087   1.577   5.553 -0.0928  1.5076 -0.1545
    7CHL1  H12B  477   0.226   1.471   5.616  1.0840  0.3334  0.9536
    7CHL1   C11  478   0.160   1.595   5.763 -0.5420  0.1972 -0.0796
    7CHL1  H11A  479   0.115   1.697   5.760 -2.0342 -0.3906  0.9864
    7CHL1  H11B  480   0.083   1.530   5.809 -1.2350  1.0273 -0.0294
    7CHL1    C9  481   0.284   1.594   5.844 -0.3491 -0.1844  0.2514
    7CHL1    H9  482   0.330   1.493   5.832 -2.2938 -1.0821 -0.1648
    7CHL1   C10  483   0.262   1.615   5.996  0.5871 -1.1995 -0.3084
    7CHL1   C19  484   0.166   1.733   6.013  0.1260 -0.0057 -0.1802
    7CHL1  H19A  485   0.137   1.761   6.116 -1.1224  0.3526 -0.6116
    7CHL1  H19B  486   0.220   1.818   5.967  2.5972 -0.5825  1.4735
    7CHL1  H19C  487   0.067   1.727   5.962  0.6337  2.2544 -1.5303
    7CHL1    C1  488   0.208   1.484   6.058 -0.3995 -0.8753 -0.5240
    7CHL1   H1A  489   0.106   1.465   6.018 -0.9958  0.2938  0.3703
    7CHL1   H1B  490   0.271   1.394   6.043  3.2653  1.6781 -1.7709
    7CHL1    C2  491   0.199   1.503   6.212 -0.2806 -0.3774 -0.3176
    7CHL1   H2A  492   0.169   1.405   6.255  0.4499 -0.4410  0.0696
    7CHL1   H2B  493   0.126   1.582   6.239  0.3586  0.2184 -0.2826
    7CHL1   C20  494   0.282   1.684   5.282  0.1275  0.1853 -0.1640
    7CHL1   H20  495   0.251   1.789   5.297 -1.5476 -0.1526 -0.9907
    7CHL1   C21  496   0.149   1.604   5.262  0.7218  0.1404 -0.2882
    7CHL1  H21A  497   0.088   1.614   5.170  0.1441  0.6995  0.1505
    7CHL1  H21B  498   0.088   1.636   5.349  0.1524  0.3538 -0.7586
    7CHL1  H21C  499   0.184   1.499   5.274 -0.3877 -0.3911 -1.4680
    7CHL1   C22  500   0.357   1.677   5.147 -0.0698 -0.0050  0.7800
    7CHL1  H22A  501   0.285   1.721   5.074  0.4623 -0.0161  0.2426
    7CHL1  H22B  502   0.445   1.744   5.151 -0.6060  0.8564 -0.8632
    7CHL1   C23  503   0.407   1.530   5.106 -0.4920 -0.1466 -0.4517
    7CHL1  H23A  504   0.500   1.504   5.161 -2.2200 -0.8836  2.2918
    7CHL1  H23B  505   0.331   1.451   5.121  0.5102 -1.0144  0.1573
    7CHL1   C24  506   0.451   1.531   4.959  0.1700  0.3043  0.1492
    7CHL1  H24A  507   0.516   1.618   4.941  2.0206 -1.2452 -1.0635
    7CHL1  H24B  508   0.512   1.444   4.926  0.9393  0.9123 -0.0351
    7CHL1   C25  509   0.336   1.516   4.853 -0.1152 -0.4162  0.5363
    7CHL1   H25  510   0.266   1.593   4.892  1.1977  0.9490  0.2858
    7CHL1   C26  511   0.370   1.551   4.710 -0.5685 -0.4258 -0.7152
    7CHL1  H26A  512   0.401   1.657   4.708 -0.9625 -0.3145 -1.0801
    7CHL1  H26B  513   0.463   1.495   4.684 -0.5635 -0.5866 -0.3594
    7CHL1  H26C  514   0.292   1.521   4.637  1.3792 -3.4827 -1.7681
    7CHL1   C27  515   0.270   1.379   4.866 -0.2710 -0.8773  0.1109
    7CHL1  H27A  516   0.186   1.359   4.795  1.8725  0.7307 -3.1139
    7CHL1  H27B  517   0.351   1.306   4.845 -0.2331 -1.0470  0.8103
    7CHL1  H27C  518   0.251   1.346   4.971  5.2054 -0.5328  1.4883
    8CHL1    C3  519   5.088   3.592   6.023 -0.4795 -0.3046  0.5882
    8CHL1    H3  520   5.138   3.678   5.975  0.6057 -0.7102  0.9571
    8CHL1    O3  521   5.064   3.627   6.160 -0.1618 -0.3853 -0.1057
    8CHL1   H3'  522   5.024   3.551   6.204 -3.4514  1.0439 -0.3498
    8CHL1    C4  523   4.952   3.569   5.954 -0.1953 -0.0864  0.3493
    8CHL1   H4A  524   4.895   3.485   6.000 -2.9787  1.9940  0.9408
    8CHL1   H4B  525   4.888   3.658   5.970  0.4971  0.4534  0.1751
    8CHL1    C5  526   4.976   3.534   5.805 -0.6044 -0.3119  0.5768
    8CHL1    C6  527   4.922   3.606   5.716  0.3277  0.0991 -0.2515
    8CHL1    H6  528   4.870   3.698   5.747 -1.2291 -0.2423 -1.7147
    8CHL1    C7  529   4.929   3.582   5.569  0.7372 -0.2210  0.3332
    8CHL1   H7A  530   4.836   3.602   5.513 -0.8948  0.8250  3.2174
    8CHL1   H7B  531   5.005   3.651   5.527  1.3478 -0.5929  0.8126
    8CHL1    C8  532   4.983   3.440   5.539 -0.2401 -0.4442  0.3432
    8CHL1    H8  533   4.896   3.372   5.556 -0.5897  0.5912  3.4255
    8CHL1   C14  534   5.017   3.415   5.394 -0.3047 -0.0812 -0.1574
    8CHL1   H14  535   5.104   3.476   5.362  0.3100 -1.7045 -1.7753
    8CHL1   C15  536   4.912   3.444   5.285  0.3792  0.6274 -0.0175
    8CHL1  H15A  537   4.810   3.409   5.312  0.1489  0.8073 -0.6395
    8CHL1  H15B  538   4.894   3.550   5.259 -0.5703  0.2217 -1.0833
    8CHL1   C16  539   4.954   3.363   5.167 -1.1981  0.2273  0.2922
    8CHL1  H16A  540   4.867   3.301   5.136 -2.5331  2.6537 -1.1061
    8CHL1  H16B  541   4.978   3.441   5.092 -0.5475 -1.0092 -0.8305
    8CHL1   C17  542   5.081   3.283   5.213 -0.0428 -0.6316  0.3970
    8CHL1   H17  543   5.172   3.345   5.198  0.6454 -2.2018 -2.5371
    8CHL1   C13  544   5.071   3.272   5.366 -0.3897 -1.1326 -0.8185
    8CHL1   C18  545   4.959   3.173   5.406  1.0549 -0.0762  0.4652
    8CHL1  H18A  546   4.997   3.074   5.371  0.4085 -0.6495  1.3211
    8CHL1  H18B  547   4.955   3.162   5.516  1.0330 -2.7642  0.2749
    8CHL1  H18C  548   4.859   3.196   5.363  2.6656  3.2046 -1.9616
    8CHL1   C12  549   5.199   3.247   5.442  0.4927 -0.2683  0.1524
    8CHL1  H12A  550   5.237   3.144   5.427 -0.9239 -1.4035  3.3898
    8CHL1  H12B  551   5.270   3.325   5.408 -1.2682  1.8627  1.0702
    8CHL1   C11  552   5.177   3.270   5.595 -0.6996  0.3843  0.4814
    8CHL1  H11A  553   5.124   3.181   5.634 -1.8060  0.1476 -1.4393
    8CHL1  H11B  554   5.274   3.271   5.650  0.3641  0.7072 -1.3100
    8CHL1    C9  555   5.103   3.407   5.631  0.3121 -0.0433 -0.4198
    8CHL1    H9  556   5.174   3.491   5.613  1.4022 -0.8502  0.0325
    8CHL1   C10  557   5.067   3.415   5.782  0.6971  0.0503  0.2296
    8CHL1   C19  558   4.986   3.286   5.824  1.0242  0.1132  0.0109
    8CHL1  H19A  559   4.905   3.270   5.750  0.0893 -0.1849  1.0763
    8CHL1  H19B  560   5.050   3.195   5.822  0.4817 -0.3804  2.2724
    8CHL1  H19C  561   4.950   3.289   5.929  3.0872 -2.0186  0.8752
    8CHL1    C1  562   5.196   3.428   5.867 -0.1775 -0.3608 -0.5748
    8CHL1   H1A  563   5.268   3.344   5.858  1.7952  0.9913  1.3576
    8CHL1   H1B  564   5.253   3.508   5.814 -1.9255  1.4522  0.1878
    8CHL1    C2  565   5.175   3.470   6.014 -0.1533 -0.3664 -0.0128
    8CHL1   H2A  566   5.274   3.479   6.062 -1.3703  1.0897  2.4459
    8CHL1   H2B  567   5.128   3.382   6.064  1.5470 -1.9479 -1.0571
    8CHL1   C20  568   5.111   3.142   5.145  0.9572 -0.8771 -0.0246
    8CHL1   H20  569   5.154   3.068   5.216  1.1822 -1.7870 -1.0838
    8CHL1   C21  570   5.218   3.170   5.035 -0.1871 -0.2521  0.0259
    8CHL1  H21A  571   5.312   3.210   5.079 -1.0400  0.7013  1.0642
    8CHL1  H21B  572   5.169   3.248   4.973 -0.8986 -1.0837 -0.4786
    8CHL1  H21C  573   5.250   3.078   4.982  2.9195  0.3808  0.5794
    8CHL1   C22  574   4.982   3.080   5.095 -0.3315  0.2030  0.5080
    8CHL1  H22A  575   4.912   3.067   5.180  0.1287  1.0115  1.0240
    8CHL1  H22B  576   4.949   3.153   5.018  2.8394  1.6362  0.3635
    8CHL1   C23  577   5.007   2.942   5.033 -0.1424  0.1759 -0.3696
    8CHL1  H23A  578   5.084   2.952   4.954  1.1134  3.7196  1.0901
    8CHL1  H23B  579   5.040   2.871   5.112  0.0669  1.3790  0.6577
    8CHL1   C24  580   4.873   2.885   4.985  0.0041  0.3427  0.2799
    8CHL1  H24A  581   4.792   2.892   5.062  1.2213 -0.4577  1.6909
    8CHL1  H24B  582   4.834   2.950   4.905  0.1989  0.0737 -0.0369
    8CHL1   C25  583   4.873   2.747   4.920 -0.3645 -0.6358 -0.3345
    8CHL1   H25  584   4.931   2.765   4.826 -1.1590 -2.0096 -1.1242
    8CHL1   C26  585   4.932   2.630   5.008  0.6229 -0.4070 -0.6752
    8CHL1  H26A  586   4.857   2.594   5.081 -0.0924  0.5640 -0.9108
    8CHL1  H26B  587   4.966   2.548   4.940 -0.3464  0.5177 -2.3485
    8CHL1  H26C  588   5.019   2.666   5.067  1.1242 -0.1375 -1.5579
    8CHL1   C27  589   4.726   2.719   4.874  0.4194 -0.2753  0.1535
    8CHL1  H27A  590   4.709   2.789   4.790  2.8846  0.1842 -0.0627
    8CHL1  H27B  591   4.723   2.617   4.830 -0.6173 -0.5244  0.7829
    8CHL1  H27C  592   4.661   2.741   4.961 -3.8826  0.2260 -2.9163
    9CHL1    C3  593   0.893   1.605   6.291  0.2224 -0.1253  0.0359
    9CHL1    H3  594   0.877   1.698   6.233  0.3288 -0.7179 -0.9709
    9CHL1    O3  595   0.820   1.618   6.419 -0.6417 -0.5751 -0.2420
    9CHL1   H3'  596   0.866   1.562   6.483  2.0463  0.1406 -1.3880
    9CHL1    C4  597   0.831   1.489   6.214 -0.5962 -0.4166 -0.6523
    9CHL1   H4A  598   0.842   1.392   6.267  2.3589 -0.7964 -1.7575
    9CHL1   H4B  599   0.722   1.511   6.208 -0.1699  2.8750  1.2243
    9CHL1    C5  600   0.898   1.481   6.075 -0.7063 -0.6582  0.6098
    9CHL1    C6  601   0.827   1.495   5.965  0.5617 -0.5258 -0.0415
    9CHL1    H6  602   0.718   1.498   5.968  0.5275  1.9799 -1.1479
    9CHL1    C7  603   0.880   1.494   5.825  0.0601 -0.3886  0.3136
    9CHL1   H7A  604   0.815   1.438   5.755  0.7805 -1.6722  0.6357
    9CHL1   H7B  605   0.893   1.596   5.784 -0.2346  0.2338  1.7278
    9CHL1    C8  606   1.014   1.420   5.816 -1.3390 -0.2584  0.0380
    9CHL1    H8  607   1.009   1.311   5.833  0.8069 -0.4538 -0.2511
    9CHL1   C14  608   1.081   1.453   5.685  0.1012 -0.9575  0.2437
    9CHL1   H14  609   1.095   1.563   5.689  2.3638 -1.1612 -0.4191
    9CHL1   C15  610   1.006   1.438   5.554  0.1869 -0.6071 -0.6105
    9CHL1  H15A  611   0.958   1.338   5.560 -0.4436 -0.3110 -0.5859
    9CHL1  H15B  612   0.929   1.517   5.543  0.8301  0.2637  0.7652
    9CHL1   C16  613   1.112   1.450   5.449 -1.2561  1.2313  0.8009
    9CHL1  H16A  614   1.096   1.355   5.392 -1.2931  0.6644  1.7339
    9CHL1  H16B  615   1.097   1.531   5.374 -1.0073 -0.4424 -1.1595
    9CHL1   C17  616   1.250   1.461   5.515 -0.5514  0.2535  0.5246
    9CHL1   H17  617   1.262   1.571   5.527 -0.7288  0.4193 -0.6318
    9CHL1   C13  618   1.220   1.403   5.657 -0.3564 -0.0811  0.6765
    9CHL1   C18  619   1.231   1.253   5.653  0.9865  0.1626 -0.2211
    9CHL1  H18A  620   1.209   1.197   5.746 -0.2832  1.4117  0.2718
    9CHL1  H18B  621   1.178   1.203   5.569 -0.6498  0.7669  0.4046
    9CHL1  H18C  622   1.338   1.228   5.637  1.1249  1.8058 -2.3972
    9CHL1   C12  623   1.311   1.465   5.762  0.8310  0.1690  0.3372
    9CHL1  H12A  624   1.415   1.425   5.760  0.1585 -1.6588 -0.0739
    9CHL1  H12B  625   1.309   1.575   5.750 -1.1258  0.0484 -0.7566
    9CHL1   C11  626   1.258   1.444   5.903  0.0168  0.4903 -0.4695
    9CHL1  H11A  627   1.282   1.342   5.938  1.8515  1.2549  0.6669
    9CHL1  H11B  628   1.320   1.499   5.977 -1.0547  0.5964  0.3638
    9CHL1    C9  629   1.111   1.482   5.924 -0.3773  0.5358 -0.2489
    9CHL1    H9  630   1.099   1.591   5.903  0.5180  0.4463 -1.3361
    9CHL1   C10  631   1.055   1.464   6.073  0.6099  0.3035  0.4795
    9CHL1   C19  632   1.081   1.319   6.126  0.1267 -0.3447 -0.5339
    9CHL1  H19A  633   1.038   1.290   6.225  2.2515 -1.0936  0.2327
    9CHL1  H19B  634   1.043   1.240   6.058  2.2947 -1.6160 -0.3633
    9CHL1  H19C  635   1.190   1.313   6.147  0.3387  0.6110 -1.2722
    9CHL1    C1  636   1.117   1.564   6.168  0.5655 -0.6079 -0.1621
    9CHL1   H1A  637   1.226   1.551   6.188  0.6285  1.1119  0.8325
    9CHL1   H1B  638   1.119   1.660   6.112  3.6295 -1.0920 -1.0875
    9CHL1    C2  639   1.049   1.590   6.307  0.8941  0.1024  0.0056
    9CHL1   H2A  640   1.092   1.678   6.359 -1.7843  0.7349  1.3135
    9CHL1   H2B  641   1.068   1.510   6.382  2.1268  1.9955  1.8151
    9CHL1   C20  642   1.367   1.398   5.435 -0.4410  0.1138  0.2475
    9CHL1   H20  643   1.359   1.288   5.426 -0.2409  0.1362 -0.2361
    9CHL1   C21  644   1.508   1.419   5.496  0.0555 -0.5997  0.5025
    9CHL1  H21A  645   1.515   1.352   5.584  1.5235  1.1414  1.7711
    9CHL1  H21B  646   1.515   1.528   5.514  1.1553 -0.2499 -1.6525
    9CHL1  H21C  647   1.590   1.399   5.423 -2.0527  1.1534 -2.6073
    9CHL1   C22  648   1.369   1.454   5.292  0.4108 -0.6444  0.0718
    9CHL1  H22A  649   1.438   1.395   5.228 -0.0861 -0.5406 -0.5732
    9CHL1  H22B  650   1.270   1.431   5.247 -1.1914 -0.2278  3.1205
    9CHL1   C23  651   1.406   1.603   5.264 -0.0236 -0.2073  0.0827
    9CHL1  H23A  652   1.351   1.665   5.339 -0.0028  0.2275 -0.2570
    9CHL1  H23B  653   1.513   1.632   5.273  0.1042 -0.2087 -1.2082
    9CHL1   C24  654   1.344   1.651   5.127 -0.8374 -0.2781  0.7638
    9CHL1  H24A  655   1.239   1.618   5.115 -1.6552  2.3524  0.0382
    9CHL1  H24B  656   1.339   1.762   5.116 -1.0308 -0.4888 -1.9386
    9CHL1   C25  657   1.429   1.611   4.998 -0.5496  0.2672 -0.5487
    9CHL1   H25  658   1.431   1.500   4.990 -1.3349  0.1951  0.0834
    9CHL1   C26  659   1.355   1.675   4.880  0.2125  0.9384  0.2589
    9CHL1  H26A  660   1.384   1.620   4.788 -1.3424 -0.9314  0.8271
    9CHL1  H26B  661   1.246   1.663   4.895  0.3137  2.0903  2.1742
    9CHL1  H26C  662   1.375   1.783   4.863  0.6455  0.4643 -2.8619
    9CHL1   C27  663   1.574   1.657   4.996 -0.1817 -0.5119  0.3923
    9CHL1  H27A  664   1.624   1.614   5.085  0.1399 -2.0608 -0.4887
    9CHL1  H27B  665   1.631   1.631   4.904 -0.5210 -1.0208  0.3249
    9CHL1  H27C  666   1.574   1.769   4.997 -0.7661 -0.4655 -1.2414
   10CHL1    C3  667   2.160   3.591   6.291 -0.0977  0.5153  1.0579
   10CHL1    H3  668   2.266   3.559   6.300  0.2813  1.0588 -0.9202
   10CHL1    O3  669   2.085   3.587   6.409  0.5476  0.8235 -0.0246
   10CHL1   H3'  670   2.141   3.625   6.477  0.5260 -1.5209  1.4079
   10CHL1    C4  671   2.167   3.742   6.248  0.6292 -0.8505  0.6835
   10CHL1   H4A  672   2.067   3.790   6.252 -1.1058 -3.9646 -1.1116
   10CHL1   H4B  673   2.229   3.785   6.330  0.0481 -0.4124  0.8993
   10CHL1    C5  674   2.222   3.764   6.110 -0.4773  0.0200  0.0731
   10CHL1    C6  675   2.333   3.836   6.082  0.3661 -0.7728 -0.8679
   10CHL1    H6  676   2.373   3.890   6.169 -2.6151 -0.3726  0.3845
   10CHL1    C7  677   2.399   3.859   5.956  0.3608  0.3096  0.4184
   10CHL1   H7A  678   2.418   3.968   5.943 -0.3949  0.2310 -1.6182
   10CHL1   H7B  679   2.489   3.793   5.953 -0.3747 -0.6802 -1.8632
   10CHL1    C8  680   2.305   3.814   5.835 -0.2448  0.0065 -0.6896
   10CHL1    H8  681   2.226   3.892   5.822  0.5184  0.6861 -1.3867
   10CHL1   C14  682   2.386   3.801   5.708 -0.4635  0.1621 -0.1262
   10CHL1   H14  683   2.469   3.729   5.725  0.3085  0.8717 -0.8328
   10CHL1   C15  684   2.467   3.927   5.652 -0.1188 -0.3731 -0.2698
   10CHL1  H15A  685   2.399   4.015   5.642  0.8058  0.0856 -3.6539
   10CHL1  H15B  686   2.558   3.946   5.713 -0.9404 -0.4184  0.9931
   10CHL1   C16  687   2.501   3.888   5.509 -0.3693  0.2716 -0.2712
   10CHL1  H16A  688   2.460   3.976   5.455 -0.3099  0.3368 -0.2091
   10CHL1  H16B  689   2.608   3.864   5.492  0.8470  1.9383  3.7954
   10CHL1   C17  690   2.409   3.765   5.473 -0.1679 -0.0298  0.6834
   10CHL1   H17  691   2.466   3.670   5.480 -0.7389 -0.2903  2.1558
   10CHL1   C13  692   2.307   3.762   5.587 -0.9659 -0.2168  0.1830
   10CHL1   C18  693   2.190   3.863   5.558 -0.5736  0.2991  0.5466
   10CHL1  H18A  694   2.116   3.812   5.492 -0.1457  0.3521  0.0190
   10CHL1  H18B  695   2.131   3.874   5.651  0.8669 -2.4273  1.8877
   10CHL1  H18C  696   2.213   3.962   5.512  2.7180 -1.0058 -0.9044
   10CHL1   C12  697   2.244   3.617   5.616 -0.1305 -0.3235  1.0863
   10CHL1  H12A  698   2.198   3.581   5.521  1.7183 -0.8440  0.3298
   10CHL1  H12B  699   2.342   3.564   5.625 -0.7100 -1.4159  1.1212
   10CHL1   C11  700   2.165   3.621   5.741  0.1926  0.4484 -0.2282
   10CHL1  H11A  701   2.074   3.676   5.709  0.6457  1.2700 -0.1382
   10CHL1  H11B  702   2.148   3.516   5.773  0.2128  0.4602 -0.1786
   10CHL1    C9  703   2.239   3.684   5.868 -0.3975 -0.7757  0.0613
   10CHL1    H9  704   2.322   3.613   5.883  0.6759  0.7769  1.9157
   10CHL1   C10  705   2.160   3.682   5.997  0.2366 -0.2806 -0.6923
   10CHL1   C19  706   2.018   3.737   5.972 -0.0915 -0.6965  0.4269
   10CHL1  H19A  707   1.955   3.694   5.891  1.2538  0.4918 -1.3614
   10CHL1  H19B  708   1.961   3.723   6.066  0.2196 -0.4760  0.6500
   10CHL1  H19C  709   2.018   3.843   5.937 -0.9520 -0.8374 -0.0333
   10CHL1    C1  710   2.146   3.532   6.039  0.3497 -0.8753  0.4272
   10CHL1   H1A  711   2.084   3.481   5.961  2.8149 -5.2456  0.9767
   10CHL1   H1B  712   2.242   3.475   6.040  2.6677  2.7595  1.1065
   10CHL1    C2  713   2.086   3.507   6.182 -0.9598 -0.4866 -0.0081
   10CHL1   H2A  714   2.100   3.397   6.196 -0.9207 -0.4403  0.3168
   10CHL1   H2B  715   1.978   3.531   6.187 -1.1253 -1.0758 -0.5762
   10CHL1   C20  716   2.358   3.780   5.328 -0.2844  0.1824  0.1441
   10CHL1   H20  717   2.301   3.874   5.308  1.2933  1.7223  2.3906
   10CHL1   C21  718   2.275   3.656   5.284 -0.0187  0.4126  0.6565
   10CHL1  H21A  719   2.272   3.662   5.173  3.1851 -0.6179  0.3974
   10CHL1  H21B  720   2.171   3.664   5.320  0.2661 -1.6482  2.0922
   10CHL1  H21C  721   2.327   3.560   5.304  2.0407  1.4203  0.4872
   10CHL1   C22  722   2.482   3.795   5.227  0.1081 -0.3850  0.0088
   10CHL1  H22A  723   2.454   3.797   5.119  3.1591  0.7062 -0.8517
   10CHL1  H22B  724   2.521   3.897   5.240  0.0977  0.3598 -4.2212
   10CHL1   C23  725   2.585   3.686   5.246 -0.0790  0.7915  0.7929
   10CHL1  H23A  726   2.635   3.684   5.345 -0.6284  1.8955  1.1093
   10CHL1  H23B  727   2.533   3.589   5.230 -2.9098  2.3997 -0.7076
   10CHL1   C24  728   2.696   3.693   5.133 -0.3547 -0.0056  0.6198
   10CHL1  H24A  729   2.658   3.713   5.030 -1.2503 -1.0041  0.7493
   10CHL1  H24B  730   2.754   3.785   5.154  0.5060  0.3095 -2.5966
   10CHL1   C25  731   2.793   3.570   5.140 -0.1621 -0.7621  0.6894
   10CHL1   H25  732   2.830   3.546   5.242 -0.0073  1.9385  1.3515
   10CHL1   C26  733   2.722   3.449   5.078 -0.2103 -0.1686  0.7654
   10CHL1  H26A  734   2.669   3.478   4.984  1.4717 -1.0736 -0.5281
   10CHL1  H26B  735   2.792   3.364   5.059 -1.5038 -0.9931 -0.5563
   10CHL1  H26C  736   2.636   3.405   5.134 -0.3006  0.4443  1.1114
   10CHL1   C27  737   2.915   3.618   5.058  0.1750 -0.1042  0.4954
   10CHL1  H27A  738   2.894   3.643   4.952 -0.5075 -0.5535  0.5185
   10CHL1  H27B  739   2.959   3.708   5.106  1.5752  0.1924 -1.2457
   10CHL1  H27C  740   2.995   3.542   5.065  2.2117  2.0191  2.0122
   11CHL1    C3  741   5.682   3.362   6.407  0.3954 -0.3160  0.6956
   11CHL1    H3  742   5.582   3.316   6.391 -0.8683  2.7631 -1.0693
   11CHL1    O3  743   5.714   3.378   6.539 -0.5576  0.2202 -0.7304
   11CHL1   H3'  744   5.801   3.338   6.540 -0.4167  0.5152  0.9965
   11CHL1    C4  745   5.784   3.281   6.322  0.4176  0.3908  0.2306
   11CHL1   H4A  746   5.885   3.325   6.337  0.1999  1.0765 -0.2586
   11CHL1   H4B  747   5.785   3.178   6.363 -1.0615 -0.1714 -1.0480
   11CHL1    C5  748   5.750   3.280   6.174 -0.1467  0.1986 -0.2476
   11CHL1    C6  749   5.729   3.163   6.110  0.5291  0.1980 -0.5387
   11CHL1    H6  750   5.741   3.065   6.158  0.3504  1.3600  2.0630
   11CHL1    C7  751   5.707   3.155   5.960  0.9297  0.6168 -0.4135
   11CHL1   H7A  752   5.772   3.076   5.916  0.2955 -0.5048  0.6198
   11CHL1   H7B  753   5.602   3.122   5.944  0.9516  0.6869 -0.7135
   11CHL1    C8  754   5.733   3.280   5.885  0.5563  0.6199  0.5362
   11CHL1    H8  755   5.843   3.286   5.869  0.5759  1.4157  0.9228
   11CHL1   C14  756   5.663   3.262   5.752 -0.2450  0.3495 -0.6340
   11CHL1   H14  757   5.560   3.239   5.786 -0.0472  0.2241 -0.1132
   11CHL1   C15  758   5.708   3.149   5.660 -0.0457 -0.4772 -0.6519
   11CHL1  H15A  759   5.815   3.124   5.672 -0.1902 -0.7469  0.1093
   11CHL1  H15B  760   5.645   3.060   5.683  0.1944 -0.2695  0.9009
   11CHL1   C16  761   5.668   3.187   5.518  0.6903  0.6204  0.2434
   11CHL1  H16A  762   5.758   3.182   5.454 -0.1107 -0.4867 -0.8435
   11CHL1  H16B  763   5.578   3.136   5.478  1.1236  0.6435 -0.7912
   11CHL1   C17  764   5.600   3.333   5.531  0.0871  0.1670 -0.2250
   11CHL1   H17  765   5.491   3.312   5.545 -0.1725  1.6340  0.0769
   11CHL1   C13  766   5.665   3.385   5.662 -0.4746 -0.0610  0.0784
   11CHL1   C18  767   5.803   3.431   5.617 -0.3460 -0.5854  0.0591
   11CHL1  H18A  768   5.805   3.529   5.564  2.7756 -0.5570  0.0320
   11CHL1  H18B  769   5.868   3.433   5.707 -0.0689  0.1257 -0.1499
   11CHL1  H18C  770   5.848   3.358   5.546 -0.3721 -0.0540 -0.5100
   11CHL1   C12  771   5.605   3.507   5.735  0.0930 -0.6604  0.2373
   11CHL1  H12A  772   5.623   3.591   5.665  0.7600 -0.9953 -0.0104
   11CHL1  H12B  773   5.495   3.493   5.745 -0.2314  2.2039  1.4361
   11CHL1   C11  774   5.671   3.524   5.874  0.1089 -0.3168  0.4199
   11CHL1  H11A  775   5.776   3.562   5.874 -0.4428  1.3299 -0.3220
   11CHL1  H11B  776   5.614   3.607   5.922 -0.2610  0.0647 -0.6492
   11CHL1    C9  777   5.681   3.394   5.965  0.2207  0.5455  0.5192
   11CHL1    H9  778   5.574   3.370   5.984  0.3002 -0.6329 -0.3744
   11CHL1   C10  779   5.737   3.419   6.106 -0.3621  0.3720 -0.4049
   11CHL1   C19  780   5.873   3.480   6.098 -0.0822 -0.3176  0.0420
   11CHL1  H19A  781   5.941   3.469   6.185 -0.7319  0.7412  0.6967
   11CHL1  H19B  782   5.943   3.448   6.017 -0.2056 -0.8263  0.1344
   11CHL1  H19C  783   5.868   3.591   6.090 -1.1894 -0.1518  2.2217
   11CHL1    C1  784   5.644   3.507   6.194  0.1031 -0.2484 -0.9713
   11CHL1   H1A  785   5.633   3.610   6.154 -2.3550 -0.8225 -1.9248
   11CHL1   H1B  786   5.540   3.471   6.178 -0.3850  0.3124  0.7618
   11CHL1    C2  787   5.679   3.506   6.342 -0.1163  0.4171  0.7592
   11CHL1   H2A  788   5.609   3.573   6.396  2.1291  1.7899  2.1031
   11CHL1   H2B  789   5.778   3.554   6.357  0.7983 -0.9096 -0.6578
   11CHL1   C20  790   5.603   3.411   5.403 -0.1860 -0.6522 -0.1804
   11CHL1   H20  791   5.706   3.449   5.388 -0.5993  1.5176  1.9157
   11CHL1   C21  792   5.504   3.530   5.421  0.3342 -0.2480  0.4417
   11CHL1  H21A  793   5.404   3.501   5.459 -0.2811  2.7830  1.4006
   11CHL1  H21B  794   5.488   3.569   5.318  0.2372 -3.5390 -0.9131
   11CHL1  H21C  795   5.551   3.606   5.487 -0.6322 -1.0005  2.0328
   11CHL1   C22  796   5.566   3.325   5.273 -0.5903 -0.4422  0.9739
   11CHL1  H22A  797   5.618   3.228   5.286 -0.5758 -0.4817  0.6152
   11CHL1  H22B  798   5.455   3.321   5.263 -0.6944  0.9663  1.3200
   11CHL1   C23  799   5.629   3.383   5.142  0.0576 -0.6095 -0.2078
   11CHL1  H23A  800   5.603   3.490   5.134  2.0533  0.3246  3.4399
   11CHL1  H23B  801   5.739   3.376   5.158  0.1279  0.7496 -0.0286
   11CHL1   C24  802   5.580   3.308   5.015 -0.1625  1.3230 -0.6524
   11CHL1  H24A  803   5.615   3.203   5.023  0.0452  1.5227  1.4491
   11CHL1  H24B  804   5.469   3.313   5.010 -0.2687 -0.8637 -1.8553
   11CHL1   C25  805   5.627   3.366   4.891 -0.1098  0.2965  0.6529
   11CHL1   H25  806   5.598   3.473   4.899 -2.9259 -0.4032  0.5951
   11CHL1   C26  807   5.778   3.364   4.886 -0.2390  0.0541  0.3787
   11CHL1  H26A  808   5.805   3.373   4.779 -0.0563 -1.2130  0.3005
   11CHL1  H26B  809   5.830   3.445   4.941 -1.3120 -0.5718  2.4144
   11CHL1  H26C  810   5.825   3.266   4.909 -2.5046 -1.1508  0.1434
   11CHL1   C27  811   5.564   3.300   4.769 -0.5185  0.3936 -0.9289
   11CHL1  H27A  812   5.602   3.359   4.682  1.3498  1.0921  0.2848
   11CHL1  H27B  813   5.597   3.194   4.763  0.2418  0.5944 -0.4827
   11CHL1  H27C  814   5.454   3.310   4.775 -0.4507  1.5709 -1.3435
   12CHL1    C3  815   0.149   2.607   6.277  0.4522  0.8772  0.0353
   12CHL1    H3  816   0.082   2.528   6.236  1.4743  0.1388 -0.2470
   12CHL1    O3  817   0.176   2.588   6.416  0.1300 -0.6269  0.3576
   12CHL1   H3'  818   0.201   2.676   6.447 -2.9084  0.2615  0.5249
   12CHL1    C4  819   0.282   2.598   6.194 -0.2456 -0.2696 -0.0054
   12CHL1   H4A  820   0.361   2.661   6.239 -0.4178  0.1157 -0.2426
   12CHL1   H4B  821   0.314   2.493   6.213  2.1654 -0.2742 -3.1645
   12CHL1    C5  822   0.260   2.626   6.046 -0.0824  0.5047  0.1450
   12CHL1    C6  823   0.301   2.534   5.960  0.5356  0.7858  0.6611
   12CHL1    H6  824   0.332   2.436   6.000  0.5095  0.2151 -0.6636
   12CHL1    C7  825   0.308   2.561   5.812  0.9832  0.9069 -0.4155
   12CHL1   H7A  826   0.405   2.531   5.768  1.4445  4.4670 -2.2382
   12CHL1   H7B  827   0.237   2.489   5.766  0.2292  1.3189  0.0707
   12CHL1    C8  828   0.269   2.705   5.772  0.2761 -0.2443  0.4132
   12CHL1    H8  829   0.357   2.770   5.793 -0.1997  0.8783 -0.9039
   12CHL1   C14  830   0.229   2.715   5.625 -0.1772  0.4491 -0.4581
   12CHL1   H14  831   0.137   2.654   5.623  0.1736 -0.1090  0.1035
   12CHL1   C15  832   0.326   2.652   5.526 -0.3836 -0.6876  0.6625
   12CHL1  H15A  833   0.429   2.679   5.558 -0.3106 -0.2116  0.0496
   12CHL1  H15B  834   0.328   2.541   5.515  0.0252 -0.5245 -1.2213
   12CHL1   C16  835   0.279   2.711   5.388  0.0199 -0.4181  0.1325
   12CHL1  H16A  836   0.366   2.767   5.348  0.6617 -0.7428  1.0419
   12CHL1  H16B  837   0.252   2.635   5.312  4.0151 -1.2368 -0.6648
   12CHL1   C17  838   0.166   2.818   5.423 -1.2718 -0.0270 -0.1356
   12CHL1   H17  839   0.070   2.764   5.424 -0.9737 -0.7180 -2.5602
   12CHL1   C13  840   0.198   2.861   5.571  0.3154 -0.0782 -0.5273
   12CHL1   C18  841   0.316   2.957   5.575  0.0720 -0.3439  0.0229
   12CHL1  H18A  842   0.398   2.927   5.507  2.5520 -2.2170  3.5559
   12CHL1  H18B  843   0.287   3.059   5.540 -0.9547 -0.5787  0.1627
   12CHL1  H18C  844   0.362   2.971   5.675 -0.2764  2.3890 -0.1036
   12CHL1   C12  845   0.078   2.913   5.657  0.2054  0.4332 -0.0238
   12CHL1  H12A  846   0.051   3.018   5.630  0.0769  0.3084 -0.3958
   12CHL1  H12B  847  -0.010   2.845   5.655 -0.6150  1.3069  2.4387
   12CHL1   C11  848   0.122   2.905   5.805  0.8625 -0.6572  0.4548
   12CHL1  H11A  849   0.206   2.976   5.817  0.4655 -0.3473  1.4942
   12CHL1  H11B  850   0.038   2.953   5.859  0.2548  0.5249 -1.4265
   12CHL1    C9  851   0.160   2.770   5.855 -0.1225 -0.2103 -0.3083
   12CHL1    H9  852   0.070   2.705   5.845 -1.1570  1.1646 -0.2263
   12CHL1   C10  853   0.199   2.759   6.010  0.0592  0.4007 -0.0907
   12CHL1   C19  854   0.301   2.877   6.036 -0.5479 -0.0414 -0.0335
   12CHL1  H19A  855   0.356   2.868   6.133  2.0455 -0.0273 -1.4127
   12CHL1  H19B  856   0.391   2.865   5.972  0.6824 -2.2122  1.9278
   12CHL1  H19C  857   0.256   2.977   6.027 -3.0164 -0.7462  2.7461
   12CHL1    C1  858   0.076   2.772   6.101  0.5648 -0.4069 -0.3395
   12CHL1   H1A  859   0.034   2.874   6.085  0.4213 -0.4797 -0.4233
   12CHL1   H1B  860  -0.000   2.701   6.063  1.0254 -1.7044  1.0835
   12CHL1    C2  861   0.095   2.752   6.247 -0.5500 -0.3873 -0.5638
   12CHL1   H2A  862   0.006   2.768   6.312  0.7127  1.9346  0.7021
   12CHL1   H2B  863   0.178   2.814   6.287 -0.4142 -0.5906 -0.5305
   12CHL1   C20  864   0.165   2.919   5.310 -0.3330  0.3772 -0.3879
   12CHL1   H20  865   0.266   2.965   5.298 -1.4300  3.1874  0.3870
   12CHL1   C21  866   0.074   3.034   5.354  0.2336 -0.4505  0.3127
   12CHL1  H21A  867   0.074   3.106   5.269  0.3762 -2.6158 -1.6156
   12CHL1  H21B  868   0.109   3.097   5.439  1.1673 -0.2090 -0.2408
   12CHL1  H21C  869  -0.034   3.010   5.371  0.1387  0.7751  1.6302
   12CHL1   C22  870   0.124   2.874   5.173 -0.1681  0.0810 -0.3592
   12CHL1  H22A  871   0.137   2.764   5.171 -0.9130 -0.1051  1.9656
   12CHL1  H22B  872   0.015   2.890   5.158 -0.4190  0.0329  1.2117
   12CHL1   C23  873   0.209   2.954   5.069 -0.3880  0.0154 -0.0903
   12CHL1  H23A  874   0.188   3.061   5.091  0.1363  0.0718  0.1539
   12CHL1  H23B  875   0.317   2.933   5.085 -0.4100 -0.1873 -0.1976
   12CHL1   C24  876   0.172   2.929   4.926  0.2516 -0.2534 -0.1115
   12CHL1  H24A  877   0.194   2.820   4.920 -1.7184 -0.9105  2.8754
   12CHL1  H24B  878   0.066   2.947   4.901 -0.5195 -2.5915  1.1844
   12CHL1   C25  879   0.245   3.009   4.824 -0.0074  0.2972  0.3154
   12CHL1   H25  880   0.245   3.118   4.847  1.8462  0.7485 -1.5575
   12CHL1   C26  881   0.393   2.978   4.832 -0.3713 -0.7842 -0.0429
   12CHL1  H26A  882   0.450   3.012   4.743  1.0180 -0.9053  0.7814
   12CHL1  H26B  883   0.429   3.028   4.924  0.7176 -0.1837 -0.7752
   12CHL1  H26C  884   0.413   2.871   4.854 -0.6471 -0.7952  0.1580
   12CHL1   C27  885   0.182   2.999   4.681  0.2272 -0.6912 -0.5255
   12CHL1  H27A  886   0.162   2.894   4.651  1.5990 -1.0730 -0.1599
   12CHL1  H27B  887   0.085   3.053   4.688  1.7546  2.1730  0.4118
   12CHL1  H27C  888   0.251   3.050   4.610  2.3907  0.6355  2.3299
   13CHL1    C3  889   6.429   2.515   6.577 -0.2188 -0.3991 -0.3353
   13CHL1    H3  890   6.540   2.509   6.578 -0.0338  1.9512  1.1349
   13CHL1    O3  891   6.395   2.476   6.710 -0.4549 -0.8802 -0.0426
   13CHL1   H3'  892   6.319   2.529   6.737  0.3683 -0.2002  1.0230
   13CHL1    C4  893   6.382   2.654   6.531 -0.2213  0.1626  0.3294
   13CHL1   H4A  894   6.271   2.661   6.536 -0.4457 -1.9446 -0.5669
   13CHL1   H4B  895   6.431   2.721   6.605  0.9892  1.0760 -1.2328
   13CHL1    C5  896   6.420   2.690   6.385 -0.3192  0.1886  0.0857
   13CHL1    C6  897   6.482   2.803   6.354  0.5950  0.2472  0.3705
   13CHL1    H6  898   6.498   2.868   6.442 -0.5092 -0.8797  1.4333
   13CHL1    C7  899   6.515   2.855   6.218 -1.3021  0.2719 -0.1530
   13CHL1   H7A  900   6.488   2.962   6.209  0.7127  1.1437  2.6096
   13CHL1   H7B  901   6.625   2.845   6.203 -1.3613  1.6596 -1.8238
   13CHL1    C8  902   6.439   2.772   6.115  0.9729  0.2553  0.6503
   13CHL1    H8  903   6.333   2.806   6.117  0.7821 -0.3188  0.5784
   13CHL1   C14  904   6.486   2.803   5.974 -0.4447 -0.7875 -0.4752
   13CHL1   H14  905   6.593   2.775   5.984  0.4694  1.4708 -2.7531
   13CHL1   C15  906   6.499   2.951   5.923 -0.3067 -0.1346  0.2797
   13CHL1  H15A  907   6.404   3.003   5.947 -2.2744 -2.7934 -1.2403
   13CHL1  H15B  908   6.586   2.996   5.975  0.3232 -0.1567 -0.7294
   13CHL1   C16  909   6.516   2.931   5.771  0.2350  0.0129 -0.3151
   13CHL1  H16A  910   6.426   2.978   5.725  1.0173  1.3965 -0.4718
   13CHL1  H16B  911   6.606   2.982   5.732 -0.7773  2.1990  0.0474
   13CHL1   C17  912   6.519   2.776   5.748  0.0185  0.4245 -0.3246
   13CHL1   H17  913   6.628   2.753   5.755 -0.4320 -1.4252  1.3983
   13CHL1   C13  914   6.436   2.721   5.860 -0.1283  0.0326  0.0717
   13CHL1   C18  915   6.283   2.750   5.845 -0.1218 -0.1152 -0.2618
   13CHL1  H18A  916   6.263   2.853   5.811  1.4852 -0.4614 -2.4450
   13CHL1  H18B  917   6.236   2.684   5.769  0.0667 -1.8919  1.0787
   13CHL1  H18C  918   6.232   2.723   5.941 -0.8128  1.3169 -0.2034
   13CHL1   C12  919   6.471   2.570   5.895 -0.0581  0.0694 -0.2352
   13CHL1  H12A  920   6.420   2.501   5.823  1.7485  0.8605 -2.3910
   13CHL1  H12B  921   6.579   2.544   5.895 -0.3046 -0.9955  0.5167
   13CHL1   C11  922   6.402   2.531   6.022  0.2475  0.2822 -1.0110
   13CHL1  H11A  923   6.293   2.515   6.020  0.1500  0.4498  0.8648
   13CHL1  H11B  924   6.430   2.425   6.040  1.5795  0.3160 -2.6495
   13CHL1    C9  925   6.446   2.621   6.150 -0.7340 -0.2307  0.5972
   13CHL1    H9  926   6.556   2.605   6.160 -0.8817 -0.4096  2.0388
   13CHL1   C10  927   6.379   2.585   6.283  0.0769  0.7311  0.2701
   13CHL1   C19  928   6.221   2.584   6.266  0.6259 -0.1451  0.0608
   13CHL1  H19A  929   6.188   2.494   6.209  0.7245 -0.6266  0.7475
   13CHL1  H19B  930   6.164   2.584   6.361 -3.5282  0.7198 -2.1731
   13CHL1  H19C  931   6.179   2.677   6.222  0.0363  0.6485  2.1935
   13CHL1    C1  932   6.429   2.441   6.326 -0.3753 -0.3462 -0.9898
   13CHL1   H1A  933   6.384   2.366   6.257  0.8803 -1.6938 -0.3979
   13CHL1   H1B  934   6.540   2.436   6.331 -0.3658  0.8181  2.7312
   13CHL1    C2  935   6.379   2.409   6.475  0.1955  0.4370 -0.1874
   13CHL1   H2A  936   6.427   2.313   6.502 -1.1625 -0.1785  0.0975
   13CHL1   H2B  937   6.269   2.401   6.481  0.3234 -0.6029  1.3916
   13CHL1   C20  938   6.472   2.738   5.606 -0.7640 -0.3489 -0.0440
   13CHL1   H20  939   6.367   2.776   5.597 -0.2155  1.0281 -1.0620
   13CHL1   C21  940   6.474   2.586   5.588  0.7478  0.1365 -0.0535
   13CHL1  H21A  941   6.546   2.523   5.643  0.0348  0.3378  1.1495
   13CHL1  H21B  942   6.473   2.566   5.478 -3.5146 -0.1754 -0.1242
   13CHL1  H21C  943   6.378   2.539   5.617  0.7171  1.3411  1.9642
   13CHL1   C22  944   6.568   2.810   5.504 -0.0649  0.5319 -0.3085
   13CHL1  H22A  945   6.571   2.920   5.519  0.8728  0.6598 -1.3019
   13CHL1  H22B  946   6.665   2.760   5.527 -0.9347 -0.2627  1.9127
   13CHL1   C23  947   6.537   2.781   5.359 -0.2466 -0.2381  0.4575
   13CHL1  H23A  948   6.612   2.825   5.290 -0.2440 -3.1134 -1.5323
   13CHL1  H23B  949   6.528   2.674   5.332 -3.7311  0.6502 -2.8258
   13CHL1   C24  950   6.414   2.854   5.301 -0.0200 -0.6475 -0.3682
   13CHL1  H24A  951   6.319   2.798   5.318  0.9593 -3.0788 -2.2023
   13CHL1  H24B  952   6.403   2.953   5.349 -1.1333 -1.9743  2.3233
   13CHL1   C25  953   6.421   2.876   5.152  0.1338  0.1057 -0.1569
   13CHL1   H25  954   6.520   2.905   5.109 -0.2326  1.1263 -0.3370
   13CHL1   C26  955   6.387   2.741   5.082 -0.8386  0.5612  0.5868
   13CHL1  H26A  956   6.279   2.743   5.054 -0.8255  1.4630  0.5858
   13CHL1  H26B  957   6.438   2.746   4.984  1.3258  2.2587  1.7128
   13CHL1  H26C  958   6.417   2.650   5.138  1.5056  0.3947 -0.8430
   13CHL1   C27  959   6.333   2.985   5.110 -0.5778  0.2850  0.3110
   13CHL1  H27A  960   6.226   2.970   5.136 -1.1440  1.2398 -1.3016
   13CHL1  H27B  961   6.362   3.081   5.158 -1.1644  0.9181 -0.5514
   13CHL1  H27C  962   6.340   3.006   5.001  0.1609 -0.7397  0.1529
   14CHL1    C3  963   0.226   4.634   6.325  0.2245  0.1407 -0.2975
   14CHL1    H3  964   0.248   4.526   6.329  1.5070  0.3310 -1.5383
   14CHL1    O3  965   0.181   4.665   6.452  0.1728  0.4605  0.3068
   14CHL1   H3'  966   0.089   4.688   6.438  0.1096  1.4470  2.0157
   14CHL1    C4  967   0.355   4.718   6.283  0.7860  0.2354 -0.3014
   14CHL1   H4A  968   0.330   4.826   6.298 -0.4512  0.1083 -1.2419
   14CHL1   H4B  969   0.438   4.692   6.352  0.5972 -0.0580 -0.1841
   14CHL1    C5  970   0.388   4.702   6.137 -0.0292  0.3682 -0.0104
   14CHL1    C6  971   0.508   4.653   6.101  0.3043 -1.0680  0.5068
   14CHL1    H6  972   0.574   4.628   6.185  0.3600 -1.7409  0.2723
   14CHL1    C7  973   0.560   4.635   5.961  0.7808  0.4852  0.0073
   14CHL1   H7A  974   0.659   4.681   5.940  1.4833 -0.6591  0.6976
   14CHL1   H7B  975   0.568   4.529   5.929 -0.8790  0.3705 -0.1435
   14CHL1    C8  976   0.462   4.712   5.860 -0.8947 -0.6510 -0.0294
   14CHL1    H8  977   0.474   4.822   5.866 -1.6684 -0.1921 -3.8108
   14CHL1   C14  978   0.485   4.673   5.708  0.6270  0.0876  0.9219
   14CHL1   H14  979   0.457   4.568   5.689 -2.6320  1.2934 -2.0958
   14CHL1   C15  980   0.629   4.685   5.649 -0.0861  0.2214  0.1049
   14CHL1  H15A  981   0.675   4.771   5.701 -2.6833  1.3449  0.6942
   14CHL1  H15B  982   0.679   4.592   5.683 -1.2879 -2.1023 -3.7812
   14CHL1   C16  983   0.607   4.713   5.493 -0.1062 -0.4117 -0.2535
   14CHL1  H16A  984   0.641   4.816   5.473 -0.9094  0.2004  1.3158
   14CHL1  H16B  985   0.670   4.637   5.442 -0.5512 -0.7854 -0.2558
   14CHL1   C17  986   0.456   4.694   5.473 -0.5187  0.7347 -1.2174
   14CHL1   H17  987   0.444   4.584   5.482 -1.0803  0.8594 -0.2873
   14CHL1   C13  988   0.393   4.742   5.604 -0.0415  0.1720  0.0210
   14CHL1   C18  989   0.404   4.900   5.616 -0.2860 -0.0459 -0.5266
   14CHL1  H18A  990   0.312   4.937   5.567  0.0866  1.4396 -0.1445
   14CHL1  H18B  991   0.393   4.933   5.721  1.8534 -0.6843 -0.0479
   14CHL1  H18C  992   0.493   4.940   5.563 -0.4293 -2.3703 -2.7766
   14CHL1   C12  993   0.250   4.697   5.636  1.1799  0.5221  1.0559
   14CHL1  H12A  994   0.172   4.732   5.566  1.6597  0.4525  0.4750
   14CHL1  H12B  995   0.251   4.585   5.635  3.7752  0.4675  0.5122
   14CHL1   C11  996   0.209   4.736   5.786  1.1035 -0.5994  0.0645
   14CHL1  H11A  997   0.201   4.847   5.798  2.2716 -0.5075  0.1830
   14CHL1  H11B  998   0.116   4.679   5.804  0.8737  0.1018  1.1824
   14CHL1    C9  999   0.305   4.687   5.896 -0.8092 -0.4347 -0.0407
   14CHL1    H9 1000   0.290   4.577   5.891  0.4522 -0.6333  0.3195
   14CHL1   C10 1001   0.272   4.733   6.040  0.3242  0.5399 -0.3180
   14CHL1   C19 1002   0.243   4.887   6.049  0.7268 -0.0029 -0.1689
   14CHL1  H19A 1003   0.225   4.920   6.153  0.5925  0.1967 -0.2529
   14CHL1  H19B 1004   0.312   4.953   5.992  2.1069 -0.8015  0.5229
   14CHL1  H19C 1005   0.143   4.891   6.001  0.3387 -0.1289  0.6250
   14CHL1    C1 1006   0.137   4.650   6.085 -0.2883 -0.6055  0.6096
   14CHL1   H1A 1007   0.051   4.687   6.025  0.4126 -0.0751 -0.0895
   14CHL1   H1B 1008   0.152   4.541   6.070 -3.8722 -1.0428 -0.9381
   14CHL1    C2 1009   0.113   4.660   6.233  0.1889 -0.4335 -0.2491
   14CHL1   H2A 1010   0.025   4.601   6.266  0.3344  0.3662  1.6999
   14CHL1   H2B 1011   0.084   4.764   6.257 -0.4221 -0.8073  0.7079
   14CHL1   C20 1012   0.394   4.743   5.342  0.6189 -0.9308 -0.2630
   14CHL1   H20 1013   0.335   4.835   5.362 -3.4261 -3.2825 -0.2178
   14CHL1   C21 1014   0.297   4.631   5.314 -0.4279 -0.4312  0.1200
   14CHL1  H21A 1015   0.252   4.658   5.216  0.1364 -0.7934 -0.2486
   14CHL1  H21B 1016   0.219   4.622   5.392  1.0478 -1.1340  1.5785
   14CHL1  H21C 1017   0.345   4.531   5.304 -1.6489 -0.8807 -1.6215
   14CHL1   C22 1018   0.496   4.766   5.238 -0.5578  0.3181 -0.0187
   14CHL1  H22A 1019   0.567   4.840   5.279  0.4236 -1.2491  1.2287
   14CHL1  H22B 1020   0.561   4.678   5.220 -1.6156 -0.5796  0.4292
   14CHL1   C23 1021   0.449   4.826   5.104  0.3315  0.0274  0.8861
   14CHL1  H23A 1022   0.377   4.756   5.056 -1.3372  3.6312 -2.4158
   14CHL1  H23B 1023   0.398   4.922   5.128 -0.2504 -0.6380  2.4344
   14CHL1   C24 1024   0.568   4.844   5.012 -0.4555 -0.3100  0.4305
   14CHL1  H24A 1025   0.650   4.883   5.076 -0.4985 -1.1376  1.0008
   14CHL1  H24B 1026   0.598   4.749   4.962 -1.4986 -0.6539  0.4269
   14CHL1   C25 1027   0.533   4.939   4.893  0.0948  0.1098  0.4825
   14CHL1   H25 1028   0.479   5.025   4.936 -2.8921 -0.8050 -1.1900
   14CHL1   C26 1029   0.660   4.998   4.825 -0.6790  0.2864 -0.1772
   14CHL1  H26A 1030   0.628   5.073   4.750 -1.6954 -1.0455 -1.1310
   14CHL1  H26B 1031   0.716   5.050   4.905 -1.6769  0.6672  0.2856
   14CHL1  H26C 1032   0.719   4.921   4.771  1.1804  1.0111  0.7246
   14CHL1   C27 1033   0.434   4.883   4.793  0.8504  0.1706  0.1022
   14CHL1  H27A 1034   0.333   4.894   4.837  0.8073  2.1543 -0.3924
   14CHL1  H27B 1035   0.418   4.942   4.700 -0.7308  1.9288  1.4114
   14CHL1  H27C 1036   0.459   4.778   4.768 -0.0507 -0.6158  2.2668
   15CHL1    C3 1037   1.726   4.557   6.467 -0.0194 -0.1356 -1.0327
   15CHL1    H3 1038   1.651   4.511   6.398 -1.0361  0.7444 -0.5553
   15CHL1    O3 1039   1.706   4.520   6.604 -0.3306  0.6581 -0.2801
   15CHL1   H3' 1040   1.616   4.545   6.626  0.2565  0.2865  3.1265
   15CHL1    C4 1041   1.867   4.516   6.431 -0.1105  0.0010  0.5275
   15CHL1   H4A 1042   1.945   4.557   6.499 -0.9130  1.2693  0.7114
   15CHL1   H4B 1043   1.873   4.405   6.436 -0.9722 -0.0742  0.0384
   15CHL1    C5 1044   1.889   4.555   6.284 -0.5398 -0.0795 -0.1333
   15CHL1    C6 1045   1.920   4.465   6.190  0.5111  0.6227  0.5452
   15CHL1    H6 1046   1.927   4.361   6.223 -1.4969  0.4125  0.4233
   15CHL1    C7 1047   1.958   4.498   6.046  0.3638  0.3447  0.2022
   15CHL1   H7A 1048   2.053   4.449   6.016 -0.3326 -0.9136 -0.0461
   15CHL1   H7B 1049   1.879   4.466   5.975  0.6312  0.7913 -0.2997
   15CHL1    C8 1050   1.984   4.654   6.028 -0.4554  0.2232 -0.3916
   15CHL1    H8 1051   2.080   4.680   6.076 -0.3184  0.7769 -0.9490
   15CHL1   C14 1052   1.988   4.693   5.880  0.0593 -0.0017 -0.5182
   15CHL1   H14 1053   1.881   4.693   5.850 -1.2328 -1.9609  3.3251
   15CHL1   C15 1054   2.071   4.601   5.792  0.0628  0.7410 -0.6558
   15CHL1  H15A 1055   2.172   4.603   5.839  0.7872  2.1865 -2.1961
   15CHL1  H15B 1056   2.022   4.501   5.790  0.6636  0.4451 -0.8936
   15CHL1   C16 1057   2.077   4.680   5.659 -0.0665 -0.5066  0.4246
   15CHL1  H16A 1058   2.184   4.685   5.632 -0.0519 -1.3273  0.3058
   15CHL1  H16B 1059   2.011   4.642   5.579  0.5809  1.5334 -1.1761
   15CHL1   C17 1060   2.027   4.828   5.697  0.1694  0.6720 -0.0060
   15CHL1   H17 1061   1.919   4.837   5.675 -0.5141 -0.7658  2.4433
   15CHL1   C13 1062   2.033   4.840   5.853 -0.4555  0.2753  0.5986
   15CHL1   C18 1063   2.171   4.859   5.911  0.3245 -0.7938 -0.1676
   15CHL1  H18A 1064   2.184   4.838   6.019 -0.8137 -0.3685  0.0638
   15CHL1  H18B 1065   2.245   4.807   5.846  2.3592 -0.0863  1.4841
   15CHL1  H18C 1066   2.198   4.967   5.907 -0.2978 -0.5769  1.0263
   15CHL1   C12 1067   1.930   4.933   5.918  0.1448  0.4137 -0.5344
   15CHL1  H12A 1068   1.983   5.030   5.917 -2.0189  1.6763  0.4416
   15CHL1  H12B 1069   1.841   4.937   5.851 -0.0869  1.8599 -0.1643
   15CHL1   C11 1070   1.914   4.890   6.069 -0.0709 -1.2051 -0.5104
   15CHL1  H11A 1071   2.015   4.913   6.107 -0.5839  1.3244 -0.4918
   15CHL1  H11B 1072   1.850   4.961   6.126  2.3989  1.0491 -0.3768
   15CHL1    C9 1073   1.884   4.743   6.098  0.4823  0.4343 -0.3859
   15CHL1    H9 1074   1.784   4.722   6.054 -0.1347  0.6857  0.8658
   15CHL1   C10 1075   1.870   4.709   6.249  0.1341 -0.0220  0.1411
   15CHL1   C19 1076   1.985   4.771   6.325 -0.3603 -0.4191  0.1610
   15CHL1  H19A 1077   1.993   4.745   6.433 -0.8815 -1.0582  0.0474
   15CHL1  H19B 1078   2.077   4.738   6.272 -1.0883 -2.2189 -0.0133
   15CHL1  H19C 1079   1.966   4.880   6.316 -3.4140 -0.7983  1.0459
   15CHL1    C1 1080   1.741   4.765   6.325  0.0960  0.4868  0.1623
   15CHL1   H1A 1081   1.726   4.874   6.313  2.4779  0.7551 -1.0930
   15CHL1   H1B 1082   1.659   4.717   6.267  1.2427 -3.8561  1.6833
   15CHL1    C2 1083   1.719   4.712   6.467 -0.2614 -0.2994  0.2789
   15CHL1   H2A 1084   1.623   4.742   6.515  0.0889 -0.7685  1.2914
   15CHL1   H2B 1085   1.795   4.752   6.536 -0.8889  0.3911  0.5863
   15CHL1   C20 1086   2.101   4.930   5.614 -0.1486 -0.3440 -0.0738
   15CHL1   H20 1087   2.210   4.939   5.635 -0.0832 -1.5883  0.2502
   15CHL1   C21 1088   2.049   5.073   5.643 -0.4335  0.4755 -0.3368
   15CHL1  H21A 1089   2.087   5.149   5.571 -0.3982  0.4341 -0.3617
   15CHL1  H21B 1090   2.069   5.112   5.745 -2.9318  0.8264  0.0698
   15CHL1  H21C 1091   1.939   5.069   5.634 -0.5260  0.2384  0.7143
   15CHL1   C22 1092   2.090   4.895   5.461 -0.0724 -0.2646 -0.0586
   15CHL1  H22A 1093   2.082   4.785   5.443 -0.5309 -0.1656 -0.4740
   15CHL1  H22B 1094   1.999   4.942   5.418  0.9804  1.6811 -0.2904
   15CHL1   C23 1095   2.210   4.946   5.379 -0.3102  0.1925 -0.3268
   15CHL1  H23A 1096   2.211   5.055   5.397 -2.8292  0.2342  0.0025
   15CHL1  H23B 1097   2.302   4.892   5.409  0.0295  0.9112 -0.0725
   15CHL1   C24 1098   2.197   4.909   5.233  0.0170 -0.3229 -0.2744
   15CHL1  H24A 1099   2.282   4.953   5.176  0.4046  2.1544  1.9965
   15CHL1  H24B 1100   2.188   4.799   5.226 -2.1328 -0.3083  1.0799
   15CHL1   C25 1101   2.080   4.981   5.166 -0.1660 -0.2241 -0.8390
   15CHL1   H25 1102   1.989   4.972   5.230  0.1117  2.0895 -0.0361
   15CHL1   C26 1103   2.093   5.129   5.153  0.5579 -0.4080  0.5473
   15CHL1  H26A 1104   1.999   5.180   5.122  1.8282 -0.1497 -3.5402
   15CHL1  H26B 1105   2.121   5.172   5.251 -0.1740 -3.0149  1.9747
   15CHL1  H26C 1106   2.172   5.157   5.079 -0.8204  0.9411 -0.4906
   15CHL1   C27 1107   2.043   4.918   5.034  0.0777 -0.2870  0.7766
   15CHL1  H27A 1108   1.991   4.821   5.049  0.2649 -0.5057  0.0334
   15CHL1  H27B 1109   1.976   4.988   4.981  2.0738  0.4808 -0.8618
   15CHL1  H27C 1110   2.130   4.900   4.968  1.4155 -0.6811  2.5599
   16CHL1    C3 1111   4.402   0.930   6.696  0.1300  0.1977  0.1341
   16CHL1    H3 1112   4.498   0.912   6.644 -0.4526  0.0206 -0.9133
   16CHL1    O3 1113   4.422   0.916   6.834 -0.2620 -0.1507 -0.2426
   16CHL1   H3' 1114   4.336   0.935   6.874  0.2047  0.7690  0.3503
   16CHL1    C4 1115   4.340   1.065   6.661 -0.4357  0.6254  0.2921
   16CHL1   H4A 1116   4.245   1.090   6.711 -0.6221 -0.7320  0.6383
   16CHL1   H4B 1117   4.415   1.144   6.683 -0.0938  0.4066 -0.0768
   16CHL1    C5 1118   4.306   1.083   6.513  0.0003 -0.4917  0.2766
   16CHL1    C6 1119   4.356   1.192   6.445  0.6570 -0.3609 -0.4845
   16CHL1    H6 1120   4.402   1.275   6.499  0.0813  0.3431 -1.0615
   16CHL1    C7 1121   4.311   1.213   6.303  0.8246 -0.0434  0.2495
   16CHL1   H7A 1122   4.263   1.312   6.289 -0.2170 -0.2846  1.8394
   16CHL1   H7B 1123   4.407   1.216   6.247 -0.6281 -2.8373 -2.7174
   16CHL1    C8 1124   4.202   1.114   6.253 -0.2165 -0.3125 -0.3911
   16CHL1    H8 1125   4.102   1.141   6.294 -0.4369 -0.2088 -0.9903
   16CHL1   C14 1126   4.191   1.124   6.101  0.3701 -0.5143 -0.0278
   16CHL1   H14 1127   4.299   1.106   6.079  0.3236 -0.6967 -0.1036
   16CHL1   C15 1128   4.165   1.260   6.038  0.3216  0.1436 -0.2165
   16CHL1  H15A 1129   4.079   1.303   6.093  0.4345 -0.9874  0.8760
   16CHL1  H15B 1130   4.247   1.335   6.045 -0.9998  1.6342 -0.1779
   16CHL1   C16 1131   4.129   1.229   5.895 -0.0447 -0.8026  0.3764
   16CHL1  H16A 1132   4.036   1.282   5.864 -1.0428 -0.9360  2.8657
   16CHL1  H16B 1133   4.209   1.259   5.825 -0.4625 -1.5649 -0.4428
   16CHL1   C17 1134   4.106   1.073   5.883 -0.9375  0.5928 -0.4160
   16CHL1   H17 1135   4.202   1.031   5.845 -0.8491 -1.0237  1.4327
   16CHL1   C13 1136   4.097   1.020   6.030 -0.4400 -0.2866 -0.7823
   16CHL1   C18 1137   3.950   1.031   6.084 -0.2283 -0.7778  0.3946
   16CHL1  H18A 1138   3.893   0.935   6.076 -0.4677 -0.5878 -0.3022
   16CHL1  H18B 1139   3.944   1.050   6.193 -4.0487 -2.1484  0.5768
   16CHL1  H18C 1140   3.893   1.110   6.031 -1.5050 -2.4897 -0.8909
   16CHL1   C12 1141   4.159   0.886   6.072  0.3534 -0.0983  0.3162
   16CHL1  H12A 1142   4.107   0.807   6.014 -1.5025  0.4944  1.0851
   16CHL1  H12B 1143   4.264   0.881   6.036 -0.7806 -1.7922 -3.2291
   16CHL1   C11 1144   4.151   0.870   6.220 -0.5953 -0.1509 -0.6052
   16CHL1  H11A 1145   4.045   0.860   6.251 -0.3503 -1.2195 -0.0718
   16CHL1  H11B 1146   4.199   0.770   6.230  2.5469  1.2011 -0.9643
   16CHL1    C9 1147   4.235   0.975   6.294 -0.3291  0.2656  0.1695
   16CHL1    H9 1148   4.341   0.955   6.269 -0.2912  1.9976 -1.2805
   16CHL1   C10 1149   4.234   0.968   6.446 -0.1759 -0.0681 -0.2608
   16CHL1   C19 1150   4.096   0.958   6.496 -0.4079  0.3413  0.0512
   16CHL1  H19A 1151   4.041   0.872   6.451  0.7278  0.0204 -0.7646
   16CHL1  H19B 1152   4.085   0.946   6.606 -1.9509 -0.8582 -0.1963
   16CHL1  H19C 1153   4.048   1.051   6.458  1.3019 -0.1892 -3.9654
   16CHL1    C1 1154   4.305   0.838   6.494  0.6242 -0.0811 -0.3818
   16CHL1   H1A 1155   4.250   0.752   6.450  0.1669 -0.3955  0.7601
   16CHL1   H1B 1156   4.403   0.843   6.441 -0.5357  1.8638 -2.5266
   16CHL1    C2 1157   4.322   0.806   6.647 -0.3499 -0.4412  0.1806
   16CHL1   H2A 1158   4.378   0.711   6.663 -0.5984 -0.7193 -0.5539
   16CHL1   H2B 1159   4.226   0.809   6.704  1.5344 -0.2250  3.6160
   16CHL1   C20 1160   3.993   1.034   5.784 -0.0690 -0.2976 -0.2049
   16CHL1   H20 1161   3.899   1.078   5.823  1.0189 -0.4258  2.8389
   16CHL1   C21 1162   3.967   0.884   5.782 -0.0312 -0.0114  0.0825
   16CHL1  H21A 1163   3.943   0.843   5.882 -0.9087  1.6798  0.6113
   16CHL1  H21B 1164   4.067   0.853   5.745 -0.5013  0.0675 -1.3104
   16CHL1  H21C 1165   3.897   0.849   5.703 -0.4133  2.2228 -0.6498
   16CHL1   C22 1166   4.016   1.095   5.643  0.5513 -0.4170 -0.2790
   16CHL1  H22A 1167   4.058   1.198   5.637 -0.1334 -0.0946  0.4267
   16CHL1  H22B 1168   4.096   1.027   5.605  0.3356  0.6171 -2.8072
   16CHL1   C23 1169   3.892   1.096   5.551  0.0607  0.2386 -0.0111
   16CHL1  H23A 1170   3.841   0.997   5.551 -0.4954  0.5204 -0.4732
   16CHL1  H23B 1171   3.823   1.176   5.587  1.9883  1.9172  0.1665
   16CHL1   C24 1172   3.929   1.147   5.412  0.3628  0.7367 -0.0511
   16CHL1  H24A 1173   3.836   1.164   5.354  0.3336  1.2963  0.1604
   16CHL1  H24B 1174   3.993   1.237   5.405  0.1059  0.9414  0.2261
   16CHL1   C25 1175   3.993   1.030   5.331 -0.1158 -0.2952  1.1625
   16CHL1   H25 1176   4.078   0.992   5.393  0.0845  1.4533  2.0108
   16CHL1   C26 1177   3.888   0.924   5.303  0.0753 -0.2996 -0.8644
   16CHL1  H26A 1178   3.843   0.868   5.388 -0.6133  0.0634 -0.9859
   16CHL1  H26B 1179   3.803   0.966   5.244 -2.3924 -1.4902  1.6302
   16CHL1  H26C 1180   3.929   0.845   5.237 -1.2284 -2.2174  0.5084
   16CHL1   C27 1181   4.055   1.076   5.199 -0.3992 -0.3428  0.4439
   16CHL1  H27A 1182   4.112   0.995   5.148  0.8523 -0.8665  2.5407
   16CHL1  H27B 1183   3.974   1.111   5.131  1.6272  2.1088 -0.8885
   16CHL1  H27C 1184   4.114   1.169   5.211  0.3247 -0.6409 -0.5874
   17CHL1    C3 1185   0.725   5.142   6.501  0.0366 -0.6628  0.4639
   17CHL1    H3 1186   0.828   5.176   6.522  0.8196 -2.8382  0.3020
   17CHL1    O3 1187   0.657   5.136   6.622  0.7494 -0.6132 -0.3131
   17CHL1   H3' 1188   0.700   5.076   6.684 -1.2263 -1.8979 -0.0818
   17CHL1    C4 1189   0.644   5.239   6.404 -0.2931 -0.0353  0.1292
   17CHL1   H4A 1190   0.540   5.200   6.397 -0.8435  1.4527 -0.6688
   17CHL1   H4B 1191   0.633   5.338   6.454  0.1282 -0.0339  0.2200
   17CHL1    C5 1192   0.702   5.249   6.265 -0.3632  0.1637  0.2634
   17CHL1    C6 1193   0.749   5.365   6.215 -0.0922 -0.0076  0.5786
   17CHL1    H6 1194   0.746   5.451   6.283 -1.9244  0.7501 -0.4003
   17CHL1    C7 1195   0.811   5.375   6.073 -0.8049 -1.0303 -0.0871
   17CHL1   H7A 1196   0.760   5.462   6.026 -0.5447 -1.3859 -1.0532
   17CHL1   H7B 1197   0.920   5.388   6.082 -0.6273 -0.5249 -2.3168
   17CHL1    C8 1198   0.774   5.251   5.986  0.0827 -0.6703  0.3646
   17CHL1    H8 1199   0.664   5.253   5.966 -0.4296 -2.3258  2.5578
   17CHL1   C14 1200   0.849   5.246   5.851 -0.1273 -0.1047 -0.7679
   17CHL1   H14 1201   0.954   5.249   5.887 -0.3294  0.9555 -0.2342
   17CHL1   C15 1202   0.834   5.367   5.760  0.3203  0.1527  0.2144
   17CHL1  H15A 1203   0.726   5.395   5.761  0.5711  1.1530  1.6986
   17CHL1  H15B 1204   0.900   5.448   5.798 -0.7620  0.4701  1.4905
   17CHL1   C16 1205   0.882   5.316   5.620 -0.4071 -0.3324 -0.0913
   17CHL1  H16A 1206   0.793   5.314   5.554  0.1908 -1.7719 -0.9108
   17CHL1  H16B 1207   0.967   5.374   5.579 -0.2447 -0.6678 -0.2303
   17CHL1   C17 1208   0.915   5.166   5.645 -0.5001 -0.2040  0.1967
   17CHL1   H17 1209   1.021   5.169   5.677 -0.7554  2.4879  1.0012
   17CHL1   C13 1210   0.834   5.116   5.764 -0.1723  0.3990  0.0033
   17CHL1   C18 1211   0.690   5.081   5.726 -0.4003  0.7121  0.2167
   17CHL1  H18A 1212   0.647   5.173   5.682 -1.7374 -0.6813 -1.5527
   17CHL1  H18B 1213   0.680   5.007   5.644 -2.5677 -0.5284  1.4885
   17CHL1  H18C 1214   0.636   5.044   5.816  0.1080 -0.3359  0.1126
   17CHL1   C12 1215   0.899   5.009   5.854  0.3776 -0.1680 -0.7315
   17CHL1  H12A 1216   0.902   4.911   5.801 -0.9162 -0.1865 -0.7930
   17CHL1  H12B 1217   1.002   5.048   5.868 -0.9678  3.5255 -0.0982
   17CHL1   C11 1218   0.833   4.993   5.994 -0.1142 -0.5903 -0.0282
   17CHL1  H11A 1219   0.744   4.926   5.989  1.4585 -2.8066  0.2333
   17CHL1  H11B 1220   0.909   4.941   6.056 -0.6213  0.9860  2.0306
   17CHL1    C9 1221   0.811   5.131   6.070  0.1872  0.0140 -0.2045
   17CHL1    H9 1222   0.915   5.156   6.101  1.2022  0.8334 -3.7188
   17CHL1   C10 1223   0.720   5.115   6.193  0.4224 -0.0686 -0.0527
   17CHL1   C19 1224   0.577   5.067   6.159  0.5594  0.4741 -0.3264
   17CHL1  H19A 1225   0.574   4.966   6.113 -3.8252  0.5402 -0.5686
   17CHL1  H19B 1226   0.517   5.044   6.250 -0.7199 -3.2238 -1.9132
   17CHL1  H19C 1227   0.520   5.136   6.093  0.6445  0.2367 -0.6498
   17CHL1    C1 1228   0.783   5.012   6.289  0.0613 -0.1455 -0.4003
   17CHL1   H1A 1229   0.773   4.914   6.238 -4.2469  0.8901 -1.8820
   17CHL1   H1B 1230   0.889   5.045   6.278 -0.0353  1.5312  2.5837
   17CHL1    C2 1231   0.731   5.009   6.435 -0.4899 -0.0434 -0.2799
   17CHL1   H2A 1232   0.797   4.951   6.503 -1.3649  0.4545  1.0336
   17CHL1   H2B 1233   0.639   4.947   6.432 -0.6791  0.1637  1.0856
   17CHL1   C20 1234   0.902   5.089   5.512 -0.1198  0.3082 -1.3115
   17CHL1   H20 1235   0.796   5.099   5.480 -0.5344 -0.1218 -0.1546
   17CHL1   C21 1236   0.942   4.941   5.546 -0.2049  0.3263  0.4254
   17CHL1  H21A 1237   1.033   4.946   5.609 -0.8699  0.5174  1.4007
   17CHL1  H21B 1238   0.959   4.877   5.457  1.8617  3.1199 -1.3750
   17CHL1  H21C 1239   0.864   4.888   5.605  1.4573 -1.6682  0.9295
   17CHL1   C22 1240   0.995   5.142   5.395 -0.3792  0.3442  0.4900
   17CHL1  H22A 1241   1.065   5.217   5.437  0.3331 -1.1639  2.1578
   17CHL1  H22B 1242   1.060   5.055   5.370 -2.8171 -1.2013 -0.7448
   17CHL1   C23 1243   0.919   5.181   5.275 -0.4010 -0.5983  0.5748
   17CHL1  H23A 1244   0.853   5.096   5.248  0.5043 -1.5017  1.1231
   17CHL1  H23B 1245   0.882   5.285   5.289 -0.6922 -0.5244 -0.5968
   17CHL1   C24 1246   1.007   5.197   5.144 -0.0422  0.2386  0.4649
   17CHL1  H24A 1247   1.087   5.275   5.149  1.2819 -0.7756 -2.3288
   17CHL1  H24B 1248   1.062   5.101   5.136  2.1436  1.3818  0.7480
   17CHL1   C25 1249   0.922   5.241   5.021 -0.0362  0.8061  0.2586
   17CHL1   H25 1250   0.820   5.202   5.040  0.1861 -0.4746 -1.0791
   17CHL1   C26 1251   0.915   5.395   5.009  0.0872  0.3713 -0.2791
   17CHL1  H26A 1252   0.857   5.414   4.916  2.3679 -3.2122 -2.6746
   17CHL1  H26B 1253   0.866   5.433   5.101  1.1403  0.2770  0.3297
   17CHL1  H26C 1254   1.014   5.444   5.018  0.4288 -0.5081  1.0263
   17CHL1   C27 1255   0.979   5.170   4.896  0.4200 -0.1547 -0.2059
   17CHL1  H27A 1256   0.924   5.202   4.805  0.2955  1.3187  0.3640
   17CHL1  H27B 1257   1.088   5.192   4.889  0.7934 -1.7324  0.2969
   17CHL1  H27C 1258   0.985   5.061   4.916 -0.1972 -0.2219 -0.3860
   18CHL1    C3 1259   5.966   1.045   6.401 -0.6611  0.1769 -0.1349
   18CHL1    H3 1260   6.061   1.101   6.384 -1.1459  2.0449  2.6564
   18CHL1    O3 1261   5.940   1.046   6.539  0.0837 -0.2617 -0.1173
   18CHL1   H3' 1262   5.865   0.986   6.545  0.3495 -0.7794 -1.6095
   18CHL1    C4 1263   5.845   1.099   6.329  1.1090  0.3821  1.0627
   18CHL1   H4A 1264   5.750   1.068   6.378 -0.0295 -0.2207 -1.3523
   18CHL1   H4B 1265   5.840   1.210   6.339  0.8130  0.3594  1.1813
   18CHL1    C5 1266   5.841   1.068   6.177  0.1490  0.6003  0.2814
   18CHL1    C6 1267   5.836   1.160   6.080  0.4977 -0.1184 -0.4936
   18CHL1    H6 1268   5.827   1.267   6.107  0.9202  0.0122 -0.8526
   18CHL1    C7 1269   5.837   1.144   5.929  0.3495  0.0691  0.4106
   18CHL1   H7A 1270   5.759   1.211   5.888 -0.6612 -1.3884 -0.1145
   18CHL1   H7B 1271   5.936   1.182   5.897 -0.2602 -0.3297 -2.1598
   18CHL1    C8 1272   5.821   1.002   5.879  0.6916 -0.3355  1.0861
   18CHL1    H8 1273   5.714   0.972   5.877  1.1163 -2.0692  2.0897
   18CHL1   C14 1274   5.876   0.983   5.737 -0.2908 -0.3140 -0.6212
   18CHL1   H14 1275   5.986   1.000   5.733 -0.2928 -0.0658  0.2914
   18CHL1   C15 1276   5.818   1.075   5.628 -0.4667 -0.0131 -0.6725
   18CHL1  H15A 1277   5.709   1.090   5.619 -0.5809 -1.2195 -1.6827
   18CHL1  H15B 1278   5.867   1.173   5.646  0.3562 -0.3197 -1.1381
   18CHL1   C16 1279   5.864   1.013   5.500  0.3542  0.5145 -0.0882
   18CHL1  H16A 1280   5.775   1.023   5.433 -0.5956  0.7514  1.1766
   18CHL1  H16B 1281   5.945   1.073   5.453  0.0756  2.4582  1.7971
   18CHL1   C17 1282   5.908   0.867   5.527  0.5311  0.1779 -0.4703
   18CHL1   H17 1283   6.019   0.869   5.533  0.5025 -0.2913  0.3501
   18CHL1   C13 1284   5.856   0.836   5.677 -0.5938  0.0103  1.2225
   18CHL1   C18 1285   5.712   0.796   5.678 -0.4436  0.4013  0.2658
   18CHL1  H18A 1286   5.665   0.813   5.778  1.5263  2.8719  0.8985
   18CHL1  H18B 1287   5.652   0.852   5.603 -2.3866  0.4507  1.7560
   18CHL1  H18C 1288   5.708   0.691   5.644  0.6345  0.9266 -1.6442
   18CHL1   C12 1289   5.938   0.741   5.770  0.3116 -0.4343 -0.0329
   18CHL1  H12A 1290   5.926   0.633   5.744 -1.0671 -0.9005  2.3267
   18CHL1  H12B 1291   6.048   0.759   5.767  0.4302 -1.2131 -1.2418
   18CHL1   C11 1292   5.894   0.759   5.918 -0.7016  0.2724  0.9168
   18CHL1  H11A 1293   5.795   0.713   5.935 -1.1852  1.7649  2.4097
   18CHL1  H11B 1294   5.961   0.700   5.984  1.5651  1.7949  0.1098
   18CHL1    C9 1295   5.899   0.906   5.973 -0.1498  0.6729 -0.2076
   18CHL1    H9 1296   5.999   0.953   5.967  0.7664 -1.2547 -0.7085
   18CHL1   C10 1297   5.866   0.924   6.129 -0.0258  0.0870  0.5096
   18CHL1   C19 1298   5.743   0.832   6.159 -0.4206  0.5508  0.1804
   18CHL1  H19A 1299   5.655   0.881   6.112  0.3278  1.0636 -0.7245
   18CHL1  H19B 1300   5.759   0.727   6.124  1.2375  1.6029 -2.6140
   18CHL1  H19C 1301   5.720   0.841   6.267  1.4633  1.8672  0.5141
   18CHL1    C1 1302   5.992   0.869   6.212  0.7703 -0.0165  0.1899
   18CHL1   H1A 1303   6.002   0.759   6.199  2.4439  0.1871 -0.5054
   18CHL1   H1B 1304   6.087   0.912   6.176 -1.0302  3.6850 -0.6386
   18CHL1    C2 1305   5.989   0.899   6.366  0.0784  0.8831 -0.1505
   18CHL1   H2A 1306   6.086   0.869   6.411 -0.1952  1.3885  0.8019
   18CHL1   H2B 1307   5.913   0.829   6.408  0.6763  1.0332  1.2611
   18CHL1   C20 1308   5.867   0.771   5.417  0.2712  0.5525  0.3444
   18CHL1   H20 1309   5.757   0.756   5.413  0.5046 -1.1000 -1.9688
   18CHL1   C21 1310   5.937   0.634   5.442  0.1313  0.3440  0.0141
   18CHL1  H21A 1311   6.044   0.631   5.473 -0.3525 -0.4543  1.7161
   18CHL1  H21B 1312   5.925   0.574   5.350  0.5209  3.5225 -2.2794
   18CHL1  H21C 1313   5.882   0.581   5.522  0.9152 -0.2924  0.1404
   18CHL1   C22 1314   5.901   0.816   5.273 -0.0657 -0.6008 -0.8114
   18CHL1  H22A 1315   5.870   0.739   5.200 -1.7267 -0.3615 -0.3989
   18CHL1  H22B 1316   5.842   0.908   5.251 -0.5274 -0.8835 -0.7794
   18CHL1   C23 1317   6.044   0.839   5.247  0.0579  0.4278  0.2028
   18CHL1  H23A 1318   6.079   0.909   5.326 -1.7557 -0.5171  1.9199
   18CHL1  H23B 1319   6.094   0.741   5.261 -1.0510 -0.1435  0.2860
   18CHL1   C24 1320   6.079   0.889   5.109 -0.1743  0.3649  0.1260
   18CHL1  H24A 1321   6.037   0.992   5.102 -1.2776 -0.0141  0.9637
   18CHL1  H24B 1322   6.188   0.910   5.119 -0.3433  1.1044  0.4679
   18CHL1   C25 1323   6.058   0.806   4.980 -0.1081 -0.0696 -0.3687
   18CHL1   H25 1324   5.948   0.795   4.974 -0.2053  1.1669 -1.2145
   18CHL1   C26 1325   6.100   0.886   4.852  0.4106 -0.5829 -0.0413
   18CHL1  H26A 1326   6.046   0.983   4.846  0.9072 -0.2962  0.1538
   18CHL1  H26B 1327   6.207   0.907   4.873 -0.0538  2.3932 -0.2242
   18CHL1  H26C 1328   6.078   0.827   4.760 -0.0148 -1.1935  0.4435
   18CHL1   C27 1329   6.120   0.668   4.975  0.2028  0.3525  0.5092
   18CHL1  H27A 1330   6.116   0.610   5.069 -2.1462  0.4651  0.5580
   18CHL1  H27B 1331   6.087   0.600   4.893 -0.7794  3.0789 -1.5348
   18CHL1  H27C 1332   6.225   0.700   4.958 -0.3918  2.2854  0.1987
   19CHL1    C3 1333   6.544   0.405   6.155  0.5508  0.1483 -0.4572
   19CHL1    H3 1334   6.645   0.368   6.124  0.1402 -1.6092  0.1527
   19CHL1    O3 1335   6.519   0.374   6.292  0.0628  0.5315  0.0144
   19CHL1   H3' 1336   6.470   0.448   6.327 -0.3533 -0.3779  1.4480
   19CHL1    C4 1337   6.545   0.562   6.138  0.0380 -0.2511  0.2409
   19CHL1   H4A 1338   6.451   0.608   6.175  0.9958  0.9978  1.1693
   19CHL1   H4B 1339   6.627   0.596   6.204  0.3482 -0.7473  0.1162
   19CHL1    C5 1340   6.579   0.593   5.998  0.5375  0.2831  0.3614
   19CHL1    C6 1341   6.685   0.672   5.966 -0.2346 -0.5385  0.4380
   19CHL1    H6 1342   6.739   0.720   6.048 -0.5122 -2.4338  1.7991
   19CHL1    C7 1343   6.715   0.719   5.820 -0.6963  0.5080 -0.0913
   19CHL1   H7A 1344   6.723   0.829   5.825 -0.1532  0.4800 -0.2725
   19CHL1   H7B 1345   6.816   0.682   5.793 -1.1356 -0.1640 -0.8798
   19CHL1    C8 1346   6.592   0.699   5.732  0.2116  0.4106 -0.1808
   19CHL1    H8 1347   6.517   0.775   5.765 -0.3399 -0.4871  0.6725
   19CHL1   C14 1348   6.632   0.729   5.585  0.2783 -0.2397  0.7371
   19CHL1   H14 1349   6.710   0.654   5.561  0.2406  0.2813 -1.1794
   19CHL1   C15 1350   6.708   0.860   5.554 -0.1034  0.0849 -0.1165
   19CHL1  H15A 1351   6.657   0.946   5.601  1.3217  0.4276  0.8789
   19CHL1  H15B 1352   6.819   0.862   5.563  0.1995 -1.1994 -2.6056
   19CHL1   C16 1353   6.682   0.865   5.398 -0.0817  0.5253 -0.0539
   19CHL1  H16A 1354   6.634   0.962   5.376 -2.3982 -0.8905 -1.7176
   19CHL1  H16B 1355   6.780   0.850   5.347 -0.3683 -1.4913 -0.1012
   19CHL1   C17 1356   6.593   0.744   5.352 -0.2737  0.0823 -0.1331
   19CHL1   H17 1357   6.670   0.666   5.335  1.7885  1.8647  0.4855
   19CHL1   C13 1358   6.514   0.708   5.484 -0.2644 -1.1640 -0.0606
   19CHL1   C18 1359   6.407   0.822   5.508 -0.2642 -0.1280 -0.2332
   19CHL1  H18A 1360   6.373   0.825   5.614  0.9834  4.3820  0.2574
   19CHL1  H18B 1361   6.435   0.927   5.486 -1.7601  0.8447  2.0486
   19CHL1  H18C 1362   6.317   0.802   5.446 -0.7261  2.0730 -0.3573
   19CHL1   C12 1363   6.458   0.564   5.493 -0.2086  0.2996 -0.2633
   19CHL1  H12A 1364   6.369   0.552   5.428 -0.0684  0.5439 -0.5028
   19CHL1  H12B 1365   6.525   0.484   5.454  3.8405  3.1686  0.0965
   19CHL1   C11 1366   6.410   0.525   5.641 -0.0753 -0.0883  0.2793
   19CHL1  H11A 1367   6.315   0.579   5.661  0.6811  1.4114  0.0033
   19CHL1  H11B 1368   6.390   0.416   5.652 -1.6089  0.1900  0.4392
   19CHL1    C9 1369   6.526   0.559   5.745  0.1131  0.4332  0.2988
   19CHL1    H9 1370   6.605   0.483   5.729  0.2580  0.8796 -1.2676
   19CHL1   C10 1371   6.483   0.530   5.891 -0.6433 -0.1754  0.3111
   19CHL1   C19 1372   6.348   0.604   5.916  0.0722 -0.2668 -0.0830
   19CHL1  H19A 1373   6.305   0.612   6.018  0.9179 -0.5201  0.3117
   19CHL1  H19B 1374   6.352   0.706   5.874 -0.2179 -0.9441 -1.8604
   19CHL1  H19C 1375   6.271   0.554   5.853  2.9948 -1.4340 -3.0337
   19CHL1    C1 1376   6.470   0.381   5.922  0.5084  0.0718  0.1009
   19CHL1   H1A 1377   6.388   0.338   5.861 -0.8670  0.9855  1.2255
   19CHL1   H1B 1378   6.568   0.339   5.890  0.3206  0.9169 -1.7369
   19CHL1    C2 1379   6.450   0.344   6.068 -0.0774  0.2405 -0.5405
   19CHL1   H2A 1380   6.469   0.235   6.078  2.5657  0.7536  1.2487
   19CHL1   H2B 1381   6.350   0.380   6.101  0.1189 -1.4401  2.2476
   19CHL1   C20 1382   6.525   0.766   5.220  0.2941  0.2656  0.1527
   19CHL1   H20 1383   6.464   0.858   5.229 -0.3537 -0.2536  1.4469
   19CHL1   C21 1384   6.439   0.645   5.190 -0.0610  0.1027 -0.2246
   19CHL1  H21A 1385   6.498   0.555   5.216  0.1171 -0.3294 -2.0385
   19CHL1  H21B 1386   6.419   0.629   5.082 -1.5611  0.0617  0.0344
   19CHL1  H21C 1387   6.342   0.652   5.245  0.8158  2.8734  1.1855
   19CHL1   C22 1388   6.624   0.777   5.107 -0.5650  0.1028  0.0715
   19CHL1  H22A 1389   6.705   0.847   5.138 -0.1712  0.1167 -0.9383
   19CHL1  H22B 1390   6.667   0.676   5.089 -0.7755 -0.1272  0.8086
   19CHL1   C23 1391   6.563   0.830   4.978  0.0570  0.1355 -0.4464
   19CHL1  H23A 1392   6.488   0.762   4.932  0.9544 -1.1722 -0.0342
   19CHL1  H23B 1393   6.518   0.928   5.000  2.9082  1.6214 -0.7592
   19CHL1   C24 1394   6.666   0.863   4.870 -0.1249 -0.0129 -0.6732
   19CHL1  H24A 1395   6.717   0.957   4.899 -0.3601  0.2991 -1.2479
   19CHL1  H24B 1396   6.739   0.783   4.846  1.6541  1.5301 -0.6923
   19CHL1   C25 1397   6.608   0.911   4.731  0.5775  0.0354  0.5063
   19CHL1   H25 1398   6.541   0.997   4.753  0.3877  0.0602 -0.1632
   19CHL1   C26 1399   6.732   0.966   4.655  1.9850 -0.3570 -0.0931
   19CHL1  H26A 1400   6.812   0.892   4.633  1.7173 -1.0884  1.2771
   19CHL1  H26B 1401   6.694   1.012   4.561 -0.5615  0.7519  1.3760
   19CHL1  H26C 1402   6.780   1.047   4.713  0.7832  1.0185 -0.9515
   19CHL1   C27 1403   6.544   0.797   4.655 -0.8690  1.6324 -0.2856
   19CHL1  H27A 1404   6.462   0.746   4.710  0.0326 -0.3816 -0.6901
   19CHL1  H27B 1405   6.503   0.822   4.555 -0.5110  0.7008 -0.6811
   19CHL1  H27C 1406   6.618   0.717   4.633  1.2631  3.6528 -0.8202
   20CHL1    C3 1407   4.842   0.109   6.136  0.2847  0.4655  0.3254
   20CHL1    H3 1408   4.928   0.169   6.099  2.0452 -2.1499 -0.0701
   20CHL1    O3 1409   4.864   0.081   6.270 -0.8730  0.1419  0.2422
   20CHL1   H3' 1410   4.832  -0.008   6.283 -0.3312 -0.3203 -1.3210
   20CHL1    C4 1411   4.721   0.195   6.110  0.5335  0.0198  0.5706
   20CHL1   H4A 1412   4.630   0.155   6.159 -0.5102  0.2639 -1.0915
   20CHL1   H4B 1413   4.745   0.287   6.167 -0.4318  1.4373 -1.2098
   20CHL1    C5 1414   4.696   0.210   5.956  0.3330 -1.2413 -0.5572
   20CHL1    C6 1415   4.669   0.332   5.903 -1.2533 -0.5546  0.0887
   20CHL1    H6 1416   4.658   0.419   5.969 -1.5491 -1.0532  0.7068
   20CHL1    C7 1417   4.650   0.361   5.755 -0.2070  0.3239  0.1707
   20CHL1   H7A 1418   4.577   0.444   5.743  0.0036  0.2977 -1.6704
   20CHL1   H7B 1419   4.745   0.397   5.710  0.7352 -1.0369  0.9964
   20CHL1    C8 1420   4.609   0.228   5.689  0.1091  0.3820  0.0470
   20CHL1    H8 1421   4.506   0.215   5.729 -0.1072  0.7298 -0.3874
   20CHL1   C14 1422   4.606   0.246   5.536 -0.2600 -0.1471 -0.3824
   20CHL1   H14 1423   4.708   0.288   5.523 -0.9289  1.6412 -0.0741
   20CHL1   C15 1424   4.510   0.346   5.471 -0.2674 -0.3021  0.6284
   20CHL1  H15A 1425   4.409   0.348   5.516 -0.3180 -2.1200  0.6998
   20CHL1  H15B 1426   4.559   0.445   5.478  0.3247 -0.5220 -0.1358
   20CHL1   C16 1427   4.503   0.306   5.323 -0.4967  0.0306  0.3235
   20CHL1  H16A 1428   4.394   0.314   5.301 -0.5920 -1.7767 -0.0440
   20CHL1  H16B 1429   4.532   0.387   5.252 -2.2145 -0.1869 -0.6905
   20CHL1   C17 1430   4.572   0.173   5.305 -0.0176 -0.4828  0.2520
   20CHL1   H17 1431   4.672   0.205   5.270 -0.1542  1.2031  1.2717
   20CHL1   C13 1432   4.583   0.122   5.449  0.0643  0.2274 -0.3692
   20CHL1   C18 1433   4.441   0.064   5.491 -0.8544  0.2015  0.5152
   20CHL1  H18A 1434   4.356   0.126   5.456 -0.8252 -0.4914 -0.8556
   20CHL1  H18B 1435   4.443  -0.035   5.440  0.2823  0.1831  0.5719
   20CHL1  H18C 1436   4.422   0.052   5.600 -0.3598  0.2343  0.6097
   20CHL1   C12 1437   4.700   0.023   5.488  0.0552  0.3352 -0.3265
   20CHL1  H12A 1438   4.686  -0.067   5.425  0.2268  1.2386 -1.6887
   20CHL1  H12B 1439   4.795   0.077   5.469  0.4242  0.1535  0.8867
   20CHL1   C11 1440   4.696  -0.015   5.639  0.7382 -0.4173  0.5063
   20CHL1  H11A 1441   4.606  -0.075   5.661  0.6772  0.1145  1.7985
   20CHL1  H11B 1442   4.785  -0.080   5.654  0.1621 -0.8587  2.2415
   20CHL1    C9 1443   4.699   0.111   5.725 -0.1714 -0.4412  0.0270
   20CHL1    H9 1444   4.794   0.165   5.705 -0.7159  0.6099  0.1671
   20CHL1   C10 1445   4.699   0.086   5.872 -0.5537  0.0548  0.2465
   20CHL1   C19 1446   4.576  -0.007   5.914 -0.0984 -0.3713  0.6570
   20CHL1  H19A 1447   4.482   0.028   5.867 -0.2895 -1.0897  0.4923
   20CHL1  H19B 1448   4.592  -0.115   5.893 -1.0009 -0.0330 -2.2330
   20CHL1  H19C 1449   4.561   0.004   6.024 -2.5351 -2.4717  0.6385
   20CHL1    C1 1450   4.830   0.009   5.905  0.2022  0.7771  0.3421
   20CHL1   H1A 1451   4.850  -0.087   5.852 -0.1871  0.3435  0.9727
   20CHL1   H1B 1452   4.910   0.078   5.870  0.2524  0.0546 -1.0771
   20CHL1    C2 1453   4.848  -0.018   6.056  0.4950  0.5880  0.4081
   20CHL1   H2A 1454   4.946  -0.072   6.060  0.6097  0.2739 -3.2369
   20CHL1   H2B 1455   4.768  -0.087   6.090  0.1407  1.0167  0.4437
   20CHL1   C20 1456   4.509   0.081   5.193  0.4767 -0.3760  0.0127
   20CHL1   H20 1457   4.414   0.038   5.229  1.7172 -3.7995 -0.3804
   20CHL1   C21 1458   4.600  -0.035   5.161 -0.3818  0.7080  0.6687
   20CHL1  H21A 1459   4.560  -0.086   5.071 -1.8822  1.7206  0.7269
   20CHL1  H21B 1460   4.576  -0.104   5.245 -0.0083  0.5151  0.6164
   20CHL1  H21C 1461   4.709  -0.019   5.160  0.1554 -1.6265  3.7398
   20CHL1   C22 1462   4.483   0.156   5.058  0.2616 -0.3971 -0.0288
   20CHL1  H22A 1463   4.453   0.258   5.090 -1.0501 -1.3723  2.0774
   20CHL1  H22B 1464   4.576   0.176   5.001 -0.2553  1.3656 -0.3056
   20CHL1   C23 1465   4.374   0.101   4.964 -0.1880  0.7957  0.4048
   20CHL1  H23A 1466   4.391  -0.007   4.947 -1.8767  0.5093  0.2852
   20CHL1  H23B 1467   4.272   0.098   5.008 -0.7342 -1.8415 -0.8493
   20CHL1   C24 1468   4.381   0.174   4.823  0.4474  0.6975  0.0876
   20CHL1  H24A 1469   4.359   0.282   4.840  0.2599  0.4091  1.8634
   20CHL1  H24B 1470   4.483   0.168   4.780  0.0263  0.5806 -0.9389
   20CHL1   C25 1471   4.273   0.125   4.721  0.0364 -0.7939 -0.2934
   20CHL1   H25 1472   4.291   0.021   4.688  1.2165 -0.6742 -0.0585
   20CHL1   C26 1473   4.128   0.142   4.772  0.6936  0.4070  0.6128
   20CHL1  H26A 1474   4.103   0.059   4.842  1.3337  0.0683  0.4453
   20CHL1  H26B 1475   4.121   0.239   4.827  1.6521  1.4735 -1.0420
   20CHL1  H26C 1476   4.047   0.138   4.696 -0.6822  1.4091  1.9606
   20CHL1   C27 1477   4.291   0.206   4.594  0.3789  0.3980  0.3011
   20CHL1  H27A 1478   4.247   0.306   4.613 -1.8881 -0.4994  0.1546
   20CHL1  H27B 1479   4.396   0.228   4.565  0.8893 -1.5293  0.5219
   20CHL1  H27C 1480   4.236   0.158   4.509 -0.6870  0.7764  0.7697
   21CHL1    C3 1481   4.403   1.949   6.564 -0.4212 -0.3123 -0.1991
   21CHL1    H3 1482   4.498   1.985   6.520 -0.0678  0.6055  1.2264
   21CHL1    O3 1483   4.402   1.976   6.702 -0.0474 -0.1776  0.1582
   21CHL1   H3' 1484   4.315   1.943   6.727  0.3808 -1.5979 -0.1541
   21CHL1    C4 1485   4.292   2.035   6.497 -0.1322 -0.3248 -0.4657
   21CHL1   H4A 1486   4.197   2.005   6.546  1.2758 -2.5463  1.0651
   21CHL1   H4B 1487   4.311   2.143   6.519  0.2648  0.0836 -2.6082
   21CHL1    C5 1488   4.293   2.015   6.345 -0.3268  0.0682  0.1200
   21CHL1    C6 1489   4.301   2.111   6.256  0.2785  0.1447 -0.2460
   21CHL1    H6 1490   4.307   2.217   6.287 -0.7194  0.1881 -0.1749
   21CHL1    C7 1491   4.299   2.103   6.107  0.1152 -0.4815 -0.2426
   21CHL1   H7A 1492   4.250   2.193   6.065 -0.7285 -0.4706  0.7420
   21CHL1   H7B 1493   4.403   2.089   6.070  1.0645  1.3195  1.6028
   21CHL1    C8 1494   4.234   1.966   6.059 -0.0594  0.1440 -0.0603
   21CHL1    H8 1495   4.125   1.977   6.080 -0.4332 -1.6742 -0.8193
   21CHL1   C14 1496   4.257   1.942   5.914 -0.0405  0.2152  0.2481
   21CHL1   H14 1497   4.368   1.933   5.908  0.1173  2.5766 -1.3709
   21CHL1   C15 1498   4.222   2.059   5.814  0.0790 -0.1776 -0.3388
   21CHL1  H15A 1499   4.120   2.097   5.835  0.6948  1.6959 -0.5906
   21CHL1  H15B 1500   4.297   2.139   5.827 -1.8859  1.9063 -1.1841
   21CHL1   C16 1501   4.217   1.987   5.671  0.5999 -0.3098 -0.3404
   21CHL1  H16A 1502   4.113   2.009   5.636  0.6386 -0.4018 -0.5159
   21CHL1  H16B 1503   4.296   2.029   5.606  0.3725 -0.8792 -0.9977
   21CHL1   C17 1504   4.227   1.835   5.713  0.8846 -0.4187  0.4692
   21CHL1   H17 1505   4.336   1.817   5.705  0.6438 -1.7026 -0.2614
   21CHL1   C13 1506   4.193   1.821   5.866  0.3145 -0.4759 -0.2339
   21CHL1   C18 1507   4.037   1.829   5.874 -0.1220  0.6092 -0.6317
   21CHL1  H18A 1508   4.004   1.869   5.972  3.3979 -0.0541  0.9901
   21CHL1  H18B 1509   3.989   1.896   5.799 -1.9934  0.9818  0.8164
   21CHL1  H18C 1510   4.003   1.724   5.862 -0.9850  0.6313  1.2427
   21CHL1   C12 1511   4.261   1.706   5.939  0.5483  0.2061 -0.3936
   21CHL1  H12A 1512   4.222   1.608   5.905 -0.3052 -0.0707  1.3007
   21CHL1  H12B 1513   4.371   1.709   5.924  0.8227 -1.3312  1.0048
   21CHL1   C11 1514   4.236   1.720   6.090  0.2803  0.1002  0.1270
   21CHL1  H11A 1515   4.127   1.717   6.108  0.4416 -0.9983  1.0801
   21CHL1  H11B 1516   4.286   1.634   6.141 -1.1502 -1.4750 -1.0007
   21CHL1    C9 1517   4.285   1.852   6.144  0.1982  0.2700  0.3052
   21CHL1    H9 1518   4.395   1.845   6.128 -0.0121  0.9362 -1.6733
   21CHL1   C10 1519   4.275   1.869   6.305  0.2205 -0.4125 -0.9169
   21CHL1   C19 1520   4.129   1.830   6.348 -0.9692  0.2410  0.1367
   21CHL1  H19A 1521   4.051   1.896   6.305  1.0400  3.1125  0.6141
   21CHL1  H19B 1522   4.110   1.723   6.327 -0.4335 -0.2590  2.0204
   21CHL1  H19C 1523   4.117   1.847   6.457 -0.3728 -0.1449  0.2646
   21CHL1    C1 1524   4.379   1.776   6.382 -0.3157 -0.6531 -0.3566
   21CHL1   H1A 1525   4.368   1.671   6.348 -0.5663 -0.8100  0.1891
   21CHL1   H1B 1526   4.482   1.804   6.352  0.2281 -1.1949  0.8954
   21CHL1    C2 1527   4.386   1.795   6.539  0.5297 -0.5078 -0.2785
   21CHL1   H2A 1528   4.475   1.747   6.583  0.9081 -1.0616 -1.5913
   21CHL1   H2B 1529   4.306   1.744   6.597  1.2767 -0.3796  0.8953
   21CHL1   C20 1530   4.157   1.740   5.609 -0.0725  0.0265 -0.9196
   21CHL1   H20 1531   4.050   1.770   5.613  0.4696  2.2579 -1.6810
   21CHL1   C21 1532   4.169   1.597   5.642 -0.5271 -0.2266 -0.6736
   21CHL1  H21A 1533   4.276   1.574   5.658 -0.2372 -0.9838 -3.1729
   21CHL1  H21B 1534   4.141   1.522   5.565 -0.8389 -0.4118 -0.3807
   21CHL1  H21C 1535   4.105   1.589   5.732  1.0990  0.4730  0.5913
   21CHL1   C22 1536   4.205   1.763   5.467 -0.6608 -0.3354  0.6610
   21CHL1  H22A 1537   4.138   1.713   5.394 -0.4481  0.2028  0.0830
   21CHL1  H22B 1538   4.183   1.870   5.445  1.5938 -0.1936 -1.3451
   21CHL1   C23 1539   4.356   1.739   5.446  0.2854 -0.2144 -0.0931
   21CHL1  H23A 1540   4.419   1.801   5.514  0.6309 -0.9675  0.2818
   21CHL1  H23B 1541   4.385   1.632   5.452 -1.6513 -0.7620  0.3268
   21CHL1   C24 1542   4.399   1.802   5.306  0.2181  0.3879  0.3765
   21CHL1  H24A 1543   4.316   1.768   5.240 -0.7264 -1.1014  2.2154
   21CHL1  H24B 1544   4.396   1.912   5.310 -0.6200  0.4091 -0.5154
   21CHL1   C25 1545   4.536   1.751   5.259  0.3127 -0.0083  1.1469
   21CHL1   H25 1546   4.532   1.641   5.248  1.2208 -0.1478  2.0327
   21CHL1   C26 1547   4.577   1.793   5.116  0.3296 -0.1069  0.1971
   21CHL1  H26A 1548   4.561   1.903   5.106  1.2655  0.1400  1.2362
   21CHL1  H26B 1549   4.683   1.775   5.093 -0.1797 -0.0354 -2.4690
   21CHL1  H26C 1550   4.520   1.737   5.039 -0.8827 -1.6697  2.1244
   21CHL1   C27 1551   4.655   1.772   5.355 -0.0741  0.3973 -0.0563
   21CHL1  H27A 1552   4.695   1.876   5.365 -0.9005  1.0917 -3.0099
   21CHL1  H27B 1553   4.615   1.740   5.453  0.4236  0.0890  0.0460
   21CHL1  H27C 1554   4.740   1.707   5.327 -0.7858 -0.9258  0.7714
   22CHL1    C3 1555   5.714   4.093   6.159  0.3514 -0.5458  0.3476
   22CHL1    H3 1556   5.792   4.172   6.152 -1.7358  1.6576  0.5770
   22CHL1    O3 1557   5.652   4.087   6.291 -0.0797  0.1326  0.0030
   22CHL1   H3' 1558   5.618   3.998   6.290 -1.2437  0.5431  0.7013
   22CHL1    C4 1559   5.613   4.144   6.060  0.2197 -0.4390  0.4118
   22CHL1   H4A 1560   5.528   4.073   6.058 -0.2180  0.0009  2.0162
   22CHL1   H4B 1561   5.561   4.239   6.085  0.4147 -0.5857  1.4006
   22CHL1    C5 1562   5.677   4.153   5.917 -0.1344  0.2385 -0.0367
   22CHL1    C6 1563   5.678   4.271   5.854 -0.0839  0.7808 -0.2371
   22CHL1    H6 1564   5.631   4.356   5.907  1.0830  2.1599 -1.3272
   22CHL1    C7 1565   5.734   4.288   5.711 -0.4130  0.4038 -0.0317
   22CHL1   H7A 1566   5.677   4.354   5.643 -1.6553 -1.2798 -0.6680
   22CHL1   H7B 1567   5.829   4.346   5.721  0.3029 -0.8113  0.4428
   22CHL1    C8 1568   5.763   4.154   5.640 -0.4074 -0.3033 -0.1565
   22CHL1    H8 1569   5.666   4.114   5.604 -1.1087  0.9102  0.3216
   22CHL1   C14 1570   5.845   4.180   5.519  0.2506  0.2896 -0.1852
   22CHL1   H14 1571   5.941   4.225   5.552  1.9765 -2.9631 -0.3877
   22CHL1   C15 1572   5.791   4.277   5.406  0.6311 -0.1589 -0.3138
   22CHL1  H15A 1573   5.688   4.242   5.383 -0.4346  1.0582  2.1606
   22CHL1  H15B 1574   5.796   4.381   5.446 -1.5239 -0.6118  1.3533
   22CHL1   C16 1575   5.891   4.249   5.297  0.0612  0.3434  1.0302
   22CHL1  H16A 1576   5.852   4.255   5.193  1.7157  0.0689  0.3710
   22CHL1  H16B 1577   5.977   4.319   5.300  0.5278 -0.2426  1.6298
   22CHL1   C17 1578   5.963   4.114   5.330 -0.4335 -0.2018  0.2157
   22CHL1   H17 1579   6.056   4.144   5.381 -0.4763  0.1868  0.0714
   22CHL1   C13 1580   5.884   4.047   5.441  0.6970 -0.0769  0.3531
   22CHL1   C18 1581   5.757   3.999   5.372  0.1493  0.3236 -0.1981
   22CHL1  H18A 1582   5.785   3.899   5.332  0.2293 -0.8697  2.5781
   22CHL1  H18B 1583   5.682   3.964   5.447  0.1823 -0.7250 -0.6292
   22CHL1  H18C 1584   5.707   4.055   5.291  1.1835 -0.4648 -1.4155
   22CHL1   C12 1585   5.959   3.953   5.533  0.0393 -0.0671  0.8197
   22CHL1  H12A 1586   5.995   3.852   5.505 -0.1572  0.2798 -0.7738
   22CHL1  H12B 1587   6.049   4.009   5.564  0.5729 -0.2710 -0.2940
   22CHL1   C11 1588   5.876   3.926   5.661 -0.7334 -0.1115  0.9438
   22CHL1  H11A 1589   5.788   3.868   5.626 -1.6426  0.2091  2.6112
   22CHL1  H11B 1590   5.933   3.866   5.735 -1.2248 -0.1888  1.2647
   22CHL1    C9 1591   5.833   4.050   5.739 -0.1909  0.3782  0.0434
   22CHL1    H9 1592   5.917   4.106   5.785 -2.0647  0.8612  3.1195
   22CHL1   C10 1593   5.747   4.020   5.866  0.3968  0.2799  1.1918
   22CHL1   C19 1594   5.636   3.918   5.824 -0.0106  0.6470  0.0043
   22CHL1  H19A 1595   5.558   3.892   5.898 -0.8778  0.2248 -1.0399
   22CHL1  H19B 1596   5.586   3.952   5.731 -1.2259 -0.2460  0.3077
   22CHL1  H19C 1597   5.681   3.822   5.791  0.4809  0.5830  0.8076
   22CHL1    C1 1598   5.831   3.958   5.977 -0.6780  0.5071 -0.1809
   22CHL1   H1A 1599   5.843   3.851   5.950 -0.2955  0.4535  0.2000
   22CHL1   H1B 1600   5.927   4.014   5.983  0.1767 -0.9222 -0.1562
   22CHL1    C2 1601   5.762   3.953   6.116 -0.9376 -0.4833  0.3901
   22CHL1   H2A 1602   5.838   3.902   6.180 -0.3697 -1.4594 -1.0271
   22CHL1   H2B 1603   5.677   3.881   6.115 -0.6496 -0.8451  0.9864
   22CHL1   C20 1604   5.995   4.039   5.205 -0.1779  0.6281 -0.2589
   22CHL1   H20 1605   5.901   3.997   5.164 -0.7225  0.7472  0.8277
   22CHL1   C21 1606   6.066   3.906   5.244 -0.2289 -0.6010 -0.0277
   22CHL1  H21A 1607   6.095   3.853   5.150 -0.0450  0.1796 -0.4246
   22CHL1  H21B 1608   6.002   3.839   5.306 -1.2025  1.4703  1.3097
   22CHL1  H21C 1609   6.162   3.935   5.291  1.2995 -4.3362 -0.4996
   22CHL1   C22 1610   6.065   4.110   5.092 -0.3757 -0.7778 -0.2824
   22CHL1  H22A 1611   6.093   4.037   5.013  0.1558 -1.9510  0.9507
   22CHL1  H22B 1612   6.000   4.195   5.064  1.8027  1.3555  0.8369
   22CHL1   C23 1613   6.201   4.174   5.134 -0.6087 -0.5791  0.0230
   22CHL1  H23A 1614   6.194   4.266   5.195  0.4259 -1.1747  1.0748
   22CHL1  H23B 1615   6.265   4.104   5.192  0.1547 -0.0109 -0.1165
   22CHL1   C24 1616   6.269   4.236   5.005 -0.0013 -0.5650 -0.0546
   22CHL1  H24A 1617   6.289   4.143   4.946  0.1159 -0.4038 -0.2735
   22CHL1  H24B 1618   6.194   4.305   4.962  1.0412  0.4959 -0.2339
   22CHL1   C25 1619   6.411   4.301   5.029  0.3843  0.3004 -0.7070
   22CHL1   H25 1620   6.395   4.375   5.111  0.3358 -0.0652 -0.3822
   22CHL1   C26 1621   6.518   4.194   5.076  0.0446 -0.6477 -0.1802
   22CHL1  H26A 1622   6.469   4.150   5.166 -2.5970  3.2002  0.5107
   22CHL1  H26B 1623   6.547   4.118   5.001  2.1944 -0.0083 -0.0655
   22CHL1  H26C 1624   6.616   4.239   5.104  0.4403 -1.6271  0.0364
   22CHL1   C27 1625   6.451   4.380   4.913 -0.3275 -0.5896  0.4367
   22CHL1  H27A 1626   6.527   4.455   4.943 -0.1727 -0.6497  0.1978
   22CHL1  H27B 1627   6.499   4.312   4.839 -0.0971 -1.0224  0.9817
   22CHL1  H27C 1628   6.368   4.441   4.872  0.6441  0.2324 -0.3900
   23CHL1    C3 1629   4.905   0.619   6.538 -0.8026  0.2047  0.1237
   23CHL1    H3 1630   4.925   0.520   6.492 -0.1932  1.1792 -1.8319
   23CHL1    O3 1631   4.959   0.623   6.668  0.4193  0.3520  0.4396
   23CHL1   H3' 1632   5.044   0.580   6.670 -0.1923 -1.2746 -2.4011
   23CHL1    C4 1633   4.968   0.734   6.450  0.3381  0.0091 -0.3686
   23CHL1   H4A 1634   4.977   0.823   6.517  1.6417 -0.7003  0.4496
   23CHL1   H4B 1635   5.070   0.693   6.435 -0.1604 -1.5737  0.4316
   23CHL1    C5 1636   4.902   0.756   6.318  0.4183  0.0931 -0.3725
   23CHL1    C6 1637   4.978   0.773   6.209  0.0832  0.1112  0.6108
   23CHL1    H6 1638   5.087   0.775   6.216  0.2289 -1.3640 -0.6796
   23CHL1    C7 1639   4.927   0.791   6.074 -0.0259  0.2555  0.1355
   23CHL1   H7A 1640   4.984   0.870   6.021  1.4657 -1.0477 -0.2999
   23CHL1   H7B 1641   4.953   0.698   6.017 -2.6089 -0.8971  0.6628
   23CHL1    C8 1642   4.778   0.815   6.070  0.5182  0.3559  0.4528
   23CHL1    H8 1643   4.755   0.923   6.062  0.7706  0.3466 -0.6779
   23CHL1   C14 1644   4.722   0.773   5.934 -0.2104  0.0877  0.0330
   23CHL1   H14 1645   4.724   0.662   5.928 -0.5250  0.0961 -0.2223
   23CHL1   C15 1646   4.807   0.843   5.825 -0.0299 -0.0057 -0.4689
   23CHL1  H15A 1647   4.835   0.947   5.849 -1.4034  0.4626 -0.7991
   23CHL1  H15B 1648   4.898   0.784   5.803 -0.4322 -0.7783 -0.1169
   23CHL1   C16 1649   4.715   0.828   5.706  0.8835 -0.2115  0.5537
   23CHL1  H16A 1650   4.694   0.923   5.653 -1.9322  0.4571  2.6728
   23CHL1  H16B 1651   4.754   0.754   5.632  1.4036 -0.1980  0.8085
   23CHL1   C17 1652   4.577   0.775   5.756  0.6763  0.1541  0.2905
   23CHL1   H17 1653   4.594   0.667   5.739 -1.6267 -0.5004  1.6645
   23CHL1   C13 1654   4.574   0.806   5.902  0.2129  0.5543 -0.6376
   23CHL1   C18 1655   4.532   0.952   5.916 -0.0784  0.1299 -1.0300
   23CHL1  H18A 1656   4.524   0.976   6.024 -1.0422  0.6737 -1.2087
   23CHL1  H18B 1657   4.599   1.033   5.878 -0.8591  2.6022  2.4162
   23CHL1  H18C 1658   4.434   0.966   5.867 -0.9475 -1.3618  0.2035
   23CHL1   C12 1659   4.499   0.712   5.997  0.5030  0.1147 -0.0443
   23CHL1  H12A 1660   4.388   0.711   5.996  0.4185 -0.2030  2.4240
   23CHL1  H12B 1661   4.531   0.608   5.975 -1.4342 -0.6171  0.4034
   23CHL1   C11 1662   4.540   0.745   6.143  0.6095 -0.3684 -0.3922
   23CHL1  H11A 1663   4.503   0.840   6.187 -0.4290  0.0026 -2.0144
   23CHL1  H11B 1664   4.496   0.660   6.200  1.7505 -1.7762 -1.5236
   23CHL1    C9 1665   4.694   0.737   6.171 -0.6049 -0.5011  0.2114
   23CHL1    H9 1666   4.722   0.632   6.147  1.8347  0.8031 -3.5048
   23CHL1   C10 1667   4.746   0.755   6.313  0.3934  0.6725  0.0388
   23CHL1   C19 1668   4.705   0.900   6.355  0.7391  0.0939 -0.1902
   23CHL1  H19A 1669   4.596   0.885   6.374  0.6506 -2.8775 -2.2809
   23CHL1  H19B 1670   4.754   0.943   6.445  0.5871  1.4971 -0.7420
   23CHL1  H19C 1671   4.724   0.970   6.271  1.0326 -1.1685 -1.2139
   23CHL1    C1 1672   4.685   0.648   6.412 -0.2897  0.0564  0.1245
   23CHL1   H1A 1673   4.576   0.667   6.430 -0.7586  0.0887 -2.4104
   23CHL1   H1B 1674   4.690   0.551   6.359 -0.4452  0.2100 -0.1728
   23CHL1    C2 1675   4.757   0.651   6.550  0.1372  1.3905  0.4248
   23CHL1   H2A 1676   4.713   0.580   6.624  0.2034  1.8183  0.8797
   23CHL1   H2B 1677   4.736   0.752   6.591  3.4496  2.0308  0.8106
   23CHL1   C20 1678   4.458   0.805   5.660 -0.4175 -0.1090  0.4440
   23CHL1   H20 1679   4.460   0.916   5.668  0.8551 -0.2155  2.2933
   23CHL1   C21 1680   4.326   0.753   5.706 -0.5784 -0.4783  0.0586
   23CHL1  H21A 1681   4.291   0.786   5.806 -1.4578 -2.1372  0.3408
   23CHL1  H21B 1682   4.341   0.643   5.698  1.4210 -0.2374  0.1081
   23CHL1  H21C 1683   4.241   0.772   5.638 -0.6714  1.6662  0.7086
   23CHL1   C22 1684   4.490   0.748   5.516 -0.1331 -0.1110  0.4701
   23CHL1  H22A 1685   4.578   0.793   5.466 -1.2152  1.7875  0.2015
   23CHL1  H22B 1686   4.514   0.640   5.527  1.0787 -0.1973 -2.2697
   23CHL1   C23 1687   4.370   0.767   5.420  0.5738  0.7572  0.0972
   23CHL1  H23A 1688   4.281   0.718   5.465 -1.0287  1.4003 -2.1825
   23CHL1  H23B 1689   4.350   0.876   5.427  1.3180  0.9056 -0.0471
   23CHL1   C24 1690   4.385   0.725   5.271  0.1159  0.3050 -0.2427
   23CHL1  H24A 1691   4.451   0.796   5.215  1.3469 -1.0443 -0.5628
   23CHL1  H24B 1692   4.447   0.633   5.266  0.3745  0.5032 -0.9332
   23CHL1   C25 1693   4.253   0.721   5.193  0.9348 -0.5210 -0.0382
   23CHL1   H25 1694   4.182   0.799   5.227 -0.1493 -1.1002 -0.9092
   23CHL1   C26 1695   4.277   0.750   5.043  0.1537  0.5224 -0.0439
   23CHL1  H26A 1696   4.181   0.734   4.989  0.1206  2.4746 -0.6230
   23CHL1  H26B 1697   4.322   0.850   5.026 -2.1459  1.7790  0.7580
   23CHL1  H26C 1698   4.351   0.680   5.000 -1.1310 -0.6862 -0.3869
   23CHL1   C27 1699   4.186   0.586   5.204 -0.4021  0.0966 -0.2411
   23CHL1  H27A 1700   4.234   0.518   5.130  2.4279  1.5409  0.1277
   23CHL1  H27B 1701   4.212   0.538   5.301 -0.7539  0.2931 -0.0460
   23CHL1  H27C 1702   4.077   0.596   5.186 -0.4182  1.0147  0.2867
   24CHL1    C3 1703   5.592   5.235   6.693  0.6831 -0.2471  0.0600
   24CHL1    H3 1704   5.703   5.233   6.695  0.6817 -2.4979  0.4322
   24CHL1    O3 1705   5.553   5.246   6.829 -0.4231  0.1132 -0.0163
   24CHL1   H3' 1706   5.488   5.317   6.830  0.2877  0.7999  1.7539
   24CHL1    C4 1707   5.528   5.341   6.605 -0.4969  0.0275  0.0763
   24CHL1   H4A 1708   5.419   5.347   6.624 -0.1377  0.6241  2.2156
   24CHL1   H4B 1709   5.576   5.436   6.636  1.5886 -0.7547 -0.5319
   24CHL1    C5 1710   5.567   5.325   6.461  0.8687 -1.3255 -0.2862
   24CHL1    C6 1711   5.632   5.422   6.394 -0.6538 -0.5186 -0.0208
   24CHL1    H6 1712   5.653   5.509   6.458 -0.1155 -0.0480 -0.8230
   24CHL1    C7 1713   5.672   5.418   6.247 -0.6408 -0.6165  0.2459
   24CHL1   H7A 1714   5.660   5.515   6.194 -1.0072 -1.1043 -0.5872
   24CHL1   H7B 1715   5.782   5.400   6.247 -0.6632 -0.8332  1.4359
   24CHL1    C8 1716   5.591   5.308   6.179 -0.1567  0.0081 -0.7972
   24CHL1    H8 1717   5.487   5.341   6.157 -0.0808  2.0334  1.4727
   24CHL1   C14 1718   5.662   5.275   6.051  0.0923 -0.5623  0.1612
   24CHL1   H14 1719   5.761   5.226   6.061  0.4706 -0.6082 -2.8106
   24CHL1   C15 1720   5.682   5.399   5.954  0.5103  0.9184  0.2885
   24CHL1  H15A 1721   5.608   5.479   5.980  0.9369  1.6050 -0.5574
   24CHL1  H15B 1722   5.777   5.449   5.983  0.7716  1.3992 -1.2861
   24CHL1   C16 1723   5.680   5.347   5.811  0.3240  0.6158  0.3923
   24CHL1  H16A 1724   5.590   5.380   5.756  0.3594  0.3077  0.1432
   24CHL1  H16B 1725   5.775   5.374   5.759  0.8695 -0.6427  0.6851
   24CHL1   C17 1726   5.673   5.194   5.837 -0.0538  0.9498 -0.0740
   24CHL1   H17 1727   5.772   5.148   5.858 -0.3917  0.9366  1.6789
   24CHL1   C13 1728   5.588   5.178   5.963  0.6563 -0.9125  0.5478
   24CHL1   C18 1729   5.444   5.221   5.937  0.0794  0.4071 -0.2907
   24CHL1  H18A 1730   5.394   5.140   5.879 -1.0832 -0.4714  1.8285
   24CHL1  H18B 1731   5.381   5.226   6.028  0.7728 -1.1977  0.3280
   24CHL1  H18C 1732   5.432   5.322   5.892 -2.6294 -0.0391 -0.7560
   24CHL1   C12 1733   5.591   5.044   6.040 -0.2656 -0.1682  0.6263
   24CHL1  H12A 1734   5.533   4.965   5.989 -0.3730 -1.2910  2.4214
   24CHL1  H12B 1735   5.695   5.005   6.040  0.0564  0.6212 -0.7453
   24CHL1   C11 1736   5.540   5.055   6.177 -0.1581  0.1009 -0.4102
   24CHL1  H11A 1737   5.429   5.055   6.174 -0.2148  1.7165  0.6418
   24CHL1  H11B 1738   5.577   4.963   6.227  0.7706  0.3679 -0.5906
   24CHL1    C9 1739   5.588   5.177   6.262 -0.4800 -0.1384 -0.0040
   24CHL1    H9 1740   5.695   5.147   6.262 -1.3368 -3.7202 -0.8375
   24CHL1   C10 1741   5.531   5.191   6.404 -0.0353  0.2293  0.6279
   24CHL1   C19 1742   5.379   5.167   6.397 -0.4547 -0.6684  1.1366
   24CHL1  H19A 1743   5.356   5.060   6.378 -0.2664 -0.2603 -1.9206
   24CHL1  H19B 1744   5.332   5.190   6.495  1.3480 -2.2619  2.4488
   24CHL1  H19C 1745   5.338   5.226   6.312  1.1884  0.0405  0.8055
   24CHL1    C1 1746   5.587   5.082   6.492 -0.2304  0.1768 -0.3206
   24CHL1   H1A 1747   5.564   4.980   6.454  1.1459 -0.4793  0.5283
   24CHL1   H1B 1748   5.698   5.086   6.485 -0.1357  0.6561  1.0350
   24CHL1    C2 1749   5.554   5.091   6.642 -0.4304 -0.2866 -0.4612
   24CHL1   H2A 1750   5.612   5.022   6.707 -1.6142 -0.6037  0.2998
   24CHL1   H2B 1751   5.446   5.077   6.664 -0.0286 -3.2231  0.0737
   24CHL1   C20 1752   5.624   5.123   5.703 -0.0206  0.8108 -0.1889
   24CHL1   H20 1753   5.515   5.141   5.692 -0.4010 -0.5008  1.1056
   24CHL1   C21 1754   5.623   4.964   5.725 -0.4100 -0.1733  0.0534
   24CHL1  H21A 1755   5.723   4.941   5.766  0.2183 -0.1945 -1.4123
   24CHL1  H21B 1756   5.607   4.906   5.631  0.0567  1.0316 -0.8073
   24CHL1  H21C 1757   5.542   4.932   5.794 -1.5086 -2.0862 -1.9783
   24CHL1   C22 1758   5.708   5.159   5.570 -0.1656  0.0551 -0.2471
   24CHL1  H22A 1759   5.705   5.269   5.560 -0.8701  0.0346 -0.3393
   24CHL1  H22B 1760   5.812   5.127   5.594 -0.6902  0.3419  2.9442
   24CHL1   C23 1761   5.662   5.090   5.448 -0.5349 -1.1669  0.2065
   24CHL1  H23A 1762   5.680   4.981   5.462  0.6998 -0.9414  0.4874
   24CHL1  H23B 1763   5.554   5.114   5.440 -0.3240  0.2115  1.1811
   24CHL1   C24 1764   5.740   5.123   5.320  0.7025 -0.1376  0.9876
   24CHL1  H24A 1765   5.759   5.232   5.325  0.9047  0.0292 -1.9012
   24CHL1  H24B 1766   5.837   5.068   5.327  0.0179 -1.7680 -1.3022
   24CHL1   C25 1767   5.673   5.078   5.188  0.2618 -1.0559  0.3622
   24CHL1   H25 1768   5.598   5.154   5.158  0.1747 -0.9839  0.7667
   24CHL1   C26 1769   5.775   5.064   5.070  0.4324  0.0953 -0.1458
   24CHL1  H26A 1770   5.713   5.055   4.979 -0.4755 -1.1120  0.5667
   24CHL1  H26B 1771   5.845   5.149   5.056 -0.6734  0.8443 -1.3477
   24CHL1  H26C 1772   5.828   4.967   5.085  0.4050  0.0725 -0.2004
   24CHL1   C27 1773   5.596   4.944   5.199 -0.1522  0.3777  0.5039
   24CHL1  H27A 1774   5.513   4.970   5.268 -1.6287 -1.9857 -0.2623
   24CHL1  H27B 1775   5.565   4.925   5.094  0.5813 -0.6466  0.4655
   24CHL1  H27C 1776   5.665   4.864   5.232  1.8763  0.3232 -3.3349
   25CHL1    C3 1777   4.287   0.415   6.145 -0.0001 -1.2523  0.2041
   25CHL1    H3 1778   4.348   0.486   6.086 -0.7268  0.7784  1.7586
   25CHL1    O3 1779   4.321   0.406   6.280  0.4318  0.4506 -0.1147
   25CHL1   H3' 1780   4.276   0.330   6.318 -1.1844  0.1316 -2.4413
   25CHL1    C4 1781   4.141   0.459   6.128  0.2333  0.7418  0.3602
   25CHL1   H4A 1782   4.087   0.379   6.183  2.9355 -1.8062 -0.4245
   25CHL1   H4B 1783   4.124   0.554   6.182 -0.1985 -1.1299  3.8510
   25CHL1    C5 1784   4.091   0.445   5.985 -1.2419 -0.4913  0.0470
   25CHL1    C6 1785   4.027   0.547   5.931 -0.3731  0.3265  0.3213
   25CHL1    H6 1786   4.019   0.634   5.998  0.7510  0.6317  0.0677
   25CHL1    C7 1787   3.975   0.554   5.790  0.1374  1.2655 -0.7437
   25CHL1   H7A 1788   3.871   0.589   5.772 -0.6198 -0.1705  0.5382
   25CHL1   H7B 1789   4.044   0.619   5.732  2.4077  0.8564  1.3216
   25CHL1    C8 1790   3.971   0.412   5.719 -0.0139 -0.5723  0.3302
   25CHL1    H8 1791   3.884   0.349   5.752  1.2361 -3.4000 -1.3857
   25CHL1   C14 1792   3.962   0.429   5.566  0.2050 -0.5163  0.2036
   25CHL1   H14 1793   4.050   0.493   5.541 -0.8331  0.3244 -1.4773
   25CHL1   C15 1794   3.846   0.510   5.503  0.7288  0.3628 -0.1642
   25CHL1  H15A 1795   3.762   0.484   5.572  1.9398 -0.1421  1.1855
   25CHL1  H15B 1796   3.884   0.614   5.498  2.5717 -0.2127  0.8367
   25CHL1   C16 1797   3.814   0.453   5.364 -0.9961  0.7381  0.2035
   25CHL1  H16A 1798   3.717   0.400   5.356  1.1293 -3.2900 -2.4947
   25CHL1  H16B 1799   3.812   0.531   5.285 -2.0097 -1.2895 -1.8933
   25CHL1   C17 1800   3.933   0.348   5.336  0.5505 -0.1026  0.1599
   25CHL1   H17 1801   4.019   0.411   5.304  2.1714 -0.6077  3.1969
   25CHL1   C13 1802   3.969   0.298   5.483  0.1011 -0.0771 -0.0733
   25CHL1   C18 1803   3.850   0.203   5.518 -0.2804 -0.2880 -0.4813
   25CHL1  H18A 1804   3.752   0.256   5.516 -0.3564 -0.3961  0.0585
   25CHL1  H18B 1805   3.842   0.125   5.440  0.5332 -0.1764 -0.6794
   25CHL1  H18C 1806   3.867   0.159   5.619  0.3658  1.4012  0.1769
   25CHL1   C12 1807   4.101   0.228   5.514 -0.3980  1.0634  0.2287
   25CHL1  H12A 1808   4.105   0.134   5.455  1.5177  1.9675 -1.2319
   25CHL1  H12B 1809   4.188   0.280   5.467 -0.1380 -0.3477 -0.9471
   25CHL1   C11 1810   4.132   0.205   5.661 -0.2461  0.3379 -0.0929
   25CHL1  H11A 1811   4.064   0.124   5.696 -0.5027  0.8760  0.6930
   25CHL1  H11B 1812   4.233   0.160   5.662 -0.3990 -0.0070  0.1242
   25CHL1    C9 1813   4.101   0.333   5.749  0.0874  0.4885  0.4095
   25CHL1    H9 1814   4.178   0.410   5.726  4.4406 -1.9888  4.7797
   25CHL1   C10 1815   4.121   0.323   5.908 -0.0099  0.1463  0.1508
   25CHL1   C19 1816   4.024   0.206   5.949  0.4730  0.0923 -0.2845
   25CHL1  H19A 1817   4.066   0.110   5.912 -1.1834 -0.0844 -1.8640
   25CHL1  H19B 1818   4.016   0.193   6.059  3.3623 -0.1149 -0.0235
   25CHL1  H19C 1819   3.919   0.227   5.919  0.6796 -0.6069 -1.5909
   25CHL1    C1 1820   4.267   0.281   5.935 -0.6816 -0.6432  0.5973
   25CHL1   H1A 1821   4.276   0.182   5.885 -0.0320  0.8565 -2.5105
   25CHL1   H1B 1822   4.343   0.351   5.894  0.2638  0.7475  4.2832
   25CHL1    C2 1823   4.299   0.274   6.082 -0.7422 -0.6755  0.3157
   25CHL1   H2A 1824   4.402   0.241   6.107  0.0456  2.1376  1.1400
   25CHL1   H2B 1825   4.225   0.204   6.128 -2.3804  1.0896  0.4750
   25CHL1   C20 1826   3.902   0.250   5.225  0.4041  0.3723  0.0438
   25CHL1   H20 1827   3.808   0.206   5.263  0.6552 -0.5730 -0.4140
   25CHL1   C21 1828   4.015   0.144   5.206 -0.4399 -0.6571  0.5213
   25CHL1  H21A 1829   4.109   0.201   5.223 -1.0430  0.4719  0.1387
   25CHL1  H21B 1830   4.028   0.115   5.100  1.1064 -0.6970  0.6878
   25CHL1  H21C 1831   4.015   0.065   5.284  1.5420 -1.2815 -0.0609
   25CHL1   C22 1832   3.866   0.321   5.095  0.1858 -0.1645 -0.7772
   25CHL1  H22A 1833   3.816   0.418   5.114  1.0879  0.2603 -0.5160
   25CHL1  H22B 1834   3.956   0.341   5.033  0.1609  0.3455 -0.6500
   25CHL1   C23 1835   3.780   0.235   5.004  0.2012 -0.4782 -0.4782
   25CHL1  H23A 1836   3.762   0.283   4.905  0.6246  2.8176  0.8946
   25CHL1  H23B 1837   3.851   0.154   4.979  0.0034 -1.7590  2.6457
   25CHL1   C24 1838   3.646   0.201   5.074  0.1918 -0.5826 -0.1763
   25CHL1  H24A 1839   3.670   0.126   5.152  1.7004  0.4547  0.4187
   25CHL1  H24B 1840   3.621   0.300   5.118 -1.0915 -0.0534 -1.9711
   25CHL1   C25 1841   3.545   0.156   4.966 -0.6284  0.9250  0.0209
   25CHL1   H25 1842   3.539   0.234   4.887 -2.0255  1.9923  1.1434
   25CHL1   C26 1843   3.593   0.014   4.913  0.2225  0.0548 -0.8204
   25CHL1  H26A 1844   3.692   0.017   4.863 -0.4004  0.4692 -2.0721
   25CHL1  H26B 1845   3.604  -0.050   5.003  1.4164 -0.4104 -1.2840
   25CHL1  H26C 1846   3.530  -0.032   4.834 -0.4383 -1.4598  0.5142
   25CHL1   C27 1847   3.410   0.134   5.027  0.3686 -0.2208  0.2514
   25CHL1  H27A 1848   3.389   0.212   5.103  0.3651 -0.3894  0.4233
   25CHL1  H27B 1849   3.334   0.118   4.948  2.5045 -0.2915 -1.9309
   25CHL1  H27C 1850   3.405   0.047   5.095 -2.4344  0.5689  1.1808
   26CHL1    C3 1851   0.268   5.352   6.326 -0.6395 -0.8073 -0.5959
   26CHL1    H3 1852   0.375   5.321   6.322 -0.3490  0.2295 -1.3211
   26CHL1    O3 1853   0.229   5.354   6.457 -0.0519 -0.2185  0.3640
   26CHL1   H3' 1854   0.294   5.306   6.508  3.1812 -0.3220 -3.4219
   26CHL1    C4 1855   0.254   5.491   6.258 -0.1319 -0.7750 -0.0511
   26CHL1   H4A 1856   0.149   5.527   6.268  0.2914  0.1550  1.3290
   26CHL1   H4B 1857   0.308   5.573   6.310 -0.7721 -0.2328 -0.2305
   26CHL1    C5 1858   0.305   5.495   6.114 -0.3781  0.0405  0.6289
   26CHL1    C6 1859   0.414   5.565   6.072  0.3981 -0.2739 -0.3791
   26CHL1    H6 1860   0.472   5.627   6.142 -1.5593 -0.9310  1.9526
   26CHL1    C7 1861   0.474   5.555   5.935 -0.1247 -0.0526  0.1274
   26CHL1   H7A 1862   0.507   5.657   5.908  3.7337 -1.0582  0.3700
   26CHL1   H7B 1863   0.560   5.484   5.941 -0.4580 -0.4103  0.8424
   26CHL1    C8 1864   0.371   5.493   5.832  0.4477 -0.4315 -0.2135
   26CHL1    H8 1865   0.286   5.563   5.820  0.6155  0.4540  2.9575
   26CHL1   C14 1866   0.443   5.456   5.705  0.2498  0.3466  0.3537
   26CHL1   H14 1867   0.520   5.379   5.724 -0.4697 -1.0256 -1.8792
   26CHL1   C15 1868   0.511   5.567   5.626 -0.3573  0.0944  0.2548
   26CHL1  H15A 1869   0.447   5.657   5.616 -0.8744 -0.3366 -0.5132
   26CHL1  H15B 1870   0.602   5.608   5.675  0.2129  0.6781 -1.2334
   26CHL1   C16 1871   0.547   5.515   5.483  0.2576 -0.1303  0.4244
   26CHL1  H16A 1872   0.512   5.582   5.401  1.0011  1.4158  1.3359
   26CHL1  H16B 1873   0.655   5.490   5.474  0.3216  0.7581 -1.7665
   26CHL1   C17 1874   0.468   5.375   5.479  0.0184 -0.1520 -0.0362
   26CHL1   H17 1875   0.548   5.304   5.511  2.6957  2.4566 -0.5322
   26CHL1   C13 1876   0.360   5.389   5.594  0.3225  0.3430  0.0281
   26CHL1   C18 1877   0.237   5.477   5.540  0.3197  0.0762 -0.0188
   26CHL1  H18A 1878   0.269   5.551   5.463  1.1201 -2.0612 -1.8804
   26CHL1  H18B 1879   0.173   5.405   5.485  0.3150 -1.2128  1.6025
   26CHL1  H18C 1880   0.176   5.519   5.622  0.9157 -0.6169  0.7967
   26CHL1   C12 1881   0.310   5.256   5.652 -0.0089  0.0939  0.0476
   26CHL1  H12A 1882   0.233   5.211   5.585 -0.9835  0.8263  0.6510
   26CHL1  H12B 1883   0.395   5.187   5.672  0.0291 -0.2282 -1.1052
   26CHL1   C11 1884   0.235   5.277   5.788  0.0632  0.1751 -0.0940
   26CHL1  H11A 1885   0.133   5.313   5.760 -0.9468  0.8853  3.9470
   26CHL1  H11B 1886   0.223   5.179   5.839  0.7076 -0.6888 -1.5414
   26CHL1    C9 1887   0.312   5.367   5.893  0.3352  0.2203  0.2083
   26CHL1    H9 1888   0.405   5.306   5.903  0.5040  0.3176 -0.6608
   26CHL1   C10 1889   0.237   5.398   6.023  0.2333 -0.7756  0.1585
   26CHL1   C19 1890   0.093   5.462   5.990 -0.1214  0.1216  0.2080
   26CHL1  H19A 1891   0.104   5.547   5.920  2.7887  1.7185  2.3679
   26CHL1  H19B 1892   0.037   5.376   5.946  1.2870 -0.6290 -0.1819
   26CHL1  H19C 1893   0.044   5.489   6.086  1.2047  1.1547  0.6213
   26CHL1    C1 1894   0.215   5.259   6.099  0.0266 -0.3466 -0.5077
   26CHL1   H1A 1895   0.136   5.202   6.046 -1.2438  0.6020  0.3082
   26CHL1   H1B 1896   0.311   5.202   6.096 -0.1062 -0.8632  2.2172
   26CHL1    C2 1897   0.178   5.260   6.257 -0.4579  0.3623  0.3095
   26CHL1   H2A 1898   0.180   5.154   6.290 -2.7854  0.3415  0.5262
   26CHL1   H2B 1899   0.076   5.303   6.261 -0.2651  0.7614  1.0101
   26CHL1   C20 1900   0.423   5.332   5.335  0.3258  0.3156  0.0470
   26CHL1   H20 1901   0.353   5.411   5.299  1.7967  3.3008  3.2149
   26CHL1   C21 1902   0.374   5.181   5.339 -0.1144 -0.0189 -0.1900
   26CHL1  H21A 1903   0.362   5.146   5.235 -1.9303  2.6184 -0.9789
   26CHL1  H21B 1904   0.276   5.165   5.388  0.6744  3.1022  2.7924
   26CHL1  H21C 1905   0.444   5.117   5.396 -0.2203  0.5009  0.5360
   26CHL1   C22 1906   0.541   5.330   5.234  0.1548  0.5125 -0.0647
   26CHL1  H22A 1907   0.614   5.413   5.241  0.1736  0.4313  0.6974
   26CHL1  H22B 1908   0.602   5.238   5.244  1.3798  1.4558  1.3724
   26CHL1   C23 1909   0.485   5.327   5.090 -0.4325 -0.0448  0.1466
   26CHL1  H23A 1910   0.557   5.281   5.018  1.3357 -1.7933  2.8418
   26CHL1  H23B 1911   0.400   5.257   5.078 -0.8525  0.8930 -3.3257
   26CHL1   C24 1912   0.465   5.467   5.032 -0.0390  0.0320  0.0939
   26CHL1  H24A 1913   0.368   5.496   5.078  0.8181  0.1846  1.8910
   26CHL1  H24B 1914   0.531   5.549   5.069 -3.0628  1.9827  1.6299
   26CHL1   C25 1915   0.463   5.482   4.879  0.0898  0.3874 -0.3654
   26CHL1   H25 1916   0.438   5.590   4.870  1.0055  0.8298  1.7280
   26CHL1   C26 1917   0.603   5.467   4.815 -0.0347  0.5115 -0.5392
   26CHL1  H26A 1918   0.675   5.531   4.870  1.5406  0.1391 -2.0865
   26CHL1  H26B 1919   0.644   5.364   4.817  0.5015  0.7074  1.4854
   26CHL1  H26C 1920   0.600   5.504   4.711 -1.1723  0.9692 -0.3563
   26CHL1   C27 1921   0.351   5.397   4.814  0.1772  0.5313 -0.4494
   26CHL1  H27A 1922   0.338   5.435   4.711 -0.0030  1.2835 -0.1552
   26CHL1  H27B 1923   0.372   5.288   4.817  0.5931  0.6287  0.9336
   26CHL1  H27C 1924   0.258   5.412   4.873 -0.7689 -1.7352 -1.2640
   27CHL1    C3 1925   0.374   4.231   6.385 -0.4231 -0.2508 -0.3797
   27CHL1    H3 1926   0.410   4.335   6.371 -2.2526  0.5817  0.6673
   27CHL1    O3 1927   0.329   4.219   6.523 -0.5276 -0.5552  0.0104
   27CHL1   H3' 1928   0.385   4.150   6.560  0.7180  0.7192  0.5983
   27CHL1    C4 1929   0.254   4.203   6.288 -0.2588 -0.5422  0.1802
   27CHL1   H4A 1930   0.215   4.105   6.322  1.1149 -0.6117  1.6844
   27CHL1   H4B 1931   0.181   4.285   6.305 -0.8689 -1.3753  1.7461
   27CHL1    C5 1932   0.300   4.208   6.138  0.0790  0.1293  0.2412
   27CHL1    C6 1933   0.238   4.273   6.048  0.2700 -0.2218 -0.0217
   27CHL1    H6 1934   0.159   4.343   6.077  2.9599  3.6607 -1.1441
   27CHL1    C7 1935   0.279   4.289   5.901 -0.0916  0.5752  0.1875
   27CHL1   H7A 1936   0.193   4.298   5.832 -0.2343  0.7706  0.3893
   27CHL1   H7B 1937   0.331   4.387   5.895  0.6489  0.1382 -0.8197
   27CHL1    C8 1938   0.377   4.183   5.859  0.3874 -0.1012 -0.1364
   27CHL1    H8 1939   0.317   4.090   5.848  1.3395 -0.8205  0.6541
   27CHL1   C14 1940   0.441   4.219   5.724  0.0597  0.1209 -0.0045
   27CHL1   H14 1941   0.507   4.306   5.748  2.0974 -1.1606 -0.7608
   27CHL1   C15 1942   0.343   4.259   5.613  0.2995 -0.3742  0.4919
   27CHL1  H15A 1943   0.251   4.196   5.615 -0.2757  0.4225 -0.0826
   27CHL1  H15B 1944   0.309   4.362   5.634 -1.4271 -0.8411  0.1653
   27CHL1   C16 1945   0.419   4.239   5.483  0.1532 -0.7864 -0.0783
   27CHL1  H16A 1946   0.376   4.162   5.416  0.2657 -0.7159 -0.2332
   27CHL1  H16B 1947   0.431   4.326   5.415 -1.4024 -0.9776 -0.6436
   27CHL1   C17 1948   0.557   4.174   5.527  0.5097 -0.3934  0.5329
   27CHL1   H17 1949   0.616   4.264   5.555  0.3651 -0.7646  2.0859
   27CHL1   C13 1950   0.530   4.113   5.664  0.4244  0.7624 -0.2308
   27CHL1   C18 1951   0.452   3.980   5.642 -0.0399  0.5320  1.1141
   27CHL1  H18A 1952   0.524   3.897   5.631 -0.6471  0.0629  0.5910
   27CHL1  H18B 1953   0.379   3.952   5.721 -1.3063 -0.6026 -0.4141
   27CHL1  H18C 1954   0.390   3.987   5.550 -1.8033 -1.0995  2.1050
   27CHL1   C12 1955   0.649   4.095   5.767  1.0314  0.0364  0.4751
   27CHL1  H12A 1956   0.710   4.011   5.728 -0.6979 -0.6915 -0.8332
   27CHL1  H12B 1957   0.701   4.192   5.765 -1.7076  1.6146  0.2515
   27CHL1   C11 1958   0.596   4.064   5.909  0.2054 -0.2095 -0.3648
   27CHL1  H11A 1959   0.555   3.961   5.901  0.3649 -0.4319  1.3420
   27CHL1  H11B 1960   0.676   4.069   5.985 -0.0002  3.2487 -0.2167
   27CHL1    C9 1961   0.486   4.162   5.965  0.4793  0.1338  0.3436
   27CHL1    H9 1962   0.539   4.259   5.978 -0.0526  0.5119 -0.2414
   27CHL1   C10 1963   0.427   4.120   6.106 -0.2930 -0.2495  0.5796
   27CHL1   C19 1964   0.381   3.973   6.108  0.2272  0.5278  0.5255
   27CHL1  H19A 1965   0.332   3.938   6.201  0.9231 -0.8751  0.3808
   27CHL1  H19B 1966   0.320   3.943   6.020  0.4037  1.0065  0.2363
   27CHL1  H19C 1967   0.467   3.904   6.098 -0.0835  0.3655 -1.7597
   27CHL1    C1 1968   0.539   4.154   6.212 -0.1224  0.0494 -0.0600
   27CHL1   H1A 1969   0.621   4.086   6.182 -1.2869 -0.8395 -1.3869
   27CHL1   H1B 1970   0.564   4.261   6.197 -2.4077  0.5629 -0.6921
   27CHL1    C2 1971   0.485   4.130   6.362 -0.1631 -0.4573 -0.5516
   27CHL1   H2A 1972   0.579   4.138   6.420 -0.1001 -0.7187 -0.6179
   27CHL1   H2B 1973   0.447   4.027   6.373 -0.7630 -0.1131  0.7169
   27CHL1   C20 1974   0.630   4.093   5.412 -0.6060  0.2324 -0.4361
   27CHL1   H20 1975   0.569   4.004   5.386 -2.0509  0.9004  0.6036
   27CHL1   C21 1976   0.774   4.055   5.461 -0.3142  0.0066 -0.4340
   27CHL1  H21A 1977   0.828   4.145   5.498 -0.8197 -0.4008  1.3603
   27CHL1  H21B 1978   0.829   4.023   5.370 -1.2740 -0.7471 -0.7664
   27CHL1  H21C 1979   0.777   3.980   5.542 -1.0367 -0.5262 -0.8982
   27CHL1   C22 1980   0.627   4.170   5.278 -0.7021 -0.7738  0.4086
   27CHL1  H22A 1981   0.682   4.107   5.205 -2.0089 -0.0027 -1.3371
   27CHL1  H22B 1982   0.521   4.185   5.249  0.1464  0.5968 -2.3333
   27CHL1   C23 1983   0.709   4.308   5.278  0.8918 -0.3155  0.7250
   27CHL1  H23A 1984   0.665   4.367   5.361 -0.1399  0.4416 -0.3304
   27CHL1  H23B 1985   0.813   4.288   5.311  0.3833 -0.4863  2.3422
   27CHL1   C24 1986   0.707   4.389   5.143  0.3910 -0.0516  0.3381
   27CHL1  H24A 1987   0.599   4.418   5.144  0.1718 -0.8349  0.0878
   27CHL1  H24B 1988   0.770   4.480   5.151  0.5507 -0.1368  0.0134
   27CHL1   C25 1989   0.733   4.312   5.009 -0.8731  0.0809 -0.1859
   27CHL1   H25 1990   0.658   4.231   4.997 -0.6187 -0.1731 -0.0886
   27CHL1   C26 1991   0.714   4.400   4.891  0.3857 -0.1238  0.0177
   27CHL1  H26A 1992   0.766   4.496   4.914  0.3384  0.3360 -1.7113
   27CHL1  H26B 1993   0.763   4.368   4.797 -0.0749  0.2229 -0.3443
   27CHL1  H26C 1994   0.611   4.425   4.858  0.4244  2.6752  1.6466
   27CHL1   C27 1995   0.874   4.243   5.016  0.0018 -0.1011  0.1828
   27CHL1  H27A 1996   0.886   4.196   5.116 -1.7425  0.0175  0.4827
   27CHL1  H27B 1997   0.869   4.172   4.931 -1.1284  1.3792 -1.0446
   27CHL1  H27C 1998   0.963   4.310   5.008 -0.4081  0.3549 -0.6944
   28CHL1    C3 1999   5.908   6.251   6.365  0.2564  0.1989 -0.4348
   28CHL1    H3 2000   5.808   6.203   6.356 -0.3042  0.6218  2.4246
   28CHL1    O3 2001   5.919   6.275   6.504  0.5308  0.0890 -0.8703
   28CHL1   H3' 2002   5.999   6.323   6.524  0.5340 -0.3440  0.2271
   28CHL1    C4 2003   6.021   6.151   6.319 -0.3263  0.2570 -0.5209
   28CHL1   H4A 2004   6.113   6.209   6.340 -0.3943  0.8203 -1.7246
   28CHL1   H4B 2005   6.035   6.063   6.385  1.2740  1.1946  0.4558
   28CHL1    C5 2006   5.998   6.122   6.174  0.1763 -0.0642  0.3539
   28CHL1    C6 2007   5.975   5.997   6.131  0.3215  0.0520  0.8064
   28CHL1    H6 2008   5.986   5.914   6.203  0.7396 -0.6711 -0.0796
   28CHL1    C7 2009   5.943   5.967   5.985  0.1935 -0.0783  0.0436
   28CHL1   H7A 2010   5.999   5.875   5.956 -1.4877 -1.3542  0.6127
   28CHL1   H7B 2011   5.837   5.934   5.982 -0.2516  1.3294 -2.8622
   28CHL1    C8 2012   5.970   6.076   5.888 -0.1148 -0.6714  0.7097
   28CHL1    H8 2013   6.075   6.069   5.851 -0.8880 -0.7087 -1.6694
   28CHL1   C14 2014   5.885   6.047   5.762 -0.4745  0.1227  0.2203
   28CHL1   H14 2015   5.777   6.056   5.784 -0.3893  1.1655  0.2742
   28CHL1   C15 2016   5.896   5.907   5.703  0.1264 -0.2582  0.4927
   28CHL1  H15A 2017   6.001   5.869   5.703  0.8712  1.6573  0.1653
   28CHL1  H15B 2018   5.838   5.841   5.771  1.8953 -2.0434  0.3498
   28CHL1   C16 2019   5.847   5.924   5.561  0.1671  0.2955  0.2537
   28CHL1  H16A 2020   5.920   5.887   5.486 -0.3655 -1.6828  0.6586
   28CHL1  H16B 2021   5.755   5.867   5.537  0.7912  0.0180 -1.6602
   28CHL1   C17 2022   5.823   6.073   5.534 -0.4177  0.1574  0.0850
   28CHL1   H17 2023   5.721   6.101   5.567 -0.1260  0.4616  0.7330
   28CHL1   C13 2024   5.908   6.151   5.643 -0.1346  0.7647 -0.0166
   28CHL1   C18 2025   6.058   6.143   5.610 -0.1389  0.4190 -0.6671
   28CHL1  H18A 2026   6.073   6.197   5.514 -2.4113  0.7437 -0.8941
   28CHL1  H18B 2027   6.122   6.185   5.690 -1.4052  2.2002 -0.5395
   28CHL1  H18C 2028   6.096   6.040   5.593  0.9870  0.3340  1.8649
   28CHL1   C12 2029   5.871   6.284   5.693  0.2593  0.7377  1.4467
   28CHL1  H12A 2030   5.876   6.367   5.620 -0.7829 -0.0330  0.4603
   28CHL1  H12B 2031   5.761   6.284   5.704  0.1750  1.1433  0.6206
   28CHL1   C11 2032   5.950   6.323   5.824  0.1344  0.2626  0.1482
   28CHL1  H11A 2033   6.059   6.333   5.807  0.2412 -2.0273 -0.9052
   28CHL1  H11B 2034   5.910   6.417   5.868  1.4456  0.7059  0.4346
   28CHL1    C9 2035   5.934   6.211   5.940  0.7270  0.2339  0.6453
   28CHL1    H9 2036   5.823   6.215   5.945  0.2649 -0.2264 -4.1493
   28CHL1   C10 2037   5.989   6.249   6.078  0.8551 -0.3179  0.3501
   28CHL1   C19 2038   6.134   6.299   6.057  0.2394  0.3420  0.6052
   28CHL1  H19A 2039   6.122   6.391   5.995  0.0924  0.3199  0.5997
   28CHL1  H19B 2040   6.197   6.318   6.146  1.5180 -2.3620  0.3654
   28CHL1  H19C 2041   6.194   6.224   6.001 -1.3412  0.8062 -1.8587
   28CHL1    C1 2042   5.894   6.362   6.137 -0.0813  1.2025 -0.5058
   28CHL1   H1A 2043   5.915   6.455   6.080 -1.9569  2.1993  0.3405
   28CHL1   H1B 2044   5.789   6.337   6.110 -0.5952  2.6594  0.0451
   28CHL1    C2 2045   5.914   6.382   6.290 -0.0311 -0.0098  0.3078
   28CHL1   H2A 2046   5.835   6.453   6.324  0.0199  1.3446 -2.1792
   28CHL1   H2B 2047   6.014   6.426   6.307  1.8243 -3.7550  0.0327
   28CHL1   C20 2048   5.836   6.118   5.389  0.1598 -0.4647  0.3599
   28CHL1   H20 2049   5.941   6.112   5.354  1.0046 -1.8497  2.9199
   28CHL1   C21 2050   5.792   6.261   5.366 -1.2915 -0.3032 -0.0316
   28CHL1  H21A 2051   5.770   6.289   5.261 -2.8828  1.2834  0.6768
   28CHL1  H21B 2052   5.873   6.323   5.410 -0.8036 -1.8497  1.3577
   28CHL1  H21C 2053   5.701   6.282   5.426 -2.0421 -2.8626 -0.1699
   28CHL1   C22 2054   5.748   6.030   5.295  0.4792 -0.3275  0.0969
   28CHL1  H22A 2055   5.761   6.057   5.188 -2.3400 -1.6348 -0.6780
   28CHL1  H22B 2056   5.783   5.925   5.305  0.6908 -0.1672  1.0637
   28CHL1   C23 2057   5.597   6.039   5.317  0.4108  0.3081 -0.6771
   28CHL1  H23A 2058   5.575   6.004   5.421 -0.4720 -2.9340 -1.8285
   28CHL1  H23B 2059   5.552   6.137   5.292 -3.8704 -0.5797  2.4820
   28CHL1   C24 2060   5.510   5.942   5.229  0.1135  0.4963 -0.1840
   28CHL1  H24A 2061   5.537   5.944   5.121 -0.4314  0.7960 -0.3162
   28CHL1  H24B 2062   5.536   5.845   5.277 -1.4579 -0.1416 -0.5638
   28CHL1   C25 2063   5.362   5.981   5.231 -0.1187 -0.5911 -0.0806
   28CHL1   H25 2064   5.353   6.091   5.221 -0.8559 -0.3972  2.0836
   28CHL1   C26 2065   5.300   5.930   5.105  1.1770  0.1915 -0.0479
   28CHL1  H26A 2066   5.347   5.967   5.012  1.1687 -1.1510 -0.5995
   28CHL1  H26B 2067   5.306   5.819   5.099  0.9508 -0.1098  3.1342
   28CHL1  H26C 2068   5.194   5.964   5.100  1.0413 -0.3045 -0.7678
   28CHL1   C27 2069   5.282   5.938   5.355  0.6815  0.2352 -0.1472
   28CHL1  H27A 2070   5.185   5.993   5.352  0.9608  1.0176  2.5868
   28CHL1  H27B 2071   5.271   5.828   5.346 -0.8868  0.3387  0.1907
   28CHL1  H27C 2072   5.343   5.960   5.445  3.2240  0.4989 -1.8401
   29CHL1    C3 2073   4.785   2.266   3.257 -0.1196 -0.1205  0.1773
   29CHL1    H3 2074   4.882   2.222   3.289  0.8908  0.4968 -1.8503
   29CHL1    O3 2075   4.778   2.260   3.111 -0.2501 -0.1454  0.1367
   29CHL1   H3' 2076   4.686   2.279   3.092 -0.6778 -2.0401  0.1120
   29CHL1    C4 2077   4.667   2.199   3.324 -0.0898  1.1245  0.1233
   29CHL1   H4A 2078   4.576   2.251   3.288 -2.1948 -3.6280 -2.1906
   29CHL1   H4B 2079   4.666   2.095   3.287  3.2336  1.4491 -1.2924
   29CHL1    C5 2080   4.664   2.208   3.473  0.5162  0.4143  0.2339
   29CHL1    C6 2081   4.669   2.099   3.550  0.1126  0.0962  0.3277
   29CHL1    H6 2082   4.667   2.002   3.498 -0.5639  0.7744 -0.9449
   29CHL1    C7 2083   4.675   2.095   3.697 -0.3334  0.6024  0.7006
   29CHL1   H7A 2084   4.622   2.003   3.730  0.8145 -0.2126  0.3116
   29CHL1   H7B 2085   4.777   2.081   3.738  0.0266  1.7229  0.2275
   29CHL1    C8 2086   4.627   2.238   3.751 -0.1041 -0.3460  0.2388
   29CHL1    H8 2087   4.518   2.241   3.731 -0.3074 -1.2401  1.1440
   29CHL1   C14 2088   4.646   2.250   3.899  0.0705 -0.0261 -0.8941
   29CHL1   H14 2089   4.754   2.228   3.911  0.2449  1.2591  0.0387
   29CHL1   C15 2090   4.580   2.148   3.998  0.2449  0.5056  0.6118
   29CHL1  H15A 2091   4.471   2.128   3.988  0.1101  1.5342 -0.1895
   29CHL1  H15B 2092   4.627   2.049   3.983 -2.7233 -0.9162 -0.2140
   29CHL1   C16 2093   4.608   2.209   4.132  1.1522 -0.1649  0.0127
   29CHL1  H16A 2094   4.509   2.219   4.183  2.0487  4.1331  1.3029
   29CHL1  H16B 2095   4.678   2.149   4.194  1.5882 -1.6359 -1.8204
   29CHL1   C17 2096   4.661   2.361   4.114  0.2008 -0.6129  0.0071
   29CHL1   H17 2097   4.772   2.350   4.116  0.3134  0.4171 -0.2055
   29CHL1   C13 2098   4.631   2.395   3.963  0.4161  0.2835 -0.2785
   29CHL1   C18 2099   4.480   2.443   3.959  0.1822  0.0278  0.2234
   29CHL1  H18A 2100   4.444   2.440   3.854  0.4162  3.2364 -0.0431
   29CHL1  H18B 2101   4.410   2.379   4.019  2.0854  0.3872  3.0267
   29CHL1  H18C 2102   4.469   2.552   3.977  1.6374  0.2832 -0.3756
   29CHL1   C12 2103   4.726   2.496   3.895 -0.5142 -0.6539 -0.4131
   29CHL1  H12A 2104   4.705   2.605   3.906 -0.0969 -0.5647 -0.4901
   29CHL1  H12B 2105   4.833   2.483   3.923 -0.6678 -1.2077 -0.0930
   29CHL1   C11 2106   4.702   2.495   3.741  0.2523 -0.1673  0.3799
   29CHL1  H11A 2107   4.614   2.559   3.719  0.7334  0.6267  0.7465
   29CHL1  H11B 2108   4.784   2.561   3.706 -1.3948  2.7837  1.7753
   29CHL1    C9 2109   4.701   2.355   3.675 -0.6334 -0.0778  0.2373
   29CHL1    H9 2110   4.806   2.319   3.689 -0.3048  1.3277  1.5761
   29CHL1   C10 2111   4.670   2.347   3.525  0.2096  0.4203 -0.0924
   29CHL1   C19 2112   4.540   2.426   3.505 -0.8596 -0.0881  0.3371
   29CHL1  H19A 2113   4.548   2.531   3.540  0.8805 -0.1795  0.3021
   29CHL1  H19B 2114   4.509   2.438   3.399  2.0089 -1.0876 -0.7310
   29CHL1  H19C 2115   4.457   2.385   3.565 -1.2096  0.1781  0.0375
   29CHL1    C1 2116   4.781   2.427   3.450 -0.3021  0.6277  0.2444
   29CHL1   H1A 2117   4.776   2.535   3.473  1.7157  0.6441  0.8013
   29CHL1   H1B 2118   4.877   2.390   3.491  0.8594  1.3653 -1.7130
   29CHL1    C2 2119   4.787   2.410   3.299 -0.5769  0.5147  0.9749
   29CHL1   H2A 2120   4.884   2.452   3.263 -0.4192 -0.7121 -0.0818
   29CHL1   H2B 2121   4.709   2.462   3.240 -1.1879 -1.6979 -0.2559
   29CHL1   C20 2122   4.615   2.450   4.224 -0.1361  0.5657  0.9187
   29CHL1   H20 2123   4.504   2.442   4.221 -0.1565  1.1097 -1.5525
   29CHL1   C21 2124   4.660   2.594   4.191 -0.2138  0.9506 -0.1880
   29CHL1  H21A 2125   4.600   2.644   4.112 -1.2402 -0.0368 -0.0633
   29CHL1  H21B 2126   4.764   2.579   4.155  0.1400 -0.0940  1.1508
   29CHL1  H21C 2127   4.663   2.651   4.286 -0.1865  0.7069 -0.0418
   29CHL1   C22 2128   4.661   2.405   4.364 -0.2235 -0.1492  0.1635
   29CHL1  H22A 2129   4.633   2.300   4.385 -1.7063  0.0740 -0.5550
   29CHL1  H22B 2130   4.772   2.410   4.363 -0.2323  0.3180  0.6568
   29CHL1   C23 2131   4.596   2.471   4.486  0.0941  0.2649 -0.0672
   29CHL1  H23A 2132   4.649   2.447   4.580 -1.7167 -2.5785  0.3684
   29CHL1  H23B 2133   4.604   2.582   4.479 -1.2489  0.4721  1.1452
   29CHL1   C24 2134   4.441   2.441   4.505 -0.1924 -0.6021 -0.4105
   29CHL1  H24A 2135   4.397   2.424   4.405 -1.6215  1.9131 -0.2830
   29CHL1  H24B 2136   4.412   2.357   4.572 -0.1864  0.3262  0.7942
   29CHL1   C25 2137   4.356   2.556   4.554  0.3096  0.5037  0.1037
   29CHL1   H25 2138   4.371   2.648   4.494 -1.4438  2.1114  1.9873
   29CHL1   C26 2139   4.210   2.518   4.540 -1.0131  0.6126 -0.0395
   29CHL1  H26A 2140   4.156   2.614   4.555 -2.4645 -0.1630 -0.0147
   29CHL1  H26B 2141   4.175   2.485   4.440  2.3526  1.9219 -1.7979
   29CHL1  H26C 2142   4.183   2.434   4.609 -0.6022  0.0913 -0.5086
   29CHL1   C27 2143   4.390   2.607   4.692 -0.2344  0.2790 -0.1897
   29CHL1  H27A 2144   4.495   2.645   4.694 -0.1590  0.0620  0.9835
   29CHL1  H27B 2145   4.322   2.686   4.731 -0.1463 -0.3492  1.3001
   29CHL1  H27C 2146   4.387   2.526   4.768  0.0961  0.6724  0.2521
   30CHL1    C3 2147   3.234   3.344   3.128  0.2292  0.2922  0.0425
   30CHL1    H3 2148   3.126   3.366   3.119  0.1570 -0.4239 -1.1105
   30CHL1    O3 2149   3.287   3.317   2.997 -0.4016 -0.3061 -0.6204
   30CHL1   H3' 2150   3.248   3.383   2.938  1.1598  1.2064 -0.0378
   30CHL1    C4 2151   3.306   3.472   3.188  0.2476 -0.0902 -0.6995
   30CHL1   H4A 2152   3.415   3.456   3.177  0.2385  0.4198 -1.6395
   30CHL1   H4B 2153   3.280   3.553   3.116  3.1367  1.2988 -0.3429
   30CHL1    C5 2154   3.270   3.486   3.341  0.4084  0.4281  0.5542
   30CHL1    C6 2155   3.234   3.604   3.394 -0.5575 -0.2768  0.6077
   30CHL1    H6 2156   3.241   3.699   3.339 -0.1070 -1.0503 -0.7362
   30CHL1    C7 2157   3.197   3.623   3.539  0.1843 -0.2112  0.6643
   30CHL1   H7A 2158   3.241   3.718   3.576  2.7900 -0.8792 -0.4769
   30CHL1   H7B 2159   3.086   3.632   3.546  0.2232 -0.1781  1.2604
   30CHL1    C8 2160   3.248   3.512   3.630 -0.1231  1.3021 -0.1862
   30CHL1    H8 2161   3.358   3.526   3.643 -0.1378  1.3306 -0.0874
   30CHL1   C14 2162   3.183   3.526   3.766  0.1034  0.5418 -0.4556
   30CHL1   H14 2163   3.073   3.518   3.752  0.0643  1.2669 -0.5912
   30CHL1   C15 2164   3.198   3.657   3.850 -0.0569  0.2061  0.2780
   30CHL1  H15A 2165   3.299   3.701   3.836  0.7211 -1.6161 -0.0853
   30CHL1  H15B 2166   3.130   3.736   3.812 -2.2159 -1.4092  0.5604
   30CHL1   C16 2167   3.176   3.614   3.995  0.5170  0.0311 -0.1648
   30CHL1  H16A 2168   3.265   3.644   4.055 -0.0575  0.1672  0.6415
   30CHL1  H16B 2169   3.090   3.658   4.049 -0.0019 -1.5414  0.3307
   30CHL1   C17 2170   3.160   3.460   3.996  0.2366 -1.0454  0.3645
   30CHL1   H17 2171   3.051   3.438   3.993  0.1195 -0.8622  2.1332
   30CHL1   C13 2172   3.227   3.414   3.864  0.0440 -0.6617  0.7242
   30CHL1   C18 2173   3.383   3.417   3.889 -0.5425  0.6366 -0.0605
   30CHL1  H18A 2174   3.443   3.397   3.797 -4.4613 -0.6713 -2.6141
   30CHL1  H18B 2175   3.409   3.520   3.921  1.6343 -0.0525  0.5597
   30CHL1  H18C 2176   3.405   3.337   3.963 -2.3805  0.6829  0.5750
   30CHL1   C12 2177   3.174   3.279   3.804 -0.4367  0.2227 -0.6379
   30CHL1  H12A 2178   3.221   3.200   3.866 -0.9618  0.4907  0.1100
   30CHL1  H12B 2179   3.063   3.267   3.804 -0.4276  0.1183 -1.2332
   30CHL1   C11 2180   3.229   3.259   3.663  0.4764 -0.2508 -0.8114
   30CHL1  H11A 2181   3.338   3.246   3.680  0.2592  0.8036  2.0089
   30CHL1  H11B 2182   3.192   3.166   3.615 -1.5860  0.2832 -0.3404
   30CHL1    C9 2183   3.210   3.380   3.567 -0.0549  1.4712  0.7581
   30CHL1    H9 2184   3.100   3.386   3.550  0.2155  1.1563 -1.3575
   30CHL1   C10 2185   3.273   3.356   3.425  0.0537  0.5337  0.0372
   30CHL1   C19 2186   3.425   3.330   3.452 -0.7041 -0.1170 -0.1624
   30CHL1  H19A 2187   3.485   3.332   3.359 -0.1449 -0.2847  0.1915
   30CHL1  H19B 2188   3.462   3.409   3.521 -1.4178 -0.3931  0.5446
   30CHL1  H19C 2189   3.437   3.229   3.496  2.0429 -0.3520 -1.2455
   30CHL1    C1 2190   3.193   3.246   3.352 -0.4601 -0.3422  0.4637
   30CHL1   H1A 2191   3.211   3.153   3.410  0.5796 -0.2404  0.3133
   30CHL1   H1B 2192   3.083   3.264   3.351 -0.6503 -0.3619 -4.6569
   30CHL1    C2 2193   3.255   3.221   3.210 -0.0093  0.4855 -0.3466
   30CHL1   H2A 2194   3.206   3.128   3.172  0.6127 -0.9874  2.1893
   30CHL1   H2B 2195   3.365   3.209   3.220  0.1049 -0.6251 -2.3897
   30CHL1   C20 2196   3.214   3.404   4.128  0.4471 -0.4754 -0.3904
   30CHL1   H20 2197   3.325   3.402   4.132  0.4664 -1.7204 -1.1357
   30CHL1   C21 2198   3.180   3.254   4.135  0.3920  0.1285 -0.8525
   30CHL1  H21A 2199   3.243   3.179   4.082 -0.9994 -0.1435 -2.2235
   30CHL1  H21B 2200   3.072   3.230   4.119 -0.0121  2.0703 -1.3244
   30CHL1  H21C 2201   3.188   3.216   4.239  1.6137  0.9660 -0.6224
   30CHL1   C22 2202   3.171   3.488   4.255  0.6878 -0.5748 -0.0723
   30CHL1  H22A 2203   3.202   3.595   4.246  2.3018 -1.1484 -1.8673
   30CHL1  H22B 2204   3.061   3.487   4.268  0.7018 -1.9361  0.0743
   30CHL1   C23 2205   3.221   3.436   4.393  0.8568 -0.0137  0.3485
   30CHL1  H23A 2206   3.169   3.340   4.413  1.4828 -0.1637  1.2978
   30CHL1  H23B 2207   3.329   3.414   4.389  1.5589  2.4436  2.9780
   30CHL1   C24 2208   3.178   3.535   4.509  0.0432  0.7330  0.3245
   30CHL1  H24A 2209   3.239   3.628   4.501  0.2410  0.9889  3.5358
   30CHL1  H24B 2210   3.069   3.552   4.499 -0.1031 -0.2353  0.2397
   30CHL1   C25 2211   3.198   3.476   4.651 -0.6244  0.4036 -0.6772
   30CHL1   H25 2212   3.148   3.377   4.641 -0.1597 -0.0538  1.1762
   30CHL1   C26 2213   3.344   3.450   4.690 -0.3637 -0.1511 -0.2569
   30CHL1  H26A 2214   3.407   3.541   4.688  1.0516 -1.0464  1.0201
   30CHL1  H26B 2215   3.346   3.406   4.792  0.1643 -0.5399 -0.4344
   30CHL1  H26C 2216   3.386   3.370   4.626 -2.0684 -2.0289  0.8457
   30CHL1   C27 2217   3.141   3.559   4.773  0.4728  0.2862 -0.1386
   30CHL1  H27A 2218   3.040   3.599   4.747  1.1733  2.6630  0.6024
   30CHL1  H27B 2219   3.134   3.507   4.871 -0.2762  1.1412  0.2844
   30CHL1  H27C 2220   3.202   3.649   4.793  1.4514 -0.6862  1.4454
   31CHL1    C3 2221   4.188   3.485   3.350 -0.2442  0.0986 -0.5939
   31CHL1    H3 2222   4.296   3.507   3.362 -0.6457  2.9667 -1.3545
   31CHL1    O3 2223   4.169   3.467   3.213  0.3819 -0.1061  0.0936
   31CHL1   H3' 2224   4.093   3.410   3.210 -0.3783  0.8573  0.3638
   31CHL1    C4 2225   4.149   3.349   3.424 -0.0791  0.0166 -0.0891
   31CHL1   H4A 2226   4.043   3.330   3.395 -0.4823 -0.5274  1.6026
   31CHL1   H4B 2227   4.219   3.275   3.380 -0.4276 -0.1024 -0.4514
   31CHL1    C5 2228   4.169   3.370   3.571  0.3736  0.3067  0.2818
   31CHL1    C6 2229   4.255   3.299   3.647 -0.1620 -1.1504  0.4273
   31CHL1    H6 2230   4.320   3.221   3.603  1.6800  0.4169  0.2364
   31CHL1    C7 2231   4.266   3.307   3.796  0.4808  0.6402  0.0599
   31CHL1   H7A 2232   4.258   3.203   3.835  0.3582  1.1671  1.4951
   31CHL1   H7B 2233   4.365   3.339   3.838  1.0378 -0.9660  0.0310
   31CHL1    C8 2234   4.154   3.384   3.859 -0.2063  0.3431  0.0473
   31CHL1    H8 2235   4.065   3.317   3.858  0.6439 -0.8151 -0.9256
   31CHL1   C14 2236   4.189   3.420   3.996  0.5376 -0.7695  0.4605
   31CHL1   H14 2237   4.276   3.488   3.989 -0.8695  1.5745  3.1611
   31CHL1   C15 2238   4.235   3.310   4.095 -0.1182 -0.0407  0.7432
   31CHL1  H15A 2239   4.173   3.218   4.080 -1.2386  0.8909 -0.6115
   31CHL1  H15B 2240   4.338   3.281   4.066 -0.6055 -1.5422  0.3900
   31CHL1   C16 2241   4.222   3.375   4.226 -0.2188 -0.4952  0.2469
   31CHL1  H16A 2242   4.150   3.308   4.277 -2.5968  1.2547 -0.5967
   31CHL1  H16B 2243   4.323   3.375   4.272  0.2705 -2.6000 -0.7050
   31CHL1   C17 2244   4.154   3.519   4.208 -0.2384 -0.7675  0.0542
   31CHL1   H17 2245   4.240   3.589   4.197  0.6793 -1.4289  2.3861
   31CHL1   C13 2246   4.081   3.503   4.074  0.4457  0.1943  0.0899
   31CHL1   C18 2247   3.942   3.423   4.092  0.0747  0.4909 -0.0719
   31CHL1  H18A 2248   3.911   3.394   3.989  2.4520 -1.0738 -0.4477
   31CHL1  H18B 2249   3.961   3.324   4.139  0.3453  0.4979 -0.1669
   31CHL1  H18C 2250   3.863   3.481   4.144  0.7919  0.0180  1.6260
   31CHL1   C12 2251   4.052   3.633   4.004  0.1104  0.0735  0.3081
   31CHL1  H12A 2252   3.971   3.695   4.048  0.8743  0.3440  1.3624
   31CHL1  H12B 2253   4.147   3.688   4.015  0.0708 -0.2171  2.6924
   31CHL1   C11 2254   4.012   3.604   3.856  0.0924  0.0594  0.4892
   31CHL1  H11A 2255   3.912   3.556   3.857 -0.1634  0.4998  2.9398
   31CHL1  H11B 2256   4.010   3.700   3.799  0.7555 -0.6924 -0.8502
   31CHL1    C9 2257   4.115   3.511   3.780  0.1584 -0.1107 -0.0714
   31CHL1    H9 2258   4.213   3.562   3.779  1.0929 -1.8050  1.2499
   31CHL1   C10 2259   4.074   3.477   3.635 -0.2183  0.6269  0.7316
   31CHL1   C19 2260   3.926   3.441   3.637  0.3971 -0.0319 -0.4449
   31CHL1  H19A 2261   3.912   3.358   3.710  1.7887  0.1873  0.0881
   31CHL1  H19B 2262   3.871   3.534   3.664 -0.8317 -0.6763 -0.6688
   31CHL1  H19C 2263   3.895   3.417   3.533  1.3828  0.1078 -0.7739
   31CHL1    C1 2264   4.103   3.603   3.546  0.0464  0.4665 -0.4996
   31CHL1   H1A 2265   4.031   3.680   3.582 -0.0662 -0.3676  1.1500
   31CHL1   H1B 2266   4.204   3.642   3.572  0.6396 -2.5316  2.3529
   31CHL1    C2 2267   4.096   3.590   3.399  0.0714  0.5765 -0.0874
   31CHL1   H2A 2268   4.121   3.689   3.354  3.1879 -0.5362 -0.9923
   31CHL1   H2B 2269   3.991   3.570   3.367  0.2029  0.5903 -0.5242
   31CHL1   C20 2270   4.081   3.562   4.344 -0.4180 -0.7715  0.0424
   31CHL1   H20 2271   3.995   3.497   4.373 -0.7281  0.4972  2.2169
   31CHL1   C21 2272   4.014   3.705   4.328 -0.0833  0.6630 -0.2860
   31CHL1  H21A 2273   3.964   3.732   4.423 -1.8137 -2.0968 -0.2964
   31CHL1  H21B 2274   3.940   3.695   4.246  0.2107 -0.4648 -0.4360
   31CHL1  H21C 2275   4.090   3.776   4.289  0.4577  0.4445  0.3378
   31CHL1   C22 2276   4.182   3.566   4.467  0.3813 -0.0882  1.1340
   31CHL1  H22A 2277   4.235   3.468   4.475 -0.0413 -0.4951 -0.5889
   31CHL1  H22B 2278   4.262   3.638   4.439 -1.1488  1.4214  0.4626
   31CHL1   C23 2279   4.121   3.592   4.611 -0.6239 -0.0312 -0.0208
   31CHL1  H23A 2280   4.090   3.698   4.600 -0.4567  0.0367  0.1613
   31CHL1  H23B 2281   4.031   3.534   4.637  0.2342 -1.0397  0.7973
   31CHL1   C24 2282   4.239   3.566   4.711 -0.4279  0.2667  0.2367
   31CHL1  H24A 2283   4.267   3.459   4.703  0.8285  0.5512  0.5567
   31CHL1  H24B 2284   4.330   3.620   4.676 -1.9792  2.3235 -0.8521
   31CHL1   C25 2285   4.207   3.613   4.852  0.3049 -0.3248  0.2991
   31CHL1   H25 2286   4.298   3.617   4.916 -0.6825 -0.5592  1.7553
   31CHL1   C26 2287   4.155   3.751   4.854  0.3525  0.5547 -0.4613
   31CHL1  H26A 2288   4.201   3.811   4.773  1.7269  2.9696  1.9275
   31CHL1  H26B 2289   4.045   3.763   4.841  0.6038  5.0613 -0.0172
   31CHL1  H26C 2290   4.179   3.810   4.945 -2.4700  1.2913 -0.0738
   31CHL1   C27 2291   4.105   3.529   4.927 -0.4863 -0.0344 -0.6886
   31CHL1  H27A 2292   4.143   3.429   4.957  0.0931  0.3510 -0.1126
   31CHL1  H27B 2293   4.091   3.583   5.023  0.5867  0.8263 -0.9799
   31CHL1  H27C 2294   4.010   3.514   4.871 -1.3683  1.3556  0.3603
   32CHL1    C3 2295   3.244   1.741   3.095 -0.1665  0.0797  0.4573
   32CHL1    H3 2296   3.262   1.842   3.138  0.6431  0.5586 -0.9689
   32CHL1    O3 2297   3.225   1.754   2.957  0.3119 -0.3458 -0.1160
   32CHL1   H3' 2298   3.306   1.724   2.914  1.7480  2.2477  0.5997
   32CHL1    C4 2299   3.367   1.646   3.118 -0.6295  0.5364  0.3223
   32CHL1   H4A 2300   3.354   1.551   3.062  2.4666  0.7717 -1.0208
   32CHL1   H4B 2301   3.459   1.680   3.067 -0.2794 -0.2853  0.3870
   32CHL1    C5 2302   3.389   1.634   3.269 -0.5478 -0.1106 -0.0948
   32CHL1    C6 2303   3.506   1.680   3.323  0.1389 -0.2439  0.9282
   32CHL1    H6 2304   3.582   1.718   3.253 -0.0542 -1.1924  0.1921
   32CHL1    C7 2305   3.541   1.671   3.464  0.0630 -0.5233 -0.2260
   32CHL1   H7A 2306   3.642   1.624   3.476 -0.7244 -2.1539  0.3580
   32CHL1   H7B 2307   3.559   1.772   3.506 -0.2650 -0.8474  0.7175
   32CHL1    C8 2308   3.448   1.582   3.548 -0.3012 -0.1283  0.0454
   32CHL1    H8 2309   3.478   1.475   3.539  1.6262  0.2729  1.2516
   32CHL1   C14 2310   3.458   1.628   3.693  0.4095 -0.0128 -0.6687
   32CHL1   H14 2311   3.430   1.736   3.703 -1.4952 -0.5159 -0.2210
   32CHL1   C15 2312   3.591   1.622   3.760 -0.3880 -0.7081 -1.1679
   32CHL1  H15A 2313   3.664   1.542   3.732  0.6442  0.2874 -1.4300
   32CHL1  H15B 2314   3.646   1.719   3.754  0.8189 -1.4118 -1.9601
   32CHL1   C16 2315   3.558   1.615   3.912 -0.3439 -1.0980 -0.2902
   32CHL1  H16A 2316   3.602   1.525   3.958  0.4488  0.7777  2.9672
   32CHL1  H16B 2317   3.605   1.700   3.968  0.5607 -0.4123 -2.0174
   32CHL1   C17 2318   3.403   1.609   3.927 -0.6655 -0.1451  0.6762
   32CHL1   H17 2319   3.375   1.716   3.938 -0.4523  0.0726 -0.7214
   32CHL1   C13 2320   3.355   1.554   3.784  0.3194 -0.0919  0.4543
   32CHL1   C18 2321   3.379   1.406   3.778  0.0439  0.2367  0.2535
   32CHL1  H18A 2322   3.299   1.356   3.837  1.1332  0.1049  1.6891
   32CHL1  H18B 2323   3.389   1.373   3.673  0.8878 -0.3521  0.5005
   32CHL1  H18C 2324   3.477   1.380   3.824 -0.3990 -0.7936  0.6526
   32CHL1   C12 2325   3.208   1.588   3.739  0.1435  0.8061 -0.0990
   32CHL1  H12A 2326   3.141   1.529   3.805  0.7286 -0.6578 -0.7507
   32CHL1  H12B 2327   3.181   1.695   3.751 -0.8929  0.6650 -1.0899
   32CHL1   C11 2328   3.195   1.537   3.597 -0.0395 -0.0761 -0.1100
   32CHL1  H11A 2329   3.195   1.426   3.593  0.2278 -0.0994  0.4001
   32CHL1  H11B 2330   3.094   1.575   3.569  0.8524  1.6393 -1.1434
   32CHL1    C9 2331   3.298   1.602   3.506  0.5895 -0.5135 -0.3014
   32CHL1    H9 2332   3.284   1.711   3.521  0.9867 -0.3767 -0.8834
   32CHL1   C10 2333   3.268   1.586   3.356  0.5076 -0.2221 -0.4069
   32CHL1   C19 2334   3.242   1.438   3.329  0.6258  0.0826  0.2278
   32CHL1  H19A 2335   3.234   1.419   3.220 -0.3934 -0.0238  0.3090
   32CHL1  H19B 2336   3.328   1.385   3.375  1.2634  0.8462 -0.0648
   32CHL1  H19C 2337   3.145   1.397   3.365  1.3530 -0.0838  2.1301
   32CHL1    C1 2338   3.143   1.671   3.318 -0.5607  0.2560  0.3937
   32CHL1   H1A 2339   3.050   1.636   3.368 -0.3668 -1.4435 -0.3718
   32CHL1   H1B 2340   3.156   1.774   3.357 -0.0389  0.3912 -0.1375
   32CHL1    C2 2341   3.120   1.681   3.165 -0.6316 -0.3764  0.3535
   32CHL1   H2A 2342   3.038   1.753   3.142 -0.4345 -0.2927 -0.0973
   32CHL1   H2B 2343   3.099   1.584   3.116 -1.4665  0.1577 -0.3970
   32CHL1   C20 2344   3.352   1.546   4.060 -0.8854  0.0443  0.3353
   32CHL1   H20 2345   3.384   1.440   4.063 -0.9513 -0.0704 -1.7185
   32CHL1   C21 2346   3.197   1.537   4.063 -0.7216  0.4838  0.2349
   32CHL1  H21A 2347   3.152   1.539   4.164  0.5571 -0.6360  0.8650
   32CHL1  H21B 2348   3.163   1.442   4.016  1.3200 -0.4554  0.5050
   32CHL1  H21C 2349   3.147   1.624   4.016 -2.7707  0.4229  2.1568
   32CHL1   C22 2350   3.407   1.598   4.192 -0.7318  0.0167  0.2941
   32CHL1  H22A 2351   3.510   1.633   4.169 -0.6922 -0.3234 -0.0385
   32CHL1  H22B 2352   3.342   1.684   4.220  0.2997  0.4855  1.3368
   32CHL1   C23 2353   3.412   1.491   4.302 -0.2416  0.1031  0.1341
   32CHL1  H23A 2354   3.307   1.490   4.339 -0.2016 -2.7096  0.3734
   32CHL1  H23B 2355   3.428   1.387   4.268 -2.0643 -0.6775  1.4847
   32CHL1   C24 2356   3.496   1.538   4.423 -0.1958  0.2112 -0.7301
   32CHL1  H24A 2357   3.605   1.522   4.409 -0.3947 -0.5825 -1.4240
   32CHL1  H24B 2358   3.478   1.648   4.429 -0.3706  0.1131  2.1199
   32CHL1   C25 2359   3.445   1.457   4.548 -0.6242 -0.0513 -0.0970
   32CHL1   H25 2360   3.338   1.481   4.565 -0.7226 -1.1633  0.9773
   32CHL1   C26 2361   3.477   1.299   4.540 -0.1910  0.1742  0.7013
   32CHL1  H26A 2362   3.584   1.276   4.522 -0.3058 -0.4387  0.7965
   32CHL1  H26B 2363   3.460   1.249   4.637 -1.2197 -0.6029  0.1415
   32CHL1  H26C 2364   3.406   1.264   4.462  1.9615  1.3849 -1.9524
   32CHL1   C27 2365   3.531   1.511   4.664  0.4034 -0.0189  0.1924
   32CHL1  H27A 2366   3.639   1.502   4.641  0.5457  2.1294 -0.1689
   32CHL1  H27B 2367   3.515   1.618   4.690  2.0421  0.7301 -1.6371
   32CHL1  H27C 2368   3.503   1.464   4.761  0.0883  0.2159  0.2151
   33CHL1    C3 2369   1.225   2.377   2.958 -0.9558 -0.0912  0.1397
   33CHL1    H3 2370   1.298   2.322   3.021 -0.0958  0.1848 -0.5844
   33CHL1    O3 2371   1.252   2.352   2.823 -0.0296 -0.0456  0.7218
   33CHL1   H3' 2372   1.348   2.352   2.813  0.0734  0.7866  1.6508
   33CHL1    C4 2373   1.079   2.357   3.002 -0.4601 -0.5488 -0.1042
   33CHL1   H4A 2374   1.019   2.415   2.928 -0.4569 -1.5423 -0.9049
   33CHL1   H4B 2375   1.060   2.252   2.973  0.8496 -1.5617  2.5040
   33CHL1    C5 2376   1.050   2.390   3.144  0.1818  0.1144 -0.5782
   33CHL1    C6 2377   0.988   2.298   3.225  0.3444 -0.3830  0.2173
   33CHL1    H6 2378   0.962   2.198   3.185 -3.6212  1.5180 -2.6999
   33CHL1    C7 2379   0.958   2.323   3.368  0.1718 -0.4201 -0.6581
   33CHL1   H7A 2380   0.858   2.286   3.400 -0.5784  0.9953 -1.2917
   33CHL1   H7B 2381   1.024   2.262   3.433 -2.8861 -0.1161  3.1267
   33CHL1    C8 2382   0.979   2.475   3.410 -0.1159  0.0259 -0.2084
   33CHL1    H8 2383   0.901   2.539   3.363 -0.9157 -0.1704  0.8082
   33CHL1   C14 2384   0.988   2.484   3.558  0.0154  0.6012 -0.2182
   33CHL1   H14 2385   1.081   2.430   3.582  0.1763  0.5369 -0.9630
   33CHL1   C15 2386   0.870   2.428   3.642 -0.6765  0.3492  0.0814
   33CHL1  H15A 2387   0.773   2.457   3.595 -1.1517  1.3444  1.6308
   33CHL1  H15B 2388   0.878   2.317   3.646 -1.2735  0.2455 -1.1326
   33CHL1   C16 2389   0.879   2.489   3.779 -0.3226 -0.6991  0.3857
   33CHL1  H16A 2390   0.775   2.516   3.810 -0.5105 -1.9168  0.8794
   33CHL1  H16B 2391   0.918   2.422   3.857 -1.2340 -0.7390  0.8256
   33CHL1   C17 2392   0.989   2.598   3.768 -0.0554  0.0062 -0.8113
   33CHL1   H17 2393   1.081   2.548   3.805 -0.3004 -0.2234 -0.5064
   33CHL1   C13 2394   1.005   2.626   3.613  0.2548 -0.5153 -0.4930
   33CHL1   C18 2395   0.893   2.724   3.569  0.1882 -0.3922 -0.2823
   33CHL1  H18A 2396   0.913   2.753   3.463 -0.2455 -0.1828 -0.3102
   33CHL1  H18B 2397   0.791   2.687   3.590 -0.0624  1.1168  1.3748
   33CHL1  H18C 2398   0.909   2.818   3.626 -2.6865 -0.5727  0.9396
   33CHL1   C12 2399   1.143   2.679   3.558  0.1119  0.0005  0.3096
   33CHL1  H12A 2400   1.151   2.784   3.592 -2.7215  0.3246  0.2117
   33CHL1  H12B 2401   1.225   2.619   3.603  2.6008  2.7947 -0.1849
   33CHL1   C11 2402   1.163   2.666   3.406  0.2777  0.8921 -0.1566
   33CHL1  H11A 2403   1.103   2.745   3.356 -1.4730  0.0915  0.6039
   33CHL1  H11B 2404   1.272   2.679   3.387  0.3300 -0.3116 -0.7603
   33CHL1    C9 2405   1.105   2.532   3.347  0.1635  1.3390 -0.0924
   33CHL1    H9 2406   1.181   2.455   3.372 -0.4785  0.7137 -0.0281
   33CHL1   C10 2407   1.104   2.530   3.196 -0.3999  0.6999  0.8453
   33CHL1   C19 2408   1.013   2.634   3.136 -0.0272  0.4110  0.0766
   33CHL1  H19A 2409   0.989   2.609   3.031  2.8069  1.3369 -0.8528
   33CHL1  H19B 2410   0.922   2.659   3.195 -0.4777 -1.0954  0.0742
   33CHL1  H19C 2411   1.073   2.726   3.145  1.4278 -0.6422  2.0555
   33CHL1    C1 2412   1.253   2.543   3.135 -0.4731 -0.6268 -0.9020
   33CHL1   H1A 2413   1.293   2.642   3.166 -1.2913 -0.2140 -1.1168
   33CHL1   H1B 2414   1.309   2.458   3.179  1.5709 -1.5492 -4.8711
   33CHL1    C2 2415   1.268   2.525   2.989  0.1065  1.2858  0.3725
   33CHL1   H2A 2416   1.366   2.536   2.938  0.2987 -0.9886  0.1646
   33CHL1   H2B 2417   1.191   2.587   2.939 -1.8479  0.8709  2.6735
   33CHL1   C20 2418   0.982   2.715   3.871  0.2627  0.0837 -0.6451
   33CHL1   H20 2419   0.900   2.784   3.841 -0.0357  1.0373  2.1421
   33CHL1   C21 2420   1.119   2.793   3.883 -0.4190  0.1016  0.7223
   33CHL1  H21A 2421   1.112   2.869   3.964 -1.2644  1.6138 -0.6922
   33CHL1  H21B 2422   1.139   2.839   3.784  1.4119 -0.4819  0.7795
   33CHL1  H21C 2423   1.199   2.723   3.913 -0.0388  0.3112  0.2145
   33CHL1   C22 2424   0.937   2.674   4.006  0.6061 -0.1127  0.1278
   33CHL1  H22A 2425   0.852   2.603   4.008  0.0379  0.5333  2.6547
   33CHL1  H22B 2426   1.025   2.634   4.061  1.4398  0.9013 -0.4335
   33CHL1   C23 2427   0.881   2.791   4.092  0.2497 -0.6714 -1.0908
   33CHL1  H23A 2428   0.954   2.874   4.100 -0.0601 -0.3437 -1.6171
   33CHL1  H23B 2429   0.791   2.833   4.043 -0.6799 -1.1934  0.1052
   33CHL1   C24 2430   0.835   2.741   4.226 -0.3568  0.0649  0.8561
   33CHL1  H24A 2431   0.745   2.677   4.211 -0.1878  0.0272 -0.0880
   33CHL1  H24B 2432   0.910   2.664   4.253 -0.5687 -1.0092 -1.4199
   33CHL1   C25 2433   0.801   2.847   4.334  0.6611 -0.8462  0.4084
   33CHL1   H25 2434   0.739   2.928   4.290  0.5126 -0.0424  1.9987
   33CHL1   C26 2435   0.742   2.793   4.457 -0.1280 -0.4944  0.0596
   33CHL1  H26A 2436   0.653   2.730   4.434  1.0728 -1.9543 -0.7570
   33CHL1  H26B 2437   0.819   2.734   4.511  0.1765 -1.5253 -1.4356
   33CHL1  H26C 2438   0.701   2.865   4.530  0.0108 -1.6530  1.3046
   33CHL1   C27 2439   0.926   2.928   4.379 -0.4373  0.2167 -0.7163
   33CHL1  H27A 2440   0.908   3.000   4.462  3.5678  0.6749 -0.0484
   33CHL1  H27B 2441   1.005   2.861   4.422 -0.6660 -0.1170 -0.8147
   33CHL1  H27C 2442   0.971   2.989   4.298  0.2028  0.7210  0.0030
   34CHL1    C3 2443   5.881   4.796   3.320 -0.0980  0.8115 -0.3371
   34CHL1    H3 2444   5.814   4.884   3.332  1.1410  2.0128 -1.9261
   34CHL1    O3 2445   5.934   4.789   3.189 -0.4452  0.5678 -0.6639
   34CHL1   H3' 2446   5.992   4.713   3.187 -1.2893 -0.0817 -0.7978
   34CHL1    C4 2447   6.001   4.814   3.419  0.6679  0.2145  0.7338
   34CHL1   H4A 2448   6.063   4.725   3.397 -0.5520 -0.0296 -2.2590
   34CHL1   H4B 2449   6.066   4.900   3.392  2.4710 -1.0668  0.8609
   34CHL1    C5 2450   5.946   4.817   3.561  0.4836 -0.5375 -0.4525
   34CHL1    C6 2451   5.986   4.921   3.646  0.3459  0.8855  1.0247
   34CHL1    H6 2452   6.055   4.994   3.600  2.6042 -1.4246  0.5372
   34CHL1    C7 2453   5.961   4.927   3.790  0.3435  0.5987 -0.6927
   34CHL1   H7A 2454   6.057   4.949   3.841 -0.7107  0.5867  1.4331
   34CHL1   H7B 2455   5.902   5.019   3.807 -0.7517 -0.0034 -1.1439
   34CHL1    C8 2456   5.892   4.797   3.840  0.3770  0.5288 -0.2100
   34CHL1    H8 2457   5.973   4.725   3.863 -0.6061 -1.1077 -1.5986
   34CHL1   C14 2458   5.820   4.829   3.976  0.3503  0.8021  0.4502
   34CHL1   H14 2459   5.738   4.901   3.957 -1.8538 -0.9926  2.4856
   34CHL1   C15 2460   5.905   4.885   4.092 -0.7183  0.6916  0.2165
   34CHL1  H15A 2461   6.004   4.836   4.093 -0.3248  1.1878 -3.1684
   34CHL1  H15B 2462   5.918   4.996   4.090 -2.1430  0.9001  1.0425
   34CHL1   C16 2463   5.818   4.852   4.217 -0.4044 -0.5847  0.1375
   34CHL1  H16A 2464   5.882   4.806   4.296  2.4269  1.0753 -1.0680
   34CHL1  H16B 2465   5.776   4.945   4.261  2.6570  1.2427 -0.5547
   34CHL1   C17 2466   5.707   4.762   4.168  0.3944  0.3740 -0.2836
   34CHL1   H17 2467   5.617   4.815   4.129 -1.1751 -0.0540  2.4821
   34CHL1   C13 2468   5.758   4.700   4.039 -0.0088 -0.0830 -0.5200
   34CHL1   C18 2469   5.863   4.595   4.077  0.1634 -0.0852  0.5093
   34CHL1  H18A 2470   5.816   4.499   4.107  0.3655 -0.0082  1.0850
   34CHL1  H18B 2471   5.918   4.570   3.984 -1.4959 -2.1007 -0.0195
   34CHL1  H18C 2472   5.930   4.623   4.161  2.0721 -0.0388 -0.9691
   34CHL1   C12 2473   5.652   4.648   3.935  0.0386 -0.1287 -0.2421
   34CHL1  H12A 2474   5.612   4.556   3.982  1.6138 -1.3371 -1.1779
   34CHL1  H12B 2475   5.570   4.722   3.919 -1.2831 -1.8210 -1.6814
   34CHL1   C11 2476   5.714   4.609   3.801  0.3514 -0.4501 -0.1413
   34CHL1  H11A 2477   5.777   4.520   3.822  0.7598 -0.1835 -0.2288
   34CHL1  H11B 2478   5.637   4.576   3.727 -0.5763  0.0497  0.5824
   34CHL1    C9 2479   5.793   4.730   3.740  0.0480  0.0689  0.3984
   34CHL1    H9 2480   5.721   4.815   3.730  0.4909  0.4493  0.3938
   34CHL1   C10 2481   5.852   4.695   3.607  0.0105 -0.3137 -0.8171
   34CHL1   C19 2482   5.945   4.576   3.625  0.3027 -0.2814 -0.0547
   34CHL1  H19A 2483   5.882   4.485   3.631 -0.4434  0.0724 -1.9384
   34CHL1  H19B 2484   6.021   4.556   3.547  1.1995 -1.2971  1.0405
   34CHL1  H19C 2485   6.005   4.587   3.718 -1.1981  1.1106  0.8156
   34CHL1    C1 2486   5.745   4.676   3.495  0.2508  0.0410 -0.2881
   34CHL1   H1A 2487   5.698   4.578   3.515 -2.1499  1.2507  0.4491
   34CHL1   H1B 2488   5.668   4.756   3.500  0.4401  0.2992 -1.1634
   34CHL1    C2 2489   5.807   4.668   3.351  0.1941  0.2900  0.6368
   34CHL1   H2A 2490   5.723   4.661   3.279  0.0905 -0.6088  0.8317
   34CHL1   H2B 2491   5.881   4.588   3.330  0.2916  0.5946 -0.2402
   34CHL1   C20 2492   5.661   4.664   4.273 -0.5810 -1.3525  0.0204
   34CHL1   H20 2493   5.629   4.569   4.225  0.3109 -0.6851 -1.9948
   34CHL1   C21 2494   5.528   4.734   4.319  1.1617  0.1442 -0.1002
   34CHL1  H21A 2495   5.451   4.731   4.239  0.6221 -1.1569  0.4438
   34CHL1  H21B 2496   5.538   4.832   4.370  2.7623 -1.1567  2.2854
   34CHL1  H21C 2497   5.481   4.665   4.392 -0.1178  0.6648 -0.4130
   34CHL1   C22 2498   5.758   4.636   4.393  0.2245 -0.1964  0.1823
   34CHL1  H22A 2499   5.862   4.615   4.360 -0.0816  0.7183 -1.4339
   34CHL1  H22B 2500   5.753   4.726   4.459 -0.8730  1.2760 -1.8031
   34CHL1   C23 2501   5.713   4.519   4.480  0.5348 -0.4363 -0.4219
   34CHL1  H23A 2502   5.610   4.531   4.519  0.6040 -2.8999  0.6563
   34CHL1  H23B 2503   5.698   4.432   4.412 -1.1737 -0.6751  0.2147
   34CHL1   C24 2504   5.825   4.475   4.580  0.4902 -0.2355  0.8109
   34CHL1  H24A 2505   5.904   4.437   4.511 -0.1365  1.3290 -0.8544
   34CHL1  H24B 2506   5.871   4.561   4.633 -0.1816  0.4444  0.3098
   34CHL1   C25 2507   5.768   4.382   4.687  0.0229 -0.8442 -0.0858
   34CHL1   H25 2508   5.679   4.436   4.725  0.2469  0.5514 -1.4654
   34CHL1   C26 2509   5.734   4.236   4.644 -0.3704  0.3422 -0.1889
   34CHL1  H26A 2510   5.706   4.193   4.743  2.0824  0.3961  0.5985
   34CHL1  H26B 2511   5.663   4.232   4.559  1.1735 -1.0308 -1.4855
   34CHL1  H26C 2512   5.830   4.183   4.624 -1.2952 -1.0805 -1.0333
   34CHL1   C27 2513   5.857   4.371   4.810 -0.6480  0.0680 -0.4644
   34CHL1  H27A 2514   5.895   4.470   4.843  3.6515 -0.9459 -1.7080
   34CHL1  H27B 2515   5.812   4.319   4.897  0.1706  2.1961  1.3293
   34CHL1  H27C 2516   5.949   4.313   4.790 -1.3796 -1.7676  1.1231
   35CHL1    C3 2517   6.373   1.349   3.474  0.4283  0.5001 -0.7191
   35CHL1    H3 2518   6.481   1.327   3.476 -0.3115 -4.1527 -0.9428
   35CHL1    O3 2519   6.318   1.281   3.358 -0.0068  0.0285 -0.0694
   35CHL1   H3' 2520   6.232   1.245   3.382 -0.7430  3.1349  2.6477
   35CHL1    C4 2521   6.298   1.287   3.600 -0.6949  0.4491  0.6439
   35CHL1   H4A 2522   6.189   1.291   3.576 -0.2255  0.2758 -1.7333
   35CHL1   H4B 2523   6.311   1.177   3.606 -2.7395  0.1427  0.1837
   35CHL1    C5 2524   6.328   1.359   3.724 -0.1886 -0.2717 -0.0348
   35CHL1    C6 2525   6.371   1.298   3.838 -0.1908  0.6857 -0.8941
   35CHL1    H6 2526   6.391   1.190   3.839 -2.9826  0.0881  0.9961
   35CHL1    C7 2527   6.376   1.368   3.973  0.1686  0.0946  0.9470
   35CHL1   H7A 2528   6.322   1.313   4.053  0.3515  1.6181  2.1675
   35CHL1   H7B 2529   6.482   1.379   4.004  0.7191  2.3998 -1.4140
   35CHL1    C8 2530   6.314   1.510   3.972  0.0905 -0.8131 -0.5988
   35CHL1    H8 2531   6.205   1.495   3.989 -0.3235  0.9932 -1.4370
   35CHL1   C14 2532   6.360   1.581   4.096  0.8588  0.2543 -0.0910
   35CHL1   H14 2533   6.468   1.606   4.086  0.7524  1.4236  1.3525
   35CHL1   C15 2534   6.347   1.511   4.227 -0.8301  0.0696 -0.7304
   35CHL1  H15A 2535   6.244   1.472   4.241 -0.5583 -0.0727  1.1024
   35CHL1  H15B 2536   6.411   1.423   4.246 -2.6256 -0.8865  1.3418
   35CHL1   C16 2537   6.366   1.621   4.331  0.0196  0.6909  0.1582
   35CHL1  H16A 2538   6.286   1.626   4.408 -0.7601 -1.1663 -0.4567
   35CHL1  H16B 2539   6.464   1.613   4.382 -0.0672 -0.8477  0.1332
   35CHL1   C17 2540   6.364   1.757   4.255  0.2189 -0.1074  0.0937
   35CHL1   H17 2541   6.472   1.782   4.247  0.9668 -2.6879  0.8724
   35CHL1   C13 2542   6.298   1.722   4.117  0.2442  0.0584  0.0722
   35CHL1   C18 2543   6.135   1.718   4.127  0.0154  0.0261  0.3113
   35CHL1  H18A 2544   6.118   1.635   4.198 -0.1399 -1.7877 -1.7182
   35CHL1  H18B 2545   6.091   1.815   4.156 -1.6191 -0.4465 -0.4576
   35CHL1  H18C 2546   6.093   1.687   4.028 -2.9784 -0.1603  1.5396
   35CHL1   C12 2547   6.342   1.803   3.990  0.6397  0.2806  0.1613
   35CHL1  H12A 2548   6.286   1.899   3.999 -1.4211 -0.6480 -1.8219
   35CHL1  H12B 2549   6.452   1.816   4.000  1.0222 -1.3350 -1.4481
   35CHL1   C11 2550   6.306   1.733   3.860  0.4355  0.3112 -1.1271
   35CHL1  H11A 2551   6.196   1.749   3.851 -0.0449 -1.0753  1.3821
   35CHL1  H11B 2552   6.364   1.787   3.783  2.2979 -0.0834 -0.0572
   35CHL1    C9 2553   6.348   1.586   3.844  0.8816  0.0563  0.0886
   35CHL1    H9 2554   6.459   1.587   3.831  0.6915 -0.4491 -1.9107
   35CHL1   C10 2555   6.290   1.512   3.718  0.4096 -0.5904  0.7337
   35CHL1   C19 2556   6.137   1.527   3.709  0.0383  0.4957  0.1634
   35CHL1  H19A 2557   6.128   1.635   3.685  0.9447  0.0947 -2.1844
   35CHL1  H19B 2558   6.089   1.478   3.622  2.2642  1.0716 -1.4740
   35CHL1  H19C 2559   6.087   1.499   3.804 -0.4679 -0.3661 -0.3532
   35CHL1    C1 2560   6.348   1.573   3.587 -0.0184  0.2796  0.1619
   35CHL1   H1A 2561   6.308   1.676   3.577 -0.1133  0.1252 -1.2668
   35CHL1   H1B 2562   6.458   1.583   3.601 -0.1363  0.5269  0.9357
   35CHL1    C2 2563   6.323   1.498   3.454 -0.0651  0.5133  0.1459
   35CHL1   H2A 2564   6.371   1.556   3.373 -2.8450 -0.6973 -2.5432
   35CHL1   H2B 2565   6.214   1.503   3.435  0.0903  0.5556 -0.7827
   35CHL1   C20 2566   6.296   1.871   4.336  0.3152 -0.5080  0.1783
   35CHL1   H20 2567   6.186   1.852   4.337 -0.1513  1.7705 -0.1347
   35CHL1   C21 2568   6.312   2.002   4.260 -0.3244 -0.1735 -0.0988
   35CHL1  H21A 2569   6.410   2.022   4.214 -0.8581  1.1743 -0.6924
   35CHL1  H21B 2570   6.298   2.087   4.330 -1.0759 -0.6151  0.3100
   35CHL1  H21C 2571   6.239   2.016   4.178 -0.3706 -1.6017 -0.3359
   35CHL1   C22 2572   6.338   1.888   4.487  0.5231  0.6983 -0.6964
   35CHL1  H22A 2573   6.296   1.979   4.534  2.8460  1.7386 -0.4909
   35CHL1  H22B 2574   6.298   1.797   4.536 -2.3596  1.4882 -1.4082
   35CHL1   C23 2575   6.492   1.905   4.519 -0.3697 -0.8761  0.5154
   35CHL1  H23A 2576   6.546   1.815   4.483 -2.1012 -1.2276 -1.3860
   35CHL1  H23B 2577   6.532   1.989   4.458  0.1333 -0.8807  0.8290
   35CHL1   C24 2578   6.502   1.946   4.666  0.1722  0.3950 -0.5466
   35CHL1  H24A 2579   6.453   2.041   4.695 -0.4526  0.2084 -0.9540
   35CHL1  H24B 2580   6.455   1.860   4.720  1.6149  0.5439  1.0250
   35CHL1   C25 2581   6.645   1.950   4.723 -0.4531  0.6743 -0.1790
   35CHL1   H25 2582   6.629   2.006   4.818  0.4001 -0.9474  0.9662
   35CHL1   C26 2583   6.710   1.821   4.766  0.3401  0.2416  0.2585
   35CHL1  H26A 2584   6.702   1.754   4.678 -2.3615 -0.4537  0.9260
   35CHL1  H26B 2585   6.814   1.834   4.803 -0.3052 -2.1903  3.4257
   35CHL1  H26C 2586   6.654   1.766   4.845 -0.1475 -1.9141 -1.4770
   35CHL1   C27 2587   6.748   2.027   4.638  0.9229 -0.0296  0.3896
   35CHL1  H27A 2588   6.786   1.964   4.555 -0.1882 -1.3994  0.8688
   35CHL1  H27B 2589   6.696   2.117   4.600  1.0728  0.2551  0.8459
   35CHL1  H27C 2590   6.829   2.073   4.699 -0.4182  5.2424 -1.2987
   36CHL1    C3 2591   4.773   6.624   2.834 -0.0849 -0.1580 -0.0163
   36CHL1    H3 2592   4.875   6.667   2.837 -0.2280  0.1422  1.0445
   36CHL1    O3 2593   4.719   6.666   2.710  0.8075 -0.4385 -0.1316
   36CHL1   H3' 2594   4.708   6.760   2.720 -0.0285 -0.5804  0.3611
   36CHL1    C4 2595   4.773   6.475   2.851 -0.7095 -0.0969  0.7241
   36CHL1   H4A 2596   4.678   6.426   2.821  0.4350 -2.1437  0.2001
   36CHL1   H4B 2597   4.849   6.439   2.778 -1.0423  2.3271 -0.9583
   36CHL1    C5 2598   4.799   6.434   2.989 -0.0508  0.0529 -0.1005
   36CHL1    C6 2599   4.902   6.355   3.023 -0.6392  0.1030  0.3575
   36CHL1    H6 2600   4.966   6.312   2.944 -1.9932 -2.2529  0.4494
   36CHL1    C7 2601   4.923   6.305   3.166  0.5879 -0.0296  0.9521
   36CHL1   H7A 2602   4.969   6.204   3.156 -0.1373 -0.5869  2.7675
   36CHL1   H7B 2603   5.001   6.368   3.211  1.8220  0.6023 -1.8289
   36CHL1    C8 2604   4.785   6.297   3.238 -0.2058 -0.1740  0.3589
   36CHL1    H8 2605   4.716   6.233   3.179 -0.7509  0.4351  0.3233
   36CHL1   C14 2606   4.807   6.250   3.379  0.5875 -0.1063  0.5643
   36CHL1   H14 2607   4.879   6.320   3.426  0.3073  0.9796 -0.5818
   36CHL1   C15 2608   4.867   6.109   3.381 -0.5882  0.1058  0.2406
   36CHL1  H15A 2609   4.816   6.043   3.308  0.8341  0.9156 -1.5578
   36CHL1  H15B 2610   4.974   6.102   3.354 -1.0135 -2.0229 -1.0879
   36CHL1   C16 2611   4.845   6.057   3.524  0.4571 -0.5136 -0.3417
   36CHL1  H16A 2612   4.796   5.958   3.528  2.0748 -1.3135  0.3987
   36CHL1  H16B 2613   4.938   6.052   3.583 -0.0936  0.6101  0.6761
   36CHL1   C17 2614   4.746   6.162   3.585  0.7439 -0.8791 -0.2201
   36CHL1   H17 2615   4.801   6.242   3.637 -2.5322  1.0775  0.4839
   36CHL1   C13 2616   4.685   6.243   3.470 -0.1351  0.8316 -0.3740
   36CHL1   C18 2617   4.576   6.163   3.405  0.2650 -0.4141  0.4251
   36CHL1  H18A 2618   4.474   6.180   3.444 -0.7588  1.3253 -2.6829
   36CHL1  H18B 2619   4.564   6.195   3.299 -0.3311  1.2997  0.9731
   36CHL1  H18C 2620   4.601   6.055   3.406  1.6136 -0.1145  0.6159
   36CHL1   C12 2621   4.634   6.391   3.489  0.1170  0.9050  0.3442
   36CHL1  H12A 2622   4.537   6.392   3.544 -0.7715 -0.3661 -1.1206
   36CHL1  H12B 2623   4.715   6.450   3.537  2.7092 -2.1870  0.0431
   36CHL1   C11 2624   4.608   6.452   3.347 -0.2344  0.6673 -0.1878
   36CHL1  H11A 2625   4.516   6.407   3.304 -0.1080 -0.3751  0.6192
   36CHL1  H11B 2626   4.582   6.560   3.360  0.3816  0.6745  1.1236
   36CHL1    C9 2627   4.723   6.432   3.240  1.1941 -0.0288  0.4390
   36CHL1    H9 2628   4.811   6.493   3.271  1.7251 -1.0436  0.9774
   36CHL1   C10 2629   4.694   6.479   3.090  0.5742 -0.4562 -1.1645
   36CHL1   C19 2630   4.547   6.439   3.058 -0.5276  0.0936 -0.2830
   36CHL1  H19A 2631   4.476   6.500   3.117  0.5366 -0.2634  1.4405
   36CHL1  H19B 2632   4.526   6.460   2.951 -1.3957 -0.5889 -0.2598
   36CHL1  H19C 2633   4.517   6.332   3.066 -4.5988  1.1751  1.7164
   36CHL1    C1 2634   4.706   6.628   3.085  0.1399 -0.0320 -0.1424
   36CHL1   H1A 2635   4.635   6.684   3.148  0.7705  0.1848  0.3875
   36CHL1   H1B 2636   4.810   6.649   3.116  0.9786  0.7943 -3.1231
   36CHL1    C2 2637   4.682   6.691   2.944 -0.0848 -0.3058  0.3586
   36CHL1   H2A 2638   4.699   6.800   2.941 -0.3343 -0.2681 -2.3650
   36CHL1   H2B 2639   4.575   6.675   2.919  0.0943  0.7024 -1.2177
   36CHL1   C20 2640   4.650   6.108   3.685  0.5647  0.2456 -0.7958
   36CHL1   H20 2641   4.571   6.039   3.647 -1.1415  1.8860 -0.3693
   36CHL1   C21 2642   4.556   6.219   3.755 -0.2868  0.4695  0.3048
   36CHL1  H21A 2643   4.620   6.308   3.775  0.0102  0.1167  0.9686
   36CHL1  H21B 2644   4.497   6.178   3.840 -1.8225  1.2620 -0.3524
   36CHL1  H21C 2645   4.484   6.255   3.679  1.6939  1.2085 -1.3262
   36CHL1   C22 2646   4.727   6.033   3.801 -1.1064 -0.2308  0.0092
   36CHL1  H22A 2647   4.649   5.991   3.869 -3.2031  1.1049 -1.4254
   36CHL1  H22B 2648   4.787   5.952   3.754  2.2468  1.6423  0.7697
   36CHL1   C23 2649   4.808   6.119   3.893 -0.8175  0.1099  0.1006
   36CHL1  H23A 2650   4.888   6.183   3.848 -1.4238  1.0649  0.3575
   36CHL1  H23B 2651   4.748   6.202   3.935  1.0687  0.6973  1.8130
   36CHL1   C24 2652   4.877   6.044   4.011 -0.1013 -0.1548 -0.2384
   36CHL1  H24A 2653   4.804   5.988   4.075  0.3256 -0.5397 -0.0852
   36CHL1  H24B 2654   4.945   5.961   3.981  2.3012  1.5016  0.3506
   36CHL1   C25 2655   4.942   6.149   4.101 -0.2430 -0.4042  0.1307
   36CHL1   H25 2656   4.871   6.233   4.119  0.8143  0.2783  1.2988
   36CHL1   C26 2657   4.973   6.100   4.241 -0.0573 -0.0609  0.0824
   36CHL1  H26A 2658   5.022   6.000   4.230 -0.4224 -0.0691 -1.8991
   36CHL1  H26B 2659   5.055   6.162   4.283 -2.3316  2.5918  0.9110
   36CHL1  H26C 2660   4.886   6.091   4.309  0.3655  1.0122  0.7985
   36CHL1   C27 2661   5.074   6.204   4.047 -0.0464  0.1347  0.4922
   36CHL1  H27A 2662   5.127   6.263   4.125  0.5637  1.1109 -0.6280
   36CHL1  H27B 2663   5.135   6.114   4.022  1.4643 -0.1397  4.5055
   36CHL1  H27C 2664   5.068   6.278   3.964 -0.4953 -1.0347 -0.5559
   37CHL1    C3 2665   0.865   1.734   3.400 -0.0202 -0.4029 -0.0147
   37CHL1    H3 2666   0.768   1.742   3.455 -0.4266 -1.2566 -0.5807
   37CHL1    O3 2667   0.858   1.777   3.267  0.4576 -0.2931 -0.3037
   37CHL1   H3' 2668   0.946   1.759   3.236  0.4809 -0.8242  0.0458
   37CHL1    C4 2669   0.974   1.826   3.470  0.5011  0.3058  0.2608
   37CHL1   H4A 2670   1.061   1.819   3.402  2.4516  3.0673  2.2842
   37CHL1   H4B 2671   0.935   1.930   3.480 -1.7723 -0.5719  1.4270
   37CHL1    C5 2672   1.000   1.771   3.612  0.2977 -0.6237 -0.0045
   37CHL1    C6 2673   0.975   1.853   3.711 -0.6210  0.1577 -0.4542
   37CHL1    H6 2674   0.926   1.950   3.699  1.2356  1.2292  0.1961
   37CHL1    C7 2675   1.009   1.819   3.856 -0.3197  0.2692 -0.3821
   37CHL1   H7A 2676   1.063   1.902   3.905  1.0791 -0.2821 -0.9205
   37CHL1   H7B 2677   0.921   1.797   3.920  0.4360 -1.8303  0.0159
   37CHL1    C8 2678   1.105   1.696   3.867 -0.1427  0.2015  0.0430
   37CHL1    H8 2679   1.210   1.717   3.836  0.1719 -1.4542 -0.1260
   37CHL1   C14 2680   1.112   1.646   4.013  0.6324 -0.3951  0.0731
   37CHL1   H14 2681   1.010   1.619   4.047  1.1237 -1.1346  0.9758
   37CHL1   C15 2682   1.154   1.738   4.131 -0.4818 -0.4659  0.4932
   37CHL1  H15A 2683   1.247   1.789   4.097 -0.2027 -2.6128 -2.3233
   37CHL1  H15B 2684   1.083   1.822   4.144  0.0130 -0.1500  1.2310
   37CHL1   C16 2685   1.178   1.645   4.250 -0.1803  0.6793 -0.0056
   37CHL1  H16A 2686   1.268   1.680   4.304 -0.5915  0.3115  0.9386
   37CHL1  H16B 2687   1.089   1.644   4.316  0.5509  1.5419  1.0052
   37CHL1   C17 2688   1.179   1.499   4.185  0.3243  0.4787  0.4581
   37CHL1   H17 2689   1.077   1.458   4.195  0.0718  0.8906 -0.3466
   37CHL1   C13 2690   1.197   1.522   4.030 -0.1583  0.3127 -0.3080
   37CHL1   C18 2691   1.341   1.545   4.005  0.0022 -0.4755 -0.3356
   37CHL1  H18A 2692   1.389   1.605   4.085  0.4825 -0.8666 -0.3253
   37CHL1  H18B 2693   1.393   1.447   4.008 -2.7606 -2.0831 -0.7249
   37CHL1  H18C 2694   1.356   1.593   3.906 -0.6142 -2.1728 -1.3016
   37CHL1   C12 2695   1.143   1.411   3.945  0.2492  0.0044  0.2671
   37CHL1  H12A 2696   1.216   1.328   3.937  1.2250  0.9158 -0.6269
   37CHL1  H12B 2697   1.053   1.362   3.987  0.4675 -0.6404 -0.0010
   37CHL1   C11 2698   1.124   1.451   3.796  0.7702  0.2500  0.1068
   37CHL1  H11A 2699   1.228   1.462   3.757  0.6782 -0.0588 -0.2349
   37CHL1  H11B 2700   1.080   1.370   3.733 -1.0417  0.2369  1.3414
   37CHL1    C9 2701   1.045   1.585   3.775 -0.5768  0.4354  0.0973
   37CHL1    H9 2702   0.944   1.570   3.819 -1.5695  1.0823 -1.8144
   37CHL1   C10 2703   1.039   1.624   3.622 -0.4792  0.6700  0.1741
   37CHL1   C19 2704   1.175   1.600   3.550  0.0361 -0.0683 -0.0187
   37CHL1  H19A 2705   1.227   1.502   3.560 -0.7132 -0.7054 -1.7919
   37CHL1  H19B 2706   1.161   1.628   3.443  0.0683  1.1706  0.2975
   37CHL1  H19C 2707   1.240   1.681   3.589 -1.1955  1.2069 -0.5289
   37CHL1    C1 2708   0.930   1.539   3.551 -0.5620  0.4943  0.0701
   37CHL1   H1A 2709   0.956   1.433   3.532 -3.4344 -0.0658 -1.3179
   37CHL1   H1B 2710   0.836   1.530   3.610 -1.1964 -0.0752 -0.9920
   37CHL1    C2 2711   0.904   1.586   3.403  0.5333 -0.0796 -0.2743
   37CHL1   H2A 2712   0.822   1.524   3.361 -1.2022  1.2363  1.0207
   37CHL1   H2B 2713   0.986   1.563   3.332 -1.6819 -0.0244 -3.0240
   37CHL1   C20 2714   1.273   1.398   4.256 -0.4759  0.1320  0.6989
   37CHL1   H20 2715   1.376   1.411   4.216 -1.0091 -1.0739 -1.1956
   37CHL1   C21 2716   1.234   1.255   4.213  0.3858  0.9763  0.4583
   37CHL1  H21A 2717   1.297   1.174   4.257 -0.7502  0.5756  1.4102
   37CHL1  H21B 2718   1.240   1.243   4.103  0.2046  1.5338  0.3837
   37CHL1  H21C 2719   1.130   1.237   4.248 -0.1716 -0.1839 -1.6229
   37CHL1   C22 2720   1.278   1.415   4.410 -0.4981  0.4359 -0.2564
   37CHL1  H22A 2721   1.349   1.333   4.435  0.1538  0.9703 -0.3284
   37CHL1  H22B 2722   1.311   1.515   4.445 -0.9499  0.3363  0.4834
   37CHL1   C23 2723   1.150   1.382   4.487 -0.3009 -0.2419  0.0695
   37CHL1  H23A 2724   1.076   1.465   4.476  0.8790  1.2808  2.6866
   37CHL1  H23B 2725   1.106   1.287   4.449  0.7284 -1.4328  1.7674
   37CHL1   C24 2726   1.192   1.387   4.633  0.0927 -0.1940 -0.5129
   37CHL1  H24A 2727   1.270   1.466   4.643  0.4204 -0.1991 -2.5845
   37CHL1  H24B 2728   1.107   1.424   4.695  0.9805  1.0523  0.0025
   37CHL1   C25 2729   1.224   1.255   4.702 -0.2528 -0.2548 -0.4460
   37CHL1   H25 2730   1.314   1.209   4.656 -1.0842 -2.7345  0.1983
   37CHL1   C26 2731   1.265   1.274   4.846  0.1024 -0.2686  0.1313
   37CHL1  H26A 2732   1.176   1.305   4.904 -0.8299 -1.7116 -0.4607
   37CHL1  H26B 2733   1.324   1.190   4.889  1.1777 -0.0330 -0.8341
   37CHL1  H26C 2734   1.337   1.358   4.843  0.0767 -0.1495  1.8200
   37CHL1   C27 2735   1.103   1.162   4.680  0.2078  0.7398  0.2900
   37CHL1  H27A 2736   1.118   1.074   4.746 -1.2183 -0.6072 -1.1006
   37CHL1  H27B 2737   1.012   1.214   4.717 -0.7464  0.5105 -1.6258
   37CHL1  H27C 2738   1.092   1.133   4.574 -2.5412  2.0460  0.1424
   38CHL1    C3 2739   1.748   1.783   3.220 -0.1564  0.3389 -0.3311
   38CHL1    H3 2740   1.701   1.869   3.273 -0.8596 -0.6376  0.6796
   38CHL1    O3 2741   1.770   1.810   3.081 -0.5905  0.1690 -0.1457
   38CHL1   H3' 2742   1.738   1.735   3.030 -1.1815  0.0200  0.4401
   38CHL1    C4 2743   1.880   1.762   3.296 -0.5942 -0.7846  0.6525
   38CHL1   H4A 2744   1.956   1.692   3.254  1.6193  1.2025  1.1655
   38CHL1   H4B 2745   1.936   1.857   3.285  0.1354 -1.3206 -0.3980
   38CHL1    C5 2746   1.870   1.725   3.441  0.2777  0.2402 -0.6145
   38CHL1    C6 2747   1.917   1.804   3.541  0.4389  0.3033  0.3410
   38CHL1    H6 2748   1.979   1.894   3.528  1.8118 -0.8412 -1.5280
   38CHL1    C7 2749   1.898   1.764   3.689 -0.0932 -0.4197  0.3876
   38CHL1   H7A 2750   1.999   1.782   3.732  1.5447 -0.3145 -3.1873
   38CHL1   H7B 2751   1.832   1.836   3.743  2.7444  1.6269  1.3950
   38CHL1    C8 2752   1.855   1.616   3.706  0.7956 -0.4685 -0.2759
   38CHL1    H8 2753   1.946   1.554   3.692  1.2066 -0.4201  1.8515
   38CHL1   C14 2754   1.800   1.594   3.854 -0.3423  0.1757  0.8484
   38CHL1   H14 2755   1.699   1.639   3.842  1.3010  4.0637  0.0256
   38CHL1   C15 2756   1.877   1.652   3.972 -0.5552  0.8683  0.2197
   38CHL1  H15A 2757   1.987   1.640   3.961 -0.6161  1.4318 -1.2109
   38CHL1  H15B 2758   1.863   1.763   3.970 -0.1815  0.9223  0.6298
   38CHL1   C16 2759   1.826   1.577   4.092  0.4408  0.0323  0.5182
   38CHL1  H16A 2760   1.917   1.533   4.137 -0.1423 -0.4604  1.2303
   38CHL1  H16B 2761   1.771   1.643   4.162 -0.6244 -1.8864  1.5573
   38CHL1   C17 2762   1.729   1.467   4.038 -0.0158 -0.0136  0.2167
   38CHL1   H17 2763   1.632   1.521   4.030 -1.4383 -2.6079 -1.5459
   38CHL1   C13 2764   1.769   1.445   3.886  0.2052 -0.6862 -0.8453
   38CHL1   C18 2765   1.904   1.363   3.889 -0.0874 -0.2825  0.4004
   38CHL1  H18A 2766   1.936   1.346   3.784 -0.5727 -1.0333  0.3704
   38CHL1  H18B 2767   1.985   1.417   3.942 -1.2104  0.5095  1.3538
   38CHL1  H18C 2768   1.884   1.263   3.935  1.2824 -2.0377 -2.5264
   38CHL1   C12 2769   1.667   1.398   3.784  0.5462  0.8889 -0.6717
   38CHL1  H12A 2770   1.635   1.292   3.787 -0.0681  1.0352 -1.5318
   38CHL1  H12B 2771   1.574   1.458   3.799  1.2841  1.5966  1.5211
   38CHL1   C11 2772   1.704   1.423   3.639  0.3928 -0.1071  0.5839
   38CHL1  H11A 2773   1.777   1.344   3.611  0.3999 -0.3128  1.1660
   38CHL1  H11B 2774   1.615   1.399   3.577  1.0996  0.2781 -0.6118
   38CHL1    C9 2775   1.750   1.567   3.604 -0.0716  0.1479  0.0198
   38CHL1    H9 2776   1.660   1.630   3.621 -0.2739  0.5622 -2.2608
   38CHL1   C10 2777   1.789   1.593   3.455  0.5185 -0.0796  0.9053
   38CHL1   C19 2778   1.868   1.470   3.404 -0.1442  0.0462 -0.3417
   38CHL1  H19A 2779   1.810   1.376   3.399  2.1451 -1.4198 -0.6635
   38CHL1  H19B 2780   1.915   1.493   3.306 -3.0549  4.3935 -1.0203
   38CHL1  H19C 2781   1.944   1.453   3.484  0.6276  0.7925 -0.8905
   38CHL1    C1 2782   1.650   1.603   3.381 -0.6138 -0.0794 -0.4557
   38CHL1   H1A 2783   1.602   1.503   3.375  3.5573 -2.3378 -0.3960
   38CHL1   H1B 2784   1.588   1.678   3.432  2.8944  3.7011 -1.1867
   38CHL1    C2 2785   1.666   1.655   3.234  0.0951  0.1296  0.1740
   38CHL1   H2A 2786   1.563   1.673   3.195 -0.1258 -1.9729 -0.3560
   38CHL1   H2B 2787   1.701   1.574   3.167 -1.5144 -0.5847  0.1575
   38CHL1   C20 2788   1.721   1.348   4.134  0.4623 -0.2101 -0.3474
   38CHL1   H20 2789   1.820   1.298   4.146  2.5714  3.3573 -1.3741
   38CHL1   C21 2790   1.622   1.241   4.081 -0.2849 -0.4557  0.0008
   38CHL1  H21A 2791   1.644   1.214   3.976 -0.0770  0.3168 -0.1641
   38CHL1  H21B 2792   1.516   1.275   4.090 -0.1011  0.3346 -0.6763
   38CHL1  H21C 2793   1.651   1.147   4.131  2.7672  0.3682 -0.0413
   38CHL1   C22 2794   1.688   1.397   4.278  0.1663  0.3327  0.4570
   38CHL1  H22A 2795   1.775   1.459   4.311  0.3066 -0.2775  1.2637
   38CHL1  H22B 2796   1.592   1.453   4.274 -0.5017 -0.8508 -1.0661
   38CHL1   C23 2797   1.675   1.274   4.368 -0.1675  0.2308  0.2127
   38CHL1  H23A 2798   1.579   1.220   4.353  0.3853 -1.2178  1.5699
   38CHL1  H23B 2799   1.758   1.204   4.348  1.1831  1.8703 -0.1683
   38CHL1   C24 2800   1.678   1.320   4.518  0.4931 -0.2530  0.2046
   38CHL1  H24A 2801   1.783   1.350   4.536  0.5633 -0.8887  0.9238
   38CHL1  H24B 2802   1.603   1.395   4.552 -2.0028 -2.2776 -0.4832
   38CHL1   C25 2803   1.642   1.211   4.624  0.7657  0.0718 -0.0330
   38CHL1   H25 2804   1.542   1.173   4.594  0.0807  1.6394  0.1712
   38CHL1   C26 2805   1.738   1.100   4.607 -0.4894 -0.7712  0.4533
   38CHL1  H26A 2806   1.743   1.075   4.499  2.1374  1.5145 -0.0591
   38CHL1  H26B 2807   1.845   1.123   4.626 -0.9777 -0.2143  2.7532
   38CHL1  H26C 2808   1.703   1.019   4.675 -3.9876  0.4882  0.3669
   38CHL1   C27 2809   1.644   1.273   4.771 -0.2762  0.2132  0.6331
   38CHL1  H27A 2810   1.751   1.297   4.788  0.8126 -2.9600 -0.7992
   38CHL1  H27B 2811   1.572   1.358   4.778 -0.5292  0.4220 -2.6211
   38CHL1  H27C 2812   1.614   1.202   4.851 -0.9118  0.7817  0.9058
   39CHL1    C3 2813   3.315   2.198   3.336 -0.8405 -0.5356  0.1939
   39CHL1    H3 2814   3.211   2.207   3.375 -1.8216  1.0575 -2.5113
   39CHL1    O3 2815   3.320   2.203   3.194 -0.3903 -0.3607 -0.3357
   39CHL1   H3' 2816   3.395   2.145   3.176 -1.0593 -1.0811 -0.8780
   39CHL1    C4 2817   3.402   2.306   3.412  0.1032  0.6698 -0.3187
   39CHL1   H4A 2818   3.506   2.300   3.373 -0.0308 -0.2281 -0.5636
   39CHL1   H4B 2819   3.359   2.404   3.381 -0.8709  0.2322 -0.3822
   39CHL1    C5 2820   3.413   2.293   3.562 -0.3082 -0.0638 -0.3208
   39CHL1    C6 2821   3.369   2.386   3.642 -0.5069 -0.2582 -0.1057
   39CHL1    H6 2822   3.326   2.478   3.600  1.1705  0.9927  0.7706
   39CHL1    C7 2823   3.369   2.372   3.791 -0.0760  0.1873  0.4019
   39CHL1   H7A 2824   3.399   2.471   3.833  0.2460  1.0511 -1.6989
   39CHL1   H7B 2825   3.262   2.356   3.818 -0.5253  1.0810 -0.7368
   39CHL1    C8 2826   3.454   2.252   3.844  0.2971 -0.6565  0.3355
   39CHL1    H8 2827   3.559   2.289   3.846 -0.3632  1.3111  0.7543
   39CHL1   C14 2828   3.413   2.222   3.988 -0.4067 -0.0415  0.4199
   39CHL1   H14 2829   3.309   2.182   3.987 -0.4098 -0.1758  2.0740
   39CHL1   C15 2830   3.399   2.345   4.080 -0.0357  0.1830  0.0332
   39CHL1  H15A 2831   3.490   2.407   4.064 -0.4912  1.6546  2.5846
   39CHL1  H15B 2832   3.301   2.396   4.066 -1.1321 -1.5640  1.0033
   39CHL1   C16 2833   3.413   2.274   4.217  0.1422 -0.2668  0.3803
   39CHL1  H16A 2834   3.501   2.321   4.267  0.3465  2.0914 -1.9923
   39CHL1  H16B 2835   3.321   2.277   4.279 -1.3870 -0.1458 -1.7622
   39CHL1   C17 2836   3.438   2.121   4.193 -0.9755 -0.0392  0.2366
   39CHL1   H17 2837   3.342   2.066   4.192 -0.3735 -1.1573  1.6100
   39CHL1   C13 2838   3.503   2.116   4.056 -0.6954 -0.3070  0.0759
   39CHL1   C18 2839   3.654   2.169   4.062  0.4873 -0.5751  0.2926
   39CHL1  H18A 2840   3.676   2.234   4.150 -1.5607 -0.2030  0.5998
   39CHL1  H18B 2841   3.717   2.080   4.083  0.9791 -0.5850 -1.1398
   39CHL1  H18C 2842   3.690   2.201   3.962 -1.8005 -3.8351 -1.7577
   39CHL1   C12 2843   3.489   1.993   3.969  0.0545  0.0848  1.2176
   39CHL1  H12A 2844   3.568   1.928   4.012  1.2502  0.0312 -0.9426
   39CHL1  H12B 2845   3.384   1.956   3.975 -0.4592  1.5614  1.7904
   39CHL1   C11 2846   3.525   2.013   3.823 -0.3529  0.0835 -0.2810
   39CHL1  H11A 2847   3.626   2.060   3.823 -0.5556  0.5869  1.3705
   39CHL1  H11B 2848   3.525   1.922   3.759  0.4722 -0.5184  0.5404
   39CHL1    C9 2849   3.438   2.128   3.761 -0.5555  0.8474 -0.1232
   39CHL1    H9 2850   3.330   2.099   3.759 -0.2969 -0.3222  1.0113
   39CHL1   C10 2851   3.463   2.152   3.609 -0.5718  0.0088 -0.2742
   39CHL1   C19 2852   3.616   2.131   3.578 -0.9336 -0.4655  0.0530
   39CHL1  H19A 2853   3.639   2.023   3.589 -0.9582 -1.0716 -4.2732
   39CHL1  H19B 2854   3.640   2.157   3.473  3.4933 -0.8229  0.7935
   39CHL1  H19C 2855   3.683   2.194   3.642 -2.5775  1.1963  0.2231
   39CHL1    C1 2856   3.388   2.047   3.529  0.1408  1.1662 -0.5636
   39CHL1   H1A 2857   3.443   1.952   3.545 -2.4692 -0.4328 -0.5024
   39CHL1   H1B 2858   3.285   2.029   3.566  0.5936 -0.0321  0.1333
   39CHL1    C2 2859   3.380   2.063   3.371  0.0739 -0.2701 -0.4376
   39CHL1   H2A 2860   3.327   1.971   3.339  0.0861 -0.4330 -0.0037
   39CHL1   H2B 2861   3.486   2.054   3.341  0.4036  0.8014  0.3525
   39CHL1   C20 2862   3.517   2.063   4.313  0.8099 -0.4977  0.1255
   39CHL1   H20 2863   3.617   2.111   4.308  0.0379  1.2468  0.6894
   39CHL1   C21 2864   3.527   1.913   4.304  0.6498 -0.3672 -0.2900
   39CHL1  H21A 2865   3.579   1.883   4.397 -0.3211 -0.2309  0.3159
   39CHL1  H21B 2866   3.577   1.880   4.211 -1.3272  1.9151 -2.2976
   39CHL1  H21C 2867   3.424   1.872   4.297 -0.0905  1.4767 -0.8713
   39CHL1   C22 2868   3.440   2.101   4.445 -0.9240 -0.0063 -0.4141
   39CHL1  H22A 2869   3.443   2.212   4.450  1.0932 -0.0423 -0.0235
   39CHL1  H22B 2870   3.333   2.071   4.432 -1.4957 -0.2595  3.6143
   39CHL1   C23 2871   3.490   2.044   4.586  0.2287  0.1695 -0.2869
   39CHL1  H23A 2872   3.411   2.057   4.664 -0.0078  2.3762 -0.8416
   39CHL1  H23B 2873   3.507   1.934   4.577 -4.0004 -0.5701 -1.7958
   39CHL1   C24 2874   3.619   2.115   4.638  0.0007  0.3964  0.1230
   39CHL1  H24A 2875   3.689   2.102   4.553  1.1767  0.9199  0.9713
   39CHL1  H24B 2876   3.603   2.225   4.644  0.1028  0.4912 -1.2325
   39CHL1   C25 2877   3.666   2.087   4.785 -0.2301  0.1504 -0.2470
   39CHL1   H25 2878   3.591   2.130   4.854  0.0220  0.0405  0.0986
   39CHL1   C26 2879   3.687   1.934   4.819 -0.2290  0.1428  0.8094
   39CHL1  H26A 2880   3.749   1.898   4.734 -0.8504  1.4061 -0.2237
   39CHL1  H26B 2881   3.734   1.910   4.917  0.3904 -0.5900  0.3417
   39CHL1  H26C 2882   3.587   1.889   4.809  0.6944 -1.7198 -0.6948
   39CHL1   C27 2883   3.803   2.153   4.814 -0.3444 -0.6026 -0.3534
   39CHL1  H27A 2884   3.851   2.133   4.912 -1.4164 -3.4179 -0.3429
   39CHL1  H27B 2885   3.875   2.115   4.738  0.8591 -0.5191  0.7141
   39CHL1  H27C 2886   3.798   2.263   4.797 -2.5224 -0.5857  0.1292
   40CHL1    C3 2887   1.281   2.077   3.266 -0.3427  0.1469 -0.1846
   40CHL1    H3 2888   1.174   2.093   3.290  0.0988  1.0923  1.2643
   40CHL1    O3 2889   1.281   2.085   3.128 -0.6007  0.4124  0.3686
   40CHL1   H3' 2890   1.195   2.050   3.105 -0.8560  2.5493 -2.4678
   40CHL1    C4 2891   1.359   2.195   3.323  0.7897 -0.1421 -0.5229
   40CHL1   H4A 2892   1.462   2.189   3.282  0.2833  0.1502 -1.9139
   40CHL1   H4B 2893   1.315   2.289   3.284  1.5776  0.2577 -0.4602
   40CHL1    C5 2894   1.366   2.177   3.476 -0.2157  0.1623  0.5667
   40CHL1    C6 2895   1.329   2.280   3.559 -0.6178 -0.2635 -0.1397
   40CHL1    H6 2896   1.287   2.374   3.522  1.0154  1.0527  1.1884
   40CHL1    C7 2897   1.330   2.267   3.711 -0.3173 -0.3550 -0.6319
   40CHL1   H7A 2898   1.363   2.361   3.761 -0.3293 -1.3520  1.3550
   40CHL1   H7B 2899   1.229   2.242   3.750 -0.0263  0.3293  0.6106
   40CHL1    C8 2900   1.431   2.151   3.753  0.0068 -0.3459 -0.0697
   40CHL1    H8 2901   1.532   2.183   3.720 -0.3100 -1.3597 -2.1948
   40CHL1   C14 2902   1.422   2.133   3.906  0.2856 -0.1325  0.1873
   40CHL1   H14 2903   1.318   2.101   3.926  0.7963 -2.8976 -1.0824
   40CHL1   C15 2904   1.444   2.260   3.992 -0.3412  0.5871 -0.6548
   40CHL1  H15A 2905   1.535   2.312   3.954  0.3584  0.0913  0.2896
   40CHL1  H15B 2906   1.362   2.334   3.987 -3.3740 -2.2634  2.0865
   40CHL1   C16 2907   1.476   2.198   4.129 -0.2302 -0.8907 -0.3428
   40CHL1  H16A 2908   1.570   2.241   4.169 -2.4646  1.5148  2.9657
   40CHL1  H16B 2909   1.390   2.229   4.193 -1.5224 -0.2595 -2.2963
   40CHL1   C17 2910   1.487   2.046   4.113 -0.0681  1.2682 -0.3784
   40CHL1   H17 2911   1.386   2.009   4.138  0.7171 -2.6172 -2.1658
   40CHL1   C13 2912   1.512   2.021   3.963  0.0964 -0.6170 -0.5124
   40CHL1   C18 2913   1.664   2.045   3.937 -0.1981 -0.0779  0.6868
   40CHL1  H18A 2914   1.727   1.974   3.995  0.5050 -0.1123 -0.1072
   40CHL1  H18B 2915   1.694   2.043   3.830  2.5971  1.5110  1.3364
   40CHL1  H18C 2916   1.698   2.147   3.969  0.5896  0.0000 -0.3494
   40CHL1   C12 2917   1.469   1.890   3.895  1.0714  0.2536 -0.4180
   40CHL1  H12A 2918   1.521   1.796   3.922  0.9502  0.6869  1.4770
   40CHL1  H12B 2919   1.365   1.864   3.924  1.8199 -1.3005  1.0218
   40CHL1   C11 2920   1.476   1.902   3.743 -0.1358  0.2113 -0.3196
   40CHL1  H11A 2921   1.585   1.915   3.726  0.1864 -0.4903  1.0554
   40CHL1  H11B 2922   1.448   1.808   3.690 -0.6096  1.4344 -2.3395
   40CHL1    C9 2923   1.398   2.022   3.683 -0.4581 -0.3538  0.1436
   40CHL1    H9 2924   1.291   1.994   3.699 -0.9355  0.2488 -1.7220
   40CHL1   C10 2925   1.417   2.037   3.528  0.7943 -0.0680  0.1743
   40CHL1   C19 2926   1.563   2.010   3.486 -0.4635 -0.4073  0.1774
   40CHL1  H19A 2927   1.567   2.015   3.375 -0.4298  0.0457  0.1982
   40CHL1  H19B 2928   1.629   2.091   3.522  0.2148 -0.0781 -1.6551
   40CHL1  H19C 2929   1.606   1.911   3.514  1.3133  0.4364  0.5886
   40CHL1    C1 2930   1.335   1.924   3.456  0.1220  0.3591 -0.0197
   40CHL1   H1A 2931   1.360   1.818   3.477 -1.2855 -0.2661 -1.2388
   40CHL1   H1B 2932   1.229   1.936   3.489 -0.2102 -2.8880  0.4091
   40CHL1    C2 2933   1.334   1.936   3.305  0.6446 -0.0511 -0.4628
   40CHL1   H2A 2934   1.263   1.865   3.259  2.0332 -1.9483  0.1541
   40CHL1   H2B 2935   1.424   1.894   3.255  1.2459 -1.5019  1.6568
   40CHL1   C20 2936   1.586   1.979   4.209 -0.4964  0.2971 -0.7911
   40CHL1   H20 2937   1.682   2.033   4.200 -0.3301  0.4199  1.3442
   40CHL1   C21 2938   1.582   1.825   4.192 -0.3648  0.2218 -0.6285
   40CHL1  H21A 2939   1.476   1.791   4.189  0.2236 -2.3251  2.2825
   40CHL1  H21B 2940   1.633   1.768   4.272 -0.2780 -0.2083 -0.9871
   40CHL1  H21C 2941   1.623   1.785   4.097 -1.1658 -2.7405  0.1761
   40CHL1   C22 2942   1.546   2.003   4.358 -0.1120 -0.1834 -0.2844
   40CHL1  H22A 2943   1.629   1.954   4.413  0.4518  0.0843 -0.8853
   40CHL1  H22B 2944   1.558   2.111   4.385  0.5627 -0.5328  0.9177
   40CHL1   C23 2945   1.409   1.956   4.406 -0.7018  0.4746  0.3882
   40CHL1  H23A 2946   1.338   2.025   4.357  0.5066  0.3282 -1.7083
   40CHL1  H23B 2947   1.391   1.850   4.378  1.3719 -0.1791  1.3142
   40CHL1   C24 2948   1.390   1.961   4.557 -0.5037 -0.1690 -0.3043
   40CHL1  H24A 2949   1.436   1.867   4.596  2.0597  0.4743 -1.5415
   40CHL1  H24B 2950   1.439   2.053   4.595 -1.6306  1.1935 -2.0055
   40CHL1   C25 2951   1.249   1.969   4.614  0.0503 -0.4650  0.2732
   40CHL1   H25 2952   1.265   1.984   4.723 -0.9659  1.6367  0.1935
   40CHL1   C26 2953   1.168   2.084   4.564  0.9655 -0.4160 -0.0281
   40CHL1  H26A 2954   1.068   2.078   4.612  0.8585  0.9012 -0.0630
   40CHL1  H26B 2955   1.209   2.183   4.589  0.2442 -0.4406  1.3158
   40CHL1  H26C 2956   1.157   2.085   4.453  0.4035 -0.7984  0.0170
   40CHL1   C27 2957   1.177   1.838   4.586 -0.1087 -0.0838 -0.4760
   40CHL1  H27A 2958   1.153   1.828   4.478  1.7209  1.8060 -1.1085
   40CHL1  H27B 2959   1.230   1.744   4.614 -1.0065 -0.4467  0.0605
   40CHL1  H27C 2960   1.083   1.837   4.646 -0.8560 -0.2507 -1.6202
   41CHL1    C3 2961   2.790   5.227   3.171 -0.1787 -0.6657 -0.0880
   41CHL1    H3 2962   2.710   5.290   3.215 -0.2098 -0.5015 -0.3816
   41CHL1    O3 2963   2.776   5.229   3.036  0.4257 -0.7288 -0.4376
   41CHL1   H3' 2964   2.843   5.173   2.995  0.0109 -1.0109 -0.7336
   41CHL1    C4 2965   2.938   5.260   3.215 -0.0578 -0.1826 -0.1913
   41CHL1   H4A 2966   3.003   5.189   3.159  0.8721 -1.0143  1.8519
   41CHL1   H4B 2967   2.962   5.361   3.175  1.6796  0.1717  1.5638
   41CHL1    C5 2968   2.961   5.242   3.360 -0.0707  0.4363 -0.6249
   41CHL1    C6 2969   2.997   5.344   3.441 -0.3145 -0.3198 -0.0991
   41CHL1    H6 2970   3.010   5.441   3.390 -0.8520  0.2999  0.8993
   41CHL1    C7 2971   3.019   5.334   3.591 -0.6053 -0.0414  0.2800
   41CHL1   H7A 2972   3.117   5.381   3.612 -0.7601  0.1841  0.5045
   41CHL1   H7B 2973   2.939   5.375   3.657 -0.6412  1.5214 -0.6946
   41CHL1    C8 2974   3.035   5.188   3.626 -0.0791  0.2562 -0.5947
   41CHL1    H8 2975   3.133   5.155   3.584 -0.3208  0.2461 -1.1525
   41CHL1   C14 2976   3.023   5.175   3.777 -0.2365  0.2181 -0.4492
   41CHL1   H14 2977   2.924   5.213   3.811 -0.1188  0.2482 -0.1357
   41CHL1   C15 2978   3.114   5.267   3.856 -0.4766 -0.2158 -0.7886
   41CHL1  H15A 2979   3.217   5.280   3.817  0.0992  0.3251  0.8457
   41CHL1  H15B 2980   3.062   5.365   3.848  0.4423  0.1573 -2.5869
   41CHL1   C16 2981   3.106   5.210   3.998  0.6211  0.4154  0.3984
   41CHL1  H16A 2982   3.210   5.177   4.018  0.4286 -1.8511 -1.8174
   41CHL1  H16B 2983   3.077   5.288   4.072 -0.6683 -0.3046  0.6815
   41CHL1   C17 2984   3.015   5.082   3.990 -0.4718  0.2988 -0.1810
   41CHL1   H17 2985   2.914   5.121   4.015 -0.7124 -0.7397  0.5012
   41CHL1   C13 2986   3.026   5.039   3.841 -0.8149 -0.7348  0.4350
   41CHL1   C18 2987   3.162   4.973   3.827  0.7688  0.1126 -0.5142
   41CHL1  H18A 2988   3.231   5.009   3.907 -0.9127 -1.0411  1.5523
   41CHL1  H18B 2989   3.149   4.863   3.831  0.8301  0.1385  0.8482
   41CHL1  H18C 2990   3.206   4.997   3.727 -1.1535  3.1886 -0.7547
   41CHL1   C12 2991   2.907   4.968   3.785  0.3226  0.0113 -0.2031
   41CHL1  H12A 2992   2.894   4.864   3.823  2.9152 -0.2293  0.2401
   41CHL1  H12B 2993   2.818   5.034   3.792  1.5766  1.6060  3.0166
   41CHL1   C11 2994   2.918   4.957   3.634 -0.2610  0.6657 -0.2361
   41CHL1  H11A 2995   3.012   4.902   3.613 -0.4335  0.8009 -1.4148
   41CHL1  H11B 2996   2.830   4.900   3.597  0.1720 -1.3591  1.6189
   41CHL1    C9 2997   2.930   5.096   3.568  0.5299 -0.3204 -0.5399
   41CHL1    H9 2998   2.832   5.136   3.601  0.4639 -0.7336 -0.2306
   41CHL1   C10 2999   2.935   5.103   3.422 -0.1021 -0.1869  0.8574
   41CHL1   C19 3000   3.045   5.012   3.362 -0.1089 -0.3510  0.0708
   41CHL1  H19A 3001   3.141   5.043   3.409 -1.0320  0.3333  1.5675
   41CHL1  H19B 3002   3.018   4.906   3.384 -0.7087 -0.4248 -0.9604
   41CHL1  H19C 3003   3.054   5.023   3.252  0.2324  1.3073  0.2465
   41CHL1    C1 3004   2.802   5.057   3.360  0.7643  0.6074  0.2930
   41CHL1   H1A 3005   2.789   4.948   3.379  0.7381  0.3471 -1.0791
   41CHL1   H1B 3006   2.717   5.109   3.408  1.2527  1.1710  0.5471
   41CHL1    C2 3007   2.768   5.076   3.209 -0.1685 -0.0222 -0.4860
   41CHL1   H2A 3008   2.660   5.049   3.204 -0.2367  0.2839 -0.6548
   41CHL1   H2B 3009   2.831   5.020   3.136  0.1995  0.0440 -0.2162
   41CHL1   C20 3010   3.057   4.984   4.102 -0.1902 -0.0524 -0.0486
   41CHL1   H20 3011   3.166   4.968   4.098 -0.2452 -0.1746 -1.1237
   41CHL1   C21 3012   2.997   4.841   4.071 -0.2323 -0.0677 -0.1249
   41CHL1  H21A 3013   3.042   4.773   4.147  0.3391  0.0292 -0.3732
   41CHL1  H21B 3014   3.024   4.800   3.971 -0.2671 -0.4201  0.0077
   41CHL1  H21C 3015   2.886   4.848   4.073 -0.4335 -1.7720 -1.9331
   41CHL1   C22 3016   3.027   5.037   4.246 -0.1978 -0.3659 -0.3395
   41CHL1  H22A 3017   3.099   5.118   4.269 -1.1170 -0.0721  1.7125
   41CHL1  H22B 3018   2.922   5.072   4.255  0.2339  1.0246 -0.5566
   41CHL1   C23 3019   3.062   4.927   4.348 -0.2716  0.4053  0.2091
   41CHL1  H23A 3020   2.989   4.844   4.339  1.1593 -0.9288  0.4850
   41CHL1  H23B 3021   3.156   4.873   4.325 -0.8394 -0.7457  0.4903
   41CHL1   C24 3022   3.064   4.983   4.492  0.2934  0.4168 -0.3300
   41CHL1  H24A 3023   3.147   5.054   4.510  0.7678  0.1647 -1.4105
   41CHL1  H24B 3024   2.969   5.041   4.497 -0.9336 -1.4255 -0.8503
   41CHL1   C25 3025   3.052   4.880   4.601  1.3467 -0.0279 -0.3569
   41CHL1   H25 3026   2.975   4.805   4.572 -0.7632  1.3812  1.2767
   41CHL1   C26 3027   3.190   4.809   4.619  0.0454  0.2131 -0.4851
   41CHL1  H26A 3028   3.267   4.887   4.629 -2.5426  3.1166 -1.5690
   41CHL1  H26B 3029   3.195   4.743   4.709  0.3483  0.2885 -0.4479
   41CHL1  H26C 3030   3.215   4.759   4.523  1.1094 -0.3514  0.0687
   41CHL1   C27 3031   2.996   4.948   4.734 -0.0088 -0.0296  0.0570
   41CHL1  H27A 3032   3.051   5.040   4.762  1.8568 -1.3505  0.9027
   41CHL1  H27B 3033   2.887   4.969   4.722  0.0130  0.4446  0.6519
   41CHL1  H27C 3034   2.986   4.885   4.825 -0.9060 -0.6415 -0.4354
   42CHL1    C3 3035   6.537   3.117   3.093 -0.2851  0.4794  0.6676
   42CHL1    H3 3036   6.615   3.187   3.129 -0.2343  1.5308 -1.3132
   42CHL1    O3 3037   6.558   3.098   2.950  0.1999  0.2521  0.2930
   42CHL1   H3' 3038   6.584   3.006   2.947  1.5636  0.6266  0.0718
   42CHL1    C4 3039   6.554   2.987   3.172 -0.0303 -0.0183  0.6406
   42CHL1   H4A 3040   6.494   2.905   3.126  0.0712 -0.8849  1.9908
   42CHL1   H4B 3041   6.663   2.963   3.178  0.0092  0.3478  1.4405
   42CHL1    C5 3042   6.496   2.978   3.313  0.2190  0.1466  0.2308
   42CHL1    C6 3043   6.564   2.955   3.421 -0.7309  0.1322  0.0807
   42CHL1    H6 3044   6.669   2.928   3.409 -1.6572 -2.9499 -2.5471
   42CHL1    C7 3045   6.526   2.936   3.564  0.3469 -0.8273  0.0991
   42CHL1   H7A 3046   6.563   2.845   3.615 -0.9145 -1.4257  0.0036
   42CHL1   H7B 3047   6.556   3.022   3.627 -0.1791 -0.5536 -0.0210
   42CHL1    C8 3048   6.370   2.936   3.572 -0.0800  0.4065 -0.3812
   42CHL1    H8 3049   6.348   2.833   3.537 -0.0813  0.7352 -1.3679
   42CHL1   C14 3050   6.328   2.963   3.717  1.0317  0.2991 -0.0180
   42CHL1   H14 3051   6.362   3.064   3.749 -0.2771  0.6448  0.3463
   42CHL1   C15 3052   6.381   2.855   3.818  0.1731  0.0916 -0.6935
   42CHL1  H15A 3053   6.377   2.757   3.766  1.1967  1.2125 -3.0422
   42CHL1  H15B 3054   6.484   2.880   3.852  0.3797 -1.1535 -0.3862
   42CHL1   C16 3055   6.277   2.878   3.936 -0.0597  0.5024 -0.0202
   42CHL1  H16A 3056   6.232   2.780   3.962 -0.2442  0.7708  0.7007
   42CHL1  H16B 3057   6.336   2.915   4.023 -0.2278 -0.2175  0.4058
   42CHL1   C17 3058   6.158   2.960   3.885  0.2913 -0.4440 -0.0694
   42CHL1   H17 3059   6.187   3.066   3.900  0.1014 -0.4174  0.1213
   42CHL1   C13 3060   6.178   2.957   3.734  0.3846 -0.6103  0.2811
   42CHL1   C18 3061   6.126   2.821   3.680  0.4445  0.3471  0.5203
   42CHL1  H18A 3062   6.015   2.818   3.678  0.4910 -1.4983 -1.3895
   42CHL1  H18B 3063   6.138   2.796   3.573 -1.4791 -0.3920  0.4304
   42CHL1  H18C 3064   6.150   2.737   3.748 -0.1842 -1.3311 -1.2564
   42CHL1   C12 3065   6.113   3.064   3.643 -0.3387 -0.1707 -0.4001
   42CHL1  H12A 3066   6.002   3.064   3.648 -0.3321 -0.6018 -0.2396
   42CHL1  H12B 3067   6.142   3.163   3.685  0.2388 -0.7742  0.6710
   42CHL1   C11 3068   6.157   3.058   3.493  0.5372  0.5653 -0.4080
   42CHL1  H11A 3069   6.110   2.964   3.457 -2.9581  1.0504  2.3745
   42CHL1  H11B 3070   6.115   3.145   3.438 -3.3401 -0.2686  0.9574
   42CHL1    C9 3071   6.310   3.039   3.477 -0.3161 -0.4467  0.7411
   42CHL1    H9 3072   6.354   3.133   3.518  0.8940 -0.6606 -0.0302
   42CHL1   C10 3073   6.352   3.024   3.325 -0.9876 -0.8045  0.3596
   42CHL1   C19 3074   6.268   2.924   3.256  0.3313  0.4331  0.3555
   42CHL1  H19A 3075   6.294   2.890   3.153 -1.7746 -1.9269  0.4882
   42CHL1  H19B 3076   6.258   2.834   3.321 -3.4746 -1.3894 -2.3434
   42CHL1  H19C 3077   6.169   2.973   3.243  0.5126  0.4726 -1.1005
   42CHL1    C1 3078   6.349   3.169   3.252 -0.8844 -0.6346  0.2794
   42CHL1   H1A 3079   6.245   3.207   3.255 -0.6134  0.1071  0.6286
   42CHL1   H1B 3080   6.403   3.236   3.323 -1.1715 -1.1396  0.9915
   42CHL1    C2 3081   6.394   3.173   3.105  0.3823  0.9222  0.5934
   42CHL1   H2A 3082   6.380   3.279   3.077 -0.9197  0.8713  1.0242
   42CHL1   H2B 3083   6.315   3.117   3.051  0.8978 -1.1083  1.8042
   42CHL1   C20 3084   6.022   2.926   3.950  0.3635 -0.0250  0.8892
   42CHL1   H20 3085   5.997   2.828   3.906  2.4180 -0.4728  0.5921
   42CHL1   C21 3086   5.915   3.030   3.908  0.3652 -0.2167 -0.0964
   42CHL1  H21A 3087   5.820   3.004   3.960 -0.0476  0.3311 -0.5553
   42CHL1  H21B 3088   5.879   3.026   3.803 -1.1480  2.1873  0.2440
   42CHL1  H21C 3089   5.936   3.137   3.931 -1.3295  0.2772 -0.6723
   42CHL1   C22 3090   6.021   2.920   4.109 -0.6077  0.4116 -0.2296
   42CHL1  H22A 3091   6.103   2.854   4.143 -1.9659 -0.2866  1.8931
   42CHL1  H22B 3092   6.050   3.020   4.148  1.1421  0.3149 -1.1608
   42CHL1   C23 3093   5.904   2.859   4.180  0.8112 -0.0225  0.3964
   42CHL1  H23A 3094   5.822   2.935   4.176 -0.0616 -0.8860  1.3202
   42CHL1  H23B 3095   5.870   2.767   4.128  2.4057 -0.4985  0.1529
   42CHL1   C24 3096   5.927   2.837   4.334  0.1252  0.2543  0.0779
   42CHL1  H24A 3097   6.023   2.783   4.341  0.9307  1.7636  1.5020
   42CHL1  H24B 3098   5.953   2.938   4.372  0.7600  0.3005 -0.4716
   42CHL1   C25 3099   5.807   2.772   4.419 -0.3114 -0.1162  0.3246
   42CHL1   H25 3100   5.795   2.671   4.373 -2.4725 -0.0199  0.6039
   42CHL1   C26 3101   5.848   2.762   4.563 -1.1057  0.0207 -0.2985
   42CHL1  H26A 3102   5.956   2.741   4.578 -1.2253  0.4222  1.3332
   42CHL1  H26B 3103   5.844   2.861   4.614  3.5253 -0.5812  1.7668
   42CHL1  H26C 3104   5.778   2.686   4.604 -1.4646 -0.6206 -1.9834
   42CHL1   C27 3105   5.677   2.851   4.415  0.2578 -0.2022  0.3663
   42CHL1  H27A 3106   5.688   2.946   4.471 -0.0525  1.3501 -2.1036
   42CHL1  H27B 3107   5.637   2.878   4.315  1.6617 -3.0816 -1.0976
   42CHL1  H27C 3108   5.598   2.795   4.470 -0.4894  1.3176  0.8751
   43CHL1    C3 3109   2.997   4.611   3.212 -0.6082 -0.0497  0.3023
   43CHL1    H3 3110   3.074   4.683   3.248 -0.8241  0.2022  0.2684
   43CHL1    O3 3111   3.013   4.605   3.065  0.8416 -0.4060 -0.1030
   43CHL1   H3' 3112   2.972   4.683   3.027  1.3237 -1.3488 -2.7141
   43CHL1    C4 3113   3.034   4.481   3.278 -0.6149  0.4811  0.0587
   43CHL1   H4A 3114   2.968   4.404   3.232  0.2591  1.6570 -3.4755
   43CHL1   H4B 3115   3.139   4.450   3.259 -0.2816 -0.3996  2.8504
   43CHL1    C5 3116   3.007   4.479   3.430 -0.0495 -0.5311  0.4597
   43CHL1    C6 3117   3.109   4.460   3.517  0.7327  0.7919 -0.3157
   43CHL1    H6 3118   3.212   4.445   3.482  1.4447  1.0846  1.5003
   43CHL1    C7 3119   3.080   4.466   3.666 -0.2077  0.0909 -0.0531
   43CHL1   H7A 3120   3.131   4.380   3.715 -1.8345 -0.7753  0.1658
   43CHL1   H7B 3121   3.111   4.561   3.715  0.9858 -0.6983  0.8143
   43CHL1    C8 3122   2.932   4.452   3.709 -0.0458 -0.4619  0.6262
   43CHL1    H8 3123   2.899   4.347   3.691 -0.4805  0.0275 -1.7556
   43CHL1   C14 3124   2.922   4.488   3.853  0.3486 -0.0318  0.1003
   43CHL1   H14 3125   2.963   4.590   3.865  1.0393 -0.0796 -1.6054
   43CHL1   C15 3126   3.008   4.406   3.951  0.1341  0.0787  0.4270
   43CHL1  H15A 3127   2.991   4.297   3.935 -1.0714  0.3295 -0.1286
   43CHL1  H15B 3128   3.113   4.437   3.934 -0.2630 -0.5090 -4.5114
   43CHL1   C16 3129   2.941   4.438   4.088 -0.3361  0.2867  0.4174
   43CHL1  H16A 3130   2.902   4.342   4.129 -0.6956  0.6803  1.0199
   43CHL1  H16B 3131   3.015   4.481   4.160  2.6825 -0.6573 -1.9007
   43CHL1   C17 3132   2.807   4.528   4.055  0.1553 -0.0403 -0.2205
   43CHL1   H17 3133   2.846   4.631   4.064 -0.9985  0.3312  0.8098
   43CHL1   C13 3134   2.780   4.491   3.910  0.4970 -0.3907 -0.2991
   43CHL1   C18 3135   2.720   4.354   3.901  0.8012 -0.3189  0.7836
   43CHL1  H18A 3136   2.781   4.270   3.940  2.0775 -1.4542 -3.1050
   43CHL1  H18B 3137   2.631   4.356   3.966 -1.1646  1.5213 -1.7566
   43CHL1  H18C 3138   2.689   4.330   3.797 -2.0117  1.1099  1.2105
   43CHL1   C12 3139   2.701   4.597   3.827 -0.3941 -0.4423  0.4129
   43CHL1  H12A 3140   2.593   4.596   3.853 -0.1304 -0.5914  1.5338
   43CHL1  H12B 3141   2.735   4.703   3.834 -1.5873  0.0169 -0.4596
   43CHL1   C11 3142   2.700   4.563   3.678  0.0416  0.5349  0.5837
   43CHL1  H11A 3143   2.649   4.464   3.672  0.6207  0.2850 -0.3725
   43CHL1  H11B 3144   2.636   4.634   3.622  0.0666  1.8252  2.1118
   43CHL1    C9 3145   2.848   4.545   3.620 -0.4489 -0.4570  0.0251
   43CHL1    H9 3146   2.888   4.645   3.644 -0.5348 -0.4198  0.0145
   43CHL1   C10 3147   2.863   4.519   3.468  0.3885 -0.1657 -0.1752
   43CHL1   C19 3148   2.763   4.408   3.423 -0.1988 -0.4689  0.6835
   43CHL1  H19A 3149   2.663   4.453   3.439  0.2727  0.8423  0.1077
   43CHL1  H19B 3150   2.772   4.387   3.314  0.2195 -2.2642  1.0304
   43CHL1  H19C 3151   2.777   4.313   3.479 -3.3214 -1.3491  0.1429
   43CHL1    C1 3152   2.842   4.658   3.400 -0.0989 -0.0668 -0.4531
   43CHL1   H1A 3153   2.736   4.691   3.414  0.4590  1.4914  0.3923
   43CHL1   H1B 3154   2.906   4.729   3.456  2.0540 -1.0735 -1.5419
   43CHL1    C2 3155   2.868   4.664   3.246  0.8195  0.4905 -0.1757
   43CHL1   H2A 3156   2.860   4.774   3.230  2.2569  0.6423  0.0202
   43CHL1   H2B 3157   2.795   4.594   3.199 -1.0094  2.0571  0.1859
   43CHL1   C20 3158   2.705   4.520   4.171  0.3734  0.3121  0.3717
   43CHL1   H20 3159   2.675   4.413   4.175 -3.0729  0.8931 -3.5083
   43CHL1   C21 3160   2.572   4.602   4.142  0.1923 -0.2003 -0.0268
   43CHL1  H21A 3161   2.512   4.548   4.065 -0.7109 -0.8236  1.0794
   43CHL1  H21B 3162   2.582   4.706   4.104  0.5874 -0.8658 -1.8623
   43CHL1  H21C 3163   2.516   4.602   4.238  0.9345  2.0327  0.4723
   43CHL1   C22 3164   2.766   4.562   4.304 -0.3708  0.0258 -0.9296
   43CHL1  H22A 3165   2.865   4.516   4.326  0.5319  1.6547 -1.4159
   43CHL1  H22B 3166   2.776   4.673   4.307 -1.3778  0.1008  0.6813
   43CHL1   C23 3167   2.676   4.527   4.431  0.2691  0.2051 -0.0408
   43CHL1  H23A 3168   2.585   4.587   4.410 -0.5108 -1.4754 -1.7044
   43CHL1  H23B 3169   2.653   4.419   4.443  0.2407  0.4461  2.6573
   43CHL1   C24 3170   2.750   4.565   4.561  0.3018 -0.8364 -0.1799
   43CHL1  H24A 3171   2.753   4.675   4.574  2.1535 -1.0663  1.9015
   43CHL1  H24B 3172   2.679   4.529   4.639  0.3878  1.4929  1.0665
   43CHL1   C25 3173   2.892   4.510   4.596  0.0557  0.3776  0.4133
   43CHL1   H25 3174   2.972   4.564   4.541 -0.0629  0.1355 -0.0072
   43CHL1   C26 3175   2.914   4.529   4.745  0.6131 -0.3062 -0.1942
   43CHL1  H26A 3176   2.905   4.637   4.766  0.7741 -0.2716 -0.3006
   43CHL1  H26B 3177   2.848   4.462   4.805  2.3209 -0.4475  1.6749
   43CHL1  H26C 3178   3.021   4.506   4.769  0.3173 -0.1134  1.4265
   43CHL1   C27 3179   2.912   4.363   4.548  0.6126  0.8011 -0.3129
   43CHL1  H27A 3180   2.865   4.292   4.619  0.9075  1.1034  0.1874
   43CHL1  H27B 3181   2.868   4.337   4.449 -0.9537 -3.1501  1.1899
   43CHL1  H27C 3182   3.020   4.340   4.546  0.5115  0.2549  0.2873
   44CHL1    C3 3183   0.847   4.183   2.841  0.2659 -1.5011 -0.4597
   44CHL1    H3 3184   0.745   4.140   2.849 -0.4547  0.2316  0.1179
   44CHL1    O3 3185   0.893   4.216   2.712 -0.2108  0.1187 -0.5278
   44CHL1   H3' 3186   0.986   4.242   2.720  0.3577 -1.8505 -0.2652
   44CHL1    C4 3187   0.843   4.315   2.923  0.2516  0.3478  0.5481
   44CHL1   H4A 3188   0.938   4.369   2.906 -0.6208  1.5844 -0.5913
   44CHL1   H4B 3189   0.761   4.376   2.879  1.1799  0.8926 -0.4482
   44CHL1    C5 3190   0.813   4.294   3.067 -0.1362  0.2047 -0.6061
   44CHL1    C6 3191   0.711   4.356   3.131  0.3679 -0.6700  0.6665
   44CHL1    H6 3192   0.655   4.436   3.080  0.4284 -0.7630  0.4560
   44CHL1    C7 3193   0.671   4.344   3.278 -0.3746  0.7835  0.1652
   44CHL1   H7A 3194   0.666   4.442   3.329  0.0912  0.5035  0.7613
   44CHL1   H7B 3195   0.578   4.284   3.284 -0.0426 -0.1159 -2.4318
   44CHL1    C8 3196   0.787   4.261   3.355 -0.1446 -0.1350  0.1447
   44CHL1    H8 3197   0.872   4.329   3.379  0.7394 -0.8784 -0.7829
   44CHL1   C14 3198   0.732   4.210   3.492  0.1474 -0.3543 -0.3082
   44CHL1   H14 3199   0.652   4.136   3.472 -0.5473  0.0262  0.9299
   44CHL1   C15 3200   0.669   4.315   3.587 -0.0658  0.3456 -0.2869
   44CHL1  H15A 3201   0.734   4.405   3.584  1.9098 -1.0446 -0.4160
   44CHL1  H15B 3202   0.566   4.337   3.550 -0.2818  0.0604  0.1417
   44CHL1   C16 3203   0.657   4.248   3.725  0.0936  0.6542 -0.0750
   44CHL1  H16A 3204   0.692   4.324   3.798  0.6940  0.8472 -0.5585
   44CHL1  H16B 3205   0.560   4.205   3.757  0.8222 -0.6957  0.4374
   44CHL1   C17 3206   0.752   4.115   3.718 -0.2129 -0.3640 -0.8310
   44CHL1   H17 3207   0.676   4.035   3.707  0.1563 -1.1199  1.5514
   44CHL1   C13 3208   0.835   4.140   3.584  0.1274  0.1902  0.2444
   44CHL1   C18 3209   0.949   4.238   3.617 -0.5919 -0.0470 -0.3192
   44CHL1  H18A 3210   0.985   4.300   3.532  0.4555 -1.1417 -0.6927
   44CHL1  H18B 3211   0.912   4.310   3.694  0.5628  0.4027 -0.1673
   44CHL1  H18C 3212   1.037   4.187   3.661  0.7895  0.2670 -2.5497
   44CHL1   C12 3213   0.887   4.020   3.500  0.5962 -0.2996 -0.3988
   44CHL1  H12A 3214   0.970   3.970   3.553  0.5277 -0.5563 -0.5330
   44CHL1  H12B 3215   0.805   3.946   3.486  1.0769 -0.4039 -3.2290
   44CHL1   C11 3216   0.944   4.064   3.364  0.1397 -0.4920 -0.8328
   44CHL1  H11A 3217   1.029   4.128   3.398 -1.4673  0.6174  1.3607
   44CHL1  H11B 3218   0.988   3.974   3.316  3.7452  0.2361  0.7365
   44CHL1    C9 3219   0.843   4.143   3.273 -0.3762 -1.4335 -0.1747
   44CHL1    H9 3220   0.754   4.078   3.257 -1.0394 -0.6507  0.2781
   44CHL1   C10 3221   0.897   4.187   3.139  0.3162  0.1452 -0.7326
   44CHL1   C19 3222   1.040   4.256   3.160  0.2128  0.0871 -0.0006
   44CHL1  H19A 3223   1.037   4.342   3.230 -3.8769 -0.0302  0.2178
   44CHL1  H19B 3224   1.109   4.175   3.190  0.1478  0.6354  1.7602
   44CHL1  H19C 3225   1.079   4.296   3.064  1.4781 -1.1484 -0.0290
   44CHL1    C1 3226   0.915   4.061   3.053 -0.2968 -0.0391 -0.0288
   44CHL1   H1A 3227   0.988   3.991   3.101 -0.4408 -0.6122 -0.6316
   44CHL1   H1B 3228   0.820   4.003   3.056  0.4357 -1.2337  1.6311
   44CHL1    C2 3229   0.949   4.096   2.907  0.5424  0.1469  0.3647
   44CHL1   H2A 3230   0.940   3.999   2.854 -0.5277 -0.5177  1.7275
   44CHL1   H2B 3231   1.057   4.122   2.897  0.3670  0.4666 -0.9550
   44CHL1   C20 3232   0.834   4.099   3.851 -0.0178 -0.0951 -0.4204
   44CHL1   H20 3233   0.924   4.163   3.862 -0.9254  0.9497  1.3870
   44CHL1   C21 3234   0.883   3.957   3.853 -0.0622  0.0903  0.0391
   44CHL1  H21A 3235   0.943   3.922   3.766  1.4115  2.2571  0.0949
   44CHL1  H21B 3236   0.788   3.900   3.854 -1.0676  1.7041 -0.1521
   44CHL1  H21C 3237   0.939   3.937   3.946 -0.8766 -0.3977  0.4313
   44CHL1   C22 3238   0.760   4.116   3.991  0.1460  0.0272  0.4151
   44CHL1  H22A 3239   0.698   4.208   3.989  0.4539  0.2993  2.2010
   44CHL1  H22B 3240   0.700   4.025   4.010 -0.4418  0.4682  0.6715
   44CHL1   C23 3241   0.853   4.139   4.111 -0.3485  0.1126  0.4831
   44CHL1  H23A 3242   0.787   4.143   4.200 -0.9187  1.2781  0.0219
   44CHL1  H23B 3243   0.924   4.056   4.131  0.6713  1.2633  1.9080
   44CHL1   C24 3244   0.938   4.263   4.114  0.9514  0.7996  0.3218
   44CHL1  H24A 3245   0.990   4.273   4.016  1.7056 -0.8541  0.5289
   44CHL1  H24B 3246   0.868   4.349   4.120 -0.6957 -0.4784  0.0569
   44CHL1   C25 3247   1.037   4.258   4.232 -0.2954 -0.8502 -0.1321
   44CHL1   H25 3248   1.079   4.156   4.230  1.5794 -0.1022 -0.4920
   44CHL1   C26 3249   1.150   4.362   4.196 -0.0305 -0.0685 -0.1295
   44CHL1  H26A 3250   1.229   4.352   4.274 -0.1409  0.8923  0.1138
   44CHL1  H26B 3251   1.207   4.335   4.105  2.2591  2.5734  0.3856
   44CHL1  H26C 3252   1.105   4.462   4.179 -1.8079 -1.0574 -1.6184
   44CHL1   C27 3253   0.968   4.282   4.366 -0.5858  0.7592 -0.0345
   44CHL1  H27A 3254   0.911   4.188   4.384  0.4973  0.2366  0.7815
   44CHL1  H27B 3255   1.047   4.297   4.442  1.1494 -2.7248 -0.9238
   44CHL1  H27C 3256   0.892   4.363   4.362 -0.3837  0.9083 -1.2823
   45CHL1    C3 3257   6.496   1.925   3.230  0.1356  0.9906 -0.2265
   45CHL1    H3 3258   6.445   2.024   3.220 -2.9036 -0.2626  1.3951
   45CHL1    O3 3259   6.462   1.855   3.111 -0.4077 -0.2373 -0.3130
   45CHL1   H3' 3260   6.480   1.918   3.041  1.7387  0.2611  0.5902
   45CHL1    C4 3261   6.643   1.936   3.235 -0.3249  0.1150 -0.4867
   45CHL1   H4A 3262   6.696   1.840   3.221 -0.9972 -0.2930 -0.2864
   45CHL1   H4B 3263   6.692   2.000   3.158 -0.1819  0.1244 -0.3889
   45CHL1    C5 3264   6.700   1.981   3.368  0.3388  0.0712 -1.0883
   45CHL1    C6 3265   6.784   2.085   3.378 -1.0436  0.6865 -0.1202
   45CHL1    H6 3266   6.817   2.129   3.283 -1.0202  2.0505  0.4872
   45CHL1    C7 3267   6.841   2.144   3.505 -0.1226  0.0482  0.0988
   45CHL1   H7A 3268   6.952   2.139   3.503 -0.1843 -1.5798 -0.4675
   45CHL1   H7B 3269   6.818   2.253   3.512 -0.0600  0.1274 -0.7815
   45CHL1    C8 3270   6.813   2.055   3.631 -0.8480  0.7859 -0.0590
   45CHL1    H8 3271   6.896   1.981   3.628 -1.7723 -0.4047  1.8299
   45CHL1   C14 3272   6.824   2.138   3.761  0.7048 -0.0468  0.3739
   45CHL1   H14 3273   6.735   2.205   3.760 -0.1891 -1.1851 -1.2497
   45CHL1   C15 3274   6.950   2.233   3.785  0.2499  0.8757 -0.8230
   45CHL1  H15A 3275   7.040   2.178   3.751 -0.1709  0.5103 -1.3635
   45CHL1  H15B 3276   6.929   2.329   3.733 -1.7256  1.5400  1.0345
   45CHL1   C16 3277   6.951   2.260   3.937  0.1484  0.4297 -0.3472
   45CHL1  H16A 3278   7.053   2.223   3.961 -0.5087 -1.3392 -0.1582
   45CHL1  H16B 3279   6.924   2.368   3.946  0.2298  0.4846 -0.7682
   45CHL1   C17 3280   6.838   2.159   3.992 -0.4226 -0.3425  0.0793
   45CHL1   H17 3281   6.745   2.221   3.996 -1.3294 -1.7035  0.9811
   45CHL1   C13 3282   6.820   2.046   3.887  0.2432 -0.6573 -0.2894
   45CHL1   C18 3283   6.929   1.936   3.883 -0.6517 -0.1680 -0.5894
   45CHL1  H18A 3284   6.941   1.909   3.990  1.9460  0.1404 -0.7361
   45CHL1  H18B 3285   6.895   1.855   3.815 -0.9474 -0.9430  0.4525
   45CHL1  H18C 3286   7.024   1.980   3.848  0.1700  1.4094  3.1441
   45CHL1   C12 3287   6.680   1.984   3.890  0.1927 -0.1142  0.4777
   45CHL1  H12A 3288   6.663   1.916   3.976 -0.9458 -0.3562  0.0790
   45CHL1  H12B 3289   6.598   2.055   3.913 -1.1962 -2.0567  1.7725
   45CHL1   C11 3290   6.648   1.913   3.752  0.1371 -0.0968  0.2367
   45CHL1  H11A 3291   6.706   1.819   3.763  1.2642  0.4976 -0.5342
   45CHL1  H11B 3292   6.541   1.881   3.759  0.3461 -1.3618 -1.6040
   45CHL1    C9 3293   6.675   1.994   3.628  0.1873  0.5264 -0.1039
   45CHL1    H9 3294   6.612   2.085   3.633  0.8403  0.9937  4.7704
   45CHL1   C10 3295   6.640   1.914   3.499 -0.4558 -0.1956  0.7747
   45CHL1   C19 3296   6.686   1.765   3.504 -0.1585  0.3289  0.7265
   45CHL1  H19A 3297   6.616   1.708   3.569 -0.3452  1.0387  1.1579
   45CHL1  H19B 3298   6.687   1.725   3.400  0.6599  1.0146  0.4532
   45CHL1  H19C 3299   6.787   1.748   3.547 -0.4483 -0.1452  1.2335
   45CHL1    C1 3300   6.482   1.917   3.480 -0.6080 -0.3099 -0.2340
   45CHL1   H1A 3301   6.432   1.859   3.561  0.6404 -1.0758  0.0185
   45CHL1   H1B 3302   6.440   2.019   3.478 -0.4576 -0.1944  1.2406
   45CHL1    C2 3303   6.441   1.851   3.349  0.1830 -0.7435 -0.7487
   45CHL1   H2A 3304   6.331   1.859   3.354  0.3700  1.8123  0.3812
   45CHL1   H2B 3305   6.487   1.750   3.342 -0.4138 -1.0698 -0.1458
   45CHL1   C20 3306   6.866   2.120   4.139 -0.0159 -0.5561  0.0629
   45CHL1   H20 3307   6.944   2.042   4.145  0.6294  0.2062  3.0249
   45CHL1   C21 3308   6.742   2.062   4.202  0.0211 -0.0332 -0.1585
   45CHL1  H21A 3309   6.723   1.958   4.170 -0.4821 -0.3767  1.1911
   45CHL1  H21B 3310   6.656   2.131   4.188 -0.6856 -1.2276 -1.9773
   45CHL1  H21C 3311   6.746   2.060   4.313 -3.1460  0.6868  0.0487
   45CHL1   C22 3312   6.926   2.237   4.229 -0.6544  0.1655  0.1918
   45CHL1  H22A 3313   6.960   2.198   4.328  0.4208 -0.4372 -0.3939
   45CHL1  H22B 3314   7.011   2.283   4.175 -1.8710  1.8724 -0.3353
   45CHL1   C23 3315   6.824   2.348   4.259 -0.7303  0.3022  0.5063
   45CHL1  H23A 3316   6.781   2.383   4.163  0.3219  1.8891  0.5756
   45CHL1  H23B 3317   6.743   2.321   4.330 -0.6411  2.0833  1.3407
   45CHL1   C24 3318   6.904   2.473   4.317  0.3562  0.4321  1.1916
   45CHL1  H24A 3319   6.987   2.498   4.248 -0.0010  1.8049  1.2423
   45CHL1  H24B 3320   6.843   2.565   4.308 -1.4073 -0.7880 -0.0506
   45CHL1   C25 3321   6.960   2.460   4.463 -0.9067 -0.0637  0.2570
   45CHL1   H25 3322   7.030   2.374   4.461 -1.7604 -0.7941  0.7618
   45CHL1   C26 3323   7.025   2.591   4.500  0.2225  0.2264  0.0828
   45CHL1  H26A 3324   7.087   2.619   4.412 -1.5203  0.3590 -1.1580
   45CHL1  H26B 3325   6.954   2.671   4.530 -2.8624 -2.5053  0.6554
   45CHL1  H26C 3326   7.089   2.586   4.590  0.7681 -1.5063 -0.3488
   45CHL1   C27 3327   6.850   2.434   4.566  0.2528 -0.3812  0.9439
   45CHL1  H27A 3328   6.762   2.496   4.538  0.6122 -1.1541 -2.2044
   45CHL1  H27B 3329   6.809   2.332   4.553 -1.1235  0.2799 -0.1469
   45CHL1  H27C 3330   6.884   2.458   4.669  0.4562  0.6703  0.6436
   46CHL1    C3 3331   4.419   4.846   3.020  0.3386  0.5447  0.6733
   46CHL1    H3 3332   4.353   4.766   3.060  2.5183 -1.3591  0.6394
   46CHL1    O3 3333   4.389   4.858   2.879 -0.2487 -0.2217 -0.2027
   46CHL1   H3' 3334   4.475   4.885   2.845  0.5900 -1.4669  0.8429
   46CHL1    C4 3335   4.396   4.982   3.082 -0.1830  0.4075 -0.1215
   46CHL1   H4A 3336   4.486   5.040   3.051  0.9005 -0.2333  1.6340
   46CHL1   H4B 3337   4.312   5.047   3.051  0.5529  3.3288  3.3069
   46CHL1    C5 3338   4.404   4.962   3.238  0.7102  0.4238  0.6078
   46CHL1    C6 3339   4.302   5.001   3.313  0.4876  0.7598  0.4767
   46CHL1    H6 3340   4.215   5.032   3.253  1.5325 -2.8629 -3.3511
   46CHL1    C7 3341   4.301   4.990   3.464  0.6973 -0.4126 -0.5369
   46CHL1   H7A 3342   4.269   5.085   3.511 -0.4747 -0.9677 -0.1501
   46CHL1   H7B 3343   4.238   4.906   3.501  1.3146 -0.4419  0.4611
   46CHL1    C8 3344   4.445   4.968   3.513 -0.1138 -0.2342 -0.5726
   46CHL1    H8 3345   4.501   5.064   3.510 -0.5273  0.0251 -0.0675
   46CHL1   C14 3346   4.437   4.915   3.658 -0.3123 -0.8484  0.0989
   46CHL1   H14 3347   4.386   4.816   3.655 -0.7508 -0.6177 -0.2421
   46CHL1   C15 3348   4.366   5.005   3.756  0.7973 -0.4042 -0.4466
   46CHL1  H15A 3349   4.396   5.112   3.749 -0.9128  0.1869  0.6497
   46CHL1  H15B 3350   4.257   5.006   3.733  0.7441  0.1756 -0.2011
   46CHL1   C16 3351   4.400   4.947   3.896 -0.6117  0.7404 -0.4679
   46CHL1  H16A 3352   4.424   5.033   3.961 -1.2667  1.2272 -0.8563
   46CHL1  H16B 3353   4.322   4.883   3.943  0.9210 -1.9979 -1.4387
   46CHL1   C17 3354   4.528   4.852   3.871 -0.2172 -0.0169 -0.6559
   46CHL1   H17 3355   4.482   4.751   3.865 -1.2133  0.5118 -3.0713
   46CHL1   C13 3356   4.572   4.890   3.731 -0.3577 -0.6554  0.6863
   46CHL1   C18 3357   4.662   5.021   3.734 -0.7590 -0.0320 -0.1441
   46CHL1  H18A 3358   4.681   5.060   3.632 -2.6079  1.7428  0.1296
   46CHL1  H18B 3359   4.622   5.099   3.802 -1.8871 -1.7292  1.2354
   46CHL1  H18C 3360   4.763   4.999   3.775  0.4034  0.5190 -2.5739
   46CHL1   C12 3361   4.637   4.778   3.649  0.0111  0.1656  0.3635
   46CHL1  H12A 3362   4.728   4.758   3.709 -0.8779 -0.3198  1.6013
   46CHL1  H12B 3363   4.567   4.695   3.672 -3.1285  2.9976  1.9382
   46CHL1   C11 3364   4.656   4.802   3.505 -0.3594 -0.2118  0.0958
   46CHL1  H11A 3365   4.740   4.871   3.484  0.4762 -1.2055  0.0694
   46CHL1  H11B 3366   4.684   4.703   3.462 -1.1581 -0.3989 -0.0024
   46CHL1    C9 3367   4.525   4.859   3.435  0.3040 -0.7800  0.7287
   46CHL1    H9 3368   4.451   4.775   3.435  2.6573 -2.9966  1.6105
   46CHL1   C10 3369   4.537   4.900   3.288  0.6042 -0.4271  0.0070
   46CHL1   C19 3370   4.639   5.016   3.283  0.0581  0.1150  0.0584
   46CHL1  H19A 3371   4.743   4.990   3.312 -0.3014  0.5686  1.8489
   46CHL1  H19B 3372   4.645   5.056   3.179  1.3003 -1.5534 -0.5581
   46CHL1  H19C 3373   4.613   5.092   3.360  0.4048  1.4003 -1.0436
   46CHL1    C1 3374   4.579   4.781   3.194  0.1913  0.1450 -0.1662
   46CHL1   H1A 3375   4.682   4.750   3.220  0.5261  0.4038 -1.1142
   46CHL1   H1B 3376   4.516   4.694   3.222 -1.4010  1.1990 -0.3067
   46CHL1    C2 3377   4.567   4.798   3.042  0.1191  0.8770  0.1369
   46CHL1   H2A 3378   4.591   4.704   2.987  1.4635  1.8529 -1.0164
   46CHL1   H2B 3379   4.642   4.874   3.013 -0.3115  1.3675  0.2957
   46CHL1   C20 3380   4.614   4.864   3.997 -0.7011  0.0291 -0.2037
   46CHL1   H20 3381   4.632   4.971   4.021  2.1769 -0.6352  1.1379
   46CHL1   C21 3382   4.741   4.776   3.974  0.7198 -0.8848 -0.1680
   46CHL1  H21A 3383   4.817   4.839   3.923 -0.4805 -0.8596 -1.9925
   46CHL1  H21B 3384   4.717   4.688   3.910 -0.1444 -0.8785  0.1426
   46CHL1  H21C 3385   4.801   4.742   4.062  3.3815 -0.3081 -1.6468
   46CHL1   C22 3386   4.547   4.811   4.130  0.1950  0.6220 -0.0448
   46CHL1  H22A 3387   4.444   4.850   4.150  0.5945  1.6213  0.1139
   46CHL1  H22B 3388   4.539   4.700   4.127  0.2064  0.5682  1.3262
   46CHL1   C23 3389   4.636   4.842   4.246 -0.7263 -0.4542 -0.5676
   46CHL1  H23A 3390   4.732   4.787   4.257 -0.6527 -0.5308 -1.4961
   46CHL1  H23B 3391   4.664   4.949   4.231 -0.8769 -0.6007 -2.1034
   46CHL1   C24 3392   4.545   4.818   4.367 -0.2673  0.1754 -0.3780
   46CHL1  H24A 3393   4.465   4.895   4.365 -0.9626 -0.5122  0.3614
   46CHL1  H24B 3394   4.515   4.712   4.357 -1.0464  0.3595 -0.0360
   46CHL1   C25 3395   4.617   4.825   4.504 -0.2283  0.4918 -0.0738
   46CHL1   H25 3396   4.697   4.748   4.495 -1.7673 -1.2535  0.7206
   46CHL1   C26 3397   4.672   4.966   4.532  0.1453 -0.0951 -0.5396
   46CHL1  H26A 3398   4.589   5.039   4.540 -0.6261 -1.1683  3.0561
   46CHL1  H26B 3399   4.739   4.966   4.620  2.0611 -2.3834 -1.8708
   46CHL1  H26C 3400   4.736   5.003   4.448  3.0553 -1.2251  1.0271
   46CHL1   C27 3401   4.532   4.781   4.620 -0.1134  0.6648  0.1279
   46CHL1  H27A 3402   4.584   4.781   4.718 -2.0130  0.7586  1.1882
   46CHL1  H27B 3403   4.455   4.859   4.637 -1.9619 -1.0166 -0.0587
   46CHL1  H27C 3404   4.473   4.687   4.610 -3.2872  2.6809 -1.5410
   47CHL1    C3 3405   2.740   1.971   2.897  0.1589 -0.9593 -0.0114
   47CHL1    H3 3406   2.770   1.865   2.899 -0.1605 -1.0603 -0.3918
   47CHL1    O3 3407   2.711   2.011   2.763 -0.1066  0.2374  0.1153
   47CHL1   H3' 3408   2.788   1.989   2.710  0.6070 -2.4030  2.0412
   47CHL1    C4 3409   2.619   1.996   2.984  0.6180  0.4889  0.3089
   47CHL1   H4A 3410   2.588   2.101   2.966  2.4837  0.8189 -1.2668
   47CHL1   H4B 3411   2.531   1.935   2.953 -0.6849  1.9353  1.0074
   47CHL1    C5 3412   2.661   1.977   3.134  0.5958  0.2362  0.2166
   47CHL1    C6 3413   2.608   1.878   3.205  0.2253  0.0560 -0.7658
   47CHL1    H6 3414   2.537   1.816   3.149 -0.4721  2.2267 -2.4114
   47CHL1    C7 3415   2.647   1.834   3.343 -0.1139  0.2190  0.1158
   47CHL1   H7A 3416   2.557   1.814   3.404  0.3307 -0.5096  0.5485
   47CHL1   H7B 3417   2.701   1.737   3.344  1.6380  1.1347 -0.4296
   47CHL1    C8 3418   2.720   1.945   3.416 -0.1445 -0.0775 -0.4818
   47CHL1    H8 3419   2.641   2.019   3.436 -2.0714 -2.0402 -0.4620
   47CHL1   C14 3420   2.782   1.896   3.547  0.7806 -0.5513  0.0246
   47CHL1   H14 3421   2.846   1.813   3.509  0.5212 -0.5983 -0.3206
   47CHL1   C15 3422   2.695   1.824   3.645  0.3826  0.0043  0.8360
   47CHL1  H15A 3423   2.595   1.872   3.654  0.1962 -0.3617  0.7521
   47CHL1  H15B 3424   2.678   1.717   3.622 -0.3115 -0.1334  1.9163
   47CHL1   C16 3425   2.765   1.839   3.787  0.5078  0.4161 -0.4290
   47CHL1  H16A 3426   2.704   1.875   3.873  0.6702 -1.6111  0.6044
   47CHL1  H16B 3427   2.793   1.732   3.798  1.3882  0.4670 -1.8491
   47CHL1   C17 3428   2.891   1.915   3.757 -0.0275 -0.7670 -1.2301
   47CHL1   H17 3429   2.973   1.847   3.724 -1.4871 -1.8036 -2.9014
   47CHL1   C13 3430   2.866   1.995   3.630  0.4117  1.1231  0.1393
   47CHL1   C18 3431   2.787   2.118   3.666  0.2180  0.1494  0.1312
   47CHL1  H18A 3432   2.740   2.175   3.583 -0.1724  0.3633  0.4924
   47CHL1  H18B 3433   2.706   2.101   3.740 -0.2833  0.3380 -0.3690
   47CHL1  H18C 3434   2.853   2.192   3.716 -1.4795  0.7446  1.6149
   47CHL1   C12 3435   2.985   2.029   3.536 -0.6086 -1.2034  0.2693
   47CHL1  H12A 3436   3.053   2.105   3.577  0.0828 -0.4004 -2.1936
   47CHL1  H12B 3437   3.056   1.946   3.516  0.7261  0.1461 -0.8504
   47CHL1   C11 3438   2.938   2.082   3.393 -0.4366  0.2767 -0.2263
   47CHL1  H11A 3439   2.893   2.180   3.417 -0.1802  0.4708 -0.5252
   47CHL1  H11B 3440   3.030   2.095   3.332  0.3339 -1.2765  0.5320
   47CHL1    C9 3441   2.833   1.991   3.330  0.2165 -0.0695 -0.2806
   47CHL1    H9 3442   2.894   1.902   3.303 -0.0201 -0.7666  1.3385
   47CHL1   C10 3443   2.787   2.049   3.190  0.0731 -0.2336  0.4048
   47CHL1   C19 3444   2.741   2.198   3.200 -0.0510 -0.9285  0.0267
   47CHL1  H19A 3445   2.708   2.227   3.098  0.6209  0.5434  0.1943
   47CHL1  H19B 3446   2.664   2.225   3.275  0.6614  2.1512 -0.1998
   47CHL1  H19C 3447   2.826   2.266   3.223 -1.0726 -0.3392  2.3606
   47CHL1    C1 3448   2.906   2.033   3.083  0.9094  0.7667  0.1585
   47CHL1   H1A 3449   2.989   2.099   3.114  1.9306 -0.8842  1.0966
   47CHL1   H1B 3450   2.940   1.928   3.093  1.3910  0.8161 -0.9007
   47CHL1    C2 3451   2.860   2.053   2.937 -0.2632 -1.1547 -0.5064
   47CHL1   H2A 3452   2.954   2.025   2.885  0.9632 -0.5877  1.3033
   47CHL1   H2B 3453   2.844   2.159   2.907 -0.3484 -0.9024  0.4106
   47CHL1   C20 3454   2.943   1.985   3.887  0.0657 -0.5001 -0.1364
   47CHL1   H20 3455   2.859   2.042   3.933  0.9503  1.3156 -0.7052
   47CHL1   C21 3456   3.059   2.085   3.850 -0.3383  0.9185 -0.6520
   47CHL1  H21A 3457   3.029   2.178   3.796 -0.1367  1.0022 -0.6234
   47CHL1  H21B 3458   3.127   2.030   3.781  2.0629 -1.5331  3.2640
   47CHL1  H21C 3459   3.114   2.107   3.944  0.0478  0.6712 -0.8216
   47CHL1   C22 3460   2.997   1.877   3.979  0.4181 -0.7629 -0.2392
   47CHL1  H22A 3461   2.956   1.775   3.961  0.5153 -0.9460  0.5081
   47CHL1  H22B 3462   3.107   1.868   3.963  0.6637  3.0264 -1.4437
   47CHL1   C23 3463   2.982   1.917   4.126  0.1410 -0.8532 -0.6068
   47CHL1  H23A 3464   3.045   2.003   4.155 -2.5063  0.5435  1.4834
   47CHL1  H23B 3465   2.876   1.949   4.143  0.3300  0.4259 -1.6980
   47CHL1   C24 3466   3.007   1.799   4.217 -0.0690 -0.1382 -0.8370
   47CHL1  H24A 3467   2.930   1.719   4.207 -0.9512 -0.1545  3.8746
   47CHL1  H24B 3468   3.108   1.761   4.193  0.3123  1.7303 -2.4359
   47CHL1   C25 3469   3.007   1.841   4.366 -0.1526  0.3234 -0.6990
   47CHL1   H25 3470   2.915   1.899   4.387 -0.1993  0.4462 -1.2310
   47CHL1   C26 3471   3.012   1.713   4.459 -0.5377 -0.0419  0.4114
   47CHL1  H26A 3472   3.099   1.649   4.432 -0.3709  0.1574  0.4704
   47CHL1  H26B 3473   3.025   1.744   4.565 -1.4730  1.9174 -0.0006
   47CHL1  H26C 3474   2.916   1.661   4.438  0.8874 -2.5082 -0.3340
   47CHL1   C27 3475   3.124   1.934   4.401 -0.1495  0.5694 -0.0336
   47CHL1  H27A 3476   3.223   1.885   4.389  0.8626  2.8740 -1.7132
   47CHL1  H27B 3477   3.131   2.030   4.345  0.7260 -0.7997 -2.3904
   47CHL1  H27C 3478   3.113   1.957   4.509 -0.7702 -0.4859  0.1434
   48CHL1    C3 3479   5.178   2.339   3.368  0.4047  0.0461 -0.1729
   48CHL1    H3 3480   5.071   2.369   3.376 -0.2428 -2.3649  1.6007
   48CHL1    O3 3481   5.224   2.356   3.234  0.1510  0.4221 -0.4827
   48CHL1   H3' 3482   5.196   2.444   3.209  0.2629  1.2885  2.1431
   48CHL1    C4 3483   5.253   2.418   3.474 -0.9745 -0.5687 -0.7274
   48CHL1   H4A 3484   5.364   2.410   3.473 -0.6076  2.9371 -0.6813
   48CHL1   H4B 3485   5.240   2.528   3.463 -2.1106 -0.6900 -0.6902
   48CHL1    C5 3486   5.216   2.384   3.621 -0.2355  0.6478  0.4342
   48CHL1    C6 3487   5.175   2.466   3.712  0.0171 -0.1480 -0.5494
   48CHL1    H6 3488   5.159   2.569   3.678  0.7225 -0.6030 -2.3207
   48CHL1    C7 3489   5.141   2.441   3.851 -0.3469  0.2980 -0.0360
   48CHL1   H7A 3490   5.176   2.524   3.917 -1.3588  1.6033 -1.0782
   48CHL1   H7B 3491   5.030   2.440   3.857 -0.3718 -2.1561 -0.1533
   48CHL1    C8 3492   5.193   2.302   3.895  0.2521 -0.1898  0.6648
   48CHL1    H8 3493   5.302   2.312   3.913  0.5036  1.0147 -1.2474
   48CHL1   C14 3494   5.124   2.265   4.023  0.3394 -0.7847 -1.0806
   48CHL1   H14 3495   5.016   2.254   3.997  0.7593 -2.7567 -2.1275
   48CHL1   C15 3496   5.130   2.364   4.149 -0.2040 -0.0090  0.2777
   48CHL1  H15A 3497   5.237   2.391   4.160  0.5626 -2.2511 -1.1147
   48CHL1  H15B 3498   5.065   2.453   4.133  0.7893  1.0892  1.9660
   48CHL1   C16 3499   5.074   2.278   4.263 -0.7392 -0.3340 -0.6061
   48CHL1  H16A 3500   5.135   2.291   4.355  0.9773  1.5781 -1.9285
   48CHL1  H16B 3501   4.967   2.303   4.280 -0.4886 -0.4142  1.2819
   48CHL1   C17 3502   5.081   2.130   4.216 -0.2384 -0.0370 -0.6024
   48CHL1   H17 3503   4.977   2.105   4.187 -1.5132  1.0066  2.6553
   48CHL1   C13 3504   5.158   2.134   4.082 -0.9661  1.6944  0.2498
   48CHL1   C18 3505   5.319   2.122   4.111 -0.0946 -0.2800 -0.4285
   48CHL1  H18A 3506   5.384   2.166   4.032  2.6176 -1.2134  1.1469
   48CHL1  H18B 3507   5.326   2.185   4.202 -1.7774  0.8008 -0.9962
   48CHL1  H18C 3508   5.355   2.020   4.135 -2.9601 -1.3870 -0.4295
   48CHL1   C12 3509   5.124   2.025   3.983  0.2488 -0.3578  0.1804
   48CHL1  H12A 3510   5.154   1.926   4.024 -0.2712  0.2308  2.0903
   48CHL1  H12B 3511   5.017   2.014   3.954  0.3233  0.0933 -0.2831
   48CHL1   C11 3512   5.198   2.053   3.851 -0.0071  0.2290  0.4730
   48CHL1  H11A 3513   5.306   2.033   3.870  0.0264  1.3350  1.5505
   48CHL1  H11B 3514   5.162   1.982   3.774  0.0789  1.7379 -1.0195
   48CHL1    C9 3515   5.168   2.195   3.792 -0.2562 -0.8393  0.4162
   48CHL1    H9 3516   5.058   2.192   3.776 -0.4154 -3.2221  1.4624
   48CHL1   C10 3517   5.243   2.234   3.654  0.5401 -0.0869  0.5556
   48CHL1   C19 3518   5.392   2.202   3.650 -0.5485  0.7529 -0.1991
   48CHL1  H19A 3519   5.407   2.095   3.678 -0.3056  0.5988 -0.8856
   48CHL1  H19B 3520   5.439   2.232   3.553 -0.3636  2.1685  0.3069
   48CHL1  H19C 3521   5.433   2.275   3.722 -0.4982  1.0862 -0.5634
   48CHL1    C1 3522   5.165   2.147   3.548 -0.5705  0.0399 -0.0337
   48CHL1   H1A 3523   5.200   2.042   3.560  0.4581  0.5130  1.4049
   48CHL1   H1B 3524   5.056   2.142   3.569 -0.4075 -2.0272  0.4763
   48CHL1    C2 3525   5.192   2.188   3.396 -0.1228  0.2756 -0.6393
   48CHL1   H2A 3526   5.132   2.123   3.329 -1.4467  0.8454 -0.0274
   48CHL1   H2B 3527   5.298   2.159   3.376 -0.1958 -0.0195 -0.6007
   48CHL1   C20 3528   5.127   2.035   4.329  0.3599  0.5574  0.2900
   48CHL1   H20 3529   5.231   2.060   4.358  0.9004 -0.9414 -0.2431
   48CHL1   C21 3530   5.128   1.889   4.279 -0.0422  0.1383 -0.1662
   48CHL1  H21A 3531   5.124   1.820   4.365 -1.4290 -1.4789 -1.4652
   48CHL1  H21B 3532   5.219   1.861   4.222 -0.2047  1.7893 -1.3147
   48CHL1  H21C 3533   5.037   1.864   4.221  1.0998 -0.3001 -1.8374
   48CHL1   C22 3534   5.039   2.046   4.454  0.8207 -0.2393 -0.2929
   48CHL1  H22A 3535   5.090   1.975   4.523 -3.2619 -1.7780  1.4556
   48CHL1  H22B 3536   5.044   2.148   4.496 -0.3300 -0.6087  0.7971
   48CHL1   C23 3537   4.889   2.021   4.436 -0.0195  0.9661  0.2127
   48CHL1  H23A 3538   4.849   2.104   4.374  1.5179  1.2243 -0.4724
   48CHL1  H23B 3539   4.864   1.936   4.369  1.5208  0.9254 -0.3362
   48CHL1   C24 3540   4.813   2.030   4.561  0.2259 -0.1411 -0.3335
   48CHL1  H24A 3541   4.877   1.996   4.645  1.1332  0.9288 -0.5616
   48CHL1  H24B 3542   4.780   2.133   4.588 -0.8482 -0.4752 -0.3095
   48CHL1   C25 3543   4.679   1.951   4.581  0.5402  0.1867  0.6943
   48CHL1   H25 3544   4.694   1.847   4.544 -3.2993  0.1182 -1.1564
   48CHL1   C26 3545   4.629   1.963   4.724 -0.2436 -0.0482 -0.2263
   48CHL1  H26A 3546   4.553   1.888   4.754  1.1119 -0.6025  2.0354
   48CHL1  H26B 3547   4.720   1.943   4.784 -0.4346 -0.2711 -0.0121
   48CHL1  H26C 3548   4.595   2.069   4.732  2.8744  1.0321 -0.0127
   48CHL1   C27 3549   4.570   2.011   4.483 -0.0895  0.0892  0.8964
   48CHL1  H27A 3550   4.611   1.995   4.381  2.1278  0.0872  1.7350
   48CHL1  H27B 3551   4.475   1.957   4.502  0.3196 -0.4408  1.4885
   48CHL1  H27C 3552   4.571   2.121   4.494  0.9023  0.1751  0.1805
   49CHL1    C3 3553   0.195   4.120   3.188  0.6887  0.1039  0.3098
   49CHL1    H3 3554   0.113   4.048   3.207 -1.2263  2.1948  0.4254
   49CHL1    O3 3555   0.244   4.093   3.053  0.1939  0.4475  0.8256
   49CHL1   H3' 3556   0.221   4.001   3.037 -1.5319  0.7689  1.2160
   49CHL1    C4 3557   0.130   4.254   3.200 -0.0609 -0.1887 -0.0302
   49CHL1   H4A 3558   0.196   4.333   3.157 -1.9056  1.9592  0.9247
   49CHL1   H4B 3559   0.044   4.245   3.131 -0.7051 -1.9764  0.9406
   49CHL1    C5 3560   0.083   4.285   3.338  0.0485  0.4580  1.1403
   49CHL1    C6 3561  -0.042   4.326   3.363 -0.4860 -0.2033  0.3938
   49CHL1    H6 3562  -0.119   4.337   3.286 -1.2918 -0.3828  1.1498
   49CHL1    C7 3563  -0.093   4.375   3.498 -0.1330 -0.1390 -0.0101
   49CHL1   H7A 3564  -0.129   4.480   3.499 -1.9414 -0.7208  0.2231
   49CHL1   H7B 3565  -0.163   4.293   3.527 -0.4851 -0.3856 -1.4652
   49CHL1    C8 3566   0.012   4.366   3.606 -0.6079  0.4205 -0.5060
   49CHL1    H8 3567   0.073   4.459   3.599  0.1962  0.3707  3.3368
   49CHL1   C14 3568  -0.051   4.352   3.746  0.1198 -0.2066 -0.2271
   49CHL1   H14 3569  -0.100   4.253   3.739 -1.7981  0.4669  2.1110
   49CHL1   C15 3570  -0.174   4.437   3.790 -0.2120 -0.2639  1.1160
   49CHL1  H15A 3571  -0.171   4.544   3.762 -0.2206 -0.8757 -1.4480
   49CHL1  H15B 3572  -0.262   4.404   3.731 -0.2645  0.0238  1.0326
   49CHL1   C16 3573  -0.179   4.424   3.938  0.1950 -0.6054 -0.2974
   49CHL1  H16A 3574  -0.172   4.523   3.988  1.1911 -2.0027  2.6151
   49CHL1  H16B 3575  -0.269   4.366   3.969  2.3504 -5.1224 -1.6585
   49CHL1   C17 3576  -0.059   4.340   3.982 -0.3844 -0.6568  0.0480
   49CHL1   H17 3577  -0.093   4.235   3.978 -3.3296  0.2813 -2.4859
   49CHL1   C13 3578   0.044   4.353   3.863  0.2600  0.6231 -0.1522
   49CHL1   C18 3579   0.116   4.490   3.880  0.1290 -0.1690  0.4978
   49CHL1  H18A 3580   0.048   4.574   3.902  0.8401 -0.3282  3.8229
   49CHL1  H18B 3581   0.189   4.493   3.964 -1.9660 -1.0128  2.4566
   49CHL1  H18C 3582   0.174   4.513   3.788 -0.5427 -0.9407 -0.1345
   49CHL1   C12 3583   0.138   4.229   3.847 -0.7299  0.3985  0.4178
   49CHL1  H12A 3584   0.221   4.230   3.921 -0.1222  1.8187 -0.2410
   49CHL1  H12B 3585   0.092   4.128   3.852  1.2062 -0.5697  0.0245
   49CHL1   C11 3586   0.206   4.235   3.709  0.6245 -0.3699  0.8456
   49CHL1  H11A 3587   0.270   4.325   3.721 -0.0945  0.5652 -1.5800
   49CHL1  H11B 3588   0.271   4.147   3.694  0.6838 -0.7645  3.0606
   49CHL1    C9 3589   0.112   4.250   3.587  0.6152 -0.3965  0.4947
   49CHL1    H9 3590   0.050   4.158   3.591 -0.9895  0.6463  0.5749
   49CHL1   C10 3591   0.184   4.263   3.450  0.3535  0.0654 -0.0596
   49CHL1   C19 3592   0.278   4.385   3.440  0.0385  0.4972 -0.1384
   49CHL1  H19A 3593   0.329   4.393   3.342 -0.4594 -2.4144 -0.7395
   49CHL1  H19B 3594   0.226   4.480   3.464 -0.5495  0.4943 -1.3522
   49CHL1  H19C 3595   0.350   4.368   3.523 -0.9816 -3.1941  0.1707
   49CHL1    C1 3596   0.269   4.142   3.433  0.0467  0.2106  0.3780
   49CHL1   H1A 3597   0.351   4.138   3.508  1.2499 -0.9614 -0.9441
   49CHL1   H1B 3598   0.210   4.050   3.453  1.5380 -1.0164 -0.6869
   49CHL1    C2 3599   0.312   4.107   3.287  0.1362 -0.7775 -0.2855
   49CHL1   H2A 3600   0.363   4.008   3.289  1.3429 -0.1601  1.0643
   49CHL1   H2B 3601   0.381   4.187   3.255 -2.0782  0.9579 -1.0309
   49CHL1   C20 3602  -0.019   4.365   4.128  0.1552  0.1089 -0.4267
   49CHL1   H20 3603  -0.006   4.474   4.144 -0.4711  0.2264 -0.7247
   49CHL1   C21 3604   0.119   4.295   4.157  0.2946 -0.0650 -0.2477
   49CHL1  H21A 3605   0.204   4.337   4.099  0.3340  0.6622  0.3200
   49CHL1  H21B 3606   0.118   4.187   4.130  1.6670  0.5631 -3.2787
   49CHL1  H21C 3607   0.148   4.296   4.264  0.3413 -1.6797 -0.2171
   49CHL1   C22 3608  -0.126   4.315   4.225 -1.1235  0.8217  0.5305
   49CHL1  H22A 3609  -0.227   4.329   4.180 -0.9642 -0.7295 -0.3707
   49CHL1  H22B 3610  -0.106   4.207   4.238  1.8332  1.4396  1.8375
   49CHL1   C23 3611  -0.130   4.377   4.364 -0.0787  0.4808 -0.5711
   49CHL1  H23A 3612  -0.191   4.311   4.428  0.9599  0.0103 -0.0374
   49CHL1  H23B 3613  -0.031   4.362   4.413 -1.4947 -2.6695  1.6429
   49CHL1   C24 3614  -0.160   4.526   4.380  0.5113 -0.2762 -0.3923
   49CHL1  H24A 3615  -0.081   4.583   4.327  1.9396 -1.4776  0.3721
   49CHL1  H24B 3616  -0.259   4.550   4.335  0.3273  0.4048  0.3483
   49CHL1   C25 3617  -0.167   4.568   4.531 -0.4758 -0.5273  0.6810
   49CHL1   H25 3618  -0.073   4.536   4.581  1.5388  1.4718 -1.5375
   49CHL1   C26 3619  -0.184   4.722   4.534 -0.4336 -0.3489 -0.0593
   49CHL1  H26A 3620  -0.244   4.769   4.453 -0.2204  0.9101  0.4830
   49CHL1  H26B 3621  -0.230   4.759   4.628 -0.8210 -1.5178  0.2273
   49CHL1  H26C 3622  -0.090   4.780   4.518 -1.5690  1.5458 -0.1716
   49CHL1   C27 3623  -0.291   4.510   4.600 -0.0538  0.3473  0.4034
   49CHL1  H27A 3624  -0.383   4.528   4.540 -0.2037  1.5254  0.9559
   49CHL1  H27B 3625  -0.272   4.404   4.626 -0.7890  0.2851  0.7172
   49CHL1  H27C 3626  -0.309   4.568   4.694  0.1251 -2.4741  2.2815
   50CHL1    C3 3627   5.471   4.327   3.117 -0.0735 -0.6653 -0.2132
   50CHL1    H3 3628   5.538   4.250   3.161  2.9037  2.1828  0.6743
   50CHL1    O3 3629   5.474   4.313   2.973 -0.5469 -0.4177 -0.2227
   50CHL1   H3' 3630   5.410   4.377   2.942 -0.7590 -0.7200 -0.4216
   50CHL1    C4 3631   5.331   4.298   3.155 -0.1283  0.3544 -0.0086
   50CHL1   H4A 3632   5.261   4.366   3.101 -2.0891  0.5367  2.5810
   50CHL1   H4B 3633   5.298   4.198   3.119  0.7774  0.4446 -1.1486
   50CHL1    C5 3634   5.305   4.317   3.306 -0.3108  0.5654  0.2543
   50CHL1    C6 3635   5.263   4.216   3.384 -0.7756  0.6674 -0.1067
   50CHL1    H6 3636   5.238   4.117   3.345  1.0596 -0.2982  0.9971
   50CHL1    C7 3637   5.235   4.238   3.528 -0.6964  0.4424  0.4593
   50CHL1   H7A 3638   5.139   4.195   3.562 -0.7150  0.5864  0.5912
   50CHL1   H7B 3639   5.321   4.204   3.590 -0.2733 -0.4650 -0.5871
   50CHL1    C8 3640   5.224   4.388   3.569 -0.2235 -0.0779  0.3651
   50CHL1    H8 3641   5.131   4.441   3.540  0.1761  1.0945  1.1758
   50CHL1   C14 3642   5.232   4.406   3.724 -0.0831 -0.0686  0.5759
   50CHL1   H14 3643   5.330   4.364   3.754 -0.1431 -0.2684  0.4932
   50CHL1   C15 3644   5.121   4.327   3.796 -0.6495  0.2609 -0.3634
   50CHL1  H15A 3645   5.022   4.349   3.751  0.0575 -1.0686 -2.7813
   50CHL1  H15B 3646   5.125   4.216   3.792 -0.1149  0.3122 -2.0850
   50CHL1   C16 3647   5.136   4.385   3.940 -0.1710 -0.7001 -0.7717
   50CHL1  H16A 3648   5.033   4.398   3.978  1.3480  2.4777  2.9034
   50CHL1  H16B 3649   5.195   4.318   4.006  1.7861  0.5745 -1.1468
   50CHL1   C17 3650   5.212   4.521   3.918 -0.3136 -0.1342 -0.2618
   50CHL1   H17 3651   5.316   4.498   3.948  0.0951  0.8583 -0.8774
   50CHL1   C13 3652   5.220   4.551   3.768  0.8039  0.2225  0.1867
   50CHL1   C18 3653   5.087   4.622   3.722  0.0742 -0.2792  0.3011
   50CHL1  H18A 3654   5.080   4.728   3.753 -1.1232  0.1397 -1.2882
   50CHL1  H18B 3655   5.058   4.630   3.615 -3.9896  1.4396  1.3473
   50CHL1  H18C 3656   5.004   4.560   3.762  0.4013 -1.2519 -0.4734
   50CHL1   C12 3657   5.343   4.620   3.720  0.0988  0.5073  0.4210
   50CHL1  H12A 3658   5.339   4.728   3.743 -1.0654  0.5221  0.2230
   50CHL1  H12B 3659   5.433   4.566   3.756 -2.0603 -3.2705  0.6994
   50CHL1   C11 3660   5.356   4.618   3.569 -0.5681  0.2237  0.2005
   50CHL1  H11A 3661   5.267   4.676   3.537 -1.2733 -1.2478 -0.6228
   50CHL1  H11B 3662   5.452   4.668   3.549  0.8982 -1.1878  3.0247
   50CHL1    C9 3663   5.337   4.470   3.512 -0.5354  0.2723  0.1967
   50CHL1    H9 3664   5.430   4.421   3.547 -1.5134 -0.2316  2.1671
   50CHL1   C10 3665   5.342   4.457   3.358  0.0709  0.0012  0.2987
   50CHL1   C19 3666   5.244   4.570   3.301  0.0803  0.2463  0.2129
   50CHL1  H19A 3667   5.275   4.671   3.337  0.0886  0.3590 -0.0990
   50CHL1  H19B 3668   5.240   4.571   3.190  0.5345  0.9658  0.1933
   50CHL1  H19C 3669   5.145   4.548   3.345  1.0056 -0.7812  1.8494
   50CHL1    C1 3670   5.485   4.495   3.311 -0.0710 -0.3037 -0.0882
   50CHL1   H1A 3671   5.503   4.603   3.329 -0.1001  0.1927 -2.6790
   50CHL1   H1B 3672   5.553   4.440   3.380  0.0973  0.4079  0.3206
   50CHL1    C2 3673   5.517   4.467   3.161 -0.3146 -0.7339  0.4899
   50CHL1   H2A 3674   5.626   4.486   3.152 -0.2485 -1.0389  0.6131
   50CHL1   H2B 3675   5.462   4.537   3.095 -1.4308 -3.1761 -1.3579
   50CHL1   C20 3676   5.163   4.633   4.016 -0.3692  0.4293  0.2569
   50CHL1   H20 3677   5.057   4.651   3.987  0.0266  2.3808 -0.1160
   50CHL1   C21 3678   5.251   4.756   4.001  0.1683  0.3578 -0.6826
   50CHL1  H21A 3679   5.232   4.824   3.916 -0.9488  1.0864  0.1166
   50CHL1  H21B 3680   5.361   4.737   4.007  0.2804  1.0612 -0.3930
   50CHL1  H21C 3681   5.222   4.830   4.078 -1.0045 -1.6331  0.9034
   50CHL1   C22 3682   5.165   4.590   4.159 -0.6637 -0.1691 -0.7330
   50CHL1  H22A 3683   5.109   4.495   4.175 -0.6252  0.1141  1.2942
   50CHL1  H22B 3684   5.273   4.582   4.185 -0.3887  0.9054 -1.4630
   50CHL1   C23 3685   5.101   4.683   4.263 -0.1308  0.4610 -0.9265
   50CHL1  H23A 3686   5.143   4.786   4.272 -0.0857  0.3748 -0.0581
   50CHL1  H23B 3687   4.996   4.687   4.229 -0.4099 -0.3110 -0.1980
   50CHL1   C24 3688   5.106   4.625   4.405 -0.1561 -0.5870 -0.1545
   50CHL1  H24A 3689   5.077   4.518   4.392 -1.9916 -0.2213  0.6372
   50CHL1  H24B 3690   5.211   4.637   4.437 -0.7347  2.9203  0.7640
   50CHL1   C25 3691   5.029   4.696   4.521 -0.2376  0.0627  0.1198
   50CHL1   H25 3692   4.926   4.656   4.516 -1.5230  3.1135 -0.0508
   50CHL1   C26 3693   5.081   4.667   4.663 -0.5882 -0.5746 -0.3951
   50CHL1  H26A 3694   5.179   4.719   4.670  0.0847 -1.8133 -0.4470
   50CHL1  H26B 3695   5.033   4.712   4.752  2.6684 -1.7498  2.1394
   50CHL1  H26C 3696   5.081   4.558   4.680  1.3294 -0.8472 -1.7703
   50CHL1   C27 3697   5.011   4.848   4.507 -0.1170  0.3071 -0.1349
   50CHL1  H27A 3698   4.971   4.874   4.407  1.3024  1.1481 -0.5122
   50CHL1  H27B 3699   4.948   4.884   4.590 -0.0846  1.0391 -0.4202
   50CHL1  H27C 3700   5.112   4.893   4.519  0.4192 -0.6352 -0.9255
   51CHL1    C3 3701   0.854   3.178   3.148 -0.3163 -0.3290 -0.2115
   51CHL1    H3 3702   0.917   3.266   3.175 -1.1215  0.1909  0.0120
   51CHL1    O3 3703   0.873   3.148   3.013  0.2141 -0.3826  0.4929
   51CHL1   H3' 3704   0.969   3.151   3.007  0.2152  1.6714  0.9040
   51CHL1    C4 3705   0.893   3.058   3.237 -0.4039 -0.1041 -0.1511
   51CHL1   H4A 3706   0.829   2.973   3.203 -0.9108  1.1279 -2.4131
   51CHL1   H4B 3707   0.996   3.031   3.207 -1.0867 -0.8743 -1.9018
   51CHL1    C5 3708   0.873   3.094   3.377  0.5384  0.3578 -0.7524
   51CHL1    C6 3709   0.982   3.093   3.459 -0.5406 -0.7013  0.0490
   51CHL1    H6 3710   1.080   3.066   3.417 -1.3662 -4.5827  0.2587
   51CHL1    C7 3711   0.979   3.133   3.603 -0.3898  0.0230 -0.3866
   51CHL1   H7A 3712   1.050   3.075   3.666  0.9360 -0.2680 -2.0903
   51CHL1   H7B 3713   1.027   3.232   3.619 -1.4268  0.4793 -0.0294
   51CHL1    C8 3714   0.834   3.131   3.664 -0.1367  0.3550  0.8138
   51CHL1    H8 3715   0.818   3.021   3.672  3.5884 -0.2417  1.8096
   51CHL1   C14 3716   0.834   3.199   3.796 -0.0865 -0.1074  0.5966
   51CHL1   H14 3717   0.878   3.299   3.777  0.1988 -0.5772 -1.5166
   51CHL1   C15 3718   0.921   3.131   3.902  0.2066 -0.8804  0.2363
   51CHL1  H15A 3719   0.900   3.022   3.907  0.4576 -0.8984  0.9745
   51CHL1  H15B 3720   1.028   3.156   3.890 -0.4901  3.2544  0.9770
   51CHL1   C16 3721   0.865   3.200   4.032  0.2593  1.0094  0.7309
   51CHL1  H16A 3722   0.881   3.134   4.120  2.4627  0.5927  0.0776
   51CHL1  H16B 3723   0.938   3.281   4.054 -0.9325  1.5626  2.8962
   51CHL1   C17 3724   0.726   3.260   4.001 -0.0168 -0.0391  0.3562
   51CHL1   H17 3725   0.747   3.368   3.986  1.9749 -0.6989 -2.3127
   51CHL1   C13 3726   0.693   3.214   3.857 -0.7739 -0.4826  0.2025
   51CHL1   C18 3727   0.630   3.077   3.880  0.3791  0.4692  0.6912
   51CHL1  H18A 3728   0.527   3.064   3.920  0.1615 -2.3429 -0.5513
   51CHL1  H18B 3729   0.642   3.027   3.782 -1.2358  0.6071  0.4035
   51CHL1  H18C 3730   0.689   3.018   3.954 -0.6859 -1.2971  0.1778
   51CHL1   C12 3731   0.609   3.309   3.761  0.5412 -0.5231 -0.3072
   51CHL1  H12A 3732   0.510   3.328   3.808  1.7352  1.9227  1.4536
   51CHL1  H12B 3733   0.664   3.405   3.760  1.4580 -1.0398 -0.4521
   51CHL1   C11 3734   0.600   3.235   3.623 -0.6823 -0.2366 -0.0022
   51CHL1  H11A 3735   0.541   3.143   3.643  0.6716 -1.4129 -1.1869
   51CHL1  H11B 3736   0.551   3.298   3.545  0.5296  0.4119 -0.2589
   51CHL1    C9 3737   0.733   3.205   3.562  0.4182  0.3121 -0.3536
   51CHL1    H9 3738   0.786   3.299   3.541 -1.0382  1.1861 -0.2837
   51CHL1   C10 3739   0.734   3.138   3.416 -0.0771  0.3690 -0.6037
   51CHL1   C19 3740   0.657   3.002   3.425 -0.1794 -0.3697 -0.4579
   51CHL1  H19A 3741   0.558   3.039   3.460 -0.0869 -0.4185 -0.1357
   51CHL1  H19B 3742   0.657   2.951   3.327  0.7094 -0.6004 -0.3455
   51CHL1  H19C 3743   0.711   2.933   3.494  0.5775  0.8659  0.2214
   51CHL1    C1 3744   0.671   3.232   3.310 -0.4002 -0.3143  0.0576
   51CHL1   H1A 3745   0.560   3.223   3.318 -0.4361  0.1439  0.0727
   51CHL1   H1B 3746   0.704   3.334   3.337  0.4896 -0.7579  0.6971
   51CHL1    C2 3747   0.704   3.202   3.162 -0.5908  0.5795  0.8663
   51CHL1   H2A 3748   0.676   3.283   3.091 -0.9450 -1.7736 -1.8817
   51CHL1   H2B 3749   0.648   3.113   3.124  0.8998  0.1738 -0.4921
   51CHL1   C20 3750   0.633   3.246   4.122 -0.3208 -0.1081 -0.2943
   51CHL1   H20 3751   0.625   3.137   4.136  0.6004 -0.5046 -2.4519
   51CHL1   C21 3752   0.499   3.316   4.095  0.2758 -0.1479  0.2979
   51CHL1  H21A 3753   0.461   3.356   4.192  1.2114  2.7400 -0.4300
   51CHL1  H21B 3754   0.428   3.251   4.040  0.5899  0.2320 -0.5787
   51CHL1  H21C 3755   0.508   3.409   4.035  2.0044  0.2168  1.0752
   51CHL1   C22 3756   0.692   3.303   4.254  0.2679  0.1378  0.0119
   51CHL1  H22A 3757   0.620   3.273   4.334 -1.4851 -0.6003 -1.7592
   51CHL1  H22B 3758   0.783   3.249   4.287  0.0399  0.0507  0.5147
   51CHL1   C23 3759   0.715   3.454   4.267 -0.1882 -0.7892  0.6918
   51CHL1  H23A 3760   0.812   3.479   4.218 -0.1877 -1.8638  0.0934
   51CHL1  H23B 3761   0.634   3.509   4.215  0.2294  0.8157  1.6911
   51CHL1   C24 3762   0.724   3.507   4.408 -0.0466 -0.3235  0.4466
   51CHL1  H24A 3763   0.787   3.446   4.476 -1.4294 -0.8953  1.2707
   51CHL1  H24B 3764   0.770   3.608   4.408 -1.3938  0.3323  1.5345
   51CHL1   C25 3765   0.593   3.543   4.490 -0.1053  0.6170  0.8274
   51CHL1   H25 3766   0.549   3.444   4.514  2.0366 -0.0909  2.0582
   51CHL1   C26 3767   0.619   3.610   4.616 -0.6538  0.1221  0.3455
   51CHL1  H26A 3768   0.690   3.555   4.681 -2.3126 -0.6190  1.5895
   51CHL1  H26B 3769   0.662   3.713   4.609  0.0669 -0.1658  0.4190
   51CHL1  H26C 3770   0.529   3.610   4.681  0.2428  0.6609  1.6467
   51CHL1   C27 3771   0.484   3.613   4.411  0.2198  0.4052 -0.2281
   51CHL1  H27A 3772   0.523   3.715   4.388 -1.1494  0.7040 -1.3910
   51CHL1  H27B 3773   0.459   3.560   4.316 -1.9591  0.1830  0.4276
   51CHL1  H27C 3774   0.400   3.614   4.484  0.1349 -0.3856 -0.3027
   52CHL1    C3 3775   1.793   2.274   3.193 -1.2135  0.4582  0.6665
   52CHL1    H3 3776   1.711   2.203   3.217 -4.2181  3.2726 -0.5801
   52CHL1    O3 3777   1.808   2.268   3.053  0.3687 -0.0367 -0.4806
   52CHL1   H3' 3778   1.892   2.313   3.042 -1.8271  4.1605 -2.7817
   52CHL1    C4 3779   1.759   2.418   3.225  0.0502  0.0546  0.1230
   52CHL1   H4A 3780   1.842   2.487   3.198 -0.0751  1.2023  2.4363
   52CHL1   H4B 3781   1.675   2.462   3.168  0.2293  1.9477  1.2468
   52CHL1    C5 3782   1.750   2.429   3.374  0.5103 -0.9819 -0.1864
   52CHL1    C6 3783   1.633   2.472   3.436 -0.7133 -0.3319  0.3407
   52CHL1    H6 3784   1.545   2.496   3.375 -0.1911 -0.0135 -0.2885
   52CHL1    C7 3785   1.620   2.499   3.583  0.9191  0.1211  0.0244
   52CHL1   H7A 3786   1.572   2.596   3.609  1.5584  1.7913 -4.1640
   52CHL1   H7B 3787   1.554   2.418   3.621  2.1683 -1.1757 -0.4589
   52CHL1    C8 3788   1.754   2.498   3.657 -0.7365  0.3602  1.0321
   52CHL1    H8 3789   1.801   2.595   3.632 -0.2956 -0.0067  0.4215
   52CHL1   C14 3790   1.742   2.496   3.807 -0.2502 -0.5141  0.3827
   52CHL1   H14 3791   1.716   2.393   3.838 -0.0153 -0.0181  2.4420
   52CHL1   C15 3792   1.641   2.587   3.880 -0.4111 -0.1389 -0.0323
   52CHL1  H15A 3793   1.653   2.688   3.834  1.4230 -0.0634  0.4902
   52CHL1  H15B 3794   1.533   2.564   3.872 -0.6942  1.1393 -0.0693
   52CHL1   C16 3795   1.695   2.607   4.022 -0.4575 -0.1205 -0.9841
   52CHL1  H16A 3796   1.726   2.713   4.040  0.0422 -0.4687  0.3719
   52CHL1  H16B 3797   1.627   2.590   4.108 -0.6918  0.1010 -1.1243
   52CHL1   C17 3798   1.822   2.527   4.034 -0.4752 -0.5581 -0.5123
   52CHL1   H17 3799   1.799   2.421   4.054  1.4690 -1.1962 -1.4150
   52CHL1   C13 3800   1.874   2.522   3.883  0.1456 -0.8318 -0.1019
   52CHL1   C18 3801   1.938   2.659   3.851  0.7649  0.5932 -0.4855
   52CHL1  H18A 3802   1.879   2.752   3.861 -0.6974 -0.1755 -1.5722
   52CHL1  H18B 3803   2.024   2.669   3.921  0.1892 -1.8258  0.6688
   52CHL1  H18C 3804   1.976   2.663   3.747  1.1960  0.6135 -0.3309
   52CHL1   C12 3805   1.963   2.408   3.841 -0.1206  0.3181  0.3156
   52CHL1  H12A 3806   2.064   2.411   3.887  1.5218  2.1240 -3.0544
   52CHL1  H12B 3807   1.923   2.308   3.870  0.6418  0.3340  1.4782
   52CHL1   C11 3808   1.984   2.399   3.693  0.5243  0.3430  0.0339
   52CHL1  H11A 3809   2.039   2.495   3.681  0.0771  0.6123  0.1169
   52CHL1  H11B 3810   2.042   2.310   3.661  0.1845  1.2727 -3.7258
   52CHL1    C9 3811   1.851   2.392   3.611  0.1058  0.1679  0.6207
   52CHL1    H9 3812   1.798   2.298   3.637 -0.5132  0.4070  0.2372
   52CHL1   C10 3813   1.870   2.392   3.462 -0.0159 -0.0588  0.3922
   52CHL1   C19 3814   1.979   2.489   3.430 -0.2987 -0.8670  0.1100
   52CHL1  H19A 3815   2.076   2.445   3.463  0.7948 -0.5518 -2.4820
   52CHL1  H19B 3816   2.009   2.499   3.324  0.5262  1.2247  0.5015
   52CHL1  H19C 3817   1.954   2.587   3.477 -0.1856 -0.2191 -1.1489
   52CHL1    C1 3818   1.900   2.253   3.410 -0.4814  0.9469  0.7570
   52CHL1   H1A 3819   1.984   2.205   3.465 -0.6064  0.9115  0.9187
   52CHL1   H1B 3820   1.824   2.178   3.440 -0.4083 -0.5420 -2.4157
   52CHL1    C2 3821   1.927   2.236   3.262 -0.0069 -0.2916  0.5938
   52CHL1   H2A 3822   1.952   2.130   3.242  1.1994  0.3886 -2.0786
   52CHL1   H2B 3823   2.007   2.300   3.218 -1.0974  0.0986 -0.9280
   52CHL1   C20 3824   1.912   2.591   4.153  0.9472  1.1855  0.0128
   52CHL1   H20 3825   1.928   2.699   4.129 -2.6607  1.3503 -2.4706
   52CHL1   C21 3826   2.037   2.512   4.159 -1.3987 -0.2312  0.5121
   52CHL1  H21A 3827   2.013   2.404   4.163 -0.8127 -0.3323  1.7890
   52CHL1  H21B 3828   2.104   2.539   4.244 -0.0128  0.3042 -0.6953
   52CHL1  H21C 3829   2.099   2.525   4.067 -1.0107 -0.2539  0.7659
   52CHL1   C22 3830   1.846   2.598   4.285  0.4153 -0.1871  0.0924
   52CHL1  H22A 3831   1.919   2.633   4.360  0.7192 -0.9958  0.1857
   52CHL1  H22B 3832   1.768   2.676   4.283  0.5963 -0.0171 -0.4464
   52CHL1   C23 3833   1.774   2.466   4.334 -0.7219 -0.0549 -0.4463
   52CHL1  H23A 3834   1.675   2.468   4.284 -2.1622  0.8494  2.2501
   52CHL1  H23B 3835   1.829   2.371   4.314  0.7487  0.4169  1.1933
   52CHL1   C24 3836   1.745   2.478   4.482  0.7214 -0.3597 -0.5122
   52CHL1  H24A 3837   1.836   2.514   4.535 -1.0466  1.9120  1.1803
   52CHL1  H24B 3838   1.676   2.563   4.502 -0.4474 -1.6020  1.0197
   52CHL1   C25 3839   1.684   2.357   4.551  0.0618 -1.2147 -0.6518
   52CHL1   H25 3840   1.598   2.327   4.488  0.1537 -1.5720 -0.6130
   52CHL1   C26 3841   1.775   2.240   4.571  0.1457  0.0003 -0.1645
   52CHL1  H26A 3842   1.714   2.161   4.619 -0.1129  0.5927  0.5002
   52CHL1  H26B 3843   1.826   2.208   4.478  0.3240 -1.4866  0.4040
   52CHL1  H26C 3844   1.856   2.257   4.645 -0.3539 -2.5739  1.0844
   52CHL1   C27 3845   1.613   2.394   4.683 -0.4886 -0.2325  0.3213
   52CHL1  H27A 3846   1.689   2.412   4.762  0.1519  2.8898 -0.8253
   52CHL1  H27B 3847   1.554   2.487   4.672 -0.8573 -0.6470 -1.4606
   52CHL1  H27C 3848   1.547   2.309   4.711 -1.0465 -0.0956 -0.5371
   53CHL1    C3 3849   2.824   6.753   3.137  0.2375 -0.1127  0.1926
   53CHL1    H3 3850   2.907   6.827   3.128  0.4702 -0.5226 -1.2278
   53CHL1    O3 3851   2.837   6.675   3.018  0.0412 -0.0938  0.4269
   53CHL1   H3' 3852   2.771   6.606   3.026 -0.4635  0.4366  0.9253
   53CHL1    C4 3853   2.837   6.663   3.265  0.2279 -0.5442 -0.2460
   53CHL1   H4A 3854   2.771   6.574   3.256  0.2676 -0.5775 -0.2093
   53CHL1   H4B 3855   2.939   6.625   3.247 -0.0902 -0.7828 -1.6221
   53CHL1    C5 3856   2.816   6.746   3.389  0.2613 -0.4269  0.1665
   53CHL1    C6 3857   2.906   6.747   3.486  0.5789  0.8225 -0.3813
   53CHL1    H6 3858   2.994   6.681   3.479 -0.7379 -0.8595 -1.7833
   53CHL1    C7 3859   2.894   6.834   3.609  0.3066  1.0156 -0.0027
   53CHL1   H7A 3860   2.937   6.772   3.691 -1.2885 -0.3381 -0.1279
   53CHL1   H7B 3861   2.966   6.918   3.598 -0.0122  1.5511  1.6892
   53CHL1    C8 3862   2.746   6.870   3.634  0.0557  0.3204  0.5455
   53CHL1    H8 3863   2.682   6.784   3.664 -2.9981  1.6018 -1.7327
   53CHL1   C14 3864   2.734   6.972   3.747  0.0766 -0.0376  0.1274
   53CHL1   H14 3865   2.802   7.048   3.701 -0.9492  0.1937 -1.0718
   53CHL1   C15 3866   2.797   6.931   3.876  0.2266 -0.0912 -0.5900
   53CHL1  H15A 3867   2.777   6.829   3.916  3.5451 -1.1653 -1.2905
   53CHL1  H15B 3868   2.907   6.937   3.860  0.6496  0.9028  2.1433
   53CHL1   C16 3869   2.745   7.033   3.979  0.4070  0.4302 -0.2741
   53CHL1  H16A 3870   2.688   6.978   4.057  0.5023  1.1152  0.2864
   53CHL1  H16B 3871   2.831   7.090   4.019 -0.3320  0.2083  1.7561
   53CHL1   C17 3872   2.646   7.129   3.900  0.1227  0.5494 -0.1253
   53CHL1   H17 3873   2.711   7.205   3.851  1.2522  0.2426  0.8584
   53CHL1   C13 3874   2.599   7.045   3.777  0.1770  0.0719 -0.0275
   53CHL1   C18 3875   2.490   6.944   3.823 -0.2200  0.2314  0.1793
   53CHL1  H18A 3876   2.487   6.854   3.758  0.3704  0.9239 -0.8274
   53CHL1  H18B 3877   2.496   6.917   3.931  2.4035 -3.7602 -0.7874
   53CHL1  H18C 3878   2.387   6.988   3.827 -2.2117 -4.0095  0.6799
   53CHL1   C12 3879   2.552   7.111   3.653 -0.8143 -0.3189  0.4245
   53CHL1  H12A 3880   2.453   7.160   3.668  0.7582  2.3699  3.0821
   53CHL1  H12B 3881   2.623   7.188   3.619 -1.7767 -0.2442 -1.5625
   53CHL1   C11 3882   2.550   7.007   3.538  0.7968  0.3296  0.2734
   53CHL1  H11A 3883   2.475   6.927   3.558 -0.2083  0.5405 -2.1759
   53CHL1  H11B 3884   2.525   7.066   3.447  2.0402 -0.7812 -0.8426
   53CHL1    C9 3885   2.685   6.933   3.510 -0.8466 -0.5831 -0.1845
   53CHL1    H9 3886   2.746   7.018   3.476 -0.7392 -0.5712  0.0339
   53CHL1   C10 3887   2.686   6.837   3.386  0.2124  0.4329 -0.6811
   53CHL1   C19 3888   2.564   6.738   3.404 -0.1071  0.5797  0.0034
   53CHL1  H19A 3889   2.461   6.780   3.403 -1.1780 -1.8345  1.1541
   53CHL1  H19B 3890   2.570   6.655   3.331 -0.8045  0.9093 -0.4416
   53CHL1  H19C 3891   2.573   6.688   3.503 -2.6030 -0.9254 -0.4544
   53CHL1    C1 3892   2.674   6.912   3.252  0.1756 -0.7269 -0.1460
   53CHL1   H1A 3893   2.572   6.957   3.259  0.0004 -1.3133  1.5055
   53CHL1   H1B 3894   2.754   6.990   3.245  0.7998 -1.2949  0.4658
   53CHL1    C2 3895   2.687   6.820   3.129 -0.4265 -0.1184 -0.2922
   53CHL1   H2A 3896   2.680   6.886   3.040 -1.4962 -0.2810 -0.3379
   53CHL1   H2B 3897   2.605   6.746   3.117 -0.6923 -0.0180  0.7561
   53CHL1   C20 3898   2.548   7.196   3.999  1.0714  0.3547  0.1474
   53CHL1   H20 3899   2.508   7.113   4.060  1.0422  0.0421 -0.2933
   53CHL1   C21 3900   2.434   7.266   3.918  0.2868 -0.1360 -0.1856
   53CHL1  H21A 3901   2.368   7.318   3.990 -0.0843 -0.2849 -0.4169
   53CHL1  H21B 3902   2.373   7.189   3.867 -1.3322 -1.1367  3.0088
   53CHL1  H21C 3903   2.479   7.337   3.844  0.2933 -1.1410 -1.1635
   53CHL1   C22 3904   2.618   7.303   4.093 -0.0902 -0.7379  0.5314
   53CHL1  H22A 3905   2.714   7.261   4.128  1.0492 -1.5966 -3.1324
   53CHL1  H22B 3906   2.672   7.379   4.033  0.7682 -1.4757  0.3451
   53CHL1   C23 3907   2.543   7.367   4.210 -0.0383  0.5227 -0.2086
   53CHL1  H23A 3908   2.607   7.437   4.268 -0.7756 -0.0315  1.3544
   53CHL1  H23B 3909   2.473   7.438   4.162 -0.3957 -0.9640 -1.9671
   53CHL1   C24 3910   2.463   7.268   4.300 -0.7004 -0.4361  0.1613
   53CHL1  H24A 3911   2.371   7.220   4.259 -0.6400 -0.7502  0.3930
   53CHL1  H24B 3912   2.530   7.192   4.345 -1.0723 -1.2199 -0.5710
   53CHL1   C25 3913   2.412   7.351   4.418  0.1753 -0.5447 -0.1037
   53CHL1   H25 3914   2.505   7.394   4.461  0.5170  0.0303 -1.3764
   53CHL1   C26 3915   2.312   7.455   4.367  0.4539  0.5581  0.5590
   53CHL1  H26A 3916   2.273   7.519   4.450 -1.9909 -0.4136  0.2603
   53CHL1  H26B 3917   2.355   7.522   4.291 -0.4362  0.7457  0.2095
   53CHL1  H26C 3918   2.215   7.409   4.338 -0.8208  0.7799  3.9451
   53CHL1   C27 3919   2.360   7.269   4.541  0.4029  0.2350  0.8122
   53CHL1  H27A 3920   2.310   7.178   4.501  2.2144 -1.2004  1.7026
   53CHL1  H27B 3921   2.451   7.236   4.595  1.1611  0.5627 -0.2486
   53CHL1  H27C 3922   2.297   7.332   4.608  2.0961  0.7317  2.0147
   54CHL1    C3 3923   0.037   3.674   3.292  0.2269 -0.4576 -0.3066
   54CHL1    H3 3924  -0.067   3.645   3.265 -0.6442  0.0202  2.2307
   54CHL1    O3 3925   0.131   3.658   3.189 -0.0205 -0.0507  0.2215
   54CHL1   H3' 3926   0.141   3.565   3.169 -0.6144 -0.0438 -0.1503
   54CHL1    C4 3927   0.031   3.817   3.344  0.0279  0.5399  0.4099
   54CHL1   H4A 3928   0.132   3.862   3.357 -0.3836  1.4590  0.4664
   54CHL1   H4B 3929  -0.001   3.885   3.262 -0.5246  0.6137  0.6809
   54CHL1    C5 3930  -0.051   3.841   3.469 -0.1357  0.2255  0.4347
   54CHL1    C6 3931  -0.160   3.921   3.471 -0.1232  0.0780  0.1342
   54CHL1    H6 3932  -0.185   3.973   3.377 -0.8966 -1.1474 -0.3697
   54CHL1    C7 3933  -0.231   3.948   3.604 -0.7148  0.4805  0.4667
   54CHL1   H7A 3934  -0.262   4.054   3.615 -1.0302  0.4188  0.1798
   54CHL1   H7B 3935  -0.325   3.891   3.593 -2.0987  2.8405 -0.7363
   54CHL1    C8 3936  -0.162   3.898   3.728 -0.3374  0.4395 -0.1061
   54CHL1    H8 3937  -0.079   3.966   3.759 -0.3878 -0.1104  1.3133
   54CHL1   C14 3938  -0.260   3.894   3.841  0.8959  0.3849  0.4189
   54CHL1   H14 3939  -0.339   3.824   3.806  1.7903  0.2223 -1.3909
   54CHL1   C15 3940  -0.320   4.036   3.884 -0.2490  0.0991 -0.0275
   54CHL1  H15A 3941  -0.237   4.109   3.884  1.3894 -1.6808  0.9064
   54CHL1  H15B 3942  -0.402   4.066   3.815  0.3971 -0.5997 -1.1262
   54CHL1   C16 3943  -0.380   4.003   4.024  0.3812 -0.3369 -0.0632
   54CHL1  H16A 3944  -0.358   4.084   4.098  0.0043 -0.6951  0.4492
   54CHL1  H16B 3945  -0.490   4.005   4.006  0.4509  0.4345 -0.4579
   54CHL1   C17 3946  -0.332   3.863   4.067 -1.2091 -0.3028  0.6155
   54CHL1   H17 3947  -0.410   3.797   4.024 -0.4481  0.2570 -1.7658
   54CHL1   C13 3948  -0.212   3.831   3.972 -0.1184 -0.8997 -0.6264
   54CHL1   C18 3949  -0.089   3.916   4.036 -0.3418  0.4400 -1.1126
   54CHL1  H18A 3950   0.008   3.905   3.983 -0.7777  2.2492 -2.3417
   54CHL1  H18B 3951  -0.117   4.023   4.031  0.1309  0.6117 -0.3070
   54CHL1  H18C 3952  -0.063   3.882   4.139 -1.3699  0.5289 -0.8122
   54CHL1   C12 3953  -0.173   3.690   3.949  0.2972 -0.3544  0.9922
   54CHL1  H12A 3954  -0.136   3.644   4.044 -1.9012 -2.4735  0.9197
   54CHL1  H12B 3955  -0.252   3.621   3.913 -0.3678  2.5209 -3.9229
   54CHL1   C11 3956  -0.060   3.686   3.836  0.2310 -0.7580 -0.1083
   54CHL1  H11A 3957   0.033   3.736   3.868 -0.1409  1.4067 -2.0751
   54CHL1  H11B 3958  -0.041   3.580   3.809  0.7718  0.0699 -3.4244
   54CHL1    C9 3959  -0.107   3.753   3.704 -0.7201 -0.4857 -0.5879
   54CHL1    H9 3960  -0.201   3.697   3.683 -1.7936  0.6985  0.8608
   54CHL1   C10 3961  -0.010   3.750   3.582  0.0359  0.0513 -0.3019
   54CHL1   C19 3962   0.131   3.785   3.642 -0.8482 -0.3406  0.3792
   54CHL1  H19A 3963   0.131   3.881   3.696  1.5250 -0.2294  0.2764
   54CHL1  H19B 3964   0.167   3.713   3.718  1.8492  2.5235  2.0195
   54CHL1  H19C 3965   0.199   3.790   3.554 -0.0701  0.1252  0.9964
   54CHL1    C1 3966  -0.016   3.600   3.525  0.2018  0.3205  0.7820
   54CHL1   H1A 3967   0.010   3.532   3.609 -1.8867 -1.0220  0.3934
   54CHL1   H1B 3968  -0.117   3.569   3.493  0.7585  0.4194 -1.2079
   54CHL1    C2 3969   0.080   3.582   3.409 -0.7547  0.4839  1.3048
   54CHL1   H2A 3970   0.074   3.479   3.368 -4.3964  0.7242  0.9371
   54CHL1   H2B 3971   0.189   3.597   3.425 -0.8522  2.1950  0.5604
   54CHL1   C20 3972  -0.328   3.822   4.213  0.4864  0.1979  0.2421
   54CHL1   H20 3973  -0.245   3.749   4.225  0.5471  0.0873 -0.7821
   54CHL1   C21 3974  -0.456   3.746   4.264 -0.3120  0.3511  0.0259
   54CHL1  H21A 3975  -0.443   3.641   4.229  1.4625 -0.9794  4.0545
   54CHL1  H21B 3976  -0.548   3.778   4.209 -0.5518 -0.4715 -0.0745
   54CHL1  H21C 3977  -0.468   3.739   4.374 -0.6323 -3.6581 -0.1159
   54CHL1   C22 3978  -0.297   3.940   4.314  0.1934  0.6162  0.3342
   54CHL1  H22A 3979  -0.249   4.026   4.263 -2.2761  2.7887  1.4250
   54CHL1  H22B 3980  -0.394   3.980   4.351  0.3187 -0.7613  2.3385
   54CHL1   C23 3981  -0.200   3.904   4.436  0.1581 -0.1781 -0.1137
   54CHL1  H23A 3982  -0.255   3.831   4.500  2.4569 -0.2256  1.9416
   54CHL1  H23B 3983  -0.110   3.844   4.409  0.7937  1.1476 -1.0455
   54CHL1   C24 3984  -0.154   4.034   4.506 -0.6524  0.3672  0.3154
   54CHL1  H24A 3985  -0.083   4.080   4.435 -0.3212 -1.9580 -0.9885
   54CHL1  H24B 3986  -0.240   4.101   4.526  0.4166  1.5619  0.9893
   54CHL1   C25 3987  -0.082   3.995   4.642  0.3711 -0.4853 -0.6091
   54CHL1   H25 3988  -0.003   3.919   4.624  0.9245 -0.8134  2.5562
   54CHL1   C26 3989  -0.027   4.118   4.708  0.0414  0.0151 -0.7290
   54CHL1  H26A 3990   0.007   4.094   4.811  0.0957 -1.0275 -0.9835
   54CHL1  H26B 3991   0.064   4.138   4.648 -0.3937  1.7486 -0.8780
   54CHL1  H26C 3992  -0.096   4.205   4.715 -0.9075 -0.7746 -0.0339
   54CHL1   C27 3993  -0.183   3.934   4.738  0.0718  0.5440 -1.0208
   54CHL1  H27A 3994  -0.143   3.924   4.841  0.1222  1.9084 -0.8837
   54CHL1  H27B 3995  -0.281   3.987   4.745  0.5585  1.2407  2.2440
   54CHL1  H27C 3996  -0.209   3.828   4.721 -0.6376  0.5604 -0.1186
   55CHL1    C3 3997   6.532   5.568   3.012 -0.5500 -0.5280  0.7940
   55CHL1    H3 3998   6.451   5.493   3.004  0.1225 -1.1795  0.0053
   55CHL1    O3 3999   6.604   5.574   2.892 -0.1502  0.0764  0.2762
   55CHL1   H3' 4000   6.541   5.627   2.843  0.6990  2.9118  2.0434
   55CHL1    C4 4001   6.478   5.716   3.025 -0.5899  0.0087 -0.1145
   55CHL1   H4A 4002   6.567   5.782   3.017 -0.7054  0.1903  0.0865
   55CHL1   H4B 4003   6.408   5.739   2.942 -1.3392  0.6544  0.6782
   55CHL1    C5 4004   6.413   5.744   3.163 -0.0734 -0.2056 -0.4362
   55CHL1    C6 4005   6.282   5.790   3.170  0.8172 -0.5059 -0.1915
   55CHL1    H6 4006   6.228   5.815   3.077  1.1703 -0.2342 -0.3240
   55CHL1    C7 4007   6.211   5.810   3.298 -0.3231 -0.6246  0.7408
   55CHL1   H7A 4008   6.155   5.906   3.301 -0.2583 -0.6036  1.2685
   55CHL1   H7B 4009   6.144   5.722   3.308  0.6522 -1.7710 -1.8391
   55CHL1    C8 4010   6.311   5.813   3.416  0.3957  0.2289 -0.3544
   55CHL1    H8 4011   6.370   5.907   3.408  1.1453 -0.3203 -1.4960
   55CHL1   C14 4012   6.230   5.815   3.541 -0.0389  0.1102 -1.0962
   55CHL1   H14 4013   6.188   5.713   3.549 -0.1410  0.0483 -2.2334
   55CHL1   C15 4014   6.123   5.925   3.553 -0.3680  0.1949  0.4826
   55CHL1  H15A 4015   6.155   6.018   3.501  1.9653 -0.8072  0.0175
   55CHL1  H15B 4016   6.021   5.895   3.522 -0.4935 -1.7405  2.5504
   55CHL1   C16 4017   6.111   5.956   3.697 -0.2053  0.1704  0.0449
   55CHL1  H16A 4018   6.139   6.062   3.714 -0.2982  0.0925  0.6990
   55CHL1  H16B 4019   6.006   5.956   3.731 -0.6827  1.2205 -1.3260
   55CHL1   C17 4020   6.197   5.848   3.764  0.3590 -0.0094 -0.2986
   55CHL1   H17 4021   6.129   5.760   3.759  1.3779 -0.9849  1.7861
   55CHL1   C13 4022   6.312   5.819   3.671  0.0496  0.4636  0.3568
   55CHL1   C18 4023   6.406   5.940   3.681 -0.3273  0.1229  0.5224
   55CHL1  H18A 4024   6.343   6.029   3.662 -0.8256 -0.3119  0.1122
   55CHL1  H18B 4025   6.459   5.939   3.779 -1.5246 -1.0778  1.1858
   55CHL1  H18C 4026   6.479   5.941   3.597 -1.1298 -0.8551 -0.2061
   55CHL1   C12 4027   6.396   5.691   3.674 -0.0066 -0.1111 -0.2852
   55CHL1  H12A 4028   6.466   5.683   3.760  0.0412  0.8231 -0.2239
   55CHL1  H12B 4029   6.338   5.596   3.675  1.2222 -0.9512 -2.3825
   55CHL1   C11 4030   6.484   5.681   3.551  0.3437 -0.1888 -0.3628
   55CHL1  H11A 4031   6.561   5.760   3.552 -0.3033  0.4727 -1.4737
   55CHL1  H11B 4032   6.533   5.581   3.551 -1.1552 -0.9858  1.1956
   55CHL1    C9 4033   6.402   5.696   3.411 -0.2412  0.4933 -0.7344
   55CHL1    H9 4034   6.339   5.604   3.408 -1.9541  1.6651 -1.4441
   55CHL1   C10 4035   6.493   5.696   3.292 -0.1981 -0.0719  0.4300
   55CHL1   C19 4036   6.621   5.779   3.317  0.9241  0.4255  0.1162
   55CHL1  H19A 4037   6.603   5.880   3.361 -0.1707 -0.0592  0.8167
   55CHL1  H19B 4038   6.690   5.724   3.384  0.2687 -0.5946 -0.0209
   55CHL1  H19C 4039   6.679   5.806   3.226  0.2055  2.4304  0.1995
   55CHL1    C1 4040   6.545   5.555   3.259  0.2212 -0.4418  0.0804
   55CHL1   H1A 4041   6.610   5.523   3.343 -1.2577  0.2428  1.5366
   55CHL1   H1B 4042   6.453   5.493   3.252 -1.7752  2.3908 -0.6567
   55CHL1    C2 4043   6.621   5.540   3.127 -0.1274 -0.6077 -0.7853
   55CHL1   H2A 4044   6.671   5.442   3.119  0.2361 -0.3692 -1.4847
   55CHL1   H2B 4045   6.703   5.615   3.116 -0.2910 -0.1006  1.0115
   55CHL1   C20 4046   6.237   5.867   3.911  0.0765 -1.5868 -0.4549
   55CHL1   H20 4047   6.335   5.917   3.922 -0.6906  0.9763 -3.7695
   55CHL1   C21 4048   6.234   5.735   3.986 -0.2922 -0.1144  1.2098
   55CHL1  H21A 4049   6.137   5.682   3.980  0.3312 -1.1166 -0.5911
   55CHL1  H21B 4050   6.270   5.742   4.091  3.5166  1.1964  0.0095
   55CHL1  H21C 4051   6.313   5.670   3.944 -1.4476 -1.8863  1.6984
   55CHL1   C22 4052   6.137   5.957   3.986  0.2329 -0.5855 -0.1161
   55CHL1  H22A 4053   6.139   6.057   3.937 -4.6730  0.7411  1.7434
   55CHL1  H22B 4054   6.037   5.908   3.982  0.5758 -1.8598  3.4854
   55CHL1   C23 4055   6.166   5.990   4.133  0.8680  0.3438 -0.3916
   55CHL1  H23A 4056   6.087   6.060   4.169  1.9124  0.1334  2.6355
   55CHL1  H23B 4057   6.158   5.893   4.188  1.7943  0.1242 -0.6344
   55CHL1   C24 4058   6.304   6.056   4.149 -0.2723 -0.0354 -0.0425
   55CHL1  H24A 4059   6.380   5.979   4.123  1.3325  1.9680 -1.5676
   55CHL1  H24B 4060   6.331   6.143   4.085 -2.6985  0.4515 -0.4879
   55CHL1   C25 4061   6.338   6.099   4.295  0.5528 -0.4794  0.6099
   55CHL1   H25 4062   6.334   6.001   4.348 -0.0026 -0.0874  1.3131
   55CHL1   C26 4063   6.482   6.150   4.293 -0.2097 -0.1350 -0.5192
   55CHL1  H26A 4064   6.516   6.195   4.389  2.1520  0.6924 -1.6477
   55CHL1  H26B 4065   6.561   6.080   4.257  0.8249  1.2765 -1.1242
   55CHL1  H26C 4066   6.481   6.236   4.222  2.6100  0.4428  0.0033
   55CHL1   C27 4067   6.245   6.205   4.363 -0.4713 -0.5138 -0.1240
   55CHL1  H27A 4068   6.141   6.168   4.361 -1.3657  1.7757  1.2414
   55CHL1  H27B 4069   6.265   6.222   4.471 -0.4159 -0.2705 -0.1721
   55CHL1  H27C 4070   6.250   6.305   4.315 -1.1803 -1.8401 -3.2314
   56CHL1    C3 4071   5.443   3.528   2.906 -0.3016  0.7813  0.6916
   56CHL1    H3 4072   5.399   3.428   2.927  3.4836 -1.1697  0.2712
   56CHL1    O3 4073   5.482   3.517   2.771 -0.0606  0.0563 -0.3023
   56CHL1   H3' 4074   5.526   3.432   2.764 -1.3614 -0.6006 -0.6570
   56CHL1    C4 4075   5.340   3.638   2.929  0.2527  0.4749 -0.0673
   56CHL1   H4A 4076   5.384   3.733   2.891  1.4925 -1.2984 -3.5550
   56CHL1   H4B 4077   5.256   3.637   2.856  1.1427  4.0214 -1.3800
   56CHL1    C5 4078   5.311   3.637   3.080  0.6108  0.6704  0.7214
   56CHL1    C6 4079   5.184   3.635   3.130 -0.3548  0.4005  0.7101
   56CHL1    H6 4080   5.098   3.632   3.061  0.6230  0.6732 -0.5510
   56CHL1    C7 4081   5.160   3.653   3.276  0.2510 -0.1374  0.4114
   56CHL1   H7A 4082   5.080   3.727   3.299 -1.1678 -1.4067 -0.3091
   56CHL1   H7B 4083   5.133   3.555   3.320  1.6721 -1.7151 -2.0340
   56CHL1    C8 4084   5.281   3.702   3.362 -0.2455  0.1596  0.7499
   56CHL1    H8 4085   5.301   3.809   3.339  2.8492  0.1166  2.6654
   56CHL1   C14 4086   5.263   3.684   3.512  0.2866 -0.0775  0.1984
   56CHL1   H14 4087   5.264   3.575   3.534 -2.1718  0.0128  1.0813
   56CHL1   C15 4088   5.126   3.743   3.569  0.2331  1.0206 -0.3070
   56CHL1  H15A 4089   5.122   3.852   3.551  2.6255  0.9662 -1.6427
   56CHL1  H15B 4090   5.036   3.685   3.540  0.8144 -0.3604  0.5284
   56CHL1   C16 4091   5.159   3.726   3.719 -0.2290 -0.1057 -1.1164
   56CHL1  H16A 4092   5.128   3.824   3.762  0.5194 -0.6026  0.6743
   56CHL1  H16B 4093   5.113   3.641   3.773  1.1396 -0.8804 -1.1197
   56CHL1   C17 4094   5.317   3.713   3.739  0.3323 -0.0462  0.2607
   56CHL1   H17 4095   5.330   3.604   3.752  2.7576  0.0137 -1.0819
   56CHL1   C13 4096   5.374   3.737   3.603  0.0884  0.1219 -0.1490
   56CHL1   C18 4097   5.398   3.885   3.574  0.3881 -0.0149  0.1979
   56CHL1  H18A 4098   5.487   3.928   3.625  0.1307 -0.2455  0.8520
   56CHL1  H18B 4099   5.417   3.899   3.466 -0.8636  2.1338  0.1979
   56CHL1  H18C 4100   5.307   3.944   3.598  0.9673  1.5697 -1.3132
   56CHL1   C12 4101   5.488   3.646   3.555  0.7135 -0.3224  0.1526
   56CHL1  H12A 4102   5.578   3.668   3.616  0.6097 -0.8766  0.5207
   56CHL1  H12B 4103   5.468   3.540   3.582  1.1525 -0.1826  1.0812
   56CHL1   C11 4104   5.524   3.652   3.408 -0.5899 -0.3210 -0.3132
   56CHL1  H11A 4105   5.564   3.753   3.389 -1.3545 -0.0587 -0.5597
   56CHL1  H11B 4106   5.595   3.574   3.373 -0.4442 -0.3362  0.0069
   56CHL1    C9 4107   5.405   3.630   3.313  1.1154  0.0926 -0.5871
   56CHL1    H9 4108   5.371   3.527   3.338 -2.3076  1.6864  2.2029
   56CHL1   C10 4109   5.437   3.647   3.167 -0.0303 -0.3324  0.3920
   56CHL1   C19 4110   5.498   3.791   3.147  0.8296  0.2501 -0.2551
   56CHL1  H19A 4111   5.421   3.865   3.177  1.1074  0.3008  0.3317
   56CHL1  H19B 4112   5.598   3.804   3.193  1.5187 -0.2005 -1.5616
   56CHL1  H19C 4113   5.523   3.812   3.041  1.2786  2.4692  0.2360
   56CHL1    C1 4114   5.548   3.540   3.131  0.1881  0.1055  0.4215
   56CHL1   H1A 4115   5.645   3.556   3.182 -0.5362 -1.0214  2.2194
   56CHL1   H1B 4116   5.512   3.439   3.157  2.1200 -1.2451 -1.7032
   56CHL1    C2 4117   5.573   3.535   2.984 -0.6259 -0.2449  0.3257
   56CHL1   H2A 4118   5.642   3.449   2.972 -2.2373 -1.5254 -0.1264
   56CHL1   H2B 4119   5.630   3.623   2.948 -0.3296 -0.1380  1.0307
   56CHL1   C20 4120   5.362   3.783   3.871  0.0615  0.4036 -0.4959
   56CHL1   H20 4121   5.369   3.893   3.858  0.5191  0.3967 -0.3376
   56CHL1   C21 4122   5.504   3.720   3.894 -0.1959  0.3222 -0.0026
   56CHL1  H21A 4123   5.544   3.731   3.998 -0.8205 -0.2814  0.3107
   56CHL1  H21B 4124   5.578   3.772   3.829  1.7540 -2.7441 -0.4427
   56CHL1  H21C 4125   5.503   3.612   3.869 -4.2121  0.3025 -0.2777
   56CHL1   C22 4126   5.270   3.753   3.991 -0.2488 -0.4177 -0.1316
   56CHL1  H22A 4127   5.318   3.802   4.078  1.9375 -3.4908  0.5723
   56CHL1  H22B 4128   5.167   3.793   3.977 -0.0357 -0.8495 -4.0328
   56CHL1   C23 4129   5.236   3.605   4.023  0.4480 -0.8529  0.4727
   56CHL1  H23A 4130   5.219   3.545   3.931 -4.1896  2.1394 -0.9426
   56CHL1  H23B 4131   5.332   3.575   4.072  0.4432  0.9497  1.6898
   56CHL1   C24 4132   5.115   3.588   4.117  0.5691 -0.4967 -0.3178
   56CHL1  H24A 4133   5.139   3.639   4.212 -1.3518  0.9454 -0.5726
   56CHL1  H24B 4134   5.027   3.636   4.071 -0.2358 -0.2556  1.4236
   56CHL1   C25 4135   5.081   3.438   4.140 -0.2824  0.2543 -0.1337
   56CHL1   H25 4136   5.171   3.373   4.138 -1.2324 -1.2610  2.3468
   56CHL1   C26 4137   5.026   3.420   4.279  0.0184 -0.1933 -0.6561
   56CHL1  H26A 4138   5.003   3.312   4.291 -0.8935 -0.0335 -0.8610
   56CHL1  H26B 4139   5.090   3.466   4.357  0.3590 -0.7974 -0.5769
   56CHL1  H26C 4140   4.929   3.474   4.280  0.3085  0.3202  0.0928
   56CHL1   C27 4141   4.977   3.395   4.039  0.5901 -0.2872 -0.3968
   56CHL1  H27A 4142   4.981   3.284   4.040  0.5804 -0.3316  2.2207
   56CHL1  H27B 4143   4.874   3.417   4.077  0.2087  0.9562 -2.0300
   56CHL1  H27C 4144   4.993   3.440   3.939 -0.3208 -0.3554 -0.5816
   57SAPC     N 4145   1.301   1.525   7.019 -0.0892 -0.1539 -0.2923
   57SAPC   C12 4146   1.367   1.620   7.129 -1.0204 -0.0426  0.2267
   57SAPC  H12A 4147   1.345   1.582   7.228  0.7718 -0.2873  0.5709
   57SAPC  H12B 4148   1.322   1.718   7.138 -0.2531  0.4132 -0.6886
   57SAPC   C13 4149   1.363   1.389   7.029  0.0685  0.2972  0.6995
   57SAPC  H13A 4150   1.333   1.326   6.947 -0.1995  0.2315  0.8497
   57SAPC  H13B 4151   1.471   1.396   7.019 -0.1727  1.4970 -1.5778
   57SAPC  H13C 4152   1.338   1.341   7.123 -0.0527  0.2126  0.6239
   57SAPC   C14 4153   1.157   1.514   7.053 -0.7726 -0.6317 -0.4876
   57SAPC  H14A 4154   1.153   1.452   7.142 -1.4435  0.9918  0.6785
   57SAPC  H14B 4155   1.124   1.613   7.085 -0.9307 -0.8323 -0.0125
   57SAPC  H14C 4156   1.089   1.481   6.976 -0.6349 -0.7739 -0.5473
   57SAPC   C15 4157   1.324   1.595   6.882  0.2258 -0.3643 -1.0153
   57SAPC  H15A 4158   1.247   1.666   6.856 -0.7105 -0.8680  0.2874
   57SAPC  H15B 4159   1.419   1.647   6.877 -0.8149  1.9427  1.0922
   57SAPC  H15C 4160   1.308   1.522   6.804  0.9437 -0.3446 -1.1930
   57SAPC   C11 4161   1.515   1.647   7.120  0.1191  0.1910 -0.6271
   57SAPC  H11A 4162   1.564   1.547   7.113 -2.5570 -1.2255 -0.5644
   57SAPC  H11B 4163   1.535   1.687   7.222  1.0937 -0.0273 -0.7194
   57SAPC     P 4164   1.710   1.768   6.999  0.1089 -0.1563  0.2439
   57SAPC   O13 4165   1.728   1.884   6.905 -0.0333  0.7164 -0.0367
   57SAPC   O14 4166   1.778   1.777   7.132  1.0077  0.2294  0.3977
   57SAPC   O12 4167   1.552   1.740   7.023  0.2700  0.2941  0.2208
   57SAPC   O11 4168   1.764   1.639   6.924  0.5149 -0.0112 -0.5543
   57SAPC    C1 4169   1.711   1.593   6.808  0.1941  0.6827 -0.4552
   57SAPC    HA 4170   1.740   1.486   6.800  0.5974  0.5748  1.8057
   57SAPC    HB 4171   1.601   1.605   6.804  0.0656 -0.4057 -0.4576
   57SAPC    C2 4172   1.772   1.671   6.680 -0.8804  0.0509  0.0705
   57SAPC    HS 4173   1.711   1.764   6.676  1.1661  1.5345  1.4112
   57SAPC   O21 4174   1.758   1.602   6.552 -0.0345 -0.1217  0.1997
   57SAPC   C21 4175   1.631   1.599   6.496  0.7936  0.1172 -0.0029
   57SAPC   O22 4176   1.534   1.645   6.551 -0.2791  0.7829 -0.0874
   57SAPC   C22 4177   1.632   1.522   6.367  0.6593 -0.1829  0.4271
   57SAPC   H2R 4178   1.679   1.594   6.296  1.2291 -2.0789 -1.2099
   57SAPC   H2S 4179   1.701   1.437   6.386  1.6969  0.4487 -0.4102
   57SAPC    C3 4180   1.927   1.698   6.706 -0.3819 -0.0287  0.3637
   57SAPC    HX 4181   1.977   1.600   6.725  0.2376 -0.1905 -1.7782
   57SAPC    HY 4182   1.944   1.765   6.793  1.9608  1.0867 -0.8322
   57SAPC   O31 4183   1.989   1.762   6.591 -0.1103 -0.7211  0.5987
   57SAPC   C31 4184   2.037   1.685   6.499  0.3891  0.5135 -0.2903
   57SAPC   O32 4185   2.039   1.563   6.497 -0.8542 -0.0299  0.3367
   57SAPC   C32 4186   2.110   1.767   6.397  0.1023  0.3430 -0.8997
   57SAPC   H2X 4187   2.206   1.786   6.450  0.6316 -1.7313 -1.0097
   57SAPC   H2Y 4188   2.044   1.854   6.383 -0.3488 -0.0588 -1.3069
   57SAPC   C23 4189   1.489   1.474   6.318  0.0236 -1.3573 -0.4828
   57SAPC   H3R 4190   1.423   1.562   6.332  0.0793 -1.7177  2.8640
   57SAPC   H3S 4191   1.467   1.389   6.386  0.1703 -2.7312 -2.0631
   57SAPC   C24 4192   1.490   1.421   6.174 -0.0183  0.3560 -0.5986
   57SAPC   H4R 4193   1.387   1.406   6.134 -0.0095  1.1755 -0.9698
   57SAPC   H4S 4194   1.545   1.325   6.178 -2.7170 -1.2266  1.1736
   57SAPC   C25 4195   1.559   1.526   6.087 -0.1796  0.1170  0.2102
   57SAPC   H5R 4196   1.540   1.631   6.113 -1.7084 -0.3289  0.9647
   57SAPC   C26 4197   1.652   1.501   5.988 -0.6436 -0.0985  0.3298
   57SAPC   H6R 4198   1.692   1.577   5.919 -0.4895 -0.2751  0.2237
   57SAPC   C27 4199   1.696   1.364   5.939 -0.1817 -0.5967 -0.0848
   57SAPC   H7R 4200   1.637   1.344   5.847  1.7919 -1.5356 -1.1929
   57SAPC   H7S 4201   1.663   1.278   6.001 -0.8034  0.4791  1.1305
   57SAPC   C28 4202   1.845   1.343   5.909  0.2366  0.4227  0.9542
   57SAPC   H8R 4203   1.907   1.348   6.000  0.2903  2.5984  0.8376
   57SAPC   C29 4204   1.907   1.345   5.785 -0.1834 -0.1376 -0.1499
   57SAPC   H9R 4205   2.015   1.327   5.779  0.5475  2.9142  1.7918
   57SAPC  C210 4206   1.823   1.366   5.659  0.1175  0.1734  0.6499
   57SAPC  H10R 4207   1.725   1.413   5.683 -0.2459 -0.1839 -0.0948
   57SAPC  H10S 4208   1.793   1.264   5.626 -0.2563  1.2961 -2.8796
   57SAPC  C211 4209   1.895   1.435   5.543 -0.0066  0.3973 -0.2064
   57SAPC  H11R 4210   1.953   1.524   5.575  1.0056  0.1212 -1.2049
   57SAPC  C212 4211   1.903   1.392   5.417  0.0394  0.7864  0.6148
   57SAPC  H12R 4212   1.989   1.427   5.358  0.1150  1.3830  1.0697
   57SAPC  C213 4213   1.835   1.274   5.358 -0.6225 -0.5295  0.6455
   57SAPC  H13R 4214   1.753   1.238   5.425  1.1754 -1.5219  2.4301
   57SAPC  H13S 4215   1.905   1.188   5.353 -0.7456 -0.8000  2.5804
   57SAPC  C214 4216   1.771   1.309   5.225  0.2207  0.1317  0.9275
   57SAPC  H14R 4217   1.666   1.340   5.235 -0.0216 -0.4900  0.3800
   57SAPC  C215 4218   1.838   1.305   5.109 -0.1564 -0.4336 -0.0509
   57SAPC  H15R 4219   1.798   1.342   5.014 -0.8305  0.3014  0.4978
   57SAPC  C216 4220   1.985   1.271   5.082 -0.8340 -0.2477 -0.3266
   57SAPC  H16R 4221   2.040   1.249   5.176 -0.8633  1.4113  0.1046
   57SAPC  H16S 4222   2.035   1.353   5.027 -0.3039  1.4206  2.4412
   57SAPC  C217 4223   2.007   1.134   5.010 -0.7230  0.1872  0.9127
   57SAPC  H17R 4224   1.953   1.138   4.913  0.0063  0.0038  0.4950
   57SAPC  H17S 4225   1.957   1.062   5.078  1.3527 -1.5710  0.6713
   57SAPC  C218 4226   2.146   1.090   4.977  0.1972  0.2757 -0.0886
   57SAPC  H18R 4227   2.207   1.076   5.069 -2.7912  2.1765  2.4222
   57SAPC  H18S 4228   2.192   1.170   4.915 -0.1001 -0.5003 -1.3330
   57SAPC  C219 4229   2.156   0.967   4.890 -0.1237  0.0629  0.5310
   57SAPC  H19R 4230   2.109   0.880   4.941 -2.5162  0.8931 -0.1115
   57SAPC  H19S 4231   2.259   0.930   4.873 -0.2384  0.1462 -0.4348
   57SAPC  C220 4232   2.085   0.966   4.750  0.1508 -0.1469 -0.9181
   57SAPC  H20R 4233   2.150   1.034   4.690  0.1044  1.3950  0.7045
   57SAPC  H20S 4234   1.977   0.991   4.746  0.2017  0.4900  0.9616
   57SAPC  H20T 4235   2.099   0.866   4.702  1.0772 -1.5378  2.0084
   57SAPC   C33 4236   2.140   1.700   6.259  0.1692  0.1800 -0.4237
   57SAPC   H3X 4237   2.201   1.610   6.278  0.9703  0.6594 -0.6984
   57SAPC   H3Y 4238   2.205   1.767   6.199  2.5538 -2.1036 -0.5257
   57SAPC   C34 4239   2.019   1.686   6.162 -0.2217 -0.0192  1.0426
   57SAPC   H4X 4240   1.989   1.791   6.142  0.3030  0.1379  1.0617
   57SAPC   H4Y 4241   1.945   1.620   6.212 -0.4729 -0.8625 -0.4020
   57SAPC   C35 4242   2.057   1.630   6.021 -0.1497 -0.8692  0.7006
   57SAPC   H5X 4243   1.961   1.605   5.971  0.3224  1.1913 -1.3956
   57SAPC   H5Y 4244   2.103   1.532   6.046 -1.6742 -1.3226  1.9522
   57SAPC   C36 4245   2.128   1.719   5.932  0.1374 -0.2070  0.4564
   57SAPC   H6X 4246   2.229   1.755   5.963  0.6627  0.8244 -2.1812
   57SAPC   H6Y 4247   2.066   1.811   5.922 -0.0598 -0.3703  0.2002
   57SAPC   C37 4248   2.143   1.660   5.793 -0.2339  0.1229  0.3794
   57SAPC   H7X 4249   2.046   1.617   5.759 -0.4753  0.0906  1.0917
   57SAPC   H7Y 4250   2.218   1.578   5.793  0.4626  0.6312 -3.0163
   57SAPC   C38 4251   2.194   1.762   5.700  0.6553  0.7610 -0.6431
   57SAPC   H8X 4252   2.296   1.787   5.737  1.2044  1.0417 -2.2661
   57SAPC   H8Y 4253   2.147   1.862   5.691  1.6970  1.1735 -1.8067
   57SAPC   C39 4254   2.219   1.717   5.557  0.7863  0.3412  0.6038
   57SAPC   H9X 4255   2.115   1.698   5.523  1.0943 -1.0556  0.3900
   57SAPC   H9Y 4256   2.266   1.616   5.559  1.4193  0.5228 -2.1387
   57SAPC  C310 4257   2.289   1.813   5.460  0.3191 -0.5320 -0.3389
   57SAPC  H10X 4258   2.382   1.850   5.508 -0.2390  1.3492 -0.6185
   57SAPC  H10Y 4259   2.213   1.888   5.428 -0.9319 -0.2495  2.9310
   57SAPC  C311 4260   2.326   1.745   5.322 -0.0429  0.3222  0.4565
   57SAPC  H11X 4261   2.233   1.710   5.271  0.8036  0.3033 -1.1432
   57SAPC  H11Y 4262   2.384   1.653   5.344  1.0573  1.0757  0.7697
   57SAPC  C312 4263   2.405   1.834   5.219 -0.2163  0.0490  0.9972
   57SAPC  H12X 4264   2.339   1.906   5.166  0.4253 -0.7937 -1.0242
   57SAPC  H12Y 4265   2.440   1.764   5.140 -0.1225 -0.0421  1.1194
   57SAPC  C313 4266   2.530   1.906   5.275  0.3237  0.3843 -0.1123
   57SAPC  H13X 4267   2.603   1.825   5.291  1.7216  1.9019  1.5043
   57SAPC  H13Y 4268   2.514   1.942   5.378 -2.6730 -2.1269  0.4523
   57SAPC  C314 4269   2.590   2.016   5.191  0.1237 -0.0131  0.0275
   57SAPC  H14X 4270   2.523   2.102   5.166  0.6689  0.2040 -0.7423
   57SAPC  H14Y 4271   2.616   1.971   5.092  2.0066  0.5886  0.2077
   57SAPC  C315 4272   2.726   2.068   5.244  0.3158  0.6292 -0.6266
   57SAPC  H15X 4273   2.789   1.978   5.262  0.2014  0.5267 -0.7353
   57SAPC  H15Y 4274   2.709   2.127   5.337  1.2270  1.0959 -0.7489
   57SAPC  C316 4275   2.791   2.169   5.152  0.2445 -0.2322 -0.4660
   57SAPC  H16X 4276   2.886   2.205   5.197 -0.5066  1.1315  0.0813
   57SAPC  H16Y 4277   2.715   2.249   5.137  1.1274  0.5261 -0.9878
   57SAPC  C317 4278   2.818   2.124   5.006 -0.3920 -0.4445 -0.0759
   57SAPC  H17X 4279   2.727   2.143   4.945 -0.3968  3.3687  0.8480
   57SAPC  H17Y 4280   2.836   2.015   5.005 -0.5380 -0.4702 -0.0578
   57SAPC  C318 4281   2.928   2.211   4.943 -0.0864 -0.4126 -1.1410
   57SAPC  H18X 4282   2.908   2.320   4.953  4.5449  0.4973  0.8976
   57SAPC  H18Y 4283   2.928   2.184   4.836  0.1675  2.0799 -1.8365
   57SAPC  H18Z 4284   3.032   2.194   4.980 -0.6150  0.1688  0.7299
   58SAPC     N 4285   5.393   2.676   6.819  0.9849 -0.1210 -0.0673
   58SAPC   C12 4286   5.298   2.676   6.941 -0.1351 -0.1424  0.6428
   58SAPC  H12A 4287   5.230   2.759   6.932 -1.7143 -1.5750 -3.3885
   58SAPC  H12B 4288   5.364   2.681   7.026 -1.4373  2.1064  1.5887
   58SAPC   C13 4289   5.475   2.796   6.825 -0.0999 -0.6424  0.0099
   58SAPC  H13A 4290   5.551   2.787   6.902  0.5642  1.9670 -0.2448
   58SAPC  H13B 4291   5.535   2.808   6.736  0.7163 -2.2933  0.2929
   58SAPC  H13C 4292   5.415   2.883   6.847  1.0073  0.5043 -1.3033
   58SAPC   C14 4293   5.484   2.559   6.820  0.2988 -0.3071 -0.6451
   58SAPC  H14A 4294   5.561   2.579   6.746 -0.3828 -0.3872 -1.3842
   58SAPC  H14B 4295   5.515   2.519   6.916  1.5180  2.5665  0.2774
   58SAPC  H14C 4296   5.439   2.475   6.769  2.3241 -1.4119 -0.7242
   58SAPC   C15 4297   5.308   2.672   6.703  0.8156  0.5894  1.0530
   58SAPC  H15A 4298   5.235   2.592   6.710  0.8878  0.4219  0.1008
   58SAPC  H15B 4299   5.250   2.763   6.702 -2.7892 -1.4688  1.1692
   58SAPC  H15C 4300   5.365   2.662   6.612 -0.1350  2.0300  0.2617
   58SAPC   C11 4301   5.188   2.568   6.962 -0.2591 -0.1477 -0.8237
   58SAPC  H11A 4302   5.152   2.588   7.066  0.7117 -0.3591 -0.4367
   58SAPC  H11B 4303   5.228   2.465   6.966 -1.4382 -0.6018 -0.3208
   58SAPC     P 4304   4.948   2.482   6.894 -0.0093  0.0105 -0.3253
   58SAPC   O13 4305   4.964   2.413   7.024 -0.3232  0.0607  0.4318
   58SAPC   O14 4306   4.828   2.571   6.882 -0.9406  0.2517 -0.5142
   58SAPC   O12 4307   5.078   2.571   6.875 -0.1632  0.0935 -0.2206
   58SAPC   O11 4308   4.954   2.371   6.777  0.4798  0.1193 -0.2939
   58SAPC    C1 4309   5.061   2.285   6.743 -0.0900  0.4341 -0.0227
   58SAPC    HA 4310   5.141   2.269   6.819  0.0968 -0.9179 -0.4806
   58SAPC    HB 4311   5.007   2.189   6.733 -0.9173  1.1191 -4.2768
   58SAPC    C2 4312   5.116   2.332   6.602  1.1714  0.9000 -0.3393
   58SAPC    HS 4313   5.126   2.443   6.601  0.2248  1.0043 -2.1852
   58SAPC   O21 4314   5.001   2.295   6.515 -0.8062 -0.5826  0.7915
   58SAPC   C21 4315   4.981   2.382   6.417 -0.4918 -0.1815 -0.2594
   58SAPC   O22 4316   5.049   2.489   6.403 -0.2508  0.6682  0.2986
   58SAPC   C22 4317   4.871   2.329   6.323 -0.2887  0.2273 -0.3053
   58SAPC   H2R 4318   4.917   2.243   6.269  1.2479 -0.2519  1.6419
   58SAPC   H2S 4319   4.783   2.290   6.378  0.7889  0.2522  1.5272
   58SAPC    C3 4320   5.238   2.249   6.571 -0.7678  0.3559 -0.3436
   58SAPC    HX 4321   5.238   2.144   6.609  1.4951  0.1412 -0.8106
   58SAPC    HY 4322   5.323   2.302   6.619  0.1323 -0.7967 -0.5997
   58SAPC   O31 4323   5.267   2.236   6.429 -0.1666 -0.2291 -0.3083
   58SAPC   C31 4324   5.345   2.331   6.374  1.0935  0.0873 -0.7140
   58SAPC   O32 4325   5.409   2.419   6.431 -0.0921 -0.1021  0.1560
   58SAPC   C32 4326   5.341   2.316   6.220  0.1066 -1.0610  0.7163
   58SAPC   H2X 4327   5.233   2.330   6.198 -0.1646 -1.1637  1.9122
   58SAPC   H2Y 4328   5.372   2.214   6.188 -0.5709 -0.9992 -0.1606
   58SAPC   C23 4329   4.837   2.438   6.219  0.2111 -0.7589 -0.0055
   58SAPC   H3R 4330   4.929   2.461   6.160  0.9223  0.2264  1.4270
   58SAPC   H3S 4331   4.807   2.536   6.261  1.1685 -0.8817  1.0255
   58SAPC   C24 4332   4.736   2.383   6.115 -0.4981 -0.0479 -0.5889
   58SAPC   H4R 4333   4.637   2.367   6.162 -1.0517 -1.9978 -2.2889
   58SAPC   H4S 4334   4.768   2.280   6.089 -5.0513 -2.1715  1.2563
   58SAPC   C25 4335   4.728   2.477   5.990  0.9223  0.9585 -0.8061
   58SAPC   H5R 4336   4.648   2.550   6.015 -0.8067 -1.7063  2.2719
   58SAPC   C26 4337   4.800   2.482   5.877 -0.5833  0.0061  0.2371
   58SAPC   H6R 4338   4.764   2.558   5.806 -2.5640 -1.6190 -0.6171
   58SAPC   C27 4339   4.910   2.386   5.840  0.1961 -1.0484  0.2608
   58SAPC   H7R 4340   4.903   2.375   5.730  0.3052  1.5645 -0.0686
   58SAPC   H7S 4341   4.890   2.290   5.891  1.1360 -0.4746  1.7862
   58SAPC   C28 4342   5.041   2.441   5.887 -0.3767 -0.5663  0.2305
   58SAPC   H8R 4343   5.046   2.516   5.967 -2.7918 -1.8897  1.7329
   58SAPC   C29 4344   5.163   2.409   5.838  1.0242  0.6414 -0.4122
   58SAPC   H9R 4345   5.247   2.469   5.875  0.9628  1.0246 -0.8897
   58SAPC  C210 4346   5.191   2.317   5.723 -0.0049 -0.3062 -0.2912
   58SAPC  H10R 4347   5.268   2.350   5.650 -0.2565  0.4308 -0.2283
   58SAPC  H10S 4348   5.107   2.315   5.651  1.2132 -1.3458 -1.7450
   58SAPC  C211 4349   5.222   2.180   5.764 -0.3501 -0.1193  0.7505
   58SAPC  H11R 4350   5.220   2.160   5.872  0.0110  0.0441  0.7881
   58SAPC  C212 4351   5.263   2.086   5.675 -0.3429  0.1175 -0.0197
   58SAPC  H12R 4352   5.297   1.986   5.709  1.8514 -0.5242 -3.5708
   58SAPC  C213 4353   5.272   2.103   5.532 -1.1271  0.0014 -0.4660
   58SAPC  H13R 4354   5.359   2.171   5.520 -1.7866  1.2862  1.5305
   58SAPC  H13S 4355   5.187   2.162   5.491  0.9798  4.2125  0.7300
   58SAPC  C214 4356   5.290   1.970   5.469 -0.2662  0.4259  0.7497
   58SAPC  H14R 4357   5.395   1.937   5.469 -0.3813  0.0490 -0.0244
   58SAPC  C215 4358   5.197   1.900   5.399 -0.3376 -0.0984  0.0972
   58SAPC  H15R 4359   5.226   1.800   5.364 -0.9668  0.2242 -1.3992
   58SAPC  C216 4360   5.056   1.942   5.371  0.3185  0.0527 -0.2374
   58SAPC  H16R 4361   5.025   2.002   5.459  0.8962  0.6687 -0.4460
   58SAPC  H16S 4362   4.988   1.855   5.367  0.5464 -0.1760  0.7401
   58SAPC  C217 4363   5.035   2.027   5.241 -0.0214 -0.2512 -0.4828
   58SAPC  H17R 4364   5.117   2.101   5.248  0.4608 -0.8237  0.0606
   58SAPC  H17S 4365   4.939   2.081   5.257  1.0123  1.2250  0.9939
   58SAPC  C218 4366   5.019   1.951   5.107  0.0441 -0.7685  0.6501
   58SAPC  H18R 4367   4.912   1.926   5.089 -0.3982  1.0923  0.4888
   58SAPC  H18S 4368   5.071   1.855   5.126  1.1556  0.1428  2.5229
   58SAPC  C219 4369   5.065   2.023   4.977  0.0640  0.2153 -0.5515
   58SAPC  H19R 4370   5.057   1.964   4.883  1.4167  1.4610 -1.4918
   58SAPC  H19S 4371   5.175   2.035   4.984 -0.1687  1.8300  0.8924
   58SAPC  C220 4372   4.992   2.157   4.964 -0.2142 -0.1000  0.1870
   58SAPC  H20R 4373   5.025   2.207   4.871 -0.4695  0.3120  0.3170
   58SAPC  H20S 4374   4.993   2.208   5.063 -0.8305 -0.5062  0.4071
   58SAPC  H20T 4375   4.890   2.132   4.927 -0.1172 -1.3925  0.7308
   58SAPC   C33 4376   5.435   2.416   6.139 -0.0500  0.8279  0.4904
   58SAPC   H3X 4377   5.524   2.456   6.192  0.3538  0.3164  0.2069
   58SAPC   H3Y 4378   5.377   2.503   6.102 -2.3207 -0.8459 -0.1296
   58SAPC   C34 4379   5.490   2.342   6.008  0.1547  0.1280 -0.0981
   58SAPC   H4X 4380   5.406   2.291   5.957 -0.2816  0.4001  0.3368
   58SAPC   H4Y 4381   5.569   2.274   6.046 -0.3926 -0.7037 -0.4335
   58SAPC   C35 4382   5.544   2.442   5.903 -0.1939  0.0234 -0.0143
   58SAPC   H5X 4383   5.640   2.484   5.942 -0.0959  0.0665 -0.3009
   58SAPC   H5Y 4384   5.474   2.527   5.893 -0.5157 -0.1555  0.6784
   58SAPC   C36 4385   5.587   2.393   5.765 -0.0110  0.6505 -0.9237
   58SAPC   H6X 4386   5.522   2.309   5.731  0.7765  0.4309 -1.9357
   58SAPC   H6Y 4387   5.692   2.361   5.780  0.8635  3.4262 -0.6659
   58SAPC   C37 4388   5.591   2.497   5.660  0.4282 -0.5822 -0.2375
   58SAPC   H7X 4389   5.657   2.585   5.677 -1.4759  1.0316 -0.8092
   58SAPC   H7Y 4390   5.485   2.526   5.648  0.9922  1.5955 -0.3446
   58SAPC   C38 4391   5.639   2.431   5.529 -0.1767  0.1981  0.7592
   58SAPC   H8X 4392   5.590   2.336   5.499 -0.5866  0.8741 -0.8363
   58SAPC   H8Y 4393   5.746   2.410   5.547  0.8937  2.9722 -1.5483
   58SAPC   C39 4394   5.640   2.535   5.412 -0.1175  0.1419 -0.6899
   58SAPC   H9X 4395   5.724   2.600   5.443 -0.4870  1.7637 -2.8283
   58SAPC   H9Y 4396   5.551   2.601   5.423 -0.4978 -0.6811  1.7257
   58SAPC  C310 4397   5.663   2.459   5.282 -0.1075 -0.6953 -0.0813
   58SAPC  H10X 4398   5.578   2.391   5.260 -0.4244 -0.2605 -0.2158
   58SAPC  H10Y 4399   5.755   2.397   5.290 -1.4082 -2.6131  0.4729
   58SAPC  C311 4400   5.681   2.558   5.168 -0.0924 -0.1081  0.4287
   58SAPC  H11X 4401   5.708   2.659   5.205 -0.5707 -0.0225  0.5516
   58SAPC  H11Y 4402   5.579   2.577   5.129 -0.4145 -0.5394  1.0473
   58SAPC  C312 4403   5.773   2.520   5.051  0.3863  0.2459 -0.0024
   58SAPC  H12X 4404   5.875   2.525   5.094  0.7201  1.7860 -0.8851
   58SAPC  H12Y 4405   5.774   2.601   4.975 -1.5464 -1.1993 -1.7075
   58SAPC  C313 4406   5.748   2.385   5.000  0.0317 -0.5566  0.2372
   58SAPC  H13X 4407   5.648   2.388   4.953 -0.7828  1.4803  1.9281
   58SAPC  H13Y 4408   5.747   2.305   5.078 -0.9269 -1.7118 -0.9236
   58SAPC  C314 4409   5.855   2.344   4.895  0.2697 -0.1711 -0.1412
   58SAPC  H14X 4410   5.957   2.369   4.932 -0.1417  2.8401 -0.7771
   58SAPC  H14Y 4411   5.833   2.402   4.803 -1.4387 -1.9590 -0.9305
   58SAPC  C315 4412   5.835   2.200   4.859 -0.1221  0.3294  0.3992
   58SAPC  H15X 4413   5.728   2.176   4.845 -0.0793  1.3026 -1.9845
   58SAPC  H15Y 4414   5.873   2.145   4.948 -1.2412  0.1143  0.7514
   58SAPC  C316 4415   5.918   2.162   4.733  0.1181  0.1528 -0.7612
   58SAPC  H16X 4416   6.015   2.216   4.729  0.6295 -0.8207 -1.9384
   58SAPC  H16Y 4417   5.859   2.211   4.653  3.1799  0.7992 -2.7832
   58SAPC  C317 4418   5.932   2.013   4.727  0.3057  0.0925  0.3610
   58SAPC  H17X 4419   5.836   1.959   4.739 -0.8215  1.2909 -2.3689
   58SAPC  H17Y 4420   5.993   1.966   4.807  0.5093 -0.3559 -0.0460
   58SAPC  C318 4421   5.990   1.974   4.592  0.2113 -0.3175 -0.4791
   58SAPC  H18X 4422   6.078   2.033   4.560  0.8004  0.0489  1.6399
   58SAPC  H18Y 4423   5.911   1.988   4.515  0.5841 -1.3949 -1.0810
   58SAPC  H18Z 4424   5.994   1.865   4.573 -2.2546  0.0514 -3.9044
   59SAPC     N 4425   5.672   0.611   7.435 -0.4773  0.4114  0.3043
   59SAPC   C12 4426   5.621   0.741   7.375  1.0113  1.0502  0.0120
   59SAPC  H12A 4427   5.683   0.827   7.391 -1.3314  3.2731 -1.9496
   59SAPC  H12B 4428   5.528   0.769   7.424  0.3777 -2.5183  1.1879
   59SAPC   C13 4429   5.597   0.486   7.394 -0.1502  0.0007 -0.1508
   59SAPC  H13A 4430   5.634   0.400   7.446 -0.2930  0.2265  0.3303
   59SAPC  H13B 4431   5.494   0.492   7.427 -0.8832 -4.0578 -1.1852
   59SAPC  H13C 4432   5.608   0.484   7.286 -0.1008  0.0192 -0.1455
   59SAPC   C14 4433   5.814   0.602   7.405 -0.0235  1.2058 -0.2260
   59SAPC  H14A 4434   5.862   0.512   7.441  0.9894  2.3656  1.4482
   59SAPC  H14B 4435   5.837   0.603   7.300  2.2098  0.5366  0.1920
   59SAPC  H14C 4436   5.872   0.677   7.456  0.8565  0.1547  0.3611
   59SAPC   C15 4437   5.667   0.613   7.583  0.0551 -0.2942  0.0029
   59SAPC  H15A 4438   5.566   0.622   7.621 -0.2888 -1.9354 -0.4579
   59SAPC  H15B 4439   5.709   0.526   7.630  3.6042  1.5241  0.5417
   59SAPC  H15C 4440   5.729   0.693   7.619  0.3132 -2.1900  4.3159
   59SAPC   C11 4441   5.592   0.738   7.222 -0.1823  0.1438 -0.0120
   59SAPC  H11A 4442   5.545   0.834   7.191 -1.5528 -0.1890  0.9506
   59SAPC  H11B 4443   5.530   0.650   7.195  1.3932 -0.7738 -0.7708
   59SAPC     P 4444   5.810   0.834   7.104 -0.1275  0.2316 -0.0872
   59SAPC   O13 4445   5.775   0.964   7.170 -0.0519 -0.4014  0.0602
   59SAPC   O14 4446   5.950   0.786   7.114  0.0410 -0.6669 -0.1289
   59SAPC   O12 4447   5.711   0.722   7.150  0.0198 -0.0855  0.3382
   59SAPC   O11 4448   5.768   0.845   6.954  0.8051  0.0991  0.1188
   59SAPC    C1 4449   5.868   0.869   6.855 -0.6062 -0.3954  0.1662
   59SAPC    HA 4450   5.843   0.964   6.804  0.0231 -0.5569 -0.4569
   59SAPC    HB 4451   5.972   0.867   6.894  0.0619  3.8077 -0.9373
   59SAPC    C2 4452   5.859   0.750   6.753  0.2897  0.6283  0.9634
   59SAPC    HS 4453   5.927   0.781   6.671  0.1688  2.0965  1.3995
   59SAPC   O21 4454   5.731   0.719   6.703 -0.0722  0.0055  0.1415
   59SAPC   C21 4455   5.668   0.813   6.629 -0.7671 -0.8605  0.5136
   59SAPC   O22 4456   5.712   0.917   6.592  0.2998 -0.1621  0.4276
   59SAPC   C22 4457   5.542   0.752   6.577  0.0898  0.1768  0.6919
   59SAPC   H2R 4458   5.573   0.652   6.540  1.0719  0.2800  1.1905
   59SAPC   H2S 4459   5.466   0.746   6.658 -0.4432  0.4104  0.2156
   59SAPC    C3 4460   5.936   0.621   6.800  0.3479  0.0696  0.3633
   59SAPC    HX 4461   5.898   0.597   6.902  0.4708  1.5391  0.7831
   59SAPC    HY 4462   6.043   0.646   6.816 -0.1957  1.2514  2.6239
   59SAPC   O31 4463   5.929   0.507   6.713 -0.0694  0.2095  0.5654
   59SAPC   C31 4464   5.825   0.423   6.739 -1.0637 -0.0607 -0.6260
   59SAPC   O32 4465   5.760   0.423   6.840 -0.0348  0.3313  0.3168
   59SAPC   C32 4466   5.797   0.340   6.620 -0.0078  0.1484  0.4311
   59SAPC   H2X 4467   5.848   0.242   6.631 -0.2401  0.0767  0.8631
   59SAPC   H2Y 4468   5.838   0.388   6.529 -1.9619 -1.3137 -1.3052
   59SAPC   C23 4469   5.481   0.830   6.453 -0.5238  0.0354 -0.0781
   59SAPC   H3R 4470   5.556   0.804   6.376  0.4235 -1.7713  1.3727
   59SAPC   H3S 4471   5.467   0.934   6.491 -2.8020 -0.1758 -0.1995
   59SAPC   C24 4472   5.338   0.786   6.410  0.0838  0.7504 -0.0411
   59SAPC   H4R 4473   5.304   0.856   6.331 -0.2592 -0.8090 -1.3434
   59SAPC   H4S 4474   5.269   0.792   6.497  2.9352 -1.1442  2.5596
   59SAPC   C25 4475   5.347   0.647   6.349 -0.5348  0.0275 -0.0488
   59SAPC   H5R 4476   5.331   0.567   6.424 -0.8333  0.6607  0.5776
   59SAPC   C26 4477   5.362   0.618   6.218  0.0885  0.3477  0.0916
   59SAPC   H6R 4478   5.380   0.512   6.195 -0.2552  0.9005 -3.1488
   59SAPC   C27 4479   5.373   0.716   6.110 -0.3426 -0.3147 -0.1012
   59SAPC   H7R 4480   5.469   0.772   6.117 -1.4424  1.6337  0.2371
   59SAPC   H7S 4481   5.300   0.799   6.125 -3.2315 -2.4419 -1.4504
   59SAPC   C28 4482   5.371   0.646   5.973  0.0953 -0.1124 -0.6224
   59SAPC   H8R 4483   5.393   0.539   5.971 -1.9705 -0.5749 -1.8847
   59SAPC   C29 4484   5.326   0.698   5.855 -0.0749 -0.3522  0.3677
   59SAPC   H9R 4485   5.326   0.636   5.765  0.8875 -1.9896  1.4465
   59SAPC  C210 4486   5.271   0.837   5.847 -0.4425  0.1614 -0.1636
   59SAPC  H10R 4487   5.257   0.882   5.947 -0.7425  1.1430 -0.6391
   59SAPC  H10S 4488   5.171   0.839   5.799 -0.8097  1.1658  0.6071
   59SAPC  C211 4489   5.372   0.920   5.762  0.9313  0.3385 -0.2223
   59SAPC  H11R 4490   5.407   0.880   5.666  1.3127  1.2720 -0.4860
   59SAPC  C212 4491   5.413   1.050   5.799  1.0938  0.1826 -0.4591
   59SAPC  H12R 4492   5.466   1.110   5.724  1.6595 -0.1524 -0.3366
   59SAPC  C213 4493   5.363   1.128   5.919  0.6789 -0.2348 -0.1801
   59SAPC  H13R 4494   5.272   1.081   5.962  1.0129 -0.0305  0.7816
   59SAPC  H13S 4495   5.325   1.228   5.889  1.5363  0.5920  1.3567
   59SAPC  C214 4496   5.471   1.135   6.029 -0.1507  0.4370 -0.0083
   59SAPC  H14R 4497   5.559   1.073   6.007 -0.0864 -0.2559  2.0220
   59SAPC  C215 4498   5.449   1.191   6.151  0.5684  0.6974 -0.0371
   59SAPC  H15R 4499   5.533   1.197   6.222 -0.4598  0.8216  1.2098
   59SAPC  C216 4500   5.324   1.260   6.197 -0.8689  0.0702  0.5513
   59SAPC  H16R 4501   5.254   1.288   6.116 -0.3207 -2.2023 -0.8050
   59SAPC  H16S 4502   5.369   1.342   6.257 -0.1466 -1.5551  2.3682
   59SAPC  C217 4503   5.240   1.171   6.286 -0.3056 -0.1000 -0.3433
   59SAPC  H17R 4504   5.304   1.113   6.355  0.7559  0.3515 -0.9286
   59SAPC  H17S 4505   5.180   1.094   6.231 -1.7748 -0.7800  2.0491
   59SAPC  C218 4506   5.133   1.250   6.364  0.3550  0.0369 -0.5935
   59SAPC  H18R 4507   5.073   1.305   6.288  2.4027 -0.5504 -2.7537
   59SAPC  H18S 4508   5.170   1.333   6.427 -0.5967 -0.2272  0.3420
   59SAPC  C219 4509   5.026   1.154   6.429 -0.1980  0.0436 -0.7078
   59SAPC  H19R 4510   4.997   1.075   6.357  1.2093 -1.0467 -0.1380
   59SAPC  H19S 4511   4.940   1.214   6.465 -0.9184 -1.7466  0.7609
   59SAPC  C220 4512   5.093   1.087   6.553  0.3448 -0.1614  0.2516
   59SAPC  H20R 4513   5.019   1.035   6.616  0.3032  0.5227  0.7848
   59SAPC  H20S 4514   5.142   1.158   6.623 -0.3323  0.4142  0.1542
   59SAPC  H20T 4515   5.174   1.012   6.539 -0.4006 -0.9516  0.1596
   59SAPC   C33 4516   5.646   0.332   6.602  0.5914  0.2269  0.1773
   59SAPC   H3X 4517   5.604   0.435   6.607  1.5187  0.5562  2.9613
   59SAPC   H3Y 4518   5.598   0.278   6.686 -0.0601  0.5736  0.0409
   59SAPC   C34 4519   5.593   0.260   6.473 -0.4330  1.0666  0.0792
   59SAPC   H4X 4520   5.484   0.240   6.460 -0.0550 -0.9473 -0.2186
   59SAPC   H4Y 4521   5.622   0.153   6.477 -0.0479  1.1317 -0.8155
   59SAPC   C35 4522   5.645   0.333   6.347  0.5011  0.3597  0.4793
   59SAPC   H5X 4523   5.756   0.346   6.345  0.6905  0.0300  3.7020
   59SAPC   H5Y 4524   5.595   0.431   6.337 -2.4159 -0.9919  0.8402
   59SAPC   C36 4525   5.592   0.263   6.218  0.0988  1.2613 -0.2208
   59SAPC   H6X 4526   5.481   0.251   6.218  0.1643 -2.0556 -4.2908
   59SAPC   H6Y 4527   5.633   0.159   6.215 -2.3479  0.2138 -2.9260
   59SAPC   C37 4528   5.627   0.338   6.092 -0.5321  0.5506  1.0205
   59SAPC   H7X 4529   5.732   0.328   6.060 -0.3270  0.9010  1.5719
   59SAPC   H7Y 4530   5.605   0.446   6.100 -0.1980  0.7616 -0.5106
   59SAPC   C38 4531   5.537   0.282   5.978  0.0481  0.0184 -0.0458
   59SAPC   H8X 4532   5.434   0.314   6.006  0.3834 -0.3058  1.6710
   59SAPC   H8Y 4533   5.545   0.171   5.984  0.5578  0.0066 -0.7729
   59SAPC   C39 4534   5.595   0.322   5.848  0.3054 -0.8404  0.3389
   59SAPC   H9X 4535   5.676   0.254   5.816  1.3660  0.1665  0.7902
   59SAPC   H9Y 4536   5.629   0.425   5.873  2.1896 -1.5563  0.8938
   59SAPC  C310 4537   5.493   0.320   5.735  0.8733  0.0062  0.2819
   59SAPC  H10X 4538   5.432   0.413   5.737 -1.2912 -1.3257 -0.7949
   59SAPC  H10Y 4539   5.430   0.229   5.737  0.2237  0.4148 -0.7122
   59SAPC  C311 4540   5.576   0.342   5.601  0.2551 -0.7130  0.0190
   59SAPC  H11X 4541   5.659   0.268   5.601 -0.8900 -2.0474  0.4130
   59SAPC  H11Y 4542   5.625   0.441   5.611  1.6671 -1.3907  0.0479
   59SAPC  C312 4543   5.497   0.326   5.473 -0.0444  0.4183 -0.3154
   59SAPC  H12X 4544   5.405   0.388   5.467 -1.7011 -1.8844 -0.2069
   59SAPC  H12Y 4545   5.457   0.223   5.473  1.5431 -0.3008 -3.0062
   59SAPC  C313 4546   5.590   0.333   5.353  0.0478 -0.0985 -0.0718
   59SAPC  H13X 4547   5.662   0.249   5.361  0.3907  0.1107 -0.8835
   59SAPC  H13Y 4548   5.660   0.420   5.355 -0.1793  0.1685 -1.9015
   59SAPC  C314 4549   5.521   0.337   5.218 -0.1554 -0.2597  0.1023
   59SAPC  H14X 4550   5.445   0.419   5.221  1.2646  1.0766  1.3088
   59SAPC  H14Y 4551   5.470   0.241   5.196 -1.2004  0.3089 -0.0133
   59SAPC  C315 4552   5.610   0.367   5.103  0.3223 -0.5188 -0.6129
   59SAPC  H15X 4553   5.660   0.275   5.066 -0.2376 -0.7582 -0.7873
   59SAPC  H15Y 4554   5.690   0.442   5.122  1.4024 -1.5878 -0.8257
   59SAPC  C316 4555   5.520   0.418   4.977 -0.0381 -0.1811 -0.5151
   59SAPC  H16X 4556   5.480   0.517   5.007  0.8493 -0.2097  0.8947
   59SAPC  H16Y 4557   5.440   0.348   4.945 -1.0873  1.1109 -0.8084
   59SAPC  C317 4558   5.605   0.451   4.855 -0.1588 -0.3932  0.5283
   59SAPC  H17X 4559   5.532   0.493   4.783 -0.3841 -0.8396  0.4917
   59SAPC  H17Y 4560   5.619   0.350   4.811  0.3855 -0.0917  0.0052
   59SAPC  C318 4561   5.728   0.536   4.874 -0.2995  0.1946 -0.3742
   59SAPC  H18X 4562   5.712   0.635   4.920  2.7421  0.0916  1.1688
   59SAPC  H18Y 4563   5.783   0.540   4.778 -0.8029  1.0098 -0.6396
   59SAPC  H18Z 4564   5.803   0.482   4.936 -1.2974  1.1570  1.7837
   60SAPC     N 4565   0.026   3.813   7.132 -0.8138  0.2342  0.1762
   60SAPC   C12 4566  -0.124   3.802   7.137 -0.0565  0.1754  0.1317
   60SAPC  H12A 4567  -0.144   3.696   7.127  1.6902 -0.4008  1.9646
   60SAPC  H12B 4568  -0.170   3.857   7.056 -0.4279 -0.5109 -0.1364
   60SAPC   C13 4569   0.089   3.758   7.262 -0.1842 -0.2741  0.3115
   60SAPC  H13A 4570   0.039   3.805   7.346 -0.9144 -1.2795  0.4419
   60SAPC  H13B 4571   0.085   3.651   7.269 -3.9104 -0.1475  2.2150
   60SAPC  H13C 4572   0.195   3.780   7.264 -0.1222 -0.5924  2.1722
   60SAPC   C14 4573   0.084   3.735   7.021  0.3672 -0.3192  0.2423
   60SAPC  H14A 4574   0.191   3.753   7.020 -0.0978  3.6430  1.6707
   60SAPC  H14B 4575   0.050   3.633   7.023 -1.4104  0.2635  1.0848
   60SAPC  H14C 4576   0.041   3.778   6.932 -1.3088 -0.6618  0.8572
   60SAPC   C15 4577   0.081   3.953   7.118 -0.1034 -0.4870  0.0801
   60SAPC  H15A 4578   0.030   4.005   7.038 -0.2479  1.6608  1.4861
   60SAPC  H15B 4579   0.060   4.016   7.204 -0.4163 -0.5525  0.0543
   60SAPC  H15C 4580   0.187   3.957   7.101  0.1585 -3.8278  0.2422
   60SAPC   C11 4581  -0.194   3.848   7.274 -0.6450  0.0988 -0.3719
   60SAPC  H11A 4582  -0.148   3.938   7.320  1.6859 -1.6397  0.9184
   60SAPC  H11B 4583  -0.167   3.774   7.352 -3.3551 -0.6264 -0.0349
   60SAPC     P 4584  -0.387   3.991   7.184  0.2110 -0.5765 -0.0688
   60SAPC   O13 4585  -0.537   3.987   7.195  0.3672  0.0574  0.0896
   60SAPC   O14 4586  -0.321   4.112   7.240  0.4847 -0.3283 -0.2690
   60SAPC   O12 4587  -0.334   3.857   7.255 -0.1217 -0.5567  0.1034
   60SAPC   O11 4588  -0.338   3.971   7.040  0.0142 -0.1752  0.0438
   60SAPC    C1 4589  -0.397   3.870   6.957 -0.0102  0.4848 -0.4743
   60SAPC    HA 4590  -0.376   3.767   6.993 -1.5253 -0.3127 -1.7093
   60SAPC    HB 4591  -0.507   3.886   6.957  0.2965  2.8787 -0.4147
   60SAPC    C2 4592  -0.338   3.878   6.816  0.3677 -0.1924  0.0798
   60SAPC    HS 4593  -0.230   3.853   6.827  0.1482 -0.8741  0.7738
   60SAPC   O21 4594  -0.371   4.009   6.753 -0.0386 -0.0928 -0.4693
   60SAPC   C21 4595  -0.264   4.071   6.697  0.2955  0.1527 -0.4678
   60SAPC   O22 4596  -0.151   4.027   6.698  0.7603  0.2020 -0.1427
   60SAPC   C22 4597  -0.304   4.202   6.620 -0.2047 -0.3272 -0.3162
   60SAPC   H2R 4598  -0.360   4.263   6.694 -0.8134 -0.1206 -0.9386
   60SAPC   H2S 4599  -0.218   4.267   6.592 -0.7308  1.7851  2.4815
   60SAPC    C3 4600  -0.391   3.757   6.724 -0.5897 -0.5414 -0.8743
   60SAPC    HX 4601  -0.500   3.778   6.722 -0.8668 -1.7626  0.0205
   60SAPC    HY 4602  -0.349   3.670   6.779  1.4895  1.5087  0.9560
   60SAPC   O31 4603  -0.339   3.777   6.589  0.0783  0.0097  0.2975
   60SAPC   C31 4604  -0.230   3.703   6.562 -0.3863  0.3743 -0.0852
   60SAPC   O32 4605  -0.158   3.652   6.648  0.0510  0.4906 -0.1906
   60SAPC   C32 4606  -0.202   3.719   6.415  0.7282 -0.7419 -0.4159
   60SAPC   H2X 4607  -0.136   3.808   6.408 -2.2211  1.4917 -2.7385
   60SAPC   H2Y 4608  -0.295   3.747   6.360  0.2699 -2.5156 -0.6021
   60SAPC   C23 4609  -0.385   4.179   6.490  0.3418  0.1692  0.4372
   60SAPC   H3R 4610  -0.485   4.140   6.517  0.7351 -1.1532  0.0444
   60SAPC   H3S 4611  -0.330   4.110   6.423 -0.7286 -0.3611  0.0889
   60SAPC   C24 4612  -0.398   4.309   6.403  0.0102 -0.0800 -0.1802
   60SAPC   H4R 4613  -0.459   4.380   6.463 -0.5184 -0.6157 -0.0739
   60SAPC   H4S 4614  -0.451   4.277   6.312 -0.0265  0.1578 -0.2436
   60SAPC   C25 4615  -0.268   4.375   6.374 -0.3351 -0.0037  0.1758
   60SAPC   H5R 4616  -0.235   4.456   6.440  0.3528  0.0522 -0.2190
   60SAPC   C26 4617  -0.207   4.360   6.256  0.3098 -0.0924  0.4333
   60SAPC   H6R 4618  -0.113   4.415   6.238 -1.1691  3.1250  1.7170
   60SAPC   C27 4619  -0.248   4.269   6.143 -0.6002 -0.0582  0.1326
   60SAPC   H7R 4620  -0.338   4.316   6.099 -0.3840  1.9526  1.6498
   60SAPC   H7S 4621  -0.269   4.169   6.187 -1.0031  0.4391  1.1017
   60SAPC   C28 4622  -0.132   4.236   6.051  0.8177  0.1980 -0.3705
   60SAPC   H8R 4623  -0.063   4.167   6.100 -1.8077 -0.6959  2.3794
   60SAPC   C29 4624  -0.117   4.273   5.922 -0.6333  0.2115  0.0464
   60SAPC   H9R 4625  -0.021   4.246   5.877 -1.5540  0.3079 -2.0723
   60SAPC  C210 4626  -0.205   4.352   5.834 -0.0426 -0.5743 -0.1945
   60SAPC  H10R 4627  -0.292   4.373   5.899  1.6841 -2.0207  2.8134
   60SAPC  H10S 4628  -0.244   4.280   5.759 -1.5155 -0.0734  0.0675
   60SAPC  C211 4629  -0.142   4.488   5.799  0.1697  0.4614  0.6460
   60SAPC  H11R 4630  -0.147   4.564   5.878 -0.8684  0.9943  0.0856
   60SAPC  C212 4631  -0.110   4.538   5.676  0.3568  0.5621  0.4870
   60SAPC  H12R 4632  -0.052   4.631   5.673  2.3226 -0.6161 -0.0226
   60SAPC  C213 4633  -0.123   4.458   5.545  0.9405 -0.4387 -0.5134
   60SAPC  H13R 4634  -0.128   4.544   5.474  0.3449 -0.4870 -0.5337
   60SAPC  H13S 4635  -0.220   4.406   5.529  0.5518 -0.1337  0.7743
   60SAPC  C214 4636  -0.013   4.365   5.505  0.3012  0.6671  0.1830
   60SAPC  H14R 4637   0.036   4.306   5.584 -0.8168 -0.5513  0.0011
   60SAPC  C215 4638   0.039   4.356   5.380 -0.0845 -0.7812 -0.2377
   60SAPC  H15R 4639   0.119   4.281   5.371  0.3239 -0.5305  1.1171
   60SAPC  C216 4640  -0.015   4.429   5.258 -0.1865 -0.1449 -0.1788
   60SAPC  H16R 4641   0.010   4.537   5.261 -0.0610 -0.1909  0.6973
   60SAPC  H16S 4642  -0.125   4.420   5.270  0.1340 -0.6232  3.5993
   60SAPC  C217 4643   0.025   4.368   5.123  0.0558 -0.6902 -0.4121
   60SAPC  H17R 4644  -0.025   4.436   5.051 -0.9284  0.0017  0.8761
   60SAPC  H17S 4645  -0.016   4.265   5.108 -2.3329 -0.5038  3.4682
   60SAPC  C218 4646   0.181   4.361   5.099 -0.5753 -0.2667 -0.3847
   60SAPC  H18R 4647   0.228   4.303   5.181  0.2691  1.0141  0.0592
   60SAPC  H18S 4648   0.222   4.463   5.092 -2.9508  0.8337  0.7510
   60SAPC  C219 4649   0.198   4.295   4.962  0.3544  1.0392 -0.2309
   60SAPC  H19R 4650   0.122   4.339   4.895  1.5981  2.7441 -0.5929
   60SAPC  H19S 4651   0.168   4.189   4.972  0.7166  0.8596 -0.9862
   60SAPC  C220 4652   0.339   4.304   4.901  0.5606  0.9147  1.3952
   60SAPC  H20R 4653   0.392   4.401   4.912 -1.8686  2.6979 -1.1983
   60SAPC  H20S 4654   0.327   4.289   4.791 -1.5186  0.7886  1.5970
   60SAPC  H20T 4655   0.404   4.227   4.948  0.1202 -1.2969 -1.3631
   60SAPC   C33 4656  -0.127   3.599   6.354 -0.1384 -0.4447  0.6375
   60SAPC   H3X 4657  -0.197   3.514   6.366 -1.9619  1.0525  1.0924
   60SAPC   H3Y 4658  -0.033   3.598   6.413  0.1976  0.8749  0.1631
   60SAPC   C34 4659  -0.103   3.622   6.210  0.2120 -0.3066  0.4822
   60SAPC   H4X 4660  -0.191   3.617   6.143  0.2561 -1.9872  0.5047
   60SAPC   H4Y 4661  -0.050   3.532   6.172  0.6618 -0.8543  2.2888
   60SAPC   C35 4662  -0.022   3.746   6.173 -0.2077  0.0438  0.0655
   60SAPC   H5X 4663   0.069   3.766   6.233  0.4665 -2.0559 -0.1649
   60SAPC   H5Y 4664  -0.092   3.832   6.175 -0.7762 -0.3701 -0.8626
   60SAPC   C36 4665   0.033   3.733   6.029 -0.1063 -0.9475 -0.0295
   60SAPC   H6X 4666  -0.037   3.673   5.966  0.8355 -1.7926 -0.3010
   60SAPC   H6Y 4667   0.125   3.670   6.028  0.0920 -0.6526 -0.7960
   60SAPC   C37 4668   0.049   3.876   5.968  0.7099 -0.2833 -0.0685
   60SAPC   H7X 4669   0.128   3.922   6.032 -0.0976  1.9907 -0.5926
   60SAPC   H7Y 4670  -0.046   3.932   5.983 -0.5020 -1.9089 -1.3335
   60SAPC   C38 4671   0.089   3.876   5.822  0.1860 -0.1930  0.7010
   60SAPC   H8X 4672   0.186   3.824   5.810 -0.9726 -2.1701 -0.8803
   60SAPC   H8Y 4673   0.115   3.981   5.796  0.6110 -0.1383  1.3433
   60SAPC   C39 4674  -0.031   3.808   5.731 -0.4997 -0.7228 -0.2809
   60SAPC   H9X 4675  -0.128   3.853   5.759  0.3472  0.2924  1.1697
   60SAPC   H9Y 4676  -0.038   3.701   5.762  0.8682 -1.0969 -1.1439
   60SAPC  C310 4677  -0.021   3.814   5.578  0.1535 -0.3849 -0.4060
   60SAPC  H10X 4678  -0.106   3.760   5.531  0.1916 -1.6061  0.8439
   60SAPC  H10Y 4679   0.072   3.766   5.542 -0.4649  0.0262 -2.6518
   60SAPC  C311 4680  -0.029   3.960   5.534 -0.4976 -0.0035 -0.0085
   60SAPC  H11X 4681   0.038   4.023   5.595  0.1664  0.6150 -1.3313
   60SAPC  H11Y 4682  -0.128   3.996   5.568 -0.9182 -0.1345 -1.0544
   60SAPC  C312 4683   0.002   3.978   5.388 -0.1355  0.5013  0.7298
   60SAPC  H12X 4684  -0.028   4.076   5.346  2.7183  0.2427 -2.2698
   60SAPC  H12Y 4685  -0.040   3.893   5.329  0.4574 -0.7546  2.0404
   60SAPC  C313 4686   0.153   3.975   5.365  0.4740 -0.3466  0.2851
   60SAPC  H13X 4687   0.207   3.907   5.435 -0.2238  0.6855  1.8824
   60SAPC  H13Y 4688   0.197   4.075   5.381 -1.1693  0.2574  1.3015
   60SAPC  C314 4689   0.185   3.934   5.222 -0.9342 -0.1053  0.3012
   60SAPC  H14X 4690   0.125   3.998   5.153 -1.2940 -2.0507 -1.3011
   60SAPC  H14Y 4691   0.157   3.828   5.208 -0.0524 -0.0744 -2.2921
   60SAPC  C315 4692   0.337   3.959   5.185  0.5298 -0.3823  0.4882
   60SAPC  H15X 4693   0.399   3.934   5.273 -0.0480 -0.5611  0.8542
   60SAPC  H15Y 4694   0.348   4.066   5.159  0.8456 -0.7136 -0.8249
   60SAPC  C316 4695   0.373   3.864   5.067  0.2790  0.4160 -0.1515
   60SAPC  H16X 4696   0.339   3.911   4.972  2.5462  0.7731 -0.8347
   60SAPC  H16Y 4697   0.318   3.771   5.092 -1.3446  1.4988  0.5190
   60SAPC  C317 4698   0.522   3.833   5.061 -0.1797  0.3407 -0.4073
   60SAPC  H17X 4699   0.551   3.739   5.011 -2.5539 -0.2667 -0.7494
   60SAPC  H17Y 4700   0.558   3.831   5.167 -0.7081 -0.2432 -0.2316
   60SAPC  C318 4701   0.605   3.951   4.999 -0.5239 -0.0353  0.0506
   60SAPC  H18X 4702   0.699   3.965   5.057 -0.5561 -0.5328  0.2267
   60SAPC  H18Y 4703   0.557   4.051   4.998 -0.7887 -0.0671  2.6298
   60SAPC  H18Z 4704   0.633   3.927   4.895 -3.7911 -0.5586 -0.8117
   61SAPC     N 4705   1.949   5.278   7.146  0.4497  0.5083  0.6132
   61SAPC   C12 4706   2.098   5.267   7.168 -0.2752  0.5236 -0.7515
   61SAPC  H12A 4707   2.123   5.170   7.210  1.7824  0.5600 -1.7310
   61SAPC  H12B 4708   2.120   5.338   7.246  0.2133  0.1690 -0.5558
   61SAPC   C13 4709   1.903   5.153   7.080  1.0920  0.8180 -0.5519
   61SAPC  H13A 4710   1.961   5.109   7.000 -0.5419 -0.1988 -1.2487
   61SAPC  H13B 4711   1.909   5.079   7.158 -0.5068  2.5640  1.3495
   61SAPC  H13C 4712   1.799   5.162   7.049  1.3745  0.1647 -1.7849
   61SAPC   C14 4713   1.876   5.313   7.273  0.1779  0.1131 -0.0618
   61SAPC  H14A 4714   1.921   5.399   7.322 -1.7789  0.6514  0.8757
   61SAPC  H14B 4715   1.772   5.329   7.252  0.0811  0.6566  0.7741
   61SAPC  H14C 4716   1.886   5.231   7.343 -0.3332 -1.2370 -1.5146
   61SAPC   C15 4717   1.915   5.404   7.069  0.5776 -0.0571  0.0814
   61SAPC  H15A 4718   1.810   5.417   7.044  0.4294 -0.4659  0.4779
   61SAPC  H15B 4719   1.946   5.492   7.124  1.9686 -0.0118 -0.7424
   61SAPC  H15C 4720   1.982   5.408   6.984  0.6475 -0.3290  0.1227
   61SAPC   C11 4721   2.190   5.281   7.045 -0.2614  0.2993  0.2408
   61SAPC  H11A 4722   2.295   5.282   7.081 -0.0066 -1.2016 -0.4178
   61SAPC  H11B 4723   2.172   5.386   7.012  1.3246  1.6874  3.2709
   61SAPC     P 4724   2.264   5.041   6.964  0.1255 -0.3838  0.1801
   61SAPC   O13 4725   2.404   5.075   6.919 -0.1418  0.1822  0.1490
   61SAPC   O14 4726   2.250   4.995   7.103 -0.6081  0.0505 -0.2294
   61SAPC   O12 4727   2.180   5.174   6.949  0.1523  0.3961  0.2305
   61SAPC   O11 4728   2.194   4.929   6.878  0.1840 -0.8131  0.5959
   61SAPC    C1 4729   2.247   4.858   6.763 -0.1257  0.3171 -0.0997
   61SAPC    HA 4730   2.345   4.817   6.796  0.3294  1.8576  0.5364
   61SAPC    HB 4731   2.190   4.762   6.754  2.0777 -1.2349  1.3454
   61SAPC    C2 4732   2.265   4.939   6.636 -0.5059  0.3915 -0.1701
   61SAPC    HS 4733   2.346   5.011   6.661 -0.6377  0.8242 -0.9725
   61SAPC   O21 4734   2.146   5.003   6.594 -0.9085  0.0237 -0.3436
   61SAPC   C21 4735   2.173   5.124   6.532 -0.3900 -0.0256  0.3511
   61SAPC   O22 4736   2.279   5.179   6.540  0.1975  0.3273 -0.3981
   61SAPC   C22 4737   2.043   5.178   6.457 -0.3523 -0.1297  0.4101
   61SAPC   H2R 4738   1.961   5.110   6.490 -0.4644 -1.3419 -2.1261
   61SAPC   H2S 4739   2.034   5.281   6.498  0.9050  0.7324 -1.3542
   61SAPC    C3 4740   2.310   4.849   6.522 -0.2534  0.4865  0.6695
   61SAPC    HX 4741   2.230   4.778   6.493 -0.5272  1.9452 -2.6506
   61SAPC    HY 4742   2.396   4.783   6.548  1.1683  1.3015 -1.5850
   61SAPC   O31 4743   2.339   4.921   6.397 -0.4321  0.0024  0.5640
   61SAPC   C31 4744   2.464   4.965   6.386 -0.0561 -0.6682  0.2599
   61SAPC   O32 4745   2.553   4.952   6.466  0.0750 -0.4527 -0.2579
   61SAPC   C32 4746   2.482   5.037   6.259 -0.1634 -0.0681 -0.2503
   61SAPC   H2X 4747   2.553   5.119   6.285 -1.6833  0.9183  0.9683
   61SAPC   H2Y 4748   2.383   5.075   6.228 -0.2865  0.6179  0.9439
   61SAPC   C23 4749   2.057   5.194   6.306  0.3040  0.0217 -0.2584
   61SAPC   H3R 4750   1.959   5.181   6.256 -0.4610  3.1926  0.1898
   61SAPC   H3S 4751   2.112   5.106   6.265  1.1315  1.0860 -1.5203
   61SAPC   C24 4752   2.131   5.320   6.265 -0.8707 -0.4094  0.4867
   61SAPC   H4R 4753   2.158   5.315   6.158  0.4385 -0.6955  0.8077
   61SAPC   H4S 4754   2.231   5.326   6.314  0.0709  1.9952 -1.5339
   61SAPC   C25 4755   2.061   5.449   6.290  1.0090  0.1439  0.2350
   61SAPC   H5R 4756   2.099   5.507   6.375  0.7899 -2.3439  2.1491
   61SAPC   C26 4757   1.954   5.499   6.225  0.4053  0.6045  0.4145
   61SAPC   H6R 4758   1.913   5.599   6.240  2.1395  1.2541  1.1955
   61SAPC   C27 4759   1.890   5.431   6.103 -0.2554  0.4189 -0.3258
   61SAPC   H7R 4760   1.965   5.358   6.066  0.7707  0.9585  0.6395
   61SAPC   H7S 4761   1.889   5.516   6.030  4.2203  1.2898  0.3235
   61SAPC   C28 4762   1.753   5.376   6.133  0.0743 -0.0248  0.2315
   61SAPC   H8R 4763   1.730   5.335   6.232 -1.3484 -1.0614 -0.4998
   61SAPC   C29 4764   1.646   5.356   6.052  0.7508 -0.1021  0.4965
   61SAPC   H9R 4765   1.557   5.306   6.093 -0.0032  0.7105 -0.0978
   61SAPC  C210 4766   1.642   5.401   5.906 -0.3754 -0.4776  0.0092
   61SAPC  H10R 4767   1.664   5.510   5.908 -1.3692 -0.2783  1.0521
   61SAPC  H10S 4768   1.536   5.383   5.879 -0.8683  1.6037  0.3776
   61SAPC  C211 4769   1.735   5.332   5.811  0.0812  0.8677 -0.6450
   61SAPC  H11R 4770   1.767   5.229   5.831  0.3082  1.1722  0.6619
   61SAPC  C212 4771   1.783   5.393   5.701  0.2621  0.1251  0.0287
   61SAPC  H12R 4772   1.843   5.333   5.632  0.1194  2.0591 -1.8930
   61SAPC  C213 4773   1.746   5.529   5.645  0.1862  0.1182  0.7637
   61SAPC  H13R 4774   1.816   5.541   5.559 -1.6901 -1.6951 -1.1609
   61SAPC  H13S 4775   1.756   5.606   5.724 -1.3553  0.6031  0.5230
   61SAPC  C214 4776   1.606   5.531   5.578  0.2690 -0.0970  0.6332
   61SAPC  H14R 4777   1.527   5.519   5.654  0.9446 -1.5660  1.1449
   61SAPC  C215 4778   1.567   5.552   5.453  0.1367  0.2480  0.1470
   61SAPC  H15R 4779   1.460   5.558   5.431  0.5470  2.9415 -1.6276
   61SAPC  C216 4780   1.650   5.572   5.329 -0.2935 -0.8623 -0.3045
   61SAPC  H16R 4781   1.750   5.525   5.329  0.0457 -0.2907 -2.8171
   61SAPC  H16S 4782   1.660   5.682   5.313 -2.0745 -0.4146  1.2502
   61SAPC  C217 4783   1.574   5.511   5.204 -0.1754 -1.0014  0.3043
   61SAPC  H17R 4784   1.552   5.405   5.230  1.3210 -1.2621  0.6253
   61SAPC  H17S 4785   1.646   5.511   5.119 -0.0737 -2.0922  0.3727
   61SAPC  C218 4786   1.438   5.580   5.167 -0.7791 -0.0910  0.0076
   61SAPC  H18R 4787   1.444   5.691   5.170 -1.0324 -0.0651 -0.4905
   61SAPC  H18S 4788   1.360   5.544   5.238  0.4650 -2.2416  0.3724
   61SAPC  C219 4789   1.375   5.539   5.035  0.4483  0.6453 -0.2298
   61SAPC  H19R 4790   1.429   5.587   4.951  0.5019 -0.2039 -0.6928
   61SAPC  H19S 4791   1.277   5.587   5.016 -0.1578 -0.5318 -0.1080
   61SAPC  C220 4792   1.372   5.387   5.008 -0.0416 -0.2109  0.2639
   61SAPC  H20R 4793   1.320   5.335   5.092  0.1956  0.4570  0.8325
   61SAPC  H20S 4794   1.475   5.344   5.016 -1.1137 -2.6379  2.7075
   61SAPC  H20T 4795   1.318   5.359   4.916 -0.2698  1.3515 -0.0952
   61SAPC   C33 4796   2.535   4.935   6.153 -0.6383 -0.9823  0.8317
   61SAPC   H3X 4797   2.456   4.859   6.134 -0.0224 -0.9343 -2.4500
   61SAPC   H3Y 4798   2.630   4.896   6.195  0.8441  2.7297  1.3683
   61SAPC   C34 4799   2.576   4.996   6.019 -0.0197  0.0687  0.1511
   61SAPC   H4X 4800   2.648   5.080   6.030  0.5270 -0.4531  0.6432
   61SAPC   H4Y 4801   2.488   5.034   5.964 -1.6863 -2.9058  0.5995
   61SAPC   C35 4802   2.629   4.885   5.920  0.2505  0.0911 -0.7269
   61SAPC   H5X 4803   2.550   4.807   5.914  0.7422 -0.5466  0.7751
   61SAPC   H5Y 4804   2.718   4.834   5.961 -0.6328 -0.4284  0.6074
   61SAPC   C36 4805   2.666   4.941   5.776  0.6873 -0.0029  1.0051
   61SAPC   H6X 4806   2.744   5.019   5.787  1.2502 -0.1020 -1.5192
   61SAPC   H6Y 4807   2.576   4.983   5.726  0.0653 -1.3215  0.9579
   61SAPC   C37 4808   2.734   4.827   5.692  0.1494 -0.2618  0.2797
   61SAPC   H7X 4809   2.820   4.794   5.754 -1.0901 -1.1029  1.6118
   61SAPC   H7Y 4810   2.777   4.870   5.599  0.9804  0.2272  0.8676
   61SAPC   C38 4811   2.657   4.703   5.648 -0.0850  0.3247 -0.0620
   61SAPC   H8X 4812   2.610   4.654   5.736  0.4386 -1.4421 -0.7364
   61SAPC   H8Y 4813   2.726   4.627   5.605 -1.3073 -0.4614 -0.6638
   61SAPC   C39 4814   2.546   4.734   5.548 -0.5577 -0.4226  0.4855
   61SAPC   H9X 4815   2.596   4.795   5.470  0.5510 -0.7350  0.9311
   61SAPC   H9Y 4816   2.456   4.779   5.594 -1.1706 -1.6069  0.4902
   61SAPC  C310 4817   2.500   4.600   5.472 -0.7083 -0.4957  0.2861
   61SAPC  H10X 4818   2.481   4.514   5.540 -1.8120 -1.5912 -1.3264
   61SAPC  H10Y 4819   2.573   4.579   5.391 -1.0129  0.2048 -0.1727
   61SAPC  C311 4820   2.364   4.632   5.394  0.2683  0.2765 -0.5861
   61SAPC  H11X 4821   2.379   4.717   5.324  1.3309  0.7215  0.1574
   61SAPC  H11Y 4822   2.283   4.647   5.468  0.7166 -1.4731  0.3306
   61SAPC  C312 4823   2.330   4.509   5.305  0.3536 -0.4066 -0.3576
   61SAPC  H12X 4824   2.420   4.494   5.241 -1.4946  2.9700 -4.2185
   61SAPC  H12Y 4825   2.248   4.530   5.234  2.3528  1.6682 -2.2268
   61SAPC  C313 4826   2.290   4.390   5.396 -0.2223  0.5128  0.4080
   61SAPC  H13X 4827   2.231   4.431   5.481  1.5340 -1.7292  2.8642
   61SAPC  H13Y 4828   2.384   4.343   5.432  0.6644  1.4017 -0.6924
   61SAPC  C314 4829   2.212   4.281   5.327 -0.4317  0.0225 -0.1438
   61SAPC  H14X 4830   2.118   4.334   5.300 -0.0455  1.0865  0.5485
   61SAPC  H14Y 4831   2.175   4.202   5.395 -0.0595  0.9351  1.1491
   61SAPC  C315 4832   2.269   4.216   5.199 -0.9401 -0.3269 -0.6635
   61SAPC  H15X 4833   2.350   4.147   5.231 -1.5989 -0.6062  0.4630
   61SAPC  H15Y 4834   2.304   4.297   5.132 -2.5048 -0.4647 -1.7011
   61SAPC  C316 4835   2.163   4.137   5.120  0.7554 -0.2827 -0.0675
   61SAPC  H16X 4836   2.091   4.207   5.073 -2.0849 -1.9652  1.4754
   61SAPC  H16Y 4837   2.112   4.056   5.177 -0.1737  1.0373  1.0288
   61SAPC  C317 4838   2.237   4.073   5.000 -0.2233 -0.2986  0.5612
   61SAPC  H17X 4839   2.321   4.018   5.048  1.4471 -0.7368 -2.5793
   61SAPC  H17Y 4840   2.274   4.151   4.930 -1.3352 -2.3535 -2.5612
   61SAPC  C318 4841   2.156   3.971   4.922 -0.2274 -0.6466 -0.4852
   61SAPC  H18X 4842   2.082   4.018   4.855 -0.6779  1.5474  1.4141
   61SAPC  H18Y 4843   2.110   3.891   4.983  0.8669 -1.6946 -0.9811
   61SAPC  H18Z 4844   2.220   3.915   4.850  1.5893 -0.1453  0.6713
   62SAPC     N 4845   4.095   3.028   7.537 -0.2248 -0.4812  0.1553
   62SAPC   C12 4846   4.047   2.906   7.457 -0.3792  0.4752 -0.4648
   62SAPC  H12A 4847   3.962   2.861   7.507 -1.0076  1.4070 -0.6857
   62SAPC  H12B 4848   4.131   2.839   7.444 -1.7613 -1.2578 -0.9562
   62SAPC   C13 4849   4.152   2.995   7.669 -0.7949 -0.0173  0.4188
   62SAPC  H13A 4850   4.245   2.941   7.662 -0.5009  0.3232  1.5457
   62SAPC  H13B 4851   4.183   3.086   7.719 -0.7027 -0.4654  1.2015
   62SAPC  H13C 4852   4.083   2.947   7.737 -2.4783  0.3955 -0.9341
   62SAPC   C14 4853   4.201   3.115   7.468 -0.0087 -0.0404 -1.0460
   62SAPC  H14A 4854   4.225   3.198   7.532  0.7272 -1.3003  0.3942
   62SAPC  H14B 4855   4.287   3.053   7.448 -0.5366 -1.4339  0.7463
   62SAPC  H14C 4856   4.164   3.151   7.373 -1.6685 -2.8841 -1.6154
   62SAPC   C15 4857   3.991   3.125   7.571 -0.2640  0.1704 -0.3538
   62SAPC  H15A 4858   3.906   3.088   7.626 -0.9964  2.8023  0.4181
   62SAPC  H15B 4859   4.021   3.206   7.636 -0.7240 -0.1670  0.2894
   62SAPC  H15C 4860   3.945   3.165   7.481 -0.5809 -0.2499 -0.3812
   62SAPC   C11 4861   3.993   2.927   7.315 -0.0677 -0.2242  0.7020
   62SAPC  H11A 4862   3.929   3.017   7.328 -1.3687 -1.1000  0.5335
   62SAPC  H11B 4863   3.926   2.845   7.281  0.8996 -0.1177 -1.6539
   62SAPC     P 4864   4.192   2.844   7.174 -0.5625 -0.2752  0.0774
   62SAPC   O13 4865   4.303   2.902   7.096  0.0598 -0.0473 -0.3847
   62SAPC   O14 4866   4.224   2.751   7.284  0.6908  0.2185 -0.0246
   62SAPC   O12 4867   4.096   2.953   7.225 -0.0110 -0.0485  0.3688
   62SAPC   O11 4868   4.104   2.760   7.078  0.3672 -0.0560  0.1558
   62SAPC    C1 4869   4.099   2.778   6.934  0.2513 -0.2298  0.1915
   62SAPC    HA 4870   4.185   2.827   6.885  0.1039 -0.5811 -0.4246
   62SAPC    HB 4871   4.098   2.682   6.878  1.5591  0.3242 -0.8284
   62SAPC    C2 4872   3.967   2.849   6.891  0.3792 -0.6566  0.3610
   62SAPC    HS 4873   3.888   2.828   6.966 -2.1675 -0.4965 -2.1122
   62SAPC   O21 4874   3.926   2.804   6.757 -0.1762 -0.1605  0.3441
   62SAPC   C21 4875   3.852   2.699   6.744  0.1466 -0.2438 -0.0770
   62SAPC   O22 4876   3.799   2.644   6.838  0.2276  0.5094 -0.3012
   62SAPC   C22 4877   3.838   2.663   6.597 -0.3679  0.0743  0.8162
   62SAPC   H2R 4878   3.939   2.635   6.559 -0.9896  0.4386 -1.2559
   62SAPC   H2S 4879   3.769   2.576   6.585 -1.2389  0.6169  1.7634
   62SAPC    C3 4880   3.987   3.007   6.885  0.4633 -0.4376 -0.2510
   62SAPC    HX 4881   4.065   3.022   6.808 -0.4737 -1.7365 -1.5003
   62SAPC    HY 4882   4.024   3.035   6.986  0.3276  0.2429 -0.3865
   62SAPC   O31 4883   3.863   3.071   6.849  0.1452  0.0203  0.4031
   62SAPC   C31 4884   3.869   3.203   6.858 -0.5042  0.3864  0.0394
   62SAPC   O32 4885   3.974   3.263   6.889  0.5219  0.4918  0.4340
   62SAPC   C32 4886   3.734   3.268   6.831  0.4652 -0.1501  0.1616
   62SAPC   H2X 4887   3.690   3.301   6.927 -0.1724  3.3850 -1.2282
   62SAPC   H2Y 4888   3.672   3.213   6.757 -0.1983  1.1276 -0.2553
   62SAPC   C23 4889   3.792   2.785   6.516 -0.3217  0.1206  0.1465
   62SAPC   H3R 4890   3.845   2.879   6.542  0.4131 -0.0894 -0.5308
   62SAPC   H3S 4891   3.687   2.790   6.550 -0.5539 -1.1189 -0.3334
   62SAPC   C24 4892   3.805   2.762   6.365 -0.3032 -0.4353  0.7013
   62SAPC   H4R 4893   3.728   2.820   6.310  0.5583 -0.3924 -0.5133
   62SAPC   H4S 4894   3.786   2.655   6.342 -2.7816  0.6917 -3.6655
   62SAPC   C25 4895   3.938   2.795   6.319  0.3727  0.1579 -0.2295
   62SAPC   H5R 4896   4.021   2.786   6.392 -0.5146 -0.8582  0.6857
   62SAPC   C26 4897   3.962   2.847   6.199 -0.1987 -0.1205  0.0870
   62SAPC   H6R 4898   4.065   2.872   6.169  0.3940  1.1522  2.9196
   62SAPC   C27 4899   3.872   2.880   6.081  0.0101  1.8025 -0.0789
   62SAPC   H7R 4900   3.766   2.867   6.113  0.7423 -2.3496  1.1558
   62SAPC   H7S 4901   3.899   2.798   6.012  0.0432  1.0906  0.7542
   62SAPC   C28 4902   3.922   3.007   6.019 -0.3212 -0.2077  0.0126
   62SAPC   H8R 4903   3.950   3.079   6.097 -0.0797 -0.0065 -0.2552
   62SAPC   C29 4904   3.938   3.032   5.890 -0.5982 -0.4883 -0.7049
   62SAPC   H9R 4905   3.981   3.132   5.871 -0.5737 -0.0755  1.2575
   62SAPC  C210 4906   3.899   2.948   5.769 -0.0556  0.3582  0.0582
   62SAPC  H10R 4907   3.878   2.843   5.799 -0.6019  0.9436  1.8003
   62SAPC  H10S 4908   3.973   2.957   5.686 -0.7118  0.6016 -0.5137
   62SAPC  C211 4909   3.763   2.996   5.723  0.5003  0.3566  0.0438
   62SAPC  H11R 4910   3.709   3.054   5.798  1.5143  0.8075  0.4490
   62SAPC  C212 4911   3.722   2.983   5.592 -0.3049  0.4155  0.2130
   62SAPC  H12R 4912   3.623   3.018   5.557 -1.1807 -2.7086 -0.6968
   62SAPC  C213 4913   3.792   2.910   5.487 -0.8043  0.1120  0.6903
   62SAPC  H13R 4914   3.898   2.946   5.485 -0.3827 -1.1090 -0.6094
   62SAPC  H13S 4915   3.758   2.946   5.387  2.5015  2.0083  0.0887
   62SAPC  C214 4916   3.795   2.760   5.491  0.7304  0.3540  0.2406
   62SAPC  H14R 4917   3.713   2.719   5.551 -0.8881  2.1322 -0.6660
   62SAPC  C215 4918   3.851   2.673   5.406  0.5976  0.3300 -0.4421
   62SAPC  H15R 4919   3.830   2.566   5.420  1.8878  0.0301 -0.6684
   62SAPC  C216 4920   3.957   2.715   5.304 -0.4291  0.0577 -0.8857
   62SAPC  H16R 4921   4.057   2.676   5.333 -1.0391  0.3284  1.7964
   62SAPC  H16S 4922   3.969   2.825   5.304  0.8608 -0.0601 -1.3536
   62SAPC  C217 4923   3.933   2.674   5.167 -0.4203  0.5918 -0.3617
   62SAPC  H17R 4924   4.016   2.725   5.113  0.1859 -1.6806 -1.7144
   62SAPC  H17S 4925   3.837   2.717   5.129  0.1422  2.6257  0.3889
   62SAPC  C218 4926   3.944   2.521   5.154 -0.3211 -0.3917  0.6531
   62SAPC  H18R 4927   3.877   2.476   5.230 -0.6148  0.5796  0.9785
   62SAPC  H18S 4928   4.049   2.496   5.183  0.0871  0.6779  0.1509
   62SAPC  C219 4929   3.900   2.460   5.019 -0.3746 -0.1842 -0.8675
   62SAPC  H19R 4930   3.799   2.495   4.987 -0.0089  2.9231  1.0012
   62SAPC  H19S 4931   3.896   2.353   5.049 -0.7945  0.0464 -0.0743
   62SAPC  C220 4932   4.008   2.481   4.920 -0.2147 -0.4525  0.0005
   62SAPC  H20R 4933   3.972   2.458   4.818 -0.7837  1.9421 -0.4040
   62SAPC  H20S 4934   4.097   2.418   4.940  0.6637  0.6099 -0.4541
   62SAPC  H20T 4935   4.029   2.590   4.913  0.1255 -0.5329 -0.2314
   62SAPC   C33 4936   3.755   3.411   6.768  0.0113 -0.8926 -0.3465
   62SAPC   H3X 4937   3.811   3.475   6.839  0.4424 -2.7040  1.0133
   62SAPC   H3Y 4938   3.658   3.462   6.754 -0.0291 -0.9222 -0.1730
   62SAPC   C34 4939   3.828   3.400   6.629 -0.1103 -0.4958 -0.3852
   62SAPC   H4X 4940   3.932   3.363   6.646 -1.1329 -2.3079  2.7445
   62SAPC   H4Y 4941   3.846   3.503   6.594  2.0071 -0.1082  1.5688
   62SAPC   C35 4942   3.771   3.318   6.512 -0.1410  0.1142  0.4324
   62SAPC   H5X 4943   3.748   3.216   6.549  1.5870 -1.2697 -2.0305
   62SAPC   H5Y 4944   3.847   3.283   6.440 -0.3419 -1.3050  0.8865
   62SAPC   C36 4945   3.646   3.384   6.449  0.2326  0.3562  0.2286
   62SAPC   H6X 4946   3.672   3.489   6.422 -1.0851  1.0972  1.7183
   62SAPC   H6Y 4947   3.582   3.386   6.540  1.7469 -1.4338  1.4094
   62SAPC   C37 4948   3.578   3.313   6.338  0.2803  0.0030  0.2394
   62SAPC   H7X 4949   3.476   3.351   6.313  0.1348 -0.1919  0.5275
   62SAPC   H7Y 4950   3.560   3.207   6.366  0.0811 -0.3790 -1.2397
   62SAPC   C38 4951   3.669   3.302   6.215  0.2669 -0.1335 -0.1000
   62SAPC   H8X 4952   3.757   3.236   6.231 -1.0825 -1.2359  3.6241
   62SAPC   H8Y 4953   3.707   3.406   6.203 -0.6352  0.2876  0.5833
   62SAPC   C39 4954   3.604   3.271   6.076 -0.1878 -0.2412  0.3514
   62SAPC   H9X 4955   3.530   3.189   6.079 -0.1949 -0.2527 -0.1121
   62SAPC   H9Y 4956   3.679   3.236   6.002 -2.4608 -0.1329 -2.1711
   62SAPC  C310 4957   3.541   3.398   6.009  0.7475 -0.0390  0.5429
   62SAPC  H10X 4958   3.624   3.472   6.015  1.5392 -0.8741  0.2122
   62SAPC  H10Y 4959   3.467   3.435   6.083  0.3392 -0.1901  0.2120
   62SAPC  C311 4960   3.474   3.388   5.879  0.1818 -0.4163  0.4438
   62SAPC  H11X 4961   3.422   3.484   5.862  0.8804 -0.3513 -1.6435
   62SAPC  H11Y 4962   3.400   3.306   5.869 -1.3213  1.0059 -0.7243
   62SAPC  C312 4963   3.579   3.383   5.758 -0.8556 -0.2264  0.1786
   62SAPC  H12X 4964   3.664   3.315   5.779  0.3322  0.9418 -0.6551
   62SAPC  H12Y 4965   3.621   3.486   5.752 -1.4855  0.1106  1.3318
   62SAPC  C313 4966   3.524   3.355   5.620  0.7566  0.7626  0.0086
   62SAPC  H13X 4967   3.434   3.417   5.600  0.7982  1.1551  0.9862
   62SAPC  H13Y 4968   3.491   3.250   5.605 -2.1638  1.7377 -1.1910
   62SAPC  C314 4969   3.616   3.388   5.510  0.8968  0.2084  0.7140
   62SAPC  H14X 4970   3.715   3.343   5.529  1.3686  0.8026 -0.2688
   62SAPC  H14Y 4971   3.628   3.498   5.514  2.3669  0.0644  0.7360
   62SAPC  C315 4972   3.560   3.349   5.365 -0.2450  0.4148 -0.4420
   62SAPC  H15X 4973   3.464   3.294   5.371 -0.0751 -0.2954 -2.9709
   62SAPC  H15Y 4974   3.624   3.272   5.317 -0.8529  0.0804 -0.7236
   62SAPC  C316 4975   3.551   3.467   5.269 -0.8317 -0.0349 -0.3024
   62SAPC  H16X 4976   3.654   3.506   5.266  0.1606 -2.4648 -0.2084
   62SAPC  H16Y 4977   3.492   3.545   5.322  1.0945  1.4363 -0.2424
   62SAPC  C317 4978   3.492   3.438   5.128 -0.3435  0.2918  0.5399
   62SAPC  H17X 4979   3.382   3.440   5.144 -0.3428 -0.1712  0.6264
   62SAPC  H17Y 4980   3.536   3.339   5.104  2.0235  1.5313 -0.5033
   62SAPC  C318 4981   3.525   3.539   5.021 -0.0272 -0.7402  0.3896
   62SAPC  H18X 4982   3.531   3.486   4.924 -0.1160  0.2337 -0.1511
   62SAPC  H18Y 4983   3.626   3.581   5.043  0.4300 -1.3414 -0.4980
   62SAPC  H18Z 4984   3.450   3.618   5.001  0.2038 -0.2407  1.3849
   63SAPC     N 4985   6.782   6.559   7.219 -0.5722  0.3559 -0.2964
   63SAPC   C12 4986   6.859   6.595   7.088 -0.3109 -0.4166  0.3495
   63SAPC  H12A 4987   6.951   6.638   7.124 -0.6142  0.1466  0.4790
   63SAPC  H12B 4988   6.806   6.683   7.054  0.6905  0.0888  0.0528
   63SAPC   C13 4989   6.858   6.461   7.302  0.5626  0.1953 -0.0673
   63SAPC  H13A 4990   6.798   6.437   7.389  0.0266  1.8771  0.0526
   63SAPC  H13B 4991   6.852   6.373   7.239 -2.4316  0.6686 -0.6049
   63SAPC  H13C 4992   6.959   6.484   7.330  0.0108  1.4725  0.9417
   63SAPC   C14 4993   6.764   6.682   7.309 -0.3044 -0.0472 -0.1165
   63SAPC  H14A 4994   6.737   6.663   7.412  0.1030  1.0125  0.2039
   63SAPC  H14B 4995   6.854   6.742   7.311  0.3113 -0.9618  0.3443
   63SAPC  H14C 4996   6.691   6.746   7.261  1.2174  0.3785 -1.9745
   63SAPC   C15 4997   6.652   6.503   7.188 -0.2349  0.0300  0.2918
   63SAPC  H15A 4998   6.601   6.483   7.282  1.4802 -1.7610  0.9142
   63SAPC  H15B 4999   6.586   6.555   7.120 -0.6697  0.8836  1.3281
   63SAPC  H15C 5000   6.657   6.405   7.143  1.4916 -0.4710  1.4480
   63SAPC   C11 5001   6.877   6.480   6.980 -0.1939 -0.0013  0.0474
   63SAPC  H11A 5002   6.900   6.516   6.878  1.4977 -0.7926  0.1081
   63SAPC  H11B 5003   6.790   6.412   6.977 -0.1078 -0.2579  1.9068
   63SAPC     P 5004   7.135   6.438   6.984  0.2298 -0.4596  0.4209
   63SAPC   O13 5005   7.155   6.579   7.031 -0.7588  0.3875 -0.5018
   63SAPC   O14 5006   7.222   6.337   7.039 -0.1250  0.1283  0.0787
   63SAPC   O12 5007   6.985   6.395   7.022  0.3735 -0.0986  0.1390
   63SAPC   O11 5008   7.158   6.430   6.832 -0.0814 -0.0883  0.2402
   63SAPC    C1 5009   7.067   6.339   6.758  0.2710 -0.5471  0.3432
   63SAPC    HA 5010   7.005   6.270   6.819 -1.6681 -2.2039 -3.2169
   63SAPC    HB 5011   6.996   6.401   6.699 -1.4247 -0.9658  1.8609
   63SAPC    C2 5012   7.158   6.253   6.668 -0.7030 -0.3160 -0.5598
   63SAPC    HS 5013   7.227   6.193   6.731  0.1114  0.3599 -0.7746
   63SAPC   O21 5014   7.245   6.340   6.590  0.2109 -0.8427  0.1306
   63SAPC   C21 5015   7.354   6.289   6.540  0.3367 -0.5322  0.5273
   63SAPC   O22 5016   7.397   6.178   6.570 -0.3638  0.3331 -0.2593
   63SAPC   C22 5017   7.426   6.393   6.438  0.3166  0.3065 -0.3122
   63SAPC   H2R 5018   7.365   6.375   6.346 -2.0433 -2.2544  1.5645
   63SAPC   H2S 5019   7.414   6.496   6.476 -0.5901 -0.0569  0.4391
   63SAPC    C3 5020   7.066   6.157   6.587  0.2960  0.3244 -0.0148
   63SAPC    HX 5021   7.023   6.098   6.671  0.5628 -0.0960 -0.1680
   63SAPC    HY 5022   7.139   6.091   6.536  0.3174 -1.1204  1.7649
   63SAPC   O31 5023   6.981   6.236   6.498  0.2902  0.1531  0.4533
   63SAPC   C31 5024   6.848   6.210   6.513 -0.0336  0.1832 -0.1687
   63SAPC   O32 5025   6.797   6.135   6.592  0.0956 -0.2059  0.1603
   63SAPC   C32 5026   6.762   6.281   6.413  0.1577  0.1413 -0.5008
   63SAPC   H2X 5027   6.769   6.390   6.434 -0.6441  0.2397 -0.7058
   63SAPC   H2Y 5028   6.657   6.254   6.438  0.1010 -1.0669 -1.8995
   63SAPC   C23 5029   7.576   6.356   6.421 -0.1482  0.8002  0.5585
   63SAPC   H3R 5030   7.586   6.256   6.375  0.1657  0.9837  0.2275
   63SAPC   H3S 5031   7.631   6.349   6.517  1.3850 -0.3836 -0.3782
   63SAPC   C24 5032   7.645   6.458   6.332 -0.7329  0.4520 -0.0293
   63SAPC   H4R 5033   7.586   6.470   6.239  2.0423 -0.0973 -1.9819
   63SAPC   H4S 5034   7.742   6.415   6.299 -2.0927 -0.9904 -2.3932
   63SAPC   C25 5035   7.672   6.581   6.408  0.1178 -0.2296  0.3300
   63SAPC   H5R 5036   7.727   6.566   6.503 -0.7657 -0.5956  0.7990
   63SAPC   C26 5037   7.608   6.705   6.390  0.1510  0.5945 -0.2731
   63SAPC   H6R 5038   7.626   6.786   6.463 -0.7665  0.4325  0.1442
   63SAPC   C27 5039   7.528   6.742   6.266 -0.2655  0.3727  0.1726
   63SAPC   H7R 5040   7.440   6.802   6.296 -1.0384 -1.4988  1.8673
   63SAPC   H7S 5041   7.484   6.644   6.237  1.4942 -0.7144  0.9687
   63SAPC   C28 5042   7.612   6.795   6.162 -0.2865  0.9049  0.0846
   63SAPC   H8R 5043   7.719   6.771   6.159 -0.6041 -0.5715 -0.2739
   63SAPC   C29 5044   7.566   6.889   6.079 -0.1117  0.5603  0.3852
   63SAPC   H9R 5045   7.643   6.922   6.007 -0.9614  0.8224 -0.4238
   63SAPC  C210 5046   7.429   6.952   6.065 -0.2673  0.5994  0.0655
   63SAPC  H10R 5047   7.424   7.021   6.151  1.6383  1.3291 -0.3500
   63SAPC  H10S 5048   7.343   6.882   6.068  0.7893 -0.7318  1.8637
   63SAPC  C211 5049   7.414   7.041   5.941  1.3160 -0.0696 -0.3924
   63SAPC  H11R 5050   7.400   7.147   5.964 -0.0126 -0.1921 -0.5702
   63SAPC  C212 5051   7.401   6.997   5.813  0.3263  0.3668 -0.3704
   63SAPC  H12R 5052   7.406   7.066   5.728  0.9950  0.9709  0.1399
   63SAPC  C213 5053   7.399   6.848   5.779  0.4698 -0.4404 -0.2149
   63SAPC  H13R 5054   7.312   6.827   5.713  0.4667  0.0775 -0.3823
   63SAPC  H13S 5055   7.389   6.775   5.862  0.6340 -1.0264 -0.6992
   63SAPC  C214 5056   7.522   6.801   5.714  0.5865 -0.0886  0.0287
   63SAPC  H14R 5057   7.608   6.868   5.725  0.8837 -0.3582 -0.6218
   63SAPC  C215 5058   7.549   6.687   5.658  0.3562  0.5129  0.0113
   63SAPC  H15R 5059   7.649   6.665   5.618 -0.7002 -1.1001 -1.9577
   63SAPC  C216 5060   7.457   6.566   5.645  0.5419  0.6620 -0.2839
   63SAPC  H16R 5061   7.441   6.531   5.540  0.1399  2.2030 -0.7644
   63SAPC  H16S 5062   7.364   6.588   5.701 -0.8383  1.0018 -2.5653
   63SAPC  C217 5063   7.524   6.445   5.722  0.1020  0.4837  0.5086
   63SAPC  H17R 5064   7.626   6.431   5.680  0.1388  0.4345  0.6143
   63SAPC  H17S 5065   7.455   6.360   5.703  1.7237 -1.1139  1.3803
   63SAPC  C218 5066   7.529   6.460   5.878 -0.5408 -0.1335  0.1246
   63SAPC  H18R 5067   7.442   6.514   5.922  1.7031  1.5393  2.8445
   63SAPC  H18S 5068   7.621   6.520   5.890  0.0519 -0.8976 -0.4996
   63SAPC  C219 5069   7.556   6.336   5.958  0.6885  0.5965  0.5215
   63SAPC  H19R 5070   7.605   6.364   6.053 -2.0582 -0.4194  2.3844
   63SAPC  H19S 5071   7.619   6.266   5.899 -0.1905  0.7292 -0.6033
   63SAPC  C220 5072   7.434   6.253   5.997  0.5639 -0.6961 -0.4930
   63SAPC  H20R 5073   7.364   6.302   6.068 -0.6135 -2.7819 -0.1433
   63SAPC  H20S 5074   7.468   6.155   6.035  0.6811 -0.5199 -0.1391
   63SAPC  H20T 5075   7.375   6.245   5.903 -0.5820  1.8297 -0.0763
   63SAPC   C33 5076   6.806   6.247   6.270  0.0208 -0.2913 -0.8682
   63SAPC   H3X 5077   6.779   6.141   6.251  1.8455 -1.0595  0.6151
   63SAPC   H3Y 5078   6.916   6.244   6.257  0.6991  0.8043  3.2695
   63SAPC   C34 5079   6.729   6.322   6.163 -0.4025  0.7139  0.2943
   63SAPC   H4X 5080   6.767   6.427   6.158  0.0087  0.5597  0.1184
   63SAPC   H4Y 5081   6.621   6.329   6.187 -0.9761 -3.4894 -0.2735
   63SAPC   C35 5082   6.742   6.275   6.019 -0.2533  0.0587 -0.3115
   63SAPC   H5X 5083   6.725   6.165   6.021  0.7648 -0.1102  0.1132
   63SAPC   H5Y 5084   6.841   6.305   5.979 -1.1344 -0.5551 -3.1357
   63SAPC   C36 5085   6.623   6.343   5.948  0.2315  0.3153 -1.1569
   63SAPC   H6X 5086   6.651   6.450   5.947  1.2768  0.0556 -0.8675
   63SAPC   H6Y 5087   6.528   6.310   5.995  0.4320  0.6937 -0.4785
   63SAPC   C37 5088   6.630   6.296   5.802 -0.3546  0.7572 -0.6906
   63SAPC   H7X 5089   6.627   6.185   5.802  0.4063  0.7263 -0.0903
   63SAPC   H7Y 5090   6.724   6.338   5.759  0.6358  0.4316  1.0666
   63SAPC   C38 5091   6.506   6.335   5.726 -0.8832  0.1363  0.0689
   63SAPC   H8X 5092   6.494   6.445   5.713 -3.6810 -0.1514 -0.4141
   63SAPC   H8Y 5093   6.421   6.294   5.785  0.4331 -2.2017  0.4576
   63SAPC   C39 5094   6.514   6.281   5.590 -0.3544 -0.4696  0.6430
   63SAPC   H9X 5095   6.518   6.170   5.595 -1.3940 -0.5488  0.0039
   63SAPC   H9Y 5096   6.611   6.316   5.548 -0.4613  0.6919  1.3175
   63SAPC  C310 5097   6.403   6.340   5.495 -0.0721  0.7072 -0.1865
   63SAPC  H10X 5098   6.392   6.449   5.508  0.2793  0.8243 -0.8145
   63SAPC  H10Y 5099   6.309   6.302   5.539 -0.3911  0.5207 -1.0047
   63SAPC  C311 5100   6.422   6.305   5.343 -0.3769 -0.2206  0.1900
   63SAPC  H11X 5101   6.426   6.194   5.343 -1.3106 -0.3166 -2.6761
   63SAPC  H11Y 5102   6.517   6.339   5.297  1.3625 -1.9033  2.3097
   63SAPC  C312 5103   6.307   6.361   5.250  1.1368 -0.2869  0.4427
   63SAPC  H12X 5104   6.305   6.472   5.260 -2.5416 -0.4014  2.9342
   63SAPC  H12Y 5105   6.207   6.329   5.288  0.7506  0.3623  0.0084
   63SAPC  C313 5106   6.307   6.334   5.098  0.1718  0.2209  0.4912
   63SAPC  H13X 5107   6.412   6.324   5.061  0.2438  0.3096  0.6727
   63SAPC  H13Y 5108   6.261   6.417   5.040  1.1901 -0.6983 -1.7927
   63SAPC  C314 5109   6.243   6.202   5.053 -0.4592  0.6019  0.7104
   63SAPC  H14X 5110   6.143   6.203   5.102 -0.9017 -2.5413  0.0954
   63SAPC  H14Y 5111   6.292   6.112   5.096 -0.5919 -0.6181 -1.5263
   63SAPC  C315 5112   6.233   6.184   4.893 -0.0020  0.4521 -0.1168
   63SAPC  H15X 5113   6.330   6.195   4.841  0.3672  1.7633  0.7750
   63SAPC  H15Y 5114   6.177   6.273   4.856 -1.2686  0.5312  1.8408
   63SAPC  C316 5115   6.143   6.067   4.848 -0.1847  0.1192 -0.6569
   63SAPC  H16X 5116   6.093   6.009   4.928  0.1469 -0.0983 -0.6046
   63SAPC  H16Y 5117   6.217   5.991   4.814 -0.7248 -0.2217 -1.0886
   63SAPC  C317 5118   6.055   6.096   4.732  0.8805 -0.5078  0.6351
   63SAPC  H17X 5119   6.108   6.163   4.661  2.0684 -0.5905  1.4174
   63SAPC  H17Y 5120   5.965   6.157   4.755 -2.3071 -3.9386 -1.5799
   63SAPC  C318 5121   6.000   5.970   4.662 -0.1192  0.5351 -0.2801
   63SAPC  H18X 5122   5.935   5.998   4.576  0.3596  2.3038 -0.0895
   63SAPC  H18Y 5123   5.941   5.895   4.721 -1.3604  1.0976 -0.7629
   63SAPC  H18Z 5124   6.084   5.922   4.608  0.7257  1.1946  0.4273
   64SAPC     N 5125   6.821   5.774   7.387  0.5748  0.2118  0.0419
   64SAPC   C12 5126   6.755   5.894   7.311  0.2030 -0.5757 -0.3837
   64SAPC  H12A 5127   6.824   5.977   7.312  0.2203 -0.5638  2.1323
   64SAPC  H12B 5128   6.665   5.930   7.358  0.5783 -1.4485  1.0350
   64SAPC   C13 5129   6.938   5.730   7.307 -0.1642 -0.1726 -0.5041
   64SAPC  H13A 5130   6.902   5.726   7.205 -0.1748 -0.8404 -0.4743
   64SAPC  H13B 5131   7.022   5.797   7.314 -1.6860  1.7337  0.5845
   64SAPC  H13C 5132   6.963   5.628   7.333 -2.3837 -0.5263  0.4340
   64SAPC   C14 5133   6.857   5.801   7.536 -0.0441  0.1015 -0.0372
   64SAPC  H14A 5134   6.936   5.875   7.535  0.2285 -0.1155 -2.7810
   64SAPC  H14B 5135   6.774   5.834   7.596  0.2874  0.9275 -0.0150
   64SAPC  H14C 5136   6.893   5.712   7.584 -1.6115  0.1834  1.3800
   64SAPC   C15 5137   6.720   5.655   7.386  0.1131  0.0534 -0.3552
   64SAPC  H15A 5138   6.699   5.631   7.283  1.2652  0.3041 -0.6592
   64SAPC  H15B 5139   6.771   5.569   7.425  0.7929  1.0301  0.9790
   64SAPC  H15C 5140   6.636   5.679   7.450  2.0077 -0.0826  2.3453
   64SAPC   C11 5141   6.718   5.870   7.159 -0.2092  0.0042  0.2396
   64SAPC  H11A 5142   6.804   5.823   7.107 -2.1453 -1.6163 -1.6806
   64SAPC  H11B 5143   6.703   5.968   7.109 -2.1163  0.2118  1.1104
   64SAPC     P 5144   6.466   5.829   7.159  0.0441 -0.4469  0.0618
   64SAPC   O13 5145   6.399   5.734   7.248  0.1860 -0.4840 -0.2967
   64SAPC   O14 5146   6.459   5.976   7.199 -0.3549 -0.4633  0.6399
   64SAPC   O12 5147   6.610   5.775   7.141  0.6062  0.1352 -0.5992
   64SAPC   O11 5148   6.410   5.815   7.010  0.5558  0.0215  0.2401
   64SAPC    C1 5149   6.476   5.891   6.914  0.0779  0.3138  0.1142
   64SAPC    HA 5150   6.468   5.999   6.938  1.9795  1.0420 -2.1592
   64SAPC    HB 5151   6.582   5.858   6.905 -0.6931 -3.0866  1.6939
   64SAPC    C2 5152   6.418   5.893   6.768  0.1365  0.5816  0.6472
   64SAPC    HS 5153   6.316   5.935   6.782 -0.3533  0.1506 -1.3830
   64SAPC   O21 5154   6.382   5.764   6.715 -0.2763 -0.1719  0.6826
   64SAPC   C21 5155   6.475   5.680   6.686  0.4807  0.1912  0.2575
   64SAPC   O22 5156   6.594   5.696   6.694  0.4484  0.1607 -0.3201
   64SAPC   C22 5157   6.401   5.550   6.643 -0.2961 -0.2166  0.5387
   64SAPC   H2R 5158   6.363   5.502   6.735  1.2590 -0.4029  1.1144
   64SAPC   H2S 5159   6.315   5.585   6.582 -0.2948  0.3482  0.8504
   64SAPC    C3 5160   6.494   5.990   6.663  0.5952  0.2593 -0.5011
   64SAPC    HX 5161   6.597   5.951   6.645  0.2583 -0.1769 -1.5575
   64SAPC    HY 5162   6.502   6.088   6.716 -1.0203  0.7838 -1.1424
   64SAPC   O31 5163   6.413   6.012   6.548  0.0578 -0.2542  0.4364
   64SAPC   C31 5164   6.455   5.938   6.451  0.3025  0.0204  0.6084
   64SAPC   O32 5165   6.546   5.856   6.455  0.2035  0.0838 -0.1949
   64SAPC   C32 5166   6.401   5.999   6.327 -0.1714  0.3013  0.3129
   64SAPC   H2X 5167   6.443   6.101   6.318 -0.3604  0.2686 -1.1492
   64SAPC   H2Y 5168   6.291   6.012   6.341 -0.2281 -0.7051  0.9209
   64SAPC   C23 5169   6.486   5.463   6.559 -0.4967  0.5384 -0.0647
   64SAPC   H3R 5170   6.547   5.391   6.617 -0.9012 -0.9937 -1.4491
   64SAPC   H3S 5171   6.552   5.516   6.487  1.2068  0.2991  1.2855
   64SAPC   C24 5172   6.391   5.365   6.478  0.7802 -0.0678  0.0274
   64SAPC   H4R 5173   6.338   5.426   6.402 -1.2101  0.6053  1.8686
   64SAPC   H4S 5174   6.312   5.317   6.539 -1.3870  0.7146 -2.0382
   64SAPC   C25 5175   6.484   5.258   6.423 -0.7407 -0.5903 -0.1437
   64SAPC   H5R 5176   6.502   5.176   6.494 -1.1483  0.3506  1.0780
   64SAPC   C26 5177   6.555   5.270   6.305  0.1382 -0.3775 -0.7995
   64SAPC   H6R 5178   6.623   5.186   6.283  0.5305 -0.1154 -0.5973
   64SAPC   C27 5179   6.556   5.389   6.212  0.6402 -0.4894  0.1286
   64SAPC   H7R 5180   6.656   5.412   6.169  0.6695 -1.4454 -0.3487
   64SAPC   H7S 5181   6.531   5.484   6.264  3.6152  1.2811 -1.3731
   64SAPC   C28 5182   6.449   5.379   6.107 -0.0135 -0.3963  0.2111
   64SAPC   H8R 5183   6.351   5.384   6.155  0.5419 -0.8714  1.4290
   64SAPC   C29 5184   6.455   5.392   5.974  0.4836 -0.2432 -0.2526
   64SAPC   H9R 5185   6.361   5.400   5.918  1.2097  3.3210 -1.2290
   64SAPC  C210 5186   6.573   5.407   5.878 -0.4266  0.8324 -0.1112
   64SAPC  H10R 5187   6.576   5.333   5.795 -0.1464 -0.6393  1.1630
   64SAPC  H10S 5188   6.665   5.377   5.932  0.2520  0.1572 -1.6108
   64SAPC  C211 5189   6.603   5.550   5.830 -0.3882  0.0803 -0.1366
   64SAPC  H11R 5190   6.587   5.630   5.903  0.9956  1.3276 -1.1435
   64SAPC  C212 5191   6.651   5.574   5.705  0.7317 -0.2869  0.1085
   64SAPC  H12R 5192   6.652   5.680   5.677 -0.0607 -0.4637 -0.6114
   64SAPC  C213 5193   6.680   5.469   5.592  0.8358 -0.1434  0.2941
   64SAPC  H13R 5194   6.740   5.386   5.633 -0.2966 -0.3696  1.5504
   64SAPC  H13S 5195   6.744   5.530   5.524 -1.5196  3.5069  1.0803
   64SAPC  C214 5196   6.553   5.417   5.527 -0.1687 -1.1343 -0.2643
   64SAPC  H14R 5197   6.459   5.429   5.583  0.1105 -1.7692  0.3634
   64SAPC  C215 5198   6.552   5.360   5.407  0.5170 -0.0521 -0.6776
   64SAPC  H15R 5199   6.453   5.327   5.371  0.3598  0.1278 -0.4148
   64SAPC  C216 5200   6.671   5.321   5.319  0.0295 -0.6909 -0.1488
   64SAPC  H16R 5201   6.661   5.220   5.274 -2.3508 -1.4941  1.9870
   64SAPC  H16S 5202   6.764   5.310   5.379 -0.6478 -1.5175  0.7711
   64SAPC  C217 5203   6.684   5.423   5.207  0.4337  0.3424 -0.3160
   64SAPC  H17R 5204   6.723   5.520   5.247 -1.1323  0.3378  1.3362
   64SAPC  H17S 5205   6.586   5.449   5.163  0.1923  0.3631  0.2308
   64SAPC  C218 5206   6.778   5.366   5.098 -0.3786  0.0022 -0.2580
   64SAPC  H18R 5207   6.720   5.277   5.067  0.8025 -1.3130  1.1713
   64SAPC  H18S 5208   6.884   5.350   5.128 -0.2114 -0.4949 -1.0867
   64SAPC  C219 5209   6.787   5.447   4.968 -0.1331  0.8744 -0.5192
   64SAPC  H19R 5210   6.685   5.457   4.926 -0.0586  4.8538 -0.1554
   64SAPC  H19S 5211   6.860   5.397   4.901 -1.3900  0.2975 -1.4899
   64SAPC  C220 5212   6.837   5.586   4.990 -0.0390 -0.6935 -0.0181
   64SAPC  H20R 5213   6.785   5.636   5.074 -0.4340 -0.7523 -0.2275
   64SAPC  H20S 5214   6.812   5.649   4.902 -0.6411 -0.4857  0.2938
   64SAPC  H20T 5215   6.940   5.594   5.030 -0.1963  0.4189  0.1928
   64SAPC   C33 5216   6.439   5.921   6.198 -0.2750  0.3377 -0.1886
   64SAPC   H3X 5217   6.425   5.813   6.216 -1.0465  0.3215 -0.8365
   64SAPC   H3Y 5218   6.547   5.941   6.178 -0.1658 -0.2262 -0.1623
   64SAPC   C34 5219   6.354   5.958   6.075 -0.1910 -0.1626 -0.1386
   64SAPC   H4X 5220   6.366   6.067   6.058  0.7092 -0.1326  0.6035
   64SAPC   H4Y 5221   6.246   5.938   6.096  0.0348  0.0064  1.2628
   64SAPC   C35 5222   6.404   5.887   5.946 -0.1863 -0.1601 -0.1025
   64SAPC   H5X 5223   6.413   5.778   5.968  0.1007 -0.4484 -1.5566
   64SAPC   H5Y 5224   6.508   5.920   5.925 -0.1785 -0.8223 -1.2186
   64SAPC   C36 5225   6.318   5.923   5.828 -0.3177  0.6024 -0.2005
   64SAPC   H6X 5226   6.311   6.033   5.811  0.6229  0.6443 -0.3835
   64SAPC   H6Y 5227   6.219   5.875   5.845  0.4628 -1.3801 -1.0206
   64SAPC   C37 5228   6.400   5.847   5.711  0.6521 -0.5307  0.2549
   64SAPC   H7X 5229   6.389   5.741   5.743  0.0689 -0.4849  0.2171
   64SAPC   H7Y 5230   6.505   5.881   5.711 -0.2877  2.7449  1.4494
   64SAPC   C38 5231   6.330   5.856   5.568  0.2049  0.6517 -0.4827
   64SAPC   H8X 5232   6.354   5.959   5.532  2.9609  0.5271  0.7270
   64SAPC   H8Y 5233   6.222   5.831   5.570  0.8202 -2.2776 -0.2761
   64SAPC   C39 5234   6.394   5.766   5.461 -0.5901  0.0973  0.0007
   64SAPC   H9X 5235   6.397   5.657   5.482 -0.9189  0.2227  0.7343
   64SAPC   H9Y 5236   6.503   5.788   5.449  0.1053 -2.2264  1.3763
   64SAPC  C310 5237   6.323   5.784   5.326  0.2844  0.0950 -0.4331
   64SAPC  H10X 5238   6.315   5.892   5.301  0.8889  0.0219 -0.9465
   64SAPC  H10Y 5239   6.214   5.761   5.336  0.7294 -1.8212  0.4103
   64SAPC  C311 5240   6.385   5.704   5.213  0.3550 -0.8876  0.2553
   64SAPC  H11X 5241   6.353   5.601   5.242 -0.4244 -0.2001  2.0296
   64SAPC  H11Y 5242   6.496   5.710   5.212  0.3488 -0.8283 -0.4637
   64SAPC  C312 5243   6.330   5.758   5.078 -0.2795  0.2500 -0.1662
   64SAPC  H12X 5244   6.384   5.851   5.048  3.1668 -2.4015 -2.9932
   64SAPC  H12Y 5245   6.225   5.786   5.100  0.5361  2.0033  1.9335
   64SAPC  C313 5246   6.357   5.659   4.968  0.1359 -0.3203 -0.1615
   64SAPC  H13X 5247   6.305   5.561   4.975  0.7955 -0.5975  1.2416
   64SAPC  H13Y 5248   6.466   5.638   4.958  0.2076 -0.9069  1.5192
   64SAPC  C314 5249   6.329   5.721   4.827 -0.0472 -0.3063  0.5464
   64SAPC  H14X 5250   6.383   5.818   4.821 -3.8400  2.0555  1.3250
   64SAPC  H14Y 5251   6.223   5.747   4.805  0.9322  1.9101 -2.2571
   64SAPC  C315 5252   6.393   5.626   4.711  0.0294 -0.2144 -0.7931
   64SAPC  H15X 5253   6.359   5.523   4.735  3.8320 -1.3461  0.4952
   64SAPC  H15Y 5254   6.503   5.623   4.728 -0.4305  0.4647  3.3497
   64SAPC  C316 5255   6.348   5.676   4.578 -0.6400  0.5304 -0.2735
   64SAPC  H16X 5256   6.383   5.781   4.574 -2.0894  1.0717  0.6183
   64SAPC  H16Y 5257   6.238   5.683   4.572 -0.7712  0.3963  1.4212
   64SAPC  C317 5258   6.405   5.594   4.469 -0.0905 -0.7746  0.0636
   64SAPC  H17X 5259   6.355   5.495   4.473 -2.3053  0.0649 -3.0937
   64SAPC  H17Y 5260   6.512   5.573   4.490  0.2518  1.0562  0.3657
   64SAPC  C318 5261   6.370   5.651   4.328  0.0024  0.7903 -0.2790
   64SAPC  H18X 5262   6.259   5.654   4.331 -0.0674 -1.0171  2.4507
   64SAPC  H18Y 5263   6.396   5.579   4.247  1.2957  0.5093  0.3636
   64SAPC  H18Z 5264   6.409   5.754   4.316  1.3863  0.3248  0.0357
   65SAPC     N 5265   3.511   5.914   2.363 -0.5852 -0.4426 -0.3624
   65SAPC   C12 5266   3.566   6.048   2.416 -0.1988 -0.5403  0.2413
   65SAPC  H12A 5267   3.572   6.112   2.329  1.3398  1.5964  1.8046
   65SAPC  H12B 5268   3.670   6.044   2.445  0.3315 -0.1485 -1.4388
   65SAPC   C13 5269   3.613   5.856   2.267 -0.4463  0.1015 -0.3631
   65SAPC  H13A 5270   3.576   5.760   2.232 -0.8301 -0.6649  2.0018
   65SAPC  H13B 5271   3.629   5.922   2.182 -0.6046 -0.7611 -1.0813
   65SAPC  H13C 5272   3.707   5.843   2.317  0.1868 -2.6082 -2.0136
   65SAPC   C14 5273   3.490   5.827   2.477 -0.4116  0.6322 -0.0652
   65SAPC  H14A 5274   3.584   5.791   2.514 -0.0405  1.5096 -0.1136
   65SAPC  H14B 5275   3.434   5.873   2.557  0.8910  0.5369  0.9318
   65SAPC  H14C 5276   3.446   5.737   2.438  1.7008 -0.5805  0.2332
   65SAPC   C15 5277   3.379   5.929   2.289 -0.3011  0.6388  0.5154
   65SAPC  H15A 5278   3.328   5.835   2.275  0.7233  0.0136  0.8141
   65SAPC  H15B 5279   3.318   6.003   2.338 -0.0719  1.0756  0.1422
   65SAPC  H15C 5280   3.396   5.968   2.190  0.0527 -1.9134 -0.4978
   65SAPC   C11 5281   3.493   6.126   2.529 -0.2276  0.7556  0.2035
   65SAPC  H11A 5282   3.556   6.211   2.563  0.5343  1.2008 -2.1776
   65SAPC  H11B 5283   3.483   6.056   2.614 -1.4271  1.6967  0.8828
   65SAPC     P 5284   3.295   6.298   2.569  0.2080  0.2252  0.2846
   65SAPC   O13 5285   3.362   6.425   2.535 -0.8228  0.2927 -0.1525
   65SAPC   O14 5286   3.154   6.296   2.534  0.3222  0.4264 -0.9014
   65SAPC   O12 5287   3.368   6.176   2.491 -0.3978  0.6504 -0.1088
   65SAPC   O11 5288   3.310   6.264   2.725 -0.2428 -0.5632  0.3499
   65SAPC    C1 5289   3.317   6.370   2.818 -0.8052 -0.1886  0.7883
   65SAPC    HA 5290   3.245   6.452   2.794 -1.8941 -1.7829 -1.7520
   65SAPC    HB 5291   3.282   6.326   2.914 -0.3435 -0.8141  0.6743
   65SAPC    C2 5292   3.453   6.426   2.827 -0.6787 -0.0344 -0.2926
   65SAPC    HS 5293   3.484   6.469   2.730  0.7846 -2.1801 -0.8444
   65SAPC   O21 5294   3.543   6.315   2.875  0.3495 -0.4236  0.6302
   65SAPC   C21 5295   3.659   6.320   2.810 -0.6473  0.8925 -0.1281
   65SAPC   O22 5296   3.716   6.419   2.767  0.1774  0.0670  0.7214
   65SAPC   C22 5297   3.718   6.179   2.826 -0.2266  0.4768 -0.2151
   65SAPC   H2R 5298   3.639   6.105   2.848 -0.3038  0.5856 -0.1293
   65SAPC   H2S 5299   3.766   6.165   2.726 -0.5461  1.4850 -0.5268
   65SAPC    C3 5300   3.464   6.533   2.936  0.5038 -1.2791  0.2071
   65SAPC    HX 5301   3.392   6.612   2.905  0.2606 -0.5632  2.3671
   65SAPC    HY 5302   3.569   6.570   2.943  0.2000 -0.1904 -0.7439
   65SAPC   O31 5303   3.421   6.485   3.062 -0.6564  0.2448 -0.2623
   65SAPC   C31 5304   3.396   6.579   3.152  0.5401  0.4326  0.5007
   65SAPC   O32 5305   3.427   6.697   3.133  0.0901 -0.4333  0.0436
   65SAPC   C32 5306   3.327   6.515   3.272 -1.0638  0.0200 -0.1492
   65SAPC   H2X 5307   3.401   6.451   3.325 -2.3369 -0.4734  1.0874
   65SAPC   H2Y 5308   3.245   6.450   3.234 -1.0093  0.1041 -0.4175
   65SAPC   C23 5309   3.825   6.156   2.933  0.3169 -0.8564  0.4719
   65SAPC   H3R 5310   3.898   6.240   2.920 -2.2612  1.4844  0.2682
   65SAPC   H3S 5311   3.887   6.066   2.915 -2.0214 -2.1137 -1.9198
   65SAPC   C24 5312   3.761   6.144   3.071  0.1035 -0.2474  0.0337
   65SAPC   H4R 5313   3.700   6.052   3.068  0.8440 -0.9138  2.5841
   65SAPC   H4S 5314   3.690   6.227   3.092 -2.3909 -2.4050  0.5516
   65SAPC   C25 5315   3.865   6.136   3.177  0.1765  0.5416 -0.2030
   65SAPC   H5R 5316   3.953   6.075   3.153  0.0395  1.3839 -3.3495
   65SAPC   C26 5317   3.867   6.198   3.294  0.5228 -0.2052  0.3343
   65SAPC   H6R 5318   3.949   6.175   3.364  0.6100  1.5706  0.8657
   65SAPC   C27 5319   3.762   6.294   3.352 -0.6903 -0.0270  0.6368
   65SAPC   H7R 5320   3.722   6.358   3.270 -1.6696 -0.4384  0.7864
   65SAPC   H7S 5321   3.818   6.358   3.425  1.7169  0.7309 -1.7124
   65SAPC   C28 5322   3.637   6.231   3.403 -1.1303 -0.1782  0.1745
   65SAPC   H8R 5323   3.605   6.153   3.332  2.3498 -1.6692  0.0273
   65SAPC   C29 5324   3.586   6.267   3.523 -0.3332  0.5182  0.8818
   65SAPC   H9R 5325   3.494   6.220   3.559  0.5070  0.0876  2.6039
   65SAPC  C210 5326   3.631   6.381   3.611 -0.1941 -0.3294 -0.3434
   65SAPC  H10R 5327   3.546   6.416   3.673 -0.6974 -3.7920  1.1558
   65SAPC  H10S 5328   3.665   6.461   3.543 -0.7909 -0.3662 -0.6939
   65SAPC  C211 5329   3.745   6.331   3.698 -0.7483  0.1321 -0.4135
   65SAPC  H11R 5330   3.825   6.274   3.649  0.7315  0.9298  0.9848
   65SAPC  C212 5331   3.763   6.361   3.830  0.5132  0.3825  0.6968
   65SAPC  H12R 5332   3.858   6.334   3.879  1.4500  1.9424 -0.2036
   65SAPC  C213 5333   3.666   6.440   3.916 -0.1208 -0.1235  0.0811
   65SAPC  H13R 5334   3.561   6.438   3.878 -1.5851  0.9443  3.6104
   65SAPC  H13S 5335   3.705   6.542   3.896  1.9164 -0.8666  0.0665
   65SAPC  C214 5336   3.677   6.395   4.060  0.7070 -0.3073 -0.7307
   65SAPC  H14R 5337   3.781   6.383   4.096  0.4802  1.0142  0.4476
   65SAPC  C215 5338   3.575   6.347   4.139  0.0469 -0.1694 -0.4169
   65SAPC  H15R 5339   3.595   6.314   4.242  0.7872 -0.1320 -0.5399
   65SAPC  C216 5340   3.431   6.349   4.100 -0.4635  0.0779  0.7854
   65SAPC  H16R 5341   3.402   6.400   4.006  1.1353  1.4406  0.9999
   65SAPC  H16S 5342   3.383   6.410   4.179  1.6252  0.6068  1.7021
   65SAPC  C217 5343   3.360   6.212   4.111  0.2962 -0.2802  0.6099
   65SAPC  H17R 5344   3.254   6.222   4.077  0.5061 -3.2946 -1.3078
   65SAPC  H17S 5345   3.352   6.189   4.220  1.4606 -1.7552  0.4136
   65SAPC  C218 5346   3.422   6.106   4.018  0.5449  0.6576 -0.2598
   65SAPC  H18R 5347   3.380   6.005   4.037  0.2776  0.5767 -1.2295
   65SAPC  H18S 5348   3.531   6.095   4.039  0.1762  0.8042  1.9246
   65SAPC  C219 5349   3.403   6.136   3.866 -0.3814 -0.6336  0.1977
   65SAPC  H19R 5350   3.445   6.236   3.841  1.8524 -1.4298  0.5637
   65SAPC  H19S 5351   3.298   6.172   3.866 -0.0213  0.4668  1.0175
   65SAPC  C220 5352   3.457   6.040   3.773  0.7178 -0.0045 -0.2928
   65SAPC  H20R 5353   3.424   5.941   3.812 -0.0574  0.6050  0.6513
   65SAPC  H20S 5354   3.567   6.044   3.760  0.6056 -0.5471 -1.6076
   65SAPC  H20T 5355   3.404   6.045   3.676  1.9006  1.9397 -0.8836
   65SAPC   C33 5356   3.282   6.614   3.372  0.1016  0.6419 -0.4660
   65SAPC   H3X 5357   3.203   6.572   3.438 -0.7906  2.0699 -0.5788
   65SAPC   H3Y 5358   3.234   6.703   3.324 -2.6036  0.2277  1.2400
   65SAPC   C34 5359   3.402   6.657   3.466  0.9092  0.4311 -0.5036
   65SAPC   H4X 5360   3.495   6.698   3.420  0.8496  1.1421  0.0012
   65SAPC   H4Y 5361   3.431   6.565   3.521  1.4124  0.9297  0.0776
   65SAPC   C35 5362   3.364   6.762   3.567  0.3144 -0.1059  0.0638
   65SAPC   H5X 5363   3.283   6.726   3.633 -0.3993 -1.1854 -1.3452
   65SAPC   H5Y 5364   3.340   6.858   3.516  2.6435  0.8546  0.6214
   65SAPC   C36 5365   3.489   6.791   3.648 -0.7158 -0.9632  0.2328
   65SAPC   H6X 5366   3.545   6.874   3.599 -0.5500 -1.0999  0.1935
   65SAPC   H6Y 5367   3.557   6.704   3.653 -0.5026 -0.7656  0.9168
   65SAPC   C37 5368   3.459   6.822   3.790  0.0840 -0.9399  0.1496
   65SAPC   H7X 5369   3.447   6.718   3.826 -0.2606 -1.2104 -0.7415
   65SAPC   H7Y 5370   3.372   6.884   3.821 -0.7390 -2.1588  0.3189
   65SAPC   C38 5371   3.579   6.896   3.852 -0.6285  0.1966  0.2430
   65SAPC   H8X 5372   3.609   6.986   3.795 -3.0881  1.2498  0.4877
   65SAPC   H8Y 5373   3.675   6.841   3.841  0.1721  1.4434  0.8429
   65SAPC   C39 5374   3.565   6.944   3.995  0.2473 -0.3538  0.0355
   65SAPC   H9X 5375   3.488   7.023   3.986 -0.9653 -1.6547 -1.8394
   65SAPC   H9Y 5376   3.662   6.976   4.039  1.4421 -1.7283 -1.4608
   65SAPC  C310 5377   3.510   6.834   4.093 -0.4084 -1.0962 -0.1775
   65SAPC  H10X 5378   3.574   6.743   4.092  1.0692 -0.1054  0.3132
   65SAPC  H10Y 5379   3.405   6.811   4.065 -0.8817 -0.1240  0.7335
   65SAPC  C311 5380   3.519   6.887   4.238  0.8861  0.2368 -0.7029
   65SAPC  H11X 5381   3.477   6.990   4.244  0.1160  0.0601 -2.3275
   65SAPC  H11Y 5382   3.625   6.900   4.265  0.4066  0.3354  1.2590
   65SAPC  C312 5383   3.458   6.802   4.335 -0.0911  0.0497 -0.7526
   65SAPC  H12X 5384   3.500   6.700   4.326  1.6989  0.7510 -0.6777
   65SAPC  H12Y 5385   3.353   6.777   4.308 -0.6752  0.5334  0.9205
   65SAPC  C313 5386   3.460   6.856   4.481  0.1204  0.2320 -0.0146
   65SAPC  H13X 5387   3.437   6.964   4.474 -1.9229 -0.1831 -0.4896
   65SAPC  H13Y 5388   3.566   6.857   4.516  0.8129 -0.7795 -1.9082
   65SAPC  C314 5389   3.364   6.778   4.575  0.3921 -0.1492 -0.1941
   65SAPC  H14X 5390   3.267   6.768   4.521  1.0860  1.3766 -1.8112
   65SAPC  H14Y 5391   3.358   6.842   4.666  1.6899 -2.6630  1.7799
   65SAPC  C315 5392   3.426   6.641   4.626  0.4820 -0.3161  0.2087
   65SAPC  H15X 5393   3.384   6.629   4.728  0.1766 -1.1280 -0.0099
   65SAPC  H15Y 5394   3.536   6.656   4.626  0.7022 -1.7935  0.1887
   65SAPC  C316 5395   3.389   6.521   4.539 -0.0692  0.1035  0.0192
   65SAPC  H16X 5396   3.461   6.436   4.545  0.2810  0.2293 -1.8468
   65SAPC  H16Y 5397   3.403   6.562   4.437 -4.1088 -0.7571 -1.0634
   65SAPC  C317 5398   3.243   6.482   4.549 -0.0258 -0.7587 -0.0440
   65SAPC  H17X 5399   3.187   6.578   4.555  3.4632  1.6840 -2.3189
   65SAPC  H17Y 5400   3.232   6.428   4.646 -0.2974 -0.9690 -0.1930
   65SAPC  C318 5401   3.194   6.398   4.433 -0.1843  0.2868  0.2687
   65SAPC  H18X 5402   3.175   6.457   4.341  0.9823 -0.4156 -0.4504
   65SAPC  H18Y 5403   3.100   6.349   4.468 -1.4130  2.7865  0.6438
   65SAPC  H18Z 5404   3.257   6.318   4.390 -0.1251  0.5567 -0.1437
   66SAPC     N 5405   5.894   2.706   2.448  0.7210 -0.6286  0.2185
   66SAPC   C12 5406   5.798   2.783   2.547 -0.6138  0.8473 -0.2491
   66SAPC  H12A 5407   5.708   2.815   2.497 -1.4815 -1.5214 -0.3554
   66SAPC  H12B 5408   5.843   2.877   2.576  0.0556  1.4076 -2.8306
   66SAPC   C13 5409   6.018   2.672   2.514 -0.0078  0.1308  0.4586
   66SAPC  H13A 5410   6.069   2.607   2.444  0.0626  0.2799  0.3724
   66SAPC  H13B 5411   6.087   2.751   2.540  0.8421 -1.0381  1.9238
   66SAPC  H13C 5412   6.002   2.606   2.599 -0.9654 -0.9359 -0.5151
   66SAPC   C14 5413   5.808   2.591   2.395 -0.6539  0.4588  0.2442
   66SAPC  H14A 5414   5.870   2.509   2.362 -1.8043  1.1517 -4.1439
   66SAPC  H14B 5415   5.751   2.558   2.482 -0.2052  0.9661  0.7378
   66SAPC  H14C 5416   5.739   2.615   2.316 -1.2195  0.6398  0.7846
   66SAPC   C15 5417   5.927   2.798   2.332  0.1169  0.3617 -0.2342
   66SAPC  H15A 5418   5.993   2.875   2.368 -0.2894  0.7268 -0.2678
   66SAPC  H15B 5419   5.971   2.745   2.248  2.4214  0.3805  0.8989
   66SAPC  H15C 5420   5.843   2.855   2.294  0.0454  0.8154  0.5816
   66SAPC   C11 5421   5.762   2.711   2.685 -0.6649  0.2555  0.3679
   66SAPC  H11A 5422   5.732   2.787   2.761  0.9858  0.2320  1.0849
   66SAPC  H11B 5423   5.853   2.663   2.728  0.0419 -0.5483 -1.9149
   66SAPC     P 5424   5.504   2.638   2.647 -0.0956  0.1983 -0.4505
   66SAPC   O13 5425   5.482   2.707   2.521 -0.5472  0.2780 -0.1983
   66SAPC   O14 5426   5.444   2.502   2.665 -0.1493  0.8037  0.1853
   66SAPC   O12 5427   5.666   2.613   2.659 -0.1565 -0.7086 -0.4653
   66SAPC   O11 5428   5.470   2.731   2.772  0.1856 -0.0388  0.0404
   66SAPC    C1 5429   5.514   2.696   2.906  0.0961 -0.0486 -0.2777
   66SAPC    HA 5430   5.597   2.623   2.905 -0.4143 -0.6406 -0.4061
   66SAPC    HB 5431   5.564   2.788   2.942  0.6306  1.4844 -4.3830
   66SAPC    C2 5432   5.409   2.630   3.011 -0.4949  0.7882  0.4898
   66SAPC    HS 5433   5.363   2.546   2.956  0.2587  0.9761 -0.4603
   66SAPC   O21 5434   5.319   2.735   3.050 -0.4271  0.0414  0.0006
   66SAPC   C21 5435   5.201   2.697   3.094 -0.1664 -0.1682 -0.5295
   66SAPC   O22 5436   5.165   2.582   3.121 -0.0324 -0.1656 -0.1558
   66SAPC   C22 5437   5.108   2.822   3.125  0.0329 -0.4264 -0.1464
   66SAPC   H2R 5438   5.177   2.895   3.173 -0.0822 -0.8111  0.6289
   66SAPC   H2S 5439   5.062   2.859   3.031 -1.0369  0.6328  0.7607
   66SAPC    C3 5440   5.485   2.569   3.134  0.2025  0.5711  0.1514
   66SAPC    HX 5441   5.418   2.512   3.202 -2.2657 -1.2503 -3.4627
   66SAPC    HY 5442   5.523   2.652   3.197 -0.9916 -0.0908  1.8245
   66SAPC   O31 5443   5.599   2.494   3.093  0.1413  0.4704 -0.0557
   66SAPC   C31 5444   5.570   2.370   3.054 -0.6401 -0.4176  1.0043
   66SAPC   O32 5445   5.454   2.328   3.033 -0.0520 -0.0847 -0.6209
   66SAPC   C32 5446   5.696   2.284   3.040  0.0769 -0.1950  0.7513
   66SAPC   H2X 5447   5.771   2.350   2.993 -0.1752  0.5376  1.3547
   66SAPC   H2Y 5448   5.670   2.200   2.973 -0.0537 -0.5629  1.2563
   66SAPC   C23 5449   4.987   2.785   3.207  0.3637  0.2984  0.3363
   66SAPC   H3R 5450   4.924   2.710   3.154 -0.3282 -0.1703  1.7719
   66SAPC   H3S 5451   4.920   2.874   3.201  0.6164  0.3752 -2.1503
   66SAPC   C24 5452   5.014   2.728   3.345 -0.4500 -0.1174  0.5213
   66SAPC   H4R 5453   5.057   2.627   3.358  0.6997  0.5654  2.4650
   66SAPC   H4S 5454   4.920   2.721   3.403  0.3069 -1.0873  1.6723
   66SAPC   C25 5455   5.103   2.832   3.413 -0.1743 -0.4947  0.7877
   66SAPC   H5R 5456   5.202   2.843   3.365 -0.7884  0.6878 -0.2448
   66SAPC   C26 5457   5.078   2.900   3.522  0.4082  0.0105 -0.1961
   66SAPC   H6R 5458   5.154   2.965   3.566  2.0814 -1.5332 -0.6809
   66SAPC   C27 5459   4.948   2.899   3.607  0.4002 -0.9515 -0.4923
   66SAPC   H7R 5460   4.857   2.880   3.545 -0.5196  0.8848  0.2110
   66SAPC   H7S 5461   4.925   2.997   3.656  1.5692  0.4156 -2.5158
   66SAPC   C28 5462   4.958   2.777   3.695  0.1546 -0.9451  0.7090
   66SAPC   H8R 5463   4.950   2.681   3.640 -0.3140 -0.6622  0.2708
   66SAPC   C29 5464   4.956   2.778   3.827 -0.8341 -0.6535 -0.9035
   66SAPC   H9R 5465   4.975   2.679   3.872 -1.0089 -0.5199 -0.5313
   66SAPC  C210 5466   4.944   2.893   3.931 -0.3870  0.1739 -0.0996
   66SAPC  H10R 5467   4.922   2.855   4.033  0.5874 -1.5114 -0.4871
   66SAPC  H10S 5468   4.860   2.960   3.904 -1.5907 -0.4079  1.9613
   66SAPC  C211 5469   5.072   2.974   3.945  0.7422 -0.2689  0.6932
   66SAPC  H11R 5470   5.129   2.981   3.851 -2.0137  2.1239 -0.9799
   66SAPC  C212 5471   5.115   3.042   4.058 -0.0622  0.7802 -0.4616
   66SAPC  H12R 5472   5.218   3.081   4.061  0.6728 -1.0805  0.2281
   66SAPC  C213 5473   5.049   3.040   4.197  0.2814  0.3467  0.4061
   66SAPC  H13R 5474   4.982   2.954   4.220 -0.1906  0.4659 -0.4914
   66SAPC  H13S 5475   4.977   3.121   4.218 -0.0366 -0.0526  0.8912
   66SAPC  C214 5476   5.158   3.044   4.295  0.0505 -0.0838 -0.4902
   66SAPC  H14R 5477   5.201   3.145   4.303 -0.5154  0.0162  2.6262
   66SAPC  C215 5478   5.203   2.945   4.374 -0.0140  0.1284  0.7085
   66SAPC  H15R 5479   5.285   2.974   4.442  1.1130  0.6677 -0.8328
   66SAPC  C216 5480   5.174   2.796   4.370 -0.6146 -0.3303  0.5341
   66SAPC  H16R 5481   5.272   2.748   4.389 -0.4605  0.0513  0.7283
   66SAPC  H16S 5482   5.141   2.747   4.276 -4.2477 -0.9459  1.9711
   66SAPC  C217 5483   5.095   2.744   4.484 -0.6552 -0.1546 -0.9488
   66SAPC  H17R 5484   4.998   2.795   4.503 -0.3561 -0.4406  1.7036
   66SAPC  H17S 5485   5.155   2.776   4.572  2.2628 -0.8192 -2.5649
   66SAPC  C218 5486   5.080   2.593   4.496 -0.8508 -0.1029  0.2186
   66SAPC  H18R 5487   5.175   2.536   4.490  0.0346  0.9978  2.4286
   66SAPC  H18S 5488   5.011   2.553   4.420  1.8258 -3.6077 -0.5829
   66SAPC  C219 5489   5.017   2.555   4.625 -0.1327  0.1454 -0.9023
   66SAPC  H19R 5490   4.919   2.608   4.635  0.1897  0.8228 -1.2408
   66SAPC  H19S 5491   5.085   2.595   4.704  2.6486 -1.4701 -2.3226
   66SAPC  C220 5492   5.004   2.407   4.653 -0.3673 -0.1578  0.5119
   66SAPC  H20R 5493   5.103   2.363   4.678  0.1521  0.6289 -0.0953
   66SAPC  H20S 5494   4.964   2.367   4.558  1.2605  0.1456 -0.3390
   66SAPC  H20T 5495   4.940   2.385   4.742 -1.0976  0.5721  0.1797
   66SAPC   C33 5496   5.739   2.204   3.169 -0.5711 -0.5278  0.2798
   66SAPC   H3X 5497   5.759   2.272   3.255  0.4048 -0.8769  0.3366
   66SAPC   H3Y 5498   5.839   2.158   3.162  0.0054  0.8327 -1.2861
   66SAPC   C34 5499   5.631   2.104   3.209 -0.5104  0.3133  0.0499
   66SAPC   H4X 5500   5.643   2.030   3.127  2.4496  2.4180 -1.5962
   66SAPC   H4Y 5501   5.536   2.160   3.201  1.1619  3.5621  0.9662
   66SAPC   C35 5502   5.649   2.040   3.344 -0.2837  0.1605  0.1887
   66SAPC   H5X 5503   5.658   2.122   3.418 -1.3950  1.3135 -0.9007
   66SAPC   H5Y 5504   5.746   1.985   3.340 -0.6726 -0.4685 -1.1197
   66SAPC   C36 5505   5.537   1.945   3.385 -0.2767 -0.4246  0.0037
   66SAPC   H6X 5506   5.517   1.851   3.330 -3.3663  0.6968 -1.0370
   66SAPC   H6Y 5507   5.440   2.000   3.383 -0.2723 -0.4333 -1.2836
   66SAPC   C37 5508   5.559   1.902   3.535 -0.0391  0.0792 -0.2084
   66SAPC   H7X 5509   5.577   1.994   3.595  0.3699  0.2718 -0.6252
   66SAPC   H7Y 5510   5.657   1.850   3.534  0.8704  1.7186 -0.4276
   66SAPC   C38 5511   5.454   1.810   3.594 -0.0436  0.1327 -0.2035
   66SAPC   H8X 5512   5.442   1.722   3.528 -0.6434  0.7143 -0.8897
   66SAPC   H8Y 5513   5.359   1.861   3.569 -0.2557 -0.7661 -1.2839
   66SAPC   C39 5514   5.475   1.789   3.743  0.4392  0.7168 -0.2261
   66SAPC   H9X 5515   5.469   1.884   3.800 -0.3859 -0.0760  1.0444
   66SAPC   H9Y 5516   5.581   1.760   3.756  0.0725 -1.2933 -1.2870
   66SAPC  C310 5517   5.378   1.680   3.804 -1.1128 -0.1825 -0.5809
   66SAPC  H10X 5518   5.394   1.582   3.755  0.7331 -0.6329  0.8067
   66SAPC  H10Y 5519   5.269   1.698   3.798 -1.4951 -2.1578 -0.3606
   66SAPC  C311 5520   5.397   1.666   3.961 -0.7172  0.0068 -0.4359
   66SAPC  H11X 5521   5.373   1.764   4.009  0.4230  0.3915 -0.6376
   66SAPC  H11Y 5522   5.505   1.648   3.975 -0.8874  0.3093  1.4973
   66SAPC  C312 5523   5.311   1.554   4.025 -0.8171  0.2534  0.1912
   66SAPC  H12X 5524   5.330   1.455   3.978  2.4380 -0.7430  3.1492
   66SAPC  H12Y 5525   5.206   1.577   3.999 -0.7585 -0.4713 -0.7875
   66SAPC  C313 5526   5.335   1.524   4.176  0.6590  0.5425 -0.4278
   66SAPC  H13X 5527   5.268   1.594   4.230  0.9918  1.0021 -0.6045
   66SAPC  H13Y 5528   5.436   1.543   4.217  0.2165  1.2261  0.3851
   66SAPC  C314 5529   5.278   1.386   4.223 -0.2477  0.2396  0.4610
   66SAPC  H14X 5530   5.355   1.309   4.204 -0.1381  0.3677  0.3798
   66SAPC  H14Y 5531   5.191   1.354   4.163 -1.0136  0.8787  1.2038
   66SAPC  C315 5532   5.259   1.362   4.369 -0.1431  0.2473  0.4809
   66SAPC  H15X 5533   5.157   1.400   4.390 -0.0210  0.0757  1.4440
   66SAPC  H15Y 5534   5.330   1.429   4.424 -0.1288  1.2872 -0.7502
   66SAPC  C316 5535   5.277   1.223   4.426 -0.5079  0.2191 -0.0328
   66SAPC  H16X 5536   5.386   1.203   4.423 -0.5088  0.3362 -2.2875
   66SAPC  H16Y 5537   5.220   1.142   4.375  0.3074 -0.7102  0.4876
   66SAPC  C317 5538   5.238   1.210   4.579 -0.5269 -0.2152  0.0126
   66SAPC  H17X 5539   5.131   1.237   4.591  0.1072  2.5148  0.0192
   66SAPC  H17Y 5540   5.301   1.284   4.632 -1.3017  1.8722 -1.8454
   66SAPC  C318 5541   5.274   1.076   4.632 -0.1066  0.1079 -0.8100
   66SAPC  H18X 5542   5.253   1.000   4.553 -0.8133 -0.2774 -0.2657
   66SAPC  H18Y 5543   5.214   1.050   4.721  1.4984 -0.9544 -0.0086
   66SAPC  H18Z 5544   5.381   1.073   4.660 -0.1693  0.8098 -0.4823
   67SAPC     N 5545   1.808   2.581   2.278  0.2623 -0.1722 -0.2898
   67SAPC   C12 5546   1.947   2.531   2.240  0.4084 -0.4661  0.4618
   67SAPC  H12A 5547   1.940   2.504   2.135  0.7078  0.0727  0.2968
   67SAPC  H12B 5548   1.974   2.441   2.292  3.9372 -0.2650 -0.7857
   67SAPC   C13 5549   1.761   2.689   2.186 -0.0010  0.3802 -0.2365
   67SAPC  H13A 5550   1.673   2.739   2.224 -1.0903 -1.5927 -0.0273
   67SAPC  H13B 5551   1.832   2.771   2.188 -2.2599  2.5220  2.9554
   67SAPC  H13C 5552   1.761   2.640   2.089  0.4403 -0.2358  0.0758
   67SAPC   C14 5553   1.709   2.476   2.286  0.3794 -0.2397 -0.0083
   67SAPC  H14A 5554   1.616   2.514   2.326 -0.5925 -3.3693  1.0616
   67SAPC  H14B 5555   1.683   2.430   2.191 -3.4957 -2.2796  1.7976
   67SAPC  H14C 5556   1.745   2.392   2.344  2.3114 -1.0073 -2.1576
   67SAPC   C15 5557   1.819   2.648   2.413 -0.2532  0.3892 -0.2653
   67SAPC  H15A 5558   1.724   2.682   2.453  0.2369 -0.6772  2.0183
   67SAPC  H15B 5559   1.864   2.578   2.482  0.5054  1.5366  0.4336
   67SAPC  H15C 5560   1.882   2.734   2.402 -1.6092  1.2626 -1.6444
   67SAPC   C11 5561   2.072   2.622   2.262 -0.0427  0.1597 -0.0133
   67SAPC  H11A 5562   2.041   2.726   2.237  0.4640 -0.2557 -2.6320
   67SAPC  H11B 5563   2.140   2.592   2.180  1.0618  3.7187 -0.5773
   67SAPC     P 5564   2.263   2.648   2.432  0.3378 -0.7458  0.4125
   67SAPC   O13 5565   2.355   2.593   2.327  0.1906 -0.0140  0.3985
   67SAPC   O14 5566   2.271   2.797   2.459  0.0868 -0.1048 -0.3509
   67SAPC   O12 5567   2.115   2.607   2.396 -0.1628 -0.2268  0.2596
   67SAPC   O11 5568   2.302   2.576   2.573  1.1478  0.0902  0.7355
   67SAPC    C1 5569   2.252   2.447   2.611  0.4365 -0.5231 -0.3177
   67SAPC    HA 5570   2.250   2.375   2.526 -2.1127 -2.6173  1.3656
   67SAPC    HB 5571   2.328   2.402   2.678  1.7131 -0.3837 -1.6190
   67SAPC    C2 5572   2.112   2.459   2.683  0.3188  0.5102  0.2596
   67SAPC    HS 5573   2.041   2.474   2.599 -2.2008 -1.0203  1.9822
   67SAPC   O21 5574   2.110   2.564   2.773  0.0829  0.1543 -0.3381
   67SAPC   C21 5575   2.002   2.612   2.821  0.5372 -0.5129  0.0173
   67SAPC   O22 5576   1.890   2.571   2.800  0.0354  0.2389 -0.3887
   67SAPC   C22 5577   2.033   2.750   2.884 -0.0541 -0.0356  0.3024
   67SAPC   H2R 5578   2.088   2.808   2.807  0.8547 -0.1211  0.8676
   67SAPC   H2S 5579   1.936   2.805   2.879  0.6168  1.0944 -0.8395
   67SAPC    C3 5580   2.070   2.320   2.744  0.5410  0.7682 -0.0229
   67SAPC    HX 5581   2.062   2.244   2.664  1.8298 -0.7205  1.1900
   67SAPC    HY 5582   1.970   2.326   2.792  1.0419 -1.4370  1.4338
   67SAPC   O31 5583   2.178   2.271   2.827  0.3316 -0.3649 -0.8519
   67SAPC   C31 5584   2.176   2.326   2.944 -0.1046 -0.2827 -0.1060
   67SAPC   O32 5585   2.071   2.356   3.000  0.4612 -0.6771  0.3013
   67SAPC   C32 5586   2.314   2.327   3.006  0.7205 -0.4634  1.0178
   67SAPC   H2X 5587   2.348   2.427   2.970  0.3556 -0.4183  0.7970
   67SAPC   H2Y 5588   2.384   2.243   2.988 -0.2514 -1.3187  1.1383
   67SAPC   C23 5589   2.113   2.750   3.019 -0.2883 -0.7964 -0.5676
   67SAPC   H3R 5590   2.157   2.851   3.034 -1.0184 -0.5778  0.1966
   67SAPC   H3S 5591   2.190   2.671   3.008 -1.3396 -2.0863  0.9241
   67SAPC   C24 5592   2.019   2.744   3.139  0.1729  0.5015  0.1011
   67SAPC   H4R 5593   2.075   2.696   3.222  2.5459 -1.4360 -2.4415
   67SAPC   H4S 5594   1.939   2.668   3.127 -0.3689  1.1622 -0.5611
   67SAPC   C25 5595   1.942   2.871   3.168  0.0775 -0.2663 -0.1479
   67SAPC   H5R 5596   1.885   2.901   3.079  1.5134 -1.0605 -1.3778
   67SAPC   C26 5597   1.943   2.945   3.278  0.4615  0.3926 -0.1521
   67SAPC   H6R 5598   1.901   3.045   3.293 -0.6967 -0.3927  2.4681
   67SAPC   C27 5599   2.029   2.915   3.403  0.1143 -0.5468  0.0753
   67SAPC   H7R 5600   2.088   3.007   3.422 -1.3092  0.0616  1.8360
   67SAPC   H7S 5601   2.107   2.835   3.395  1.0042  0.4174 -1.4676
   67SAPC   C28 5602   1.940   2.882   3.522  0.4603 -1.4886 -0.3029
   67SAPC   H8R 5603   1.908   2.778   3.537  2.1904 -2.0671 -0.3804
   67SAPC   C29 5604   1.889   2.977   3.607  0.1848  0.6417 -1.0122
   67SAPC   H9R 5605   1.846   2.936   3.699  1.3060 -0.6307 -1.0216
   67SAPC  C210 5606   1.900   3.126   3.593  0.2218  0.3304  0.0407
   67SAPC  H10R 5607   1.800   3.171   3.609 -0.0482 -0.5716  1.0171
   67SAPC  H10S 5608   1.942   3.152   3.493  2.2960 -0.9813  0.5072
   67SAPC  C211 5609   1.995   3.189   3.696  0.5711  0.4935 -0.5141
   67SAPC  H11R 5610   2.101   3.193   3.665  0.8474 -0.7714  0.1516
   67SAPC  C212 5611   1.973   3.228   3.824 -1.0151  0.5692 -0.4619
   67SAPC  H12R 5612   2.058   3.276   3.874 -1.5467 -0.0938  1.1638
   67SAPC  C213 5613   1.844   3.210   3.903 -0.2760  0.1581  0.7831
   67SAPC  H13R 5614   1.749   3.220   3.846  0.5879  1.0638 -0.5615
   67SAPC  H13S 5615   1.820   3.295   3.971 -0.9331 -0.1473  0.9361
   67SAPC  C214 5616   1.850   3.089   3.991  0.6146  0.9919  0.4308
   67SAPC  H14R 5617   1.867   2.994   3.938  0.1230  0.7106  0.7647
   67SAPC  C215 5618   1.819   3.073   4.122  0.1602  0.3053  0.7568
   67SAPC  H15R 5619   1.827   2.979   4.178 -0.1140  0.2123  0.6430
   67SAPC  C216 5620   1.763   3.180   4.209 -0.7610 -0.4458  1.2898
   67SAPC  H16R 5621   1.671   3.224   4.163  0.0715  2.8711  2.4582
   67SAPC  H16S 5622   1.823   3.273   4.210 -1.4200  0.0477 -0.4756
   67SAPC  C217 5623   1.724   3.132   4.350  1.0855 -0.0845  0.0337
   67SAPC  H17R 5624   1.655   3.046   4.343  2.5492 -1.6809  3.2239
   67SAPC  H17S 5625   1.657   3.198   4.409 -0.5382 -0.8353 -0.9089
   67SAPC  C218 5626   1.844   3.092   4.442 -0.5008  0.5697  0.1487
   67SAPC  H18R 5627   1.888   3.176   4.502  1.3474 -0.8474  0.8842
   67SAPC  H18S 5628   1.917   3.053   4.368  0.2078  0.2417  0.9998
   67SAPC  C219 5629   1.813   2.983   4.546 -0.0730 -0.1614  0.4246
   67SAPC  H19R 5630   1.899   2.961   4.613 -2.2438 -2.1112  2.7694
   67SAPC  H19S 5631   1.786   2.888   4.495 -0.0380 -0.6390  1.2745
   67SAPC  C220 5632   1.703   3.031   4.636  0.3355  0.8818  0.1225
   67SAPC  H20R 5633   1.605   3.032   4.584  0.5478  3.2971 -0.3410
   67SAPC  H20S 5634   1.724   3.132   4.676  1.0694  1.3911 -1.4648
   67SAPC  H20T 5635   1.686   2.961   4.721  2.2820  0.0028 -0.1603
   67SAPC   C33 5636   2.299   2.338   3.157 -0.7670  0.6646 -0.8732
   67SAPC   H3X 5637   2.219   2.410   3.182  1.2752  2.2496  1.5647
   67SAPC   H3Y 5638   2.394   2.386   3.189  0.4081 -3.0541  1.9405
   67SAPC   C34 5639   2.300   2.192   3.208  0.3619 -0.6537 -0.9270
   67SAPC   H4X 5640   2.403   2.154   3.191  0.0106 -2.4642  0.7471
   67SAPC   H4Y 5641   2.229   2.132   3.147 -2.4808  1.8021 -0.2981
   67SAPC   C35 5642   2.274   2.191   3.357 -0.3688 -0.1246 -1.3970
   67SAPC   H5X 5643   2.179   2.245   3.376  0.1276  0.0640  0.7837
   67SAPC   H5Y 5644   2.337   2.256   3.421 -3.2129  2.0365 -0.5539
   67SAPC   C36 5645   2.274   2.051   3.421  0.7472 -0.2181  0.3384
   67SAPC   H6X 5646   2.374   2.003   3.412 -0.1184 -2.1504  0.5628
   67SAPC   H6Y 5647   2.199   1.989   3.368  2.0649 -0.5721 -1.1826
   67SAPC   C37 5648   2.245   2.067   3.575 -0.1274  0.8405  0.4132
   67SAPC   H7X 5649   2.192   1.974   3.604 -0.0044  0.3278 -0.9386
   67SAPC   H7Y 5650   2.176   2.154   3.581  0.2608  1.2343 -0.5197
   67SAPC   C38 5651   2.364   2.073   3.664  0.4597 -0.4170 -0.2280
   67SAPC   H8X 5652   2.398   2.179   3.662 -1.5483  0.3022  0.7677
   67SAPC   H8Y 5653   2.444   2.015   3.614  0.2023 -0.1220 -0.9995
   67SAPC   C39 5654   2.353   2.034   3.806  0.4049  0.1411 -0.0265
   67SAPC   H9X 5655   2.450   2.046   3.860 -0.4540  2.0851  1.2018
   67SAPC   H9Y 5656   2.319   1.928   3.807 -1.4508  0.6792 -1.6731
   67SAPC  C310 5657   2.246   2.118   3.879 -0.0377 -0.4936  0.5259
   67SAPC  H10X 5658   2.146   2.107   3.834 -1.1730 -2.0252  3.1734
   67SAPC  H10Y 5659   2.285   2.222   3.886 -0.0800 -0.3657 -0.8549
   67SAPC  C311 5660   2.223   2.058   4.020  0.1385 -0.2736 -0.5886
   67SAPC  H11X 5661   2.181   2.130   4.094  0.9323 -1.4815  1.1120
   67SAPC  H11Y 5662   2.328   2.045   4.054  0.9527 -0.5419 -3.0302
   67SAPC  C312 5663   2.143   1.926   4.016  1.0526  0.4537 -0.5743
   67SAPC  H12X 5664   2.199   1.844   3.966  0.2604 -0.9966  0.8185
   67SAPC  H12Y 5665   2.052   1.945   3.955  0.6446 -2.0123 -0.8538
   67SAPC  C313 5666   2.110   1.883   4.167 -0.8008 -0.3975 -0.2444
   67SAPC  H13X 5667   2.197   1.915   4.229  0.3573 -1.5694 -1.2044
   67SAPC  H13Y 5668   2.099   1.773   4.182 -0.2602 -0.4325 -0.0775
   67SAPC  C314 5669   1.985   1.950   4.224 -0.3851  1.0226 -0.0007
   67SAPC  H14X 5670   1.903   1.894   4.174  1.4033 -1.5352 -0.2492
   67SAPC  H14Y 5671   1.994   2.056   4.193 -1.3442  1.3891  0.8969
   67SAPC  C315 5672   1.963   1.947   4.370 -0.1129 -0.2860 -0.0044
   67SAPC  H15X 5673   1.876   2.009   4.401 -0.3682 -0.1717 -0.9268
   67SAPC  H15Y 5674   2.060   1.975   4.416  0.6316  0.4228 -1.9236
   67SAPC  C316 5675   1.946   1.806   4.424 -0.6348  0.3646 -0.1495
   67SAPC  H16X 5676   2.039   1.746   4.414 -2.1364 -2.1164 -0.1436
   67SAPC  H16Y 5677   1.860   1.760   4.371 -0.5280 -1.7408  1.3493
   67SAPC  C317 5678   1.907   1.809   4.572  0.3480  0.3950 -0.0080
   67SAPC  H17X 5679   1.840   1.898   4.582  1.2724  1.3064 -1.5496
   67SAPC  H17Y 5680   2.004   1.813   4.626  0.4723  0.4112 -0.2333
   67SAPC  C318 5681   1.821   1.688   4.610  0.0758  0.3054 -0.4243
   67SAPC  H18X 5682   1.731   1.691   4.546 -0.8133  0.9938  0.8239
   67SAPC  H18Y 5683   1.793   1.693   4.717 -2.4758  1.9530 -1.0908
   67SAPC  H18Z 5684   1.876   1.592   4.601 -1.1062 -0.4432  0.1526
   68SAPC     N 5685   6.157   0.520   2.393 -0.7735 -0.2264 -0.0696
   68SAPC   C12 5686   6.203   0.481   2.529 -0.6652 -0.0368 -0.0244
   68SAPC  H12A 5687   6.141   0.528   2.604 -1.7968 -1.5021 -0.0018
   68SAPC  H12B 5688   6.302   0.524   2.540 -1.0788  1.1285 -0.6238
   68SAPC   C13 5689   6.164   0.662   2.364 -0.6778  0.0478  0.6191
   68SAPC  H13A 5690   6.089   0.719   2.418  0.3409  1.9582  0.1142
   68SAPC  H13B 5691   6.255   0.715   2.390 -1.5581  2.0655 -0.1850
   68SAPC  H13C 5692   6.143   0.687   2.261 -0.3042  2.9047  1.1536
   68SAPC   C14 5693   6.223   0.447   2.283  0.2185  0.7650 -0.1717
   68SAPC  H14A 5694   6.167   0.476   2.196  2.0105  0.9675 -1.3119
   68SAPC  H14B 5695   6.326   0.480   2.278 -0.1828  2.4749  1.6170
   68SAPC  H14C 5696   6.219   0.341   2.300 -0.6312  0.8514  0.2151
   68SAPC   C15 5697   6.018   0.469   2.387 -0.6492  0.2730  0.3340
   68SAPC  H15A 5698   6.016   0.364   2.409  2.2864 -0.0213 -0.3376
   68SAPC  H15B 5699   5.959   0.522   2.460 -1.9175 -0.6061 -0.0279
   68SAPC  H15C 5700   5.980   0.480   2.286 -1.2252  1.1539  0.6287
   68SAPC   C11 5701   6.215   0.329   2.568  0.6271  0.1743  0.1295
   68SAPC  H11A 5702   6.116   0.283   2.550  0.1763  0.9930  0.4623
   68SAPC  H11B 5703   6.237   0.316   2.676  1.0644  1.9851  0.2950
   68SAPC     P 5704   6.459   0.247   2.537  0.0599 -0.5111  0.4105
   68SAPC   O13 5705   6.538   0.201   2.423 -1.0621  0.1762 -0.7722
   68SAPC   O14 5706   6.504   0.380   2.583 -0.0908 -0.3873  0.0169
   68SAPC   O12 5707   6.313   0.270   2.484 -0.1177  0.9091 -0.0690
   68SAPC   O11 5708   6.458   0.149   2.657 -0.0910 -0.6220  0.0668
   68SAPC    C1 5709   6.356   0.051   2.661  0.5800  1.0866 -0.0279
   68SAPC    HA 5710   6.272   0.079   2.593  0.0410  1.3273  0.7183
   68SAPC    HB 5711   6.398  -0.048   2.633 -1.0177  0.7368 -1.3813
   68SAPC    C2 5712   6.295   0.038   2.805 -0.5565 -0.5223 -0.4803
   68SAPC    HS 5713   6.227   0.122   2.826 -0.7603 -0.6444 -0.6485
   68SAPC   O21 5714   6.392   0.017   2.907 -0.7407  0.4753 -0.2866
   68SAPC   C21 5715   6.442   0.123   2.972 -0.2530 -0.1155  0.8983
   68SAPC   O22 5716   6.400   0.235   2.961 -0.0969  0.3519 -0.4987
   68SAPC   C22 5717   6.561   0.090   3.058 -0.3557 -0.1768 -0.4244
   68SAPC   H2R 5718   6.540  -0.017   3.078  0.3197  0.1529  2.4896
   68SAPC   H2S 5719   6.654   0.098   2.997 -0.7361 -0.1284 -1.0030
   68SAPC    C3 5720   6.204  -0.089   2.820  0.0170 -0.3236  0.8768
   68SAPC    HX 5721   6.263  -0.177   2.853 -0.4872 -0.3267  1.8020
   68SAPC    HY 5722   6.158  -0.112   2.721 -0.2669 -0.9846  1.1593
   68SAPC   O31 5723   6.105  -0.056   2.920  0.2522 -0.1450 -0.2059
   68SAPC   C31 5724   6.028  -0.152   2.952 -0.1248  0.4918 -0.9100
   68SAPC   O32 5725   6.018  -0.265   2.911  0.5318  0.1487  0.5255
   68SAPC   C32 5726   5.937  -0.103   3.068  0.2283 -0.6580 -0.4533
   68SAPC   H2X 5727   5.892  -0.010   3.028  0.6838 -0.9747 -1.7364
   68SAPC   H2Y 5728   6.005  -0.075   3.152 -2.1193  1.2501  0.9587
   68SAPC   C23 5729   6.565   0.167   3.193  0.1663 -0.6684  0.4798
   68SAPC   H3R 5730   6.476   0.136   3.251  0.5753 -0.3298  1.3160
   68SAPC   H3S 5731   6.555   0.278   3.189  2.0110 -0.4704  0.5001
   68SAPC   C24 5732   6.686   0.128   3.270 -0.2801 -0.7528  0.7856
   68SAPC   H4R 5733   6.690   0.189   3.363  0.8473  0.3322  0.0598
   68SAPC   H4S 5734   6.773   0.165   3.211 -1.2270 -0.1758 -0.2892
   68SAPC   C25 5735   6.707  -0.018   3.290 -0.4996 -0.0124  0.5388
   68SAPC   H5R 5736   6.719  -0.078   3.198  1.4555 -0.6344  1.1586
   68SAPC   C26 5737   6.719  -0.090   3.406  0.2327 -0.2725  0.1252
   68SAPC   H6R 5738   6.746  -0.196   3.407  1.8446  0.1158 -0.2404
   68SAPC   C27 5739   6.716  -0.029   3.544 -0.0242  0.4932  0.8863
   68SAPC   H7R 5740   6.783   0.059   3.548  0.5426  0.0536  1.2644
   68SAPC   H7S 5741   6.747  -0.105   3.618  0.3516 -1.2016 -0.9218
   68SAPC   C28 5742   6.579   0.025   3.575 -0.2516 -0.4023  0.2977
   68SAPC   H8R 5743   6.536   0.076   3.487  2.2306 -2.0602 -2.0163
   68SAPC   C29 5744   6.529   0.033   3.697 -0.0192  0.5049  0.1296
   68SAPC   H9R 5745   6.432   0.083   3.706 -1.4113 -1.9243 -0.3423
   68SAPC  C210 5746   6.592  -0.008   3.828  0.6033  0.4347  0.6418
   68SAPC  H10R 5747   6.658  -0.097   3.820  0.0965  0.0703  0.4606
   68SAPC  H10S 5748   6.513  -0.045   3.898  0.1501  0.1261 -0.0259
   68SAPC  C211 5749   6.669   0.108   3.884 -0.1834 -0.1003  0.1637
   68SAPC  H11R 5750   6.719   0.181   3.818 -2.1102  0.7733 -0.4202
   68SAPC  C212 5751   6.689   0.132   4.012 -0.7639  0.0609  1.0082
   68SAPC  H12R 5752   6.756   0.216   4.036 -1.4619  1.4673 -1.6333
   68SAPC  C213 5753   6.635   0.048   4.121  0.1443 -0.6121  0.4426
   68SAPC  H13R 5754   6.722   0.001   4.172  0.3889  0.4253  0.9893
   68SAPC  H13S 5755   6.566  -0.033   4.087 -1.6347  0.7544  0.6518
   68SAPC  C214 5756   6.573   0.144   4.221  0.1752 -0.4794 -0.1274
   68SAPC  H14R 5757   6.549   0.244   4.182 -0.9977 -0.7836 -0.2482
   68SAPC  C215 5758   6.525   0.104   4.343 -0.2208 -0.0586 -1.2124
   68SAPC  H15R 5759   6.480   0.179   4.410  1.0756 -0.4884  0.1882
   68SAPC  C216 5760   6.533  -0.026   4.422  0.0575 -0.7481  0.0171
   68SAPC  H16R 5761   6.570  -0.003   4.524 -0.8506  3.0559 -0.3428
   68SAPC  H16S 5762   6.593  -0.102   4.367 -0.3600 -1.8299  1.0050
   68SAPC  C217 5763   6.391  -0.087   4.444 -0.5074 -0.0592 -0.3552
   68SAPC  H17R 5764   6.340  -0.106   4.347  1.0508 -1.0874 -0.9962
   68SAPC  H17S 5765   6.335  -0.006   4.496 -0.6004  0.4890 -1.2760
   68SAPC  C218 5766   6.380  -0.224   4.522  0.4367  0.0981 -0.0703
   68SAPC  H18R 5767   6.463  -0.231   4.595 -0.7865  1.6886  1.5882
   68SAPC  H18S 5768   6.379  -0.301   4.442  0.0605 -0.6389  0.6288
   68SAPC  C219 5769   6.247  -0.227   4.595  0.4514  0.2030 -0.0827
   68SAPC  H19R 5770   6.167  -0.218   4.519  1.0141 -0.2908 -0.7420
   68SAPC  H19S 5771   6.245  -0.133   4.654  0.9923  0.7918 -0.9788
   68SAPC  C220 5772   6.234  -0.341   4.700 -0.3114 -0.1395 -0.3592
   68SAPC  H20R 5773   6.123  -0.350   4.703 -0.3805  0.6814  1.7920
   68SAPC  H20S 5774   6.258  -0.297   4.800  1.3997  3.5856 -2.2136
   68SAPC  H20T 5775   6.293  -0.434   4.690  0.7773  0.4865  0.0652
   68SAPC   C33 5776   5.819  -0.194   3.111 -0.8034 -0.3476  0.4965
   68SAPC   H3X 5777   5.867  -0.288   3.145 -1.8511 -0.6455  1.2072
   68SAPC   H3Y 5778   5.754  -0.221   3.025 -2.0268  0.7732  1.0310
   68SAPC   C34 5779   5.733  -0.119   3.214  0.3189 -0.0039 -0.2555
   68SAPC   H4X 5780   5.652  -0.194   3.226 -1.0420  1.1441 -1.9173
   68SAPC   H4Y 5781   5.680  -0.028   3.179 -1.1730 -0.7410  0.0010
   68SAPC   C35 5782   5.804  -0.094   3.347 -0.0647 -0.8795  0.1063
   68SAPC   H5X 5783   5.874  -0.009   3.331 -1.6068  0.0664 -1.9929
   68SAPC   H5Y 5784   5.860  -0.183   3.384 -1.7655 -1.9578  0.2012
   68SAPC   C36 5785   5.701  -0.062   3.465  0.0056 -0.3240  0.3367
   68SAPC   H6X 5786   5.629  -0.146   3.476 -3.2517  2.3110  0.4524
   68SAPC   H6Y 5787   5.644   0.025   3.428  0.8543  0.3922  0.6832
   68SAPC   C37 5788   5.766  -0.028   3.601 -0.2791 -0.3063 -0.0613
   68SAPC   H7X 5789   5.808   0.074   3.608  1.3185 -1.0254  1.5795
   68SAPC   H7Y 5790   5.858  -0.090   3.592 -1.1014 -1.4757 -0.5751
   68SAPC   C38 5791   5.691  -0.054   3.739 -0.2141  0.2666  0.0059
   68SAPC   H8X 5792   5.588  -0.013   3.750 -1.0841 -2.4160  3.6815
   68SAPC   H8Y 5793   5.754  -0.015   3.822 -0.0897 -2.9152  1.5763
   68SAPC   C39 5794   5.686  -0.200   3.781 -0.1367  0.2823  0.3717
   68SAPC   H9X 5795   5.786  -0.249   3.777  0.2911  1.2022 -1.4124
   68SAPC   H9Y 5796   5.630  -0.265   3.711  0.0059  0.3360  0.2044
   68SAPC  C310 5797   5.624  -0.218   3.920  0.0322 -0.5615  0.1818
   68SAPC  H10X 5798   5.548  -0.138   3.930 -0.1537 -0.6570 -0.4210
   68SAPC  H10Y 5799   5.701  -0.188   3.994  1.0962 -2.0640 -0.2660
   68SAPC  C311 5800   5.552  -0.353   3.954 -0.0490 -0.7861 -0.0699
   68SAPC  H11X 5801   5.620  -0.440   3.967 -0.8214 -1.3457  0.3515
   68SAPC  H11Y 5802   5.489  -0.373   3.865  0.3772 -0.9355 -0.3416
   68SAPC  C312 5803   5.471  -0.351   4.083 -0.3168 -0.6165 -0.9133
   68SAPC  H12X 5804   5.393  -0.430   4.075 -1.5867  0.6065 -1.1286
   68SAPC  H12Y 5805   5.425  -0.250   4.090 -0.5062 -0.6348 -1.7654
   68SAPC  C313 5806   5.546  -0.389   4.214 -0.5718 -0.2855 -0.9430
   68SAPC  H13X 5807   5.610  -0.304   4.246 -1.5713  0.5040 -0.9717
   68SAPC  H13Y 5808   5.617  -0.473   4.203  0.8726  0.7135  0.3830
   68SAPC  C314 5809   5.454  -0.422   4.330  0.1212  0.2301  0.2264
   68SAPC  H14X 5810   5.392  -0.512   4.310  0.7627 -0.1608 -0.0268
   68SAPC  H14Y 5811   5.380  -0.342   4.348 -0.1155  0.4132 -1.4045
   68SAPC  C315 5812   5.539  -0.467   4.450  0.2516 -0.6667  0.4570
   68SAPC  H15X 5813   5.585  -0.372   4.485 -2.2401  1.2767 -1.1626
   68SAPC  H15Y 5814   5.622  -0.535   4.421  1.6737  0.9635  0.5236
   68SAPC  C316 5815   5.459  -0.532   4.567  0.0233 -0.0317 -0.4937
   68SAPC  H16X 5816   5.418  -0.634   4.550  0.2530 -0.2864  0.4205
   68SAPC  H16Y 5817   5.371  -0.469   4.592  0.0471 -0.0483 -0.3663
   68SAPC  C317 5818   5.537  -0.548   4.692  0.3457 -0.2092 -0.3660
   68SAPC  H17X 5819   5.474  -0.572   4.781 -1.3850 -0.2639 -1.5467
   68SAPC  H17Y 5820   5.573  -0.445   4.710  0.4676 -0.2554 -0.3432
   68SAPC  C318 5821   5.660  -0.635   4.707  0.0965  0.6513  0.5957
   68SAPC  H18X 5822   5.615  -0.732   4.738 -0.3253  1.1383  1.5537
   68SAPC  H18Y 5823   5.733  -0.607   4.785 -0.0936  1.5473  0.4677
   68SAPC  H18Z 5824   5.712  -0.647   4.610 -0.9045  0.1254  0.1100
   69SAPC     N 5825   4.918   6.783   2.400 -0.2989 -0.5653  0.2408
   69SAPC   C12 5826   4.767   6.800   2.435  0.1114  0.8965  0.2964
   69SAPC  H12A 5827   4.751   6.874   2.512  2.1940  0.7205  0.9546
   69SAPC  H12B 5828   4.725   6.711   2.480  0.0796  0.1481 -1.1447
   69SAPC   C13 5829   4.956   6.904   2.322  0.3504  0.3109 -0.1188
   69SAPC  H13A 5830   4.937   6.999   2.368 -0.4681 -0.8171  1.9894
   69SAPC  H13B 5831   5.062   6.898   2.303 -0.0585  0.7260 -2.9785
   69SAPC  H13C 5832   4.914   6.907   2.222  2.0688  0.9677 -0.8674
   69SAPC   C14 5833   4.986   6.781   2.529 -0.2436 -0.0933  0.0698
   69SAPC  H14A 5834   4.936   6.713   2.596 -0.4775  0.7093  0.7129
   69SAPC  H14B 5835   5.091   6.756   2.525 -0.7514 -2.3228 -0.9953
   69SAPC  H14C 5836   4.984   6.880   2.571 -2.4763 -0.9494  2.1971
   69SAPC   C15 5837   4.954   6.663   2.324  0.2149 -0.5541 -0.0422
   69SAPC  H15A 5838   4.898   6.581   2.366 -0.1335 -0.0573  0.4705
   69SAPC  H15B 5839   4.913   6.666   2.224 -1.2516 -0.8573  0.5230
   69SAPC  H15C 5840   5.057   6.634   2.319 -0.1905 -2.0139 -0.5857
   69SAPC   C11 5841   4.663   6.824   2.318 -0.3395  0.5879 -0.7066
   69SAPC  H11A 5842   4.678   6.924   2.274 -1.2589  1.5287  0.9815
   69SAPC  H11B 5843   4.557   6.816   2.353 -0.1669 -0.3026 -0.3578
   69SAPC     P 5844   4.588   6.598   2.204 -0.4968  0.0291 -0.0767
   69SAPC   O13 5845   4.468   6.636   2.126 -0.7880  0.3968 -0.2403
   69SAPC   O14 5846   4.666   6.486   2.149 -0.1386 -0.0598 -0.1111
   69SAPC   O12 5847   4.677   6.727   2.214  0.0777 -0.4543 -0.4676
   69SAPC   O11 5848   4.537   6.565   2.349 -0.2147  0.2651 -0.1709
   69SAPC    C1 5849   4.416   6.495   2.365 -0.2529 -0.0062  0.5579
   69SAPC    HA 5850   4.384   6.440   2.274  0.9071 -3.2129  1.9650
   69SAPC    HB 5851   4.421   6.404   2.428  0.0033 -0.5680 -0.2549
   69SAPC    C2 5852   4.296   6.589   2.398  0.0744  0.1381 -0.0360
   69SAPC    HS 5853   4.298   6.679   2.333  0.1565  0.5616  0.5524
   69SAPC   O21 5854   4.325   6.635   2.532  0.5458  0.6487  0.8048
   69SAPC   C21 5855   4.262   6.745   2.565  0.2402  0.9517  0.5675
   69SAPC   O22 5856   4.194   6.812   2.487  0.0834 -0.3397 -0.5164
   69SAPC   C22 5857   4.302   6.790   2.706 -0.3691  0.0194 -0.3557
   69SAPC   H2R 5858   4.410   6.773   2.726 -0.6468 -0.2142  1.0297
   69SAPC   H2S 5859   4.289   6.900   2.698  2.2112  0.6115  2.2162
   69SAPC    C3 5860   4.164   6.508   2.387 -0.2260 -0.6378  0.7397
   69SAPC    HX 5861   4.154   6.500   2.276  2.7109  0.6555  0.3014
   69SAPC    HY 5862   4.077   6.565   2.425 -0.0877  0.9191 -1.1255
   69SAPC   O31 5863   4.162   6.375   2.450  0.7132  0.4373 -0.6381
   69SAPC   C31 5864   4.106   6.358   2.570  0.3633 -0.2790 -0.0848
   69SAPC   O32 5865   4.057   6.449   2.634  0.2128  0.1836  0.1077
   69SAPC   C32 5866   4.132   6.212   2.621 -0.4826  0.2811  0.3336
   69SAPC   H2X 5867   4.237   6.194   2.590  0.0520  2.0462  1.0284
   69SAPC   H2Y 5868   4.060   6.139   2.577 -0.5909  0.1207  0.7749
   69SAPC   C23 5869   4.218   6.735   2.820  0.0492 -0.5889  0.4760
   69SAPC   H3R 5870   4.175   6.635   2.799  1.7917 -0.8598 -2.2807
   69SAPC   H3S 5871   4.131   6.803   2.836  0.0889  0.2027 -2.2076
   69SAPC   C24 5872   4.293   6.726   2.959  0.4781 -0.4734  0.5437
   69SAPC   H4R 5873   4.376   6.654   2.947  1.6780  1.1419 -1.4671
   69SAPC   H4S 5874   4.218   6.698   3.036 -0.3857 -1.2214 -0.5538
   69SAPC   C25 5875   4.363   6.853   3.006 -0.3135  0.1000 -0.1189
   69SAPC   H5R 5876   4.413   6.919   2.933  1.7460 -1.8285 -0.5775
   69SAPC   C26 5877   4.374   6.892   3.133 -0.2217  0.5365 -0.6236
   69SAPC   H6R 5878   4.438   6.979   3.152 -1.1005  0.9140  0.7234
   69SAPC   C27 5879   4.316   6.836   3.261  0.0402 -0.4369  0.0073
   69SAPC   H7R 5880   4.384   6.762   3.308  3.4569  2.5030  0.0428
   69SAPC   H7S 5881   4.217   6.793   3.235  0.5649 -0.5182 -2.0092
   69SAPC   C28 5882   4.286   6.942   3.367 -0.3162  0.2011  0.1777
   69SAPC   H8R 5883   4.237   7.029   3.322  1.7589  0.6635 -1.3402
   69SAPC   C29 5884   4.331   6.942   3.497  0.1077 -0.6938  0.3953
   69SAPC   H9R 5885   4.294   7.023   3.563 -0.3045  1.4017 -2.2491
   69SAPC  C210 5886   4.426   6.848   3.560  0.0724  0.0809 -0.4143
   69SAPC  H10R 5887   4.511   6.835   3.489  1.4091  4.5725  0.0487
   69SAPC  H10S 5888   4.387   6.745   3.579  3.5002 -1.4820 -0.9914
   69SAPC  C211 5889   4.496   6.882   3.689 -0.2137 -0.4153 -0.1323
   69SAPC  H11R 5890   4.530   6.987   3.692  0.3635 -0.6095  2.6390
   69SAPC  C212 5891   4.514   6.813   3.803  0.1284 -0.1572  0.1976
   69SAPC  H12R 5892   4.570   6.852   3.890 -0.4844 -0.3457  0.6787
   69SAPC  C213 5893   4.465   6.669   3.823  0.0428  0.6781  0.1463
   69SAPC  H13R 5894   4.522   6.608   3.749  0.2690  3.2896 -1.9736
   69SAPC  H13S 5895   4.367   6.660   3.773  0.2418  2.6965 -0.6975
   69SAPC  C214 5896   4.463   6.594   3.955  0.2413 -0.2004 -0.1654
   69SAPC  H14R 5897   4.361   6.579   3.994 -0.8540 -0.1541 -2.7895
   69SAPC  C215 5898   4.568   6.561   4.036 -0.8770  0.0208 -0.4075
   69SAPC  H15R 5899   4.537   6.506   4.127 -0.4670  1.1981  0.4643
   69SAPC  C216 5900   4.713   6.564   3.992 -0.6225  0.2078 -0.2444
   69SAPC  H16R 5901   4.728   6.656   3.931  1.4533 -1.5671 -2.5889
   69SAPC  H16S 5902   4.748   6.475   3.936 -1.6494 -0.6657  0.4742
   69SAPC  C217 5903   4.804   6.604   4.113 -0.5586  0.5502  0.0073
   69SAPC  H17R 5904   4.797   6.540   4.203 -0.0892 -0.2089 -0.4838
   69SAPC  H17S 5905   4.786   6.706   4.151  2.1541  0.4680  1.7436
   69SAPC  C218 5906   4.944   6.615   4.068 -0.5948  0.1417  0.0892
   69SAPC  H18R 5907   4.950   6.685   3.982 -3.7716 -0.0727 -0.4604
   69SAPC  H18S 5908   4.977   6.516   4.028  0.7116  0.7901 -0.4717
   69SAPC  C219 5909   5.045   6.671   4.184  0.9423  0.2609  0.2276
   69SAPC  H19R 5910   4.991   6.636   4.275  0.7019 -0.0375 -0.0274
   69SAPC  H19S 5911   5.034   6.781   4.181 -0.4625  0.1351  0.1418
   69SAPC  C220 5912   5.186   6.616   4.180  0.0336  0.1959 -0.4377
   69SAPC  H20R 5913   5.233   6.656   4.087 -2.2356  1.6797 -1.0089
   69SAPC  H20S 5914   5.184   6.505   4.188  2.7617  0.0388 -0.9081
   69SAPC  H20T 5915   5.236   6.651   4.272  0.3499 -0.2933 -0.4159
   69SAPC   C33 5916   4.137   6.195   2.770  0.0991  0.1880  0.1259
   69SAPC   H3X 5917   4.099   6.092   2.788 -1.2225  0.4576 -1.0225
   69SAPC   H3Y 5918   4.064   6.264   2.818  1.9805  2.9715 -0.7945
   69SAPC   C34 5919   4.274   6.219   2.836 -0.5009  0.1221  0.5018
   69SAPC   H4X 5920   4.313   6.321   2.816  2.4712 -1.3244 -1.9774
   69SAPC   H4Y 5921   4.341   6.147   2.785 -1.7693  0.9680 -2.6094
   69SAPC   C35 5922   4.275   6.199   2.990 -0.0504  0.8458 -0.1720
   69SAPC   H5X 5923   4.382   6.195   3.018  0.2531  0.6359 -1.2902
   69SAPC   H5Y 5924   4.229   6.104   3.026  0.4446  0.0012 -1.6840
   69SAPC   C36 5925   4.200   6.315   3.059 -0.9221  0.0624  0.0019
   69SAPC   H6X 5926   4.091   6.298   3.046 -0.9850 -0.1238  0.7445
   69SAPC   H6Y 5927   4.237   6.405   3.006 -2.3231  1.2324  0.9243
   69SAPC   C37 5928   4.238   6.326   3.208 -0.7686  0.4846 -0.5678
   69SAPC   H7X 5929   4.349   6.335   3.204 -0.6504 -0.8149 -0.6935
   69SAPC   H7Y 5930   4.212   6.231   3.258 -1.1752  0.5003 -0.7436
   69SAPC   C38 5931   4.177   6.442   3.284 -0.0259 -0.3087 -0.3142
   69SAPC   H8X 5932   4.068   6.453   3.265 -0.1763  0.1642  0.7468
   69SAPC   H8Y 5933   4.228   6.529   3.237 -0.1164 -0.3069 -0.4094
   69SAPC   C39 5934   4.226   6.451   3.431  0.1368 -0.0051  0.1537
   69SAPC   H9X 5935   4.236   6.554   3.472  1.6466 -0.1870  0.3195
   69SAPC   H9Y 5936   4.335   6.431   3.424  0.3117  1.3819 -1.7743
   69SAPC  C310 5937   4.144   6.369   3.541 -0.3945  0.1170 -0.0964
   69SAPC  H10X 5938   4.155   6.260   3.525  0.0658 -0.0628  1.2708
   69SAPC  H10Y 5939   4.040   6.390   3.507 -0.1530  2.4381  0.3999
   69SAPC  C311 5940   4.175   6.402   3.682  0.5392  0.2430 -0.1792
   69SAPC  H11X 5941   4.138   6.503   3.710  1.7769  0.2787  1.5121
   69SAPC  H11Y 5942   4.285   6.410   3.688  0.6922  0.4296 -2.3379
   69SAPC  C312 5943   4.108   6.295   3.775  0.6156  0.0233 -0.9674
   69SAPC  H12X 5944   4.152   6.194   3.763  1.4134  0.4418 -1.6422
   69SAPC  H12Y 5945   4.001   6.290   3.747 -0.3947 -0.7104  2.4971
   69SAPC  C313 5946   4.122   6.334   3.924  0.0800 -0.2408 -0.0409
   69SAPC  H13X 5947   4.084   6.436   3.947 -0.1156 -0.1254 -0.8303
   69SAPC  H13Y 5948   4.230   6.328   3.948 -0.3582 -2.0806  1.6748
   69SAPC  C314 5949   4.054   6.236   4.023 -0.1137  0.4135 -0.2884
   69SAPC  H14X 5950   4.108   6.142   3.999  2.1066  2.1958 -2.8438
   69SAPC  H14Y 5951   3.949   6.215   3.992  0.3509 -0.6310 -1.2263
   69SAPC  C315 5952   4.074   6.276   4.170 -0.0414 -0.3429 -0.2458
   69SAPC  H15X 5953   4.020   6.367   4.205 -3.3873 -2.8025  1.6183
   69SAPC  H15Y 5954   4.180   6.271   4.200 -0.1835 -0.9804  0.1619
   69SAPC  C316 5955   4.022   6.173   4.277  0.9829  0.1520 -1.0483
   69SAPC  H16X 5956   3.913   6.153   4.267  0.9934 -0.2021 -0.5175
   69SAPC  H16Y 5957   4.036   6.223   4.375  0.7759  0.9789 -1.4298
   69SAPC  C317 5958   4.089   6.034   4.279  0.5926 -0.9302  0.2831
   69SAPC  H17X 5959   4.196   6.055   4.256 -0.2300 -0.7053 -4.1732
   69SAPC  H17Y 5960   4.061   5.976   4.189  0.7312 -0.1286 -0.2824
   69SAPC  C318 5961   4.082   5.946   4.405 -0.1124  0.6145  0.3668
   69SAPC  H18X 5962   3.977   5.914   4.422  0.8861 -1.8672  2.4999
   69SAPC  H18Y 5963   4.118   5.988   4.501 -0.3154  0.7035  0.4049
   69SAPC  H18Z 5964   4.136   5.851   4.381  0.0378  1.3519 -2.7163
   70SAPC     N 5965   3.338   3.229   2.658  0.2504 -0.4010 -0.6222
   70SAPC   C12 5966   3.379   3.370   2.712  0.5480 -0.4478  0.0659
   70SAPC  H12A 5967   3.431   3.369   2.806  0.4243  1.8868  0.2147
   70SAPC  H12B 5968   3.290   3.427   2.738  1.4799  1.1725 -0.1485
   70SAPC   C13 5969   3.463   3.147   2.656 -0.0161  0.0498 -0.3608
   70SAPC  H13A 5970   3.512   3.136   2.752 -0.5619  0.2178 -0.0545
   70SAPC  H13B 5971   3.436   3.048   2.623 -2.0633  0.5912 -0.4650
   70SAPC  H13C 5972   3.535   3.208   2.603 -0.4935 -0.1185 -1.2281
   70SAPC   C14 5973   3.233   3.167   2.751 -0.3487  0.1847 -0.6081
   70SAPC  H14A 5974   3.214   3.066   2.718 -1.9932  0.4017 -0.3837
   70SAPC  H14B 5975   3.271   3.164   2.852  0.1053  0.2669 -0.7722
   70SAPC  H14C 5976   3.143   3.225   2.762 -0.3117 -0.1549  2.2765
   70SAPC   C15 5977   3.282   3.233   2.519 -0.3486  0.5366 -0.5361
   70SAPC  H15A 5978   3.205   3.307   2.506  0.3536  1.1131 -1.5371
   70SAPC  H15B 5979   3.365   3.260   2.455  0.7101 -0.3370  0.4192
   70SAPC  H15C 5980   3.254   3.130   2.503 -0.4668  0.1485  1.7912
   70SAPC   C11 5981   3.464   3.453   2.611 -0.0314 -0.1421  0.1976
   70SAPC  H11A 5982   3.468   3.559   2.643  0.1180 -0.4189  1.1230
   70SAPC  H11B 5983   3.409   3.461   2.514  0.2024 -0.1774  0.0601
   70SAPC     P 5984   3.707   3.411   2.708 -0.4545 -0.2176  0.1977
   70SAPC   O13 5985   3.787   3.287   2.705 -0.2876  0.4702  0.0171
   70SAPC   O14 5986   3.776   3.538   2.676  0.6151  0.2003 -0.1254
   70SAPC   O12 5987   3.599   3.404   2.596  0.2544  0.1504 -0.2471
   70SAPC   O11 5988   3.633   3.414   2.844  0.5797 -0.6363 -0.2997
   70SAPC    C1 5989   3.667   3.519   2.938  1.0497  0.3979 -0.0415
   70SAPC    HA 5990   3.700   3.616   2.893  0.2543  0.2267 -1.0263
   70SAPC    HB 5991   3.581   3.533   3.006  1.5758 -0.7650  0.8992
   70SAPC    C2 5992   3.779   3.464   3.025  0.0221  0.3089 -0.0990
   70SAPC    HS 5993   3.870   3.450   2.962 -0.9262 -0.3233 -1.3757
   70SAPC   O21 5994   3.738   3.347   3.097 -0.1850  0.3051 -0.0354
   70SAPC   C21 5995   3.840   3.276   3.147  0.4556  0.1976 -0.2834
   70SAPC   O22 5996   3.958   3.303   3.152  0.4962  0.1653 -0.0781
   70SAPC   C22 5997   3.777   3.149   3.221  0.2575 -0.0659  0.5039
   70SAPC   H2R 5998   3.667   3.168   3.225  0.2691  0.2755 -0.5332
   70SAPC   H2S 5999   3.786   3.066   3.148  1.0280  0.2725  0.2056
   70SAPC    C3 6000   3.827   3.581   3.111  0.2106  0.1800  0.2898
   70SAPC    HX 6001   3.870   3.660   3.047  0.7381  0.1566  0.6089
   70SAPC    HY 6002   3.902   3.543   3.183  0.6068 -0.1665 -0.3010
   70SAPC   O31 6003   3.716   3.640   3.184 -0.3382  0.1022  0.1548
   70SAPC   C31 6004   3.702   3.602   3.311  0.1172  0.7959  0.1333
   70SAPC   O32 6005   3.755   3.504   3.359  0.2456 -0.0196  0.0930
   70SAPC   C32 6006   3.619   3.702   3.384  0.0394 -0.2707 -0.6804
   70SAPC   H2X 6007   3.613   3.658   3.486  0.7273 -0.2795 -0.6429
   70SAPC   H2Y 6008   3.513   3.704   3.351 -0.5162 -0.0896  0.9991
   70SAPC   C23 6009   3.840   3.116   3.358 -0.6382  0.3262 -0.6719
   70SAPC   H3R 6010   3.826   3.201   3.429 -2.0548  0.0991 -0.6503
   70SAPC   H3S 6011   3.947   3.088   3.354 -0.9341 -1.0077 -0.0016
   70SAPC   C24 6012   3.770   2.994   3.428 -0.4301 -0.3095 -0.6450
   70SAPC   H4R 6013   3.782   2.902   3.366  1.0698 -0.0314 -0.8126
   70SAPC   H4S 6014   3.663   3.020   3.439 -0.1443  0.4403  0.5996
   70SAPC   C25 6015   3.840   2.961   3.555 -0.6790  0.3761 -0.4822
   70SAPC   H5R 6016   3.937   2.911   3.542 -0.7323 -0.0027  0.5196
   70SAPC   C26 6017   3.798   2.980   3.679  0.9123 -0.6628 -0.2294
   70SAPC   H6R 6018   3.864   2.948   3.761  2.3269 -0.0972 -1.1066
   70SAPC   C27 6019   3.674   3.065   3.713 -0.7432 -0.6177 -0.1757
   70SAPC   H7R 6020   3.599   2.991   3.750  0.6210 -2.5749 -1.1695
   70SAPC   H7S 6021   3.633   3.126   3.630  0.6518  2.6887  1.3918
   70SAPC   C28 6022   3.694   3.169   3.817  0.6738 -0.0641  0.1992
   70SAPC   H8R 6023   3.679   3.269   3.773 -0.1066 -0.7106 -1.0790
   70SAPC   C29 6024   3.712   3.160   3.949  0.1968 -0.0283 -0.8567
   70SAPC   H9R 6025   3.730   3.258   3.995  2.2355 -0.3701 -0.8640
   70SAPC  C210 6026   3.715   3.037   4.038 -0.2097 -0.2505 -0.2237
   70SAPC  H10R 6027   3.802   3.045   4.106 -1.7914  1.0785  1.7763
   70SAPC  H10S 6028   3.721   2.944   3.979  1.6619 -1.0751  1.1801
   70SAPC  C211 6029   3.589   3.044   4.111 -0.6580 -0.0315 -0.3275
   70SAPC  H11R 6030   3.508   3.031   4.038  0.8730 -1.0919 -1.9231
   70SAPC  C212 6031   3.567   3.038   4.240 -0.2142 -0.1535  0.2221
   70SAPC  H12R 6032   3.461   3.039   4.269 -0.5831  1.9316 -1.0016
   70SAPC  C213 6033   3.659   3.019   4.361  0.3090 -0.0140  0.3372
   70SAPC  H13R 6034   3.765   3.012   4.327  0.2869 -0.1302  0.2901
   70SAPC  H13S 6035   3.639   2.924   4.414  1.3605 -1.0020 -0.9512
   70SAPC  C214 6036   3.634   3.138   4.460 -0.0904  0.2759 -0.2442
   70SAPC  H14R 6037   3.612   3.235   4.414 -1.1234  0.6634  1.0071
   70SAPC  C215 6038   3.632   3.135   4.593  0.3165 -0.7806  0.0843
   70SAPC  H15R 6039   3.617   3.232   4.642 -0.2445 -0.7156 -0.2061
   70SAPC  C216 6040   3.663   3.017   4.689  0.5075 -0.0917  0.5652
   70SAPC  H16R 6041   3.738   3.058   4.761 -1.4854  6.0252 -0.1960
   70SAPC  H16S 6042   3.704   2.930   4.634  0.1569 -0.4161  0.8200
   70SAPC  C217 6043   3.541   2.963   4.773 -0.1076 -0.5372  0.2401
   70SAPC  H17R 6044   3.572   2.862   4.806  0.7789 -0.7131 -1.0556
   70SAPC  H17S 6045   3.451   2.954   4.709 -2.0435  2.4503  2.2585
   70SAPC  C218 6046   3.524   3.047   4.898  0.3767  0.0169  0.1613
   70SAPC  H18R 6047   3.542   3.153   4.867  0.0014 -0.0298 -0.2242
   70SAPC  H18S 6048   3.602   3.023   4.973  0.2466 -0.9984 -0.0137
   70SAPC  C219 6049   3.388   3.032   4.960  0.2525 -0.1415  0.0297
   70SAPC  H19R 6050   3.390   3.069   5.065 -0.6786  2.8322 -0.8850
   70SAPC  H19S 6051   3.346   2.930   4.952 -0.5780  0.2299 -0.3874
   70SAPC  C220 6052   3.283   3.126   4.894 -0.5116 -0.1492  0.0568
   70SAPC  H20R 6053   3.283   3.131   4.783  1.3114 -0.1152  0.0296
   70SAPC  H20S 6054   3.310   3.231   4.919  2.3734 -0.6081 -0.7334
   70SAPC  H20T 6055   3.188   3.108   4.947 -0.7794  0.7095 -0.1126
   70SAPC   C33 6056   3.686   3.842   3.370  0.3494  0.5761  0.0473
   70SAPC   H3X 6057   3.627   3.924   3.417  2.0147  2.3327 -0.7826
   70SAPC   H3Y 6058   3.695   3.874   3.264  1.8031  0.0116 -0.0191
   70SAPC   C34 6059   3.823   3.852   3.439  0.6226  0.1713 -0.3427
   70SAPC   H4X 6060   3.867   3.948   3.403  2.4061 -1.0382 -1.5438
   70SAPC   H4Y 6061   3.898   3.777   3.407  0.4289  0.5262 -1.6963
   70SAPC   C35 6062   3.815   3.864   3.594  1.3204  0.0622 -0.8401
   70SAPC   H5X 6063   3.918   3.844   3.629  1.0526 -1.0867 -0.6682
   70SAPC   H5Y 6064   3.745   3.782   3.621  1.8395  0.0449  0.5369
   70SAPC   C36 6065   3.760   3.994   3.653  0.4616  0.8950  0.1866
   70SAPC   H6X 6066   3.656   4.016   3.620  0.0450 -1.4526 -0.2239
   70SAPC   H6Y 6067   3.828   4.076   3.620  1.2925 -0.2445 -1.0351
   70SAPC   C37 6068   3.778   3.993   3.804 -0.0777  0.1272  0.2161
   70SAPC   H7X 6069   3.883   4.015   3.831  0.3320 -0.4144 -0.8694
   70SAPC   H7Y 6070   3.717   4.071   3.854 -1.5779 -1.5376  1.1179
   70SAPC   C38 6071   3.739   3.862   3.869  1.0355 -0.1095 -0.3090
   70SAPC   H8X 6072   3.828   3.795   3.862  1.7112  0.7903 -0.5992
   70SAPC   H8Y 6073   3.648   3.812   3.830  0.1996 -0.7799  2.3120
   70SAPC   C39 6074   3.708   3.881   4.021  0.0031  0.8796 -0.4189
   70SAPC   H9X 6075   3.666   3.981   4.044  0.2825  1.1282 -0.9852
   70SAPC   H9Y 6076   3.809   3.869   4.066 -0.4342 -0.8800  0.1752
   70SAPC  C310 6077   3.632   3.766   4.086 -0.0561 -0.3391  0.8369
   70SAPC  H10X 6078   3.696   3.676   4.080  0.2125 -0.1022  0.0766
   70SAPC  H10Y 6079   3.535   3.742   4.036 -0.2542  0.2394  0.9321
   70SAPC  C311 6080   3.609   3.789   4.242  0.2839  0.8783 -0.2596
   70SAPC  H11X 6081   3.558   3.887   4.258  0.8111  1.0561  0.3538
   70SAPC  H11Y 6082   3.711   3.796   4.283 -0.1337 -0.9277  1.2073
   70SAPC  C312 6083   3.544   3.671   4.310  0.4370 -1.0333  0.2995
   70SAPC  H12X 6084   3.535   3.588   4.236 -2.1562 -0.7198  0.1601
   70SAPC  H12Y 6085   3.437   3.689   4.332  0.4723  0.1034 -0.3825
   70SAPC  C313 6086   3.616   3.624   4.436  0.6646  0.0833  0.3755
   70SAPC  H13X 6087   3.725   3.627   4.414  0.3915  1.5884 -0.9016
   70SAPC  H13Y 6088   3.588   3.523   4.473 -0.5030 -0.5456 -2.0169
   70SAPC  C314 6089   3.598   3.719   4.561 -0.7409 -0.3203 -0.0295
   70SAPC  H14X 6090   3.489   3.709   4.580 -0.6825  0.8535  1.0703
   70SAPC  H14Y 6091   3.618   3.826   4.537 -0.9681 -0.6181 -1.5811
   70SAPC  C315 6092   3.702   3.680   4.672 -0.0926 -0.2910  0.3780
   70SAPC  H15X 6093   3.801   3.702   4.625 -0.2020 -0.6680 -0.0393
   70SAPC  H15Y 6094   3.693   3.571   4.692 -0.5981 -0.3177  0.0140
   70SAPC  C316 6095   3.685   3.765   4.802 -0.0578  0.3231  0.3513
   70SAPC  H16X 6096   3.770   3.733   4.866 -0.1346 -0.0600  0.2680
   70SAPC  H16Y 6097   3.586   3.736   4.844 -0.9073  1.6093 -0.7164
   70SAPC  C317 6098   3.698   3.916   4.781  0.2430  0.0161  0.1311
   70SAPC  H17X 6099   3.617   3.942   4.709  0.5611  0.7743  0.0456
   70SAPC  H17Y 6100   3.794   3.938   4.731 -0.6442  0.3187 -1.5222
   70SAPC  C318 6101   3.696   3.993   4.918  0.1506 -0.2345 -0.1570
   70SAPC  H18X 6102   3.764   3.965   5.001 -0.8276  1.1644  1.1659
   70SAPC  H18Y 6103   3.592   3.993   4.957 -0.8180 -0.4309 -2.5484
   70SAPC  H18Z 6104   3.720   4.097   4.887 -1.7821  0.1452 -0.5124
   71SAPC     N 6105   6.126   1.519   2.715 -0.2894  0.2701  0.4683
   71SAPC   C12 6106   6.171   1.474   2.853  0.0146 -0.6388 -0.1165
   71SAPC  H12A 6107   6.201   1.558   2.914 -1.7196 -2.0926  2.9624
   71SAPC  H12B 6108   6.263   1.417   2.845  0.2839 -0.3194  0.6032
   71SAPC   C13 6109   6.126   1.404   2.621 -0.0544 -0.2066  0.6326
   71SAPC  H13A 6110   6.061   1.329   2.661 -0.2280  1.4867  3.8561
   71SAPC  H13B 6111   6.088   1.435   2.524  1.7834  1.4813  0.3833
   71SAPC  H13C 6112   6.224   1.360   2.611  0.9776  1.9525  0.4221
   71SAPC   C14 6113   5.990   1.582   2.720 -0.6686  0.2614  0.2682
   71SAPC  H14A 6114   5.922   1.509   2.761  0.0729 -1.7571 -1.9092
   71SAPC  H14B 6115   5.991   1.675   2.776  0.9758  1.5680 -1.8058
   71SAPC  H14C 6116   5.962   1.610   2.620 -3.9066  1.7075  1.4041
   71SAPC   C15 6117   6.229   1.623   2.670 -0.2072 -0.1060 -0.3432
   71SAPC  H15A 6118   6.197   1.690   2.592  1.5907  0.1363 -0.9301
   71SAPC  H15B 6119   6.258   1.678   2.759 -0.5606 -0.5031  0.0197
   71SAPC  H15C 6120   6.320   1.573   2.641 -1.8403 -2.3447 -1.8989
   71SAPC   C11 6121   6.071   1.398   2.936 -0.3273  0.4575 -0.4485
   71SAPC  H11A 6122   5.972   1.447   2.929  0.1006  1.1928 -2.2012
   71SAPC  H11B 6123   6.109   1.400   3.040  2.9870  2.4744 -1.5225
   71SAPC     P 6124   5.939   1.184   2.874  0.0096 -0.2193 -0.2621
   71SAPC   O13 6125   5.823   1.269   2.834 -0.3978  0.0623  0.0791
   71SAPC   O14 6126   5.965   1.064   2.788 -0.3354 -0.4275  0.2697
   71SAPC   O12 6127   6.070   1.267   2.883  0.0928  0.3773 -0.3583
   71SAPC   O11 6128   5.915   1.127   3.021 -0.3067 -0.1663 -0.0895
   71SAPC    C1 6129   5.893   1.204   3.140  0.4550  0.9668  0.4262
   71SAPC    HA 6130   5.989   1.251   3.171  1.9208 -1.9311  0.6211
   71SAPC    HB 6131   5.841   1.301   3.128 -0.2373  0.5236 -0.2838
   71SAPC    C2 6132   5.841   1.116   3.258 -0.2870 -0.4281 -0.0029
   71SAPC    HS 6133   5.846   1.181   3.348  0.2899  1.8106 -1.5679
   71SAPC   O21 6134   5.931   1.009   3.276 -0.5927 -0.0218 -0.5865
   71SAPC   C21 6135   6.053   1.041   3.325 -0.6268  1.0982  0.6764
   71SAPC   O22 6136   6.085   1.152   3.360  0.4416  0.0519 -0.5267
   71SAPC   C22 6137   6.159   0.921   3.309  0.5489 -0.7883 -0.6597
   71SAPC   H2R 6138   6.212   0.935   3.213 -0.5960  2.8884 -0.8809
   71SAPC   H2S 6139   6.231   0.930   3.393 -1.4230 -1.3627  1.1788
   71SAPC    C3 6140   5.695   1.078   3.234  0.1421  0.2469  0.8384
   71SAPC    HX 6141   5.675   1.045   3.130 -3.4537  0.3054  1.3905
   71SAPC    HY 6142   5.640   1.173   3.253 -2.2443 -0.7375 -0.8071
   71SAPC   O31 6143   5.637   0.980   3.325  0.1164  0.0603  0.1176
   71SAPC   C31 6144   5.666   0.854   3.303 -0.1092 -0.1525 -0.6037
   71SAPC   O32 6145   5.730   0.818   3.208 -0.1278 -0.2191  0.0159
   71SAPC   C32 6146   5.633   0.773   3.426 -0.1548  0.0121 -0.3082
   71SAPC   H2X 6147   5.698   0.683   3.430 -3.3204 -2.4677  3.1922
   71SAPC   H2Y 6148   5.531   0.736   3.401 -0.4294  0.9028 -0.5586
   71SAPC   C23 6149   6.085   0.788   3.323  0.1133 -0.4534 -0.7447
   71SAPC   H3R 6150   6.156   0.708   3.294 -0.2480 -0.6115 -1.2093
   71SAPC   H3S 6151   6.000   0.778   3.252  1.9059  1.8894 -3.4453
   71SAPC   C24 6152   6.027   0.761   3.465 -0.2589  0.0871  0.1210
   71SAPC   H4R 6153   5.986   0.658   3.472 -2.2584  0.7125 -1.3815
   71SAPC   H4S 6154   5.939   0.826   3.485 -1.2490 -1.7042  1.9269
   71SAPC   C25 6155   6.130   0.768   3.567  0.4123  0.0306  0.3137
   71SAPC   H5R 6156   6.207   0.689   3.568 -0.3822 -0.8049 -1.2345
   71SAPC   C26 6157   6.144   0.852   3.668 -0.3439  0.1671  0.1792
   71SAPC   H6R 6158   6.236   0.839   3.727  0.0901 -0.8806 -0.7064
   71SAPC   C27 6159   6.067   0.971   3.718  0.8267  0.5666 -0.5165
   71SAPC   H7R 6160   5.996   0.997   3.637  2.2005 -2.2580 -2.7820
   71SAPC   H7S 6161   6.125   1.065   3.730 -0.3091  1.1935  0.3177
   71SAPC   C28 6162   5.982   0.942   3.839  0.3473  0.3814 -0.4180
   71SAPC   H8R 6163   5.903   0.865   3.835 -1.1077  1.7164  1.2862
   71SAPC   C29 6164   6.005   0.993   3.962  0.8701  0.3394  0.1942
   71SAPC   H9R 6165   5.941   0.963   4.046  1.3365 -0.5993  0.2311
   71SAPC  C210 6166   6.102   1.101   3.995 -0.6575  0.1231 -0.8961
   71SAPC  H10R 6167   6.053   1.179   4.057  0.0706 -1.8924  2.4933
   71SAPC  H10S 6168   6.164   1.145   3.914  0.4366 -0.4138 -0.3709
   71SAPC  C211 6169   6.207   1.037   4.087 -0.4362 -0.0669 -0.5867
   71SAPC  H11R 6170   6.249   0.943   4.049 -1.8261 -2.2470  2.7723
   71SAPC  C212 6171   6.239   1.076   4.215 -0.3158  0.8202 -0.1622
   71SAPC  H12R 6172   6.296   0.998   4.268  0.0090  1.6991  0.8266
   71SAPC  C213 6173   6.174   1.189   4.287 -0.5749 -0.3956  0.3441
   71SAPC  H13R 6174   6.101   1.241   4.221 -0.6188 -2.5614 -1.4174
   71SAPC  H13S 6175   6.248   1.269   4.307  1.7051 -2.4771  0.5716
   71SAPC  C214 6176   6.113   1.132   4.415 -0.0782 -0.0171  0.0970
   71SAPC  H14R 6177   6.026   1.066   4.408  1.3162 -2.0101  0.6191
   71SAPC  C215 6178   6.159   1.167   4.536 -0.2998  0.1367 -0.0092
   71SAPC  H15R 6179   6.109   1.120   4.623 -0.9513  0.6404 -0.0993
   71SAPC  C216 6180   6.278   1.257   4.558 -0.0328  0.0169  0.2412
   71SAPC  H16R 6181   6.280   1.279   4.667 -1.1006  4.0304 -0.3610
   71SAPC  H16S 6182   6.268   1.352   4.501 -1.8634  0.5851  1.4170
   71SAPC  C217 6183   6.415   1.193   4.528 -0.0169  0.2058 -0.6086
   71SAPC  H17R 6184   6.425   1.185   4.418 -3.1163 -0.1688 -0.9708
   71SAPC  H17S 6185   6.412   1.087   4.561  0.5145  0.9458  2.0788
   71SAPC  C218 6186   6.527   1.267   4.599  0.1247 -0.1781 -0.0405
   71SAPC  H18R 6187   6.619   1.205   4.607 -1.3969 -2.6643 -0.7619
   71SAPC  H18S 6188   6.490   1.286   4.702  1.4906  0.9946  0.2797
   71SAPC  C219 6189   6.587   1.396   4.524 -0.0164 -0.0008 -0.3203
   71SAPC  H19R 6190   6.517   1.481   4.539  0.9400  0.5325  1.3518
   71SAPC  H19S 6191   6.601   1.366   4.418  1.8695 -1.6325  0.3280
   71SAPC  C220 6192   6.727   1.428   4.581  0.5516 -0.8532 -0.5705
   71SAPC  H20R 6193   6.783   1.498   4.516  1.2658 -1.3429 -0.4998
   71SAPC  H20S 6194   6.799   1.343   4.583 -0.5202 -1.8295  2.3610
   71SAPC  H20T 6195   6.725   1.482   4.679  1.0724  0.1642 -1.1044
   71SAPC   C33 6196   5.624   0.854   3.559 -0.8461 -0.0964 -0.0649
   71SAPC   H3X 6197   5.554   0.939   3.545  0.9000  2.1659  3.6204
   71SAPC   H3Y 6198   5.721   0.903   3.578 -0.4612  0.3659 -2.7679
   71SAPC   C34 6199   5.575   0.777   3.682 -0.5124 -0.3342 -0.3083
   71SAPC   H4X 6200   5.647   0.694   3.703 -0.4542 -1.0499 -2.9533
   71SAPC   H4Y 6201   5.476   0.731   3.664  1.0730 -3.9223 -0.9069
   71SAPC   C35 6202   5.563   0.869   3.801  0.6852 -0.2905 -0.3030
   71SAPC   H5X 6203   5.483   0.945   3.792  1.4242  0.4650 -0.6063
   71SAPC   H5Y 6204   5.658   0.927   3.803  0.3502  0.3124 -1.2983
   71SAPC   C36 6205   5.561   0.798   3.940 -0.3069 -0.0315 -0.1097
   71SAPC   H6X 6206   5.639   0.719   3.932 -1.1557 -0.8200 -1.0815
   71SAPC   H6Y 6207   5.472   0.738   3.969  0.8437 -0.9376  1.7120
   71SAPC   C37 6208   5.596   0.886   4.056  0.5793 -0.3473  0.1478
   71SAPC   H7X 6209   5.502   0.924   4.102  0.5007  1.9424 -1.7102
   71SAPC   H7Y 6210   5.652   0.979   4.033  0.6644 -0.3718  0.2543
   71SAPC   C38 6211   5.675   0.809   4.168  0.3206  0.2386  0.0033
   71SAPC   H8X 6212   5.779   0.791   4.135  0.1381 -1.1812  0.1239
   71SAPC   H8Y 6213   5.650   0.701   4.178  3.2733 -0.5812 -0.5753
   71SAPC   C39 6214   5.661   0.878   4.302 -0.5342 -0.0590  0.1418
   71SAPC   H9X 6215   5.575   0.836   4.359  1.2223 -2.1489  1.4373
   71SAPC   H9Y 6216   5.644   0.985   4.282  1.2942  0.4460  1.0484
   71SAPC  C310 6217   5.786   0.861   4.388  0.6958  0.2381  0.3102
   71SAPC  H10X 6218   5.875   0.911   4.344 -0.1641  1.7886  0.2524
   71SAPC  H10Y 6219   5.806   0.757   4.421 -1.9797 -0.4117  0.1711
   71SAPC  C311 6220   5.792   0.934   4.521  0.0374 -0.6115 -0.1436
   71SAPC  H11X 6221   5.777   1.043   4.513  0.3449 -0.6157 -0.8412
   71SAPC  H11Y 6222   5.894   0.918   4.562  0.0863  0.3869  0.1347
   71SAPC  C312 6223   5.686   0.883   4.625  0.1894 -0.2255 -0.5832
   71SAPC  H12X 6224   5.673   0.773   4.616  1.8696 -0.4595 -0.4261
   71SAPC  H12Y 6225   5.600   0.952   4.614 -0.0020 -0.3970 -0.1639
   71SAPC  C313 6226   5.735   0.901   4.766  0.1683 -0.2339 -0.3013
   71SAPC  H13X 6227   5.832   0.849   4.785  1.2622  1.0817 -1.9675
   71SAPC  H13Y 6228   5.665   0.851   4.836  0.2719  1.7974  1.3590
   71SAPC  C314 6229   5.740   1.050   4.817 -0.2135 -0.2193  0.0793
   71SAPC  H14X 6230   5.644   1.100   4.790 -0.2378  0.9124  2.0412
   71SAPC  H14Y 6231   5.814   1.116   4.767 -0.8371  2.8089  2.7912
   71SAPC  C315 6232   5.754   1.056   4.963  0.2962 -0.3909 -0.6247
   71SAPC  H15X 6233   5.851   1.019   5.003 -0.2343 -0.1815  0.9204
   71SAPC  H15Y 6234   5.677   0.996   5.016  2.7118 -1.5053  1.9045
   71SAPC  C316 6235   5.743   1.202   5.014 -0.6078  0.6172  0.0920
   71SAPC  H16X 6236   5.647   1.246   4.980 -1.6614 -1.0070  0.8667
   71SAPC  H16Y 6237   5.817   1.264   4.958  0.8559  0.7610  2.0693
   71SAPC  C317 6238   5.794   1.230   5.155 -0.0282  0.1881  0.5711
   71SAPC  H17X 6239   5.901   1.202   5.157 -0.1438 -0.5499 -1.5254
   71SAPC  H17Y 6240   5.737   1.172   5.231  2.5936 -1.7750  1.1960
   71SAPC  C318 6241   5.782   1.374   5.189 -1.0112 -0.3803  0.4622
   71SAPC  H18X 6242   5.677   1.412   5.183 -0.6804  0.5285  0.3735
   71SAPC  H18Y 6243   5.850   1.442   5.136 -0.6719 -1.2376 -0.2275
   71SAPC  H18Z 6244   5.815   1.375   5.295  0.5447  0.3824 -0.0170
   72SAPC     N 6245   0.397   6.335   2.001  0.3005  0.2064  0.3741
   72SAPC   C12 6246   0.397   6.199   2.076 -0.2294 -0.3997 -0.7913
   72SAPC  H12A 6247   0.500   6.168   2.065  1.6955  4.6742  0.2280
   72SAPC  H12B 6248   0.343   6.127   2.016 -1.2421  0.0722 -0.4694
   72SAPC   C13 6249   0.257   6.401   2.022 -0.5787  0.2478  0.3851
   72SAPC  H13A 6250   0.235   6.489   1.963  1.5895  2.6396  2.8397
   72SAPC  H13B 6251   0.181   6.325   2.011 -0.8806  0.2274  2.1880
   72SAPC  H13C 6252   0.254   6.424   2.128  0.7235 -0.4006  0.5722
   72SAPC   C14 6253   0.495   6.435   2.049 -0.4888  0.1635  0.0817
   72SAPC  H14A 6254   0.601   6.423   2.031 -0.3185  0.6438  0.6996
   72SAPC  H14B 6255   0.479   6.536   2.016 -1.1829  0.9171  2.4589
   72SAPC  H14C 6256   0.472   6.450   2.154 -1.7602 -0.7995 -0.0284
   72SAPC   C15 6257   0.416   6.315   1.859  0.8331 -0.2224  0.5754
   72SAPC  H15A 6258   0.330   6.262   1.822  0.8564  0.1269  0.0175
   72SAPC  H15B 6259   0.437   6.409   1.809  0.3911 -0.1239  0.5664
   72SAPC  H15C 6260   0.505   6.258   1.838  0.6789 -1.0031  1.8999
   72SAPC   C11 6261   0.356   6.184   2.218 -0.2899 -0.1848  0.1386
   72SAPC  H11A 6262   0.351   6.077   2.249  1.7789 -0.4701 -0.3891
   72SAPC  H11B 6263   0.252   6.223   2.217 -0.7106 -1.2582 -1.8507
   72SAPC     P 6264   0.561   6.182   2.388 -0.0980 -0.3736 -0.0300
   72SAPC   O13 6265   0.629   6.071   2.310 -0.1653 -0.2249 -0.3120
   72SAPC   O14 6266   0.645   6.277   2.455 -0.3860 -0.7518 -0.3104
   72SAPC   O12 6267   0.454   6.258   2.294  0.0480  0.0656 -0.1361
   72SAPC   O11 6268   0.473   6.114   2.489  0.2261  0.1131  0.2050
   72SAPC    C1 6269   0.383   6.182   2.576 -0.4158  0.7662  0.2907
   72SAPC    HA 6270   0.329   6.262   2.521 -0.2091  0.9594  0.3659
   72SAPC    HB 6271   0.303   6.111   2.606  0.6409 -0.2209  0.8390
   72SAPC    C2 6272   0.446   6.230   2.704 -0.1622  0.4868  0.5220
   72SAPC    HS 6273   0.543   6.279   2.681  1.7470 -2.7774  0.8761
   72SAPC   O21 6274   0.456   6.115   2.792 -0.0897  0.0208 -0.6130
   72SAPC   C21 6275   0.572   6.114   2.848 -0.3284  0.2246  0.6577
   72SAPC   O22 6276   0.662   6.191   2.820  0.4124  0.3460  0.3922
   72SAPC   C22 6277   0.582   6.015   2.958  0.2805  0.4975 -0.3147
   72SAPC   H2R 6278   0.490   5.953   2.966  1.7464 -1.6578  0.8769
   72SAPC   H2S 6279   0.664   5.944   2.931 -2.0433 -1.4334 -2.9271
   72SAPC    C3 6280   0.347   6.342   2.758  0.4940  0.3000 -0.0276
   72SAPC    HX 6281   0.239   6.317   2.759  0.0105  2.1541 -0.8604
   72SAPC    HY 6282   0.349   6.426   2.686  2.3348  0.5131  0.2217
   72SAPC   O31 6283   0.387   6.382   2.887  0.3608 -0.1106 -0.1784
   72SAPC   C31 6284   0.483   6.468   2.881 -0.1000  0.4803  0.0878
   72SAPC   O32 6285   0.521   6.532   2.784  0.0835  0.0526 -0.5302
   72SAPC   C32 6286   0.550   6.498   3.013  0.4494 -0.5863  0.5615
   72SAPC   H2X 6287   0.521   6.418   3.085  1.5816 -0.8862  0.7010
   72SAPC   H2Y 6288   0.508   6.593   3.053 -0.8054 -1.8800  2.5501
   72SAPC   C23 6289   0.602   6.089   3.085  0.1916 -0.7012 -0.2899
   72SAPC   H3R 6290   0.507   6.140   3.109  0.6278 -0.5072  1.1004
   72SAPC   H3S 6291   0.694   6.149   3.070 -1.1682  1.4196 -0.4335
   72SAPC   C24 6292   0.633   5.989   3.200 -0.3038 -1.0275  0.4198
   72SAPC   H4R 6293   0.731   5.943   3.177  1.1733  2.6477 -1.5067
   72SAPC   H4S 6294   0.555   5.911   3.195  1.3333 -2.6684 -1.2042
   72SAPC   C25 6295   0.642   6.061   3.328  0.4522 -0.3823  0.1626
   72SAPC   H5R 6296   0.709   6.148   3.336 -1.2116  1.0133 -0.4493
   72SAPC   C26 6297   0.588   6.022   3.444  0.1867  0.1283  0.9016
   72SAPC   H6R 6298   0.618   6.079   3.534  2.8010 -0.4326  0.4600
   72SAPC   C27 6299   0.505   5.894   3.473  0.2713 -0.2870 -0.5545
   72SAPC   H7R 6300   0.554   5.806   3.426  0.4404 -1.9450  2.5140
   72SAPC   H7S 6301   0.418   5.911   3.405  1.6324  0.7513 -2.1136
   72SAPC   C28 6302   0.451   5.871   3.615  0.4502  0.3860 -0.1251
   72SAPC   H8R 6303   0.351   5.913   3.633 -0.9368 -2.3725 -1.0021
   72SAPC   C29 6304   0.515   5.810   3.723  1.0056  1.0225 -0.2820
   72SAPC   H9R 6305   0.468   5.782   3.819  0.5645 -2.1244 -1.3053
   72SAPC  C210 6306   0.653   5.743   3.708 -0.4063  0.1933  0.0924
   72SAPC  H10R 6307   0.699   5.771   3.611  0.0053 -0.2956  0.1393
   72SAPC  H10S 6308   0.639   5.633   3.714 -1.7616  0.4337  3.2069
   72SAPC  C211 6309   0.767   5.781   3.800 -0.3845  0.0848  0.0076
   72SAPC  H11R 6310   0.830   5.867   3.775 -1.2021  1.1530  1.4568
   72SAPC  C212 6311   0.812   5.691   3.892 -0.4164  0.0964 -0.1300
   72SAPC  H12R 6312   0.902   5.714   3.952 -0.1488  0.1354 -0.5380
   72SAPC  C213 6313   0.745   5.560   3.923 -0.9540  0.4301  0.1244
   72SAPC  H13R 6314   0.812   5.498   3.986 -0.1977 -0.5876 -1.6164
   72SAPC  H13S 6315   0.751   5.500   3.830  0.9292 -0.6115  0.8676
   72SAPC  C214 6316   0.607   5.545   3.983 -0.2254  0.2662 -0.5554
   72SAPC  H14R 6317   0.534   5.517   3.906 -0.3868  3.5468 -1.7306
   72SAPC  C215 6318   0.583   5.542   4.115  0.0420  0.8831 -0.2768
   72SAPC  H15R 6319   0.483   5.520   4.154 -0.0523  0.4337 -0.7567
   72SAPC  C216 6320   0.689   5.562   4.218 -0.0819  0.0352 -0.3276
   72SAPC  H16R 6321   0.681   5.668   4.251 -0.2574  0.2074 -0.9150
   72SAPC  H16S 6322   0.792   5.556   4.178 -0.4607 -1.7051 -1.1076
   72SAPC  C217 6323   0.680   5.470   4.345  0.0225 -0.5031 -0.3037
   72SAPC  H17R 6324   0.581   5.471   4.395  0.0218 -2.7510 -0.1469
   72SAPC  H17S 6325   0.757   5.500   4.420  0.2062 -1.7680  0.0428
   72SAPC  C218 6326   0.695   5.322   4.312  0.5215 -0.7806  0.4799
   72SAPC  H18R 6327   0.799   5.312   4.276  0.4222 -1.9664  0.4798
   72SAPC  H18S 6328   0.620   5.316   4.230  1.4801  2.7227 -0.8117
   72SAPC  C219 6329   0.677   5.235   4.438 -0.3526 -1.0294  1.1568
   72SAPC  H19R 6330   0.576   5.257   4.478 -0.6231  1.2763 -0.6148
   72SAPC  H19S 6331   0.757   5.271   4.506  1.0391  1.7275 -1.7105
   72SAPC  C220 6332   0.700   5.085   4.418  0.3308  0.1844 -0.3969
   72SAPC  H20R 6333   0.803   5.059   4.386  1.4088  3.1902  0.2405
   72SAPC  H20S 6334   0.624   5.051   4.346  1.0375  1.8112 -2.0020
   72SAPC  H20T 6335   0.693   5.025   4.511 -1.3209  1.0688  0.0907
   72SAPC   C33 6336   0.701   6.513   3.009  0.0487 -0.0543  0.1037
   72SAPC   H3X 6337   0.723   6.599   2.943 -2.7886  1.3776  0.8753
   72SAPC   H3Y 6338   0.748   6.418   2.975  2.7602  1.4510 -0.6436
   72SAPC   C34 6339   0.750   6.546   3.151 -0.7247  0.0473 -0.0259
   72SAPC   H4X 6340   0.691   6.621   3.208 -2.6250 -1.4964  0.1336
   72SAPC   H4Y 6341   0.855   6.582   3.153 -1.4081  2.1138  0.8365
   72SAPC   C35 6342   0.756   6.416   3.232  0.3584 -0.1413  0.0576
   72SAPC   H5X 6343   0.830   6.355   3.177  1.1963 -0.2107  1.2342
   72SAPC   H5Y 6344   0.657   6.367   3.232 -0.6928  1.8290  1.7443
   72SAPC   C36 6345   0.808   6.436   3.376 -0.2926 -0.1788  0.6080
   72SAPC   H6X 6346   0.877   6.523   3.374 -0.3672 -0.1177  0.6782
   72SAPC   H6Y 6347   0.854   6.345   3.418  2.6463  0.6863 -0.4669
   72SAPC   C37 6348   0.701   6.493   3.465 -0.2954  0.3497 -0.0463
   72SAPC   H7X 6349   0.610   6.429   3.473  1.7267 -2.8662 -0.7379
   72SAPC   H7Y 6350   0.663   6.589   3.425 -1.6058 -0.4613 -0.7987
   72SAPC   C38 6351   0.757   6.512   3.602  0.3738 -0.5405  0.0934
   72SAPC   H8X 6352   0.671   6.569   3.643  0.0213 -1.0422  0.0548
   72SAPC   H8Y 6353   0.851   6.571   3.589 -1.1407  1.8012 -0.9967
   72SAPC   C39 6354   0.763   6.388   3.692  0.1672 -0.6251  0.2808
   72SAPC   H9X 6355   0.854   6.331   3.666  0.3768 -1.3026  2.3055
   72SAPC   H9Y 6356   0.675   6.320   3.692 -1.7842  1.5869  3.4726
   72SAPC  C310 6357   0.772   6.419   3.845 -0.4268  0.2055  0.2997
   72SAPC  H10X 6358   0.680   6.469   3.883 -0.2676 -0.5385  1.7306
   72SAPC  H10Y 6359   0.843   6.503   3.861  0.5865 -0.5020 -0.3638
   72SAPC  C311 6360   0.818   6.296   3.927 -0.0689 -0.4257 -0.0064
   72SAPC  H11X 6361   0.923   6.261   3.914 -0.2017 -0.9595  0.2874
   72SAPC  H11Y 6362   0.761   6.205   3.897 -2.5356  0.9385  0.3230
   72SAPC  C312 6363   0.796   6.317   4.075 -0.3135  0.3122 -0.4502
   72SAPC  H12X 6364   0.691   6.318   4.109  0.1712 -1.4066  1.3334
   72SAPC  H12Y 6365   0.845   6.413   4.105 -0.0363  0.3017 -0.8700
   72SAPC  C313 6366   0.870   6.210   4.163  0.0916 -0.8144 -0.5280
   72SAPC  H13X 6367   0.870   6.256   4.264 -0.1388 -0.0635 -0.8608
   72SAPC  H13Y 6368   0.978   6.208   4.138 -0.0879 -0.3539 -1.3738
   72SAPC  C314 6369   0.808   6.072   4.149 -0.2392  0.0873 -1.3502
   72SAPC  H14X 6370   0.840   6.028   4.053  1.6307 -0.5052 -0.5096
   72SAPC  H14Y 6371   0.699   6.093   4.138  0.3174  2.9640 -2.1663
   72SAPC  C315 6372   0.837   5.974   4.269  0.7760  0.5871  0.0902
   72SAPC  H15X 6373   0.792   5.875   4.244 -0.1098  1.5884 -2.7095
   72SAPC  H15Y 6374   0.794   6.021   4.359 -0.6073 -0.9207  0.2750
   72SAPC  C316 6375   0.986   5.941   4.289  0.6606 -0.0038  0.9608
   72SAPC  H16X 6376   1.049   6.032   4.289 -1.5775  1.7272 -2.4743
   72SAPC  H16Y 6377   1.020   5.887   4.198 -0.7247 -2.3144  1.7282
   72SAPC  C317 6378   1.020   5.854   4.408 -0.5361 -0.0426  0.3382
   72SAPC  H17X 6379   0.983   5.751   4.386  0.9772 -0.5146 -0.1216
   72SAPC  H17Y 6380   0.970   5.896   4.497  2.1858  3.4095  0.4688
   72SAPC  C318 6381   1.171   5.839   4.428  0.1225  0.1975  0.5695
   72SAPC  H18X 6382   1.216   5.775   4.349 -1.5120  0.8806 -0.9957
   72SAPC  H18Y 6383   1.193   5.788   4.524 -1.3182  0.9463  1.3286
   72SAPC  H18Z 6384   1.228   5.935   4.422 -1.3013  1.0087 -0.5416
   73SLPC     N 6385   1.772   4.390   7.090  0.6246 -0.4320 -0.2424
   73SLPC   C13 6386   1.879   4.493   7.098 -0.3150 -0.8824  0.3356
   73SLPC  H13A 6387   1.931   4.491   7.003 -0.5842 -0.0446  0.1564
   73SLPC  H13B 6388   1.841   4.594   7.112  0.5275 -0.5475  0.2608
   73SLPC  H13C 6389   1.950   4.469   7.175  2.0132 -2.9361 -2.2172
   73SLPC   C14 6390   1.681   4.421   6.972 -0.3435 -0.4317 -0.7569
   73SLPC  H14A 6391   1.739   4.426   6.881  1.9241 -0.3151  0.6002
   73SLPC  H14B 6392   1.602   4.349   6.960 -1.3379  0.4527  0.3253
   73SLPC  H14C 6393   1.636   4.516   6.993 -1.7699 -1.5326  1.5507
   73SLPC   C15 6394   1.682   4.396   7.214  0.5323  0.1240 -0.5629
   73SLPC  H15A 6395   1.737   4.344   7.291  0.7053  1.0390 -0.0598
   73SLPC  H15B 6396   1.647   4.492   7.248  0.0917 -0.0236 -0.5866
   73SLPC  H15C 6397   1.596   4.334   7.192  0.2743  0.2908 -0.0526
   73SLPC   C12 6398   1.833   4.251   7.069  0.2271 -0.5763 -0.7114
   73SLPC  H12A 6399   1.909   4.267   6.994 -0.1878  1.4649 -0.7754
   73SLPC  H12B 6400   1.766   4.175   7.032 -0.7956 -0.5289  0.9517
   73SLPC   C11 6401   1.908   4.205   7.196  0.0829 -0.8790  0.0251
   73SLPC  H11A 6402   1.962   4.287   7.247 -1.9694 -1.1400  2.8126
   73SLPC  H11B 6403   1.993   4.140   7.165  0.3551  0.3158 -1.8987
   73SLPC     P 6404   1.778   4.003   7.290  0.7572 -0.0020 -0.1453
   73SLPC   O13 6405   1.889   3.921   7.333 -0.0919 -0.0088 -0.7423
   73SLPC   O14 6406   1.657   3.991   7.382 -0.0926  0.4488  0.4253
   73SLPC   O12 6407   1.819   4.155   7.288  0.3365  0.2552  0.7050
   73SLPC   O11 6408   1.720   3.972   7.146  0.1833 -0.4939 -0.0160
   73SLPC    C1 6409   1.791   3.883   7.056  0.2601 -0.4942  0.1152
   73SLPC    HA 6410   1.895   3.865   7.093  0.5440  0.8506  0.0303
   73SLPC    HB 6411   1.739   3.786   7.060  2.1362 -1.8166 -3.3869
   73SLPC    C2 6412   1.775   3.939   6.915 -0.0809 -0.2021 -0.2400
   73SLPC    HS 6413   1.847   4.024   6.914  3.4273 -2.9375  1.0019
   73SLPC   O21 6414   1.641   3.970   6.884  0.1427  0.0023 -0.0486
   73SLPC   C21 6415   1.618   4.090   6.843  0.0187  0.1457  0.3646
   73SLPC   O22 6416   1.704   4.174   6.811 -0.2793 -0.0286 -0.0702
   73SLPC   C22 6417   1.468   4.121   6.846 -0.0336 -0.0919 -0.6589
   73SLPC   H2R 6418   1.403   4.031   6.847  0.0103 -0.1496 -1.7507
   73SLPC   H2S 6419   1.451   4.171   6.943  0.2696 -0.8799 -0.1950
   73SLPC    C3 6420   1.821   3.834   6.807  0.1108  0.3314 -0.1887
   73SLPC    HX 6421   1.733   3.766   6.799 -1.3633  1.6993  2.7140
   73SLPC    HY 6422   1.908   3.791   6.860 -0.2844  2.1714  2.1620
   73SLPC   O31 6423   1.869   3.884   6.678  0.0894  0.0238  0.0314
   73SLPC   C31 6424   1.782   3.884   6.575 -0.4335  0.6944 -0.8045
   73SLPC   O32 6425   1.668   3.854   6.577  0.0248 -0.1285 -0.4663
   73SLPC   C32 6426   1.854   3.900   6.438 -0.1466 -0.0959 -0.3533
   73SLPC   H2X 6427   1.781   3.863   6.363 -2.0721  1.9942  0.3800
   73SLPC   H2Y 6428   1.947   3.839   6.447  0.2808  0.7479  1.4534
   73SLPC   C23 6429   1.426   4.215   6.735  0.2349  0.2980  0.3875
   73SLPC   H3R 6430   1.497   4.299   6.720  1.2736 -0.7310 -0.7324
   73SLPC   H3S 6431   1.324   4.256   6.750 -0.3346  0.0415 -2.1702
   73SLPC   C24 6432   1.422   4.151   6.603  0.5297 -0.0636  1.4937
   73SLPC   H4R 6433   1.343   4.074   6.585  0.5371 -0.0565  1.4274
   73SLPC   H4S 6434   1.512   4.090   6.580 -0.3378 -0.7378 -0.3753
   73SLPC   C25 6435   1.411   4.262   6.496 -0.6983  0.8842  0.7314
   73SLPC   H5R 6436   1.498   4.331   6.493 -3.1962  4.2989  0.8241
   73SLPC   H5S 6437   1.321   4.320   6.527 -2.4862 -0.0114 -2.3797
   73SLPC   C26 6438   1.391   4.206   6.351  0.0745 -0.0180  0.3091
   73SLPC   H6R 6439   1.306   4.135   6.348 -0.0106  0.0349  1.1391
   73SLPC   H6S 6440   1.482   4.151   6.318 -0.7779 -1.0699 -0.3549
   73SLPC   C27 6441   1.366   4.314   6.242 -0.3496 -0.0946 -0.0114
   73SLPC   H7R 6442   1.260   4.350   6.242 -1.7124 -3.3490 -3.5869
   73SLPC   H7S 6443   1.382   4.264   6.144 -1.4068  2.5255 -1.6522
   73SLPC   C28 6444   1.465   4.432   6.227  0.4114  0.3972 -0.5615
   73SLPC   H8R 6445   1.566   4.394   6.201 -0.7128 -1.1279 -3.0404
   73SLPC   H8S 6446   1.471   4.491   6.321  0.3991  2.0032 -1.5422
   73SLPC   C29 6447   1.421   4.523   6.119 -0.8057  0.0647  0.6118
   73SLPC   H9R 6448   1.364   4.614   6.142 -0.6849  0.6009 -1.1002
   73SLPC  C210 6449   1.466   4.525   5.992 -0.3926  0.3111 -0.0158
   73SLPC  H10R 6450   1.429   4.598   5.918 -2.3480 -0.3683  0.2256
   73SLPC  C211 6451   1.564   4.426   5.929 -0.3072 -0.7512  0.5558
   73SLPC  H11R 6452   1.574   4.339   5.998  1.6445 -1.0561 -0.0388
   73SLPC  H11S 6453   1.665   4.472   5.933 -0.4233 -0.5163  0.9102
   73SLPC  C212 6454   1.516   4.386   5.791 -0.2394 -0.2974  0.0032
   73SLPC  H12R 6455   1.455   4.295   5.792 -0.7122  0.0196  0.8177
   73SLPC  C213 6456   1.555   4.425   5.667 -0.6895  0.0820 -0.0570
   73SLPC  H13R 6457   1.510   4.373   5.581 -1.4946 -1.7847  1.4031
   73SLPC  C214 6458   1.655   4.534   5.645 -0.3143 -0.7327  0.3621
   73SLPC  H14R 6459   1.757   4.491   5.656 -0.0243  0.3167  2.2125
   73SLPC  H14S 6460   1.643   4.621   5.714  1.5371 -0.2092  0.0783
   73SLPC  C215 6461   1.664   4.587   5.498  0.0152 -0.6547 -0.8938
   73SLPC  H15R 6462   1.719   4.683   5.507  1.1559 -1.2753 -0.9257
   73SLPC  H15S 6463   1.560   4.618   5.478 -0.3896  0.7798  2.6875
   73SLPC  C216 6464   1.739   4.513   5.392  0.7360  0.5128  0.5201
   73SLPC  H16R 6465   1.672   4.440   5.340  0.2171  2.7198 -2.1192
   73SLPC  H16S 6466   1.827   4.460   5.435 -0.2636 -1.1891  0.5733
   73SLPC  C217 6467   1.803   4.608   5.284 -0.2234 -0.6439 -0.9790
   73SLPC  H17R 6468   1.853   4.683   5.349  0.2451 -0.9435 -0.9919
   73SLPC  H17S 6469   1.718   4.664   5.240  0.8796  1.6147 -0.4060
   73SLPC  C218 6470   1.897   4.551   5.181  0.2018  0.1851  0.4971
   73SLPC  H18R 6471   1.916   4.626   5.101 -1.0527  0.3683  0.3552
   73SLPC  H18S 6472   1.843   4.463   5.140  0.8504 -1.0208  2.1631
   73SLPC  H18T 6473   1.997   4.516   5.213  0.5467 -0.8636 -1.5857
   73SLPC   C33 6474   1.880   4.051   6.424  0.0943  0.8076  0.4569
   73SLPC   H3X 6475   1.924   4.089   6.519  0.8962 -0.9312  0.8220
   73SLPC   H3Y 6476   1.785   4.108   6.421 -0.3974  0.0981  1.9140
   73SLPC   C34 6477   1.968   4.084   6.306  0.5915  0.1831  0.6633
   73SLPC   H4X 6478   2.063   4.027   6.303 -0.1179 -1.0260 -1.8926
   73SLPC   H4Y 6479   2.000   4.189   6.319  0.7594  0.2837 -0.4946
   73SLPC   C35 6480   1.876   4.085   6.182  0.5504  0.8890  0.4614
   73SLPC   H5X 6481   1.794   4.157   6.202  0.9515  1.4950 -0.0631
   73SLPC   H5Y 6482   1.833   3.983   6.174 -1.2734  1.5409  1.4626
   73SLPC   C36 6483   1.959   4.108   6.052  0.5000  0.0057  0.2475
   73SLPC   H6X 6484   2.034   4.026   6.060  1.8879  0.9207 -2.0774
   73SLPC   H6Y 6485   2.013   4.204   6.068 -0.1718  0.8301 -2.0831
   73SLPC   C37 6486   1.871   4.092   5.924 -0.6245 -0.6458  0.0233
   73SLPC   H7X 6487   1.775   4.146   5.941  0.4281  1.0064  1.0362
   73SLPC   H7Y 6488   1.851   3.983   5.921 -1.4184 -0.5644  1.3556
   73SLPC   C38 6489   1.937   4.143   5.795 -0.1108 -0.3303  0.8673
   73SLPC   H8X 6490   2.031   4.086   5.774  0.2226  0.1437  1.0590
   73SLPC   H8Y 6491   1.957   4.252   5.800  1.4055 -0.5605  0.2848
   73SLPC   C39 6492   1.835   4.129   5.673 -0.5468  0.7260  0.6160
   73SLPC   H9X 6493   1.755   4.199   5.705 -0.0401  1.0959  1.0821
   73SLPC   H9Y 6494   1.809   4.023   5.653  2.8293  0.4818 -3.9965
   73SLPC  C310 6495   1.901   4.167   5.538 -0.1450 -0.1500  0.3029
   73SLPC  H10X 6496   2.003   4.126   5.523  0.2045  0.9107 -0.3160
   73SLPC  H10Y 6497   1.925   4.276   5.545 -1.1432  0.1167 -0.2437
   73SLPC  C311 6498   1.813   4.142   5.418 -0.3096 -0.2615  0.0039
   73SLPC  H11X 6499   1.834   4.217   5.338 -1.0019 -1.0063 -0.8830
   73SLPC  H11Y 6500   1.707   4.157   5.447  0.1144 -0.2912  1.6906
   73SLPC  C312 6501   1.827   4.001   5.355 -0.0454  0.3597 -0.2526
   73SLPC  H12X 6502   1.801   3.926   5.433  2.7504 -0.7493 -0.2601
   73SLPC  H12Y 6503   1.934   3.994   5.324 -0.1611  1.3449 -0.9025
   73SLPC  C313 6504   1.754   3.983   5.226 -0.6046 -0.3984 -0.2667
   73SLPC  H13X 6505   1.772   4.073   5.163  2.6870  2.1901  3.7993
   73SLPC  H13Y 6506   1.644   3.991   5.236 -0.7052 -1.3804 -0.4730
   73SLPC  C314 6507   1.787   3.859   5.142  0.1113  0.2245 -0.3605
   73SLPC  H14X 6508   1.724   3.778   5.186 -0.0841  1.6368  2.1690
   73SLPC  H14Y 6509   1.896   3.840   5.141 -0.1665 -1.6189 -0.9456
   73SLPC  C315 6510   1.739   3.871   4.996  0.2537  0.4065 -0.1618
   73SLPC  H15X 6511   1.794   3.953   4.945  1.2964  0.2219  0.6308
   73SLPC  H15Y 6512   1.632   3.896   5.005 -0.4209 -1.7730 -1.4165
   73SLPC  C316 6513   1.753   3.742   4.917  0.0434 -0.5096  0.0313
   73SLPC  H16X 6514   1.703   3.660   4.973 -0.8877  0.3902  0.5572
   73SLPC  H16Y 6515   1.860   3.714   4.907  0.0864 -0.1090 -0.6437
   73SLPC  C317 6516   1.706   3.762   4.772  0.6624 -0.2806 -0.1865
   73SLPC  H17X 6517   1.716   3.670   4.709  0.2585 -1.0615  0.8596
   73SLPC  H17Y 6518   1.771   3.844   4.734  1.0492 -0.4984  0.0018
   73SLPC  C318 6519   1.558   3.809   4.765  0.3828 -0.1232  0.2050
   73SLPC  H18X 6520   1.499   3.758   4.844  1.4236 -0.5257  0.7490
   73SLPC  H18Y 6521   1.517   3.777   4.667  1.0624  0.1313 -0.1705
   73SLPC  H18Z 6522   1.547   3.918   4.780 -0.5435 -0.4036  1.8763
   74SLPC     N 6523   3.816   3.910   7.559  0.9444  0.1614 -0.0077
   74SLPC   C13 6524   3.683   3.983   7.563 -0.2601  0.0142 -0.4745
   74SLPC  H13A 6525   3.705   4.085   7.588  0.7586 -0.6654  1.5840
   74SLPC  H13B 6526   3.632   3.958   7.471 -0.8094 -0.0068 -0.1637
   74SLPC  H13C 6527   3.629   3.949   7.650  1.4636  0.5995  0.8735
   74SLPC   C14 6528   3.878   3.927   7.693 -0.2883  0.0680  0.0289
   74SLPC  H14A 6529   3.803   3.896   7.765  1.0199  0.2255  1.5301
   74SLPC  H14B 6530   3.969   3.871   7.706 -0.1002  0.2253 -0.6073
   74SLPC  H14C 6531   3.896   4.032   7.705 -0.7072 -0.1350  3.5819
   74SLPC   C15 6532   3.899   3.961   7.453 -0.1962  0.5675  0.2890
   74SLPC  H15A 6533   3.862   3.928   7.358  0.0065 -0.7490  0.6505
   74SLPC  H15B 6534   3.913   4.068   7.462 -0.6553  0.5008  2.2746
   74SLPC  H15C 6535   4.000   3.924   7.467 -0.2143  0.1502 -0.6630
   74SLPC   C12 6536   3.793   3.759   7.525 -0.3291 -0.8443  0.3617
   74SLPC  H12A 6537   3.894   3.722   7.524 -0.3720 -1.0565 -2.2326
   74SLPC  H12B 6538   3.760   3.753   7.423  1.0165  0.5250 -0.1801
   74SLPC   C11 6539   3.711   3.666   7.616 -1.1313  0.3418 -0.4844
   74SLPC  H11A 6540   3.734   3.683   7.723  0.4517 -2.1791 -0.3663
   74SLPC  H11B 6541   3.751   3.565   7.592  1.2582  1.6387 -2.3915
   74SLPC     P 6542   3.486   3.607   7.505  0.2906 -0.0160  0.0787
   74SLPC   O13 6543   3.516   3.463   7.506 -0.2983  0.0270  0.6007
   74SLPC   O14 6544   3.347   3.648   7.531  0.0137  0.4066  0.1135
   74SLPC   O12 6545   3.571   3.691   7.605 -0.3811  0.1386 -0.1346
   74SLPC   O11 6546   3.535   3.664   7.362  0.1337 -0.0341 -0.0569
   74SLPC    C1 6547   3.469   3.769   7.304 -0.2973 -0.6099  0.5466
   74SLPC    HA 6548   3.428   3.842   7.377  0.1489  0.7189 -0.4968
   74SLPC    HB 6549   3.538   3.823   7.236 -1.7069  1.5304  0.7283
   74SLPC    C2 6550   3.342   3.705   7.225  0.1843  1.0046  0.3639
   74SLPC    HS 6551   3.279   3.643   7.292  0.5820 -0.5830 -0.6859
   74SLPC   O21 6552   3.404   3.623   7.125 -0.8480  0.0106 -0.3585
   74SLPC   C21 6553   3.325   3.529   7.077 -0.8358  0.8614 -0.4810
   74SLPC   O22 6554   3.211   3.501   7.114  0.4811  0.7555 -0.1380
   74SLPC   C22 6555   3.405   3.449   6.968  0.1830  0.0862 -0.5177
   74SLPC   H2R 6556   3.433   3.522   6.889  0.1199 -0.7964 -1.3717
   74SLPC   H2S 6557   3.495   3.418   7.025  0.3180  0.7957 -0.3266
   74SLPC    C3 6558   3.247   3.821   7.171  0.3844  0.5196  0.1449
   74SLPC    HX 6559   3.194   3.873   7.253  0.5687 -1.4354  1.5539
   74SLPC    HY 6560   3.164   3.775   7.114  0.9696 -0.0686 -0.2515
   74SLPC   O31 6561   3.323   3.907   7.089  0.3585  0.0900 -0.1549
   74SLPC   C31 6562   3.340   3.868   6.963  0.2813 -0.1096  1.0062
   74SLPC   O32 6563   3.275   3.780   6.910  0.4374  0.3642  0.2284
   74SLPC   C32 6564   3.436   3.969   6.896 -0.2786  0.3065 -0.8226
   74SLPC   H2X 6565   3.520   3.973   6.970  1.2279 -1.0809 -2.3764
   74SLPC   H2Y 6566   3.388   4.069   6.898  1.3228  1.1092  1.2549
   74SLPC   C23 6567   3.308   3.338   6.900  0.4574 -0.0883  0.3752
   74SLPC   H3R 6568   3.220   3.392   6.859  0.3497  0.4096  1.2219
   74SLPC   H3S 6569   3.274   3.269   6.980  0.6774 -0.2718  0.3079
   74SLPC   C24 6570   3.384   3.258   6.795  0.4188 -1.0623 -1.0181
   74SLPC   H4R 6571   3.475   3.217   6.842  0.8374 -0.1093 -0.9751
   74SLPC   H4S 6572   3.428   3.323   6.717  1.6109  0.0202  0.5092
   74SLPC   C25 6573   3.306   3.145   6.725  0.2614 -0.2521 -0.4366
   74SLPC   H5R 6574   3.269   3.079   6.807 -1.1531  1.7842  0.6502
   74SLPC   H5S 6575   3.361   3.084   6.650 -1.6047 -0.4133 -1.7124
   74SLPC   C26 6576   3.177   3.190   6.648  0.0731  0.1848 -0.1651
   74SLPC   H6R 6577   3.094   3.222   6.715 -0.8968 -1.2485 -0.6215
   74SLPC   H6S 6578   3.138   3.097   6.601 -1.1938 -0.0677  1.2973
   74SLPC   C27 6579   3.213   3.300   6.547  0.4024  0.5337  0.4006
   74SLPC   H7R 6580   3.295   3.259   6.484  0.5500 -1.2358  1.6635
   74SLPC   H7S 6581   3.255   3.388   6.599  0.2038  1.5315 -1.0679
   74SLPC   C28 6582   3.090   3.346   6.462 -0.3900 -0.0162  0.2541
   74SLPC   H8R 6583   3.115   3.446   6.422 -0.0472 -0.4145 -0.5420
   74SLPC   H8S 6584   3.004   3.357   6.531  0.8142  3.1248  1.4340
   74SLPC   C29 6585   3.049   3.252   6.350  0.1922  0.3416 -0.0429
   74SLPC   H9R 6586   2.991   3.167   6.389 -0.6290  1.3460  1.0123
   74SLPC  C210 6587   3.069   3.270   6.220  0.1935 -0.5088 -0.3707
   74SLPC  H10R 6588   3.034   3.192   6.150  3.4289 -1.6530 -0.8699
   74SLPC  C211 6589   3.148   3.381   6.149 -0.1763  0.0787  0.8672
   74SLPC  H11R 6590   3.217   3.346   6.069  1.6447  0.9024  1.9896
   74SLPC  H11S 6591   3.223   3.425   6.218 -0.0090  0.3711  0.5080
   74SLPC  C212 6592   3.043   3.485   6.115  0.7599 -0.4839 -0.1947
   74SLPC  H12R 6593   2.960   3.444   6.055 -0.0567  1.2201 -0.2929
   74SLPC  C213 6594   3.046   3.616   6.154 -0.4194 -0.0884 -0.8900
   74SLPC  H13R 6595   2.965   3.686   6.128 -0.4595 -0.2180 -1.1171
   74SLPC  C214 6596   3.156   3.682   6.238  0.6999  0.0062  0.7039
   74SLPC  H14R 6597   3.246   3.618   6.254 -0.9388 -2.0600  2.5675
   74SLPC  H14S 6598   3.111   3.687   6.340 -1.0521  0.3384 -0.0362
   74SLPC  C215 6599   3.206   3.818   6.185 -0.2369 -0.9308 -0.0415
   74SLPC  H15R 6600   3.290   3.849   6.251  0.6481 -2.4299 -0.4320
   74SLPC  H15S 6601   3.125   3.891   6.206 -1.5828 -2.7473  1.4373
   74SLPC  C216 6602   3.258   3.825   6.037  0.2686  0.8538  0.6605
   74SLPC  H16R 6603   3.267   3.932   6.009 -0.5164  0.3615 -1.6618
   74SLPC  H16S 6604   3.181   3.783   5.969 -0.9140  1.2884  1.6771
   74SLPC  C217 6605   3.386   3.740   6.021  0.3320  0.3528  0.1229
   74SLPC  H17R 6606   3.371   3.632   6.043  1.5331 -0.1444 -1.3367
   74SLPC  H17S 6607   3.464   3.777   6.091 -0.9259  0.7811  1.3484
   74SLPC  C218 6608   3.442   3.762   5.875 -0.5257 -0.7060 -0.2014
   74SLPC  H18R 6609   3.450   3.869   5.847  0.2237 -0.5543  0.5368
   74SLPC  H18S 6610   3.382   3.716   5.794  0.2255  1.3888 -2.0302
   74SLPC  H18T 6611   3.546   3.727   5.859 -0.0694  1.2434 -1.9454
   74SLPC   C33 6612   3.490   3.949   6.757  0.5949  0.1409  0.1486
   74SLPC   H3X 6613   3.573   4.022   6.743  0.7012  0.0039  0.0681
   74SLPC   H3Y 6614   3.403   3.961   6.688  0.7756 -1.4598 -0.3893
   74SLPC   C34 6615   3.538   3.803   6.738 -0.1432  0.1366 -0.7282
   74SLPC   H4X 6616   3.455   3.737   6.704  0.0988  0.1136 -1.2714
   74SLPC   H4Y 6617   3.585   3.772   6.834  0.2324 -0.3187 -1.0596
   74SLPC   C35 6618   3.653   3.787   6.637  0.2847  0.3007  0.0686
   74SLPC   H5X 6619   3.690   3.682   6.638 -2.9873 -0.9506  1.7103
   74SLPC   H5Y 6620   3.739   3.845   6.678 -1.9558  3.4796  0.5713
   74SLPC   C36 6621   3.631   3.826   6.493  0.8368 -0.2825  0.0384
   74SLPC   H6X 6622   3.606   3.935   6.493  1.1944 -0.1460 -2.3517
   74SLPC   H6Y 6623   3.546   3.766   6.457  1.0047 -1.6464  1.8047
   74SLPC   C37 6624   3.757   3.797   6.403  0.2016  0.1934 -0.0370
   74SLPC   H7X 6625   3.774   3.688   6.392  0.4795  0.1531  0.7682
   74SLPC   H7Y 6626   3.845   3.845   6.451  1.0684 -1.4723  0.1175
   74SLPC   C38 6627   3.730   3.850   6.254  0.4726  0.1098 -0.0438
   74SLPC   H8X 6628   3.713   3.960   6.256 -3.3283 -0.2957 -1.7595
   74SLPC   H8Y 6629   3.627   3.811   6.237 -1.0018  3.0028  1.4042
   74SLPC   C39 6630   3.844   3.814   6.156 -0.1438  0.1814 -0.0152
   74SLPC   H9X 6631   3.892   3.715   6.177  0.3636  0.2448 -0.8396
   74SLPC   H9Y 6632   3.921   3.888   6.186 -0.0203  0.8437 -1.8482
   74SLPC  C310 6633   3.803   3.811   6.010 -0.7420 -0.3512 -0.3118
   74SLPC  H10X 6634   3.736   3.898   5.994  0.8842  0.6755 -1.9653
   74SLPC  H10Y 6635   3.749   3.715   5.993 -0.5784 -0.3906 -0.6362
   74SLPC  C311 6636   3.923   3.811   5.916 -0.2991  0.1201  0.9635
   74SLPC  H11X 6637   3.995   3.731   5.941  0.1692  0.0431 -0.5337
   74SLPC  H11Y 6638   3.976   3.908   5.925 -1.1927  1.0414 -2.2826
   74SLPC  C312 6639   3.877   3.792   5.775 -0.3024 -0.0541  0.2471
   74SLPC  H12X 6640   3.790   3.856   5.749 -1.6378 -1.2422  1.5474
   74SLPC  H12Y 6641   3.834   3.690   5.770  0.1825 -0.6175  4.0555
   74SLPC  C313 6642   3.978   3.820   5.657  0.2919  0.2248 -0.7382
   74SLPC  H13X 6643   4.075   3.766   5.666  1.0261  1.5877  0.0066
   74SLPC  H13Y 6644   4.000   3.929   5.665 -0.7959  0.4426 -0.6056
   74SLPC  C314 6645   3.930   3.811   5.512  0.0019 -0.0826 -0.4519
   74SLPC  H14X 6646   3.840   3.875   5.501 -2.0270 -1.8766  3.6672
   74SLPC  H14Y 6647   3.897   3.707   5.491 -0.7484  0.1142 -0.2693
   74SLPC  C315 6648   4.037   3.852   5.408  0.0092 -0.4289  0.1419
   74SLPC  H15X 6649   4.109   3.771   5.382  0.4403  0.3208 -1.0756
   74SLPC  H15Y 6650   4.087   3.941   5.452  1.4962 -1.7969  1.3046
   74SLPC  C316 6651   3.967   3.908   5.280 -0.2521 -0.1414  0.4285
   74SLPC  H16X 6652   3.905   3.996   5.307 -0.8856 -0.3910 -0.1605
   74SLPC  H16Y 6653   3.888   3.841   5.240 -1.6366  0.9612  1.2042
   74SLPC  C317 6654   4.060   3.942   5.169 -0.2102 -0.2125  0.5035
   74SLPC  H17X 6655   4.011   3.926   5.071 -0.9252 -0.5025  0.9039
   74SLPC  H17Y 6656   4.154   3.885   5.189  0.0789  0.2343  0.4502
   74SLPC  C318 6657   4.103   4.088   5.168 -0.0068 -0.0036 -0.2963
   74SLPC  H18X 6658   4.146   4.112   5.268  0.5714 -0.2358 -0.4876
   74SLPC  H18Y 6659   4.021   4.158   5.142  2.5087  3.2913 -0.0777
   74SLPC  H18Z 6660   4.174   4.117   5.088  2.0591  0.6860  1.6673
   75SLPC     N 6661   2.924   1.918   7.640 -0.5825  0.8126 -0.3848
   75SLPC   C13 6662   2.928   2.063   7.671 -0.0887 -0.2730  0.7424
   75SLPC  H13A 6663   2.974   2.084   7.767  0.9152  2.2348 -0.2103
   75SLPC  H13B 6664   2.987   2.124   7.605  0.2580 -1.6062 -0.2302
   75SLPC  H13C 6665   2.829   2.103   7.657  0.5283  0.3354 -2.6768
   75SLPC   C14 6666   2.844   1.849   7.745 -0.2907  0.0684  1.1578
   75SLPC  H14A 6667   2.884   1.861   7.844  1.3726 -0.0614  0.5330
   75SLPC  H14B 6668   2.747   1.895   7.737 -1.3429 -2.3724 -3.3335
   75SLPC  H14C 6669   2.835   1.744   7.722  1.3729  0.1426  0.0154
   75SLPC   C15 6670   3.069   1.869   7.663  0.3280 -0.6330 -0.0097
   75SLPC  H15A 6671   3.070   1.761   7.666  3.5516 -0.6833  2.2460
   75SLPC  H15B 6672   3.139   1.906   7.590  4.3766  1.2028  4.2826
   75SLPC  H15C 6673   3.103   1.906   7.759 -0.9027 -0.7451  0.4884
   75SLPC   C12 6674   2.886   1.887   7.495  0.6246  0.2850 -0.5649
   75SLPC  H12A 6675   2.781   1.907   7.479 -0.4312 -3.3019  0.8002
   75SLPC  H12B 6676   2.891   1.781   7.472  0.2462  0.1860 -0.2043
   75SLPC   C11 6677   2.960   1.959   7.383 -0.2697  0.0521 -0.2834
   75SLPC  H11A 6678   2.955   2.067   7.406  2.7549 -0.0210  1.1724
   75SLPC  H11B 6679   2.904   1.946   7.288  0.4202  0.3746 -0.7375
   75SLPC     P 6680   3.121   1.772   7.311 -0.3080 -0.1430 -0.2342
   75SLPC   O13 6681   3.266   1.736   7.301 -0.3981 -0.6826 -0.2728
   75SLPC   O14 6682   3.043   1.675   7.384  0.1338  0.4653 -0.2660
   75SLPC   O12 6683   3.093   1.916   7.379 -0.7287  0.4666  0.3943
   75SLPC   O11 6684   3.048   1.800   7.176  0.6993 -0.2573  0.1753
   75SLPC    C1 6685   3.083   1.715   7.065  0.6278  0.4063  0.0951
   75SLPC    HA 6686   3.175   1.654   7.074 -0.2310 -0.9122  0.3762
   75SLPC    HB 6687   3.008   1.633   7.052  1.1786 -0.3305  1.3261
   75SLPC    C2 6688   3.089   1.782   6.927  0.3484 -0.3380 -0.3727
   75SLPC    HS 6689   3.141   1.712   6.859  1.9001 -0.0889  0.4968
   75SLPC   O21 6690   3.155   1.914   6.926  0.2869  0.4536 -0.0604
   75SLPC   C21 6691   3.280   1.912   6.951 -0.4942  0.2388 -0.1743
   75SLPC   O22 6692   3.348   1.813   6.975  0.6728 -0.1475  0.3221
   75SLPC   C22 6693   3.336   2.052   6.945 -0.3648  0.5115 -0.6262
   75SLPC   H2R 6694   3.251   2.124   6.941 -0.1162  0.8931  0.6289
   75SLPC   H2S 6695   3.388   2.056   7.043 -3.9190  0.2584  1.4459
   75SLPC    C3 6696   2.948   1.813   6.877  0.2630  1.0044  0.2205
   75SLPC    HX 6697   2.889   1.891   6.930 -2.0851  0.7054 -1.7783
   75SLPC    HY 6698   2.877   1.729   6.892 -0.6053  1.7422  0.4077
   75SLPC   O31 6699   2.957   1.838   6.735 -0.0309 -0.6592 -0.3660
   75SLPC   C31 6700   2.961   1.965   6.703 -0.5318 -0.2478 -0.4235
   75SLPC   O32 6701   2.948   2.058   6.785  0.2503 -0.5352  0.0223
   75SLPC   C32 6702   2.970   1.984   6.556  0.5392  0.0525 -0.1904
   75SLPC   H2X 6703   2.894   1.916   6.513 -0.4694  0.8883  0.2395
   75SLPC   H2Y 6704   3.063   1.952   6.504 -0.4055 -1.1030 -1.2137
   75SLPC   C23 6705   3.425   2.085   6.818  0.2254  0.4081 -0.3653
   75SLPC   H3R 6706   3.498   2.004   6.797 -0.8059 -0.5243 -0.4035
   75SLPC   H3S 6707   3.474   2.183   6.838  1.3262  0.3384 -2.4199
   75SLPC   C24 6708   3.333   2.111   6.690 -0.8052 -0.4345  0.6483
   75SLPC   H4R 6709   3.241   2.158   6.731 -1.1092 -1.6686  1.4377
   75SLPC   H4S 6710   3.320   2.014   6.637  0.5726  0.6860 -1.9253
   75SLPC   C25 6711   3.408   2.205   6.591 -0.2053  0.3152 -0.3869
   75SLPC   H5R 6712   3.490   2.145   6.545 -0.2723 -1.6049  1.7777
   75SLPC   H5S 6713   3.459   2.288   6.645 -1.3852 -1.6695  4.3103
   75SLPC   C26 6714   3.303   2.261   6.489 -0.0282 -0.0164 -0.0010
   75SLPC   H6R 6715   3.241   2.334   6.547  0.1439  0.0531  0.0976
   75SLPC   H6S 6716   3.242   2.185   6.437 -0.5638  1.8329 -2.1990
   75SLPC   C27 6717   3.378   2.357   6.385  0.2942 -0.4977 -0.3760
   75SLPC   H7R 6718   3.375   2.463   6.416 -0.0821 -0.1619 -1.5033
   75SLPC   H7S 6719   3.316   2.354   6.292  0.1987 -1.6056 -0.2871
   75SLPC   C28 6720   3.522   2.318   6.353  0.8149 -0.5436  0.0918
   75SLPC   H8R 6721   3.511   2.226   6.291 -2.0115  1.1002 -2.0881
   75SLPC   H8S 6722   3.575   2.305   6.450  1.7444 -0.4059 -0.3823
   75SLPC   C29 6723   3.584   2.427   6.281 -0.4597 -0.5120 -0.0418
   75SLPC   H9R 6724   3.618   2.521   6.328  0.6681 -0.5287 -0.7808
   75SLPC  C210 6725   3.639   2.414   6.154  0.4600  0.1232 -0.2047
   75SLPC  H10R 6726   3.695   2.500   6.115 -0.2690  0.1624 -1.1820
   75SLPC  C211 6727   3.639   2.290   6.070 -0.5880 -0.1669  0.8497
   75SLPC  H11R 6728   3.688   2.211   6.130  0.6994 -0.3337 -0.3642
   75SLPC  H11S 6729   3.718   2.311   5.995 -1.9570 -0.0413 -0.6133
   75SLPC  C212 6730   3.514   2.241   6.008 -0.2596 -0.3870  1.0399
   75SLPC  H12R 6731   3.425   2.291   6.050  0.6002  2.5578 -0.3564
   75SLPC  C213 6732   3.499   2.164   5.901  0.3376 -0.2807 -0.3714
   75SLPC  H13R 6733   3.399   2.126   5.874 -0.3130 -1.3388  3.0574
   75SLPC  C214 6734   3.618   2.103   5.834  0.0790 -0.4206  0.2354
   75SLPC  H14R 6735   3.656   2.015   5.891 -0.8291 -1.1657 -0.2832
   75SLPC  H14S 6736   3.701   2.174   5.814 -0.1892 -0.5070 -1.2212
   75SLPC  C215 6737   3.596   2.040   5.692  0.5951  0.0572 -0.0131
   75SLPC  H15R 6738   3.539   2.123   5.644 -1.1855 -1.3384 -0.4314
   75SLPC  H15S 6739   3.536   1.946   5.693 -1.7452  1.4410 -0.6600
   75SLPC  C216 6740   3.731   2.009   5.622 -0.2965 -0.0538 -0.1367
   75SLPC  H16R 6741   3.788   1.946   5.692  1.3875  0.8008 -0.6676
   75SLPC  H16S 6742   3.788   2.104   5.615  3.0199 -1.9014 -0.0423
   75SLPC  C217 6743   3.703   1.950   5.484 -0.6026  0.5694  0.1987
   75SLPC  H17R 6744   3.659   2.024   5.412  2.0350  0.4449 -1.6813
   75SLPC  H17S 6745   3.632   1.867   5.504 -2.0600  1.4890 -0.9292
   75SLPC  C218 6746   3.828   1.902   5.404 -0.0591  0.7915  0.3749
   75SLPC  H18R 6747   3.874   1.807   5.438  1.5713  1.8926  1.3965
   75SLPC  H18S 6748   3.905   1.982   5.396  0.7964 -0.1598 -1.2829
   75SLPC  H18T 6749   3.794   1.876   5.302 -0.4805 -0.8872  0.9134
   75SLPC   C33 6750   2.920   2.128   6.520  0.3356  0.4170 -0.5992
   75SLPC   H3X 6751   3.006   2.196   6.543 -1.5617  2.1949  1.7788
   75SLPC   H3Y 6752   2.837   2.160   6.587  2.6841 -0.7421  3.2141
   75SLPC   C34 6753   2.880   2.149   6.372  0.8063  0.3656  0.3576
   75SLPC   H4X 6754   2.855   2.255   6.351 -0.2562 -0.2677 -1.9683
   75SLPC   H4Y 6755   2.789   2.087   6.357  1.8156 -1.8838  2.8177
   75SLPC   C35 6756   2.997   2.103   6.284  0.2640  0.2707  0.7628
   75SLPC   H5X 6757   3.001   1.992   6.286  1.2097  0.2263 -1.3068
   75SLPC   H5Y 6758   3.096   2.131   6.327 -0.5493  2.9979  1.0681
   75SLPC   C36 6759   2.991   2.141   6.133  0.4134 -0.3436  0.6390
   75SLPC   H6X 6760   3.087   2.134   6.078 -1.0685 -2.1913 -1.9439
   75SLPC   H6Y 6761   2.962   2.248   6.132 -0.1790 -0.4691  1.9054
   75SLPC   C37 6762   2.886   2.059   6.057  0.4949 -0.0152 -0.0796
   75SLPC   H7X 6763   2.789   2.072   6.109 -0.3148 -2.3766 -0.8528
   75SLPC   H7Y 6764   2.893   1.950   6.077 -0.6090  0.1983  1.6767
   75SLPC   C38 6765   2.873   2.082   5.907  0.5139 -0.4250  0.0225
   75SLPC   H8X 6766   2.837   2.184   5.886  2.2842 -0.0289 -1.3461
   75SLPC   H8Y 6767   2.789   2.015   5.878  0.3924 -0.2357 -0.0586
   75SLPC   C39 6768   2.990   2.032   5.826  0.3663 -0.1224 -0.1394
   75SLPC   H9X 6769   3.015   1.926   5.847  1.9391  0.1145 -0.6195
   75SLPC   H9Y 6770   3.080   2.094   5.849 -0.0337  1.6555 -2.8290
   75SLPC  C310 6771   2.953   2.035   5.680 -0.3066 -0.2432 -0.7501
   75SLPC  H10X 6772   2.941   2.142   5.653  0.7647  0.0452 -0.1613
   75SLPC  H10Y 6773   2.870   1.966   5.654 -0.2260 -0.3299 -0.7763
   75SLPC  C311 6774   3.067   1.991   5.584  0.1543  0.2379  0.1023
   75SLPC  H11X 6775   3.099   1.889   5.613  1.4363  0.6513  0.1871
   75SLPC  H11Y 6776   3.142   2.070   5.603 -1.0677  1.9886 -1.8493
   75SLPC  C312 6777   3.027   2.010   5.438  0.2468 -0.0186 -0.8279
   75SLPC  H12X 6778   3.026   2.120   5.423 -0.6236 -0.0103 -0.7780
   75SLPC  H12Y 6779   2.924   1.970   5.420 -0.2917  0.4344  1.0621
   75SLPC  C313 6780   3.131   1.933   5.360  0.1110 -0.2591 -0.1862
   75SLPC  H13X 6781   3.093   1.828   5.357  1.5772 -0.9227  2.1093
   75SLPC  H13Y 6782   3.222   1.928   5.424 -0.1585  2.2690  0.4919
   75SLPC  C314 6783   3.155   1.985   5.219 -0.7878  0.4099 -0.3555
   75SLPC  H14X 6784   3.151   2.096   5.215 -0.8792  0.5556  2.3750
   75SLPC  H14Y 6785   3.078   1.951   5.146  0.2430 -1.3140 -0.7022
   75SLPC  C315 6786   3.288   1.925   5.149  1.3463 -0.3973 -0.4239
   75SLPC  H15X 6787   3.295   1.823   5.193  2.8238  0.1977  0.8125
   75SLPC  H15Y 6788   3.368   1.983   5.200  1.3140 -1.4283  0.8640
   75SLPC  C316 6789   3.285   1.921   4.994  0.0017 -0.5227 -0.3303
   75SLPC  H16X 6790   3.385   1.920   4.945  0.0307 -0.5396 -0.2708
   75SLPC  H16Y 6791   3.238   2.018   4.967  0.8688  0.5761  1.8196
   75SLPC  C317 6792   3.212   1.798   4.941 -0.5532 -0.0058  0.2953
   75SLPC  H17X 6793   3.107   1.785   4.976 -1.1315  1.4036 -0.8188
   75SLPC  H17Y 6794   3.260   1.705   4.979 -2.7460 -1.0415  0.6722
   75SLPC  C318 6795   3.227   1.784   4.790 -0.0575  0.1299 -0.0673
   75SLPC  H18X 6796   3.326   1.738   4.771 -0.3660 -0.5338 -0.1202
   75SLPC  H18Y 6797   3.233   1.886   4.746  2.0645 -0.2554 -0.7924
   75SLPC  H18Z 6798   3.147   1.727   4.737  0.6928  0.2817 -1.4095
   76SLPC     N 6799   2.760   1.051   7.204  0.3442 -0.0428  0.1152
   76SLPC   C13 6800   2.795   1.180   7.277  0.2171  0.4102 -0.0388
   76SLPC  H13A 6801   2.901   1.201   7.267  0.2252  0.2817 -0.2372
   76SLPC  H13B 6802   2.741   1.261   7.229  0.1180 -0.8309 -2.1496
   76SLPC  H13C 6803   2.775   1.172   7.382  0.4360  2.1138  0.1602
   76SLPC   C14 6804   2.620   1.018   7.220  0.1420 -0.5671  0.0615
   76SLPC  H14A 6805   2.559   1.097   7.179  0.1175  0.9202  2.7091
   76SLPC  H14B 6806   2.601   0.929   7.161  2.0312 -1.0279  0.0808
   76SLPC  H14C 6807   2.584   1.001   7.321  1.3073 -0.5926  0.4948
   76SLPC   C15 6808   2.831   0.936   7.266  0.3705 -0.1397  0.1898
   76SLPC  H15A 6809   2.937   0.937   7.244  0.0183 -2.5314 -2.2937
   76SLPC  H15B 6810   2.803   0.916   7.368  1.0358 -1.6339  0.1104
   76SLPC  H15C 6811   2.800   0.849   7.209 -4.6101  1.3993  0.0952
   76SLPC   C12 6812   2.784   1.064   7.055  0.0914 -0.1872 -0.0946
   76SLPC  H12A 6813   2.772   0.966   7.012  1.3161 -1.0009  1.3288
   76SLPC  H12B 6814   2.886   1.095   7.033 -0.5337  2.7386  0.6657
   76SLPC   C11 6815   2.696   1.167   6.976  1.0745 -0.0098 -0.3883
   76SLPC  H11A 6816   2.591   1.136   6.958  0.4362  1.7201  0.1720
   76SLPC  H11B 6817   2.731   1.154   6.871 -0.2705 -4.7703 -0.4955
   76SLPC     P 6818   2.824   1.398   6.979  0.2843 -0.0690 -0.0866
   76SLPC   O13 6819   2.855   1.482   7.095 -0.2413  0.0370 -0.2932
   76SLPC   O14 6820   2.933   1.313   6.924  0.3953 -0.1401  0.0098
   76SLPC   O12 6821   2.700   1.303   7.030  0.5681  0.1471 -0.2816
   76SLPC   O11 6822   2.766   1.487   6.866  0.2719 -0.0927  0.0730
   76SLPC    C1 6823   2.631   1.510   6.831  0.0272 -0.2879  0.0012
   76SLPC    HA 6824   2.565   1.421   6.844 -1.8416  1.1784  0.9466
   76SLPC    HB 6825   2.601   1.605   6.880  1.7375  2.0010 -3.0626
   76SLPC    C2 6826   2.619   1.547   6.679 -0.5167  0.5730 -0.6402
   76SLPC    HS 6827   2.510   1.558   6.658 -0.4119  1.6364 -0.7088
   76SLPC   O21 6828   2.677   1.445   6.598  0.4820  0.1521  0.4726
   76SLPC   C21 6829   2.637   1.322   6.601  0.1621 -0.3880 -0.4664
   76SLPC   O22 6830   2.547   1.268   6.660 -0.0045 -0.2788 -0.2478
   76SLPC   C22 6831   2.731   1.237   6.511 -0.2122  0.1345  0.2930
   76SLPC   H2R 6832   2.832   1.284   6.514 -0.2919  0.2747  0.8671
   76SLPC   H2S 6833   2.731   1.138   6.561  1.8091  0.7454  1.6340
   76SLPC    C3 6834   2.691   1.679   6.653 -0.0497 -0.6847  0.5566
   76SLPC    HX 6835   2.799   1.653   6.665  0.0915 -0.3623  0.0177
   76SLPC    HY 6836   2.683   1.755   6.734 -1.9280  0.3499 -0.5449
   76SLPC   O31 6837   2.679   1.731   6.519  0.2181 -0.1139  0.3352
   76SLPC   C31 6838   2.552   1.763   6.486 -1.0055  0.2077  0.2036
   76SLPC   O32 6839   2.460   1.779   6.561  0.5154  0.2689 -0.6079
   76SLPC   C32 6840   2.545   1.809   6.339 -0.0914 -0.0022  0.0454
   76SLPC   H2X 6841   2.624   1.882   6.311  0.0948 -0.1933  0.0697
   76SLPC   H2Y 6842   2.447   1.861   6.333  0.6038  1.3154 -0.3420
   76SLPC   C23 6843   2.680   1.235   6.366 -0.3754 -0.4154 -0.1621
   76SLPC   H3R 6844   2.656   1.336   6.327 -0.3724  0.3497  1.7150
   76SLPC   H3S 6845   2.592   1.169   6.355  0.0064 -0.9328 -0.1752
   76SLPC   C24 6846   2.787   1.183   6.271 -0.6466  0.2740  0.4848
   76SLPC   H4R 6847   2.811   1.075   6.283 -1.3251 -0.0774 -1.0470
   76SLPC   H4S 6848   2.883   1.237   6.288 -0.2356 -0.5042  0.6756
   76SLPC   C25 6849   2.745   1.201   6.127  0.5299  0.2957 -0.3222
   76SLPC   H5R 6850   2.721   1.306   6.099  2.1542  1.3176  1.7364
   76SLPC   H5S 6851   2.655   1.136   6.124 -1.4605  2.9100 -1.3219
   76SLPC   C26 6852   2.846   1.156   6.026 -0.0397 -0.6457 -0.0935
   76SLPC   H6R 6853   2.877   1.052   6.049 -2.3708 -1.8814 -1.9809
   76SLPC   H6S 6854   2.933   1.222   6.047  0.2193 -1.1008  0.2648
   76SLPC   C27 6855   2.790   1.165   5.881  0.2001  0.6375  0.4008
   76SLPC   H7R 6856   2.702   1.233   5.872 -0.8269 -0.8989 -2.0242
   76SLPC   H7S 6857   2.753   1.061   5.871 -0.8628  1.0511 -0.1759
   76SLPC   C28 6858   2.893   1.209   5.782 -0.6162  0.0078 -0.2624
   76SLPC   H8R 6859   2.941   1.304   5.811 -1.2162 -0.0863  1.1350
   76SLPC   H8S 6860   2.850   1.231   5.682  0.4538  0.1457 -0.7071
   76SLPC   C29 6861   3.000   1.108   5.767 -0.0520  0.3237 -0.3600
   76SLPC   H9R 6862   2.992   1.025   5.839 -0.3916 -0.6488 -1.4838
   76SLPC  C210 6863   3.099   1.123   5.678 -0.3171  0.6929  0.1151
   76SLPC  H10R 6864   3.170   1.039   5.672 -1.3006 -0.1139 -0.5152
   76SLPC  C211 6865   3.128   1.243   5.584  0.2460  0.6693 -0.0068
   76SLPC  H11R 6866   3.031   1.267   5.534 -0.0051 -0.5909 -0.1517
   76SLPC  H11S 6867   3.205   1.200   5.518 -0.7972 -1.2240 -0.0488
   76SLPC  C212 6868   3.168   1.371   5.646 -0.3033  0.2989 -0.5030
   76SLPC  H12R 6869   3.161   1.376   5.756 -1.5672 -0.1937 -0.5495
   76SLPC  C213 6870   3.208   1.481   5.571  0.4732  0.7535 -0.4127
   76SLPC  H13R 6871   3.240   1.575   5.617  1.1318  0.9757 -1.2973
   76SLPC  C214 6872   3.215   1.496   5.423 -1.1248 -0.4116 -0.2458
   76SLPC  H14R 6873   3.148   1.574   5.382  1.5864  1.5017 -1.3145
   76SLPC  H14S 6874   3.194   1.402   5.367  0.3117 -1.0541  0.2434
   76SLPC  C215 6875   3.351   1.554   5.384 -0.2439  0.4795 -0.3933
   76SLPC  H15R 6876   3.430   1.495   5.435 -2.5158 -0.7010  2.0356
   76SLPC  H15S 6877   3.347   1.654   5.433  0.5099  0.4991 -0.3611
   76SLPC  C216 6878   3.389   1.568   5.237  0.1297  0.0857  0.5079
   76SLPC  H16R 6879   3.298   1.607   5.187 -0.4305  1.3745  2.4016
   76SLPC  H16S 6880   3.419   1.470   5.194  0.8234  0.1522  0.8348
   76SLPC  C217 6881   3.511   1.661   5.223  0.1630 -0.2554 -0.6075
   76SLPC  H17R 6882   3.584   1.631   5.301  0.7215  0.9357 -0.6408
   76SLPC  H17S 6883   3.492   1.766   5.253 -0.5310 -0.0663 -1.6642
   76SLPC  C218 6884   3.578   1.657   5.085 -0.7163 -0.5081 -0.0974
   76SLPC  H18R 6885   3.655   1.578   5.095  1.0064  1.1332  0.1984
   76SLPC  H18S 6886   3.628   1.753   5.059 -1.0235 -0.4126 -0.3350
   76SLPC  H18T 6887   3.519   1.634   4.994  0.7668 -2.9860 -0.5304
   76SLPC   C33 6888   2.555   1.693   6.238  0.6463  0.3036  0.3620
   76SLPC   H3X 6889   2.470   1.623   6.249  1.6028 -0.6041  2.7030
   76SLPC   H3Y 6890   2.642   1.630   6.266  0.8645  0.6605  0.5108
   76SLPC   C34 6891   2.555   1.743   6.089  0.0389  0.2197 -0.1033
   76SLPC   H4X 6892   2.636   1.815   6.065  0.3803 -0.0450  0.2448
   76SLPC   H4Y 6893   2.459   1.795   6.070  1.2737  2.9711  0.6498
   76SLPC   C35 6894   2.583   1.621   5.994  0.0904  0.0359  0.4713
   76SLPC   H5X 6895   2.488   1.569   5.971 -0.5394  2.1702 -2.5180
   76SLPC   H5Y 6896   2.658   1.545   6.024 -0.2888  0.0401  1.4394
   76SLPC   C36 6897   2.624   1.674   5.863 -0.2863  0.4733  0.7551
   76SLPC   H6X 6898   2.700   1.751   5.893 -1.3861  1.1789  1.8183
   76SLPC   H6Y 6899   2.535   1.727   5.822 -0.1710 -0.4361 -0.7373
   76SLPC   C37 6900   2.669   1.577   5.756  0.0451  0.0007  0.0693
   76SLPC   H7X 6901   2.607   1.485   5.764 -0.9521  0.5102 -1.3232
   76SLPC   H7Y 6902   2.776   1.553   5.776  0.3392  1.8367  0.8596
   76SLPC   C38 6903   2.659   1.623   5.610 -0.2794  0.6565  0.1320
   76SLPC   H8X 6904   2.720   1.716   5.599 -0.9182  0.9386 -1.1904
   76SLPC   H8Y 6905   2.556   1.649   5.576  0.4927  1.1371 -1.9839
   76SLPC   C39 6906   2.697   1.512   5.512  0.0988 -0.8780  0.6109
   76SLPC   H9X 6907   2.626   1.512   5.427  0.2242  0.4153  0.4825
   76SLPC   H9Y 6908   2.698   1.416   5.569  1.0501 -1.1030  0.2399
   76SLPC  C310 6909   2.834   1.531   5.447 -0.1613  0.0317  0.7941
   76SLPC  H10X 6910   2.870   1.441   5.393  3.5770  2.7219 -1.7546
   76SLPC  H10Y 6911   2.913   1.548   5.523  0.1148 -0.4177  0.6142
   76SLPC  C311 6912   2.845   1.646   5.349  0.2815  0.1302  0.1674
   76SLPC  H11X 6913   2.951   1.673   5.332 -0.5687  2.4810 -2.0869
   76SLPC  H11Y 6914   2.792   1.733   5.395  1.4818  0.9453  0.0777
   76SLPC  C312 6915   2.783   1.623   5.206  0.6257 -0.4997 -0.2063
   76SLPC  H12X 6916   2.674   1.641   5.217  0.6147  0.7541 -1.9851
   76SLPC  H12Y 6917   2.809   1.521   5.169  0.9609  0.2084 -2.0014
   76SLPC  C313 6918   2.849   1.709   5.102  0.7924  0.5426 -0.4542
   76SLPC  H13X 6919   2.956   1.687   5.084  1.1169  1.9832 -0.4822
   76SLPC  H13Y 6920   2.836   1.816   5.129  0.6189  0.4203 -0.0566
   76SLPC  C314 6921   2.778   1.711   4.961 -0.0384 -0.2642 -0.1264
   76SLPC  H14X 6922   2.802   1.802   4.902 -1.0046  0.2453  0.2470
   76SLPC  H14Y 6923   2.673   1.727   4.994  0.0688  0.5631 -0.1750
   76SLPC  C315 6924   2.791   1.576   4.894 -0.0047 -1.0032  0.1744
   76SLPC  H15X 6925   2.761   1.491   4.959 -2.1446 -1.6912 -1.6096
   76SLPC  H15Y 6926   2.899   1.560   4.871  0.1462 -0.7863  0.7280
   76SLPC  C316 6927   2.721   1.576   4.759 -0.4530 -0.1072 -0.3035
   76SLPC  H16X 6928   2.773   1.649   4.694  0.1048 -0.6403 -0.4702
   76SLPC  H16Y 6929   2.617   1.613   4.752 -0.5507 -0.4160 -0.4972
   76SLPC  C317 6930   2.727   1.442   4.700  0.2193  0.3960  0.3360
   76SLPC  H17X 6931   2.687   1.364   4.768 -2.9446  0.8229 -0.8491
   76SLPC  H17Y 6932   2.830   1.412   4.674  1.0957  0.3061  3.4954
   76SLPC  C318 6933   2.636   1.432   4.575  0.2589 -0.3139  0.4970
   76SLPC  H18X 6934   2.684   1.479   4.487 -0.2683  0.4117  0.5849
   76SLPC  H18Y 6935   2.539   1.484   4.593 -0.1549 -1.1872  0.8473
   76SLPC  H18Z 6936   2.608   1.328   4.547 -0.1535  0.5240 -2.5514
   77SLPC     N 6937   3.143   3.340   7.751 -0.1540 -0.2437 -0.5913
   77SLPC   C13 6938   3.248   3.244   7.799  0.1308  0.1612  0.7155
   77SLPC  H13A 6939   3.234   3.154   7.742  0.0850  0.2875  0.5254
   77SLPC  H13B 6940   3.348   3.277   7.773 -0.3807  0.0158 -1.6731
   77SLPC  H13C 6941   3.238   3.211   7.901  3.0246 -0.2065  0.9602
   77SLPC   C14 6942   3.140   3.466   7.839  0.0724 -0.3053 -0.0688
   77SLPC  H14A 6943   3.063   3.534   7.805  0.3941  0.4567  0.7011
   77SLPC  H14B 6944   3.115   3.454   7.943  0.6970  1.0023  0.2456
   77SLPC  H14C 6945   3.235   3.516   7.833 -0.1270  0.4633  2.2046
   77SLPC   C15 6946   3.006   3.278   7.761 -0.8582 -0.1513  0.3802
   77SLPC  H15A 6947   2.991   3.208   7.679 -0.3917  0.4591 -0.2449
   77SLPC  H15B 6948   2.991   3.228   7.855  1.2529  2.0261  1.9968
   77SLPC  H15C 6949   2.934   3.357   7.749 -0.6610 -0.2333 -1.8453
   77SLPC   C12 6950   3.173   3.384   7.605 -0.2368  0.3142 -0.1951
   77SLPC  H12A 6951   3.268   3.436   7.606 -0.5246  0.8447 -0.1575
   77SLPC  H12B 6952   3.096   3.449   7.568 -2.1619 -1.6831  0.1208
   77SLPC   C11 6953   3.189   3.269   7.503 -0.0319  0.7196 -0.2588
   77SLPC  H11A 6954   3.277   3.209   7.538  0.5642  2.0286  0.5602
   77SLPC  H11B 6955   3.206   3.301   7.398 -3.0537 -1.0138 -1.4149
   77SLPC     P 6956   3.094   3.033   7.437 -0.4358 -0.0856  0.3450
   77SLPC   O13 6957   3.172   2.934   7.513  0.3065  0.5433  0.1692
   77SLPC   O14 6958   2.961   2.982   7.393  0.7878  0.2051 -0.4294
   77SLPC   O12 6959   3.082   3.178   7.500  0.4563  0.0515  0.3892
   77SLPC   O11 6960   3.174   3.058   7.302  0.2546 -0.0743 -0.1899
   77SLPC    C1 6961   3.144   3.133   7.182  1.0998  0.0330 -0.3701
   77SLPC    HA 6962   3.077   3.220   7.202  0.0851  0.0232 -3.3041
   77SLPC    HB 6963   3.237   3.183   7.149  1.5279 -0.1827  0.4762
   77SLPC    C2 6964   3.072   3.042   7.076 -0.3551 -0.1645 -0.2483
   77SLPC    HS 6965   3.000   2.977   7.130  1.3114 -1.6461  0.2860
   77SLPC   O21 6966   3.171   2.964   7.001 -0.0179  0.1181 -0.0098
   77SLPC   C21 6967   3.127   2.848   6.955  0.6270 -0.1476  0.9947
   77SLPC   O22 6968   3.020   2.795   6.980 -0.1424 -0.1088  0.1141
   77SLPC   C22 6969   3.229   2.787   6.866  0.0514 -0.3309 -0.2391
   77SLPC   H2R 6970   3.291   2.870   6.826 -1.5249  1.8364  1.5108
   77SLPC   H2S 6971   3.289   2.718   6.929 -1.2439  0.8415  2.4467
   77SLPC    C3 6972   2.991   3.132   6.981  0.0805  0.2558  0.0260
   77SLPC    HX 6973   3.053   3.210   6.932  0.1808 -0.4947 -1.0874
   77SLPC    HY 6974   2.914   3.184   7.043 -0.6184  0.3873 -0.9320
   77SLPC   O31 6975   2.927   3.056   6.882  0.2374 -0.0529  0.6501
   77SLPC   C31 6976   2.847   3.129   6.807 -0.0200  0.4901  0.2261
   77SLPC   O32 6977   2.825   3.247   6.825  0.0318 -0.4539  0.2368
   77SLPC   C32 6978   2.771   3.046   6.707  0.3786  0.2093 -0.4930
   77SLPC   H2X 6979   2.772   3.104   6.612 -1.0023 -1.1924 -1.4018
   77SLPC   H2Y 6980   2.676   3.023   6.760  0.6400  0.3097  0.0240
   77SLPC   C23 6981   3.166   2.704   6.743 -0.3385  0.0246 -0.4261
   77SLPC   H3R 6982   3.076   2.754   6.700  0.2185  0.1971 -1.4138
   77SLPC   H3S 6983   3.128   2.607   6.783  2.3185 -0.3062  1.5845
   77SLPC   C24 6984   3.275   2.669   6.642  1.0512 -0.1235 -0.6530
   77SLPC   H4R 6985   3.226   2.608   6.564 -0.4803 -0.9205  0.8483
   77SLPC   H4S 6986   3.353   2.608   6.692  1.0808 -0.5937 -1.2709
   77SLPC   C25 6987   3.341   2.787   6.578 -0.2345 -0.8148  0.7538
   77SLPC   H5R 6988   3.433   2.816   6.633 -1.4725  1.7751  1.6439
   77SLPC   H5S 6989   3.271   2.873   6.578 -1.2578 -1.6252  0.1945
   77SLPC   C26 6990   3.391   2.768   6.434  0.3669  0.4022  0.1972
   77SLPC   H6R 6991   3.318   2.710   6.373 -0.9515  1.3788  0.8012
   77SLPC   H6S 6992   3.481   2.705   6.419 -1.4109 -1.4814 -4.1269
   77SLPC   C27 6993   3.423   2.893   6.347  1.3621 -0.2348 -0.1794
   77SLPC   H7R 6994   3.477   2.862   6.255 -1.3036  1.0062 -2.3369
   77SLPC   H7S 6995   3.482   2.963   6.409  1.3622 -0.8965  0.5783
   77SLPC   C28 6996   3.302   2.969   6.289  0.6362 -0.3100 -0.5031
   77SLPC   H8R 6997   3.341   3.063   6.244 -0.9502 -0.0383 -1.4113
   77SLPC   H8S 6998   3.233   3.001   6.370 -0.9646  0.1872 -1.9798
   77SLPC   C29 6999   3.211   2.898   6.197 -0.4840  0.5356  0.0988
   77SLPC   H9R 7000   3.153   2.815   6.240 -1.7877  1.5277  0.3142
   77SLPC  C210 7001   3.192   2.931   6.070 -0.4400 -0.0844  0.2359
   77SLPC  H10R 7002   3.111   2.882   6.014  0.6053 -0.0534 -1.3688
   77SLPC  C211 7003   3.276   3.026   5.984 -0.1876  0.4395  0.1374
   77SLPC  H11R 7004   3.362   3.064   6.042  0.5761 -1.5637  0.4110
   77SLPC  H11S 7005   3.206   3.109   5.960 -0.8454 -0.2814 -0.4761
   77SLPC  C212 7006   3.325   2.968   5.854 -0.0379 -0.3269 -0.3681
   77SLPC  H12R 7007   3.263   3.003   5.770 -3.3089  1.4748  2.5359
   77SLPC  C213 7008   3.440   2.902   5.841  0.1949  0.5657  0.2405
   77SLPC  H13R 7009   3.470   2.852   5.748 -0.1206  0.1122  0.3798
   77SLPC  C214 7010   3.528   2.859   5.949  0.3894  0.1456 -0.5140
   77SLPC  H14R 7011   3.518   2.920   6.042 -2.6954  0.4902 -0.9916
   77SLPC  H14S 7012   3.635   2.873   5.922  0.2400 -1.4629 -2.1518
   77SLPC  C215 7013   3.501   2.711   5.984 -0.1602 -0.0125  0.0455
   77SLPC  H15R 7014   3.393   2.692   5.999  0.0798 -1.6327 -0.1243
   77SLPC  H15S 7015   3.549   2.689   6.082 -0.0848  0.2844  0.0772
   77SLPC  C216 7016   3.539   2.612   5.872  0.1743  0.3172 -0.6744
   77SLPC  H16R 7017   3.472   2.616   5.783 -0.3782 -0.7552 -0.3167
   77SLPC  H16S 7018   3.523   2.507   5.904  1.1568  0.0313 -1.0898
   77SLPC  C217 7019   3.684   2.628   5.828 -0.4341  0.6981  0.4834
   77SLPC  H17R 7020   3.735   2.633   5.927 -2.3179 -0.4750  1.5817
   77SLPC  H17S 7021   3.703   2.729   5.786  1.2430  0.6872  1.1367
   77SLPC  C218 7022   3.737   2.518   5.738  0.2153 -0.4655 -0.3419
   77SLPC  H18R 7023   3.844   2.531   5.709  0.0062  3.2581  0.0861
   77SLPC  H18S 7024   3.677   2.532   5.645  1.7060  3.9492 -0.8824
   77SLPC  H18T 7025   3.723   2.421   5.790 -0.0207  0.9887  2.4779
   77SLPC   C33 7026   2.836   2.919   6.667  0.6452 -0.0169 -0.2674
   77SLPC   H3X 7027   2.825   2.839   6.744  2.3738 -0.8578 -0.8326
   77SLPC   H3Y 7028   2.946   2.919   6.649  1.0302  2.6379  1.5044
   77SLPC   C34 7029   2.768   2.872   6.538 -0.3365 -0.6089  0.4164
   77SLPC   H4X 7030   2.797   2.936   6.452  1.6159  0.6091  1.8976
   77SLPC   H4Y 7031   2.660   2.890   6.561  0.4264  3.4198  1.6095
   77SLPC   C35 7032   2.778   2.724   6.500 -0.0876  0.3356  0.1317
   77SLPC   H5X 7033   2.697   2.690   6.433  0.3976  2.2830 -1.5396
   77SLPC   H5Y 7034   2.772   2.657   6.589  0.8111 -0.9126 -0.6981
   77SLPC   C36 7035   2.909   2.695   6.420  0.4887  0.3765 -0.3826
   77SLPC   H6X 7036   2.991   2.724   6.490  1.5713  1.7568 -2.1409
   77SLPC   H6Y 7037   2.926   2.757   6.330  1.6695  2.6583  1.2991
   77SLPC   C37 7038   2.923   2.545   6.370 -0.1162 -0.3637 -0.6914
   77SLPC   H7X 7039   2.839   2.542   6.297  0.1322  0.2599 -1.0091
   77SLPC   H7Y 7040   2.908   2.471   6.452  2.0383 -0.4853 -0.3478
   77SLPC   C38 7041   3.052   2.523   6.288 -0.1530  0.2922  0.3103
   77SLPC   H8X 7042   3.066   2.413   6.288  1.6192  0.4691  1.6846
   77SLPC   H8Y 7043   3.144   2.560   6.337  0.3738 -0.6031  0.0157
   77SLPC   C39 7044   3.030   2.567   6.143  0.2774  0.0164 -0.6152
   77SLPC   H9X 7045   3.029   2.678   6.142  3.8931  0.2908  3.0055
   77SLPC   H9Y 7046   2.931   2.531   6.107 -0.4283 -0.6236  1.7952
   77SLPC  C310 7047   3.138   2.499   6.054 -0.2599 -0.0850 -0.0654
   77SLPC  H10X 7048   3.142   2.390   6.078 -1.6095 -0.2665 -0.5689
   77SLPC  H10Y 7049   3.234   2.549   6.078  0.8025 -2.3744  0.7647
   77SLPC  C311 7050   3.109   2.503   5.902 -0.3946  0.5179  0.0222
   77SLPC  H11X 7051   3.065   2.601   5.874  1.4600  0.9168 -1.7200
   77SLPC  H11Y 7052   3.036   2.423   5.879  0.7524 -1.0175  1.4325
   77SLPC  C312 7053   3.233   2.480   5.823 -0.2877  0.7272  0.0988
   77SLPC  H12X 7054   3.311   2.421   5.876  0.2323  0.6875 -0.6882
   77SLPC  H12Y 7055   3.279   2.575   5.786  0.3234  0.6697  0.6917
   77SLPC  C313 7056   3.199   2.403   5.691  0.1085  0.6461  0.0831
   77SLPC  H13X 7057   3.118   2.461   5.642 -1.3702 -1.3518  0.0615
   77SLPC  H13Y 7058   3.152   2.304   5.707  1.3904  0.0228  0.1059
   77SLPC  C314 7059   3.319   2.372   5.600 -0.3281 -0.6960  0.2196
   77SLPC  H14X 7060   3.393   2.303   5.646 -1.6205  0.3464  4.2225
   77SLPC  H14Y 7061   3.369   2.471   5.597  1.3646 -1.5161 -0.6158
   77SLPC  C315 7062   3.284   2.316   5.458 -0.5056 -0.1020 -0.2849
   77SLPC  H15X 7063   3.227   2.398   5.409  0.1432  1.4174  1.3740
   77SLPC  H15Y 7064   3.200   2.247   5.480 -1.0853  0.4949 -0.6142
   77SLPC  C316 7065   3.406   2.263   5.384 -0.5992  0.6785  0.2565
   77SLPC  H16X 7066   3.374   2.191   5.306 -0.6203  1.5842 -0.5979
   77SLPC  H16Y 7067   3.472   2.220   5.462 -0.7626  1.6100  0.9181
   77SLPC  C317 7068   3.475   2.369   5.298  0.6239 -0.6739 -0.2321
   77SLPC  H17X 7069   3.507   2.449   5.368  1.3163  1.8594 -3.2331
   77SLPC  H17Y 7070   3.400   2.410   5.227  1.4586 -0.4626 -1.0130
   77SLPC  C318 7071   3.596   2.321   5.219  0.7191  0.2364  0.1967
   77SLPC  H18X 7072   3.567   2.245   5.144 -1.6640 -1.4859  2.6868
   77SLPC  H18Y 7073   3.662   2.284   5.300  0.2754  0.9139  0.8941
   77SLPC  H18Z 7074   3.647   2.403   5.164  2.1497  0.3768  1.6484
   78SLPC     N 7075   6.307   0.944   7.177  0.0116 -0.0663 -0.4186
   78SLPC   C13 7076   6.451   0.908   7.176 -0.7824  0.3015  0.4447
   78SLPC  H13A 7077   6.516   0.995   7.177  0.8384 -0.8566  0.6835
   78SLPC  H13B 7078   6.478   0.846   7.260 -1.4355  2.9272  2.7750
   78SLPC  H13C 7079   6.467   0.852   7.085 -3.0892  1.1689 -0.5688
   78SLPC   C14 7080   6.273   1.033   7.293  0.1659  0.3261 -0.5718
   78SLPC  H14A 7081   6.165   1.043   7.294  0.1362 -0.0096 -0.3247
   78SLPC  H14B 7082   6.299   0.990   7.389  1.0147  1.2141 -0.3931
   78SLPC  H14C 7083   6.307   1.135   7.286  0.4428  0.3215  0.5095
   78SLPC   C15 7084   6.235   0.816   7.189  0.1830 -0.4442 -0.6011
   78SLPC  H15A 7085   6.270   0.747   7.114 -0.6387 -1.0117 -0.4660
   78SLPC  H15B 7086   6.270   0.768   7.279  1.0022 -1.9245 -1.6546
   78SLPC  H15C 7087   6.128   0.821   7.198 -0.0143 -0.6159 -2.4948
   78SLPC   C12 7088   6.264   1.008   7.045 -0.3436  0.1597 -0.4510
   78SLPC  H12A 7089   6.160   1.035   7.053 -0.2444  0.1129  2.0254
   78SLPC  H12B 7090   6.273   0.941   6.961  0.6837 -0.2158 -0.0589
   78SLPC   C11 7091   6.330   1.140   7.004  0.8415  0.3044 -0.4311
   78SLPC  H11A 7092   6.301   1.215   7.081 -1.7440 -2.1925  1.2335
   78SLPC  H11B 7093   6.279   1.184   6.914 -0.8561 -1.9532 -0.6621
   78SLPC     P 7094   6.535   1.070   6.850  0.1979 -0.5683 -0.0333
   78SLPC   O13 7095   6.540   1.168   6.743  0.3611 -1.2462  0.4318
   78SLPC   O14 7096   6.657   1.008   6.892 -0.3419 -0.0973 -0.7121
   78SLPC   O12 7097   6.466   1.134   6.973 -0.0214 -0.6084  0.0113
   78SLPC   O11 7098   6.435   0.957   6.815  0.2509 -0.1550  0.1263
   78SLPC    C1 7099   6.469   0.820   6.812 -0.3867  0.6501  0.1364
   78SLPC    HA 7100   6.528   0.796   6.903 -0.3146  1.1645  0.2295
   78SLPC    HB 7101   6.380   0.754   6.821  0.6613 -0.7544  0.5934
   78SLPC    C2 7102   6.518   0.782   6.674 -0.5964  0.2457  0.7721
   78SLPC    HS 7103   6.623   0.819   6.674 -0.4995 -0.0142  1.2551
   78SLPC   O21 7104   6.443   0.856   6.573 -0.6923  0.2418  0.3232
   78SLPC   C21 7105   6.497   0.863   6.459  0.3177 -0.0388  0.5465
   78SLPC   O22 7106   6.605   0.819   6.418 -0.2684 -0.0521 -0.2998
   78SLPC   C22 7107   6.412   0.954   6.367 -0.1450  0.1542  0.3864
   78SLPC   H2R 7108   6.310   0.928   6.402  0.4524  0.1946  2.2292
   78SLPC   H2S 7109   6.427   1.062   6.383 -0.4019  0.7393 -2.6854
   78SLPC    C3 7110   6.526   0.628   6.649 -0.1651 -0.3464  0.7667
   78SLPC    HX 7111   6.598   0.589   6.724  0.2804  0.6271  0.8560
   78SLPC    HY 7112   6.576   0.614   6.550 -1.4126  1.7359 -0.2228
   78SLPC   O31 7113   6.399   0.560   6.664 -0.2786 -0.0952 -0.2393
   78SLPC   C31 7114   6.345   0.529   6.552  0.9789  0.0926  0.2338
   78SLPC   O32 7115   6.389   0.562   6.446  0.3888  0.8520  0.1060
   78SLPC   C32 7116   6.211   0.465   6.578 -0.1560 -0.3957  0.1700
   78SLPC   H2X 7117   6.136   0.544   6.604 -0.9179 -1.2642  0.6736
   78SLPC   H2Y 7118   6.222   0.398   6.666 -0.0091 -1.4274 -0.6160
   78SLPC   C23 7119   6.427   0.920   6.217 -0.5623 -0.5684 -0.1474
   78SLPC   H3R 7120   6.381   0.819   6.206 -0.3221 -0.4812 -2.4999
   78SLPC   H3S 7121   6.528   0.898   6.177 -0.8746 -2.9976  0.2136
   78SLPC   C24 7122   6.363   1.021   6.121  0.0747  0.1664 -0.0499
   78SLPC   H4R 7123   6.431   1.107   6.107  2.2493 -1.6120 -1.0348
   78SLPC   H4S 7124   6.265   1.052   6.164 -0.9156  0.1841 -2.1604
   78SLPC   C25 7125   6.337   0.960   5.984 -0.1758 -0.6047  0.1978
   78SLPC   H5R 7126   6.271   0.872   6.004 -0.0554 -0.9203 -0.7441
   78SLPC   H5S 7127   6.432   0.945   5.929  0.0798  1.2595  0.0681
   78SLPC   C26 7128   6.241   1.040   5.892 -0.5723 -0.5221  0.4989
   78SLPC   H6R 7129   6.174   1.094   5.962 -1.0515 -1.1127  0.5011
   78SLPC   H6S 7130   6.183   0.969   5.829 -0.1755 -0.5858  0.2001
   78SLPC   C27 7131   6.319   1.150   5.804 -0.1401  0.0424  0.5741
   78SLPC   H7R 7132   6.389   1.095   5.739 -1.4003  0.4969 -1.2471
   78SLPC   H7S 7133   6.363   1.234   5.863 -1.1342  0.4317  0.7838
   78SLPC   C28 7134   6.232   1.223   5.702 -0.0823 -0.2789 -0.2181
   78SLPC   H8R 7135   6.172   1.306   5.745 -0.2417  0.6391 -2.0979
   78SLPC   H8S 7136   6.168   1.147   5.652  2.8488 -0.8193 -3.5616
   78SLPC   C29 7137   6.318   1.294   5.602  0.2050 -0.0024  0.5080
   78SLPC   H9R 7138   6.382   1.373   5.645 -1.0908  1.7846 -0.7070
   78SLPC  C210 7139   6.318   1.269   5.472 -0.1331 -0.0292  0.7105
   78SLPC  H10R 7140   6.396   1.312   5.407  0.4525 -2.5664 -0.3962
   78SLPC  C211 7141   6.240   1.163   5.398 -0.0035  0.5123 -0.5868
   78SLPC  H11R 7142   6.131   1.173   5.412 -0.2119 -0.5280 -1.3289
   78SLPC  H11S 7143   6.263   1.066   5.448 -0.5008  0.8900  0.4059
   78SLPC  C212 7144   6.281   1.139   5.258  0.5530  0.9291  0.1230
   78SLPC  H12R 7145   6.332   1.042   5.246 -1.0662  0.2809 -2.0056
   78SLPC  C213 7146   6.253   1.208   5.147 -0.2355  0.1272 -0.4092
   78SLPC  H13R 7147   6.275   1.167   5.047  1.5212 -2.4728  0.9042
   78SLPC  C214 7148   6.185   1.339   5.154  0.2223  0.2446  0.1952
   78SLPC  H14R 7149   6.225   1.402   5.237  2.4246  1.5269 -1.7314
   78SLPC  H14S 7150   6.076   1.324   5.171  0.2598 -0.5212 -0.2322
   78SLPC  C215 7151   6.199   1.433   5.034  0.6812  0.5767  0.2471
   78SLPC  H15R 7152   6.136   1.522   5.053 -0.6317 -0.5524  1.5263
   78SLPC  H15S 7153   6.158   1.385   4.943  1.5923  2.7922 -1.4022
   78SLPC  C216 7154   6.340   1.482   4.997 -0.2723 -0.0453  0.0044
   78SLPC  H16R 7155   6.397   1.404   4.943  2.3922  3.0512 -2.0376
   78SLPC  H16S 7156   6.372   1.488   5.103  0.2589 -0.8820 -0.1067
   78SLPC  C217 7157   6.353   1.615   4.916  0.4945 -0.5691 -0.2194
   78SLPC  H17R 7158   6.459   1.637   4.887  0.3247  0.1142 -0.3320
   78SLPC  H17S 7159   6.306   1.693   4.979 -0.7874 -2.0461  0.7024
   78SLPC  C218 7160   6.265   1.631   4.791 -0.0394 -0.0129 -0.4504
   78SLPC  H18R 7161   6.169   1.577   4.806  0.0334  0.0849  0.4259
   78SLPC  H18S 7162   6.309   1.591   4.697 -0.4503 -0.4379 -0.4664
   78SLPC  H18T 7163   6.241   1.739   4.780 -0.2824 -0.1864 -1.7434
   78SLPC   C33 7164   6.151   0.383   6.463  0.2599  0.7157 -0.0674
   78SLPC   H3X 7165   6.071   0.317   6.503  0.8208  0.0627 -0.0061
   78SLPC   H3Y 7166   6.222   0.308   6.422 -1.9269 -0.7940 -1.3518
   78SLPC   C34 7167   6.092   0.457   6.348  0.1313 -0.0820 -0.3437
   78SLPC   H4X 7168   6.146   0.544   6.305  1.1043 -0.3797  0.2500
   78SLPC   H4Y 7169   5.988   0.490   6.371  0.6908  1.3411  0.2377
   78SLPC   C35 7170   6.072   0.352   6.231 -0.1627 -0.0207  0.0482
   78SLPC   H5X 7171   6.003   0.276   6.273  1.6028 -1.0657  1.1417
   78SLPC   H5Y 7172   6.157   0.289   6.199 -0.6684 -1.0230  0.6479
   78SLPC   C36 7173   6.028   0.408   6.097 -0.4327 -0.9078 -0.7990
   78SLPC   H6X 7174   6.104   0.482   6.063 -1.1641 -0.4061 -1.3928
   78SLPC   H6Y 7175   5.929   0.458   6.112 -0.0233 -0.6208  1.3108
   78SLPC   C37 7176   6.019   0.305   5.988 -0.3297  0.1765 -0.0872
   78SLPC   H7X 7177   5.940   0.229   6.008 -1.6685  1.1139 -1.6012
   78SLPC   H7Y 7178   6.120   0.260   5.977 -0.7691 -0.2502 -3.8066
   78SLPC   C38 7179   5.996   0.363   5.851 -0.3937  0.2796  0.4735
   78SLPC   H8X 7180   6.062   0.453   5.851  0.8923 -0.6325  0.6310
   78SLPC   H8Y 7181   5.891   0.398   5.840 -0.9513 -1.3370  0.4260
   78SLPC   C39 7182   6.035   0.262   5.734  0.0113  0.0560 -0.4585
   78SLPC   H9X 7183   5.963   0.178   5.745 -0.5385  0.5764 -0.0684
   78SLPC   H9Y 7184   6.139   0.228   5.751  0.3235  0.3214 -1.6985
   78SLPC  C310 7185   6.019   0.323   5.596 -0.0781  0.1101  0.3535
   78SLPC  H10X 7186   6.081   0.413   5.577  1.0354 -0.7680 -0.2818
   78SLPC  H10Y 7187   5.914   0.357   5.585  0.3882  1.3892 -0.3959
   78SLPC  C311 7188   6.052   0.224   5.476 -0.3558  0.5026 -0.1709
   78SLPC  H11X 7189   5.977   0.143   5.474  1.4261 -1.2991  1.8448
   78SLPC  H11Y 7190   6.147   0.168   5.489 -1.6254 -1.4018  1.2745
   78SLPC  C312 7191   6.034   0.305   5.352 -0.0635 -0.1108  0.2724
   78SLPC  H12X 7192   6.118   0.378   5.347  0.8209 -0.5392  4.6626
   78SLPC  H12Y 7193   5.940   0.363   5.363 -0.1583 -0.6316  2.9197
   78SLPC  C313 7194   6.042   0.222   5.220 -0.0443 -0.0555  0.1687
   78SLPC  H13X 7195   5.980   0.131   5.227  0.2851 -0.2775  0.2398
   78SLPC  H13Y 7196   6.145   0.188   5.194 -0.1219 -0.3301  0.2295
   78SLPC  C314 7197   5.992   0.300   5.100  0.6205  0.7070  0.1870
   78SLPC  H14X 7198   6.079   0.351   5.055  2.7534 -1.7451  1.2586
   78SLPC  H14Y 7199   5.907   0.363   5.135  0.2227 -0.1767  0.8573
   78SLPC  C315 7200   5.943   0.211   4.983  0.3767  0.4293 -0.0209
   78SLPC  H15X 7201   5.865   0.262   4.921  0.0458  1.0214  0.8605
   78SLPC  H15Y 7202   5.873   0.143   5.036 -2.3012  3.2527  0.3679
   78SLPC  C316 7203   6.046   0.137   4.899  0.5318  0.6491  0.6483
   78SLPC  H16X 7204   6.005   0.048   4.846 -2.4907  2.8867 -1.1261
   78SLPC  H16Y 7205   6.135   0.111   4.960  1.8683  3.6469  0.1559
   78SLPC  C317 7206   6.077   0.229   4.779 -0.3654  0.2802  0.3986
   78SLPC  H17X 7207   6.105   0.334   4.804 -1.2310  0.5389  0.3157
   78SLPC  H17Y 7208   5.979   0.240   4.728  0.1561 -3.0916 -1.5898
   78SLPC  C318 7209   6.185   0.161   4.691  0.6881 -0.8404 -0.0281
   78SLPC  H18X 7210   6.213   0.215   4.599  1.5471  0.6431  1.0740
   78SLPC  H18Y 7211   6.153   0.059   4.660 -0.7370 -0.1282 -1.0166
   78SLPC  H18Z 7212   6.271   0.145   4.759  1.6486  1.4668 -0.6352
   79SLPC     N 7213   3.988   1.533   7.141 -0.0033 -0.7347  0.1794
   79SLPC   C13 7214   3.921   1.417   7.079 -0.3576 -0.6089 -0.2344
   79SLPC  H13A 7215   3.839   1.452   7.016  1.0960 -0.4910 -2.1618
   79SLPC  H13B 7216   3.982   1.359   7.011 -0.2107 -0.0321 -0.6037
   79SLPC  H13C 7217   3.889   1.350   7.156 -0.2123 -0.4428 -0.0289
   79SLPC   C14 7218   4.038   1.622   7.023 -0.0714 -0.2186 -0.6395
   79SLPC  H14A 7219   4.052   1.723   7.057  1.0288 -0.5242 -0.1161
   79SLPC  H14B 7220   4.135   1.592   6.986  2.1001  3.2382  1.6973
   79SLPC  H14C 7221   3.960   1.624   6.948 -1.9748  3.1593  1.2100
   79SLPC   C15 7222   4.097   1.474   7.217  0.5906 -0.6071 -0.0336
   79SLPC  H15A 7223   4.164   1.424   7.148 -1.3778 -1.2421 -1.5680
   79SLPC  H15B 7224   4.151   1.545   7.278 -2.2313  0.4454  1.3989
   79SLPC  H15C 7225   4.067   1.403   7.292  1.6616  1.7228  2.8009
   79SLPC   C12 7226   3.888   1.617   7.219  0.3605  0.2700 -0.3792
   79SLPC  H12A 7227   3.853   1.557   7.302 -0.4915 -0.5655 -1.3155
   79SLPC  H12B 7228   3.801   1.648   7.163 -0.8998  0.6852  1.6878
   79SLPC   C11 7229   3.932   1.754   7.280 -1.0181 -0.1539  0.1886
   79SLPC  H11A 7230   4.020   1.733   7.345 -3.1871 -1.7259  2.8707
   79SLPC  H11B 7231   3.846   1.785   7.344 -0.5414  1.8732 -0.0632
   79SLPC     P 7232   4.074   1.954   7.192 -0.0728 -0.2143  0.1022
   79SLPC   O13 7233   4.150   1.935   7.319 -0.0280  0.0051  0.2928
   79SLPC   O14 7234   4.149   1.944   7.061 -0.1234 -0.5385  0.1616
   79SLPC   O12 7235   3.956   1.852   7.177 -0.1496 -0.0277 -0.2190
   79SLPC   O11 7236   4.002   2.100   7.221  0.2280  0.2293 -0.5005
   79SLPC    C1 7237   3.875   2.118   7.157 -0.8120  0.3319 -0.0381
   79SLPC    HA 7238   3.814   2.026   7.167  3.1981 -2.4641  1.0229
   79SLPC    HB 7239   3.821   2.206   7.198  0.5581  1.2516 -0.1507
   79SLPC    C2 7240   3.891   2.147   7.005  0.2157 -0.1421 -0.2822
   79SLPC    HS 7241   3.919   2.055   6.951 -0.4750 -0.9910  0.7675
   79SLPC   O21 7242   3.996   2.247   6.990 -0.0657 -0.5567 -0.6122
   79SLPC   C21 7243   4.064   2.240   6.876  0.0998 -0.2383 -0.4214
   79SLPC   O22 7244   4.060   2.144   6.800  0.1159  0.2789 -0.7651
   79SLPC   C22 7245   4.163   2.357   6.857  0.2154 -0.0829 -0.3962
   79SLPC   H2R 7246   4.113   2.450   6.890  2.4840  0.3546  2.2159
   79SLPC   H2S 7247   4.253   2.345   6.921  0.8903  0.7012 -1.1725
   79SLPC    C3 7248   3.758   2.199   6.935  0.5099 -0.4050  0.3065
   79SLPC    HX 7249   3.760   2.304   6.972  1.1788 -0.3061  0.0052
   79SLPC    HY 7250   3.666   2.146   6.969 -1.0703  1.8123 -0.2446
   79SLPC   O31 7251   3.771   2.199   6.790 -0.7549  0.0747  0.1473
   79SLPC   C31 7252   3.773   2.078   6.737  0.5196  0.0667 -0.3651
   79SLPC   O32 7253   3.743   1.976   6.798 -0.2152  0.4409  0.6229
   79SLPC   C32 7254   3.799   2.088   6.589  0.2516  0.3781  0.2701
   79SLPC   H2X 7255   3.706   2.056   6.537 -0.0209  1.1066  0.3043
   79SLPC   H2Y 7256   3.873   2.009   6.564 -0.5030 -0.7255  1.3733
   79SLPC   C23 7257   4.225   2.377   6.715  0.1087  0.0022 -0.1901
   79SLPC   H3R 7258   4.138   2.369   6.646 -0.0632  1.7275 -0.2158
   79SLPC   H3S 7259   4.294   2.290   6.708 -0.2110 -0.2259 -0.5378
   79SLPC   C24 7260   4.301   2.506   6.702 -0.1780 -0.7661  0.3629
   79SLPC   H4R 7261   4.365   2.519   6.792  1.1099  0.7146 -0.7132
   79SLPC   H4S 7262   4.226   2.585   6.720 -1.1611 -0.7659 -3.1533
   79SLPC   C25 7263   4.388   2.524   6.578 -0.1002 -0.2031  0.9233
   79SLPC   H5R 7264   4.482   2.464   6.583  0.9519  1.0005 -2.2065
   79SLPC   H5S 7265   4.434   2.624   6.591 -0.9423  0.1997  0.8131
   79SLPC   C26 7266   4.327   2.496   6.430  0.1207 -0.9892 -0.5452
   79SLPC   H6R 7267   4.247   2.569   6.407  1.4503  0.2339 -1.4439
   79SLPC   H6S 7268   4.277   2.397   6.438  0.9445 -1.5316 -1.7890
   79SLPC   C27 7269   4.434   2.504   6.322 -0.3102  0.8938 -0.4294
   79SLPC   H7R 7270   4.386   2.469   6.228 -0.2958 -3.5422  0.9992
   79SLPC   H7S 7271   4.524   2.441   6.330 -0.3403 -0.0674 -4.9722
   79SLPC   C28 7272   4.488   2.645   6.298 -0.3527 -0.2777 -0.0267
   79SLPC   H8R 7273   4.582   2.642   6.239  1.1980  0.5251  2.2563
   79SLPC   H8S 7274   4.520   2.688   6.395  0.1052 -2.9105  1.0950
   79SLPC   C29 7275   4.375   2.729   6.249 -0.3120 -0.0235 -0.2375
   79SLPC   H9R 7276   4.314   2.763   6.333 -1.6620 -2.4651 -0.1539
   79SLPC  C210 7277   4.342   2.783   6.131  0.8434  0.5068  0.0424
   79SLPC  H10R 7278   4.258   2.854   6.131 -0.4113 -0.9288  0.0684
   79SLPC  C211 7279   4.402   2.749   5.996 -0.1213 -0.1348  0.8679
   79SLPC  H11R 7280   4.418   2.640   5.993  0.4772 -0.1005  2.2923
   79SLPC  H11S 7281   4.506   2.786   5.983 -0.7999  1.4100 -0.7292
   79SLPC  C212 7282   4.313   2.787   5.881  0.6069 -0.7031  0.2209
   79SLPC  H12R 7283   4.229   2.855   5.900  0.7336  0.7695 -3.5703
   79SLPC  C213 7284   4.326   2.756   5.750  0.5325  0.3730  0.1419
   79SLPC  H13R 7285   4.247   2.782   5.678  1.2989  0.1774 -0.7978
   79SLPC  C214 7286   4.442   2.672   5.702  0.3159  0.3285  0.1628
   79SLPC  H14R 7287   4.406   2.568   5.696  1.4181 -0.1821  1.8533
   79SLPC  H14S 7288   4.530   2.680   5.770 -0.7541 -0.7522  1.7161
   79SLPC  C215 7289   4.494   2.705   5.561 -0.3704 -0.1060  0.2216
   79SLPC  H15R 7290   4.566   2.624   5.539  0.4524  0.7894 -0.5220
   79SLPC  H15S 7291   4.549   2.802   5.567  1.1204 -0.9104 -0.2094
   79SLPC  C216 7292   4.386   2.701   5.450 -0.7508  0.8134 -0.5354
   79SLPC  H16R 7293   4.327   2.795   5.454 -1.9563  0.0955 -0.9609
   79SLPC  H16S 7294   4.315   2.619   5.472  0.0167  0.1950 -0.2829
   79SLPC  C217 7295   4.440   2.689   5.308  0.8155 -0.1876  0.1616
   79SLPC  H17R 7296   4.503   2.598   5.299 -0.8990 -1.3864 -0.1044
   79SLPC  H17S 7297   4.506   2.775   5.283 -0.4359  0.3814 -1.3552
   79SLPC  C218 7298   4.333   2.682   5.196 -0.6157  0.1920  0.1817
   79SLPC  H18R 7299   4.317   2.579   5.158 -2.6008 -0.4951  2.6057
   79SLPC  H18S 7300   4.372   2.737   5.108 -0.8597  1.4724  0.8341
   79SLPC  H18T 7301   4.235   2.723   5.230 -0.1743 -0.7625  2.8395
   79SLPC   C33 7302   3.851   2.224   6.544 -0.1295  0.2827  0.3368
   79SLPC   H3X 7303   3.938   2.249   6.609 -0.1943 -1.9902  1.4090
   79SLPC   H3Y 7304   3.780   2.308   6.564  1.2415  1.4710  0.3526
   79SLPC   C34 7305   3.891   2.218   6.397  0.2465  0.8422 -0.2714
   79SLPC   H4X 7306   3.807   2.171   6.341  0.8895  1.0107 -1.4120
   79SLPC   H4Y 7307   3.978   2.149   6.399  0.6190  1.3252  1.0876
   79SLPC   C35 7308   3.933   2.350   6.332  0.2589  0.3477  0.5377
   79SLPC   H5X 7309   3.998   2.398   6.408  3.1905 -2.8141  0.2961
   79SLPC   H5Y 7310   3.849   2.419   6.313  0.8572  0.6372 -1.3147
   79SLPC   C36 7311   4.007   2.335   6.194  0.3986 -0.9118  0.1353
   79SLPC   H6X 7312   3.948   2.283   6.115  0.5631  0.1456 -0.7072
   79SLPC   H6Y 7313   4.106   2.290   6.218  1.0683 -0.2044 -1.1880
   79SLPC   C37 7314   4.044   2.480   6.149  0.4875 -0.2093  0.5642
   79SLPC   H7X 7315   4.095   2.541   6.227  0.3573  2.4764 -1.3128
   79SLPC   H7Y 7316   3.948   2.532   6.129 -0.3637 -0.2470  3.8548
   79SLPC   C38 7317   4.132   2.495   6.023 -0.2922 -0.4069  0.4502
   79SLPC   H8X 7318   4.234   2.456   6.040 -0.2188 -0.8050 -0.7963
   79SLPC   H8Y 7319   4.128   2.605   6.010  1.4825 -0.2640  0.9409
   79SLPC   C39 7320   4.085   2.411   5.899 -0.4417 -0.2596  0.4310
   79SLPC   H9X 7321   3.978   2.434   5.877  0.0315  2.9651  1.0218
   79SLPC   H9Y 7322   4.083   2.305   5.931  2.8957  0.1525  2.4035
   79SLPC  C310 7323   4.172   2.426   5.767 -0.0444  0.7652 -0.2023
   79SLPC  H10X 7324   4.276   2.389   5.785 -0.4376  0.4230  1.5108
   79SLPC  H10Y 7325   4.177   2.532   5.735 -1.3893  0.0804 -3.0325
   79SLPC  C311 7326   4.104   2.349   5.653  0.2259  0.1429 -0.2830
   79SLPC  H11X 7327   4.016   2.412   5.629  0.3613  0.2202 -0.5795
   79SLPC  H11Y 7328   4.077   2.246   5.685  1.3526  0.2306  1.0341
   79SLPC  C312 7329   4.194   2.339   5.528  0.0838  0.3650  0.7338
   79SLPC  H12X 7330   4.292   2.302   5.566  1.5141 -2.3924 -4.6400
   79SLPC  H12Y 7331   4.220   2.442   5.495  1.7891 -0.0145  0.7986
   79SLPC  C313 7332   4.128   2.253   5.427  0.0035  0.5455  0.2690
   79SLPC  H13X 7333   4.039   2.311   5.395  0.0106  0.6644  0.4667
   79SLPC  H13Y 7334   4.086   2.159   5.470 -0.9347  0.6616 -0.3597
   79SLPC  C314 7335   4.206   2.231   5.297  0.2446  0.0368 -0.4285
   79SLPC  H14X 7336   4.296   2.176   5.332  0.2760 -0.2354 -0.9236
   79SLPC  H14Y 7337   4.235   2.323   5.242  1.7008  0.2373  0.5990
   79SLPC  C315 7338   4.142   2.127   5.205 -0.1944 -0.2665  0.8386
   79SLPC  H15X 7339   4.038   2.145   5.168  0.3360  0.7170 -0.2357
   79SLPC  H15Y 7340   4.138   2.029   5.257 -0.8148  0.2476  1.7815
   79SLPC  C316 7341   4.238   2.102   5.084 -0.2195  0.2984 -0.5127
   79SLPC  H16X 7342   4.338   2.068   5.120 -1.1419 -2.0243  0.0162
   79SLPC  H16Y 7343   4.248   2.197   5.028 -1.1516  0.0194 -1.1816
   79SLPC  C317 7344   4.179   1.999   4.992 -0.4831  0.3876  0.2200
   79SLPC  H17X 7345   4.092   2.042   4.937 -0.6062  0.2968  0.3417
   79SLPC  H17Y 7346   4.138   1.914   5.052 -1.3515 -0.6183 -1.7125
   79SLPC  C318 7347   4.268   1.941   4.884  0.8564 -0.8480  0.5254
   79SLPC  H18X 7348   4.293   2.014   4.804 -0.9313 -1.2580 -0.4477
   79SLPC  H18Y 7349   4.216   1.858   4.831  1.7475  0.2518 -2.2748
   79SLPC  H18Z 7350   4.369   1.909   4.916  0.5920 -1.7545  0.4747
   80SLPC     N 7351   2.678   5.795   7.401 -0.4718 -0.3542 -0.2003
   80SLPC   C13 7352   2.553   5.706   7.414 -0.1890  0.9158 -0.1076
   80SLPC  H13A 7353   2.517   5.680   7.316 -1.0239  1.2237  0.1104
   80SLPC  H13B 7354   2.579   5.617   7.469 -1.0499 -1.5606 -3.3867
   80SLPC  H13C 7355   2.490   5.771   7.473  1.0518  2.3875 -0.3417
   80SLPC   C14 7356   2.728   5.804   7.536 -0.6762 -0.1439 -0.4152
   80SLPC  H14A 7357   2.831   5.828   7.555  0.1771 -1.7054 -2.6466
   80SLPC  H14B 7358   2.676   5.874   7.600 -2.5055 -1.7146 -0.0840
   80SLPC  H14C 7359   2.730   5.708   7.585  0.7020  0.6382  1.1676
   80SLPC   C15 7360   2.636   5.925   7.346 -1.3892 -0.3819 -0.3660
   80SLPC  H15A 7361   2.597   5.926   7.246  0.9787  2.3520 -1.3901
   80SLPC  H15B 7362   2.573   5.980   7.415  1.1201  0.9263  1.0338
   80SLPC  H15C 7363   2.720   5.992   7.345 -1.5841 -0.1054  0.4404
   80SLPC   C12 7364   2.783   5.734   7.313  0.3187 -0.1928  0.4348
   80SLPC  H12A 7365   2.807   5.637   7.353  0.2562 -0.1685  0.5295
   80SLPC  H12B 7366   2.872   5.794   7.328 -0.3165  1.2300 -1.1236
   80SLPC   C11 7367   2.762   5.713   7.165  0.0475 -0.8998  0.3993
   80SLPC  H11A 7368   2.864   5.698   7.124  0.3677  0.6056  0.5719
   80SLPC  H11B 7369   2.733   5.809   7.115  1.2438 -1.7146 -2.0183
   80SLPC     P 7370   2.705   5.461   7.148  0.1768 -0.4482  0.2070
   80SLPC   O13 7371   2.777   5.448   7.276  0.2830 -0.1556 -0.1991
   80SLPC   O14 7372   2.591   5.374   7.134 -0.0551  0.2295  0.0001
   80SLPC   O12 7373   2.663   5.612   7.129  0.3292 -0.0828  0.6398
   80SLPC   O11 7374   2.804   5.442   7.027 -0.0500 -0.5151  0.5632
   80SLPC    C1 7375   2.863   5.320   6.993  0.5401 -0.3050 -0.0498
   80SLPC    HA 7376   2.931   5.294   7.076  0.6126  0.2012  0.0528
   80SLPC    HB 7377   2.784   5.244   6.978 -0.6384  1.0961 -1.3414
   80SLPC    C2 7378   2.946   5.331   6.870 -0.4830 -0.3346  0.1564
   80SLPC    HS 7379   3.010   5.421   6.862 -1.5948  0.3733 -1.8210
   80SLPC   O21 7380   2.858   5.323   6.758  0.2987 -0.1337 -0.2205
   80SLPC   C21 7381   2.821   5.440   6.703  0.3930  0.1578 -0.3624
   80SLPC   O22 7382   2.879   5.545   6.716 -0.7060  0.0612  0.6146
   80SLPC   C22 7383   2.693   5.429   6.620  0.7546  0.1732 -0.2772
   80SLPC   H2R 7384   2.648   5.329   6.602 -1.5415  0.9698  0.7422
   80SLPC   H2S 7385   2.616   5.483   6.679  0.2582 -0.6129 -0.1847
   80SLPC    C3 7386   3.040   5.210   6.873  0.2337 -0.1399 -0.4494
   80SLPC    HX 7387   2.971   5.123   6.871 -0.1781  0.0755  1.9162
   80SLPC    HY 7388   3.091   5.201   6.971  0.6596  0.6966 -0.5882
   80SLPC   O31 7389   3.124   5.219   6.751 -0.0526 -0.6628  0.5284
   80SLPC   C31 7390   3.244   5.269   6.757 -0.5716  0.1091 -0.1560
   80SLPC   O32 7391   3.291   5.321   6.858 -0.2311  0.3811  0.5597
   80SLPC   C32 7392   3.305   5.253   6.616  0.6789 -0.1531  0.0488
   80SLPC   H2X 7393   3.302   5.143   6.604  2.2894 -0.3614  1.2558
   80SLPC   H2Y 7394   3.413   5.276   6.624  1.0409 -1.6857 -0.1974
   80SLPC   C23 7395   2.707   5.508   6.488 -0.1610  1.0393 -0.4594
   80SLPC   H3R 7396   2.772   5.598   6.482 -1.2886  1.8454 -1.0289
   80SLPC   H3S 7397   2.604   5.547   6.472  0.1113  1.5490 -1.0099
   80SLPC   C24 7398   2.751   5.420   6.377  0.9708  0.5351  0.8321
   80SLPC   H4R 7399   2.681   5.335   6.363 -0.7245  1.9403  0.5090
   80SLPC   H4S 7400   2.853   5.386   6.405  0.9542  0.6834  1.0834
   80SLPC   C25 7401   2.757   5.493   6.240 -0.0878  0.2068  0.9555
   80SLPC   H5R 7402   2.812   5.430   6.167  0.7669 -1.0644  2.6156
   80SLPC   H5S 7403   2.811   5.589   6.251 -1.4386  1.1820 -0.4913
   80SLPC   C26 7404   2.621   5.515   6.166 -0.1966 -0.1672  0.3276
   80SLPC   H6R 7405   2.619   5.592   6.086 -2.5293  2.5370  2.7443
   80SLPC   H6S 7406   2.543   5.545   6.240 -1.0122 -1.0503 -0.1503
   80SLPC   C27 7407   2.566   5.392   6.102 -0.4151  0.3636 -0.7634
   80SLPC   H7R 7408   2.552   5.309   6.175 -0.3587  1.3334  0.3817
   80SLPC   H7S 7409   2.638   5.357   6.025  0.2661 -1.2182  0.5258
   80SLPC   C28 7410   2.427   5.424   6.038 -0.2630  0.1305  0.0898
   80SLPC   H8R 7411   2.445   5.516   5.978  2.8754 -0.6762 -0.3706
   80SLPC   H8S 7412   2.367   5.449   6.129 -0.1226  0.3367  0.1243
   80SLPC   C29 7413   2.380   5.321   5.938 -0.1725  0.3349 -0.1626
   80SLPC   H9R 7414   2.376   5.219   5.980 -1.2197  0.8442  1.0431
   80SLPC  C210 7415   2.348   5.337   5.807 -0.2143 -0.9773 -0.1969
   80SLPC  H10R 7416   2.326   5.244   5.751  1.2527 -2.5495  1.6878
   80SLPC  C211 7417   2.334   5.469   5.728  0.2265  0.4868 -0.0634
   80SLPC  H11R 7418   2.410   5.455   5.648 -1.3975 -2.5113 -1.2552
   80SLPC  H11S 7419   2.361   5.564   5.778 -1.0281  1.7234 -1.6387
   80SLPC  C212 7420   2.195   5.475   5.678 -0.0561  0.0601  0.4394
   80SLPC  H12R 7421   2.120   5.447   5.754 -1.1751 -0.1878 -0.7207
   80SLPC  C213 7422   2.164   5.498   5.546  0.8037 -0.2028 -0.8729
   80SLPC  H13R 7423   2.062   5.499   5.505  0.6873  0.7534 -0.6004
   80SLPC  C214 7424   2.257   5.533   5.436 -0.5129 -0.3740 -0.8674
   80SLPC  H14R 7425   2.328   5.450   5.416  2.9450  1.8267  1.1657
   80SLPC  H14S 7426   2.327   5.606   5.483 -1.0069 -1.0875  1.0343
   80SLPC  C215 7427   2.195   5.592   5.310  0.0271 -0.6261  0.1359
   80SLPC  H15R 7428   2.270   5.639   5.243  0.8751 -1.1586  0.6886
   80SLPC  H15S 7429   2.128   5.675   5.342  1.8746  0.4971  1.3419
   80SLPC  C216 7430   2.122   5.490   5.219 -0.3117  0.1337 -0.5662
   80SLPC  H16R 7431   2.060   5.423   5.283  1.1871  2.1827  3.3723
   80SLPC  H16S 7432   2.207   5.428   5.183  0.0409  1.5526 -2.3241
   80SLPC  C217 7433   2.037   5.565   5.113  0.3637  0.8369  0.0227
   80SLPC  H17R 7434   2.104   5.609   5.036  0.5931  0.2284 -0.1319
   80SLPC  H17S 7435   1.981   5.654   5.146  1.6931  1.9222 -0.5309
   80SLPC  C218 7436   1.942   5.468   5.034 -0.5928 -0.1240  0.3851
   80SLPC  H18R 7437   1.861   5.428   5.097 -1.7188  2.2805  0.5953
   80SLPC  H18S 7438   1.995   5.388   4.978 -0.2968 -1.2627  2.2037
   80SLPC  H18T 7439   1.886   5.536   4.966  0.3284  1.3206  0.9993
   80SLPC   C33 7440   3.238   5.338   6.504  0.5273 -0.2442  0.9988
   80SLPC   H3X 7441   3.266   5.442   6.532  0.7886 -0.2970  0.9293
   80SLPC   H3Y 7442   3.127   5.328   6.511  0.2523  1.7278  0.1489
   80SLPC   C34 7443   3.273   5.312   6.357  0.2382 -0.4772 -0.9192
   80SLPC   H4X 7444   3.186   5.363   6.311 -0.4496  1.0256  1.8190
   80SLPC   H4Y 7445   3.276   5.201   6.343 -1.4747 -0.6433 -0.2124
   80SLPC   C35 7446   3.407   5.363   6.315 -0.0277  0.1209 -0.3724
   80SLPC   H5X 7447   3.479   5.287   6.351  1.5372  2.5400  2.0249
   80SLPC   H5Y 7448   3.438   5.458   6.365  0.7405 -1.0831  1.5542
   80SLPC   C36 7449   3.417   5.386   6.168 -0.6135  0.4140 -0.5455
   80SLPC   H6X 7450   3.494   5.466   6.157  0.2582 -0.2191  0.7257
   80SLPC   H6Y 7451   3.326   5.439   6.133 -0.9553 -0.6002 -1.2493
   80SLPC   C37 7452   3.449   5.252   6.095 -0.1085 -0.0722 -0.3747
   80SLPC   H7X 7453   3.354   5.195   6.095  0.0141 -0.2919  0.5822
   80SLPC   H7Y 7454   3.516   5.188   6.156  1.6978  1.7030 -0.3773
   80SLPC   C38 7455   3.504   5.270   5.957 -0.8662  0.0214  0.0866
   80SLPC   H8X 7456   3.596   5.333   5.965 -0.6530 -0.3263  0.4099
   80SLPC   H8Y 7457   3.428   5.323   5.896 -0.2187 -1.0698 -1.7309
   80SLPC   C39 7458   3.548   5.142   5.889  0.2781  0.0145 -1.1470
   80SLPC   H9X 7459   3.454   5.092   5.857 -0.9251 -0.0590  2.1212
   80SLPC   H9Y 7460   3.603   5.076   5.960 -1.4925  2.2461  2.5776
   80SLPC  C310 7461   3.652   5.184   5.773  0.0994  0.0137 -0.5286
   80SLPC  H10X 7462   3.748   5.195   5.827  0.7455 -3.9099 -0.5978
   80SLPC  H10Y 7463   3.631   5.282   5.725 -1.4347  1.0457  2.0681
   80SLPC  C311 7464   3.655   5.070   5.665 -0.0793  0.2942  0.0488
   80SLPC  H11X 7465   3.554   5.047   5.625  1.1335 -1.5761 -2.1984
   80SLPC  H11Y 7466   3.711   4.981   5.702  0.6388 -0.4613 -2.6650
   80SLPC  C312 7467   3.720   5.101   5.533  0.9327 -0.6075 -0.3626
   80SLPC  H12X 7468   3.735   5.001   5.486 -0.1460 -1.4427  1.0063
   80SLPC  H12Y 7469   3.813   5.160   5.546  0.3897  0.4480 -1.1007
   80SLPC  C313 7470   3.626   5.188   5.448  0.0089  0.6483  0.0107
   80SLPC  H13X 7471   3.614   5.286   5.500 -0.7687 -0.7661  2.6468
   80SLPC  H13Y 7472   3.521   5.154   5.435 -0.4637  0.9413  2.5846
   80SLPC  C314 7473   3.678   5.214   5.306  0.4408  0.6465 -0.0859
   80SLPC  H14X 7474   3.655   5.126   5.242  0.3203  0.7314 -0.1589
   80SLPC  H14Y 7475   3.786   5.239   5.300  1.1067 -1.8302  0.4698
   80SLPC  C315 7476   3.613   5.337   5.239 -0.6657  0.0742  0.2380
   80SLPC  H15X 7477   3.649   5.424   5.298 -0.4880  0.9670 -1.1426
   80SLPC  H15Y 7478   3.503   5.328   5.250 -0.6874 -0.1404 -0.1244
   80SLPC  C316 7479   3.654   5.351   5.094 -1.1308  0.0772 -0.1723
   80SLPC  H16X 7480   3.598   5.278   5.031  2.7149 -1.5014 -2.1300
   80SLPC  H16Y 7481   3.763   5.337   5.081 -1.2913 -1.9281  0.2900
   80SLPC  C317 7482   3.610   5.491   5.038  0.3036  0.0814  0.3786
   80SLPC  H17X 7483   3.636   5.573   5.108 -2.8428  1.6810 -0.1658
   80SLPC  H17Y 7484   3.500   5.485   5.044  0.2537 -1.5771 -1.3711
   80SLPC  C318 7485   3.640   5.517   4.889  0.0763  0.2074  0.0048
   80SLPC  H18X 7486   3.604   5.431   4.827 -0.1312 -0.1483  0.6122
   80SLPC  H18Y 7487   3.750   5.533   4.885  0.0087  0.5092 -1.0218
   80SLPC  H18Z 7488   3.591   5.610   4.853 -0.5830  1.3568  3.5405
   81SLPC     N 7489   5.333   5.348   1.857 -0.7012 -0.4839  0.3161
   81SLPC   C13 7490   5.381   5.422   1.971  0.4836  0.3814 -0.5144
   81SLPC  H13A 7491   5.420   5.343   2.034 -2.1539 -1.3528 -0.8941
   81SLPC  H13B 7492   5.443   5.506   1.943  0.2935  0.8886  0.5439
   81SLPC  H13C 7493   5.298   5.466   2.024  1.0086 -0.1099  0.7522
   81SLPC   C14 7494   5.458   5.300   1.780  1.3863  0.7041  0.1420
   81SLPC  H14A 7495   5.422   5.257   1.687 -0.3705  1.6562  0.3285
   81SLPC  H14B 7496   5.526   5.381   1.759  0.3732  1.9399  1.4146
   81SLPC  H14C 7497   5.525   5.235   1.835  2.0954  0.5220 -0.8977
   81SLPC   C15 7498   5.261   5.443   1.767 -0.0766  0.0224 -0.4091
   81SLPC  H15A 7499   5.253   5.407   1.665  1.0256 -0.2112 -0.4299
   81SLPC  H15B 7500   5.163   5.473   1.803  0.0601 -0.8621  0.7320
   81SLPC  H15C 7501   5.318   5.534   1.751  1.6279 -1.2781 -2.1999
   81SLPC   C12 7502   5.244   5.232   1.887  0.5727  0.8054  0.4180
   81SLPC  H12A 7503   5.209   5.184   1.798 -0.7037  1.9591  0.2612
   81SLPC  H12B 7504   5.150   5.274   1.920 -0.1965  0.5420 -1.3195
   81SLPC   C11 7505   5.284   5.116   1.983 -0.7988 -0.4541  0.5035
   81SLPC  H11A 7506   5.375   5.072   1.937 -1.0059 -1.4630  1.0236
   81SLPC  H11B 7507   5.201   5.044   1.995 -1.2866  0.0502  0.1642
   81SLPC     P 7508   5.437   5.127   2.199 -0.1653  0.0444  0.1435
   81SLPC   O13 7509   5.516   5.013   2.142  0.2145 -0.0755  0.2488
   81SLPC   O14 7510   5.513   5.257   2.212 -0.0803  0.7201 -0.1879
   81SLPC   O12 7511   5.319   5.165   2.108  0.0340  0.0390 -0.0993
   81SLPC   O11 7512   5.366   5.084   2.328  0.6748  0.3596 -0.8133
   81SLPC    C1 7513   5.409   4.984   2.426 -0.3012  0.9103 -0.0042
   81SLPC    HA 7514   5.433   4.886   2.379  2.9862  0.8833  1.4571
   81SLPC    HB 7515   5.502   5.010   2.481  0.1697 -1.3197  0.3575
   81SLPC    C2 7516   5.303   4.943   2.532  0.1338 -0.5731 -1.1291
   81SLPC    HS 7517   5.212   4.908   2.479 -1.4759  1.4149  0.1985
   81SLPC   O21 7518   5.271   5.062   2.601  0.5288  0.0708 -0.3170
   81SLPC   C21 7519   5.157   5.119   2.572 -0.3688 -0.6690 -0.9612
   81SLPC   O22 7520   5.066   5.073   2.507  0.1999 -0.5925 -0.8561
   81SLPC   C22 7521   5.151   5.257   2.637 -0.1972 -0.4465  0.2812
   81SLPC   H2R 7522   5.257   5.291   2.632  0.3548 -2.0188  0.5045
   81SLPC   H2S 7523   5.090   5.322   2.572 -0.5838 -0.5961  0.4909
   81SLPC    C3 7524   5.361   4.845   2.635 -0.2809  0.5252 -0.3627
   81SLPC    HX 7525   5.462   4.878   2.665 -0.0092  0.0320 -0.7346
   81SLPC    HY 7526   5.366   4.748   2.581  4.1271  1.2168 -1.5132
   81SLPC   O31 7527   5.282   4.834   2.757 -0.0562 -0.0493  0.2301
   81SLPC   C31 7528   5.161   4.781   2.754 -0.3435  0.0905  0.3428
   81SLPC   O32 7529   5.102   4.737   2.657 -0.2081 -0.4023 -0.2377
   81SLPC   C32 7530   5.114   4.770   2.903 -0.5654  0.3391 -0.1863
   81SLPC   H2X 7531   5.085   4.871   2.940 -0.8324  0.0768  0.3216
   81SLPC   H2Y 7532   5.196   4.725   2.963 -0.0136  2.3768  0.7047
   81SLPC   C23 7533   5.123   5.250   2.787 -0.2282 -0.2022  0.0039
   81SLPC   H3R 7534   5.151   5.353   2.819 -0.6119  0.0380 -0.4217
   81SLPC   H3S 7535   5.180   5.179   2.850  0.1564 -0.7172 -0.9138
   81SLPC   C24 7536   4.976   5.216   2.825  0.1720  0.0379  0.3352
   81SLPC   H4R 7537   4.953   5.108   2.831  0.6752 -0.3933 -3.2640
   81SLPC   H4S 7538   4.916   5.252   2.738  0.1883  0.2328  0.4030
   81SLPC   C25 7539   4.916   5.293   2.946 -0.0058 -0.7774  0.2563
   81SLPC   H5R 7540   4.809   5.269   2.960 -0.1788  0.7624  1.9327
   81SLPC   H5S 7541   4.914   5.403   2.932  0.6246  0.2885  6.0644
   81SLPC   C26 7542   4.996   5.277   3.075  0.2488  0.1466  0.2234
   81SLPC   H6R 7543   4.970   5.362   3.142  1.6562 -0.4061  1.5367
   81SLPC   H6S 7544   5.100   5.297   3.042 -0.4592  2.7802 -0.6638
   81SLPC   C27 7545   4.972   5.145   3.145 -0.4365  0.7066  0.1852
   81SLPC   H7R 7546   4.993   5.066   3.069  1.6451 -1.0017  2.3685
   81SLPC   H7S 7547   4.873   5.133   3.192  0.0502 -0.1017  1.0532
   81SLPC   C28 7548   5.072   5.119   3.261  0.5982 -0.3087  0.3909
   81SLPC   H8R 7549   5.048   5.190   3.343 -3.7700  0.6095 -1.4263
   81SLPC   H8S 7550   5.175   5.142   3.225 -0.0353  0.8471 -0.7918
   81SLPC   C29 7551   5.071   4.976   3.304  0.2894  0.1597  0.5181
   81SLPC   H9R 7552   5.089   4.902   3.224  2.0412  1.4303 -0.3393
   81SLPC  C210 7553   5.044   4.936   3.433  0.1598 -0.1985 -0.4583
   81SLPC  H10R 7554   5.051   4.831   3.463 -0.2097  0.3031  1.5717
   81SLPC  C211 7555   5.001   5.034   3.548 -0.3935  0.3016  0.0188
   81SLPC  H11R 7556   4.961   4.983   3.638 -1.7157  1.3674  0.0615
   81SLPC  H11S 7557   4.917   5.093   3.505 -0.2894 -1.0187 -2.1201
   81SLPC  C212 7558   5.107   5.126   3.594 -0.5222 -0.4603 -0.1834
   81SLPC  H12R 7559   5.205   5.126   3.543  0.2115  0.3499  1.1575
   81SLPC  C213 7560   5.096   5.205   3.703 -0.2543 -0.6773 -0.0318
   81SLPC  H13R 7561   5.179   5.270   3.734 -0.7855  0.1309 -0.2719
   81SLPC  C214 7562   4.964   5.225   3.781 -0.3377 -0.2105 -0.0887
   81SLPC  H14R 7563   4.879   5.197   3.715  1.1914  2.1697 -3.3471
   81SLPC  H14S 7564   4.949   5.332   3.805  0.6723 -0.3724  1.3751
   81SLPC  C215 7565   4.954   5.157   3.917  0.1443 -1.1183 -0.1446
   81SLPC  H15R 7566   4.938   5.047   3.908 -1.3221 -0.7473 -3.1372
   81SLPC  H15S 7567   4.855   5.182   3.961 -1.0139 -2.7082 -1.7050
   81SLPC  C216 7568   5.064   5.178   4.016 -0.9230  0.1053 -0.1465
   81SLPC  H16R 7569   5.096   5.283   4.001 -0.8123  0.0217 -0.5073
   81SLPC  H16S 7570   5.154   5.117   3.988 -1.8146 -0.0697 -2.9921
   81SLPC  C217 7571   5.037   5.146   4.164 -0.5434 -0.2299  0.3002
   81SLPC  H17R 7572   4.986   5.049   4.184 -2.4805  0.6247 -0.2590
   81SLPC  H17S 7573   4.956   5.218   4.186 -1.4136  0.1208 -3.4209
   81SLPC  C218 7574   5.159   5.155   4.251  0.4072 -0.5081 -0.3922
   81SLPC  H18R 7575   5.247   5.091   4.230 -0.7533 -2.2879 -0.0535
   81SLPC  H18S 7576   5.134   5.132   4.357  2.1961  1.1175  0.4485
   81SLPC  H18T 7577   5.199   5.258   4.241  0.2814 -0.6211 -2.4907
   81SLPC   C33 7578   4.984   4.690   2.918 -0.2715 -0.0711  0.2108
   81SLPC   H3X 7579   4.988   4.613   2.839  0.4253 -0.7018  0.8443
   81SLPC   H3Y 7580   4.892   4.751   2.909  0.6166  0.9380 -3.5010
   81SLPC   C34 7581   4.974   4.606   3.051  0.2439 -0.3833 -0.8226
   81SLPC   H4X 7582   4.987   4.675   3.137 -1.0057 -0.6948 -0.3666
   81SLPC   H4Y 7583   5.064   4.541   3.055 -0.0001 -0.6716  0.1460
   81SLPC   C35 7584   4.851   4.526   3.058  0.2713 -0.3045 -0.0155
   81SLPC   H5X 7585   4.829   4.484   2.957  0.5948  1.2613 -0.7593
   81SLPC   H5Y 7586   4.763   4.594   3.067  1.3898  1.0542  1.0517
   81SLPC   C36 7587   4.857   4.420   3.171  0.2955 -0.7211  0.2266
   81SLPC   H6X 7588   4.963   4.392   3.189  0.2909 -2.5190 -2.0831
   81SLPC   H6Y 7589   4.803   4.327   3.147 -0.3433 -0.6787  1.4434
   81SLPC   C37 7590   4.789   4.471   3.305  0.4309 -0.1022  0.1301
   81SLPC   H7X 7591   4.712   4.546   3.276 -1.1778 -1.8707 -0.3892
   81SLPC   H7Y 7592   4.857   4.543   3.357  2.7556 -0.3722 -2.3315
   81SLPC   C38 7593   4.729   4.372   3.399  0.5468 -0.1150 -0.1364
   81SLPC   H8X 7594   4.796   4.287   3.422  0.1492  0.0921  1.9541
   81SLPC   H8Y 7595   4.634   4.330   3.359 -0.4636  0.4526  1.5652
   81SLPC   C39 7596   4.692   4.439   3.536 -0.2805  1.0057 -0.5797
   81SLPC   H9X 7597   4.598   4.495   3.520  0.0488  1.0825 -2.5024
   81SLPC   H9Y 7598   4.766   4.516   3.568 -0.7857  0.4034  2.2677
   81SLPC  C310 7599   4.701   4.345   3.657  0.3365 -0.6612  0.4247
   81SLPC  H10X 7600   4.798   4.292   3.648  1.1101  0.8774 -0.8999
   81SLPC  H10Y 7601   4.616   4.274   3.670 -1.2197  1.4587  2.5778
   81SLPC  C311 7602   4.717   4.431   3.787  0.3341 -0.2553  0.1805
   81SLPC  H11X 7603   4.645   4.516   3.791  1.3126  0.6481 -0.8756
   81SLPC  H11Y 7604   4.820   4.470   3.794  0.7030 -1.4634  2.3847
   81SLPC  C312 7605   4.695   4.357   3.916 -0.8481 -0.3795 -0.4254
   81SLPC  H12X 7606   4.785   4.295   3.935 -1.8771 -1.7887  0.0524
   81SLPC  H12Y 7607   4.608   4.288   3.911 -2.1054  0.9711  1.4493
   81SLPC  C313 7608   4.682   4.438   4.039 -0.2994  0.2159  0.2897
   81SLPC  H13X 7609   4.593   4.505   4.034  1.2569  2.3219 -1.2226
   81SLPC  H13Y 7610   4.778   4.486   4.067 -1.0426  1.1257  1.3896
   81SLPC  C314 7611   4.665   4.342   4.149 -0.2407  0.8611 -0.4330
   81SLPC  H14X 7612   4.741   4.262   4.136  0.0804  1.0963 -0.0148
   81SLPC  H14Y 7613   4.564   4.295   4.144  0.9081 -2.0057  0.9851
   81SLPC  C315 7614   4.687   4.417   4.280 -0.1217  0.2317 -0.1789
   81SLPC  H15X 7615   4.631   4.513   4.276 -0.8515 -0.1817 -0.0493
   81SLPC  H15Y 7616   4.794   4.445   4.290 -0.4630  0.9486  1.9879
   81SLPC  C316 7617   4.646   4.336   4.403 -0.3188 -0.3188  0.1619
   81SLPC  H16X 7618   4.704   4.242   4.408  0.5560  0.1269 -1.1944
   81SLPC  H16Y 7619   4.536   4.318   4.400 -0.4608  0.4573 -3.0759
   81SLPC  C317 7620   4.661   4.415   4.540  0.0281 -0.6390  0.6464
   81SLPC  H17X 7621   4.592   4.502   4.536 -1.0763 -1.5215 -0.3266
   81SLPC  H17Y 7622   4.762   4.461   4.551  0.0295 -0.2947 -0.6070
   81SLPC  C318 7623   4.621   4.333   4.655  0.1344  0.0730 -0.2142
   81SLPC  H18X 7624   4.686   4.246   4.678  0.9068  0.9613  1.0869
   81SLPC  H18Y 7625   4.520   4.290   4.634 -0.7292  1.4118  0.9545
   81SLPC  H18Z 7626   4.609   4.398   4.744 -1.2477 -1.1432  0.5391
   82SLPC     N 7627   2.882   4.468   2.648 -0.1907  0.4459  0.3507
   82SLPC   C13 7628   2.941   4.520   2.771 -1.3643 -0.2164 -0.0437
   82SLPC  H13A 7629   3.029   4.576   2.743  0.0394 -1.3751  1.8385
   82SLPC  H13B 7630   2.875   4.591   2.819  0.0884  2.0754 -1.2175
   82SLPC  H13C 7631   2.973   4.450   2.846  0.4146  1.6303  1.0292
   82SLPC   C14 7632   2.832   4.584   2.568 -0.0332 -0.4391  0.2878
   82SLPC  H14A 7633   2.781   4.559   2.476 -1.7094  2.3742  0.3340
   82SLPC  H14B 7634   2.758   4.627   2.634 -0.1912  0.0005 -0.1685
   82SLPC  H14C 7635   2.916   4.650   2.553 -1.7656  1.4875 -1.7133
   82SLPC   C15 7636   2.764   4.387   2.684  0.2725 -0.2038 -0.1426
   82SLPC  H15A 7637   2.697   4.374   2.600  2.7364  0.6382 -2.3444
   82SLPC  H15B 7638   2.801   4.291   2.718 -1.2011 -0.3359  1.1917
   82SLPC  H15C 7639   2.701   4.434   2.758  1.5295  1.0200  0.1954
   82SLPC   C12 7640   2.981   4.383   2.571 -0.3083  0.5113  0.8418
   82SLPC  H12A 7641   3.058   4.450   2.535  0.2986 -0.4394  0.3228
   82SLPC  H12B 7642   2.934   4.341   2.484  1.1223 -0.1808  0.3732
   82SLPC   C11 7643   3.051   4.260   2.643  0.0359 -0.1507 -0.2587
   82SLPC  H11A 7644   3.092   4.277   2.744  0.8069  1.7581 -0.8628
   82SLPC  H11B 7645   3.137   4.229   2.580 -0.4262 -2.1149 -0.0064
   82SLPC     P 7646   2.983   4.013   2.713 -0.0434 -0.2987 -0.1355
   82SLPC   O13 7647   2.858   3.943   2.712 -0.1270  0.5264  0.1168
   82SLPC   O14 7648   3.088   3.950   2.629  0.5058 -0.0314 -0.1130
   82SLPC   O12 7649   2.947   4.155   2.648 -0.0417 -0.1910  0.1170
   82SLPC   O11 7650   3.038   4.039   2.859 -0.0355  0.0835  0.7781
   82SLPC    C1 7651   3.081   3.924   2.929 -0.2296 -0.1739 -0.0629
   82SLPC    HA 7652   3.115   3.840   2.864 -1.3875  0.3027 -1.3396
   82SLPC    HB 7653   3.173   3.958   2.980  0.2688  2.0137 -2.1995
   82SLPC    C2 7654   2.993   3.886   3.047 -0.0708  0.8591  0.0926
   82SLPC    HS 7655   2.898   3.846   3.004  0.9597  0.9288 -2.4067
   82SLPC   O21 7656   2.972   3.995   3.131  0.0060  0.0259  0.5408
   82SLPC   C21 7657   2.852   4.009   3.183 -0.3941 -0.3905 -0.6903
   82SLPC   O22 7658   2.755   3.942   3.155 -0.0755 -0.0373  0.0711
   82SLPC   C22 7659   2.851   4.115   3.287  0.4318 -0.0302  0.1163
   82SLPC   H2R 7660   2.886   4.209   3.239 -3.8579  0.4949 -2.5386
   82SLPC   H2S 7661   2.745   4.132   3.316  0.0117  0.7027 -1.7359
   82SLPC    C3 7662   3.060   3.764   3.121 -0.5566 -0.4546 -0.7677
   82SLPC    HX 7663   3.129   3.813   3.193 -1.3867  0.7967 -0.7900
   82SLPC    HY 7664   3.117   3.692   3.058  1.8374  0.1075  0.6294
   82SLPC   O31 7665   2.960   3.689   3.194  0.2901 -0.0625 -0.5043
   82SLPC   C31 7666   2.906   3.588   3.131  0.6271 -0.5369  0.7991
   82SLPC   O32 7667   2.935   3.551   3.020  0.5257 -0.7882 -0.3443
   82SLPC   C32 7668   2.799   3.524   3.209  0.2140  0.2513 -0.3389
   82SLPC   H2X 7669   2.757   3.429   3.168  0.9896 -1.1993  2.0162
   82SLPC   H2Y 7670   2.715   3.595   3.227 -1.2520 -1.1214 -1.4647
   82SLPC   C23 7671   2.947   4.073   3.402 -0.4175  0.7537  0.1483
   82SLPC   H3R 7672   2.963   4.161   3.468 -0.7592  0.4216  0.6809
   82SLPC   H3S 7673   3.047   4.042   3.367 -0.6606 -0.0725  0.1669
   82SLPC   C24 7674   2.901   3.952   3.480  0.5026 -0.1710 -0.8236
   82SLPC   H4R 7675   2.979   3.937   3.558  1.0878 -2.3355 -1.7727
   82SLPC   H4S 7676   2.901   3.868   3.409 -0.3225  1.1534 -2.4577
   82SLPC   C25 7677   2.761   3.968   3.547 -0.5045 -0.1331  0.1392
   82SLPC   H5R 7678   2.694   3.984   3.460 -1.1684 -1.9381  0.2665
   82SLPC   H5S 7679   2.756   4.057   3.612  1.0298 -0.0742  0.2164
   82SLPC   C26 7680   2.718   3.835   3.614  0.2382 -0.4537  0.0199
   82SLPC   H6R 7681   2.696   3.769   3.528 -1.2329  2.6342 -2.1521
   82SLPC   H6S 7682   2.622   3.844   3.669 -1.2814  0.2183 -2.6070
   82SLPC   C27 7683   2.810   3.780   3.718  0.5760  0.0552  0.3711
   82SLPC   H7R 7684   2.894   3.741   3.657  0.0463 -0.3101 -0.1225
   82SLPC   H7S 7685   2.769   3.697   3.779  1.4908  0.1668  1.1752
   82SLPC   C28 7686   2.856   3.885   3.820 -0.3429 -0.0109 -0.0851
   82SLPC   H8R 7687   2.912   3.967   3.770  2.6794 -0.5079  2.2395
   82SLPC   H8S 7688   2.937   3.831   3.874 -0.1485  0.1271 -0.2360
   82SLPC   C29 7689   2.752   3.936   3.914 -0.5695 -0.2753  0.7580
   82SLPC   H9R 7690   2.669   4.000   3.879  0.4240  0.2804 -0.6768
   82SLPC  C210 7691   2.762   3.905   4.044  0.4665 -0.4292  0.1801
   82SLPC  H10R 7692   2.678   3.934   4.109  0.4118 -0.0116 -0.0753
   82SLPC  C211 7693   2.862   3.809   4.101  0.7720 -0.7265  0.1803
   82SLPC  H11R 7694   2.953   3.867   4.129 -0.1230  1.2830 -0.9136
   82SLPC  H11S 7695   2.890   3.730   4.028  1.1497  0.2111 -0.7137
   82SLPC  C212 7696   2.810   3.751   4.231 -0.8974  0.6782  0.3011
   82SLPC  H12R 7697   2.804   3.642   4.221  1.2327  0.7280 -5.7534
   82SLPC  C213 7698   2.802   3.809   4.350 -0.0016  0.4995  0.0490
   82SLPC  H13R 7699   2.751   3.760   4.434 -0.8661  0.5314 -0.4369
   82SLPC  C214 7700   2.837   3.959   4.368 -0.5061 -0.4320 -0.0032
   82SLPC  H14R 7701   2.745   4.019   4.385  0.3657  0.2157  2.9221
   82SLPC  H14S 7702   2.895   4.007   4.286  2.4779  1.2741  2.8531
   82SLPC  C215 7703   2.924   3.980   4.496  0.4457 -0.5506  0.2052
   82SLPC  H15R 7704   2.865   3.931   4.576 -0.1303 -0.4981 -0.1751
   82SLPC  H15S 7705   2.936   4.090   4.512  2.2394 -0.7101  0.1345
   82SLPC  C216 7706   3.064   3.930   4.492  0.6735 -0.6592  0.3853
   82SLPC  H16R 7707   3.111   3.987   4.410 -1.5954  1.6930  0.5715
   82SLPC  H16S 7708   3.053   3.821   4.477 -1.1630 -0.2571 -1.7008
   82SLPC  C217 7709   3.151   3.971   4.620 -0.2064 -0.6711 -0.2727
   82SLPC  H17R 7710   3.095   3.944   4.712 -0.7110  0.5544 -0.2062
   82SLPC  H17S 7711   3.142   4.082   4.625 -1.0149 -0.6424 -1.7321
   82SLPC  C218 7712   3.291   3.917   4.617 -0.5144 -0.0649 -0.0988
   82SLPC  H18R 7713   3.276   3.808   4.631  2.9200 -0.6988 -0.3829
   82SLPC  H18S 7714   3.343   3.964   4.703 -2.9686  1.8994  0.4528
   82SLPC  H18T 7715   3.352   3.940   4.528 -0.8783  2.3136  0.1813
   82SLPC   C33 7716   2.839   3.485   3.349 -0.0032  0.7795  0.1675
   82SLPC   H3X 7717   2.893   3.572   3.393  1.6207 -0.2101  0.1960
   82SLPC   H3Y 7718   2.912   3.402   3.352 -1.0402 -0.2045 -0.5809
   82SLPC   C34 7719   2.734   3.446   3.459  0.8120 -0.1562  0.2954
   82SLPC   H4X 7720   2.697   3.345   3.429  3.5326 -1.7585  1.8749
   82SLPC   H4Y 7721   2.652   3.519   3.473 -1.3351 -2.7357  2.3177
   82SLPC   C35 7722   2.792   3.438   3.596 -0.2789  0.2938 -0.0952
   82SLPC   H5X 7723   2.840   3.536   3.618 -2.4608  1.2333  0.7907
   82SLPC   H5Y 7724   2.877   3.368   3.585 -1.1710 -0.7099 -0.7220
   82SLPC   C36 7725   2.698   3.394   3.714  0.1285  0.3080  0.7442
   82SLPC   H6X 7726   2.639   3.304   3.688  2.1954 -0.7569 -0.4369
   82SLPC   H6Y 7727   2.636   3.486   3.721  0.8460  0.8255  0.4143
   82SLPC   C37 7728   2.778   3.383   3.845 -0.1861  0.5098 -0.5867
   82SLPC   H7X 7729   2.841   3.471   3.871  0.1427  0.2466 -0.4813
   82SLPC   H7Y 7730   2.855   3.303   3.839  0.0375  0.4507  1.9718
   82SLPC   C38 7731   2.686   3.352   3.964 -0.2137  0.0882  0.4683
   82SLPC   H8X 7732   2.629   3.260   3.942  1.0859 -0.9187  1.1707
   82SLPC   H8Y 7733   2.613   3.433   3.984  1.6141  2.6313 -2.1845
   82SLPC   C39 7734   2.768   3.326   4.089 -0.6322 -0.8122  0.0972
   82SLPC   H9X 7735   2.841   3.410   4.085 -2.5038  1.0528  2.2234
   82SLPC   H9Y 7736   2.835   3.237   4.082  1.0714  0.4518 -0.5502
   82SLPC  C310 7737   2.696   3.337   4.221 -0.1584  0.3006 -0.4158
   82SLPC  H10X 7738   2.617   3.258   4.221  0.4501 -0.3584 -1.9058
   82SLPC  H10Y 7739   2.640   3.431   4.238 -0.5436  0.0791 -0.4593
   82SLPC  C311 7740   2.801   3.332   4.335 -0.5095 -0.5189  0.1877
   82SLPC  H11X 7741   2.866   3.421   4.320  0.0180 -0.8612  0.4207
   82SLPC  H11Y 7742   2.869   3.245   4.326 -0.8352 -0.8301  0.6409
   82SLPC  C312 7743   2.747   3.331   4.481 -0.3563  0.5122 -0.1171
   82SLPC  H12X 7744   2.698   3.431   4.492  3.7097  2.7608 -0.3834
   82SLPC  H12Y 7745   2.841   3.339   4.538  1.1921 -0.3391 -2.4188
   82SLPC  C313 7746   2.645   3.231   4.521  0.0224  0.0712  0.4446
   82SLPC  H13X 7747   2.674   3.134   4.475 -0.2104  0.9613 -1.7000
   82SLPC  H13Y 7748   2.547   3.253   4.474 -1.6196 -2.7160  2.2513
   82SLPC  C314 7749   2.613   3.213   4.675  0.1542 -0.0480 -0.1456
   82SLPC  H14X 7750   2.531   3.138   4.673 -0.2545  0.3882 -0.1519
   82SLPC  H14Y 7751   2.569   3.310   4.709 -1.2180 -0.5376 -0.4452
   82SLPC  C315 7752   2.729   3.163   4.762  0.2457 -0.1360 -0.7487
   82SLPC  H15X 7753   2.797   3.249   4.783 -0.0483  0.3419 -1.7251
   82SLPC  H15Y 7754   2.792   3.085   4.714  1.0575  0.0185  0.0253
   82SLPC  C316 7755   2.686   3.104   4.898  0.1732  0.1716  0.1747
   82SLPC  H16X 7756   2.597   3.042   4.878 -0.2154  0.3315  1.3388
   82SLPC  H16Y 7757   2.665   3.174   4.982  0.6279  1.1234 -0.4855
   82SLPC  C317 7758   2.796   3.008   4.956 -0.2413 -0.2261 -0.4080
   82SLPC  H17X 7759   2.840   2.940   4.880 -2.4580 -3.3335  0.8940
   82SLPC  H17Y 7760   2.745   2.929   5.015  2.1700 -0.1278  2.0179
   82SLPC  C318 7761   2.906   3.068   5.049  0.3846 -0.0404 -0.4402
   82SLPC  H18X 7762   2.962   2.981   5.090  1.8754  1.6251  1.2851
   82SLPC  H18Y 7763   2.864   3.133   5.129 -0.7102 -1.0077 -0.2069
   82SLPC  H18Z 7764   2.966   3.137   4.985  0.2556  1.5377  1.0494
   83SLPC     N 7765   4.433   2.841   2.329 -0.3763 -0.1318  0.5476
   83SLPC   C13 7766   4.574   2.793   2.309  0.0052 -0.1622 -0.1880
   83SLPC  H13A 7767   4.559   2.711   2.240 -0.3263  0.4500 -0.8637
   83SLPC  H13B 7768   4.633   2.862   2.249 -0.7759  0.1186 -0.6517
   83SLPC  H13C 7769   4.610   2.753   2.402 -1.5044  0.4199  0.6867
   83SLPC   C14 7770   4.364   2.841   2.195 -0.6087  0.1336 -0.5857
   83SLPC  H14A 7771   4.267   2.886   2.211 -0.9370 -0.1613 -1.6671
   83SLPC  H14B 7772   4.414   2.895   2.116  0.3130  0.3788  0.1391
   83SLPC  H14C 7773   4.359   2.742   2.152 -0.1107 -0.1217 -0.0744
   83SLPC   C15 7774   4.449   2.975   2.395 -0.6664  0.0884  0.0006
   83SLPC  H15A 7775   4.489   3.047   2.325  0.1256 -1.4311 -1.1577
   83SLPC  H15B 7776   4.351   3.011   2.422  0.2502  0.9095  2.5476
   83SLPC  H15C 7777   4.500   2.977   2.490  1.1400 -1.4775 -0.8651
   83SLPC   C12 7778   4.358   2.752   2.423  0.2195 -0.0537  0.4133
   83SLPC  H12A 7779   4.259   2.794   2.435 -0.7946 -1.9541 -0.8241
   83SLPC  H12B 7780   4.394   2.761   2.524 -1.3073 -1.0484  1.0741
   83SLPC   C11 7781   4.343   2.599   2.386 -0.1832 -0.6543  0.0593
   83SLPC  H11A 7782   4.287   2.589   2.291 -0.6481  0.4849  0.1945
   83SLPC  H11B 7783   4.272   2.551   2.457  0.3167  1.1449  1.8941
   83SLPC     P 7784   4.554   2.509   2.516 -0.2251  0.2869 -0.2891
   83SLPC   O13 7785   4.540   2.368   2.546  0.5438  0.3778 -0.1620
   83SLPC   O14 7786   4.696   2.556   2.487  0.0936 -0.4096 -0.3333
   83SLPC   O12 7787   4.466   2.535   2.392  0.2117 -0.9925  0.5617
   83SLPC   O11 7788   4.489   2.585   2.628  0.3179 -0.1743 -0.2225
   83SLPC    C1 7789   4.560   2.648   2.734 -0.2918 -0.5996  0.2193
   83SLPC    HA 7790   4.654   2.690   2.693 -1.4005  0.6545 -1.1682
   83SLPC    HB 7791   4.501   2.734   2.770 -1.1077 -0.8126 -0.5594
   83SLPC    C2 7792   4.583   2.556   2.856  0.1520 -0.2810  0.6299
   83SLPC    HS 7793   4.643   2.470   2.822  0.4862  0.5279 -0.9015
   83SLPC   O21 7794   4.450   2.520   2.900 -0.9166  0.7430 -0.2654
   83SLPC   C21 7795   4.449   2.401   2.972 -0.0937  0.0182  0.3260
   83SLPC   O22 7796   4.548   2.333   3.002  0.1797 -0.4312  0.3524
   83SLPC   C22 7797   4.310   2.363   3.005  0.5130  0.4190 -0.8307
   83SLPC   H2R 7798   4.241   2.444   2.974 -1.4227  0.5772  3.2036
   83SLPC   H2S 7799   4.282   2.279   2.939  0.6576  0.7094 -1.2669
   83SLPC    C3 7800   4.671   2.620   2.967 -0.4502 -0.2993  0.0423
   83SLPC    HX 7801   4.760   2.657   2.912 -1.8822  0.6626 -1.7420
   83SLPC    HY 7802   4.710   2.551   3.045 -2.2257 -1.6634 -0.2137
   83SLPC   O31 7803   4.624   2.741   3.024 -0.3189  0.1307  0.3487
   83SLPC   C31 7804   4.540   2.725   3.128  0.2513 -0.1352  0.1956
   83SLPC   O32 7805   4.513   2.617   3.178 -0.1582 -0.2611  0.2638
   83SLPC   C32 7806   4.479   2.860   3.155 -0.0106 -0.2813 -0.1438
   83SLPC   H2X 7807   4.369   2.854   3.164 -0.3400  3.4595 -0.1593
   83SLPC   H2Y 7808   4.495   2.940   3.080 -1.0624 -0.0313 -0.1167
   83SLPC   C23 7809   4.298   2.323   3.155  0.0956  0.8509  0.4652
   83SLPC   H3R 7810   4.265   2.396   3.232  0.2627  0.3563  1.0041
   83SLPC   H3S 7811   4.393   2.285   3.196 -0.8370  0.0938  1.9797
   83SLPC   C24 7812   4.198   2.204   3.158 -0.4652  0.1272 -0.1215
   83SLPC   H4R 7813   4.218   2.144   3.067 -1.0733  1.7848 -1.4008
   83SLPC   H4S 7814   4.093   2.239   3.148 -0.3529  0.3126 -0.6449
   83SLPC   C25 7815   4.211   2.121   3.287  0.7073  0.3136  0.6145
   83SLPC   H5R 7816   4.318   2.093   3.294  1.0035  0.2781 -2.6024
   83SLPC   H5S 7817   4.149   2.029   3.278  1.7311 -0.2529 -1.3380
   83SLPC   C26 7818   4.168   2.202   3.416 -0.1601 -0.2992  0.6492
   83SLPC   H6R 7819   4.059   2.222   3.426  0.1625  2.3245 -0.2650
   83SLPC   H6S 7820   4.217   2.301   3.419  0.0823 -0.4251  0.8462
   83SLPC   C27 7821   4.232   2.127   3.538  0.1034 -0.1769 -0.2873
   83SLPC   H7R 7822   4.343   2.125   3.539  0.1291 -1.5951  2.3471
   83SLPC   H7S 7823   4.186   2.027   3.554 -1.7677  0.9756  2.4223
   83SLPC   C28 7824   4.204   2.205   3.671 -0.7646 -0.3238  0.1496
   83SLPC   H8R 7825   4.098   2.238   3.673 -1.0088 -1.1074  1.6760
   83SLPC   H8S 7826   4.250   2.306   3.665 -2.0651  0.2090 -2.3173
   83SLPC   C29 7827   4.241   2.136   3.797  0.2851  0.2813 -0.5456
   83SLPC   H9R 7828   4.323   2.062   3.796 -0.0349 -0.2876  2.9930
   83SLPC  C210 7829   4.192   2.171   3.915 -0.2979 -0.0048  0.8492
   83SLPC  H10R 7830   4.220   2.117   4.007 -1.5745 -0.9997  0.6802
   83SLPC  C211 7831   4.088   2.280   3.940  0.1223 -0.5524 -0.3537
   83SLPC  H11R 7832   4.002   2.244   4.001  1.0618 -1.5627  0.4146
   83SLPC  H11S 7833   4.038   2.324   3.851  1.2302 -1.5134 -1.4769
   83SLPC  C212 7834   4.158   2.392   4.010  0.3510 -0.1502 -0.2769
   83SLPC  H12R 7835   4.222   2.447   3.940 -0.8529  0.0592 -1.2629
   83SLPC  C213 7836   4.135   2.439   4.138  0.1579 -0.1441  0.0435
   83SLPC  H13R 7837   4.182   2.528   4.183 -1.3271  1.1580 -0.8902
   83SLPC  C214 7838   4.021   2.379   4.212 -0.0328 -0.3774  0.1708
   83SLPC  H14R 7839   3.928   2.364   4.152 -0.0930 -2.3134  0.6717
   83SLPC  H14S 7840   3.980   2.449   4.288  1.9746  2.9607 -1.5764
   83SLPC  C215 7841   4.054   2.253   4.300 -0.8666 -0.0540 -0.0742
   83SLPC  H15R 7842   4.154   2.263   4.347 -0.3373 -4.5825  0.1981
   83SLPC  H15S 7843   4.064   2.170   4.226 -2.5292 -0.9267  0.6262
   83SLPC  C216 7844   3.949   2.229   4.400 -0.2308  0.1249 -0.8611
   83SLPC  H16R 7845   3.845   2.220   4.362  0.0504 -0.8544 -1.4414
   83SLPC  H16S 7846   3.954   2.317   4.468  0.7761 -0.0624 -0.6730
   83SLPC  C217 7847   3.987   2.109   4.491 -0.4625 -0.5523  0.0532
   83SLPC  H17R 7848   4.006   2.039   4.407  0.8468  3.0159 -2.9121
   83SLPC  H17S 7849   3.903   2.069   4.552  0.1790 -1.6414  0.2373
   83SLPC  C218 7850   4.114   2.128   4.579 -0.2445 -0.8362  0.2785
   83SLPC  H18R 7851   4.093   2.218   4.640  0.8650 -1.2324  1.2699
   83SLPC  H18S 7852   4.206   2.138   4.519  0.1832  0.5841  1.1278
   83SLPC  H18T 7853   4.126   2.039   4.645  1.2098 -0.9284 -0.0887
   83SLPC   C33 7854   4.527   2.924   3.289 -0.4595 -0.4164 -0.5788
   83SLPC   H3X 7855   4.634   2.896   3.304 -0.1778  1.0665  0.3477
   83SLPC   H3Y 7856   4.466   2.884   3.373  2.6576 -1.6743  1.2591
   83SLPC   C34 7857   4.523   3.077   3.294 -0.4485 -0.3980 -0.5270
   83SLPC   H4X 7858   4.416   3.107   3.300 -0.0724  1.5558 -2.2201
   83SLPC   H4Y 7859   4.560   3.114   3.196 -0.1464 -1.3507 -0.7872
   83SLPC   C35 7860   4.595   3.139   3.412 -1.1119 -0.9204  0.1646
   83SLPC   H5X 7861   4.577   3.248   3.422  1.4212 -0.3529 -0.7196
   83SLPC   H5Y 7862   4.699   3.131   3.373 -2.4296 -1.2607 -3.7021
   83SLPC   C36 7863   4.561   3.064   3.538  0.7535  0.4463  0.2290
   83SLPC   H6X 7864   4.596   2.959   3.532  0.3833  0.3247  0.1696
   83SLPC   H6Y 7865   4.450   3.065   3.546  0.5899 -0.0025 -1.5235
   83SLPC   C37 7866   4.616   3.132   3.668  0.1712  0.2650  0.1106
   83SLPC   H7X 7867   4.589   3.240   3.674 -1.6588 -0.1863  0.9875
   83SLPC   H7Y 7868   4.726   3.123   3.681  0.2113  1.5577  0.9088
   83SLPC   C38 7869   4.554   3.066   3.797 -0.1094 -0.4010 -0.0212
   83SLPC   H8X 7870   4.582   2.958   3.799  0.9464 -0.1692 -0.8360
   83SLPC   H8Y 7871   4.445   3.065   3.779 -0.5395 -0.8130  2.3447
   83SLPC   C39 7872   4.593   3.133   3.932 -0.0303  0.1907 -0.6192
   83SLPC   H9X 7873   4.541   3.230   3.945 -0.2489 -0.0436  0.3334
   83SLPC   H9Y 7874   4.702   3.156   3.936  0.3370 -1.4072 -0.7004
   83SLPC  C310 7875   4.555   3.058   4.062  0.3089  0.1928  0.0487
   83SLPC  H10X 7876   4.600   2.957   4.074 -0.5049 -0.1014  0.7170
   83SLPC  H10Y 7877   4.446   3.038   4.057  0.3051 -0.0431  0.8634
   83SLPC  C311 7878   4.605   3.131   4.193 -0.6884 -1.5523 -0.0230
   83SLPC  H11X 7879   4.577   3.238   4.191  2.7419 -0.4862  1.2294
   83SLPC  H11Y 7880   4.716   3.140   4.197 -0.7911 -0.4077  0.6280
   83SLPC  C312 7881   4.553   3.079   4.328  0.5617 -0.3262 -0.1384
   83SLPC  H12X 7882   4.444   3.059   4.320  0.6073 -1.3997  1.3852
   83SLPC  H12Y 7883   4.562   3.163   4.400  1.8906 -0.2139 -0.4118
   83SLPC  C313 7884   4.637   2.973   4.397  0.3523 -0.1007  0.5330
   83SLPC  H13X 7885   4.740   2.969   4.355 -0.3850  0.7024 -1.5014
   83SLPC  H13Y 7886   4.595   2.880   4.353  4.1434 -1.7226 -0.1143
   83SLPC  C314 7887   4.639   2.958   4.549  0.4281 -0.2212  0.1873
   83SLPC  H14X 7888   4.698   2.866   4.567 -0.4022 -0.4954  1.6958
   83SLPC  H14Y 7889   4.532   2.953   4.578  0.8430  1.0952  2.1021
   83SLPC  C315 7890   4.719   3.065   4.621 -0.6379 -0.2174 -0.2002
   83SLPC  H15X 7891   4.692   3.061   4.729  1.5750  1.0121  0.4603
   83SLPC  H15Y 7892   4.693   3.167   4.586  1.3806  1.1051  1.8364
   83SLPC  C316 7893   4.870   3.053   4.617  0.2864 -0.3417 -0.5888
   83SLPC  H16X 7894   4.908   3.038   4.514 -1.4070  1.4210 -1.5411
   83SLPC  H16Y 7895   4.897   2.965   4.680  0.4769  0.4728  0.4855
   83SLPC  C317 7896   4.931   3.181   4.678  0.1729  0.1878 -0.2265
   83SLPC  H17X 7897   4.889   3.178   4.781  0.5069  1.1462 -0.0535
   83SLPC  H17Y 7898   4.876   3.264   4.630  0.1906  0.2671 -0.1096
   83SLPC  C318 7899   5.083   3.188   4.678  0.1501  0.6697  0.3715
   83SLPC  H18X 7900   5.117   3.267   4.748  0.0972 -0.0185  1.2004
   83SLPC  H18Y 7901   5.114   3.206   4.573 -0.8069 -0.2398 -0.0839
   83SLPC  H18Z 7902   5.121   3.092   4.719 -1.4374  0.4948  1.5307
   84SLPC     N 7903   5.221   6.034   2.005 -0.0799 -0.1281  0.2004
   84SLPC   C13 7904   5.334   5.932   2.014 -0.1448 -0.2913 -0.3493
   84SLPC  H13A 7905   5.421   5.995   2.021 -1.1459  1.3115 -1.5714
   84SLPC  H13B 7906   5.328   5.877   2.107 -2.0215  1.3427  0.5667
   84SLPC  H13C 7907   5.341   5.851   1.943 -0.9718 -0.3531 -0.3721
   84SLPC   C14 7908   5.092   5.963   2.024  0.1885 -0.4388  0.5318
   84SLPC  H14A 7909   5.000   6.020   2.014  2.8608  4.1914 -0.9493
   84SLPC  H14B 7910   5.088   5.880   1.956 -0.4770  1.0344 -1.3328
   84SLPC  H14C 7911   5.092   5.916   2.121  0.3514 -0.3555  0.5725
   84SLPC   C15 7912   5.225   6.091   1.863  0.6106  0.4705 -0.7993
   84SLPC  H15A 7913   5.141   6.156   1.845 -2.1224 -2.2752  1.1011
   84SLPC  H15B 7914   5.328   6.123   1.855  1.4160 -1.1407  1.7119
   84SLPC  H15C 7915   5.216   6.009   1.794  1.6720 -1.5671  1.3287
   84SLPC   C12 7916   5.238   6.146   2.093  0.0725 -0.6320 -0.9001
   84SLPC  H12A 7917   5.168   6.227   2.076  1.7934  0.6263 -2.3798
   84SLPC  H12B 7918   5.330   6.202   2.081 -0.8046  0.7768 -1.3887
   84SLPC   C11 7919   5.231   6.113   2.250 -0.8022  0.6282  0.1363
   84SLPC  H11A 7920   5.288   6.197   2.294  3.0780 -0.4858 -2.3157
   84SLPC  H11B 7921   5.289   6.019   2.260 -1.3759  0.2563 -0.0083
   84SLPC     P 7922   4.993   6.208   2.317  0.0741  0.0746  0.0823
   84SLPC   O13 7923   5.026   6.315   2.218  0.0407 -0.2395  0.6808
   84SLPC   O14 7924   4.854   6.153   2.321 -0.4246  0.3347 -0.1298
   84SLPC   O12 7925   5.098   6.088   2.301 -0.3861 -0.2020 -0.6180
   84SLPC   O11 7926   5.025   6.268   2.460 -0.0406 -0.5036 -0.9256
   84SLPC    C1 7927   4.946   6.221   2.567 -0.0751 -0.5624 -0.0860
   84SLPC    HA 7928   4.950   6.301   2.644 -1.9615  1.3890 -1.8854
   84SLPC    HB 7929   4.836   6.216   2.551 -0.1473 -0.0807  0.2353
   84SLPC    C2 7930   5.017   6.097   2.625 -0.6572 -0.1130 -0.3939
   84SLPC    HS 7931   4.997   6.015   2.552 -2.2062  0.6773 -0.9131
   84SLPC   O21 7932   4.967   6.059   2.754  0.3717 -0.0351 -0.1440
   84SLPC   C21 7933   4.843   6.025   2.754  0.5689  0.3471 -0.7296
   84SLPC   O22 7934   4.771   5.992   2.660  0.0707 -0.1403  0.0548
   84SLPC   C22 7935   4.791   6.037   2.894 -0.1003 -0.8286  0.1378
   84SLPC   H2R 7936   4.875   5.997   2.955  0.4184  1.3259  0.9522
   84SLPC   H2S 7937   4.781   6.143   2.925 -1.8882 -0.9381  0.0309
   84SLPC    C3 7938   5.173   6.113   2.637 -0.6091 -0.1791  0.1247
   84SLPC    HX 7939   5.204   6.122   2.530 -0.1232  1.0498  0.3572
   84SLPC    HY 7940   5.211   6.016   2.676  0.3027  0.5058  0.9879
   84SLPC   O31 7941   5.212   6.226   2.719  0.1852  0.0623 -0.5166
   84SLPC   C31 7942   5.343   6.254   2.699  0.4999 -0.0809  0.1530
   84SLPC   O32 7943   5.414   6.190   2.622  0.0322 -0.4269 -0.0069
   84SLPC   C32 7944   5.388   6.364   2.795 -0.2441  0.1456 -0.5687
   84SLPC   H2X 7945   5.339   6.350   2.894  0.4258 -1.7915 -0.4692
   84SLPC   H2Y 7946   5.355   6.463   2.756  0.6491  0.4407 -0.6127
   84SLPC   C23 7947   4.665   5.956   2.914 -0.1604  0.1602  0.2060
   84SLPC   H3R 7948   4.667   5.872   2.842 -2.5119 -0.1765  0.4473
   84SLPC   H3S 7949   4.580   6.022   2.886 -0.6720 -1.3282 -1.9704
   84SLPC   C24 7950   4.647   5.902   3.050 -0.0738  0.6718  0.3258
   84SLPC   H4R 7951   4.539   5.876   3.050  0.2721 -0.8859  0.8269
   84SLPC   H4S 7952   4.674   5.983   3.121  2.0383  0.6012 -0.3424
   84SLPC   C25 7953   4.729   5.779   3.085  0.3555  0.4501 -0.4240
   84SLPC   H5R 7954   4.839   5.793   3.091  0.6361 -1.6825  0.3698
   84SLPC   H5S 7955   4.705   5.707   3.004  0.4047 -2.2488  1.8021
   84SLPC   C26 7956   4.688   5.702   3.214 -0.4106  0.2837  0.3220
   84SLPC   H6R 7957   4.730   5.600   3.199 -0.7179  0.3448 -1.0425
   84SLPC   H6S 7958   4.578   5.685   3.216 -0.2823 -0.8127  2.9441
   84SLPC   C27 7959   4.739   5.756   3.349  0.2445 -0.1388 -0.6851
   84SLPC   H7R 7960   4.688   5.700   3.430 -0.7853 -0.7937 -1.7437
   84SLPC   H7S 7961   4.712   5.863   3.360  0.2308 -0.2887  0.9169
   84SLPC   C28 7962   4.887   5.738   3.373  0.2630  0.3888 -0.4457
   84SLPC   H8R 7963   4.904   5.796   3.467 -0.9719  1.4335 -0.8305
   84SLPC   H8S 7964   4.945   5.789   3.293 -0.1008 -0.9238 -1.5800
   84SLPC   C29 7965   4.915   5.593   3.414  0.1392 -0.5528 -0.5451
   84SLPC   H9R 7966   4.837   5.556   3.482 -0.5998  1.9133  0.0511
   84SLPC  C210 7967   5.028   5.525   3.384 -0.1951 -0.4922  0.3181
   84SLPC  H10R 7968   5.040   5.418   3.407  0.4812 -0.2743  1.0298
   84SLPC  C211 7969   5.149   5.579   3.312  0.2458  0.2674 -0.0333
   84SLPC  H11R 7970   5.143   5.689   3.297  3.2564  0.2917 -1.8600
   84SLPC  H11S 7971   5.157   5.529   3.213 -1.3984 -0.5146  0.1882
   84SLPC  C212 7972   5.267   5.559   3.415 -0.5503  0.4959 -0.0447
   84SLPC  H12R 7973   5.246   5.594   3.517  2.1739  3.4103 -0.3349
   84SLPC  C213 7974   5.386   5.511   3.372 -0.2995  0.4580  0.8294
   84SLPC  H13R 7975   5.472   5.512   3.441  1.3309 -1.7191 -1.0080
   84SLPC  C214 7976   5.429   5.466   3.226 -0.1477 -0.3763 -0.0629
   84SLPC  H14R 7977   5.537   5.462   3.201 -0.3400 -1.1988 -0.8133
   84SLPC  H14S 7978   5.394   5.547   3.159  2.4090  0.1133 -0.9145
   84SLPC  C215 7979   5.381   5.328   3.189  0.1685  0.2280 -0.1611
   84SLPC  H15R 7980   5.270   5.323   3.194  0.2055 -0.3729  0.1078
   84SLPC  H15S 7981   5.428   5.250   3.252  0.7658  0.4707 -0.2966
   84SLPC  C216 7982   5.404   5.307   3.039 -0.2348 -0.2079  0.9393
   84SLPC  H16R 7983   5.376   5.394   2.976 -1.8901 -1.6531 -0.4229
   84SLPC  H16S 7984   5.331   5.233   3.001  0.0944  0.2353 -0.6177
   84SLPC  C217 7985   5.551   5.265   3.014  0.4038 -0.6646 -0.2746
   84SLPC  H17R 7986   5.564   5.173   3.075 -3.3859 -1.1245  0.0699
   84SLPC  H17S 7987   5.610   5.356   3.039 -0.8122  0.1040 -0.1587
   84SLPC  C218 7988   5.593   5.242   2.862 -0.3073  0.4195  0.2013
   84SLPC  H18R 7989   5.577   5.324   2.789 -0.5326 -0.0265 -0.2552
   84SLPC  H18S 7990   5.526   5.164   2.820  0.4401 -0.9265  1.4012
   84SLPC  H18T 7991   5.697   5.206   2.848 -0.6283 -0.5388  0.2127
   84SLPC   C33 7992   5.547   6.375   2.811 -0.2119  0.4395  0.0123
   84SLPC   H3X 7993   5.581   6.478   2.835  0.4338 -0.1868  1.9858
   84SLPC   H3Y 7994   5.605   6.353   2.719 -0.0987  2.2796 -0.3963
   84SLPC   C34 7995   5.594   6.277   2.924 -0.2756  0.1833  0.4157
   84SLPC   H4X 7996   5.704   6.269   2.909 -0.2584  0.7821  0.1962
   84SLPC   H4Y 7997   5.553   6.174   2.916 -0.2062  0.0289  1.7511
   84SLPC   C35 7998   5.590   6.324   3.068 -0.3851  0.0593  1.8027
   84SLPC   H5X 7999   5.482   6.309   3.090 -0.6084 -1.2140  0.0753
   84SLPC   H5Y 8000   5.636   6.424   3.078 -0.2233  0.4246 -1.4670
   84SLPC   C36 8001   5.678   6.243   3.169 -1.2387 -0.4194 -0.0809
   84SLPC   H6X 8002   5.784   6.256   3.140 -0.6848 -2.1654  1.0373
   84SLPC   H6Y 8003   5.661   6.134   3.163  1.2145 -0.7912 -2.3792
   84SLPC   C37 8004   5.648   6.301   3.314 -0.6033  0.1047 -0.4770
   84SLPC   H7X 8005   5.538   6.309   3.328 -0.6110 -1.9987  1.0995
   84SLPC   H7Y 8006   5.691   6.403   3.328 -0.2851 -0.3298  2.2751
   84SLPC   C38 8007   5.703   6.206   3.411  0.8906  0.1167  0.6884
   84SLPC   H8X 8008   5.804   6.178   3.374  0.0808 -2.0203 -0.0415
   84SLPC   H8Y 8009   5.651   6.109   3.398  4.4484 -1.9493  0.5976
   84SLPC   C39 8010   5.705   6.237   3.559 -0.0898  0.1711 -0.2606
   84SLPC   H9X 8011   5.603   6.230   3.603 -1.4371 -0.0926 -3.1999
   84SLPC   H9Y 8012   5.733   6.343   3.575 -1.3583  0.1509  2.6712
   84SLPC  C310 8013   5.800   6.150   3.642  0.2350 -0.1892  0.5722
   84SLPC  H10X 8014   5.905   6.168   3.610  0.1991 -0.6099  0.2072
   84SLPC  H10Y 8015   5.785   6.042   3.617  1.4562 -0.8093  2.2990
   84SLPC  C311 8016   5.766   6.166   3.795  0.2452  0.2392  0.3495
   84SLPC  H11X 8017   5.756   6.273   3.823 -1.5050  0.5799 -1.3653
   84SLPC  H11Y 8018   5.856   6.126   3.847 -0.2017 -1.4053 -0.1127
   84SLPC  C312 8019   5.642   6.092   3.851  0.6988  0.3325  0.2652
   84SLPC  H12X 8020   5.653   5.985   3.824  0.5907  0.1913  0.7759
   84SLPC  H12Y 8021   5.551   6.124   3.795  1.5640  0.5412 -1.0652
   84SLPC  C313 8022   5.626   6.079   4.004  0.3273  0.4820  0.8037
   84SLPC  H13X 8023   5.640   6.177   4.055  1.6427  0.2258  0.9700
   84SLPC  H13Y 8024   5.702   6.010   4.046  1.5725  1.7640  0.7447
   84SLPC  C314 8025   5.489   6.016   4.047  0.2338 -0.1183  0.1608
   84SLPC  H14X 8026   5.479   5.915   4.003 -0.0016 -0.2101  0.4230
   84SLPC  H14Y 8027   5.411   6.079   3.999 -0.3259 -1.6842 -1.0807
   84SLPC  C315 8028   5.469   5.999   4.207 -0.4905  0.4891  0.9679
   84SLPC  H15X 8029   5.358   5.989   4.216 -0.3781 -3.2637 -0.0005
   84SLPC  H15Y 8030   5.499   6.093   4.257 -0.9871 -1.0649  4.4869
   84SLPC  C316 8031   5.548   5.889   4.270 -0.1402  0.4629  0.3572
   84SLPC  H16X 8032   5.656   5.912   4.256 -0.4607  1.3330 -0.8400
   84SLPC  H16Y 8033   5.533   5.788   4.227 -0.5000 -0.1738  1.9003
   84SLPC  C317 8034   5.518   5.879   4.422 -0.1532 -0.1387  0.0876
   84SLPC  H17X 8035   5.564   5.967   4.473  1.6860  0.3987 -2.3318
   84SLPC  H17Y 8036   5.582   5.798   4.463  1.4154  1.0264  0.0393
   84SLPC  C318 8037   5.376   5.855   4.457  0.3249 -0.0244 -0.1970
   84SLPC  H18X 8038   5.336   5.763   4.409  1.9293 -0.7424 -0.2570
   84SLPC  H18Y 8039   5.301   5.933   4.433 -0.7324 -0.6555  0.9703
   84SLPC  H18Z 8040   5.380   5.837   4.566  0.2460 -0.0053 -0.1907
   85SLPC     N 8041   0.002   2.351   2.353  0.1523  0.0720 -0.0520
   85SLPC   C13 8042  -0.131   2.329   2.285  0.1797 -0.4057 -0.5899
   85SLPC  H13A 8043  -0.196   2.379   2.355  1.0720  0.1772 -0.1661
   85SLPC  H13B 8044  -0.135   2.380   2.190 -1.3223  0.3318 -0.1680
   85SLPC  H13C 8045  -0.162   2.226   2.275  1.2620 -0.6151 -2.1317
   85SLPC   C14 8046   0.027   2.492   2.332  0.8686 -0.9597 -0.2094
   85SLPC  H14A 8047  -0.054   2.552   2.372  0.7252 -1.4067  0.1876
   85SLPC  H14B 8048   0.110   2.534   2.388  0.9965  2.3717 -2.6047
   85SLPC  H14C 8049   0.049   2.513   2.229  2.1888 -0.3831  0.1653
   85SLPC   C15 8050   0.111   2.265   2.284 -0.0034 -0.5101 -0.3846
   85SLPC  H15A 8051   0.120   2.298   2.182 -3.2734  1.2590 -0.2398
   85SLPC  H15B 8052   0.201   2.283   2.341 -1.0286  2.0988  0.5902
   85SLPC  H15C 8053   0.085   2.160   2.290 -0.9620 -0.2937 -0.5741
   85SLPC   C12 8054  -0.006   2.315   2.499  0.3053  0.1761  0.5208
   85SLPC  H12A 8055   0.096   2.318   2.534 -0.1664 -0.3783  2.0263
   85SLPC  H12B 8056  -0.043   2.214   2.501  1.9198 -0.5021 -0.8649
   85SLPC   C11 8057  -0.078   2.410   2.594  0.2785  0.0917 -0.3487
   85SLPC  H11A 8058  -0.018   2.504   2.601  2.2087 -0.9858 -1.4965
   85SLPC  H11B 8059  -0.095   2.374   2.697 -3.3033 -1.1230 -1.2433
   85SLPC     P 8060  -0.279   2.583   2.548 -0.3321 -0.3024 -0.3399
   85SLPC   O13 8061  -0.180   2.689   2.570  0.2396 -0.0385 -0.4384
   85SLPC   O14 8062  -0.368   2.585   2.430  0.5577  0.1279  0.0386
   85SLPC   O12 8063  -0.203   2.448   2.546  0.3439 -0.0145 -0.3806
   85SLPC   O11 8064  -0.371   2.586   2.675 -0.0030  0.1260  0.4769
   85SLPC    C1 8065  -0.351   2.504   2.791  1.1552 -0.4339  0.0230
   85SLPC    HA 8066  -0.349   2.395   2.767 -0.4203 -0.3025 -0.8052
   85SLPC    HB 8067  -0.253   2.534   2.834  0.4663  0.6239  0.9040
   85SLPC    C2 8068  -0.462   2.527   2.897 -0.4127  0.3692 -0.7396
   85SLPC    HS 8069  -0.473   2.633   2.930 -1.6012 -0.1682  0.6984
   85SLPC   O21 8070  -0.447   2.439   3.014 -0.3205  0.1276  0.4682
   85SLPC   C21 8071  -0.347   2.487   3.095 -0.5924  0.4132  0.4970
   85SLPC   O22 8072  -0.298   2.599   3.084  0.0768  0.2822 -0.1847
   85SLPC   C22 8073  -0.300   2.375   3.187 -0.4869  0.2042 -0.0221
   85SLPC   H2R 8074  -0.333   2.279   3.142 -0.3923  0.7849 -1.3911
   85SLPC   H2S 8075  -0.191   2.376   3.207 -0.8157  1.9584  2.0840
   85SLPC    C3 8076  -0.597   2.495   2.832  0.0530  0.1692  0.5125
   85SLPC    HX 8077  -0.596   2.396   2.783  0.7693  0.1368  0.5826
   85SLPC    HY 8078  -0.605   2.559   2.741  1.7808  1.5060  1.2408
   85SLPC   O31 8079  -0.712   2.506   2.920 -0.0556  0.5114 -0.0347
   85SLPC   C31 8080  -0.763   2.624   2.940  0.4544 -0.3022  0.4198
   85SLPC   O32 8081  -0.724   2.732   2.895 -0.3892  0.3646 -0.2787
   85SLPC   C32 8082  -0.905   2.603   3.011 -0.8167  0.3724  0.9542
   85SLPC   H2X 8083  -0.941   2.497   3.008 -1.9403  0.7448  0.3828
   85SLPC   H2Y 8084  -0.969   2.660   2.940 -0.7561  0.2172  0.7721
   85SLPC   C23 8085  -0.377   2.376   3.332 -0.3797  0.2465 -0.0642
   85SLPC   H3R 8086  -0.351   2.286   3.391 -2.9100 -0.4376  0.1176
   85SLPC   H3S 8087  -0.487   2.380   3.320 -0.4241 -0.8014 -0.1027
   85SLPC   C24 8088  -0.332   2.498   3.421 -0.2651  0.5111 -0.4762
   85SLPC   H4R 8089  -0.355   2.592   3.366 -0.5515  0.2134 -0.8788
   85SLPC   H4S 8090  -0.222   2.491   3.429 -0.3602  0.7186  1.5638
   85SLPC   C25 8091  -0.393   2.505   3.560 -0.0594  0.5053 -0.9131
   85SLPC   H5R 8092  -0.325   2.568   3.620 -1.4226  0.3000  0.9204
   85SLPC   H5S 8093  -0.488   2.562   3.570  0.5615  1.0759  2.8499
   85SLPC   C26 8094  -0.412   2.368   3.625  0.6152 -0.1537  1.2000
   85SLPC   H6R 8095  -0.314   2.317   3.615  0.3881 -0.6819  1.6022
   85SLPC   H6S 8096  -0.486   2.314   3.564  1.0011 -0.2640  0.8247
   85SLPC   C27 8097  -0.457   2.368   3.768 -0.4424 -0.2850 -0.4838
   85SLPC   H7R 8098  -0.568   2.363   3.768 -0.4246 -1.3402  0.9319
   85SLPC   H7S 8099  -0.415   2.459   3.816  0.9929  1.1065 -4.0059
   85SLPC   C28 8100  -0.412   2.239   3.848 -0.8037  0.0182  0.2987
   85SLPC   H8R 8101  -0.302   2.251   3.838 -1.2101  1.7761 -3.6825
   85SLPC   H8S 8102  -0.444   2.149   3.792 -0.0777 -1.5835  2.3296
   85SLPC   C29 8103  -0.456   2.224   3.991 -0.5967 -0.0014  0.1212
   85SLPC   H9R 8104  -0.518   2.135   4.009  0.5205 -0.7573  0.3643
   85SLPC  C210 8105  -0.415   2.302   4.095  1.0888  0.2372 -0.4193
   85SLPC  H10R 8106  -0.454   2.275   4.194 -0.6626  0.2240 -1.0749
   85SLPC  C211 8107  -0.319   2.416   4.102  0.8429  0.0779 -0.4329
   85SLPC  H11R 8108  -0.256   2.429   4.011  0.4136 -0.2405 -0.7802
   85SLPC  H11S 8109  -0.244   2.401   4.181 -0.5373  2.5282  1.4997
   85SLPC  C212 8110  -0.399   2.549   4.117 -0.4513  0.7082 -0.0759
   85SLPC  H12R 8111  -0.495   2.554   4.063  0.4786  3.1816 -1.6802
   85SLPC  C213 8112  -0.371   2.652   4.189  0.3926 -0.3352  0.3471
   85SLPC  H13R 8113  -0.436   2.741   4.182 -0.4812 -1.0480 -1.0454
   85SLPC  C214 8114  -0.246   2.658   4.283  0.8898  0.1467  0.0516
   85SLPC  H14R 8115  -0.166   2.680   4.210 -1.5647  2.2039 -2.2422
   85SLPC  H14S 8116  -0.226   2.555   4.320 -2.5338 -0.8496 -0.4709
   85SLPC  C215 8117  -0.245   2.758   4.403 -0.2901 -0.6193 -0.2406
   85SLPC  H15R 8118  -0.243   2.866   4.379 -1.2026 -0.3171  0.9480
   85SLPC  H15S 8119  -0.152   2.737   4.460 -0.0651 -1.2305 -0.8284
   85SLPC  C216 8120  -0.358   2.737   4.505  0.0823 -0.4351  0.3810
   85SLPC  H16R 8121  -0.364   2.633   4.544 -0.0408 -1.8989 -3.1431
   85SLPC  H16S 8122  -0.461   2.754   4.467 -0.0259 -2.8600 -0.6230
   85SLPC  C217 8123  -0.349   2.844   4.608 -0.4719 -0.2889 -0.3822
   85SLPC  H17R 8124  -0.363   2.945   4.564 -1.3757 -1.1319 -2.1009
   85SLPC  H17S 8125  -0.249   2.832   4.655 -1.1794 -1.1518  0.9560
   85SLPC  C218 8126  -0.457   2.827   4.716 -0.1587 -1.2131 -0.1221
   85SLPC  H18R 8127  -0.467   2.922   4.773  2.1868 -0.4570 -0.9019
   85SLPC  H18S 8128  -0.433   2.741   4.782 -2.3902 -0.1268  2.2678
   85SLPC  H18T 8129  -0.559   2.803   4.677 -0.4082  0.0732 -0.3153
   85SLPC   C33 8130  -0.898   2.656   3.154 -0.2532 -0.6393 -0.7766
   85SLPC   H3X 8131  -1.001   2.639   3.191  0.2926 -2.9236 -0.1479
   85SLPC   H3Y 8132  -0.878   2.765   3.150  3.0716 -1.1485 -1.0780
   85SLPC   C34 8133  -0.787   2.602   3.247  0.2360  0.4197  0.1436
   85SLPC   H4X 8134  -0.740   2.686   3.303  2.0955 -0.7118  0.3531
   85SLPC   H4Y 8135  -0.706   2.569   3.179 -0.3738 -2.0558  0.5486
   85SLPC   C35 8136  -0.829   2.482   3.341  0.3000 -0.1433  0.6255
   85SLPC   H5X 8137  -0.746   2.422   3.383  2.0465  1.4503 -0.4135
   85SLPC   H5Y 8138  -0.889   2.420   3.271 -0.4224  1.4943 -0.2704
   85SLPC   C36 8139  -0.933   2.537   3.444 -0.0765  0.0808  0.2851
   85SLPC   H6X 8140  -1.001   2.607   3.392  0.0016  1.2270  1.6528
   85SLPC   H6Y 8141  -0.885   2.597   3.525 -0.8468  0.1056  0.7310
   85SLPC   C37 8142  -1.031   2.434   3.516 -0.0399 -0.2269 -0.2088
   85SLPC   H7X 8143  -0.967   2.344   3.523  1.0880  0.4743 -1.0029
   85SLPC   H7Y 8144  -1.114   2.418   3.443 -0.7448 -1.9522  0.9243
   85SLPC   C38 8145  -1.093   2.485   3.645 -0.4366  0.0511 -0.3831
   85SLPC   H8X 8146  -1.181   2.421   3.669 -0.8977  1.1558  1.0292
   85SLPC   H8Y 8147  -1.125   2.586   3.611  1.5074  0.2117 -1.9228
   85SLPC   C39 8148  -0.998   2.475   3.768 -0.5281  0.6335  0.0161
   85SLPC   H9X 8149  -1.032   2.538   3.852 -2.7280 -1.1650  0.5689
   85SLPC   H9Y 8150  -0.901   2.512   3.729 -1.2660  0.4915 -2.1022
   85SLPC  C310 8151  -0.966   2.333   3.820 -0.3423 -0.5365 -0.5443
   85SLPC  H10X 8152  -0.918   2.282   3.734  1.7074  1.4246 -0.6458
   85SLPC  H10Y 8153  -1.062   2.284   3.848 -0.7955 -0.2599 -1.5345
   85SLPC  C311 8154  -0.851   2.334   3.926  0.1175  0.6069 -0.0054
   85SLPC  H11X 8155  -0.750   2.358   3.887  1.5786 -5.1201 -0.7427
   85SLPC  H11Y 8156  -0.837   2.232   3.969 -2.8446 -0.4998 -1.3461
   85SLPC  C312 8157  -0.896   2.404   4.045  0.1193 -0.3803 -0.6521
   85SLPC  H12X 8158  -0.992   2.359   4.077 -0.9905  1.3061 -1.4415
   85SLPC  H12Y 8159  -0.916   2.513   4.038 -0.4758 -0.4069  0.4801
   85SLPC  C313 8160  -0.785   2.388   4.155 -0.0365 -0.0879  0.0367
   85SLPC  H13X 8161  -0.684   2.416   4.117 -0.4371  1.0038 -0.2548
   85SLPC  H13Y 8162  -0.782   2.282   4.186 -0.8568  0.6595  2.9999
   85SLPC  C314 8163  -0.822   2.475   4.273 -0.2638  0.3166  0.6372
   85SLPC  H14X 8164  -0.907   2.432   4.330  1.8640 -1.2489  2.8828
   85SLPC  H14Y 8165  -0.853   2.572   4.228 -0.5678  0.2940  0.7928
   85SLPC  C315 8166  -0.699   2.490   4.371  1.0177 -0.4828  0.9235
   85SLPC  H15X 8167  -0.729   2.566   4.446 -1.7637 -0.3581 -0.1661
   85SLPC  H15Y 8168  -0.610   2.534   4.322 -0.3133  1.0802 -0.2244
   85SLPC  C316 8169  -0.650   2.356   4.441  0.2648  0.1564 -0.4339
   85SLPC  H16X 8170  -0.665   2.269   4.374  4.1403 -2.1793  1.3864
   85SLPC  H16Y 8171  -0.696   2.353   4.542  4.4433  1.5577  1.7367
   85SLPC  C317 8172  -0.498   2.361   4.480 -0.4549 -0.9977  0.1678
   85SLPC  H17X 8173  -0.444   2.438   4.421 -0.6603 -0.2741  0.9191
   85SLPC  H17Y 8174  -0.452   2.260   4.474 -0.6623 -1.0378 -1.1197
   85SLPC  C318 8175  -0.476   2.385   4.635 -0.0915  0.1420  0.2327
   85SLPC  H18X 8176  -0.540   2.322   4.700  0.1440  0.6282  0.9525
   85SLPC  H18Y 8177  -0.494   2.491   4.662  1.8617  0.5370  0.1439
   85SLPC  H18Z 8178  -0.367   2.368   4.655 -0.1590 -0.0473  0.4451
   86SLPC     N 8179   2.226   1.908   2.632 -0.0292 -0.1617  0.1828
   86SLPC   C13 8180   2.194   1.831   2.763  0.5500 -0.5071  0.1342
   86SLPC  H13A 8181   2.281   1.811   2.823  0.1628  2.0401  1.6710
   86SLPC  H13B 8182   2.123   1.879   2.828  0.1916 -0.5122 -0.2508
   86SLPC  H13C 8183   2.141   1.740   2.738 -1.4862  0.3206  1.1980
   86SLPC   C14 8184   2.287   2.040   2.683 -0.0870 -0.3957  0.9206
   86SLPC  H14A 8185   2.376   2.009   2.737  0.0555 -0.9629  0.3779
   86SLPC  H14B 8186   2.311   2.097   2.595  1.0722  0.6938  1.9096
   86SLPC  H14C 8187   2.220   2.092   2.750 -0.4142 -2.4139  2.2805
   86SLPC   C15 8188   2.107   1.923   2.549 -0.0625 -0.2126  0.7199
   86SLPC  H15A 8189   2.083   1.822   2.521 -0.5305 -0.1779  0.9862
   86SLPC  H15B 8190   2.027   1.969   2.606 -1.1139  1.2057 -1.7580
   86SLPC  H15C 8191   2.126   1.978   2.458  1.2068 -2.3594 -0.3859
   86SLPC   C12 8192   2.341   1.824   2.563  0.8346 -0.6637 -0.0599
   86SLPC  H12A 8193   2.365   1.877   2.471  0.5359 -0.7489 -0.1883
   86SLPC  H12B 8194   2.292   1.735   2.527 -1.2519  0.5996 -0.5268
   86SLPC   C11 8195   2.464   1.788   2.637 -0.4489  0.1700  0.2843
   86SLPC  H11A 8196   2.493   1.883   2.687  1.7433 -0.9578  1.3398
   86SLPC  H11B 8197   2.551   1.776   2.569 -1.8766  0.8477 -1.7326
   86SLPC     P 8198   2.474   1.537   2.694  0.3097  0.2487 -0.1630
   86SLPC   O13 8199   2.377   1.453   2.765 -0.4508  0.9473 -0.0344
   86SLPC   O14 8200   2.469   1.526   2.545 -0.2262 -0.4393 -0.1049
   86SLPC   O12 8201   2.443   1.686   2.732 -0.2498  0.5165  0.1450
   86SLPC   O11 8202   2.623   1.503   2.739  0.3861 -0.1949  0.0211
   86SLPC    C1 8203   2.675   1.577   2.849  0.0319  0.1088  0.2456
   86SLPC    HA 8204   2.785   1.581   2.836 -0.0424 -0.5649 -0.6932
   86SLPC    HB 8205   2.639   1.682   2.845 -0.9865 -0.2717 -1.6445
   86SLPC    C2 8206   2.629   1.515   2.975 -0.7963  0.5184 -0.7758
   86SLPC    HS 8207   2.632   1.405   2.959 -0.0610  0.7663 -2.5728
   86SLPC   O21 8208   2.502   1.567   3.005 -0.2792  0.3156  0.6205
   86SLPC   C21 8209   2.412   1.482   3.050 -0.6108  0.4396 -0.1373
   86SLPC   O22 8210   2.433   1.362   3.078 -0.5616  0.3512  0.6942
   86SLPC   C22 8211   2.275   1.540   3.067  0.0727  0.5597  0.2190
   86SLPC   H2R 8212   2.276   1.642   3.023  1.5439 -0.0957 -1.3913
   86SLPC   H2S 8213   2.209   1.482   2.999  1.1154  0.8305 -1.0806
   86SLPC    C3 8214   2.725   1.546   3.101 -0.4467  0.3095  0.3444
   86SLPC    HX 8215   2.718   1.656   3.114 -0.7373  0.2647  0.5830
   86SLPC    HY 8216   2.826   1.505   3.080 -0.2223 -0.8625  3.2979
   86SLPC   O31 8217   2.673   1.484   3.225 -0.6483 -0.4654 -0.3768
   86SLPC   C31 8218   2.741   1.369   3.266  0.9701 -0.4626  0.5676
   86SLPC   O32 8219   2.845   1.325   3.222 -0.6889  0.1230 -0.5069
   86SLPC   C32 8220   2.655   1.305   3.375  0.2082 -0.2473 -0.5282
   86SLPC   H2X 8221   2.647   1.194   3.371 -1.2202 -0.1757 -0.3662
   86SLPC   H2Y 8222   2.548   1.324   3.349  0.0734 -1.9662 -1.4249
   86SLPC   C23 8223   2.209   1.538   3.210  0.1631 -0.5724  1.0346
   86SLPC   H3R 8224   2.214   1.431   3.242  0.1127 -0.8741  0.0888
   86SLPC   H3S 8225   2.104   1.570   3.196  0.8714  0.3413 -4.0750
   86SLPC   C24 8226   2.289   1.620   3.315 -0.2032 -0.1633  0.1874
   86SLPC   H4R 8227   2.268   1.728   3.304  2.3835  0.4633  0.7904
   86SLPC   H4S 8228   2.396   1.597   3.294 -0.0954  1.5132 -1.2948
   86SLPC   C25 8229   2.270   1.580   3.462 -0.1379 -0.5906 -0.0140
   86SLPC   H5R 8230   2.290   1.473   3.484  1.3825 -0.9193 -2.5720
   86SLPC   H5S 8231   2.166   1.596   3.498  0.2320 -0.1681  0.9088
   86SLPC   C26 8232   2.366   1.661   3.557  0.3381  0.2333 -0.4237
   86SLPC   H6R 8233   2.351   1.769   3.535 -3.6342 -0.1184 -0.0825
   86SLPC   H6S 8234   2.471   1.630   3.535  0.2148 -2.6679  2.2582
   86SLPC   C27 8235   2.329   1.652   3.705 -0.2447 -0.4213  0.4178
   86SLPC   H7R 8236   2.232   1.702   3.724  1.1476  3.5283 -1.7428
   86SLPC   H7S 8237   2.393   1.727   3.757  0.5462 -1.0910  0.4271
   86SLPC   C28 8238   2.353   1.521   3.775  1.2704 -1.1651  0.1676
   86SLPC   H8R 8239   2.459   1.497   3.754  1.3101 -0.6614 -0.2535
   86SLPC   H8S 8240   2.287   1.449   3.722  0.0083  0.0901 -0.0401
   86SLPC   C29 8241   2.301   1.528   3.918 -0.1670  0.5357  0.6997
   86SLPC   H9R 8242   2.219   1.459   3.945 -1.2075  0.0938 -3.0583
   86SLPC  C210 8243   2.369   1.579   4.027  0.1424  0.6262 -0.0212
   86SLPC  H10R 8244   2.326   1.578   4.128 -0.9614 -1.2763 -0.4631
   86SLPC  C211 8245   2.507   1.648   4.018 -0.7509  0.4395 -0.0832
   86SLPC  H11R 8246   2.494   1.756   3.996  1.9508  1.1943  1.5811
   86SLPC  H11S 8247   2.573   1.595   3.947  2.8302  2.8560  1.1420
   86SLPC  C212 8248   2.582   1.633   4.148  0.2176  1.1169  0.5865
   86SLPC  H12R 8249   2.665   1.561   4.149  1.3195  2.3505  0.0351
   86SLPC  C213 8250   2.607   1.721   4.239  0.1978  0.2646 -0.5937
   86SLPC  H13R 8251   2.636   1.675   4.335 -1.1324 -0.9827 -0.7495
   86SLPC  C214 8252   2.555   1.861   4.250  0.4860  0.5290  0.2166
   86SLPC  H14R 8253   2.469   1.886   4.184 -1.4071 -0.6876  2.0494
   86SLPC  H14S 8254   2.633   1.939   4.250  2.3650 -1.2451  1.1729
   86SLPC  C215 8255   2.485   1.872   4.391 -0.2037 -0.2862  0.1569
   86SLPC  H15R 8256   2.410   1.794   4.415  1.0904 -0.9724  2.2593
   86SLPC  H15S 8257   2.428   1.967   4.383  1.8175  0.8633 -1.9119
   86SLPC  C216 8258   2.590   1.873   4.506 -0.6999  0.4742 -0.3358
   86SLPC  H16R 8259   2.680   1.812   4.484 -0.2435  1.1058 -0.2343
   86SLPC  H16S 8260   2.539   1.837   4.598 -0.5504  0.1215 -0.3906
   86SLPC  C217 8261   2.642   2.011   4.533  0.8075 -0.0813 -0.4844
   86SLPC  H17R 8262   2.548   2.069   4.545  1.1761  0.1881  1.4941
   86SLPC  H17S 8263   2.696   2.045   4.442  0.5392 -2.0452 -1.4270
   86SLPC  C218 8264   2.734   2.005   4.657 -0.3717 -0.2141 -0.2446
   86SLPC  H18R 8265   2.693   1.957   4.748  1.4296 -0.8863  0.2637
   86SLPC  H18S 8266   2.772   2.104   4.688  2.7741 -1.4164  0.0895
   86SLPC  H18T 8267   2.825   1.947   4.631  1.4275  2.4689 -0.3276
   86SLPC   C33 8268   2.702   1.359   3.512  0.2143  0.3960  0.1228
   86SLPC   H3X 8269   2.623   1.324   3.582 -0.1360  0.8570 -0.0379
   86SLPC   H3Y 8270   2.705   1.470   3.514 -2.2360  0.5428 -0.8602
   86SLPC   C34 8271   2.820   1.299   3.579 -0.8788 -0.5382  0.0300
   86SLPC   H4X 8272   2.912   1.359   3.562 -0.4483 -1.9185 -3.0870
   86SLPC   H4Y 8273   2.842   1.195   3.547  0.3477 -0.5872  0.9229
   86SLPC   C35 8274   2.803   1.287   3.734  0.4468 -0.4710  0.3340
   86SLPC   H5X 8275   2.889   1.255   3.795 -0.4267  1.7841  2.9175
   86SLPC   H5Y 8276   2.733   1.201   3.743  0.9780 -0.9154  0.2979
   86SLPC   C36 8277   2.757   1.411   3.805 -0.0018 -0.4823 -0.2091
   86SLPC   H6X 8278   2.651   1.403   3.837  0.0789 -1.4639 -0.1702
   86SLPC   H6Y 8279   2.747   1.498   3.736 -0.3091  0.3410  0.8397
   86SLPC   C37 8280   2.835   1.450   3.933 -0.5594 -0.5609 -0.4856
   86SLPC   H7X 8281   2.802   1.544   3.983 -1.1654 -2.0193  2.0077
   86SLPC   H7Y 8282   2.945   1.457   3.922  0.1108 -2.8874  3.0146
   86SLPC   C38 8283   2.816   1.343   4.038 -0.8686 -0.0519 -0.2891
   86SLPC   H8X 8284   2.843   1.246   3.991  3.0106  0.6555  0.1666
   86SLPC   H8Y 8285   2.712   1.327   4.074 -0.5840  0.7268  0.9320
   86SLPC   C39 8286   2.921   1.363   4.149 -0.1529  0.7025 -0.5098
   86SLPC   H9X 8287   2.945   1.468   4.174  0.4923  0.1621  1.3234
   86SLPC   H9Y 8288   3.022   1.328   4.120  0.2650  1.1206  0.4110
   86SLPC  C310 8289   2.876   1.292   4.279  0.1681  0.7844  0.0932
   86SLPC  H10X 8290   2.853   1.189   4.246  2.0926  0.3932 -0.1311
   86SLPC  H10Y 8291   2.782   1.334   4.321 -0.3830  1.1982 -1.4942
   86SLPC  C311 8292   2.981   1.289   4.396  0.2177  0.4404 -0.0094
   86SLPC  H11X 8293   2.975   1.389   4.443  0.5269 -0.2169  1.4821
   86SLPC  H11Y 8294   3.083   1.276   4.353 -0.2190 -1.6986 -0.4938
   86SLPC  C312 8295   2.968   1.186   4.504  0.2727  0.2237  0.3320
   86SLPC  H12X 8296   2.995   1.088   4.460 -1.9622  0.4713 -1.7868
   86SLPC  H12Y 8297   2.867   1.179   4.549 -0.0508  0.8601 -0.2729
   86SLPC  C313 8298   3.058   1.208   4.625 -0.5311  0.3990  0.5021
   86SLPC  H13X 8299   3.009   1.292   4.679  2.2906  2.9147 -0.5639
   86SLPC  H13Y 8300   3.160   1.242   4.596 -1.6235  2.7993 -0.8286
   86SLPC  C314 8301   3.058   1.087   4.717  0.2199  0.0306  0.8896
   86SLPC  H14X 8302   2.955   1.046   4.718 -0.5604  1.8841  1.3738
   86SLPC  H14Y 8303   3.093   1.129   4.813  2.9278  0.5117 -0.2183
   86SLPC  C315 8304   3.159   0.985   4.668 -0.1159  0.4688 -0.5664
   86SLPC  H15X 8305   3.260   1.030   4.668  0.4222 -0.6413 -2.1455
   86SLPC  H15Y 8306   3.155   0.961   4.560 -1.2128 -0.1023 -0.4237
   86SLPC  C316 8307   3.170   0.864   4.764  0.1081  0.2362 -0.3001
   86SLPC  H16X 8308   3.075   0.807   4.762  0.2502 -0.0284  0.3387
   86SLPC  H16Y 8309   3.180   0.906   4.866  0.0773  0.0618 -0.2264
   86SLPC  C317 8310   3.279   0.758   4.733  0.5954  0.8110 -0.1642
   86SLPC  H17X 8311   3.374   0.810   4.757  0.1576  2.5880 -1.9634
   86SLPC  H17Y 8312   3.295   0.723   4.629 -1.0882 -2.7583  0.6109
   86SLPC  C318 8313   3.251   0.641   4.824  0.3986  0.2670 -0.1245
   86SLPC  H18X 8314   3.174   0.572   4.783  0.8530  0.0581 -0.6452
   86SLPC  H18Y 8315   3.227   0.668   4.929 -1.8663 -4.2428  0.7860
   86SLPC  H18Z 8316   3.345   0.584   4.841  0.3793  0.6052  1.1885
   87SLPC     N 8317   1.131   6.514   2.346 -0.4136 -0.6606 -0.4049
   87SLPC   C13 8318   1.007   6.579   2.407 -0.1885 -0.0649  0.5744
   87SLPC  H13A 8319   0.922   6.538   2.355  1.0957  0.0609 -1.7289
   87SLPC  H13B 8320   0.993   6.549   2.510  0.2566 -0.4586  0.5231
   87SLPC  H13C 8321   1.017   6.687   2.413 -1.3388  0.0540  0.5358
   87SLPC   C14 8322   1.099   6.371   2.357 -0.0822 -0.2365  0.0717
   87SLPC  H14A 8323   1.101   6.346   2.462  0.9244  1.3661  0.4717
   87SLPC  H14B 8324   0.997   6.353   2.327 -0.1107 -0.3922  0.2624
   87SLPC  H14C 8325   1.178   6.313   2.312  0.2429 -0.2902  0.7086
   87SLPC   C15 8326   1.253   6.535   2.422 -0.1487  0.0952 -0.0734
   87SLPC  H15A 8327   1.287   6.636   2.434  1.1654 -0.2065 -0.9835
   87SLPC  H15B 8328   1.245   6.490   2.520 -0.6573 -4.6269 -1.9745
   87SLPC  H15C 8329   1.338   6.484   2.378  0.1016  0.5659 -0.1390
   87SLPC   C12 8330   1.143   6.554   2.203 -0.2848  0.3897  0.1071
   87SLPC  H12A 8331   1.159   6.660   2.193 -1.4105  0.3742 -2.8301
   87SLPC  H12B 8332   1.045   6.544   2.158  0.4838 -0.3798 -1.5084
   87SLPC   C11 8333   1.234   6.469   2.112 -0.0602  0.2660 -0.0843
   87SLPC  H11A 8334   1.239   6.530   2.019  1.6584  0.3085  0.0053
   87SLPC  H11B 8335   1.185   6.372   2.091  2.0934 -0.7065 -0.9479
   87SLPC     P 8336   1.496   6.518   2.126  0.0731 -0.0181 -0.0587
   87SLPC   O13 8337   1.539   6.448   2.007  0.6287 -0.1525 -0.2697
   87SLPC   O14 8338   1.473   6.664   2.112  0.0585  0.1237 -0.1732
   87SLPC   O12 8339   1.363   6.445   2.177 -0.1585 -0.1534 -0.1784
   87SLPC   O11 8340   1.610   6.487   2.237  0.4032 -0.4429  0.3120
   87SLPC    C1 8341   1.592   6.557   2.364 -0.5090 -0.2513  0.1085
   87SLPC    HA 8342   1.658   6.646   2.375 -1.0720  0.2918 -0.7748
   87SLPC    HB 8343   1.492   6.602   2.387  0.1827  3.0659 -2.4995
   87SLPC    C2 8344   1.618   6.460   2.484 -0.4288 -0.4264 -0.2489
   87SLPC    HS 8345   1.716   6.416   2.455 -0.5377 -0.5427 -0.4461
   87SLPC   O21 8346   1.513   6.356   2.500 -0.3230 -0.2139 -0.3678
   87SLPC   C21 8347   1.568   6.239   2.535 -0.2583 -0.4404  0.4006
   87SLPC   O22 8348   1.689   6.213   2.522  0.1550  0.9758 -0.4360
   87SLPC   C22 8349   1.466   6.143   2.594  0.6461  0.1348 -0.1045
   87SLPC   H2R 8350   1.374   6.200   2.621  0.2419  0.4080 -1.9431
   87SLPC   H2S 8351   1.438   6.075   2.512  0.5038  1.6130 -1.3260
   87SLPC    C3 8352   1.635   6.534   2.619  0.4905  0.7638  0.4474
   87SLPC    HX 8353   1.693   6.626   2.598 -0.9010  1.7115  0.6240
   87SLPC    HY 8354   1.692   6.467   2.686 -2.8497 -1.5106  1.2956
   87SLPC   O31 8355   1.512   6.565   2.673  0.8962 -0.7378 -0.4626
   87SLPC   C31 8356   1.472   6.494   2.777  0.7926  0.1897 -0.0497
   87SLPC   O32 8357   1.530   6.406   2.833 -0.1601 -0.0628 -0.3713
   87SLPC   C32 8358   1.349   6.558   2.835  0.5393  0.4289  0.0277
   87SLPC   H2X 8359   1.260   6.498   2.804  1.6152  0.4896 -3.6827
   87SLPC   H2Y 8360   1.345   6.660   2.791 -2.5400  1.1552  1.6971
   87SLPC   C23 8361   1.524   6.079   2.720  1.0070  0.0619  0.7702
   87SLPC   H3R 8362   1.588   6.145   2.782 -0.3734  0.4476  1.8397
   87SLPC   H3S 8363   1.588   5.992   2.690  0.4621 -0.0815  0.0233
   87SLPC   C24 8364   1.406   6.029   2.819  1.2758  0.3113 -0.6833
   87SLPC   H4R 8365   1.453   5.938   2.862 -0.7936  0.7353  2.8152
   87SLPC   H4S 8366   1.315   6.002   2.760  1.7948  1.1577 -1.9247
   87SLPC   C25 8367   1.357   6.137   2.925  0.2178  0.4943 -0.0179
   87SLPC   H5R 8368   1.310   6.222   2.872  1.7195  0.6814 -1.1031
   87SLPC   H5S 8369   1.449   6.181   2.969  0.4813  0.1424 -0.2088
   87SLPC   C26 8370   1.278   6.081   3.042 -0.8136 -0.3459 -0.7869
   87SLPC   H6R 8371   1.323   5.993   3.092  0.6211  0.1628 -1.1552
   87SLPC   H6S 8372   1.181   6.048   2.999 -1.5328 -0.5877  0.9344
   87SLPC   C27 8373   1.250   6.182   3.148  0.1366 -0.5383 -0.3066
   87SLPC   H7R 8374   1.208   6.276   3.106  0.5684 -0.1331  0.1389
   87SLPC   H7S 8375   1.335   6.219   3.210 -1.9050 -0.1814  2.4682
   87SLPC   C28 8376   1.142   6.120   3.242 -0.3468  0.4871 -0.2755
   87SLPC   H8R 8377   1.192   6.027   3.277  0.6676  0.3379 -2.0069
   87SLPC   H8S 8378   1.057   6.087   3.179  0.5494 -3.3125  0.2824
   87SLPC   C29 8379   1.101   6.212   3.355 -0.4687  0.1479 -0.5794
   87SLPC   H9R 8380   1.056   6.302   3.311 -0.2669  0.9361  0.7815
   87SLPC  C210 8381   1.094   6.196   3.494 -0.3614 -0.5237  0.4936
   87SLPC  H10R 8382   1.050   6.279   3.552 -1.7506 -0.6582 -0.3266
   87SLPC  C211 8383   1.141   6.078   3.565 -0.4875  0.4474  0.0250
   87SLPC  H11R 8384   1.243   6.105   3.599  0.1236 -0.6241 -0.9219
   87SLPC  H11S 8385   1.148   5.996   3.491 -0.5310 -0.1585  0.6766
   87SLPC  C212 8386   1.043   6.061   3.679  0.5841  0.4888  0.2241
   87SLPC  H12R 8387   0.940   6.056   3.641  1.3155 -1.0542 -1.7402
   87SLPC  C213 8388   1.065   6.053   3.815  0.3141 -0.3002  0.9835
   87SLPC  H13R 8389   0.976   6.026   3.873 -1.7006  1.7268 -0.9315
   87SLPC  C214 8390   1.187   6.089   3.901  0.7872 -0.4610  1.0011
   87SLPC  H14R 8391   1.153   6.172   3.967 -0.7746 -0.8952  0.7949
   87SLPC  H14S 8392   1.265   6.122   3.829 -1.4096 -0.9261 -1.7686
   87SLPC  C215 8393   1.242   5.974   3.987 -0.0384  0.1117  0.0368
   87SLPC  H15R 8394   1.152   5.961   4.051 -0.7571  1.0875 -0.7402
   87SLPC  H15S 8395   1.330   6.011   4.044 -1.2028  1.4667  1.0176
   87SLPC  C216 8396   1.283   5.851   3.903 -0.3518 -0.7239 -0.0588
   87SLPC  H16R 8397   1.381   5.856   3.850 -0.1414 -2.1466  0.1709
   87SLPC  H16S 8398   1.198   5.841   3.832 -0.9099 -0.5449  0.5752
   87SLPC  C217 8399   1.299   5.723   3.987 -0.0324 -0.3545 -0.0405
   87SLPC  H17R 8400   1.320   5.646   3.910 -2.1297  1.1762 -2.3316
   87SLPC  H17S 8401   1.207   5.691   4.041 -1.0217  0.7079 -1.0180
   87SLPC  C218 8402   1.418   5.746   4.085 -0.2093  0.0962  0.3304
   87SLPC  H18R 8403   1.404   5.837   4.148 -0.8643 -0.9927  1.8279
   87SLPC  H18S 8404   1.507   5.760   4.020 -0.1577  1.2475  0.6122
   87SLPC  H18T 8405   1.429   5.664   4.159  0.8531  0.9319  1.1397
   87SLPC   C33 8406   1.359   6.559   2.988  0.6307 -0.3197  0.5533
   87SLPC   H3X 8407   1.413   6.648   3.026 -0.2648  0.3234  0.3494
   87SLPC   H3Y 8408   1.411   6.469   3.028 -0.5042 -1.9159 -1.3633
   87SLPC   C34 8409   1.218   6.565   3.067 -0.8404 -0.0268  0.0638
   87SLPC   H4X 8410   1.166   6.474   3.030  1.3336 -0.4050 -2.4617
   87SLPC   H4Y 8411   1.150   6.643   3.028 -3.0709 -1.5475  0.7606
   87SLPC   C35 8412   1.229   6.558   3.214 -0.2157 -0.6773 -0.0424
   87SLPC   H5X 8413   1.338   6.547   3.234 -0.1999 -0.7511 -0.1691
   87SLPC   H5Y 8414   1.182   6.477   3.272  1.3554  0.3106  2.8353
   87SLPC   C36 8415   1.180   6.693   3.289 -0.6102  0.1996  0.2607
   87SLPC   H6X 8416   1.071   6.707   3.305 -1.0727  0.7626 -2.7034
   87SLPC   H6Y 8417   1.213   6.773   3.218 -0.7962 -0.4511 -0.5731
   87SLPC   C37 8418   1.243   6.710   3.424 -1.1307  0.1973 -0.3395
   87SLPC   H7X 8419   1.234   6.815   3.457 -0.6011  0.1411 -0.0022
   87SLPC   H7Y 8420   1.353   6.697   3.418 -1.3482 -2.6642  0.2715
   87SLPC   C38 8421   1.182   6.623   3.540  0.6388  0.7515  0.0440
   87SLPC   H8X 8422   1.231   6.524   3.535 -0.5822  0.1965 -3.0992
   87SLPC   H8Y 8423   1.073   6.613   3.519  0.7128 -0.1918  0.1071
   87SLPC   C39 8424   1.201   6.688   3.678 -0.2921 -0.0610  0.8359
   87SLPC   H9X 8425   1.143   6.783   3.669 -1.4984 -0.9314 -1.6581
   87SLPC   H9Y 8426   1.311   6.707   3.679 -0.5578  1.6294  1.4882
   87SLPC  C310 8427   1.154   6.598   3.791  0.3793 -0.1120 -0.2091
   87SLPC  H10X 8428   1.203   6.499   3.785  1.9706  0.6284  0.0708
   87SLPC  H10Y 8429   1.046   6.572   3.780  0.5820 -1.9165  1.6265
   87SLPC  C311 8430   1.168   6.662   3.937  0.0965  1.1765 -0.7034
   87SLPC  H11X 8431   1.099   6.748   3.951 -0.8860  0.1775  0.8692
   87SLPC  H11Y 8432   1.275   6.687   3.956  0.4837 -0.2345 -0.9557
   87SLPC  C312 8433   1.133   6.552   4.032  0.1755  0.1721 -0.4778
   87SLPC  H12X 8434   1.197   6.464   4.007  1.3538 -0.4201  3.8352
   87SLPC  H12Y 8435   1.030   6.519   4.009  0.0780 -0.6034  0.9620
   87SLPC  C313 8436   1.147   6.588   4.172 -0.7659  0.4129  0.3457
   87SLPC  H13X 8437   1.076   6.666   4.209  0.6800  0.9160  2.2658
   87SLPC  H13Y 8438   1.249   6.623   4.200 -0.6652  2.4577 -2.1898
   87SLPC  C314 8439   1.109   6.473   4.261 -0.5440 -0.0073 -0.2032
   87SLPC  H14X 8440   1.164   6.378   4.245  0.6783  0.2240  2.1702
   87SLPC  H14Y 8441   1.001   6.450   4.254 -1.3853  2.7920  1.7857
   87SLPC  C315 8442   1.142   6.508   4.409  0.5107 -0.0811  0.1587
   87SLPC  H15X 8443   1.069   6.584   4.445 -1.4754 -2.2929  1.0409
   87SLPC  H15Y 8444   1.243   6.555   4.410  0.0694  0.8943  0.7872
   87SLPC  C316 8445   1.128   6.389   4.499 -0.4378  0.8055 -0.1150
   87SLPC  H16X 8446   1.021   6.361   4.503 -0.6883  1.8024  0.4599
   87SLPC  H16Y 8447   1.147   6.427   4.601 -1.6067  0.1763  0.3464
   87SLPC  C317 8448   1.218   6.273   4.457  0.2551  0.3785  0.4841
   87SLPC  H17X 8449   1.320   6.304   4.425  0.9177 -1.5844  0.5837
   87SLPC  H17Y 8450   1.170   6.224   4.370  0.5039 -0.3588  0.7595
   87SLPC  C318 8451   1.241   6.176   4.581 -0.2585 -0.1459  0.2888
   87SLPC  H18X 8452   1.283   6.226   4.671 -1.3577 -0.1627  0.8327
   87SLPC  H18Y 8453   1.302   6.087   4.555 -0.6215 -0.7394  1.4079
   87SLPC  H18Z 8454   1.143   6.138   4.617 -1.7324  2.2237 -0.9664
   88SLPC     N 8455   0.546   0.888   2.857  0.3458  0.0927 -0.4925
   88SLPC   C13 8456   0.527   0.942   2.722 -0.1796 -0.3600 -0.3331
   88SLPC  H13A 8457   0.593   1.025   2.703 -0.1496 -0.1521  0.6245
   88SLPC  H13B 8458   0.541   0.864   2.649  2.1806 -0.7222  0.4288
   88SLPC  H13C 8459   0.430   0.989   2.713  0.7087  1.5817 -0.3513
   88SLPC   C14 8460   0.440   0.780   2.883 -1.5796 -0.4384  0.0641
   88SLPC  H14A 8461   0.344   0.826   2.903 -1.2936 -0.2189  0.9331
   88SLPC  H14B 8462   0.442   0.719   2.793  0.7989  1.6168 -1.4126
   88SLPC  H14C 8463   0.474   0.719   2.965 -0.8800  0.3912  0.4014
   88SLPC   C15 8464   0.515   1.005   2.941 -0.2988  0.2790  0.0331
   88SLPC  H15A 8465   0.529   0.983   3.046  0.1123  2.9532  0.6214
   88SLPC  H15B 8466   0.583   1.084   2.913  1.4681 -1.3011 -0.2895
   88SLPC  H15C 8467   0.415   1.043   2.926 -1.1129 -1.4575  0.8060
   88SLPC   C12 8468   0.691   0.842   2.885 -0.1299 -0.0611 -0.4718
   88SLPC  H12A 8469   0.699   0.745   2.839 -0.8347  0.2174 -1.2192
   88SLPC  H12B 8470   0.692   0.829   2.992 -1.2126  0.6069 -0.3654
   88SLPC   C11 8471   0.818   0.937   2.857 -0.0662 -0.0018  0.4528
   88SLPC  H11A 8472   0.831   0.960   2.749  2.3424 -3.3322 -0.1339
   88SLPC  H11B 8473   0.906   0.877   2.886 -1.8585 -1.6990  2.6707
   88SLPC     P 8474   0.905   1.168   2.957 -0.0574 -0.6630 -0.4329
   88SLPC   O13 8475   1.017   1.148   2.866  0.5540  0.3285 -0.3815
   88SLPC   O14 8476   0.840   1.302   2.946  0.1134 -0.5057 -0.0957
   88SLPC   O12 8477   0.800   1.055   2.942  0.5856  0.3676  0.0515
   88SLPC   O11 8478   0.951   1.139   3.107  0.0255  0.4682 -0.0075
   88SLPC    C1 8479   0.883   1.181   3.226 -0.2674 -0.2459 -0.2329
   88SLPC    HA 8480   0.969   1.192   3.296 -1.5633 -0.6593  1.4833
   88SLPC    HB 8481   0.847   1.286   3.220  5.0101  1.8131 -2.0876
   88SLPC    C2 8482   0.794   1.070   3.292 -0.0623 -0.0914 -0.4879
   88SLPC    HS 8483   0.693   1.087   3.248  0.1033  2.4117 -0.0091
   88SLPC   O21 8484   0.803   1.106   3.431  0.5946  0.4143 -1.0453
   88SLPC   C21 8485   0.706   1.180   3.486  0.2163  0.0150  0.7976
   88SLPC   O22 8486   0.623   1.234   3.418 -0.0030 -0.1082  0.0329
   88SLPC   C22 8487   0.726   1.199   3.639  0.3983  0.2856  0.2766
   88SLPC   H2R 8488   0.833   1.230   3.646  0.0830  1.1774  1.7029
   88SLPC   H2S 8489   0.661   1.281   3.677 -1.4400  0.3661 -2.7619
   88SLPC    C3 8490   0.825   0.922   3.257  0.1634  0.7887 -0.9935
   88SLPC    HX 8491   0.934   0.906   3.272 -0.3332 -0.6260  1.8171
   88SLPC    HY 8492   0.813   0.917   3.147  0.3823  1.5370 -1.0544
   88SLPC   O31 8493   0.749   0.826   3.338 -0.3210  0.1318  0.2915
   88SLPC   C31 8494   0.623   0.807   3.304 -0.0955  0.3300 -0.1554
   88SLPC   O32 8495   0.570   0.849   3.202  0.3111  0.1905 -0.2560
   88SLPC   C32 8496   0.560   0.715   3.412 -0.4065  1.2580 -0.3673
   88SLPC   H2X 8497   0.543   0.612   3.374 -1.6685  2.3344 -3.0069
   88SLPC   H2Y 8498   0.455   0.751   3.425 -0.9278 -0.7719  1.6224
   88SLPC   C23 8499   0.694   1.068   3.714  0.5198 -0.9964  0.1767
   88SLPC   H3R 8500   0.762   0.988   3.679 -0.5064 -1.3163 -1.1678
   88SLPC   H3S 8501   0.588   1.040   3.699  0.4306 -1.0982  0.9607
   88SLPC   C24 8502   0.713   1.077   3.871 -0.2536  0.5519  0.2696
   88SLPC   H4R 8503   0.700   0.978   3.921 -0.0370  1.0548  1.3341
   88SLPC   H4S 8504   0.632   1.138   3.915  0.4138  0.9515  0.9573
   88SLPC   C25 8505   0.851   1.136   3.919  0.1263  0.6901  0.4845
   88SLPC   H5R 8506   0.848   1.243   3.891  0.8959  0.2270 -1.5598
   88SLPC   H5S 8507   0.918   1.090   3.843 -3.0229  0.5197 -2.4223
   88SLPC   C26 8508   0.896   1.104   4.067  0.0215 -0.2393 -0.7809
   88SLPC   H6R 8509   0.996   1.149   4.082  0.5469 -1.6018 -0.0419
   88SLPC   H6S 8510   0.905   0.994   4.075 -0.5716 -0.1160  4.1210
   88SLPC   C27 8511   0.794   1.153   4.174  0.1571 -0.1759 -0.1442
   88SLPC   H7R 8512   0.707   1.084   4.160 -1.1424  1.4507 -0.4338
   88SLPC   H7S 8513   0.752   1.251   4.141 -1.5447 -1.3307 -1.6681
   88SLPC   C28 8514   0.823   1.144   4.320 -0.2445  1.0969  0.2216
   88SLPC   H8R 8515   0.928   1.177   4.333  1.1964 -3.4577  2.5644
   88SLPC   H8S 8516   0.840   1.039   4.352  1.7455  1.7240  1.4182
   88SLPC   C29 8517   0.734   1.223   4.412 -0.1696 -0.8271  0.5070
   88SLPC   H9R 8518   0.718   1.325   4.374  3.0220  0.7621  2.9753
   88SLPC  C210 8519   0.683   1.191   4.528 -0.3972  0.0780 -0.7592
   88SLPC  H10R 8520   0.613   1.264   4.571 -1.3789 -0.3785 -1.5339
   88SLPC  C211 8521   0.699   1.052   4.590  0.1782  0.4802  0.5000
   88SLPC  H11R 8522   0.776   0.984   4.547  0.2257  1.5080 -1.1091
   88SLPC  H11S 8523   0.604   0.999   4.566  1.8567 -2.1877 -0.7816
   88SLPC  C212 8524   0.715   1.071   4.734 -1.3989  0.5740 -0.7119
   88SLPC  H12R 8525   0.711   1.173   4.775 -0.8941 -0.2854  1.6541
   88SLPC  C213 8526   0.710   0.966   4.821  0.2127 -0.0055  0.0014
   88SLPC  H13R 8527   0.703   0.996   4.926 -2.4865  0.9548 -0.3800
   88SLPC  C214 8528   0.707   0.815   4.789  0.0394 -0.1576  0.0840
   88SLPC  H14R 8529   0.767   0.798   4.697  0.7040  0.8379  0.3211
   88SLPC  H14S 8530   0.601   0.782   4.780 -0.0465  0.4454 -1.5615
   88SLPC  C215 8531   0.771   0.746   4.910  0.0204  0.2211  0.4384
   88SLPC  H15R 8532   0.718   0.759   5.007 -0.5271  0.4560  0.1176
   88SLPC  H15S 8533   0.871   0.788   4.933 -0.0654  1.6464 -1.5534
   88SLPC  C216 8534   0.787   0.594   4.879  0.6986 -0.6623  0.0715
   88SLPC  H16R 8535   0.840   0.582   4.783  1.2834 -1.8996  0.5334
   88SLPC  H16S 8536   0.688   0.548   4.857  1.1405 -1.1630 -0.9237
   88SLPC  C217 8537   0.866   0.537   4.988  0.0756  0.6286 -0.6289
   88SLPC  H17R 8538   0.808   0.563   5.079 -0.4242  1.1872 -1.1034
   88SLPC  H17S 8539   0.971   0.572   4.990  0.1760  0.2973  0.8367
   88SLPC  C218 8540   0.862   0.383   4.973  0.1655 -0.0643 -0.0433
   88SLPC  H18R 8541   0.756   0.350   4.977  0.5542 -2.3658 -3.9209
   88SLPC  H18S 8542   0.914   0.345   5.063  0.3914  0.2285 -0.0496
   88SLPC  H18T 8543   0.904   0.359   4.873 -0.0854  2.7964 -0.9452
   88SLPC   C33 8544   0.634   0.719   3.545  0.5607  0.5272 -0.2817
   88SLPC   H3X 8545   0.650   0.828   3.560 -2.1794  1.4676 -3.1949
   88SLPC   H3Y 8546   0.729   0.662   3.536  0.1033 -0.5260  1.1184
   88SLPC   C34 8547   0.558   0.660   3.670  0.5305 -0.0933  0.2661
   88SLPC   H4X 8548   0.459   0.709   3.666  0.1243 -0.9528 -0.8617
   88SLPC   H4Y 8549   0.625   0.690   3.754  0.3662 -0.9489  0.7140
   88SLPC   C35 8550   0.546   0.510   3.685  0.5344 -0.1303 -0.3335
   88SLPC   H5X 8551   0.646   0.461   3.679  0.2881 -1.1933  2.6726
   88SLPC   H5Y 8552   0.478   0.466   3.610 -1.7199  0.1687  1.4405
   88SLPC   C36 8553   0.480   0.477   3.819 -0.0010 -0.0350 -0.0555
   88SLPC   H6X 8554   0.370   0.475   3.803  0.0687 -0.9573 -0.4926
   88SLPC   H6Y 8555   0.497   0.559   3.892  1.9259  0.5341 -1.0613
   88SLPC   C37 8556   0.527   0.348   3.886 -0.4262 -0.3011  0.3866
   88SLPC   H7X 8557   0.636   0.333   3.876 -0.1508  1.9877 -0.4535
   88SLPC   H7Y 8558   0.480   0.266   3.827  2.7049 -0.3022 -2.3705
   88SLPC   C38 8559   0.484   0.337   4.034  0.3393  0.2054 -0.2012
   88SLPC   H8X 8560   0.498   0.429   4.094 -1.2916  0.7255 -0.5715
   88SLPC   H8Y 8561   0.554   0.268   4.087  1.3370  0.8279 -0.6979
   88SLPC   C39 8562   0.338   0.294   4.051 -0.7730 -0.0092  0.1391
   88SLPC   H9X 8563   0.325   0.218   3.971 -0.0365  0.6941 -0.6725
   88SLPC   H9Y 8564   0.279   0.381   4.016  0.0656 -0.0751 -1.5791
   88SLPC  C310 8565   0.314   0.244   4.195  0.2300  0.5773 -0.3076
   88SLPC  H10X 8566   0.332   0.326   4.267 -0.4050  0.9037 -0.5078
   88SLPC  H10Y 8567   0.382   0.162   4.227  2.4272  3.2416  2.3361
   88SLPC  C311 8568   0.166   0.200   4.219 -0.6119  0.1850 -0.1428
   88SLPC  H11X 8569   0.149   0.103   4.167 -2.4269  1.2614 -1.6983
   88SLPC  H11Y 8570   0.093   0.274   4.181 -1.7440 -0.7693  0.0977
   88SLPC  C312 8571   0.122   0.173   4.370 -0.4737  0.6970  0.1136
   88SLPC  H12X 8572   0.203   0.120   4.425 -1.1441 -0.0803  0.3640
   88SLPC  H12Y 8573   0.031   0.109   4.369 -0.3956  0.5902 -0.3126
   88SLPC  C313 8574   0.098   0.303   4.447  0.2889  0.1916  0.7914
   88SLPC  H13X 8575   0.019   0.368   4.405 -0.4617 -1.5886 -0.7138
   88SLPC  H13Y 8576   0.191   0.364   4.456 -0.5870  1.3437  2.3569
   88SLPC  C314 8577   0.066   0.268   4.599  0.3676 -0.7049  0.3225
   88SLPC  H14X 8578   0.081   0.365   4.653  0.7053 -0.1253 -0.7828
   88SLPC  H14Y 8579   0.143   0.197   4.636 -0.2994 -1.1177  0.9534
   88SLPC  C315 8580  -0.067   0.208   4.629  0.1910  0.0717 -0.0047
   88SLPC  H15X 8581  -0.055   0.103   4.595  2.8664  0.9387 -2.0834
   88SLPC  H15Y 8582  -0.132   0.252   4.550  0.1144  0.4510  0.2645
   88SLPC  C316 8583  -0.132   0.251   4.762 -0.2882  0.5028  0.2418
   88SLPC  H16X 8584  -0.050   0.249   4.838  0.4535  2.4504 -0.4515
   88SLPC  H16Y 8585  -0.213   0.183   4.797  0.4995  0.1334  1.4358
   88SLPC  C317 8586  -0.190   0.394   4.761 -0.0911  0.4287 -0.1785
   88SLPC  H17X 8587  -0.267   0.380   4.682 -0.4925 -1.1476  0.4638
   88SLPC  H17Y 8588  -0.102   0.455   4.731  1.1934 -0.4904  1.6056
   88SLPC  C318 8589  -0.264   0.426   4.893  0.8692 -0.2731 -0.3625
   88SLPC  H18X 8590  -0.308   0.528   4.887  3.0718  0.8516  0.8598
   88SLPC  H18Y 8591  -0.196   0.422   4.981  1.5508  1.3351 -0.7856
   88SLPC  H18Z 8592  -0.341   0.347   4.900  0.9288 -0.2407  0.7830
   89SAPE     N 8593   4.100   4.352   7.192 -0.3486 -1.2453 -0.0285
   89SAPE   HN1 8594   4.199   4.352   7.162 -0.3255 -0.8220  0.0423
   89SAPE   HN2 8595   4.044   4.426   7.144 -0.0885  0.9538  2.7650
   89SAPE   HN3 8596   4.088   4.389   7.289 -0.8217  1.1075 -0.9055
   89SAPE   C12 8597   4.032   4.221   7.184 -0.9564 -0.1645  0.4278
   89SAPE  H12A 8598   3.926   4.239   7.213 -1.1754 -0.0616 -0.3945
   89SAPE  H12B 8599   4.079   4.155   7.259  0.9100 -2.8005 -2.7601
   89SAPE   C11 8600   4.025   4.162   7.041 -0.1332  0.3470 -0.0856
   89SAPE  H11A 8601   3.986   4.058   7.048  0.7759 -0.1018 -1.4221
   89SAPE  H11B 8602   4.125   4.152   6.994 -0.6035  0.7868 -1.2189
   89SAPE     P 8603   3.840   4.191   6.856 -0.3512 -0.3462  0.2108
   89SAPE   O13 8604   3.751   4.102   6.933  0.6892  0.3342  0.2059
   89SAPE   O14 8605   3.787   4.311   6.779 -0.0639  0.1528 -0.1436
   89SAPE   O12 8606   3.942   4.248   6.967  0.0049  0.3131 -0.3376
   89SAPE   O11 8607   3.936   4.107   6.763  0.7559  0.0179  0.3173
   89SAPE    C1 8608   4.054   4.175   6.706 -0.2934  0.1225  0.1428
   89SAPE    HA 8609   4.031   4.283   6.691 -0.5618 -0.2698 -3.1646
   89SAPE    HB 8610   4.141   4.166   6.775  0.3718 -0.3747 -0.7293
   89SAPE    C2 8611   4.092   4.124   6.563 -0.9125 -0.0212 -0.1527
   89SAPE    HS 8612   4.191   4.166   6.534 -1.7783  1.5498 -0.9646
   89SAPE   O21 8613   3.991   4.148   6.463  0.2572  0.2944  0.4970
   89SAPE   C21 8614   3.954   4.274   6.459  0.4352  0.4556  0.0319
   89SAPE   O22 8615   4.019   4.366   6.492  0.4288 -0.1975 -0.1508
   89SAPE   C22 8616   3.803   4.283   6.408  0.7468 -0.0206 -0.0469
   89SAPE   H2R 8617   3.803   4.267   6.298 -0.4950 -2.6756  0.2418
   89SAPE   H2S 8618   3.736   4.211   6.460  2.8419 -0.4456  2.2578
   89SAPE    C3 8619   4.102   3.973   6.568 -0.0463 -0.2001 -0.2669
   89SAPE    HX 8620   3.997   3.941   6.557 -0.2627  0.9711 -2.0958
   89SAPE    HY 8621   4.158   3.953   6.662  2.4166 -0.5447 -1.7039
   89SAPE   O31 8622   4.189   3.926   6.463 -0.6513 -0.3301  0.0155
   89SAPE   C31 8623   4.185   3.792   6.436  0.0641  0.4707 -0.5320
   89SAPE   O32 8624   4.117   3.709   6.497  0.1285 -0.5346 -0.5758
   89SAPE   C32 8625   4.303   3.753   6.350  0.3138  0.4556 -0.3311
   89SAPE   H2X 8626   4.291   3.646   6.322  1.3703  0.3487 -0.4116
   89SAPE   H2Y 8627   4.400   3.763   6.403  0.8590 -1.2495 -0.9505
   89SAPE   C23 8628   3.748   4.427   6.439 -0.0628 -0.1305  0.5354
   89SAPE   H3R 8629   3.809   4.505   6.389  0.3035 -0.1339  0.9714
   89SAPE   H3S 8630   3.764   4.438   6.549  1.2285 -1.5548  0.5360
   89SAPE   C24 8631   3.606   4.458   6.395 -0.0102  0.0874  0.1285
   89SAPE   H4R 8632   3.607   4.422   6.290 -2.5203 -0.2374  0.1518
   89SAPE   H4S 8633   3.580   4.566   6.394  0.2634  0.1547  0.3706
   89SAPE   C25 8634   3.514   4.361   6.478  0.1827  0.2600  0.4262
   89SAPE   H5R 8635   3.544   4.364   6.584 -0.3840 -0.6173  0.6238
   89SAPE   C26 8636   3.423   4.268   6.438  0.8591  0.9922  0.4151
   89SAPE   H6R 8637   3.367   4.206   6.510  0.8229  0.1879 -0.2966
   89SAPE   C27 8638   3.381   4.259   6.297 -0.5316 -0.5944  0.3226
   89SAPE   H7R 8639   3.400   4.352   6.240  3.2413 -1.0105  0.5909
   89SAPE   H7S 8640   3.271   4.268   6.285 -0.3794 -0.5801 -1.1490
   89SAPE   C28 8641   3.429   4.137   6.218  0.4219 -0.6693  1.1112
   89SAPE   H8R 8642   3.367   4.047   6.231 -0.6624 -0.6235 -2.5450
   89SAPE   C29 8643   3.523   4.130   6.119 -0.4780  0.0574 -0.7525
   89SAPE   H9R 8644   3.540   4.024   6.096 -2.2318 -0.7113  1.1743
   89SAPE  C210 8645   3.620   4.239   6.063  0.8349 -0.6157 -0.8966
   89SAPE  H10R 8646   3.694   4.258   6.143  0.1224 -0.2241 -0.3101
   89SAPE  H10S 8647   3.574   4.338   6.041  1.2603 -0.5757 -1.6501
   89SAPE  C211 8648   3.681   4.202   5.940  0.2151 -0.1858  0.6002
   89SAPE  H11R 8649   3.614   4.169   5.860  0.2989  0.5199  0.2323
   89SAPE  C212 8650   3.815   4.213   5.917 -0.1534 -0.2191 -0.5611
   89SAPE  H12R 8651   3.846   4.161   5.824 -1.1715 -0.4732 -0.7686
   89SAPE  C213 8652   3.926   4.261   6.011 -0.5988  0.7218  1.1397
   89SAPE  H13R 8653   3.885   4.313   6.100 -1.5089 -0.0226  1.1711
   89SAPE  H13S 8654   3.983   4.336   5.953  1.1790 -0.0030  1.8990
   89SAPE  C214 8655   4.020   4.143   6.053  0.0604 -0.2493  0.1229
   89SAPE  H14R 8656   3.976   4.081   6.132 -3.7353 -0.7683 -2.1622
   89SAPE  C215 8657   4.139   4.114   6.014  0.4777 -0.0861  0.2077
   89SAPE  H15R 8658   4.163   4.009   6.036 -0.8117 -0.4008  0.1460
   89SAPE  C216 8659   4.218   4.183   5.903 -0.3228 -0.8819 -0.3362
   89SAPE  H16R 8660   4.328   4.168   5.911 -0.2831 -0.1027  0.7596
   89SAPE  H16S 8661   4.219   4.291   5.925 -1.4520 -1.1001  0.8951
   89SAPE  C217 8662   4.174   4.157   5.756 -0.1439  0.6905 -0.0370
   89SAPE  H17R 8663   4.068   4.187   5.736 -0.2002 -0.0524 -0.9313
   89SAPE  H17S 8664   4.190   4.049   5.738  0.4413  1.0112 -1.5950
   89SAPE  C218 8665   4.253   4.222   5.641  0.0420 -0.1584 -0.6902
   89SAPE  H18R 8666   4.244   4.330   5.668  1.6827 -0.5640  1.7976
   89SAPE  H18S 8667   4.210   4.208   5.540  1.9912 -0.2530 -1.5314
   89SAPE  C219 8668   4.400   4.175   5.644  0.1142  0.3703 -0.5794
   89SAPE  H19R 8669   4.396   4.065   5.629 -0.6074  0.3474 -0.2693
   89SAPE  H19S 8670   4.439   4.200   5.745  0.5607 -1.5881 -0.2288
   89SAPE  C220 8671   4.491   4.249   5.548 -0.1184  0.1280  0.5743
   89SAPE  H20R 8672   4.599   4.257   5.576  0.2019  0.9075 -0.7656
   89SAPE  H20S 8673   4.453   4.353   5.547 -2.1402 -0.5572  1.2018
   89SAPE  H20T 8674   4.491   4.211   5.443  2.1732  0.7397  0.2833
   89SAPE   C33 8675   4.306   3.826   6.212 -0.3925 -0.1426 -0.5393
   89SAPE   H3X 8676   4.366   3.919   6.214  1.6403 -1.3836 -0.6240
   89SAPE   H3Y 8677   4.202   3.845   6.178  0.0132  0.1422 -1.6640
   89SAPE   C34 8678   4.377   3.743   6.111 -0.1225  0.1143  0.3546
   89SAPE   H4X 8679   4.315   3.651   6.109  0.2316 -0.1580  1.1577
   89SAPE   H4Y 8680   4.480   3.709   6.138 -0.1281 -0.8140 -0.7277
   89SAPE   C35 8681   4.369   3.807   5.968 -0.2571  0.4960 -0.9257
   89SAPE   H5X 8682   4.428   3.900   5.980  1.3722 -0.7532  1.8708
   89SAPE   H5Y 8683   4.262   3.829   5.951 -0.8237 -1.3790 -0.0642
   89SAPE   C36 8684   4.423   3.724   5.855 -0.1865 -0.4989  0.4551
   89SAPE   H6X 8685   4.369   3.627   5.860 -1.4112  0.1929  1.0272
   89SAPE   H6Y 8686   4.528   3.690   5.866  0.5365  1.1526 -0.7552
   89SAPE   C37 8687   4.412   3.778   5.715 -0.6286 -0.2970 -0.2352
   89SAPE   H7X 8688   4.474   3.870   5.709 -0.5413 -0.2833  0.6389
   89SAPE   H7Y 8689   4.312   3.817   5.690 -0.1972  1.5578  0.7739
   89SAPE   C38 8690   4.460   3.678   5.609  0.2859  0.6895 -0.0473
   89SAPE   H8X 8691   4.372   3.624   5.568 -0.2199  1.0179  0.5887
   89SAPE   H8Y 8692   4.542   3.612   5.646  2.1643  1.1195 -3.0919
   89SAPE   C39 8693   4.515   3.757   5.492 -0.4392 -0.0119  0.8614
   89SAPE   H9X 8694   4.623   3.783   5.502  0.1055 -0.2869 -2.8539
   89SAPE   H9Y 8695   4.450   3.846   5.481 -1.5254 -0.5440  2.6123
   89SAPE  C310 8696   4.520   3.674   5.362 -0.2242 -0.1275 -0.4157
   89SAPE  H10X 8697   4.415   3.647   5.338  0.5334 -0.3564 -3.9917
   89SAPE  H10Y 8698   4.572   3.576   5.370  3.5392  1.8491  2.5207
   89SAPE  C311 8699   4.590   3.751   5.254  0.2308 -0.5725 -0.3546
   89SAPE  H11X 8700   4.610   3.679   5.172  0.3238 -2.9539  1.6628
   89SAPE  H11Y 8701   4.687   3.793   5.288  0.4461 -0.8758 -0.5904
   89SAPE  C312 8702   4.514   3.872   5.198 -0.9368 -0.5325  0.2269
   89SAPE  H12X 8703   4.500   3.943   5.283 -1.3379 -1.1665  0.6991
   89SAPE  H12Y 8704   4.419   3.837   5.153 -1.9956  0.2937  1.7419
   89SAPE  C313 8705   4.592   3.950   5.088  0.2002  0.4414  0.0237
   89SAPE  H13X 8706   4.606   3.872   5.010 -0.7753  0.7894 -0.5170
   89SAPE  H13Y 8707   4.683   3.990   5.136 -0.2237  1.1473  0.2532
   89SAPE  C314 8708   4.526   4.066   5.021 -0.0126  0.0352  0.3222
   89SAPE  H14X 8709   4.432   4.038   4.968  1.4478  0.2581 -2.6160
   89SAPE  H14Y 8710   4.594   4.113   4.946  0.6298 -0.0755  0.8238
   89SAPE  C315 8711   4.496   4.190   5.106  0.1040  0.4406 -0.4332
   89SAPE  H15X 8712   4.588   4.223   5.158  0.8152 -0.9358 -0.7892
   89SAPE  H15Y 8713   4.422   4.168   5.186 -0.0272 -0.0162 -0.6731
   89SAPE  C316 8714   4.444   4.313   5.029  0.1188  0.3747  0.1873
   89SAPE  H16X 8715   4.352   4.276   4.979 -0.1944 -1.7005  2.1514
   89SAPE  H16Y 8716   4.517   4.334   4.948 -0.5530  1.3062 -0.2023
   89SAPE  C317 8717   4.424   4.437   5.118 -0.3659 -0.0084 -0.4147
   89SAPE  H17X 8718   4.371   4.517   5.061 -1.0619  0.1105  0.3755
   89SAPE  H17Y 8719   4.517   4.487   5.153  0.3411 -0.5680 -1.4548
   89SAPE  C318 8720   4.328   4.426   5.230 -0.3371 -0.0223 -0.3839
   89SAPE  H18X 8721   4.368   4.364   5.313 -2.2654  0.7151  1.1949
   89SAPE  H18Y 8722   4.232   4.378   5.200 -0.1328 -1.0780  0.5684
   89SAPE  H18Z 8723   4.326   4.530   5.268  1.1370 -0.1534  0.1291
   90SAPE     N 8724   2.254   0.528   7.038  0.1621  0.2092  0.2819
   90SAPE   HN1 8725   2.325   0.581   7.093  1.2406 -0.8143 -0.0824
   90SAPE   HN2 8726   2.154   0.548   7.059  0.5811  3.6348 -0.4955
   90SAPE   HN3 8727   2.267   0.427   7.059 -1.1533 -0.1266 -0.4061
   90SAPE   C12 8728   2.283   0.551   6.890  0.9121  0.3903 -0.1893
   90SAPE  H12A 8729   2.238   0.465   6.837 -0.2102  0.8722 -0.0351
   90SAPE  H12B 8730   2.392   0.553   6.867  0.9635 -0.4161 -0.0610
   90SAPE   C11 8731   2.209   0.676   6.827 -1.1266  0.3140 -0.7875
   90SAPE  H11A 8732   2.228   0.673   6.717  1.0381 -1.6088 -0.4369
   90SAPE  H11B 8733   2.256   0.769   6.866 -1.7621  0.5670 -0.6078
   90SAPE     P 8734   2.000   0.804   6.914  0.2495  0.0286 -0.1823
   90SAPE   O13 8735   1.868   0.771   6.971  0.4804 -0.3024  0.5624
   90SAPE   O14 8736   2.097   0.878   6.999  0.5562  0.7960  0.1623
   90SAPE   O12 8737   2.068   0.672   6.861 -0.0533 -1.0099  0.6071
   90SAPE   O11 8738   1.985   0.894   6.789 -0.4864  0.1719 -0.1828
   90SAPE    C1 8739   1.899   0.867   6.685  0.1873 -0.1486  0.3307
   90SAPE    HA 8740   1.793   0.859   6.717  0.4543 -0.0540  1.2891
   90SAPE    HB 8741   1.899   0.962   6.629  0.3002  0.0901  0.7273
   90SAPE    C2 8742   1.950   0.747   6.591  0.5215  0.3386 -0.2995
   90SAPE    HS 8743   1.955   0.654   6.652  1.1946  0.7945  0.3611
   90SAPE   O21 8744   2.078   0.782   6.539  0.2816  0.5726 -0.2378
   90SAPE   C21 8745   2.137   0.688   6.466  0.1239  0.3330  0.6102
   90SAPE   O22 8746   2.131   0.569   6.486  0.6730  0.3357 -0.1097
   90SAPE   C22 8747   2.230   0.740   6.356 -0.4495 -0.8193 -0.4337
   90SAPE   H2R 8748   2.186   0.833   6.314 -1.1342 -1.4716 -1.1863
   90SAPE   H2S 8749   2.332   0.763   6.392 -0.6067  1.3237 -1.2048
   90SAPE    C3 8750   1.853   0.723   6.474  0.6603 -0.0872 -0.1041
   90SAPE    HX 8751   1.750   0.745   6.508  1.3236  1.2272  1.1736
   90SAPE    HY 8752   1.851   0.616   6.443  1.7897 -0.3064  0.5458
   90SAPE   O31 8753   1.895   0.801   6.361 -0.1462 -0.2070 -0.3946
   90SAPE   C31 8754   1.842   0.929   6.353  0.3869  0.0697  0.2797
   90SAPE   O32 8755   1.770   0.977   6.437 -0.0404 -0.6643  0.2585
   90SAPE   C32 8756   1.896   0.990   6.221  0.0628  0.1697  0.9783
   90SAPE   H2X 8757   1.811   0.989   6.150  0.0951 -0.9908  0.9498
   90SAPE   H2Y 8758   1.978   0.926   6.182  0.9168  1.5067  0.4710
   90SAPE   C23 8759   2.249   0.639   6.245  0.2929  0.0561 -0.0768
   90SAPE   H3R 8760   2.147   0.604   6.216  0.4710 -0.8066  0.3187
   90SAPE   H3S 8761   2.307   0.556   6.290  1.0773 -0.0616 -1.2457
   90SAPE   C24 8762   2.309   0.701   6.123  0.4826  0.0638 -0.2634
   90SAPE   H4R 8763   2.408   0.742   6.153 -0.1930  1.1500  0.5360
   90SAPE   H4S 8764   2.248   0.791   6.099  0.6119  0.4968  0.9666
   90SAPE   C25 8765   2.331   0.600   6.014  0.0957  0.6244 -0.7614
   90SAPE   H5R 8766   2.392   0.516   6.051 -3.1754 -1.1330  1.1087
   90SAPE   C26 8767   2.289   0.602   5.887 -0.1391  0.1433 -0.0521
   90SAPE   H6R 8768   2.301   0.515   5.821 -3.1653  0.7858 -1.6470
   90SAPE   C27 8769   2.234   0.723   5.829 -0.0931 -0.3464  0.5421
   90SAPE   H7R 8770   2.288   0.745   5.735 -0.4197  0.5997  0.5709
   90SAPE   H7S 8771   2.261   0.808   5.895 -1.4806  0.1984  0.4259
   90SAPE   C28 8772   2.081   0.724   5.809 -0.7896  0.3190 -0.1750
   90SAPE   H8R 8773   2.036   0.627   5.837  0.3815 -0.6422 -1.4899
   90SAPE   C29 8774   2.009   0.815   5.744 -0.3722 -1.2761 -0.1519
   90SAPE   H9R 8775   1.904   0.789   5.725 -2.1969  3.1449  2.4453
   90SAPE  C210 8776   2.068   0.943   5.685 -0.2482  0.4739 -0.5752
   90SAPE  H10R 8777   2.177   0.949   5.707 -0.8000  0.6762  2.4737
   90SAPE  H10S 8778   2.033   1.033   5.739  2.6199 -0.7434  3.8755
   90SAPE  C211 8779   2.038   0.954   5.538  0.1130  0.7534 -0.1199
   90SAPE  H11R 8780   1.936   0.990   5.519 -0.5634 -1.1758 -0.4050
   90SAPE  C212 8781   2.101   0.922   5.425 -0.3311 -0.7594  0.7441
   90SAPE  H12R 8782   2.046   0.932   5.330  1.7113 -2.6171 -0.7566
   90SAPE  C213 8783   2.232   0.840   5.419 -0.3190  0.1722 -0.1673
   90SAPE  H13R 8784   2.253   0.818   5.526 -1.2800 -0.9907 -0.1948
   90SAPE  H13S 8785   2.315   0.899   5.374 -1.1408  0.3357 -1.5160
   90SAPE  C214 8786   2.222   0.714   5.341  0.0996 -0.6282 -0.4434
   90SAPE  H14R 8787   2.172   0.635   5.399 -1.3199 -0.7449 -1.7552
   90SAPE  C215 8788   2.265   0.684   5.218 -0.6590 -0.4278 -0.1022
   90SAPE  H15R 8789   2.245   0.583   5.179 -3.5345  0.4097 -1.0455
   90SAPE  C216 8790   2.341   0.780   5.131 -0.3713 -0.1166 -0.5454
   90SAPE  H16R 8791   2.307   0.885   5.144  2.0326  0.6394  0.1628
   90SAPE  H16S 8792   2.317   0.756   5.025 -1.5560  1.3233 -0.6413
   90SAPE  C217 8793   2.494   0.758   5.156  0.4788  0.6616 -0.2494
   90SAPE  H17R 8794   2.527   0.653   5.143 -0.1167  0.4577 -0.1211
   90SAPE  H17S 8795   2.500   0.782   5.265 -1.1012 -0.0255  0.0078
   90SAPE  C218 8796   2.583   0.847   5.068 -0.3302 -0.6938 -0.1552
   90SAPE  H18R 8797   2.611   0.937   5.126  1.2383 -0.7003 -0.8535
   90SAPE  H18S 8798   2.536   0.868   4.969 -2.1919  2.2730  1.2221
   90SAPE  C219 8799   2.712   0.771   5.034 -0.8659 -0.3859  0.1241
   90SAPE  H19R 8800   2.681   0.689   4.966 -2.4192 -0.0055  0.3457
   90SAPE  H19S 8801   2.760   0.743   5.131  1.0405 -1.2198 -1.0033
   90SAPE  C220 8802   2.796   0.865   4.937 -0.8202  0.0113 -0.1380
   90SAPE  H20R 8803   2.878   0.802   4.895 -1.8841 -0.9110 -0.8718
   90SAPE  H20S 8804   2.828   0.956   4.992  0.1881  0.0172 -0.6969
   90SAPE  H20T 8805   2.727   0.893   4.854 -0.9085  0.6623  0.1505
   90SAPE   C33 8806   1.953   1.131   6.237 -0.1372 -0.7210 -0.2775
   90SAPE   H3X 8807   1.876   1.177   6.303  0.7762 -2.1094  1.8542
   90SAPE   H3Y 8808   1.957   1.193   6.145  1.3863 -1.0802 -0.4803
   90SAPE   C34 8809   2.084   1.138   6.312  0.0435 -0.0684  0.4803
   90SAPE   H4X 8810   2.063   1.089   6.410 -1.6950 -1.6965 -0.6426
   90SAPE   H4Y 8811   2.094   1.247   6.329 -0.4436 -0.0720  0.7969
   90SAPE   C35 8812   2.205   1.088   6.238 -0.1640 -0.7562  0.0549
   90SAPE   H5X 8813   2.168   1.004   6.175 -0.8075 -0.0078 -0.5873
   90SAPE   H5Y 8814   2.292   1.061   6.303  0.7556 -0.4760 -1.0300
   90SAPE   C36 8815   2.265   1.189   6.143  0.6355 -0.0974 -0.0414
   90SAPE   H6X 8816   2.320   1.259   6.209 -2.0783  2.2041 -0.0175
   90SAPE   H6Y 8817   2.186   1.235   6.080  0.1861  0.4749  0.9115
   90SAPE   C37 8818   2.370   1.111   6.058  0.1232  0.6464  0.1748
   90SAPE   H7X 8819   2.309   1.031   6.011  0.6706 -0.0026  0.5496
   90SAPE   H7Y 8820   2.438   1.059   6.129 -1.1755 -0.7993  0.4172
   90SAPE   C38 8821   2.425   1.180   5.937 -0.4049  0.7812  0.3626
   90SAPE   H8X 8822   2.514   1.121   5.909 -1.2029 -0.3570  0.1549
   90SAPE   H8Y 8823   2.444   1.288   5.959  2.9212  0.9855 -2.6598
   90SAPE   C39 8824   2.326   1.190   5.824  0.3793 -0.3681  0.6564
   90SAPE   H9X 8825   2.231   1.231   5.865 -1.1235 -3.2563  0.3483
   90SAPE   H9Y 8826   2.295   1.089   5.791 -1.0440  0.2619 -0.0606
   90SAPE  C310 8827   2.382   1.270   5.698 -0.4538  0.1757 -1.2060
   90SAPE  H10X 8828   2.473   1.218   5.660  1.9564  2.0420  1.5508
   90SAPE  H10Y 8829   2.420   1.364   5.742 -0.4321 -0.6339  0.6212
   90SAPE  C311 8830   2.273   1.300   5.599  1.0018 -0.4681  0.1804
   90SAPE  H11X 8831   2.205   1.374   5.647  2.1876  0.5911  0.2727
   90SAPE  H11Y 8832   2.202   1.217   5.578 -3.7520  3.2241 -0.3029
   90SAPE  C312 8833   2.334   1.335   5.460 -0.0223  0.0816 -0.3602
   90SAPE  H12X 8834   2.401   1.424   5.460 -0.9304  0.8062  0.7679
   90SAPE  H12Y 8835   2.249   1.362   5.395  0.2829 -0.8231 -1.1541
   90SAPE  C313 8836   2.397   1.206   5.402 -0.3701 -0.2886 -0.1058
   90SAPE  H13X 8837   2.325   1.127   5.432  0.6571 -0.4681  2.0220
   90SAPE  H13Y 8838   2.501   1.183   5.431  0.4051  0.1884 -2.3086
   90SAPE  C314 8839   2.404   1.202   5.248 -0.7469 -0.0378  0.2268
   90SAPE  H14X 8840   2.298   1.190   5.217 -0.1166 -1.2202 -1.6386
   90SAPE  H14Y 8841   2.452   1.110   5.208 -2.4883  0.7087 -4.0394
   90SAPE  C315 8842   2.458   1.329   5.181  0.1700  0.2142 -0.4583
   90SAPE  H15X 8843   2.566   1.325   5.206 -0.3816 -0.4011  2.0981
   90SAPE  H15Y 8844   2.404   1.416   5.222  1.1480  0.2486  0.8091
   90SAPE  C316 8845   2.445   1.327   5.029  0.5807 -0.1521  0.5400
   90SAPE  H16X 8846   2.488   1.423   4.993 -0.6357  0.0724 -0.3476
   90SAPE  H16Y 8847   2.337   1.333   5.003  0.5579 -0.9852  0.4131
   90SAPE  C317 8848   2.518   1.215   4.955 -0.1774  0.1567 -0.7807
   90SAPE  H17X 8849   2.491   1.120   5.005  0.4335 -0.2164 -1.1425
   90SAPE  H17Y 8850   2.625   1.238   4.968 -0.5274  1.1668  0.5186
   90SAPE  C318 8851   2.469   1.211   4.809 -0.7222 -0.0299 -0.4160
   90SAPE  H18X 8852   2.543   1.152   4.751  0.4529 -0.9586  1.9082
   90SAPE  H18Y 8853   2.454   1.314   4.770 -1.5520 -0.9079 -2.5622
   90SAPE  H18Z 8854   2.376   1.150   4.810  0.3534 -1.7149  0.9001
   91SAPE     N 8855   5.900   2.822   7.163  0.1993  0.3917  0.4898
   91SAPE   HN1 8856   5.845   2.781   7.241 -2.1201 -0.0688 -1.2509
   91SAPE   HN2 8857   5.823   2.858   7.101 -0.9190 -1.0137  1.0177
   91SAPE   HN3 8858   5.951   2.745   7.116  0.4726  0.4352  0.7157
   91SAPE   C12 8859   6.009   2.923   7.183  0.2783 -0.3669 -0.5862
   91SAPE  H12A 8860   6.043   2.955   7.082 -0.2312  2.3586  0.0278
   91SAPE  H12B 8861   6.089   2.877   7.244 -0.6488 -0.3855  0.6575
   91SAPE   C11 8862   5.952   3.044   7.258 -0.0065  0.5326  0.4001
   91SAPE  H11A 8863   6.033   3.119   7.243  1.0259 -0.6782 -0.3244
   91SAPE  H11B 8864   5.945   3.018   7.366 -1.2649  0.0400  0.2156
   91SAPE     P 8865   5.809   3.220   7.124 -0.0627 -0.5153  0.3367
   91SAPE   O13 8866   5.694   3.202   7.028 -0.4720  0.0662 -0.1761
   91SAPE   O14 8867   5.806   3.344   7.208 -0.1641  0.1520  0.0077
   91SAPE   O12 8868   5.821   3.091   7.207 -0.3140 -0.4867  0.3062
   91SAPE   O11 8869   5.933   3.224   7.031  0.4507 -0.0221  0.2358
   91SAPE    C1 8870   6.038   3.316   7.045 -0.0330 -0.5762  0.2077
   91SAPE    HA 8871   6.010   3.408   7.101  0.8810  0.5250 -1.0476
   91SAPE    HB 8872   6.124   3.261   7.088 -0.5967 -2.0455 -0.4936
   91SAPE    C2 8873   6.088   3.367   6.914 -0.4798 -0.2390  1.0473
   91SAPE    HS 8874   6.195   3.394   6.919 -0.2078 -1.1558  0.4552
   91SAPE   O21 8875   6.004   3.476   6.871  0.4087  0.1033  0.4402
   91SAPE   C21 8876   6.070   3.587   6.835  0.6391 -0.2532 -0.1206
   91SAPE   O22 8877   6.189   3.609   6.856  0.2105  0.1859  0.5269
   91SAPE   C22 8878   5.981   3.687   6.760  0.2960  0.1514 -0.8944
   91SAPE   H2R 8879   5.886   3.710   6.813 -0.1262 -0.3967 -1.4013
   91SAPE   H2S 8880   6.051   3.773   6.763  0.7674 -0.2430  0.2005
   91SAPE    C3 8881   6.097   3.257   6.800 -1.2527 -0.7151  0.4347
   91SAPE    HX 8882   5.997   3.220   6.770 -1.4353  0.1943 -0.1055
   91SAPE    HY 8883   6.143   3.165   6.841 -1.7080 -0.1397  2.3054
   91SAPE   O31 8884   6.182   3.305   6.690 -0.1748 -0.1140 -0.5162
   91SAPE   C31 8885   6.121   3.319   6.572 -0.5419 -0.6235  0.1507
   91SAPE   O32 8886   6.003   3.301   6.549 -0.8918 -0.7746  0.0460
   91SAPE   C32 8887   6.224   3.391   6.484  0.3518  0.8059  0.6691
   91SAPE   H2X 8888   6.320   3.337   6.501  0.2283  0.3150 -0.1263
   91SAPE   H2Y 8889   6.244   3.499   6.497  1.4000  1.4814 -4.3600
   91SAPE   C23 8890   5.959   3.645   6.614  0.5176  0.4767  0.2402
   91SAPE   H3R 8891   5.877   3.571   6.613 -0.4261  1.3909  2.8368
   91SAPE   H3S 8892   6.050   3.612   6.558 -0.7502  0.4737 -1.9409
   91SAPE   C24 8893   5.924   3.762   6.523 -0.0858  0.1215  0.1154
   91SAPE   H4R 8894   5.823   3.796   6.554 -0.2628 -0.3480  0.0723
   91SAPE   H4S 8895   5.898   3.710   6.428 -2.4104 -1.2936  1.4257
   91SAPE   C25 8896   6.031   3.870   6.516 -0.9165  0.1477  0.5459
   91SAPE   H5R 8897   6.045   3.943   6.598  0.1396  0.3500  0.2068
   91SAPE   C26 8898   6.112   3.890   6.408 -0.3734 -0.5149  0.7784
   91SAPE   H6R 8899   6.176   3.979   6.415  0.9181 -1.2957 -0.4641
   91SAPE   C27 8900   6.122   3.793   6.286  0.5953 -0.6919  0.2648
   91SAPE   H7R 8901   6.068   3.845   6.204  1.2458  1.3998  1.0846
   91SAPE   H7S 8902   6.070   3.697   6.309 -0.8021 -0.4368 -1.6299
   91SAPE   C28 8903   6.262   3.754   6.247  0.3718  0.8614 -0.5550
   91SAPE   H8R 8904   6.328   3.763   6.335 -2.2768 -0.7670  1.7793
   91SAPE   C29 8905   6.302   3.684   6.142 -0.7474 -0.7626 -0.0894
   91SAPE   H9R 8906   6.409   3.662   6.129 -0.2439  2.8161 -4.3244
   91SAPE  C210 8907   6.222   3.657   6.013 -0.3528  0.1846  0.1225
   91SAPE  H10R 8908   6.124   3.609   6.036  0.1564 -0.6379  0.6350
   91SAPE  H10S 8909   6.270   3.575   5.956  0.9680  2.2012 -1.8339
   91SAPE  C211 8910   6.187   3.778   5.925  0.1930 -0.4809 -0.5568
   91SAPE  H11R 8911   6.092   3.822   5.957 -1.2872 -4.4214  1.1636
   91SAPE  C212 8912   6.266   3.833   5.836  0.0493  0.2349 -0.1882
   91SAPE  H12R 8913   6.222   3.917   5.781 -2.2311 -1.1010 -0.5303
   91SAPE  C213 8914   6.399   3.780   5.800 -0.0933  0.5051  0.4800
   91SAPE  H13R 8915   6.458   3.743   5.887 -0.2703  1.4034  0.9971
   91SAPE  H13S 8916   6.457   3.866   5.762  0.3226 -0.7464 -1.8909
   91SAPE  C214 8917   6.378   3.668   5.705  0.2101  0.2117 -0.2282
   91SAPE  H14R 8918   6.374   3.565   5.744 -1.7464  0.1178 -0.5707
   91SAPE  C215 8919   6.355   3.685   5.567 -0.4372 -0.0330  0.3080
   91SAPE  H15R 8920   6.332   3.591   5.514  1.9922 -0.8343  0.5558
   91SAPE  C216 8921   6.344   3.817   5.491  0.0902  0.5880  0.6596
   91SAPE  H16R 8922   6.343   3.903   5.561 -1.8561  0.7966  0.4347
   91SAPE  H16S 8923   6.247   3.818   5.436  0.3900 -0.0463  0.1036
   91SAPE  C217 8924   6.448   3.841   5.377  0.3249 -1.0941  0.0246
   91SAPE  H17R 8925   6.545   3.870   5.422 -0.5116  0.1708  1.0775
   91SAPE  H17S 8926   6.404   3.919   5.311 -0.4555 -2.2099 -0.8124
   91SAPE  C218 8927   6.470   3.712   5.295 -0.0372  0.8411 -0.0367
   91SAPE  H18R 8928   6.372   3.670   5.265 -1.0792  0.4418  3.5080
   91SAPE  H18S 8929   6.516   3.634   5.360  0.7280 -0.2715 -1.8150
   91SAPE  C219 8930   6.561   3.723   5.171  0.2645  0.1858 -0.5064
   91SAPE  H19R 8931   6.589   3.621   5.138 -0.9442 -0.2636 -0.1934
   91SAPE  H19S 8932   6.661   3.758   5.203  0.6389 -2.5264  1.5802
   91SAPE  C220 8933   6.508   3.816   5.062 -0.3717  0.9031 -0.7394
   91SAPE  H20R 8934   6.507   3.923   5.092 -2.1350  0.8747 -0.5712
   91SAPE  H20S 8935   6.403   3.788   5.039 -0.5002 -2.1417  2.6951
   91SAPE  H20T 8936   6.570   3.813   4.970 -0.0215 -1.2541 -0.4688
   91SAPE   C33 8937   6.209   3.371   6.330 -0.1627  0.3571  0.0579
   91SAPE   H3X 8938   6.130   3.432   6.281 -0.8064 -0.9306 -0.5589
   91SAPE   H3Y 8939   6.192   3.262   6.316  0.4506  0.1899  0.5469
   91SAPE   C34 8940   6.338   3.400   6.255  0.3729  0.3870  0.0427
   91SAPE   H4X 8941   6.393   3.485   6.300  0.0372  0.0561  1.1232
   91SAPE   H4Y 8942   6.320   3.419   6.148 -1.6684 -1.8648 -0.1104
   91SAPE   C35 8943   6.430   3.276   6.244 -0.4629  0.2151 -0.1336
   91SAPE   H5X 8944   6.375   3.189   6.201 -1.2472  0.4819  0.3124
   91SAPE   H5Y 8945   6.462   3.244   6.346  0.2715  0.8320 -0.1623
   91SAPE   C36 8946   6.556   3.288   6.159  0.0011 -0.2360  0.0119
   91SAPE   H6X 8947   6.628   3.205   6.175  2.1306  1.2269 -1.2904
   91SAPE   H6Y 8948   6.615   3.376   6.194 -0.6295  0.1304  0.1567
   91SAPE   C37 8949   6.540   3.300   5.999 -0.6294  0.3412 -0.2593
   91SAPE   H7X 8950   6.450   3.360   5.974 -0.8368  0.5084  0.8304
   91SAPE   H7Y 8951   6.532   3.197   5.958 -0.4737  0.7874 -1.4563
   91SAPE   C38 8952   6.659   3.372   5.925 -0.0970  0.2809 -0.1751
   91SAPE   H8X 8953   6.756   3.360   5.978 -0.5087  0.1145  0.5659
   91SAPE   H8Y 8954   6.646   3.482   5.917  2.0164  0.4659 -1.7072
   91SAPE   C39 8955   6.674   3.311   5.779 -0.9293 -0.5957 -0.1358
   91SAPE   H9X 8956   6.570   3.310   5.741 -0.3169 -2.7531 -1.9517
   91SAPE   H9Y 8957   6.714   3.208   5.778 -0.5360 -0.4699 -2.2476
   91SAPE  C310 8958   6.751   3.411   5.681  0.1453  0.8856  0.0793
   91SAPE  H10X 8959   6.860   3.408   5.705  0.1513 -0.9379  0.0117
   91SAPE  H10Y 8960   6.699   3.508   5.695 -0.3296  0.5832  0.4612
   91SAPE  C311 8961   6.739   3.378   5.535  0.0251  0.7160  0.1390
   91SAPE  H11X 8962   6.778   3.275   5.520  1.8696  0.9999  2.3506
   91SAPE  H11Y 8963   6.799   3.447   5.472 -1.7710  1.8181 -0.4252
   91SAPE  C312 8964   6.592   3.385   5.478 -0.8263  0.2904 -0.1743
   91SAPE  H12X 8965   6.548   3.481   5.512  1.9415  1.3892  0.5368
   91SAPE  H12Y 8966   6.538   3.301   5.526  0.3334  0.4240  1.4792
   91SAPE  C313 8967   6.582   3.368   5.324 -0.1561  0.2666 -0.2086
   91SAPE  H13X 8968   6.657   3.429   5.269 -1.7277  0.7367 -1.9176
   91SAPE  H13Y 8969   6.483   3.412   5.302 -0.0487  1.5016  1.5744
   91SAPE  C314 8970   6.605   3.224   5.282 -0.4213  0.0072  0.7569
   91SAPE  H14X 8971   6.506   3.173   5.280 -0.0308 -0.7383 -0.6321
   91SAPE  H14Y 8972   6.675   3.175   5.353  2.2138  1.7793 -0.4536
   91SAPE  C315 8973   6.663   3.209   5.140  0.1002 -1.0682  0.3591
   91SAPE  H15X 8974   6.676   3.103   5.109  2.4556 -1.1490  1.4576
   91SAPE  H15Y 8975   6.763   3.253   5.124  0.2651 -0.6812  2.2856
   91SAPE  C316 8976   6.573   3.280   5.038  0.1446 -0.2405  0.4985
   91SAPE  H16X 8977   6.593   3.389   5.042  0.7532 -0.2881 -0.7589
   91SAPE  H16Y 8978   6.469   3.259   5.071  0.2492 -0.7880  0.4898
   91SAPE  C317 8979   6.587   3.221   4.896 -0.2838 -0.9568 -0.1360
   91SAPE  H17X 8980   6.520   3.279   4.829 -0.2808  1.5762  1.9263
   91SAPE  H17Y 8981   6.554   3.115   4.906  0.6792 -1.1004  2.2456
   91SAPE  C318 8982   6.736   3.229   4.848 -0.0162 -0.1430  0.7838
   91SAPE  H18X 8983   6.729   3.193   4.743  2.3364  1.4639  0.0060
   91SAPE  H18Y 8984   6.807   3.166   4.905 -0.6613 -2.0669 -0.4347
   91SAPE  H18Z 8985   6.773   3.333   4.860 -1.2167  0.7213 -2.2195
   92SAPE     N 8986   0.090   4.690   6.741  0.1721 -0.0510 -0.6624
   92SAPE   HN1 8987   0.144   4.762   6.690 -1.5126  1.9392  0.2275
   92SAPE   HN2 8988   0.150   4.626   6.798 -1.3006 -1.0791 -0.2085
   92SAPE   HN3 8989   0.041   4.629   6.673 -0.7269  1.1887 -1.1616
   92SAPE   C12 8990  -0.007   4.765   6.827  0.8298  0.0989 -0.2425
   92SAPE  H12A 8991  -0.111   4.746   6.791  0.2813 -0.7526  1.6557
   92SAPE  H12B 8992   0.010   4.873   6.810 -0.0290 -0.2130 -4.0330
   92SAPE   C11 8993   0.012   4.731   6.980 -0.1225 -0.7037 -0.7719
   92SAPE  H11A 8994   0.118   4.716   7.010 -0.0431  1.6731  0.3490
   92SAPE  H11B 8995  -0.041   4.639   7.013  0.1111 -0.0388  1.6355
   92SAPE     P 8996  -0.195   4.857   7.094  0.0612  0.2541 -0.2904
   92SAPE   O13 8997  -0.244   4.725   7.142 -0.1296  0.1881  0.3089
   92SAPE   O14 8998  -0.206   4.962   7.200 -0.0567  0.6524  0.0590
   92SAPE   O12 8999  -0.041   4.846   7.048  0.0584  0.1386  0.5373
   92SAPE   O11 9000  -0.263   4.902   6.963  0.5405  0.7074  0.2539
   92SAPE    C1 9001  -0.310   5.030   6.928  0.0804  0.2111 -0.2620
   92SAPE    HA 9002  -0.339   5.090   7.016 -0.2816  0.9010 -0.8382
   92SAPE    HB 9003  -0.228   5.084   6.876 -0.1977  2.1274  1.2181
   92SAPE    C2 9004  -0.441   5.014   6.849 -0.3736 -0.7304  0.5616
   92SAPE    HS 9005  -0.514   4.955   6.909 -0.7275  0.3281  1.1981
   92SAPE   O21 9006  -0.409   4.955   6.717 -0.5103  0.2054  0.4940
   92SAPE   C21 9007  -0.496   4.856   6.680 -0.0149 -0.6068  0.4561
   92SAPE   O22 9008  -0.580   4.806   6.749  0.1373 -0.2187 -0.2970
   92SAPE   C22 9009  -0.478   4.819   6.528 -0.5678 -0.0742  0.1973
   92SAPE   H2R 9010  -0.459   4.911   6.468  0.9999 -0.0808  0.6289
   92SAPE   H2S 9011  -0.381   4.765   6.536 -0.8807 -0.3947  2.2519
   92SAPE    C3 9012  -0.505   5.148   6.820 -0.2690 -1.0128 -0.4996
   92SAPE    HX 9013  -0.445   5.205   6.746 -2.6765  0.5937 -1.3275
   92SAPE    HY 9014  -0.499   5.212   6.910 -1.1087 -1.7966  0.1366
   92SAPE   O31 9015  -0.640   5.128   6.778 -0.3170 -0.9799  0.2284
   92SAPE   C31 9016  -0.708   5.233   6.751 -0.8256  0.5333 -0.3387
   92SAPE   O32 9017  -0.662   5.348   6.768  0.3437  0.2640  0.3456
   92SAPE   C32 9018  -0.830   5.195   6.669  0.1807 -0.5559 -0.1304
   92SAPE   H2X 9019  -0.909   5.272   6.659 -0.9187 -1.6354 -0.0288
   92SAPE   H2Y 9020  -0.876   5.116   6.732 -0.6950  0.0440 -0.0028
   92SAPE   C23 9021  -0.595   4.731   6.471 -0.0029  0.5021  0.0052
   92SAPE   H3R 9022  -0.695   4.763   6.508 -0.0972 -0.8857  1.0284
   92SAPE   H3S 9023  -0.584   4.626   6.506 -1.4669 -0.0434 -1.0729
   92SAPE   C24 9024  -0.609   4.731   6.318 -0.8331  0.5607  0.4130
   92SAPE   H4R 9025  -0.598   4.836   6.285 -1.0504  0.3490 -0.3506
   92SAPE   H4S 9026  -0.714   4.704   6.295 -0.7924  0.3824  0.4323
   92SAPE   C25 9027  -0.516   4.629   6.249  0.1571 -0.0699  0.4038
   92SAPE   H5R 9028  -0.530   4.530   6.293  1.0222  0.4427  1.9311
   92SAPE   C26 9029  -0.421   4.652   6.162 -0.4979 -0.4270  0.7444
   92SAPE   H6R 9030  -0.366   4.564   6.125 -0.4239  0.2312 -0.8065
   92SAPE   C27 9031  -0.393   4.785   6.100  0.7694 -0.2363 -0.7007
   92SAPE   H7R 9032  -0.457   4.865   6.142  0.4222 -1.2793  0.8711
   92SAPE   H7S 9033  -0.415   4.784   5.992  0.8219  0.6067 -0.7255
   92SAPE   C28 9034  -0.248   4.831   6.110  0.2023  0.4236 -1.1088
   92SAPE   H8R 9035  -0.199   4.842   6.208 -1.8701  1.9836 -0.1625
   92SAPE   C29 9036  -0.180   4.866   5.995  0.3207  0.2508 -0.5184
   92SAPE   H9R 9037  -0.078   4.905   6.007  0.0527  0.6743  0.4620
   92SAPE  C210 9038  -0.236   4.862   5.848 -0.1275 -0.7178 -0.1349
   92SAPE  H10R 9039  -0.318   4.791   5.822 -0.2279 -0.6299 -0.0634
   92SAPE  H10S 9040  -0.159   4.817   5.783  0.6560  1.7706 -1.0322
   92SAPE  C211 9041  -0.273   4.996   5.783  0.2754  0.6191 -1.5053
   92SAPE  H11R 9042  -0.319   5.074   5.845 -0.3906 -2.0356  1.5993
   92SAPE  C212 9043  -0.253   5.032   5.657  0.4400 -0.2134 -0.5772
   92SAPE  H12R 9044  -0.274   5.138   5.639 -0.2871  0.1033  1.8051
   92SAPE  C213 9045  -0.196   4.960   5.539  0.0116 -0.3691  0.0648
   92SAPE  H13R 9046  -0.235   5.005   5.445 -1.9113 -1.2219  0.4006
   92SAPE  H13S 9047  -0.226   4.853   5.549  0.4869 -0.4407  0.7526
   92SAPE  C214 9048  -0.044   4.976   5.529  0.2886 -0.0477 -0.4073
   92SAPE  H14R 9049   0.016   5.012   5.614  1.5268 -0.7629 -0.9492
   92SAPE  C215 9050   0.023   4.952   5.415  0.3388  0.0042  0.1817
   92SAPE  H15R 9051   0.133   4.956   5.409  0.3248 -1.4480 -1.9793
   92SAPE  C216 9052  -0.043   4.905   5.282 -0.3556 -0.0769 -0.4050
   92SAPE  H16R 9053  -0.154   4.905   5.288 -0.4341 -1.6532 -1.2881
   92SAPE  H16S 9054  -0.039   4.796   5.265  0.0337 -0.5151  2.0975
   92SAPE  C217 9055  -0.011   4.988   5.168 -0.3998  0.6157  0.4038
   92SAPE  H17R 9056   0.094   5.025   5.163  0.1001 -0.6731  0.7222
   92SAPE  H17S 9057  -0.070   5.082   5.165 -1.8724 -0.2914 -0.0561
   92SAPE  C218 9058  -0.012   4.900   5.038  0.4453  0.3056  0.2108
   92SAPE  H18R 9059  -0.109   4.847   5.027  0.7664 -0.2289 -0.1036
   92SAPE  H18S 9060   0.075   4.831   5.052 -0.2737 -0.3410  1.6935
   92SAPE  C219 9061   0.007   4.990   4.920  0.3505 -0.6954 -0.2442
   92SAPE  H19R 9062   0.115   5.011   4.911  0.2484 -0.4234 -0.9209
   92SAPE  H19S 9063  -0.046   5.088   4.933 -2.5000 -2.0941 -0.4843
   92SAPE  C220 9064  -0.040   4.923   4.792  0.1719  0.4223  0.4222
   92SAPE  H20R 9065  -0.149   4.906   4.804  0.4197  1.1243  5.4682
   92SAPE  H20S 9066   0.003   4.821   4.780 -1.5515 -0.7601  3.3470
   92SAPE  H20T 9067  -0.019   4.985   4.702 -1.7786  1.6557  0.7652
   92SAPE   C33 9068  -0.793   5.138   6.525 -0.0707 -0.2631  0.1852
   92SAPE   H3X 9069  -0.869   5.059   6.506 -1.4995  0.9997  0.4191
   92SAPE   H3Y 9070  -0.697   5.083   6.526 -1.0935 -2.1222  1.0187
   92SAPE   C34 9071  -0.786   5.244   6.409  0.4343 -0.1502 -0.3220
   92SAPE   H4X 9072  -0.742   5.332   6.459 -0.4755  0.3564 -0.4068
   92SAPE   H4Y 9073  -0.883   5.279   6.368 -0.3792  0.3272  1.9055
   92SAPE   C35 9074  -0.699   5.191   6.294 -0.2110  0.2819  0.2831
   92SAPE   H5X 9075  -0.608   5.133   6.322  1.6863  3.0800  0.3330
   92SAPE   H5Y 9076  -0.669   5.268   6.220 -0.3368 -0.9307 -1.0785
   92SAPE   C36 9077  -0.788   5.081   6.220 -0.3267 -0.3272 -0.4878
   92SAPE   H6X 9078  -0.895   5.109   6.210 -0.9376 -1.9750  1.0433
   92SAPE   H6Y 9079  -0.792   4.990   6.283  0.2444  0.1380  0.2442
   92SAPE   C37 9080  -0.736   5.038   6.080  0.0796 -0.1633 -0.2052
   92SAPE   H7X 9081  -0.795   4.950   6.046 -0.5722 -0.0375  0.5875
   92SAPE   H7Y 9082  -0.628   5.012   6.081  0.0775 -0.5094 -2.5698
   92SAPE   C38 9083  -0.743   5.154   5.980  0.2476 -0.7216 -0.4538
   92SAPE   H8X 9084  -0.682   5.242   6.011  0.2600 -0.4805 -1.1303
   92SAPE   H8Y 9085  -0.850   5.178   5.961  0.3834 -0.5518 -1.0274
   92SAPE   C39 9086  -0.687   5.107   5.846 -0.2187  0.4076  0.5118
   92SAPE   H9X 9087  -0.752   5.031   5.797 -2.1467  0.6585  2.5082
   92SAPE   H9Y 9088  -0.583   5.076   5.868 -0.0546  1.1494  0.7820
   92SAPE  C310 9089  -0.665   5.230   5.752  0.3062 -0.3114  0.2483
   92SAPE  H10X 9090  -0.611   5.300   5.818 -0.3520 -1.2144  1.7909
   92SAPE  H10Y 9091  -0.767   5.270   5.734  0.5772  1.9202  3.0875
   92SAPE  C311 9092  -0.598   5.177   5.626  0.6989 -1.0835 -0.2326
   92SAPE  H11X 9093  -0.511   5.117   5.661  0.3431 -0.8842  1.0570
   92SAPE  H11Y 9094  -0.545   5.263   5.580 -0.6026  0.4170  0.9522
   92SAPE  C312 9095  -0.680   5.093   5.527 -0.1205 -0.4142  0.3772
   92SAPE  H12X 9096  -0.761   5.150   5.478  1.2897  0.3149 -1.2352
   92SAPE  H12Y 9097  -0.714   4.997   5.569  0.8614 -0.6743  0.6036
   92SAPE  C313 9098  -0.595   5.052   5.405  0.0132 -0.4063  0.5015
   92SAPE  H13X 9099  -0.626   4.953   5.365 -1.6345  0.7085 -1.1295
   92SAPE  H13Y 9100  -0.486   5.043   5.425  0.3488 -0.8416 -1.3482
   92SAPE  C314 9101  -0.604   5.141   5.280  0.0951  0.2799  0.2058
   92SAPE  H14X 9102  -0.580   5.242   5.320  1.7558 -0.5397  1.4569
   92SAPE  H14Y 9103  -0.711   5.145   5.252 -0.4721 -1.0752  1.9565
   92SAPE  C315 9104  -0.511   5.096   5.161 -0.1970 -0.3081  0.1811
   92SAPE  H15X 9105  -0.569   5.014   5.114 -0.3953  0.8265 -1.6641
   92SAPE  H15Y 9106  -0.416   5.052   5.198 -1.4435 -2.5087  0.9156
   92SAPE  C316 9107  -0.490   5.217   5.065  0.0958 -0.6979  0.5421
   92SAPE  H16X 9108  -0.439   5.302   5.116  0.7329 -0.3346 -0.6388
   92SAPE  H16Y 9109  -0.591   5.253   5.035  0.0684 -1.1189  0.1112
   92SAPE  C317 9110  -0.426   5.180   4.939  0.5500 -0.4605  0.4222
   92SAPE  H17X 9111  -0.323   5.144   4.959  1.4412  1.7673  0.1871
   92SAPE  H17Y 9112  -0.413   5.259   4.862 -0.1004 -1.1272 -0.3880
   92SAPE  C318 9113  -0.509   5.080   4.850 -0.1880  0.0085 -0.2726
   92SAPE  H18X 9114  -0.615   5.107   4.867 -0.0846  1.2356 -1.3721
   92SAPE  H18Y 9115  -0.491   4.976   4.885  0.2576  0.4561  0.8758
   92SAPE  H18Z 9116  -0.492   5.102   4.742  0.3246  1.5694  0.0946
   93SAPE     N 9117   2.581   2.782   7.375 -0.2974 -0.4288 -0.0759
   93SAPE   HN1 9118   2.501   2.824   7.425  0.2897  1.0205 -0.3136
   93SAPE   HN2 9119   2.614   2.859   7.314  0.0891  1.2728  2.1543
   93SAPE   HN3 9120   2.559   2.714   7.300  0.9140 -1.6121  0.5786
   93SAPE   C12 9121   2.673   2.710   7.470 -0.1202  0.1022 -0.0973
   93SAPE  H12A 9122   2.688   2.762   7.567 -2.9757 -2.1646  1.7134
   93SAPE  H12B 9123   2.780   2.704   7.442 -0.1954  0.6431 -0.5143
   93SAPE   C11 9124   2.614   2.570   7.513  0.6420  0.1679  0.2558
   93SAPE  H11A 9125   2.670   2.538   7.603 -1.1874  0.4562  1.5366
   93SAPE  H11B 9126   2.636   2.498   7.431  1.4223  0.8921 -0.1925
   93SAPE     P 9127   2.381   2.445   7.542  0.1944 -0.0288 -0.5058
   93SAPE   O13 9128   2.438   2.347   7.640  0.2910 -0.1939  0.7008
   93SAPE   O14 9129   2.248   2.493   7.577  0.1687  0.4298 -0.0214
   93SAPE   O12 9130   2.474   2.574   7.539  0.2472  0.0587 -0.1256
   93SAPE   O11 9131   2.388   2.387   7.393  0.2784  0.6392 -0.7665
   93SAPE    C1 9132   2.358   2.469   7.280 -0.1623  0.4678 -0.0573
   93SAPE    HA 9133   2.250   2.467   7.254 -0.1144  1.7267 -0.4396
   93SAPE    HB 9134   2.384   2.576   7.298  0.7202  0.4179 -0.9626
   93SAPE    C2 9135   2.431   2.427   7.153 -0.5162 -0.4115 -0.0192
   93SAPE    HS 9136   2.540   2.443   7.167 -0.8301 -0.0623  2.4660
   93SAPE   O21 9137   2.377   2.502   7.035 -0.2348  0.1171  0.6544
   93SAPE   C21 9138   2.438   2.614   7.027 -0.0953 -0.0240 -0.1755
   93SAPE   O22 9139   2.528   2.657   7.099  0.3354 -0.5511 -0.6528
   93SAPE   C22 9140   2.390   2.691   6.906  0.2765  0.1160  0.1829
   93SAPE   H2R 9141   2.287   2.656   6.880  0.1048  1.4108 -0.9746
   93SAPE   H2S 9142   2.383   2.799   6.931  1.9437  0.0122  1.2034
   93SAPE    C3 9143   2.423   2.271   7.130 -0.2882 -0.4478 -0.5425
   93SAPE    HX 9144   2.315   2.244   7.130 -0.4433 -0.3433  3.0490
   93SAPE    HY 9145   2.464   2.212   7.214  0.8136 -0.2134 -0.9033
   93SAPE   O31 9146   2.472   2.228   7.000 -0.1655 -0.2286  0.1501
   93SAPE   C31 9147   2.600   2.194   7.003  1.1283 -0.4092 -0.2771
   93SAPE   O32 9148   2.664   2.199   7.107 -0.6839 -0.2576  0.1723
   93SAPE   C32 9149   2.653   2.145   6.876 -0.3341  0.2468 -0.7751
   93SAPE   H2X 9150   2.745   2.090   6.906 -0.6045  0.6740  0.9506
   93SAPE   H2Y 9151   2.681   2.234   6.814 -1.1518  0.5315 -0.7492
   93SAPE   C23 9152   2.481   2.693   6.791  0.2034 -0.5000  0.9091
   93SAPE   H3R 9153   2.527   2.593   6.773  0.0863 -0.4130  0.0857
   93SAPE   H3S 9154   2.565   2.763   6.812  0.6841 -0.1592 -1.7540
   93SAPE   C24 9155   2.416   2.745   6.666  0.3595  0.6953  0.6978
   93SAPE   H4R 9156   2.486   2.751   6.579  0.1091 -4.6541 -0.1683
   93SAPE   H4S 9157   2.370   2.845   6.684 -0.1102  0.5624  0.2545
   93SAPE   C25 9158   2.318   2.640   6.621  0.3868 -0.3448 -0.2596
   93SAPE   H5R 9159   2.355   2.539   6.594  0.8602 -0.0965 -0.5559
   93SAPE   C26 9160   2.192   2.655   6.587 -0.0891  0.6740  0.2716
   93SAPE   H6R 9161   2.144   2.564   6.548  2.2005 -0.0844 -0.9454
   93SAPE   C27 9162   2.104   2.787   6.587 -0.1551 -0.2080 -0.3431
   93SAPE   H7R 9163   2.093   2.822   6.482 -2.4366 -0.3599 -0.2016
   93SAPE   H7S 9164   2.148   2.876   6.636 -1.7821  0.0404  0.7115
   93SAPE   C28 9165   1.970   2.760   6.656 -0.3960  0.2817  0.2679
   93SAPE   H8R 9166   1.997   2.684   6.730  2.0414 -1.5104 -2.2225
   93SAPE   C29 9167   1.846   2.798   6.626  0.2576  0.3917  0.6157
   93SAPE   H9R 9168   1.758   2.762   6.682 -0.1361 -0.6791 -0.6217
   93SAPE  C210 9169   1.806   2.893   6.510 -0.6032  0.8820 -0.5671
   93SAPE  H10R 9170   1.696   2.907   6.514 -0.8942 -0.9154 -1.2985
   93SAPE  H10S 9171   1.812   2.850   6.408 -1.4259 -1.5489  0.3217
   93SAPE  C211 9172   1.861   3.030   6.524  0.0086 -0.1682  0.3517
   93SAPE  H11R 9173   1.822   3.087   6.610 -0.1798  1.5701 -0.8208
   93SAPE  C212 9174   1.952   3.083   6.440  0.0899 -0.3099  0.1149
   93SAPE  H12R 9175   1.978   3.188   6.460  1.2240 -0.6195  0.3499
   93SAPE  C213 9176   2.003   3.026   6.310  0.3995  0.1155 -0.3813
   93SAPE  H13R 9177   1.991   2.917   6.325 -2.5478  0.4818  0.6710
   93SAPE  H13S 9178   2.109   3.056   6.317  0.6636 -0.9552  0.4956
   93SAPE  C214 9179   1.920   3.086   6.197  0.0182  1.1548 -1.2131
   93SAPE  H14R 9180   1.815   3.086   6.232  0.3861 -2.1727  0.3247
   93SAPE  C215 9181   1.955   3.109   6.069  0.3046 -0.3564 -0.1744
   93SAPE  H15R 9182   1.891   3.182   6.018 -0.9433 -0.6318  0.9229
   93SAPE  C216 9183   2.098   3.104   6.019  0.1785  0.3814 -0.8468
   93SAPE  H16R 9184   2.147   3.019   6.071 -2.0989  0.5828  1.8654
   93SAPE  H16S 9185   2.147   3.197   6.055 -1.2336  1.0782 -0.6679
   93SAPE  C217 9186   2.107   3.102   5.868 -0.5140 -0.0447 -0.4350
   93SAPE  H17R 9187   2.050   3.184   5.820 -1.4041 -0.5136 -0.2050
   93SAPE  H17S 9188   2.076   3.003   5.828 -1.4953 -0.5226  1.4036
   93SAPE  C218 9189   2.255   3.119   5.826  0.0487 -0.1312 -0.5877
   93SAPE  H18R 9190   2.305   3.026   5.861 -0.7244 -0.0046  0.9343
   93SAPE  H18S 9191   2.306   3.204   5.875  0.5416 -0.6187 -0.2301
   93SAPE  C219 9192   2.284   3.130   5.679 -0.1496 -0.7199 -0.4476
   93SAPE  H19R 9193   2.242   3.040   5.629 -1.5880 -0.0020 -0.5854
   93SAPE  H19S 9194   2.394   3.113   5.677  0.0255  0.0105  1.1493
   93SAPE  C220 9195   2.244   3.258   5.608 -0.5322 -0.8110 -0.9851
   93SAPE  H20R 9196   2.291   3.345   5.659  1.1623 -2.3799  0.2812
   93SAPE  H20S 9197   2.135   3.276   5.620  0.0459  2.6887  0.4856
   93SAPE  H20T 9198   2.276   3.253   5.502  0.2009 -1.5577 -0.7419
   93SAPE   C33 9199   2.558   2.045   6.805  0.1181 -0.2363  0.0575
   93SAPE   H3X 9200   2.522   1.970   6.879 -0.0772 -1.4582 -1.2138
   93SAPE   H3Y 9201   2.620   1.990   6.730  0.2843 -0.0794  0.0806
   93SAPE   C34 9202   2.443   2.108   6.721  0.0403  0.5945 -0.0940
   93SAPE   H4X 9203   2.364   2.126   6.798 -0.0511 -0.6237  0.1144
   93SAPE   H4Y 9204   2.398   2.028   6.658 -1.2848  0.2906  1.1682
   93SAPE   C35 9205   2.470   2.234   6.633  0.1796 -0.1217 -0.2357
   93SAPE   H5X 9206   2.522   2.314   6.691  0.4461  2.1146 -3.3064
   93SAPE   H5Y 9207   2.374   2.288   6.618  2.1121  4.2731  1.2375
   93SAPE   C36 9208   2.515   2.209   6.493 -0.2133 -0.9430  0.1120
   93SAPE   H6X 9209   2.444   2.141   6.441 -0.4305 -0.1904 -0.5946
   93SAPE   H6Y 9210   2.610   2.152   6.494 -0.5493 -1.5100  0.6561
   93SAPE   C37 9211   2.544   2.333   6.405 -0.1243  0.3095 -0.2393
   93SAPE   H7X 9212   2.638   2.387   6.430  0.0558  0.1528 -0.5752
   93SAPE   H7Y 9213   2.463   2.406   6.428 -1.4179 -0.5800 -1.7098
   93SAPE   C38 9214   2.523   2.299   6.255 -0.2284  0.0401  0.4775
   93SAPE   H8X 9215   2.417   2.306   6.222 -0.1786  2.3748  0.6187
   93SAPE   H8Y 9216   2.561   2.197   6.235 -0.6470 -0.1918  0.8353
   93SAPE   C39 9217   2.601   2.393   6.158  0.5760 -0.1440  0.1136
   93SAPE   H9X 9218   2.707   2.375   6.188  0.0945  0.3927  2.3072
   93SAPE   H9Y 9219   2.581   2.500   6.180 -3.2864 -0.5065 -0.9570
   93SAPE  C310 9220   2.564   2.368   6.006 -0.6529  0.2227 -0.0372
   93SAPE  H10X 9221   2.465   2.400   5.969 -0.9477  0.8381  1.2178
   93SAPE  H10Y 9222   2.560   2.257   6.008  0.4101  0.1493  2.4646
   93SAPE  C311 9223   2.675   2.420   5.907 -0.3238 -0.1794 -0.1402
   93SAPE  H11X 9224   2.775   2.401   5.953 -0.1816 -0.5937 -0.6020
   93SAPE  H11Y 9225   2.670   2.530   5.912 -1.2123 -0.2807  2.5822
   93SAPE  C312 9226   2.661   2.377   5.758  0.4950  0.4488  0.2213
   93SAPE  H12X 9227   2.558   2.395   5.721  0.9760 -0.9634 -1.9795
   93SAPE  H12Y 9228   2.671   2.266   5.753 -0.9647  0.3549 -1.6001
   93SAPE  C313 9229   2.749   2.455   5.658  0.4811 -0.0221 -0.2484
   93SAPE  H13X 9230   2.852   2.421   5.683 -0.1308 -1.1236  0.9070
   93SAPE  H13Y 9231   2.754   2.565   5.669 -0.2522  0.2538 -2.3356
   93SAPE  C314 9232   2.722   2.421   5.513  0.4853  0.9648 -0.0609
   93SAPE  H14X 9233   2.620   2.460   5.493 -0.4318  0.5064  3.1161
   93SAPE  H14Y 9234   2.711   2.310   5.505  1.8910  0.9391 -2.5386
   93SAPE  C315 9235   2.836   2.464   5.420  0.0824 -0.3932 -0.1796
   93SAPE  H15X 9236   2.898   2.381   5.381 -1.4733 -1.2218 -0.9717
   93SAPE  H15Y 9237   2.903   2.532   5.477  0.3027 -0.3569 -0.4793
   93SAPE  C316 9238   2.788   2.539   5.296 -0.8877  0.3096 -0.6166
   93SAPE  H16X 9239   2.722   2.620   5.333  1.2844  1.1701  1.6377
   93SAPE  H16Y 9240   2.719   2.480   5.231 -0.0411 -0.3198 -0.9758
   93SAPE  C317 9241   2.904   2.602   5.217  0.0690 -0.2424  0.1924
   93SAPE  H17X 9242   2.977   2.520   5.198 -0.5119 -0.6900 -0.1085
   93SAPE  H17Y 9243   2.958   2.675   5.281  0.0798 -1.5863  1.8120
   93SAPE  C318 9244   2.849   2.657   5.091 -0.4032  1.1464 -0.4755
   93SAPE  H18X 9245   2.922   2.719   5.035 -0.8466  2.7013  0.5993
   93SAPE  H18Y 9246   2.756   2.713   5.111  0.4810  2.0245  1.5223
   93SAPE  H18Z 9247   2.842   2.575   5.017  1.2388  1.3121 -0.8505
   94SAPE     N 9248   1.772   6.206   6.982  0.4894 -0.3683 -0.5920
   94SAPE   HN1 9249   1.763   6.293   6.926  2.8583  0.1527 -0.2683
   94SAPE   HN2 9250   1.839   6.148   6.927  0.1178 -0.3097 -1.1114
   94SAPE   HN3 9251   1.681   6.156   6.988  0.2411  0.1735  0.2297
   94SAPE   C12 9252   1.824   6.224   7.119  0.3085 -0.1503 -0.4537
   94SAPE  H12A 9253   1.908   6.154   7.138 -1.1637 -1.4979  1.5574
   94SAPE  H12B 9254   1.741   6.186   7.183 -0.9188  2.7386 -0.1516
   94SAPE   C11 9255   1.862   6.374   7.153 -0.4337 -0.6229  0.0558
   94SAPE  H11A 9256   1.899   6.382   7.258  2.5364 -0.7221 -0.8980
   94SAPE  H11B 9257   1.767   6.432   7.147 -0.0303 -0.1323 -2.5837
   94SAPE     P 9258   2.120   6.382   7.093  0.0981 -0.2735  0.2126
   94SAPE   O13 9259   2.171   6.413   7.226 -0.3808  0.2704  0.0558
   94SAPE   O14 9260   2.132   6.234   7.059  0.2949 -1.0770  0.3702
   94SAPE   O12 9261   1.967   6.426   7.067  0.0851 -0.0636  0.4242
   94SAPE   O11 9262   2.204   6.459   6.979 -0.0110  0.1902  0.0010
   94SAPE    C1 9263   2.146   6.459   6.850  0.6645 -0.1808 -0.3351
   94SAPE    HA 9264   2.111   6.356   6.827 -1.8395  0.7873 -1.2726
   94SAPE    HB 9265   2.060   6.530   6.843  0.5250 -0.4130 -1.1473
   94SAPE    C2 9266   2.245   6.486   6.728 -0.8501 -0.1853 -0.6423
   94SAPE    HS 9267   2.279   6.590   6.744 -2.5254  0.3018 -0.0753
   94SAPE   O21 9268   2.171   6.478   6.613 -0.0999 -0.0451  0.1007
   94SAPE   C21 9269   2.218   6.548   6.519  0.7243  0.2537  0.3036
   94SAPE   O22 9270   2.316   6.622   6.523 -0.2225  0.2764 -0.4537
   94SAPE   C22 9271   2.125   6.540   6.389 -1.0323 -0.3048  0.4073
   94SAPE   H2R 9272   2.145   6.444   6.337 -3.5625 -0.1669 -1.0304
   94SAPE   H2S 9273   2.017   6.532   6.417 -0.2685 -0.2988  3.7150
   94SAPE    C3 9274   2.365   6.382   6.743 -0.4578  0.1874 -0.3712
   94SAPE    HX 9275   2.328   6.278   6.757  2.6703 -0.6878  3.2691
   94SAPE    HY 9276   2.420   6.402   6.838  1.2534  0.1237 -1.3051
   94SAPE   O31 9277   2.454   6.398   6.628  0.2504 -0.0768 -0.0932
   94SAPE   C31 9278   2.571   6.464   6.648  0.4393  0.2870 -0.7928
   94SAPE   O32 9279   2.606   6.506   6.758 -0.1587 -0.4552  0.1488
   94SAPE   C32 9280   2.651   6.436   6.520 -0.4953  0.7495  0.5557
   94SAPE   H2X 9281   2.609   6.343   6.475  4.3148 -0.6610 -1.6581
   94SAPE   H2Y 9282   2.752   6.412   6.558 -1.1767 -0.0820  1.9262
   94SAPE   C23 9283   2.147   6.648   6.275  0.0398 -0.1678  0.8442
   94SAPE   H3R 9284   2.252   6.674   6.251 -0.6441  0.7623 -1.4557
   94SAPE   H3S 9285   2.096   6.739   6.312 -0.7499 -1.2775  2.6218
   94SAPE   C24 9286   2.069   6.599   6.150  1.0500  0.1535  0.6562
   94SAPE   H4R 9287   2.035   6.691   6.098  0.5281  0.8225  2.1321
   94SAPE   H4S 9288   1.984   6.537   6.182  0.8224 -0.9550 -1.8263
   94SAPE   C25 9289   2.145   6.512   6.064 -0.0795  0.1656  0.2203
   94SAPE   H5R 9290   2.175   6.413   6.099 -0.6743 -0.2209 -0.3497
   94SAPE   C26 9291   2.166   6.522   5.929  0.8775 -0.2406 -0.8271
   94SAPE   H6R 9292   2.202   6.437   5.869 -0.5912 -0.0097 -2.0942
   94SAPE   C27 9293   2.135   6.640   5.846  0.0520  0.2768  0.8230
   94SAPE   H7R 9294   2.192   6.645   5.752 -0.8679 -1.9153  0.0814
   94SAPE   H7S 9295   2.158   6.731   5.906  0.0803  1.2029 -0.5595
   94SAPE   C28 9296   1.984   6.631   5.824  0.2094  0.5148  0.1886
   94SAPE   H8R 9297   1.927   6.614   5.917 -1.5772 -0.2441 -1.0068
   94SAPE   C29 9298   1.917   6.642   5.703 -0.6416 -0.1573 -0.0416
   94SAPE   H9R 9299   1.807   6.645   5.709 -0.7593 -1.4416 -1.2271
   94SAPE  C210 9300   1.981   6.672   5.576  0.4814  0.1497  0.7399
   94SAPE  H10R 9301   2.075   6.731   5.586  0.3530  0.4639  0.1587
   94SAPE  H10S 9302   1.906   6.735   5.523 -0.7928  0.6852  3.0490
   94SAPE  C211 9303   2.016   6.541   5.511  0.1690 -0.1515 -0.8497
   94SAPE  H11R 9304   2.105   6.495   5.558  0.5471 -0.0414 -1.4434
   94SAPE  C212 9305   1.934   6.476   5.427 -0.1933  0.0860  0.3927
   94SAPE  H12R 9306   1.954   6.373   5.396 -0.1334  0.3703 -0.5581
   94SAPE  C213 9307   1.808   6.541   5.349 -0.5021  1.2452 -0.1181
   94SAPE  H13R 9308   1.749   6.592   5.428  0.7431 -1.5690  2.8486
   94SAPE  H13S 9309   1.737   6.461   5.317 -2.2794  2.1480  1.4146
   94SAPE  C214 9310   1.849   6.629   5.239  0.2577  0.0331  0.3107
   94SAPE  H14R 9311   1.875   6.734   5.258 -0.2844  0.2489 -0.0955
   94SAPE  C215 9312   1.852   6.597   5.109  0.2970  0.0259  0.2552
   94SAPE  H15R 9313   1.872   6.683   5.044  0.6984 -0.4136 -0.2209
   94SAPE  C216 9314   1.824   6.461   5.052  0.0813  0.1857 -0.0180
   94SAPE  H16R 9315   1.749   6.415   5.119  1.3274  2.2192  3.0032
   94SAPE  H16S 9316   1.912   6.395   5.067  1.0727  1.1311 -1.4405
   94SAPE  C217 9317   1.782   6.459   4.903 -0.8134 -0.3263 -0.6581
   94SAPE  H17R 9318   1.873   6.468   4.839 -0.1042  1.7174  0.5368
   94SAPE  H17S 9319   1.719   6.550   4.895  1.5303  1.7651  2.1730
   94SAPE  C218 9320   1.686   6.344   4.871 -0.0134 -0.1351 -0.3127
   94SAPE  H18R 9321   1.705   6.253   4.932 -1.2373 -0.0160  0.2654
   94SAPE  H18S 9322   1.682   6.326   4.761  2.0166 -3.3927 -0.0077
   94SAPE  C219 9323   1.538   6.379   4.919  0.4058 -0.6104  0.4984
   94SAPE  H19R 9324   1.546   6.400   5.028 -2.2576  1.9935  0.3205
   94SAPE  H19S 9325   1.475   6.289   4.903  0.3064 -0.1212 -2.4776
   94SAPE  C220 9326   1.474   6.484   4.839  0.4395  0.0708 -0.0686
   94SAPE  H20R 9327   1.528   6.581   4.828 -0.1327  0.3976 -0.0619
   94SAPE  H20S 9328   1.372   6.503   4.880 -0.6086 -1.9683 -1.5746
   94SAPE  H20T 9329   1.444   6.447   4.739  0.0327  1.2953 -0.4219
   94SAPE   C33 9330   2.655   6.544   6.410  0.8930  0.4940 -0.3328
   94SAPE   H3X 9331   2.720   6.631   6.434  1.2715  0.3244 -0.7342
   94SAPE   H3Y 9332   2.549   6.579   6.402 -0.3462 -2.8849 -0.0915
   94SAPE   C34 9333   2.703   6.501   6.270 -0.5389  0.3124  0.3769
   94SAPE   H4X 9334   2.810   6.472   6.263 -0.3387  0.5620  2.1513
   94SAPE   H4Y 9335   2.697   6.592   6.206  1.1756  0.1726 -0.0170
   94SAPE   C35 9336   2.612   6.397   6.198 -0.0118 -1.0923  0.5173
   94SAPE   H5X 9337   2.504   6.422   6.204  0.2870  0.3372  0.2465
   94SAPE   H5Y 9338   2.631   6.297   6.243 -2.6486 -2.0292 -0.2782
   94SAPE   C36 9339   2.650   6.392   6.048  0.7291  0.3277  1.0526
   94SAPE   H6X 9340   2.750   6.343   6.044  0.3029 -0.5035  0.1559
   94SAPE   H6Y 9341   2.660   6.492   6.001  1.2681 -0.8312 -1.4555
   94SAPE   C37 9342   2.540   6.326   5.955 -0.6844 -0.1664  0.1951
   94SAPE   H7X 9343   2.441   6.374   5.971 -0.9322  0.3576 -2.3822
   94SAPE   H7Y 9344   2.535   6.219   5.981 -2.0208 -0.7201 -2.0312
   94SAPE   C38 9345   2.585   6.336   5.806  0.2531 -0.0244  0.5899
   94SAPE   H8X 9346   2.665   6.259   5.795  1.4218  1.0890  0.9494
   94SAPE   H8Y 9347   2.628   6.438   5.795 -1.1320  0.6256  1.0568
   94SAPE   C39 9348   2.468   6.293   5.718 -0.3136 -0.0284 -0.1411
   94SAPE   H9X 9349   2.382   6.358   5.746 -0.9232 -0.1800 -1.5985
   94SAPE   H9Y 9350   2.439   6.194   5.759  0.3055 -0.4484 -0.6910
   94SAPE  C310 9351   2.495   6.309   5.568 -0.6603 -0.0391 -0.5409
   94SAPE  H10X 9352   2.409   6.263   5.516 -0.5688 -0.8809  0.0091
   94SAPE  H10Y 9353   2.586   6.249   5.544 -0.4421 -0.7354  1.6834
   94SAPE  C311 9354   2.507   6.455   5.531 -0.0063 -0.4472 -0.0367
   94SAPE  H11X 9355   2.565   6.450   5.436  0.4599  2.5965  0.0048
   94SAPE  H11Y 9356   2.557   6.521   5.605  0.7485 -1.6157  0.5366
   94SAPE  C312 9357   2.367   6.507   5.493  0.5267 -0.4213 -0.5386
   94SAPE  H12X 9358   2.312   6.543   5.582 -0.8803 -0.8870 -1.1849
   94SAPE  H12Y 9359   2.284   6.448   5.448  0.5782 -0.3924 -0.6726
   94SAPE  C313 9360   2.357   6.631   5.406  0.2142  0.3030 -0.4262
   94SAPE  H13X 9361   2.450   6.691   5.409 -0.3144  1.1291  1.6145
   94SAPE  H13Y 9362   2.274   6.695   5.443 -0.5970 -1.2638  0.5919
   94SAPE  C314 9363   2.313   6.587   5.261  0.2849 -0.3886 -0.5248
   94SAPE  H14X 9364   2.216   6.536   5.276 -0.1292 -0.1197 -2.1573
   94SAPE  H14Y 9365   2.386   6.510   5.229 -0.1838 -0.5994 -1.0994
   94SAPE  C315 9366   2.287   6.707   5.163  0.0262 -0.0912 -0.1625
   94SAPE  H15X 9367   2.383   6.749   5.126 -0.6443  2.2355  0.5588
   94SAPE  H15Y 9368   2.228   6.791   5.206 -0.1837 -0.2232 -0.1897
   94SAPE  C316 9369   2.191   6.669   5.047 -0.2923  0.5230  0.6760
   94SAPE  H16X 9370   2.125   6.748   5.005  0.6942 -0.9473 -4.3889
   94SAPE  H16Y 9371   2.123   6.594   5.092  0.5909 -0.9749 -0.3895
   94SAPE  C317 9372   2.252   6.607   4.918  0.3430  0.1245 -0.3773
   94SAPE  H17X 9373   2.274   6.498   4.921 -1.3298 -0.3094 -2.1318
   94SAPE  H17Y 9374   2.358   6.636   4.900  2.1683 -3.5987  2.6651
   94SAPE  C318 9375   2.167   6.622   4.788 -0.6620  0.2280 -0.6332
   94SAPE  H18X 9376   2.073   6.564   4.802 -0.6015  0.6061  1.9205
   94SAPE  H18Y 9377   2.227   6.577   4.706 -0.4860  1.2267 -1.0650
   94SAPE  H18Z 9378   2.154   6.728   4.759  0.0183  0.4159 -0.2713
   95SAPE     N 9379   3.444   5.360   7.091 -0.3441  0.1375 -0.0909
   95SAPE   HN1 9380   3.413   5.332   6.995 -0.1930  0.4345 -0.2260
   95SAPE   HN2 9381   3.367   5.402   7.146  0.5339  1.8877 -0.1424
   95SAPE   HN3 9382   3.521   5.429   7.084 -0.1751 -0.1362 -1.3049
   95SAPE   C12 9383   3.478   5.237   7.166 -0.3019  0.3894 -0.2518
   95SAPE  H12A 9384   3.489   5.252   7.276  4.3159  0.5873 -0.5323
   95SAPE  H12B 9385   3.582   5.215   7.135 -0.0068  0.5825  0.5661
   95SAPE   C11 9386   3.395   5.120   7.122 -0.3965  0.5363 -0.3532
   95SAPE  H11A 9387   3.286   5.124   7.144 -0.2799  1.5189  0.0895
   95SAPE  H11B 9388   3.427   5.034   7.184 -1.9747  0.9777  1.1333
   95SAPE     P 9389   3.508   4.983   6.927 -0.1874  0.0604 -0.4706
   95SAPE   O13 9390   3.564   5.026   6.794 -0.3138 -0.5806  0.2459
   95SAPE   O14 9391   3.601   4.938   7.027 -0.7776  0.0081 -0.0692
   95SAPE   O12 9392   3.411   5.097   6.982  0.0324  0.1143 -0.0870
   95SAPE   O11 9393   3.406   4.860   6.912 -0.9340  0.1036 -0.0858
   95SAPE    C1 9394   3.277   4.888   6.860  0.6953 -0.0237 -0.0340
   95SAPE    HA 9395   3.215   4.917   6.948  1.3877 -1.8330  1.0788
   95SAPE    HB 9396   3.273   4.972   6.787  0.6467  1.0698  1.1919
   95SAPE    C2 9397   3.206   4.775   6.783 -0.4697  0.8135 -0.0089
   95SAPE    HS 9398   3.207   4.681   6.843  1.5610  0.4640 -0.5305
   95SAPE   O21 9399   3.272   4.756   6.655 -0.2096 -0.4935  0.9260
   95SAPE   C21 9400   3.222   4.659   6.575  0.0030  0.1923  0.6130
   95SAPE   O22 9401   3.145   4.572   6.607  0.5342  0.1850  0.7632
   95SAPE   C22 9402   3.279   4.679   6.437 -1.0131 -0.5227  0.6375
   95SAPE   H2R 9403   3.359   4.604   6.418  0.2285  1.2992 -1.9857
   95SAPE   H2S 9404   3.195   4.658   6.368 -1.1210 -2.4861  1.3028
   95SAPE    C3 9405   3.052   4.803   6.761 -0.1977 -0.4017  0.0179
   95SAPE    HX 9406   3.015   4.861   6.848  0.9655  1.5173 -0.6996
   95SAPE    HY 9407   3.002   4.705   6.749  0.9448 -1.0577  0.4062
   95SAPE   O31 9408   3.031   4.889   6.651  0.5524 -0.0720  0.7989
   95SAPE   C31 9409   2.920   4.964   6.650  0.1291 -0.2213  0.3812
   95SAPE   O32 9410   2.830   4.955   6.730 -0.5303 -0.3107 -0.5206
   95SAPE   C32 9411   2.915   5.054   6.524 -0.4222 -0.3279 -0.3357
   95SAPE   H2X 9412   3.005   5.119   6.520 -0.4506 -0.3311 -1.2563
   95SAPE   H2Y 9413   2.823   5.116   6.517  1.0382  2.1686  1.1157
   95SAPE   C23 9414   3.335   4.818   6.400  0.2157 -0.4080  0.1819
   95SAPE   H3R 9415   3.420   4.848   6.465 -0.5694  0.2440  0.9247
   95SAPE   H3S 9416   3.253   4.889   6.423  1.1741  1.5888 -2.0780
   95SAPE   C24 9417   3.365   4.855   6.256  0.0998  0.0942  0.0748
   95SAPE   H4R 9418   3.417   4.952   6.267  0.1104  0.1788 -0.6721
   95SAPE   H4S 9419   3.279   4.862   6.187 -1.9630 -0.3301  2.4637
   95SAPE   C25 9420   3.476   4.759   6.213  0.5677  0.2797  0.1377
   95SAPE   H5R 9421   3.564   4.753   6.279  2.5043 -0.3354 -2.3369
   95SAPE   C26 9422   3.461   4.676   6.109  0.2071  0.2691 -0.6126
   95SAPE   H6R 9423   3.541   4.606   6.080  1.6660  1.9367 -0.7098
   95SAPE   C27 9424   3.346   4.672   6.008 -0.5604 -0.7675  0.3107
   95SAPE   H7R 9425   3.348   4.778   5.972 -1.3746 -0.2358  1.7441
   95SAPE   H7S 9426   3.245   4.676   6.053  0.6471  0.9413  3.1489
   95SAPE   C28 9427   3.369   4.565   5.902  0.5183  0.0540 -0.7358
   95SAPE   H8R 9428   3.444   4.489   5.931 -0.7111 -0.4126  1.4853
   95SAPE   C29 9429   3.312   4.563   5.782 -1.2114  0.1901  0.8188
   95SAPE   H9R 9430   3.335   4.490   5.702  2.1302  1.5736  0.3225
   95SAPE  C210 9431   3.203   4.658   5.742  0.4091  0.1100 -0.5109
   95SAPE  H10R 9432   3.240   4.715   5.653 -0.6490 -2.7326 -2.9388
   95SAPE  H10S 9433   3.184   4.735   5.819 -0.4652  0.2539 -0.8586
   95SAPE  C211 9434   3.072   4.588   5.706  0.2178  0.2167  0.4197
   95SAPE  H11R 9435   3.006   4.563   5.790  0.9046 -0.4175  0.7802
   95SAPE  C212 9436   3.030   4.552   5.580 -0.0719 -0.1494 -1.0780
   95SAPE  H12R 9437   2.925   4.519   5.571  0.7249 -2.7987 -1.6013
   95SAPE  C213 9438   3.097   4.580   5.457 -0.3275  0.0189  0.6964
   95SAPE  H13R 9439   3.172   4.660   5.477 -0.1661 -0.5003  2.2457
   95SAPE  H13S 9440   3.022   4.618   5.385 -2.3794 -1.9172  1.7062
   95SAPE  C214 9441   3.179   4.462   5.402 -0.4632  0.2857  0.5251
   95SAPE  H14R 9442   3.187   4.382   5.478  0.8716  1.2261  1.4092
   95SAPE  C215 9443   3.223   4.443   5.274 -0.6168 -0.6248 -0.0077
   95SAPE  H15R 9444   3.296   4.362   5.259 -0.5406 -0.3929 -0.9072
   95SAPE  C216 9445   3.214   4.533   5.153 -0.1598 -0.4057  0.1604
   95SAPE  H16R 9446   3.147   4.619   5.172  0.1138 -0.1493 -0.0301
   95SAPE  H16S 9447   3.171   4.471   5.071 -1.9162 -1.6711  1.9488
   95SAPE  C217 9448   3.351   4.587   5.112 -0.5555 -0.1655  0.1917
   95SAPE  H17R 9449   3.406   4.510   5.053 -1.0276  0.3973 -1.0079
   95SAPE  H17S 9450   3.419   4.611   5.197 -0.2930  1.6671 -0.4979
   95SAPE  C218 9451   3.340   4.717   5.031  0.2401  0.1788  0.3572
   95SAPE  H18R 9452   3.292   4.789   5.100  3.3667  1.9016  0.9381
   95SAPE  H18S 9453   3.266   4.716   4.948  1.8304  1.5057 -1.1744
   95SAPE  C219 9454   3.474   4.770   4.979 -0.6397  0.1880  0.3616
   95SAPE  H19R 9455   3.505   4.703   4.896 -1.8112 -0.9941  0.8460
   95SAPE  H19S 9456   3.552   4.758   5.057 -1.4235  2.4652  1.5982
   95SAPE  C220 9457   3.473   4.916   4.930 -0.5943  0.5858  0.2873
   95SAPE  H20R 9458   3.377   4.936   4.877 -0.5869  3.2641  1.1471
   95SAPE  H20S 9459   3.561   4.925   4.862  0.7214 -1.1149  1.6948
   95SAPE  H20T 9460   3.494   4.991   5.009  1.3085 -1.5129  1.8807
   95SAPE   C33 9461   2.928   4.967   6.393  0.0315  0.0000  0.6842
   95SAPE   H3X 9462   2.840   4.902   6.377 -1.1683  1.7520 -0.2208
   95SAPE   H3Y 9463   3.019   4.905   6.406  0.1398  0.7619  5.0786
   95SAPE   C34 9464   2.941   5.057   6.264  0.2947 -0.8132  0.2419
   95SAPE   H4X 9465   2.941   5.160   6.304  0.8826 -1.7750  2.9243
   95SAPE   H4Y 9466   2.847   5.057   6.204 -0.6692  0.2719  1.6992
   95SAPE   C35 9467   3.059   5.023   6.176  0.4461  0.5015 -0.3357
   95SAPE   H5X 9468   3.051   4.914   6.153 -3.2102 -0.0946  2.7458
   95SAPE   H5Y 9469   3.156   5.034   6.229  0.8734  1.3671 -1.2635
   95SAPE   C36 9470   3.058   5.095   6.048 -0.2308  0.1602 -0.0132
   95SAPE   H6X 9471   3.083   5.201   6.070  0.2455  0.3893 -1.4930
   95SAPE   H6Y 9472   2.956   5.097   6.003 -0.6001  0.6530  0.8314
   95SAPE   C37 9473   3.155   5.043   5.933 -0.0321  0.3298  0.0434
   95SAPE   H7X 9474   3.228   4.970   5.974 -1.6553 -0.9943  0.6739
   95SAPE   H7Y 9475   3.206   5.132   5.891 -1.7932  1.0160 -0.7356
   95SAPE   C38 9476   3.076   4.997   5.808  0.4878  0.1375 -0.3483
   95SAPE   H8X 9477   2.989   5.065   5.794  0.8852  1.0818  1.4431
   95SAPE   H8Y 9478   3.029   4.897   5.823 -0.5874  0.6084 -0.4416
   95SAPE   C39 9479   3.161   5.007   5.684  0.3555  0.1978 -0.0113
   95SAPE   H9X 9480   3.160   4.911   5.628  1.7656 -0.2105  0.6002
   95SAPE   H9Y 9481   3.268   5.018   5.715  0.2002  0.6545  0.3715
   95SAPE  C310 9482   3.120   5.121   5.593  0.1274 -0.9597  0.1514
   95SAPE  H10X 9483   3.137   5.221   5.638 -0.3408 -2.0480  2.8990
   95SAPE  H10Y 9484   3.012   5.107   5.573  0.4472 -1.4635 -1.3886
   95SAPE  C311 9485   3.207   5.112   5.466  0.3424  0.4216 -0.0722
   95SAPE  H11X 9486   3.315   5.116   5.493  0.4964 -4.2590  0.9492
   95SAPE  H11Y 9487   3.192   5.204   5.406 -2.0799  0.9087  1.1695
   95SAPE  C312 9488   3.178   4.991   5.374  0.2615 -0.1445 -0.0279
   95SAPE  H12X 9489   3.220   4.899   5.419 -0.7027 -0.9731 -0.7534
   95SAPE  H12Y 9490   3.229   5.000   5.276 -0.3591  0.2324 -0.3278
   95SAPE  C313 9491   3.031   4.970   5.350  0.3448 -0.3414  0.1314
   95SAPE  H13X 9492   2.961   5.052   5.374  0.8306  1.2113 -3.1805
   95SAPE  H13Y 9493   3.001   4.885   5.416  1.3690 -1.3046 -0.5991
   95SAPE  C314 9494   3.000   4.927   5.208  0.4724  0.1255  0.1379
   95SAPE  H14X 9495   3.069   4.848   5.173 -0.3623 -0.6963  0.2953
   95SAPE  H14Y 9496   3.023   5.011   5.140 -1.1775 -1.3935 -2.4729
   95SAPE  C315 9497   2.852   4.890   5.199 -0.3910  0.7233 -0.1858
   95SAPE  H15X 9498   2.788   4.978   5.221 -0.5123  0.0173  2.5954
   95SAPE  H15Y 9499   2.845   4.825   5.288  1.0042  2.0617  0.9543
   95SAPE  C316 9500   2.815   4.813   5.069 -0.4072 -0.1013 -0.5967
   95SAPE  H16X 9501   2.877   4.722   5.050 -0.5439  0.0918 -2.0914
   95SAPE  H16Y 9502   2.840   4.879   4.983 -0.4567 -0.0108 -0.5416
   95SAPE  C317 9503   2.668   4.768   5.067  0.4672  0.1985 -0.1932
   95SAPE  H17X 9504   2.606   4.858   5.087  0.6172  0.4487 -0.8178
   95SAPE  H17Y 9505   2.639   4.691   5.142 -2.0530  0.5585 -0.6980
   95SAPE  C318 9506   2.629   4.706   4.939  0.1761  0.6742  0.4048
   95SAPE  H18X 9507   2.531   4.656   4.957  0.5507  0.2219  1.2216
   95SAPE  H18Y 9508   2.694   4.621   4.909  1.8628  1.5950  1.3285
   95SAPE  H18Z 9509   2.630   4.788   4.864 -2.0038 -1.1949 -1.8744
   96SAPE     N 9510   3.816   0.532   6.797 -0.2631 -0.0909 -0.0589
   96SAPE   HN1 9511   3.786   0.631   6.802 -3.2899 -0.9720  1.3557
   96SAPE   HN2 9512   3.750   0.483   6.861  2.0370 -0.3610  2.2923
   96SAPE   HN3 9513   3.918   0.527   6.819  0.3008  1.0421 -2.1132
   96SAPE   C12 9514   3.808   0.471   6.662  0.4352  0.1909  0.1552
   96SAPE  H12A 9515   3.884   0.390   6.661  1.7092  1.3509 -0.2434
   96SAPE  H12B 9516   3.835   0.557   6.598  1.1500 -0.4138 -0.3651
   96SAPE   C11 9517   3.663   0.420   6.656  0.4214  0.6152 -0.2013
   96SAPE  H11A 9518   3.651   0.380   6.553  0.1970 -1.8849  0.7220
   96SAPE  H11B 9519   3.585   0.497   6.670  1.1937  0.8593  3.7629
   96SAPE     P 9520   3.622   0.164   6.723  0.0012 -0.0190  0.4481
   96SAPE   O13 9521   3.750   0.091   6.722  0.3269 -0.1221  0.0714
   96SAPE   O14 9522   3.513   0.107   6.800  0.1829 -0.3795  0.0220
   96SAPE   O12 9523   3.641   0.318   6.762  0.1113  0.3874 -0.4698
   96SAPE   O11 9524   3.563   0.177   6.577  0.2925 -0.2594 -0.1269
   96SAPE    C1 9525   3.499   0.069   6.511 -0.1268 -0.3625  0.8305
   96SAPE    HA 9526   3.567  -0.018   6.503  0.7216  0.3972 -0.9465
   96SAPE    HB 9527   3.400   0.055   6.559 -0.6418 -3.6550 -0.9058
   96SAPE    C2 9528   3.457   0.138   6.371  1.1878  0.6789 -0.4550
   96SAPE    HS 9529   3.378   0.082   6.317  2.2672 -0.3066 -1.0440
   96SAPE   O21 9530   3.564   0.145   6.285  0.2140  0.1138  0.1235
   96SAPE   C21 9531   3.629   0.030   6.249  0.6514 -0.1220  0.2162
   96SAPE   O22 9532   3.592  -0.087   6.265 -0.5764  0.1801 -0.3866
   96SAPE   C22 9533   3.760   0.076   6.175  0.1508 -1.0387  0.2243
   96SAPE   H2R 9534   3.728   0.149   6.097  0.4547 -0.6284  0.4793
   96SAPE   H2S 9535   3.823   0.126   6.252  0.0918  2.3146 -1.6686
   96SAPE    C3 9536   3.389   0.283   6.379  0.3237  0.1191 -0.1151
   96SAPE    HX 9537   3.472   0.355   6.395 -1.2511  2.7822 -2.9083
   96SAPE    HY 9538   3.333   0.281   6.475  2.8421 -2.2035  1.4611
   96SAPE   O31 9539   3.312   0.311   6.263  0.4023  0.0598 -0.0175
   96SAPE   C31 9540   3.190   0.264   6.267  0.2291  0.6199  0.3211
   96SAPE   O32 9541   3.131   0.226   6.368  0.0970  0.3627  0.0670
   96SAPE   C32 9542   3.133   0.263   6.125  0.7362  0.7357  0.6899
   96SAPE   H2X 9543   3.206   0.250   6.043 -1.4756 -0.6480 -1.1707
   96SAPE   H2Y 9544   3.079   0.360   6.120  0.9215  0.9579  2.2652
   96SAPE   C23 9545   3.837  -0.048   6.117 -0.0503 -0.6056 -0.4685
   96SAPE   H3R 9546   3.850  -0.124   6.197 -0.7134 -3.0625 -2.5683
   96SAPE   H3S 9547   3.941  -0.015   6.097  0.6497 -2.3487  0.1167
   96SAPE   C24 9548   3.771  -0.117   5.995 -0.3195  0.6175 -0.2613
   96SAPE   H4R 9549   3.665  -0.140   6.018  0.1492 -1.1775  0.1883
   96SAPE   H4S 9550   3.832  -0.209   5.994  0.8352  1.3696 -0.2254
   96SAPE   C25 9551   3.802  -0.053   5.856  0.4958 -0.0208 -0.4889
   96SAPE   H5R 9552   3.880   0.025   5.852  0.0507  0.6684  2.1803
   96SAPE   C26 9553   3.730  -0.083   5.742  0.1496 -0.0478 -0.0799
   96SAPE   H6R 9554   3.762  -0.042   5.644 -0.6939  0.9977  0.0713
   96SAPE   C27 9555   3.619  -0.186   5.728  0.4731  0.3759  0.2119
   96SAPE   H7R 9556   3.571  -0.207   5.826  2.6392 -1.1256  1.0432
   96SAPE   H7S 9557   3.671  -0.282   5.707  2.2773  1.7167 -1.8877
   96SAPE   C28 9558   3.523  -0.154   5.618 -0.1419  0.8404  0.8277
   96SAPE   H8R 9559   3.440  -0.084   5.639 -0.9390  0.0989  0.2019
   96SAPE   C29 9560   3.536  -0.186   5.485 -0.7498  1.1979  0.0675
   96SAPE   H9R 9561   3.470  -0.140   5.410 -0.0725  1.1950 -0.5414
   96SAPE  C210 9562   3.653  -0.260   5.424 -0.1072 -0.4088 -0.7193
   96SAPE  H10R 9563   3.628  -0.362   5.387 -1.4450 -0.8733  1.3331
   96SAPE  H10S 9564   3.722  -0.272   5.510  0.8113  3.3774 -0.7864
   96SAPE  C211 9565   3.715  -0.178   5.311  0.7218  0.9760  0.3261
   96SAPE  H11R 9566   3.723  -0.073   5.340 -1.5105  0.7801  1.9369
   96SAPE  C212 9567   3.767  -0.213   5.191  0.2348 -0.0478 -0.0270
   96SAPE  H12R 9568   3.808  -0.136   5.125 -0.3717 -1.1587 -1.7708
   96SAPE  C213 9569   3.782  -0.346   5.139  1.0774  0.5842 -0.5034
   96SAPE  H13R 9570   3.721  -0.426   5.186  2.8956 -1.6815 -1.7426
   96SAPE  H13S 9571   3.888  -0.381   5.144  1.3695  1.5193  0.0542
   96SAPE  C214 9572   3.739  -0.333   4.992  0.4140  0.6450 -0.1958
   96SAPE  H14R 9573   3.813  -0.285   4.926 -0.1140  1.1331 -0.4430
   96SAPE  C215 9574   3.630  -0.374   4.930 -0.7700 -0.2398  0.5610
   96SAPE  H15R 9575   3.616  -0.361   4.822 -0.4535 -0.7907  0.4496
   96SAPE  C216 9576   3.498  -0.422   4.993  0.2388  0.0595 -0.0744
   96SAPE  H16R 9577   3.509  -0.528   5.024  2.9278  0.5334  0.9489
   96SAPE  H16S 9578   3.424  -0.419   4.911 -0.3186 -0.4211  0.4024
   96SAPE  C217 9579   3.449  -0.338   5.113 -0.5460 -0.3400 -0.2328
   96SAPE  H17R 9580   3.458  -0.231   5.086 -2.8232  0.1805  0.7991
   96SAPE  H17S 9581   3.515  -0.347   5.202 -0.1618  2.6534 -0.1268
   96SAPE  C218 9582   3.302  -0.370   5.139  0.4062 -0.0922  0.1161
   96SAPE  H18R 9583   3.285  -0.477   5.163 -0.3592  0.3030  1.4747
   96SAPE  H18S 9584   3.234  -0.330   5.061  2.3596 -1.7375 -2.5867
   96SAPE  C219 9585   3.250  -0.297   5.263 -0.1063 -1.1887 -0.4745
   96SAPE  H19R 9586   3.311  -0.342   5.344  0.3323 -0.0279 -0.1411
   96SAPE  H19S 9587   3.149  -0.327   5.298  0.2891 -0.5932  1.2499
   96SAPE  C220 9588   3.255  -0.146   5.258 -0.0852 -0.2160  0.2587
   96SAPE  H20R 9589   3.176  -0.108   5.190  1.0179 -0.6070 -1.2763
   96SAPE  H20S 9590   3.348  -0.107   5.213 -0.6650  3.8027  2.0344
   96SAPE  H20T 9591   3.249  -0.108   5.363 -1.4557  1.7207 -0.4557
   96SAPE   C33 9592   3.015   0.169   6.094  0.2254  0.5729  0.2668
   96SAPE   H3X 9593   2.925   0.188   6.156 -0.0224  0.6171 -0.1056
   96SAPE   H3Y 9594   3.040   0.067   6.131  0.7609  0.2670 -0.8970
   96SAPE   C34 9595   2.967   0.149   5.954 -0.6510 -0.3183  0.3675
   96SAPE   H4X 9596   2.896   0.064   5.957  0.4045 -1.2540 -0.2282
   96SAPE   H4Y 9597   3.055   0.128   5.889  1.1442  0.9396  2.2602
   96SAPE   C35 9598   2.886   0.269   5.898  0.4154 -0.3472  0.0947
   96SAPE   H5X 9599   2.953   0.357   5.912  1.5336 -1.1276 -0.1478
   96SAPE   H5Y 9600   2.801   0.277   5.969 -0.7301 -1.0754 -1.1601
   96SAPE   C36 9601   2.829   0.253   5.755  0.1106 -0.7960  0.1214
   96SAPE   H6X 9602   2.749   0.324   5.724  0.0952 -0.4064  1.0353
   96SAPE   H6Y 9603   2.773   0.157   5.761 -1.7397  0.1052 -1.6684
   96SAPE   C37 9604   2.933   0.254   5.643 -0.2563  0.1811 -0.4074
   96SAPE   H7X 9605   3.022   0.196   5.675 -0.3027 -0.7270 -1.8587
   96SAPE   H7Y 9606   2.965   0.356   5.616  1.7530 -0.5445 -0.9271
   96SAPE   C38 9607   2.887   0.192   5.511 -0.0251  0.2983 -0.5257
   96SAPE   H8X 9608   2.932   0.253   5.429  0.3785  0.6627 -0.0444
   96SAPE   H8Y 9609   2.777   0.203   5.495  0.3394  0.8307 -3.3230
   96SAPE   C39 9610   2.922   0.044   5.499  0.0831 -0.3598 -0.0136
   96SAPE   H9X 9611   2.838  -0.015   5.544  2.4051 -3.2990  0.7987
   96SAPE   H9Y 9612   3.012   0.006   5.552 -1.1493 -2.4914  0.7116
   96SAPE  C310 9613   2.920   0.009   5.350  0.5322  0.2121  0.1609
   96SAPE  H10X 9614   2.983  -0.081   5.334 -0.3492 -0.0186 -2.5408
   96SAPE  H10Y 9615   2.969   0.087   5.288 -0.9917  0.7928 -0.3574
   96SAPE  C311 9616   2.776  -0.015   5.293 -0.2049  0.0134 -0.0103
   96SAPE  H11X 9617   2.706   0.068   5.315  0.5850  0.5063  0.6681
   96SAPE  H11Y 9618   2.725  -0.097   5.348  0.1608 -1.0710 -1.2167
   96SAPE  C312 9619   2.794  -0.068   5.153  0.5317  0.1105  0.6114
   96SAPE  H12X 9620   2.866  -0.152   5.147  2.7166  1.7600  2.1226
   96SAPE  H12Y 9621   2.836   0.014   5.092  0.8425  0.6317  1.5027
   96SAPE  C313 9622   2.664  -0.100   5.074 -0.5851 -0.3526 -0.2132
   96SAPE  H13X 9623   2.603  -0.008   5.067  1.5628  1.0257 -2.4802
   96SAPE  H13Y 9624   2.608  -0.169   5.141  1.3737 -0.4775  1.3903
   96SAPE  C314 9625   2.688  -0.164   4.947 -0.1496 -0.3324 -0.0114
   96SAPE  H14X 9626   2.597  -0.197   4.892 -0.1202 -0.9687  0.3126
   96SAPE  H14Y 9627   2.739  -0.262   4.960  1.1740  0.5136  1.4886
   96SAPE  C315 9628   2.768  -0.081   4.845 -0.1933  0.1691 -0.7945
   96SAPE  H15X 9629   2.876  -0.077   4.870 -0.1468  3.1445 -1.1011
   96SAPE  H15Y 9630   2.741   0.024   4.868 -0.1717 -0.0150  0.0860
   96SAPE  C316 9631   2.724  -0.121   4.705 -0.0951 -0.6605  0.0340
   96SAPE  H16X 9632   2.763  -0.039   4.640 -1.6594 -0.2013 -0.3671
   96SAPE  H16Y 9633   2.613  -0.116   4.696 -0.1447  1.2056  1.1729
   96SAPE  C317 9634   2.808  -0.244   4.666  0.0706 -0.0448  0.4404
   96SAPE  H17X 9635   2.767  -0.330   4.724 -0.3151 -0.6762 -0.7391
   96SAPE  H17Y 9636   2.913  -0.219   4.692 -0.1267  0.4012  0.8371
   96SAPE  C318 9637   2.800  -0.285   4.522  0.0737  0.0481  0.2535
   96SAPE  H18X 9638   2.854  -0.214   4.456 -1.3205 -0.0465 -1.0153
   96SAPE  H18Y 9639   2.692  -0.277   4.500  0.1855  2.4750  0.3113
   96SAPE  H18Z 9640   2.834  -0.390   4.511 -0.8765 -0.1008 -1.6088
   97SAPE     N 9641   0.476   1.532   7.127  0.1956  0.3650  0.0151
   97SAPE   HN1 9642   0.423   1.611   7.170 -4.0605  0.0394 -3.8449
   97SAPE   HN2 9643   0.428   1.440   7.119  0.6077  0.1436  0.0625
   97SAPE   HN3 9644   0.547   1.503   7.197 -0.8799  1.3092  1.5775
   97SAPE   C12 9645   0.536   1.572   6.997  0.2324  0.4500  0.8270
   97SAPE  H12A 9646   0.615   1.648   7.013  0.5101  0.2727  0.3310
   97SAPE  H12B 9647   0.466   1.631   6.935  0.8879 -0.5499 -0.9498
   97SAPE   C11 9648   0.606   1.449   6.941 -1.0060 -0.5816 -0.1605
   97SAPE  H11A 9649   0.640   1.469   6.837 -1.6894 -0.4980 -0.3764
   97SAPE  H11B 9650   0.530   1.368   6.927  0.2024 -2.0071  1.1218
   97SAPE     P 9651   0.843   1.342   6.958 -0.3007  0.4065  0.2683
   97SAPE   O13 9652   0.907   1.439   6.874  0.9147  0.0104  0.0155
   97SAPE   O14 9653   0.928   1.297   7.071 -0.0716  0.8322  0.2699
   97SAPE   O12 9654   0.713   1.399   7.026  0.2697 -0.2643  0.4370
   97SAPE   O11 9655   0.802   1.224   6.872  0.2418  0.0550  0.7554
   97SAPE    C1 9656   0.715   1.124   6.914 -0.3343  0.1156 -0.1800
   97SAPE    HA 9657   0.759   1.059   6.992 -2.6181  2.0344  2.9373
   97SAPE    HB 9658   0.621   1.164   6.959  0.1546  0.0610  0.9180
   97SAPE    C2 9659   0.665   1.050   6.789  0.2439  0.0222  0.8574
   97SAPE    HS 9660   0.603   0.965   6.826  0.1053 -0.6403 -0.8509
   97SAPE   O21 9661   0.761   0.997   6.700  0.5485 -1.0266 -0.6482
   97SAPE   C21 9662   0.857   0.928   6.740  0.0071  0.8361  0.5703
   97SAPE   O22 9663   0.895   0.897   6.853  0.4222 -0.0105 -1.0551
   97SAPE   C22 9664   0.942   0.878   6.622 -0.3546 -0.0183 -0.2188
   97SAPE   H2R 9665   0.888   0.903   6.528 -2.0179 -0.6745  0.5148
   97SAPE   H2S 9666   1.042   0.925   6.630 -0.2111 -0.5595  1.6945
   97SAPE    C3 9667   0.576   1.156   6.714  0.2678  0.5565 -0.0354
   97SAPE    HX 9668   0.626   1.255   6.714 -0.8430  1.1771 -1.8734
   97SAPE    HY 9669   0.491   1.167   6.784  0.4171  0.3072  0.1868
   97SAPE   O31 9670   0.521   1.113   6.586 -0.4894  0.1569 -0.1667
   97SAPE   C31 9671   0.593   1.149   6.476 -0.2316 -0.0863 -0.6323
   97SAPE   O32 9672   0.695   1.214   6.482 -0.0912 -0.0642 -0.2716
   97SAPE   C32 9673   0.525   1.114   6.350  0.5373 -0.2189  0.3962
   97SAPE   H2X 9674   0.419   1.144   6.361  0.6545  0.4768 -0.3005
   97SAPE   H2Y 9675   0.520   1.004   6.335 -2.1100 -0.3053  1.3514
   97SAPE   C23 9676   0.960   0.726   6.610 -0.0674 -0.2988 -0.3989
   97SAPE   H3R 9677   0.861   0.689   6.578  0.3506 -0.3466 -1.7055
   97SAPE   H3S 9678   1.001   0.686   6.705  0.6585  1.0042 -0.1456
   97SAPE   C24 9679   1.072   0.692   6.506  0.2509 -0.4545 -0.0334
   97SAPE   H4R 9680   1.049   0.716   6.400  1.8770 -1.3084 -0.6197
   97SAPE   H4S 9681   1.070   0.581   6.501  0.7057 -0.5258  1.1656
   97SAPE   C25 9682   1.212   0.726   6.546 -0.3420  0.3290 -0.1289
   97SAPE   H5R 9683   1.241   0.674   6.639 -0.2501 -1.6112 -1.1900
   97SAPE   C26 9684   1.309   0.794   6.484  0.4447  0.4066 -0.3641
   97SAPE   H6R 9685   1.407   0.784   6.534 -1.2938 -1.9321  3.0237
   97SAPE   C27 9686   1.285   0.862   6.356 -0.2107 -0.1906 -0.0677
   97SAPE   H7R 9687   1.178   0.872   6.329 -0.5035  1.3768  1.5265
   97SAPE   H7S 9688   1.338   0.803   6.278 -0.0422 -0.7307  0.4485
   97SAPE   C28 9689   1.350   1.001   6.360  0.0841  0.4437 -0.0273
   97SAPE   H8R 9690   1.360   1.050   6.458  1.7598 -0.5512  0.3420
   97SAPE   C29 9691   1.383   1.075   6.255 -0.4563  0.1179  0.1612
   97SAPE   H9R 9692   1.429   1.170   6.286  0.2750 -0.2759  0.3170
   97SAPE  C210 9693   1.379   1.048   6.108 -0.2001  0.1605  0.3668
   97SAPE  H10R 9694   1.372   1.141   6.048 -0.3414  1.0510  1.7178
   97SAPE  H10S 9695   1.284   0.997   6.084  0.5103 -2.0726  1.8883
   97SAPE  C211 9696   1.500   0.961   6.073  0.4054 -0.5473  0.9963
   97SAPE  H11R 9697   1.545   0.916   6.163 -0.6404 -0.9507  1.3325
   97SAPE  C212 9698   1.559   0.955   5.953  0.0419 -0.6384  0.3439
   97SAPE  H12R 9699   1.636   0.877   5.944 -0.7772 -1.7987  2.6452
   97SAPE  C213 9700   1.514   1.032   5.829  0.1821 -0.2120  1.2387
   97SAPE  H13R 9701   1.529   1.138   5.859  3.1216  0.5583 -2.2971
   97SAPE  H13S 9702   1.411   1.020   5.789  0.9313  0.6744 -1.0838
   97SAPE  C214 9703   1.606   0.994   5.711  0.4930 -1.8921 -0.1621
   97SAPE  H14R 9704   1.711   0.984   5.743  0.4768 -0.6577  0.2973
   97SAPE  C215 9705   1.571   0.955   5.588  0.2720  0.1905  0.8214
   97SAPE  H15R 9706   1.651   0.914   5.525  0.1036 -0.7778  1.2101
   97SAPE  C216 9707   1.428   0.948   5.539  0.0682  0.5830  0.3000
   97SAPE  H16R 9708   1.359   1.018   5.592 -0.1987  0.8969 -0.4585
   97SAPE  H16S 9709   1.390   0.843   5.532 -0.2750  0.7990 -1.3076
   97SAPE  C217 9710   1.420   1.015   5.404  0.2074 -0.2249  0.8467
   97SAPE  H17R 9711   1.454   1.121   5.414 -3.6463  1.3274 -0.3809
   97SAPE  H17S 9712   1.312   1.029   5.379 -0.3389  1.3643  3.5948
   97SAPE  C218 9713   1.493   0.950   5.285  0.8136 -0.5175 -0.2667
   97SAPE  H18R 9714   1.473   0.840   5.279  2.3379 -0.7991 -0.5241
   97SAPE  H18S 9715   1.601   0.947   5.309  0.2995 -0.4315  2.2838
   97SAPE  C219 9716   1.477   1.038   5.160 -0.5075  0.1667 -1.1562
   97SAPE  H19R 9717   1.501   1.143   5.186  0.6778  0.5932 -3.6392
   97SAPE  H19S 9718   1.368   1.038   5.137 -1.2727  0.6329  2.0379
   97SAPE  C220 9719   1.554   0.977   5.045 -0.1418  0.8003  0.8453
   97SAPE  H20R 9720   1.516   0.874   5.032  0.9861  0.3184  1.2189
   97SAPE  H20S 9721   1.663   0.979   5.070 -0.5068  0.3130  2.5864
   97SAPE  H20T 9722   1.534   1.036   4.953 -0.6655  1.2136  1.2199
   97SAPE   C33 9723   0.584   1.191   6.229 -0.1223 -0.6107 -0.8393
   97SAPE   H3X 9724   0.690   1.170   6.201 -0.1840 -1.5407 -0.4225
   97SAPE   H3Y 9725   0.581   1.299   6.255  1.9084 -0.1918 -2.1743
   97SAPE   C34 9726   0.503   1.174   6.104  0.5451  0.4632 -0.4946
   97SAPE   H4X 9727   0.397   1.206   6.107  0.9780  1.9657  0.0511
   97SAPE   H4Y 9728   0.499   1.066   6.080 -0.1240  0.6722 -1.3680
   97SAPE   C35 9729   0.574   1.249   5.982 -0.4195 -0.1933  0.9562
   97SAPE   H5X 9730   0.682   1.221   5.986 -0.4005 -0.1193  0.9567
   97SAPE   H5Y 9731   0.573   1.354   6.019 -1.1573 -0.1914  0.9519
   97SAPE   C36 9732   0.517   1.225   5.840  0.0272  0.4856 -0.1970
   97SAPE   H6X 9733   0.420   1.279   5.834  1.0000  2.2580 -0.8563
   97SAPE   H6Y 9734   0.501   1.115   5.843 -1.1781  0.6373  2.9522
   97SAPE   C37 9735   0.599   1.275   5.723  0.0536 -0.1643 -0.6044
   97SAPE   H7X 9736   0.705   1.247   5.740 -0.4221 -0.7004  2.0329
   97SAPE   H7Y 9737   0.583   1.385   5.723  0.2580 -0.1148 -2.2823
   97SAPE   C38 9738   0.564   1.205   5.597  0.7241  0.2920  0.1698
   97SAPE   H8X 9739   0.453   1.196   5.604  0.6704  0.6527 -0.1600
   97SAPE   H8Y 9740   0.606   1.103   5.607 -1.7043 -0.8898 -0.8249
   97SAPE   C39 9741   0.613   1.271   5.465  0.5726 -0.1897  0.2738
   97SAPE   H9X 9742   0.718   1.306   5.467 -0.3870  3.1666 -1.2922
   97SAPE   H9Y 9743   0.558   1.366   5.450 -3.2292 -2.3057 -0.6641
   97SAPE  C310 9744   0.581   1.178   5.345  0.3264 -0.4298 -0.3747
   97SAPE  H10X 9745   0.597   1.071   5.369 -1.8916 -0.6363  0.3357
   97SAPE  H10Y 9746   0.639   1.207   5.254 -1.4172  2.9180 -0.5662
   97SAPE  C311 9747   0.429   1.178   5.305  0.0169 -0.1819  0.9452
   97SAPE  H11X 9748   0.414   1.286   5.280  2.9155  0.3015  0.9906
   97SAPE  H11Y 9749   0.369   1.148   5.393  0.1490  1.6312  1.6918
   97SAPE  C312 9750   0.393   1.074   5.201  0.7249  0.6388  0.1523
   97SAPE  H12X 9751   0.449   0.982   5.229 -1.8871 -0.8460  0.8863
   97SAPE  H12Y 9752   0.421   1.103   5.097  3.1600 -1.0196  0.2516
   97SAPE  C313 9753   0.240   1.045   5.200  0.9507 -0.0164 -0.6642
   97SAPE  H13X 9754   0.181   1.137   5.182  1.5332  1.0280  2.2585
   97SAPE  H13Y 9755   0.213   0.990   5.292  1.0409  1.0186 -0.0079
   97SAPE  C314 9756   0.207   0.935   5.099 -0.0449 -0.6738 -0.0201
   97SAPE  H14X 9757   0.098   0.915   5.093 -0.5632  2.1743 -1.5659
   97SAPE  H14Y 9758   0.259   0.840   5.125 -0.6195 -0.2862  2.9139
   97SAPE  C315 9759   0.260   0.970   4.961  0.2107 -0.7212  0.2230
   97SAPE  H15X 9760   0.371   0.966   4.965  0.3376  0.7986 -0.9599
   97SAPE  H15Y 9761   0.229   1.071   4.928  0.9216 -0.7323 -0.5227
   97SAPE  C316 9762   0.213   0.878   4.846 -0.4470  0.5571  0.4437
   97SAPE  H16X 9763   0.103   0.888   4.832 -0.5709 -2.9428 -2.7131
   97SAPE  H16Y 9764   0.233   0.771   4.866 -1.0996  0.5502  1.0836
   97SAPE  C317 9765   0.275   0.922   4.707  0.0997  0.3002 -1.0396
   97SAPE  H17X 9766   0.384   0.937   4.722 -0.0984  0.7185  0.1291
   97SAPE  H17Y 9767   0.223   1.017   4.683  1.7968  1.7488  0.6553
   97SAPE  C318 9768   0.250   0.816   4.596 -0.5344  0.2376  0.6680
   97SAPE  H18X 9769   0.144   0.805   4.567 -0.5116  0.3769  0.5334
   97SAPE  H18Y 9770   0.283   0.718   4.638 -0.6126  0.4569  1.2556
   97SAPE  H18Z 9771   0.308   0.834   4.503  1.9241 -1.5158  1.7459
   98SAPE     N 9772   0.741   2.743   7.220 -0.2403  0.5650  1.1110
   98SAPE   HN1 9773   0.649   2.741   7.268 -0.6135 -1.0916  0.4075
   98SAPE   HN2 9774   0.771   2.645   7.202  1.0740  0.7635  2.0637
   98SAPE   HN3 9775   0.815   2.784   7.281 -0.1687 -1.4927  2.5064
   98SAPE   C12 9776   0.732   2.815   7.090  0.2870  1.2795 -0.1293
   98SAPE  H12A 9777   0.836   2.848   7.066  0.1325  2.7684  1.0443
   98SAPE  H12B 9778   0.669   2.906   7.093 -2.2197 -0.3815 -0.1038
   98SAPE   C11 9779   0.673   2.729   6.972  0.9276 -0.0349 -0.0361
   98SAPE  H11A 9780   0.751   2.653   6.950  1.2110  0.5681 -1.2027
   98SAPE  H11B 9781   0.666   2.803   6.889 -0.3146 -0.6298 -0.4935
   98SAPE     P 9782   0.404   2.701   6.956 -0.1418  0.2994 -0.3318
   98SAPE   O13 9783   0.309   2.687   7.064 -0.5296 -0.1982 -0.5481
   98SAPE   O14 9784   0.397   2.827   6.881  0.7823  0.1874 -0.0900
   98SAPE   O12 9785   0.554   2.677   7.014  0.4863  0.3815 -0.0977
   98SAPE   O11 9786   0.384   2.583   6.850  0.1035  0.0467  0.1226
   98SAPE    C1 9787   0.440   2.454   6.849 -0.5484 -0.2872  0.3564
   98SAPE    HA 9788   0.467   2.419   6.951 -0.4023 -1.2485 -0.0049
   98SAPE    HB 9789   0.359   2.387   6.812  0.6298 -2.6121  1.7042
   98SAPE    C2 9790   0.568   2.441   6.755  0.4668  0.9127 -0.1507
   98SAPE    HS 9791   0.648   2.501   6.803  2.0827 -1.5610  0.4395
   98SAPE   O21 9792   0.545   2.482   6.618  0.3450 -0.3335 -0.4257
   98SAPE   C21 9793   0.653   2.523   6.551  0.5154 -0.2803 -0.3234
   98SAPE   O22 9794   0.767   2.526   6.600  0.0415  0.4272  0.0010
   98SAPE   C22 9795   0.600   2.568   6.418 -0.5188 -0.1085 -1.0439
   98SAPE   H2R 9796   0.582   2.476   6.359  0.8477 -0.4993 -0.8923
   98SAPE   H2S 9797   0.511   2.632   6.433 -1.2497 -1.7555  2.7929
   98SAPE    C3 9798   0.626   2.296   6.755 -0.6404 -0.0842 -0.3800
   98SAPE    HX 9799   0.664   2.275   6.857  0.1611 -0.1463 -0.6776
   98SAPE    HY 9800   0.721   2.283   6.698  0.3401 -0.3566  1.2692
   98SAPE   O31 9801   0.529   2.196   6.720  0.0108  0.1645  0.3217
   98SAPE   C31 9802   0.540   2.138   6.595 -0.0190 -0.0375 -0.6874
   98SAPE   O32 9803   0.631   2.169   6.519  0.5015 -0.1515 -0.1391
   98SAPE   C32 9804   0.433   2.044   6.569 -0.4939  0.5519 -0.7000
   98SAPE   H2X 9805   0.332   2.090   6.566 -1.4569 -1.3763  0.0377
   98SAPE   H2Y 9806   0.432   1.971   6.653 -0.6504  2.4313  0.9814
   98SAPE   C23 9807   0.700   2.658   6.342  0.1318  0.1271  0.2858
   98SAPE   H3R 9808   0.803   2.615   6.331  0.8372  1.6739  0.6531
   98SAPE   H3S 9809   0.712   2.754   6.396 -0.1795  0.5555 -0.3879
   98SAPE   C24 9810   0.638   2.695   6.202 -0.3973 -0.2535 -0.3649
   98SAPE   H4R 9811   0.558   2.769   6.225 -0.4156 -0.6424  0.8786
   98SAPE   H4S 9812   0.589   2.610   6.150 -2.6113 -0.7902  2.3788
   98SAPE   C25 9813   0.750   2.756   6.126 -0.1561  0.0871 -0.2266
   98SAPE   H5R 9814   0.820   2.814   6.188 -2.8596  1.3608  1.8475
   98SAPE   C26 9815   0.776   2.739   5.997  0.2800 -0.1751 -1.0749
   98SAPE   H6R 9816   0.859   2.802   5.963  1.1291  0.3778  1.7594
   98SAPE   C27 9817   0.689   2.663   5.893 -0.5191  0.2735 -0.0419
   98SAPE   H7R 9818   0.599   2.624   5.946  0.3913 -1.2440  0.4648
   98SAPE   H7S 9819   0.744   2.569   5.870  0.0947  0.6904 -0.2959
   98SAPE   C28 9820   0.673   2.751   5.766 -1.0138 -0.5829 -0.2184
   98SAPE   H8R 9821   0.631   2.852   5.777  1.6505  0.5868 -0.0050
   98SAPE   C29 9822   0.720   2.719   5.644 -0.3366 -0.5572 -0.1571
   98SAPE   H9R 9823   0.716   2.790   5.560 -0.0157  0.7854  0.9289
   98SAPE  C210 9824   0.772   2.581   5.609 -0.0048 -0.3299 -0.1179
   98SAPE  H10R 9825   0.700   2.506   5.647 -1.1026  0.7966  0.1038
   98SAPE  H10S 9826   0.866   2.569   5.668  0.4659  1.3624 -0.4465
   98SAPE  C211 9827   0.794   2.555   5.465  0.4779 -0.6735  0.6572
   98SAPE  H11R 9828   0.704   2.538   5.404  1.2383 -0.8276 -0.4553
   98SAPE  C212 9829   0.909   2.572   5.400 -0.0283  0.1953  0.1025
   98SAPE  H12R 9830   0.912   2.551   5.292 -1.0134 -3.2189  0.6178
   98SAPE  C213 9831   1.041   2.615   5.456 -0.1568  0.5708 -0.4567
   98SAPE  H13R 9832   1.038   2.616   5.567  0.6404 -1.9681 -0.3439
   98SAPE  H13S 9833   1.059   2.719   5.423  0.9326  0.9546  1.2151
   98SAPE  C214 9834   1.152   2.519   5.422  0.1272  0.5208 -0.6747
   98SAPE  H14R 9835   1.168   2.445   5.502 -0.5171  0.3731 -0.6768
   98SAPE  C215 9836   1.239   2.530   5.319 -0.1227 -0.2843  0.0720
   98SAPE  H15R 9837   1.320   2.460   5.295  2.7813  2.5314  0.8930
   98SAPE  C216 9838   1.226   2.631   5.215 -0.3676  0.5041  0.0871
   98SAPE  H16R 9839   1.314   2.698   5.228  1.4813 -1.8293  0.1764
   98SAPE  H16S 9840   1.136   2.696   5.217  0.3395  1.5697 -1.2607
   98SAPE  C217 9841   1.248   2.569   5.074  0.5952 -1.1767 -0.2155
   98SAPE  H17R 9842   1.346   2.521   5.054  0.1354 -1.4715 -2.0042
   98SAPE  H17S 9843   1.243   2.662   5.013  0.4952 -0.2274  1.1886
   98SAPE  C218 9844   1.128   2.479   5.026 -0.1813  0.1445 -0.1340
   98SAPE  H18R 9845   1.033   2.526   5.059  0.8203  0.3466  2.7340
   98SAPE  H18S 9846   1.136   2.379   5.074  3.1888  0.0835 -0.6169
   98SAPE  C219 9847   1.128   2.451   4.870 -0.6817 -0.1651 -0.6151
   98SAPE  H19R 9848   1.101   2.547   4.821  1.4135  0.4684 -0.6174
   98SAPE  H19S 9849   1.045   2.379   4.855 -0.8001 -1.0540  3.2822
   98SAPE  C220 9850   1.263   2.405   4.821  0.1238  0.3023 -0.1279
   98SAPE  H20R 9851   1.258   2.378   4.713  1.3049 -3.4785  0.6126
   98SAPE  H20S 9852   1.293   2.303   4.855 -1.0632 -1.0459 -2.7899
   98SAPE  H20T 9853   1.341   2.482   4.835 -0.1746  0.5733  0.0730
   98SAPE   C33 9854   0.463   1.968   6.438 -0.3538  0.0938  0.3111
   98SAPE   H3X 9855   0.387   1.891   6.412 -1.0722  1.8213 -3.2563
   98SAPE   H3Y 9856   0.551   1.901   6.428 -0.5431 -0.0119 -0.7136
   98SAPE   C34 9857   0.454   2.062   6.313  0.3211  0.0369  0.3859
   98SAPE   H4X 9858   0.544   2.127   6.303 -0.3627  0.8681 -0.5425
   98SAPE   H4Y 9859   0.370   2.134   6.321  1.2088  1.0983  0.3398
   98SAPE   C35 9860   0.429   1.991   6.181  0.4238 -0.3908  0.4583
   98SAPE   H5X 9861   0.326   1.950   6.189 -0.5267  1.2871 -1.9681
   98SAPE   H5Y 9862   0.509   1.914   6.180 -0.8632 -1.7601 -0.1214
   98SAPE   C36 9863   0.439   2.091   6.065 -0.1843 -0.5963 -0.3626
   98SAPE   H6X 9864   0.533   2.149   6.080 -0.6486 -0.2501  1.5532
   98SAPE   H6Y 9865   0.354   2.161   6.075  0.5373  0.4142 -1.0750
   98SAPE   C37 9866   0.435   2.035   5.923  0.1587 -0.0232  0.8975
   98SAPE   H7X 9867   0.332   1.997   5.906 -1.1875  4.2580 -2.1020
   98SAPE   H7Y 9868   0.509   1.954   5.903 -0.1266 -0.4382  1.4742
   98SAPE   C38 9869   0.451   2.149   5.821 -0.0951  0.1352  0.2572
   98SAPE   H8X 9870   0.533   2.219   5.846  2.1827 -2.4530  0.5375
   98SAPE   H8Y 9871   0.364   2.217   5.832 -0.3659 -0.1737  0.0485
   98SAPE   C39 9872   0.487   2.114   5.668 -0.4338 -0.4159 -0.2161
   98SAPE   H9X 9873   0.398   2.060   5.632 -2.4324  1.4605  1.6004
   98SAPE   H9Y 9874   0.576   2.047   5.669 -1.3621 -1.6687  0.6736
   98SAPE  C310 9875   0.502   2.243   5.575 -0.2392  0.1385 -0.7111
   98SAPE  H10X 9876   0.570   2.315   5.625 -0.6839 -0.0018  0.1026
   98SAPE  H10Y 9877   0.408   2.303   5.567  0.0981  0.7274 -0.2837
   98SAPE  C311 9878   0.551   2.213   5.432 -0.1521 -0.5264  0.4497
   98SAPE  H11X 9879   0.590   2.109   5.430  2.3071  0.2905 -3.1329
   98SAPE  H11Y 9880   0.642   2.269   5.403  1.4731 -2.4074  1.7122
   98SAPE  C312 9881   0.454   2.231   5.308 -0.1296  0.4457 -0.0662
   98SAPE  H12X 9882   0.360   2.184   5.344  1.2492 -1.1063  1.7087
   98SAPE  H12Y 9883   0.505   2.156   5.244 -0.0142  0.5376 -0.0824
   98SAPE  C313 9884   0.444   2.371   5.247 -0.2353  0.2530  0.2117
   98SAPE  H13X 9885   0.546   2.415   5.260 -1.2092  2.4819  0.8615
   98SAPE  H13Y 9886   0.371   2.435   5.301 -2.1879 -0.4092 -1.5153
   98SAPE  C314 9887   0.397   2.368   5.100 -0.0280 -0.5352  0.8283
   98SAPE  H14X 9888   0.373   2.474   5.079 -1.3342 -0.5045  2.3272
   98SAPE  H14Y 9889   0.304   2.310   5.082 -0.1366 -0.0099 -0.3894
   98SAPE  C315 9890   0.491   2.305   4.995  0.1178 -1.0808 -0.0900
   98SAPE  H15X 9891   0.595   2.339   5.012 -0.0331  0.8774 -2.4835
   98SAPE  H15Y 9892   0.478   2.350   4.894  2.0976  2.1577  0.9221
   98SAPE  C316 9893   0.484   2.154   4.979 -0.7880 -0.1571  1.0545
   98SAPE  H16X 9894   0.376   2.135   4.966 -1.3162  1.6449  2.3470
   98SAPE  H16Y 9895   0.514   2.102   5.072  0.2061 -2.1532 -0.3194
   98SAPE  C317 9896   0.551   2.088   4.854  0.5925 -0.0369  0.4671
   98SAPE  H17X 9897   0.652   2.129   4.836  0.8514 -1.6772 -2.2772
   98SAPE  H17Y 9898   0.492   2.118   4.765  1.6510 -0.5362 -0.4155
   98SAPE  C318 9899   0.566   1.931   4.858 -0.7055 -0.5414  0.4368
   98SAPE  H18X 9900   0.464   1.889   4.861 -0.3406 -1.3953  1.4665
   98SAPE  H18Y 9901   0.617   1.896   4.950  1.0485  0.7769  0.0430
   98SAPE  H18Z 9902   0.632   1.887   4.781 -0.3372  0.1706  0.3311
   99SAPE     N 9903   0.922   0.830   7.115 -0.4638  0.0936  0.0116
   99SAPE   HN1 9904   0.884   0.836   7.019 -3.1288 -0.2031  0.9667
   99SAPE   HN2 9905   0.861   0.759   7.161 -0.7755 -0.8651 -1.8099
   99SAPE   HN3 9906   0.905   0.927   7.148 -0.1401  1.0804 -2.5121
   99SAPE   C12 9907   1.071   0.787   7.112 -0.1370 -0.5971  0.4196
   99SAPE  H12A 9908   1.079   0.747   7.215  1.3961  0.2259  0.6546
   99SAPE  H12B 9909   1.134   0.876   7.092 -2.1411  0.5357 -1.3579
   99SAPE   C11 9910   1.080   0.668   7.015 -0.1231  0.3379  0.4454
   99SAPE  H11A 9911   1.184   0.627   7.013  0.0199  0.3459  3.2563
   99SAPE  H11B 9912   1.047   0.697   6.913 -1.6685 -0.2985  0.7339
   99SAPE     P 9913   1.034   0.429   7.103 -0.0977 -0.2241  0.2798
   99SAPE   O13 9914   1.157   0.426   7.185 -0.0469 -1.3663 -0.0422
   99SAPE   O14 9915   0.915   0.356   7.151 -0.5328 -0.1015 -0.0810
   99SAPE   O12 9916   0.985   0.574   7.073  0.1690  0.2454  0.3569
   99SAPE   O11 9917   1.075   0.383   6.959 -0.5805  0.2597  0.1904
   99SAPE    C1 9918   0.992   0.355   6.849  0.2109 -0.1595 -0.4845
   99SAPE    HA 9919   0.888   0.364   6.885  1.0822  0.3664  2.1099
   99SAPE    HB 9920   1.003   0.427   6.765 -2.0374 -0.6665 -1.2869
   99SAPE    C2 9921   1.005   0.214   6.795 -0.6384 -0.5896 -0.1311
   99SAPE    HS 9922   1.021   0.150   6.884  1.4424  1.9439  1.4349
   99SAPE   O21 9923   1.129   0.199   6.718 -0.7417 -0.9513 -0.7035
   99SAPE   C21 9924   1.172   0.078   6.717 -0.1542  0.6291  0.0925
   99SAPE   O22 9925   1.108  -0.028   6.741  0.2687 -0.0177 -0.4861
   99SAPE   C22 9926   1.318   0.077   6.679  0.3168 -0.4629 -0.2480
   99SAPE   H2R 9927   1.367   0.175   6.699  1.1047 -0.3765 -2.3038
   99SAPE   H2S 9928   1.358  -0.006   6.741 -1.4100  1.1057  3.2460
   99SAPE    C3 9929   0.884   0.174   6.709  0.2241 -0.6168  0.1493
   99SAPE    HX 9930   0.796   0.183   6.777 -0.0302 -1.1237 -0.1128
   99SAPE    HY 9931   0.882   0.069   6.674 -1.8064  0.0173 -1.8711
   99SAPE   O31 9932   0.874   0.258   6.594  0.1742  0.4179 -0.0677
   99SAPE   C31 9933   0.760   0.253   6.526 -0.2116 -0.6248 -0.2319
   99SAPE   O32 9934   0.661   0.194   6.571 -0.1972  0.3098  0.0061
   99SAPE   C32 9935   0.759   0.322   6.387 -0.6393  0.0494  0.1680
   99SAPE   H2X 9936   0.723   0.240   6.321  2.2182 -1.3959  0.2785
   99SAPE   H2Y 9937   0.863   0.351   6.362 -1.1010  2.0003  0.3509
   99SAPE   C23 9938   1.343   0.056   6.529  0.0950  0.2569 -0.3226
   99SAPE   H3R 9939   1.311  -0.048   6.510  0.2431 -0.2817  2.0502
   99SAPE   H3S 9940   1.453   0.055   6.509 -0.1159  1.4809 -1.7755
   99SAPE   C24 9941   1.279   0.162   6.439  0.8065  0.3783 -0.5083
   99SAPE   H4R 9942   1.326   0.259   6.466 -2.5970  1.8125  0.6786
   99SAPE   H4S 9943   1.170   0.170   6.456  0.7095 -1.2953 -0.2071
   99SAPE   C25 9944   1.309   0.124   6.293 -0.6876 -0.4725  0.3785
   99SAPE   H5R 9945   1.385   0.046   6.277  0.9860  1.2574 -0.5370
   99SAPE   C26 9946   1.236   0.155   6.184 -0.6888 -0.7405  0.1479
   99SAPE   H6R 9947   1.266   0.103   6.092 -0.9627  0.9986 -0.9641
   99SAPE   C27 9948   1.126   0.254   6.156  0.1016  0.3117  0.6382
   99SAPE   H7R 9949   1.083   0.296   6.250  0.0044  1.6741  0.0094
   99SAPE   H7S 9950   1.042   0.188   6.124 -0.5815  2.1050 -1.5076
   99SAPE   C28 9951   1.156   0.362   6.050  0.0962  0.2934  0.9141
   99SAPE   H8R 9952   1.251   0.417   6.054 -0.1073  1.4169 -3.6563
   99SAPE   C29 9953   1.066   0.424   5.975 -0.5144  0.1746 -0.5569
   99SAPE   H9R 9954   1.105   0.498   5.903  2.0422  0.2499  0.7544
   99SAPE  C210 9955   0.920   0.381   5.966  0.1198  0.0204 -0.5117
   99SAPE  H10R 9956   0.875   0.347   6.062 -0.0420  0.7877 -0.3123
   99SAPE  H10S 9957   0.921   0.289   5.904 -0.4731 -1.4690  1.5789
   99SAPE  C211 9958   0.836   0.482   5.891  1.1702 -0.6210  0.5556
   99SAPE  H11R 9959   0.807   0.560   5.963 -0.0244  0.6222 -1.1831
   99SAPE  C212 9960   0.800   0.487   5.765  0.1126  0.0165  0.2808
   99SAPE  H12R 9961   0.755   0.582   5.734  1.8072  1.1254  1.0057
   99SAPE  C213 9962   0.843   0.386   5.654  0.5859 -0.3474 -0.7447
   99SAPE  H13R 9963   0.765   0.307   5.663 -1.0237  1.3004  0.6073
   99SAPE  H13S 9964   0.945   0.351   5.681  1.2245  1.0049 -1.3648
   99SAPE  C214 9965   0.845   0.460   5.523  0.0626 -0.3308  0.5737
   99SAPE  H14R 9966   0.862   0.568   5.522  1.3034 -0.5136  0.4893
   99SAPE  C215 9967   0.838   0.403   5.402 -0.3033  0.5729  0.6368
   99SAPE  H15R 9968   0.845   0.461   5.308 -0.8205 -1.0077 -0.4197
   99SAPE  C216 9969   0.803   0.257   5.380 -0.3732 -0.0408 -0.4643
   99SAPE  H16R 9970   0.784   0.210   5.479 -0.4296  1.5514  0.3014
   99SAPE  H16S 9971   0.878   0.184   5.342 -1.0937 -1.6163  0.9958
   99SAPE  C217 9972   0.675   0.239   5.298 -0.5911 -0.0984  0.0353
   99SAPE  H17R 9973   0.694   0.229   5.189 -0.0044  1.4976 -0.0397
   99SAPE  H17S 9974   0.613   0.331   5.302  1.3458  1.2099  1.1839
   99SAPE  C218 9975   0.587   0.134   5.360 -0.6915  0.5155 -0.2222
   99SAPE  H18R 9976   0.568   0.164   5.465  0.6744 -0.0922  0.2224
   99SAPE  H18S 9977   0.634   0.034   5.351 -0.3229  0.7092 -0.5013
   99SAPE  C219 9978   0.447   0.123   5.296 -0.0436 -0.1615 -0.0058
   99SAPE  H19R 9979   0.385   0.203   5.341 -1.0634 -1.4416  0.9308
   99SAPE  H19S 9980   0.402   0.027   5.331 -0.1834 -0.3212 -0.6071
   99SAPE  C220 9981   0.450   0.124   5.138 -0.6716 -0.0009  0.1192
   99SAPE  H20R 9982   0.491   0.222   5.106 -2.3843  1.3475  1.7616
   99SAPE  H20S 9983   0.344   0.122   5.106 -0.8957  1.9354  0.6036
   99SAPE  H20T 9984   0.517   0.040   5.108  2.1081  2.8407 -2.2653
   99SAPE   C33 9985   0.661   0.444   6.372 -0.6224  0.0745 -0.6340
   99SAPE   H3X 9986   0.697   0.523   6.441  1.7215  1.2851 -3.0721
   99SAPE   H3Y 9987   0.556   0.411   6.390 -0.3963 -1.5470 -2.0480
   99SAPE   C34 9988   0.655   0.491   6.220  0.4222  0.1027 -0.7206
   99SAPE   H4X 9989   0.624   0.405   6.157  1.4350 -0.8344  0.0107
   99SAPE   H4Y 9990   0.752   0.516   6.172 -0.7164  1.8612 -2.2484
   99SAPE   C35 9991   0.562   0.613   6.184 -0.7742  0.1055  0.2391
   99SAPE   H5X 9992   0.460   0.594   6.222 -0.8351 -0.4785 -0.1944
   99SAPE   H5Y 9993   0.568   0.631   6.075  0.2482  0.1802  0.2949
   99SAPE   C36 9994   0.610   0.737   6.267 -0.2305 -0.5177  0.7647
   99SAPE   H6X 9995   0.608   0.708   6.374 -1.8238 -1.3651  0.5408
   99SAPE   H6Y 9996   0.535   0.816   6.247 -1.1656 -1.5451  0.0821
   99SAPE   C37 9997   0.752   0.784   6.238 -0.5325 -0.1394 -0.0430
   99SAPE   H7X 9998   0.817   0.696   6.257 -1.8666 -0.9664  0.9278
   99SAPE   H7Y 9999   0.783   0.861   6.311  1.7111  0.6284 -1.7020
   99SAPE   C3810000   0.791   0.842   6.096  0.1727 -0.8040 -0.7293
   99SAPE   H8X10001   0.743   0.940   6.072 -1.9479 -2.2447 -2.8686
   99SAPE   H8Y10002   0.765   0.770   6.016  0.9202 -2.7689  0.7282
   99SAPE   C3910003   0.938   0.852   6.091 -0.3164  0.6847 -0.0288
   99SAPE   H9X10004   0.975   0.755   6.131 -2.1268  0.3168  0.8785
   99SAPE   H9Y10005   0.983   0.925   6.162  1.4379 -1.0633  0.7626
   99SAPE  C31010006   0.997   0.860   5.949  0.1704 -0.7735  0.4377
   99SAPE  H10X10007   0.966   0.766   5.899 -0.0879 -0.7025  0.4644
   99SAPE  H10Y10008   1.108   0.865   5.955  0.1156  0.2075  0.7489
   99SAPE  C31110009   0.947   0.982   5.875  0.0332 -0.1908 -0.1457
   99SAPE  H11X10010   0.999   1.069   5.919 -0.9702  1.0539 -1.3488
   99SAPE  H11Y10011   0.836   0.985   5.888 -0.1453 -2.7208 -0.5476
   99SAPE  C31210012   0.979   0.982   5.721  0.2224  0.4871 -0.4823
   99SAPE  H12X10013   1.087   0.963   5.703  0.0448 -0.0073 -1.0120
   99SAPE  H12Y10014   0.950   1.082   5.681 -1.0834  0.4364  0.2703
   99SAPE  C31310015   0.907   0.876   5.638 -0.4204 -0.0622 -0.0628
   99SAPE  H13X10016   0.798   0.890   5.628  0.1287  4.2197 -2.6268
   99SAPE  H13Y10017   0.933   0.782   5.692  1.6816  0.2095 -0.5046
   99SAPE  C31410018   0.973   0.868   5.497 -0.2059  0.2347 -0.2330
   99SAPE  H14X10019   0.933   0.775   5.451  0.4678  0.3583 -1.1076
   99SAPE  H14Y10020   1.082   0.853   5.512 -0.4226  0.5788  1.8938
   99SAPE  C31510021   0.940   0.988   5.411  0.2431 -0.3814  0.1906
   99SAPE  H15X10022   1.001   1.074   5.447  3.3313 -0.7831 -3.4515
   99SAPE  H15Y10023   0.832   1.012   5.415  0.3002 -0.1994  0.8606
   99SAPE  C31610024   0.984   0.968   5.262 -0.0688 -0.8248 -1.1751
   99SAPE  H16X10025   0.921   0.885   5.222 -0.7447 -0.6788 -0.4395
   99SAPE  H16Y10026   1.095   0.964   5.259  0.1194  0.9029  0.9664
   99SAPE  C31710027   0.952   1.103   5.189 -0.4608 -0.1156 -0.3283
   99SAPE  H17X10028   0.987   1.193   5.244 -4.1990  1.2120  0.1384
   99SAPE  H17Y10029   0.842   1.113   5.196 -0.7660 -0.8183 -3.0682
   99SAPE  C31810030   1.002   1.111   5.048  0.9375 -0.4887  0.9193
   99SAPE  H18X10031   0.962   1.033   4.980 -0.0624  2.4698 -2.1536
   99SAPE  H18Y10032   1.112   1.097   5.057  0.9907 -0.0707  0.9147
   99SAPE  H18Z10033   0.989   1.211   5.003  1.2958 -0.4900  0.8067
  100SAPE     N10034   4.002   4.787   6.678 -0.0571  0.0289  0.1697
  100SAPE   HN110035   3.913   4.735   6.693 -0.7008  0.8478 -0.6745
  100SAPE   HN210036   4.055   4.789   6.767 -2.3054 -1.5794  1.6654
  100SAPE   HN310037   3.980   4.886   6.655  2.1543  0.3211 -0.9420
  100SAPE   C1210038   4.080   4.719   6.565  0.2813  0.1880  0.5799
  100SAPE  H12A10039   4.115   4.791   6.488  0.3188  0.0488  0.4673
  100SAPE  H12B10040   4.008   4.652   6.512  0.5201 -0.0813  0.5942
  100SAPE   C1110041   4.198   4.635   6.609  0.0088 -0.2448  0.1380
  100SAPE  H11A10042   4.223   4.577   6.518  1.1276 -0.6475  0.6893
  100SAPE  H11B10043   4.170   4.564   6.690 -0.1263  1.0407  1.2596
  100SAPE     P10044   4.446   4.699   6.614 -0.0636  0.2563 -0.0935
  100SAPE   O1310045   4.522   4.799   6.700 -0.2719  0.0914  0.3778
  100SAPE   O1410046   4.483   4.560   6.624 -0.2447  0.4695 -0.0599
  100SAPE   O1210047   4.299   4.721   6.652  0.3482 -0.0048 -0.7147
  100SAPE   O1110048   4.452   4.740   6.462  0.5115  0.4791  0.0438
  100SAPE    C110049   4.388   4.856   6.424 -0.0293 -0.3106  0.7444
  100SAPE    HA10050   4.354   4.830   6.322  5.9274  1.1796 -2.0234
  100SAPE    HB10051   4.301   4.892   6.485  1.6516  1.4231  2.2701
  100SAPE    C210052   4.487   4.978   6.408  1.0829 -0.3896  0.5475
  100SAPE    HS10053   4.510   5.008   6.513 -0.0837  0.4256  0.6010
  100SAPE   O2110054   4.411   5.075   6.335  0.0065  0.8873 -0.0732
  100SAPE   C2110055   4.411   5.202   6.386  0.2057  0.6393 -0.1918
  100SAPE   O2210056   4.475   5.226   6.488 -0.6444 -0.4293  0.7202
  100SAPE   C2210057   4.326   5.296   6.298 -0.7260  0.0675  0.7491
  100SAPE   H2R10058   4.384   5.330   6.210 -2.1248  0.9739  0.1372
  100SAPE   H2S10059   4.255   5.223   6.253  0.7752  0.5768 -2.8477
  100SAPE    C310060   4.622   4.953   6.333  0.0616 -0.3010  0.8840
  100SAPE    HX10061   4.599   4.919   6.230 -0.7155 -0.5391  1.1319
  100SAPE    HY10062   4.673   4.866   6.379 -1.4101 -2.4039 -1.2274
  100SAPE   O3110063   4.705   5.071   6.315 -0.1135 -0.1106 -0.4655
  100SAPE   C3110064   4.786   5.103   6.416 -0.0758 -0.1973  0.6672
  100SAPE   O3210065   4.791   5.034   6.519 -0.1176  0.6127  0.1508
  100SAPE   C3210066   4.862   5.229   6.381 -0.7394  0.0934 -0.5478
  100SAPE   H2X10067   4.968   5.206   6.405 -0.5265 -2.3403 -3.2997
  100SAPE   H2Y10068   4.826   5.306   6.453 -0.3550  1.2896 -1.6052
  100SAPE   C2310069   4.249   5.403   6.368  0.2923 -0.4516  0.2981
  100SAPE   H3R10070   4.185   5.351   6.441 -1.7308 -0.1390 -1.1542
  100SAPE   H3S10071   4.194   5.465   6.293 -0.1677 -0.4963  0.5959
  100SAPE   C2410072   4.331   5.509   6.445  0.4872 -0.0480 -0.0606
  100SAPE   H4R10073   4.389   5.579   6.382  1.2604  0.9195  1.6444
  100SAPE   H4S10074   4.403   5.464   6.517  0.2725  1.7064  1.3275
  100SAPE   C2510075   4.237   5.599   6.523 -0.5111 -0.0894  0.0909
  100SAPE   H5R10076   4.231   5.577   6.631  1.5507  2.7162  0.8968
  100SAPE   C2610077   4.163   5.700   6.482  0.2289 -0.2814 -0.6931
  100SAPE   H6R10078   4.099   5.751   6.555 -0.6846 -2.5091  0.1463
  100SAPE   C2710079   4.161   5.742   6.336  0.1469  0.0589 -0.0979
  100SAPE   H7R10080   4.089   5.680   6.279 -0.1874 -1.3243  1.7211
  100SAPE   H7S10081   4.261   5.718   6.294  0.2608  1.2875 -0.5696
  100SAPE   C2810082   4.134   5.889   6.313 -0.9802 -0.4801  0.0699
  100SAPE   H8R10083   4.150   5.958   6.397  1.6013 -0.1686 -0.5915
  100SAPE   C2910084   4.095   5.945   6.199 -0.4435 -0.3207 -0.3917
  100SAPE   H9R10085   4.070   6.052   6.205  0.3183 -0.2223  1.8614
  100SAPE  C21010086   4.063   5.881   6.064 -0.3915 -0.2191 -0.0651
  100SAPE  H10R10087   4.068   5.963   5.990  1.1115 -0.0497  0.1949
  100SAPE  H10S10088   3.959   5.840   6.071 -1.0233  0.8306 -2.2859
  100SAPE  C21110089   4.169   5.785   6.016 -0.2785  0.6042 -0.6019
  100SAPE  H11R10090   4.266   5.836   6.017  0.4545 -0.7696 -0.0214
  100SAPE  C21210091   4.157   5.650   5.988  0.4322 -0.1409 -0.3964
  100SAPE  H12R10092   4.244   5.595   5.948  1.1339  0.1747  0.6595
  100SAPE  C21310093   4.032   5.571   6.005 -0.1241  0.1459 -0.5699
  100SAPE  H13R10094   3.949   5.644   6.002 -0.9058 -0.7270 -0.6828
  100SAPE  H13S10095   4.026   5.531   6.109 -1.0280  1.0148 -0.2774
  100SAPE  C21410096   4.013   5.466   5.905  0.7681  0.1493  0.5417
  100SAPE  H14R10097   4.052   5.366   5.928  1.6299  0.2673 -0.3050
  100SAPE  C21510098   3.951   5.477   5.786 -0.3290 -0.2827 -0.3918
  100SAPE  H15R10099   3.979   5.395   5.719  1.0167  0.2412 -0.4981
  100SAPE  C21610100   3.889   5.601   5.723  0.1178  0.4255  0.1701
  100SAPE  H16R10101   3.929   5.693   5.770  1.1514  0.4165 -0.6381
  100SAPE  H16S10102   3.780   5.581   5.730  0.1887  0.3187  1.1839
  100SAPE  C21710103   3.923   5.638   5.572  0.0896 -0.0312 -0.1898
  100SAPE  H17R10104   4.034   5.649   5.571  0.1868 -0.9405 -0.8589
  100SAPE  H17S10105   3.878   5.738   5.552  1.8995  0.8402 -0.1106
  100SAPE  C21810106   3.874   5.532   5.471  0.3355 -1.0022  0.5492
  100SAPE  H18R10107   3.763   5.534   5.479  0.2327  1.1198 -0.6523
  100SAPE  H18S10108   3.908   5.431   5.501  2.5770 -0.2006  0.9145
  100SAPE  C21910109   3.925   5.545   5.328 -0.2176 -0.7986  0.2443
  100SAPE  H19R10110   3.899   5.453   5.271 -1.0996  0.3419 -1.2969
  100SAPE  H19S10111   4.034   5.561   5.323 -0.5006  1.5638  0.4491
  100SAPE  C22010112   3.865   5.666   5.258 -0.7237  0.4068  0.5577
  100SAPE  H20R10113   3.901   5.664   5.153  1.0016 -0.2743  1.1376
  100SAPE  H20S10114   3.896   5.765   5.296  0.4242  0.4557 -0.4355
  100SAPE  H20T10115   3.754   5.666   5.247 -0.6126  0.9023 -0.6873
  100SAPE   C3310116   4.853   5.275   6.241  0.5545 -0.8830  0.6363
  100SAPE   H3X10117   4.760   5.334   6.224  1.2710  0.6550  1.7783
  100SAPE   H3Y10118   4.853   5.197   6.162 -0.8606 -0.2605 -0.0072
  100SAPE   C3410119   4.978   5.368   6.214 -0.0835  0.4730 -0.1984
  100SAPE   H4X10120   5.070   5.306   6.221  0.1734  0.9400  0.6369
  100SAPE   H4Y10121   4.985   5.459   6.277  1.9643  1.1236 -1.2692
  100SAPE   C3510122   4.971   5.428   6.069 -0.1493  1.1856  0.3016
  100SAPE   H5X10123   4.911   5.521   6.065  0.0832  1.2987 -1.7034
  100SAPE   H5Y10124   4.920   5.352   6.005  0.9510 -0.0078  0.7904
  100SAPE   C3610125   5.114   5.466   6.030 -0.4546  1.0462 -0.2440
  100SAPE   H6X10126   5.176   5.378   6.059 -0.5209  1.1514  0.2366
  100SAPE   H6Y10127   5.149   5.560   6.079 -0.8447  0.1670  1.8213
  100SAPE   C3710128   5.142   5.492   5.879 -0.7038 -0.4171  0.0158
  100SAPE   H7X10129   5.241   5.540   5.865 -0.7390  0.1030  1.3833
  100SAPE   H7Y10130   5.075   5.572   5.842  0.6967  0.6629 -0.2486
  100SAPE   C3810131   5.135   5.359   5.801  0.3634 -0.3957 -0.8903
  100SAPE   H8X10132   5.028   5.332   5.815 -0.0109  0.9117 -1.0384
  100SAPE   H8Y10133   5.197   5.288   5.859  0.0644  1.7659  2.3040
  100SAPE   C3910134   5.162   5.370   5.649  0.3849  0.2555 -0.3334
  100SAPE   H9X10135   5.260   5.411   5.618  1.2099  0.7737  2.6440
  100SAPE   H9Y10136   5.088   5.443   5.610  0.2095  0.6953  0.7730
  100SAPE  C31010137   5.142   5.234   5.572 -0.3571  0.4706 -0.5726
  100SAPE  H10X10138   5.166   5.254   5.465 -0.8765  0.3429 -0.7165
  100SAPE  H10Y10139   5.037   5.199   5.584 -0.0160 -0.1360  0.8260
  100SAPE  C31110140   5.237   5.114   5.603 -0.8619 -0.7201  0.6081
  100SAPE  H11X10141   5.238   5.115   5.714 -1.3371 -0.9902  0.6212
  100SAPE  H11Y10142   5.338   5.132   5.561 -1.5474  3.6828  0.4527
  100SAPE  C31210143   5.180   4.982   5.556 -0.6114 -0.4081  0.4125
  100SAPE  H12X10144   5.069   4.980   5.562 -0.8959 -0.6698 -3.1320
  100SAPE  H12Y10145   5.237   4.904   5.611  2.0072  0.8838 -0.3184
  100SAPE  C31310146   5.214   4.956   5.408 -0.1714  0.1163  0.2457
  100SAPE  H13X10147   5.323   4.933   5.403 -0.5940 -1.8783 -0.6781
  100SAPE  H13Y10148   5.179   5.035   5.338 -0.9733  0.8064  1.3963
  100SAPE  C31410149   5.138   4.837   5.356 -0.2269  0.1676  0.1721
  100SAPE  H14X10150   5.031   4.863   5.370 -0.2052  1.3385 -1.6013
  100SAPE  H14Y10151   5.156   4.752   5.426 -1.1275  0.5515  0.8912
  100SAPE  C31510152   5.159   4.799   5.209 -0.2144 -0.3079  0.0655
  100SAPE  H15X10153   5.153   4.887   5.140 -0.9545 -0.5768 -0.2245
  100SAPE  H15Y10154   5.086   4.720   5.180  0.2861 -1.5033  1.9116
  100SAPE  C31610155   5.293   4.726   5.189  0.9368 -0.4152 -0.3478
  100SAPE  H16X10156   5.275   4.617   5.199  0.2883 -0.4920 -2.0941
  100SAPE  H16Y10157   5.370   4.762   5.261  0.4014  0.4143 -0.1818
  100SAPE  C31710158   5.357   4.721   5.047 -0.4136  0.3117 -0.5709
  100SAPE  H17X10159   5.413   4.816   5.036  0.2950  0.2369  1.8565
  100SAPE  H17Y10160   5.277   4.712   4.971  0.3654 -4.5159 -1.1236
  100SAPE  C31810161   5.456   4.609   5.019 -0.2419  0.0288 -0.2090
  100SAPE  H18X10162   5.409   4.508   5.016 -1.3752  0.5386 -0.0716
  100SAPE  H18Y10163   5.533   4.612   5.099 -0.9775 -0.0178  0.5158
  100SAPE  H18Z10164   5.494   4.618   4.915 -1.3884 -0.5070 -0.6952
  101SAPE     N10165   0.046   5.594   6.750  0.3457  0.5802  0.1854
  101SAPE   HN110166   0.088   5.687   6.768  0.8936  0.6168 -1.1756
  101SAPE   HN210167   0.017   5.588   6.651  0.0566 -1.1211  0.3294
  101SAPE   HN310168  -0.032   5.575   6.816  0.0730  0.3532 -0.1979
  101SAPE   C1210169   0.153   5.489   6.782  0.8483 -0.1036  0.1006
  101SAPE  H12A10170   0.121   5.390   6.741  2.7238 -0.6827 -0.0601
  101SAPE  H12B10171   0.156   5.480   6.892 -0.7832 -0.9263  0.1045
  101SAPE   C1110172   0.289   5.545   6.724  0.2809 -0.2664 -0.1775
  101SAPE  H11A10173   0.278   5.559   6.614 -3.5716 -2.9216 -0.3209
  101SAPE  H11B10174   0.364   5.464   6.739 -0.1901 -0.4560  1.1998
  101SAPE     P10175   0.318   5.804   6.748  0.0330  0.0524 -0.0753
  101SAPE   O1310176   0.173   5.835   6.750 -0.2822  0.2770  0.8090
  101SAPE   O1410177   0.413   5.877   6.838 -0.3871  0.3452  0.2510
  101SAPE   O1210178   0.333   5.659   6.794  0.1136 -0.0030 -0.0952
  101SAPE   O1110179   0.375   5.817   6.601 -0.2584 -0.0280 -0.1528
  101SAPE    C110180   0.505   5.774   6.569 -0.2595 -0.6636  0.2536
  101SAPE    HA10181   0.584   5.804   6.641 -0.5542  0.0591  0.2773
  101SAPE    HB10182   0.509   5.662   6.568 -1.2859 -0.7051 -1.3274
  101SAPE    C210183   0.541   5.824   6.433  1.1705  0.0416  0.4631
  101SAPE    HS10184   0.580   5.927   6.442  2.0428 -0.3185  0.9497
  101SAPE   O2110185   0.421   5.810   6.342  0.0951  0.5173 -0.0706
  101SAPE   C2110186   0.405   5.914   6.258 -0.3275  0.7581  0.6329
  101SAPE   O2210187   0.478   6.008   6.242  0.3203  0.2383 -0.0345
  101SAPE   C2210188   0.263   5.900   6.206  0.1107  1.2226 -0.8589
  101SAPE   H2R10189   0.256   5.802   6.152  1.4534  0.9844 -0.6311
  101SAPE   H2S10190   0.196   5.876   6.291 -1.0925 -1.2081 -2.3459
  101SAPE    C310191   0.660   5.736   6.371  0.6378  0.1774  0.4772
  101SAPE    HX10192   0.612   5.636   6.371  0.1187  0.3974 -1.4144
  101SAPE    HY10193   0.741   5.745   6.446  0.8561 -1.1960  0.4286
  101SAPE   O3110194   0.703   5.756   6.231 -0.0218 -0.1476  0.1151
  101SAPE   C3110195   0.828   5.804   6.218 -0.8467  0.1020  0.1427
  101SAPE   O3210196   0.918   5.796   6.298 -0.2211  0.0951 -0.2003
  101SAPE   C3210197   0.850   5.861   6.075  0.1552  0.0533  0.2975
  101SAPE   H2X10198   0.927   5.805   6.018 -0.7739  0.4417 -1.4060
  101SAPE   H2Y10199   0.887   5.966   6.079 -0.3461  0.2436  0.0026
  101SAPE   C2310200   0.219   6.000   6.101 -0.4573  0.4420 -0.5665
  101SAPE   H3R10201   0.301   6.010   6.026 -0.3204  2.7676 -0.2089
  101SAPE   H3S10202   0.212   6.103   6.143 -0.5122  0.5148 -0.7490
  101SAPE   C2410203   0.085   5.964   6.038  0.0951  0.8246 -0.2834
  101SAPE   H4R10204   0.069   6.045   5.965  1.1415  0.3244 -1.0907
  101SAPE   H4S10205   0.004   5.961   6.115  0.6551 -0.7228  0.2986
  101SAPE   C2510206   0.080   5.835   5.960  0.6683  0.8106  0.2743
  101SAPE   H5R10207   0.076   5.752   6.032 -3.2328  1.0383  0.5253
  101SAPE   C2610208   0.083   5.820   5.827  0.1309  0.5243  0.7437
  101SAPE   H6R10209   0.079   5.721   5.781 -0.4233  0.4045  1.0374
  101SAPE   C2710210   0.077   5.933   5.724  0.8788  0.3058  0.5882
  101SAPE   H7R10211   0.123   6.027   5.761  2.5701 -0.2212 -0.0942
  101SAPE   H7S10212  -0.030   5.961   5.712  1.1307  0.6051 -1.3738
  101SAPE   C2810213   0.136   5.894   5.593  0.1845  0.2330  0.2606
  101SAPE   H8R10214   0.246   5.884   5.599  0.3107  1.8483  1.1780
  101SAPE   C2910215   0.065   5.868   5.478 -0.2693 -0.7265 -1.0152
  101SAPE   H9R10216   0.122   5.835   5.390  1.3368 -2.1089  0.4430
  101SAPE  C21010217  -0.084   5.876   5.457 -0.5302  0.5945 -0.4362
  101SAPE  H10R10218  -0.143   5.857   5.549 -1.3201 -1.4590 -1.3189
  101SAPE  H10S10219  -0.111   5.784   5.401 -0.2384 -0.4721  1.1029
  101SAPE  C21110220  -0.136   5.997   5.390  0.1547 -0.0286 -0.2675
  101SAPE  H11R10221  -0.154   6.077   5.463  0.0670 -0.7997  0.5679
  101SAPE  C21210222  -0.115   6.031   5.258  0.8309  0.3359 -0.0399
  101SAPE  H12R10223  -0.145   6.132   5.227  0.5030  0.5941  1.0750
  101SAPE  C21310224  -0.053   5.952   5.148 -0.2135 -0.7551 -0.2887
  101SAPE  H13R10225  -0.022   5.851   5.182  1.0035 -0.5639 -0.7663
  101SAPE  H13S10226   0.034   6.000   5.098 -0.1399  0.4399  0.9245
  101SAPE  C21410227  -0.165   5.931   5.049 -0.7811 -0.0871  1.0961
  101SAPE  H14R10228  -0.254   5.883   5.092 -1.6541 -2.0002 -2.4088
  101SAPE  C21510229  -0.164   5.962   4.922  0.7052 -0.2972 -0.1903
  101SAPE  H15R10230  -0.259   5.948   4.869  0.9123 -0.1412 -0.6132
  101SAPE  C21610231  -0.058   6.025   4.838  0.0755  0.5747  0.1015
  101SAPE  H16R10232   0.028   6.050   4.904  0.0719 -1.4852  0.9888
  101SAPE  H16S10233  -0.106   6.118   4.801 -1.3973 -0.6646 -1.2388
  101SAPE  C21710234  -0.018   5.944   4.712 -0.3937 -0.7196  0.6409
  101SAPE  H17R10235   0.019   5.844   4.745  3.3193  0.4032  0.3728
  101SAPE  H17S10236   0.061   5.999   4.656  0.1232 -1.5055  0.5832
  101SAPE  C21810237  -0.140   5.940   4.617  0.2670  0.1267 -0.0461
  101SAPE  H18R10238  -0.174   6.045   4.603  1.1507  0.2505 -1.4661
  101SAPE  H18S10239  -0.219   5.882   4.670  2.5206 -2.1653  1.0257
  101SAPE  C21910240  -0.101   5.866   4.486 -0.1086  0.0576 -0.8434
  101SAPE  H19R10241  -0.024   5.925   4.431 -0.3545  0.8196 -0.3835
  101SAPE  H19S10242  -0.187   5.862   4.416 -0.7440 -1.1390 -0.0374
  101SAPE  C22010243  -0.060   5.719   4.509 -0.6428 -0.7672  0.1139
  101SAPE  H20R10244  -0.025   5.685   4.408 -0.6469 -0.2254 -0.0722
  101SAPE  H20S10245  -0.142   5.662   4.557 -1.2434  0.7998  1.0025
  101SAPE  H20T10246   0.031   5.719   4.573 -0.6279 -0.7760  0.0932
  101SAPE   C3310247   0.730   5.852   5.977 -0.4285  0.0374  1.5711
  101SAPE   H3X10248   0.636   5.884   6.026 -1.1014 -1.5391  1.3632
  101SAPE   H3Y10249   0.720   5.744   5.952  0.4057  0.4095 -0.6112
  101SAPE   C3410250   0.752   5.932   5.848  0.0398 -0.1555 -0.6435
  101SAPE   H4X10251   0.835   5.894   5.786  0.2276 -1.1999  0.2260
  101SAPE   H4Y10252   0.776   6.034   5.885 -0.3577 -0.5126  0.6339
  101SAPE   C3510253   0.627   5.934   5.757 -0.2649 -0.2947  0.4354
  101SAPE   H5X10254   0.543   5.988   5.807  0.4463  0.8893  0.3873
  101SAPE   H5Y10255   0.595   5.829   5.739 -0.2688 -0.1690 -0.2982
  101SAPE   C3610256   0.656   6.027   5.630  0.6063 -0.5787 -0.5911
  101SAPE   H6X10257   0.738   5.999   5.560  0.6907  2.5736 -1.9544
  101SAPE   H6Y10258   0.692   6.123   5.674  0.8256 -0.8962 -0.0685
  101SAPE   C3710259   0.535   6.051   5.534 -0.2906  0.4214  0.1643
  101SAPE   H7X10260   0.565   6.131   5.464  0.3657 -0.9778 -1.2216
  101SAPE   H7Y10261   0.437   6.083   5.574  0.4341  1.9305  0.7860
  101SAPE   C3810262   0.509   5.918   5.453  0.4264 -0.0829 -0.3625
  101SAPE   H8X10263   0.458   5.851   5.525  1.8568  1.8154  2.6155
  101SAPE   H8Y10264   0.601   5.877   5.407  1.5872  0.6270  1.2180
  101SAPE   C3910265   0.425   5.947   5.328 -0.0770 -0.3535  0.4580
  101SAPE   H9X10266   0.473   6.029   5.270 -1.3679  0.3956  0.3891
  101SAPE   H9Y10267   0.322   5.977   5.358 -0.0978  0.8275 -0.6990
  101SAPE  C31010268   0.416   5.824   5.244 -0.7489 -0.7400 -0.1614
  101SAPE  H10X10269   0.387   5.734   5.303  2.6686 -1.6727  0.3468
  101SAPE  H10Y10270   0.522   5.798   5.220 -0.2185 -0.8131  2.0655
  101SAPE  C31110271   0.338   5.842   5.117  0.0927  0.4812  0.6400
  101SAPE  H11X10272   0.243   5.892   5.146 -0.1603  0.3523  0.0651
  101SAPE  H11Y10273   0.314   5.741   5.078  2.8494 -1.5859  3.8182
  101SAPE  C31210274   0.414   5.918   5.010 -0.1390  0.1536 -0.2036
  101SAPE  H12X10275   0.496   5.856   4.966 -0.6939  0.4864 -1.7799
  101SAPE  H12Y10276   0.456   6.010   5.056 -1.0104 -0.1301  1.2108
  101SAPE  C31310277   0.320   5.962   4.899 -0.4168  0.4150 -0.1498
  101SAPE  H13X10278   0.249   6.031   4.950 -1.3913  0.9897 -2.2113
  101SAPE  H13Y10279   0.264   5.873   4.864  1.4924 -0.5610 -0.8698
  101SAPE  C31410280   0.386   6.054   4.789  0.2270 -0.0006 -0.3102
  101SAPE  H14X10281   0.306   6.054   4.712  0.1575 -4.8885 -0.5993
  101SAPE  H14Y10282   0.466   5.997   4.738  0.5141 -1.3539  1.5375
  101SAPE  C31510283   0.426   6.187   4.838  0.3440  0.3504 -0.1729
  101SAPE  H15X10284   0.526   6.183   4.888 -0.2186  0.9542  1.0395
  101SAPE  H15Y10285   0.349   6.219   4.911 -1.0780 -1.2878 -0.9142
  101SAPE  C31610286   0.442   6.295   4.732  0.4741  0.1470  0.6172
  101SAPE  H16X10287   0.460   6.399   4.768 -0.2832  0.3632  0.3898
  101SAPE  H16Y10288   0.339   6.300   4.691  0.0410 -1.0499  1.4998
  101SAPE  C31710289   0.542   6.267   4.619 -0.0692  0.1041  0.7526
  101SAPE  H17X10290   0.539   6.353   4.550 -1.1745 -1.0840 -0.7504
  101SAPE  H17Y10291   0.512   6.176   4.562 -2.5390  1.3931 -0.1114
  101SAPE  C31810292   0.688   6.243   4.667  0.0741  0.2225  0.0650
  101SAPE  H18X10293   0.714   6.317   4.746 -1.4766  0.8653  0.0091
  101SAPE  H18Y10294   0.762   6.247   4.585 -0.3283  2.2179 -0.2495
  101SAPE  H18Z10295   0.705   6.148   4.723  3.7859 -0.7015 -2.2860
  102SAPE     N10296   5.284   6.125   6.870 -0.2872  0.0622 -0.6512
  102SAPE   HN110297   5.365   6.187   6.885 -1.6804  1.8681 -0.2174
  102SAPE   HN210298   5.240   6.161   6.783  0.1009 -0.5361 -1.1018
  102SAPE   HN310299   5.225   6.134   6.956  0.4395 -0.2961 -0.1103
  102SAPE   C1210300   5.324   5.979   6.848 -0.0175 -0.1571  0.0419
  102SAPE  H12A10301   5.412   5.978   6.781  0.0876  1.0400  0.1381
  102SAPE  H12B10302   5.237   5.923   6.806 -0.2322  0.2781 -0.0988
  102SAPE   C1110303   5.374   5.911   6.980  1.0709  0.1980  0.4484
  102SAPE  H11A10304   5.386   5.806   6.948 -1.5663 -0.2514  0.6792
  102SAPE  H11B10305   5.302   5.908   7.065 -1.6632  0.2231 -1.7515
  102SAPE     P10306   5.629   5.926   6.957  0.1919 -0.1311 -0.3753
  102SAPE   O1310307   5.681   6.029   6.863 -0.3886 -0.0514 -0.2878
  102SAPE   O1410308   5.710   5.880   7.067 -0.5633  0.9136 -0.1007
  102SAPE   O1210309   5.486   5.979   7.016 -0.1245 -0.3194  0.3537
  102SAPE   O1110310   5.583   5.809   6.871 -0.4375 -0.1596  0.0379
  102SAPE    C110311   5.668   5.701   6.834 -0.3260  0.2435  0.8258
  102SAPE    HA10312   5.748   5.681   6.908  0.3951 -1.6044 -0.3636
  102SAPE    HB10313   5.611   5.607   6.818  1.1507 -0.3384 -1.6933
  102SAPE    C210314   5.740   5.735   6.703 -0.4213 -0.5222  0.8358
  102SAPE    HS10315   5.808   5.822   6.717  0.4330 -1.0155 -0.1395
  102SAPE   O2110316   5.638   5.752   6.601  0.3441 -0.5727 -0.5805
  102SAPE   C2110317   5.652   5.872   6.544 -0.1880  0.3335 -0.2322
  102SAPE   O2210318   5.745   5.947   6.549 -0.2502  0.0231  0.0360
  102SAPE   C2210319   5.531   5.867   6.446  0.5722 -0.5294 -0.7799
  102SAPE   H2R10320   5.500   5.762   6.426  0.4517 -0.2644 -2.0658
  102SAPE   H2S10321   5.452   5.910   6.511  0.9153 -0.1792 -0.5900
  102SAPE    C310322   5.842   5.626   6.666  0.1461  0.9686  0.0958
  102SAPE    HX10323   5.779   5.535   6.655  1.5161 -0.1983  1.3733
  102SAPE    HY10324   5.900   5.603   6.758  0.0295 -0.4765 -0.1632
  102SAPE   O3110325   5.917   5.648   6.551 -0.3009  0.0099  0.8717
  102SAPE   C3110326   6.028   5.716   6.570  0.2166 -0.5377  0.3436
  102SAPE   O3210327   6.078   5.762   6.671  0.3916  0.0894  0.1903
  102SAPE   C3210328   6.104   5.734   6.438  0.7075 -0.3053 -0.1588
  102SAPE   H2X10329   6.212   5.715   6.456  0.5183 -0.7035  0.5941
  102SAPE   H2Y10330   6.095   5.837   6.396  0.4269 -1.0094 -1.9086
  102SAPE   C2310331   5.547   5.960   6.326 -0.3978  0.2002 -0.2821
  102SAPE   H3R10332   5.584   6.058   6.365 -2.9558  1.7985 -1.5844
  102SAPE   H3S10333   5.454   5.986   6.272 -0.5296 -0.0625 -0.1811
  102SAPE   C2410334   5.645   5.924   6.220 -0.6853 -0.4430 -0.7542
  102SAPE   H4R10335   5.745   5.900   6.261  0.6391  1.1951 -2.8248
  102SAPE   H4S10336   5.654   6.011   6.151  1.2499 -0.0429 -0.0714
  102SAPE   C2510337   5.595   5.803   6.137 -0.4842  0.1507 -0.1980
  102SAPE   H5R10338   5.603   5.719   6.208  0.0904 -0.2867 -0.7649
  102SAPE   C2610339   5.545   5.794   6.020  0.7243 -1.1559  0.5615
  102SAPE   H6R10340   5.526   5.693   5.981 -0.7207 -1.7150  2.5288
  102SAPE   C2710341   5.529   5.907   5.921 -0.1269  0.1778 -0.0420
  102SAPE   H7R10342   5.612   5.904   5.847  0.3776 -1.3425  0.5587
  102SAPE   H7S10343   5.546   6.001   5.978  1.9419  0.4946 -1.0981
  102SAPE   C2810344   5.399   5.887   5.845  0.1506 -0.2851  0.0296
  102SAPE   H8R10345   5.308   5.914   5.900 -0.1501  1.5616 -1.2940
  102SAPE   C2910346   5.382   5.829   5.729  0.1241  0.3783 -0.2749
  102SAPE   H9R10347   5.283   5.816   5.685  0.4151 -0.1060 -0.7992
  102SAPE  C21010348   5.494   5.787   5.633 -0.1891 -0.0382  0.0276
  102SAPE  H10R10349   5.585   5.846   5.658 -1.2701  1.4587  0.5002
  102SAPE  H10S10350   5.473   5.812   5.527 -0.8204  1.4347  0.4829
  102SAPE  C21110351   5.526   5.638   5.642 -0.0179  0.0651 -0.3139
  102SAPE  H11R10352   5.552   5.605   5.744  1.6328  1.1224 -0.3362
  102SAPE  C21210353   5.534   5.551   5.542  0.2349  0.3390  0.7693
  102SAPE  H12R10354   5.569   5.448   5.559 -0.6916 -0.4596 -1.6202
  102SAPE  C21310355   5.500   5.574   5.397 -0.6461 -0.1947 -0.2259
  102SAPE  H13R10356   5.586   5.628   5.352  0.4450 -0.1380  1.7914
  102SAPE  H13S10357   5.416   5.647   5.393  0.3472  0.9845 -0.0742
  102SAPE  C21410358   5.466   5.445   5.325  0.0632 -0.1781  0.0988
  102SAPE  H14R10359   5.554   5.379   5.325 -1.0142 -1.6778  0.4916
  102SAPE  C21510360   5.355   5.409   5.251  0.2859 -0.1632 -0.2506
  102SAPE  H15R10361   5.356   5.312   5.200 -0.6104 -2.3821  3.5560
  102SAPE  C21610362   5.234   5.500   5.224 -0.1918 -0.7543  0.7262
  102SAPE  H16R10363   5.264   5.603   5.250 -0.1005 -0.7666  0.6704
  102SAPE  H16S10364   5.136   5.466   5.265 -0.9091  1.0591  0.5961
  102SAPE  C21710365   5.218   5.494   5.073 -0.2811  0.1450  0.8550
  102SAPE  H17R10366   5.197   5.391   5.036  2.1556 -0.0778 -0.0981
  102SAPE  H17S10367   5.311   5.537   5.031 -0.6867  0.5640  0.3788
  102SAPE  C21810368   5.095   5.580   5.033 -0.0231  0.3110 -0.1955
  102SAPE  H18R10369   5.129   5.685   5.050  1.5039 -0.0732 -0.7637
  102SAPE  H18S10370   5.010   5.564   5.103 -1.0074  0.8415 -1.2229
  102SAPE  C21910371   5.052   5.563   4.884 -0.3368  0.1986  0.2853
  102SAPE  H19R10372   4.971   5.633   4.858  0.5284  0.2703 -2.5171
  102SAPE  H19S10373   5.007   5.462   4.872  3.4642 -1.7407  0.6967
  102SAPE  C22010374   5.170   5.566   4.790 -0.1107  0.0817  0.3736
  102SAPE  H20R10375   5.243   5.482   4.795  0.8673  0.6718 -2.1197
  102SAPE  H20S10376   5.222   5.663   4.807  3.1318 -1.2921 -0.8707
  102SAPE  H20T10377   5.141   5.563   4.683  0.2362 -0.5813  0.2902
  102SAPE   C3310378   6.054   5.633   6.329 -0.1543 -0.0108  0.2300
  102SAPE   H3X10379   5.951   5.670   6.311 -0.7198  0.1318  3.2082
  102SAPE   H3Y10380   6.046   5.531   6.372 -1.5750  0.0079  0.0634
  102SAPE   C3410381   6.126   5.640   6.190 -0.4680  0.0158  0.2695
  102SAPE   H4X10382   6.228   5.601   6.207 -0.5577 -0.4138 -0.1487
  102SAPE   H4Y10383   6.135   5.744   6.152  0.6924 -0.2445 -0.1978
  102SAPE   C3510384   6.051   5.547   6.087 -0.2238  0.2422 -0.5074
  102SAPE   H5X10385   5.946   5.577   6.107  0.9526  2.1409  4.3210
  102SAPE   H5Y10386   6.067   5.444   6.127  1.6018  0.9330  0.6472
  102SAPE   C3610387   6.093   5.575   5.942 -0.0600  0.2208  0.0861
  102SAPE   H6X10388   6.200   5.549   5.926  0.5986  1.7355  1.7044
  102SAPE   H6Y10389   6.098   5.685   5.932 -0.0595 -0.0049 -3.6958
  102SAPE   C3710390   5.993   5.537   5.834 -1.2353 -0.4393 -0.1784
  102SAPE   H7X10391   5.895   5.588   5.843 -1.1998  0.3206 -3.0327
  102SAPE   H7Y10392   5.978   5.428   5.842 -0.6533 -0.4761  0.6153
  102SAPE   C3810393   6.040   5.555   5.693 -0.7489  0.5263 -0.5405
  102SAPE   H8X10394   6.123   5.481   5.689  0.1729  1.4851  0.1565
  102SAPE   H8Y10395   6.075   5.660   5.683 -2.0404  1.0872  0.4450
  102SAPE   C3910396   5.928   5.532   5.591 -0.3439 -0.4151  0.3646
  102SAPE   H9X10397   5.846   5.607   5.593  1.0270  1.1467 -0.0876
  102SAPE   H9Y10398   5.890   5.428   5.602  1.8910 -1.1302  1.9746
  102SAPE  C31010399   5.995   5.554   5.453  0.5246 -0.1456 -0.0062
  102SAPE  H10X10400   6.079   5.484   5.439  0.4500 -0.2342 -0.0122
  102SAPE  H10Y10401   6.039   5.656   5.457  1.1302 -0.4343  1.4400
  102SAPE  C31110402   5.895   5.531   5.340  0.3745  0.4523 -0.5943
  102SAPE  H11X10403   5.813   5.604   5.356 -0.0334  0.3859 -2.2065
  102SAPE  H11Y10404   5.847   5.431   5.346  1.3766 -0.1564 -2.0972
  102SAPE  C31210405   5.945   5.560   5.208 -0.4923 -0.8892  0.1623
  102SAPE  H12X10406   6.045   5.521   5.181 -0.1696  1.3790 -2.3838
  102SAPE  H12Y10407   5.958   5.669   5.196 -0.2496 -0.8475  0.7484
  102SAPE  C31310408   5.853   5.514   5.097 -0.8492 -0.3287  0.7401
  102SAPE  H13X10409   5.755   5.565   5.104 -0.7152  0.2285 -0.9983
  102SAPE  H13Y10410   5.830   5.406   5.100 -1.3129 -0.2480  0.1859
  102SAPE  C31410411   5.910   5.549   4.960  0.1121 -0.3795 -0.1618
  102SAPE  H14X10412   6.004   5.490   4.951  0.2103 -0.1595 -0.6295
  102SAPE  H14Y10413   5.929   5.659   4.965 -0.4745 -0.2278 -1.0441
  102SAPE  C31510414   5.815   5.522   4.844 -0.8305 -0.1762 -0.1998
  102SAPE  H15X10415   5.811   5.411   4.840  0.8393 -0.2647 -0.0017
  102SAPE  H15Y10416   5.855   5.560   4.748 -1.5012  1.1630  0.0232
  102SAPE  C31610417   5.675   5.582   4.860 -0.2392  0.4633  0.0010
  102SAPE  H16X10418   5.635   5.566   4.962 -0.9852  0.8047 -0.2379
  102SAPE  H16Y10419   5.604   5.525   4.796  1.3120 -1.5346 -0.0577
  102SAPE  C31710420   5.663   5.732   4.844 -0.5123  0.9598  0.1846
  102SAPE  H17X10421   5.732   5.757   4.760 -0.2391 -1.8812 -0.5410
  102SAPE  H17Y10422   5.706   5.783   4.933 -0.4053 -0.0042  0.6943
  102SAPE  C31810423   5.523   5.776   4.814  0.0762 -0.6557 -0.3261
  102SAPE  H18X10424   5.458   5.750   4.901  0.8418  1.8869  1.1074
  102SAPE  H18Y10425   5.483   5.727   4.723  0.8243 -1.3817 -0.2846
  102SAPE  H18Z10426   5.521   5.885   4.796  2.9135 -0.8183 -2.2686
  103SAPE     N10427   0.899   3.149   2.547 -0.3835  0.1051 -0.2131
  103SAPE   HN110428   0.914   3.046   2.542  1.4627  0.3119  0.3665
  103SAPE   HN210429   0.810   3.169   2.596 -0.0283  1.0133  0.0779
  103SAPE   HN310430   0.902   3.195   2.453 -0.7933  0.7219  0.0684
  103SAPE   C1210431   1.001   3.209   2.635 -0.7586  0.5299 -0.1882
  103SAPE  H12A10432   0.979   3.157   2.731  0.2701 -1.6556 -1.0728
  103SAPE  H12B10433   1.000   3.320   2.644 -1.3404  0.6586 -1.6469
  103SAPE   C1110434   1.134   3.181   2.582 -0.0988 -0.1401 -0.6387
  103SAPE  H11A10435   1.213   3.200   2.657  0.6756  0.3901 -1.5764
  103SAPE  H11B10436   1.153   3.247   2.494 -0.4402  0.9491  0.0823
  103SAPE     P10437   1.305   3.009   2.483  0.3710 -0.4241  0.3620
  103SAPE   O1310438   1.310   2.861   2.459  0.2456  0.1773 -0.3127
  103SAPE   O1410439   1.344   3.091   2.366 -0.6931  0.1824  0.0158
  103SAPE   O1210440   1.155   3.046   2.533 -0.0298  0.4654 -0.3178
  103SAPE   O1110441   1.401   3.047   2.601  0.3969 -0.1158  0.3261
  103SAPE    C110442   1.420   2.982   2.722  0.4928  0.2225  0.2673
  103SAPE    HA10443   1.413   2.872   2.707  0.5776  0.4954 -2.0630
  103SAPE    HB10444   1.518   3.003   2.770  0.2210  0.2725  0.8142
  103SAPE    C210445   1.318   3.011   2.840  0.0786  0.1150  0.4710
  103SAPE    HS10446   1.222   3.016   2.785 -0.7268 -1.4354  1.6589
  103SAPE   O2110447   1.351   3.135   2.899 -0.2240 -0.3238 -0.1205
  103SAPE   C2110448   1.255   3.180   2.980  0.3684 -0.5207 -0.1211
  103SAPE   O2210449   1.141   3.134   2.993  0.0333 -0.2717  0.1740
  103SAPE   C2210450   1.309   3.302   3.063 -0.1293  0.3405 -0.6234
  103SAPE   H2R10451   1.414   3.276   3.087  0.2232  0.5255 -1.9045
  103SAPE   H2S10452   1.297   3.392   3.000 -2.1324  1.4545  1.2048
  103SAPE    C310453   1.299   2.892   2.937  0.5250 -0.7863 -0.8961
  103SAPE    HX10454   1.295   2.800   2.874 -2.8159 -1.1035 -0.4062
  103SAPE    HY10455   1.194   2.896   2.975  0.6736 -0.5710 -0.5045
  103SAPE   O3110456   1.388   2.905   3.050  0.0511 -0.0615 -0.5234
  103SAPE   C3110457   1.503   2.835   3.030 -0.4722 -0.1961  0.2853
  103SAPE   O3210458   1.530   2.771   2.928  0.4321 -0.3231 -0.2263
  103SAPE   C3210459   1.593   2.852   3.150  0.1684 -0.0850  0.4935
  103SAPE   H2X10460   1.643   2.951   3.145 -0.5063  0.2045 -1.2661
  103SAPE   H2Y10461   1.682   2.786   3.138  0.6051  0.5039  0.4515
  103SAPE   C2310462   1.240   3.332   3.195 -0.6074  0.1116 -0.5700
  103SAPE   H3R10463   1.130   3.333   3.180 -0.4292 -0.1130 -2.0855
  103SAPE   H3S10464   1.269   3.433   3.231 -0.1202 -0.1832 -0.1029
  103SAPE   C2410465   1.278   3.222   3.304  0.5897  0.0521 -0.0536
  103SAPE   H4R10466   1.257   3.118   3.270 -0.2326 -0.3148  1.4882
  103SAPE   H4S10467   1.213   3.239   3.392  0.3706  1.0719 -0.3995
  103SAPE   C2510468   1.423   3.224   3.350  0.2576  0.5350 -0.0695
  103SAPE   H5R10469   1.490   3.166   3.286 -1.1128  1.1441 -2.1484
  103SAPE   C2610470   1.474   3.298   3.452  0.2010  0.3749 -0.0848
  103SAPE   H6R10471   1.581   3.293   3.479  0.1679 -2.3815 -0.2097
  103SAPE   C2710472   1.394   3.381   3.542  0.5033 -0.4188 -0.3455
  103SAPE   H7R10473   1.284   3.379   3.526  0.5585 -0.6725 -0.7194
  103SAPE   H7S10474   1.413   3.490   3.533 -0.3633 -0.3145 -1.0046
  103SAPE   C2810475   1.422   3.338   3.684  0.8913 -0.2751  0.4190
  103SAPE   H8R10476   1.381   3.236   3.691  0.6796 -0.2932 -0.8433
  103SAPE   C2910477   1.479   3.402   3.783 -0.1838 -0.5930  0.1047
  103SAPE   H9R10478   1.483   3.348   3.879 -1.8806  0.7367  0.9697
  103SAPE  C21010479   1.536   3.541   3.789  0.5738 -0.4434  0.3934
  103SAPE  H10R10480   1.458   3.616   3.815  0.4813 -0.0672 -0.8973
  103SAPE  H10S10481   1.570   3.571   3.687 -1.2172  0.0552 -0.0924
  103SAPE  C21110482   1.656   3.546   3.878  0.0302 -0.1803 -0.8126
  103SAPE  H11R10483   1.753   3.569   3.832  0.7805 -0.7989  0.4210
  103SAPE  C21210484   1.662   3.538   4.015 -0.0026 -0.0806  0.4482
  103SAPE  H12R10485   1.762   3.526   4.060 -0.0959 -1.5139  0.3250
  103SAPE  C21310486   1.549   3.519   4.118  0.2332  0.2532 -0.0691
  103SAPE  H13R10487   1.457   3.471   4.078  0.2273  0.5522 -0.4212
  103SAPE  H13S10488   1.499   3.615   4.144 -1.3359 -0.2447 -1.1049
  103SAPE  C21410489   1.565   3.453   4.249  0.3189 -0.1638 -0.6418
  103SAPE  H14R10490   1.507   3.360   4.262  0.1429  0.2431  1.9156
  103SAPE  C21510491   1.645   3.483   4.352  0.0026  0.1785 -0.1232
  103SAPE  H15R10492   1.636   3.429   4.447  0.4554  0.5358  0.1290
  103SAPE  C21610493   1.745   3.595   4.364 -0.7276  0.0273 -0.3481
  103SAPE  H16R10494   1.734   3.662   4.451 -0.9659  0.8966 -1.0304
  103SAPE  H16S10495   1.731   3.661   4.275 -1.5850  1.7561  1.0106
  103SAPE  C21710496   1.893   3.551   4.363  0.0068 -0.1275  0.4892
  103SAPE  H17R10497   1.946   3.647   4.350 -0.4704  0.0984  0.1819
  103SAPE  H17S10498   1.906   3.484   4.276 -1.7104 -0.7763  0.6967
  103SAPE  C21810499   1.939   3.477   4.485 -0.4859  0.2691  0.0998
  103SAPE  H18R10500   1.870   3.394   4.510 -0.5896  0.8538  1.8988
  103SAPE  H18S10501   1.941   3.545   4.572 -0.8538  0.1741  0.1836
  103SAPE  C21910502   2.072   3.397   4.468 -0.2564 -0.3791  0.0420
  103SAPE  H19R10503   2.153   3.461   4.428  0.7063 -1.5663  0.0581
  103SAPE  H19S10504   2.058   3.320   4.389 -0.6103 -0.8722  0.5749
  103SAPE  C22010505   2.117   3.325   4.593 -0.0201  0.3665  0.0144
  103SAPE  H20R10506   2.142   3.393   4.677  0.9536 -0.8381  0.7183
  103SAPE  H20S10507   2.201   3.257   4.568  0.1479 -0.1329  1.8275
  103SAPE  H20T10508   2.030   3.275   4.641  1.1273 -2.4844 -0.6870
  103SAPE   C3310509   1.516   2.826   3.285  0.1239  0.1379  0.1224
  103SAPE   H3X10510   1.498   2.719   3.311  1.0335  0.1354  0.8093
  103SAPE   H3Y10511   1.416   2.873   3.276 -0.4653 -1.4510 -2.8537
  103SAPE   C3410512   1.589   2.897   3.409  0.4722  0.8299  0.2138
  103SAPE   H4X10513   1.626   2.998   3.381  1.9643 -0.4145 -2.7885
  103SAPE   H4Y10514   1.685   2.845   3.427 -0.3263 -1.6882 -2.1774
  103SAPE   C3510515   1.488   2.906   3.530  0.6370  0.1936 -0.5153
  103SAPE   H5X10516   1.459   2.800   3.549  0.0603  0.5400  0.5829
  103SAPE   H5Y10517   1.397   2.960   3.497 -0.9293 -2.1491 -0.2576
  103SAPE   C3610518   1.535   2.961   3.663 -0.3427 -0.0472 -1.0342
  103SAPE   H6X10519   1.564   3.069   3.664 -2.8000  0.6858  0.5607
  103SAPE   H6Y10520   1.616   2.896   3.702  1.6560  1.3834 -2.6131
  103SAPE   C3710521   1.418   2.962   3.768 -0.4995  0.2533  0.4965
  103SAPE   H7X10522   1.381   2.858   3.775  0.1363  0.0791  1.3928
  103SAPE   H7Y10523   1.331   3.023   3.733 -0.2805  0.7217  0.7520
  103SAPE   C3810524   1.472   3.015   3.893  0.0284  0.9685 -0.6440
  103SAPE   H8X10525   1.525   3.113   3.892  2.3618 -0.2032 -0.1874
  103SAPE   H8Y10526   1.534   2.938   3.945  0.9824  1.5275 -0.9284
  103SAPE   C3910527   1.359   3.044   3.989 -0.4339 -0.3844 -0.1150
  103SAPE   H9X10528   1.296   2.959   4.023 -0.2109 -0.3920  0.2905
  103SAPE   H9Y10529   1.310   3.133   3.944 -0.3856 -0.0033  0.5851
  103SAPE  C31010530   1.396   3.103   4.122  0.6969  0.8601 -0.7496
  103SAPE  H10X10531   1.419   3.211   4.104  1.6427  0.6607 -0.7475
  103SAPE  H10Y10532   1.488   3.055   4.161  0.0692 -0.3604 -0.7257
  103SAPE  C31110533   1.285   3.085   4.228  0.2622 -0.4691  0.3191
  103SAPE  H11X10534   1.313   3.007   4.301 -2.1192  0.5466  2.5036
  103SAPE  H11Y10535   1.188   3.067   4.176  0.3465 -0.6839  0.2352
  103SAPE  C31210536   1.268   3.216   4.308 -0.4013  0.1569  0.3693
  103SAPE  H12X10537   1.235   3.296   4.239 -0.5782 -0.1202  0.1303
  103SAPE  H12Y10538   1.363   3.247   4.356 -0.7707 -0.5219  1.5686
  103SAPE  C31310539   1.157   3.195   4.408  0.7921  0.6624 -0.4259
  103SAPE  H13X10540   1.170   3.103   4.470 -0.4190 -0.4753 -1.7656
  103SAPE  H13Y10541   1.062   3.165   4.358  1.3718 -2.6324  0.1952
  103SAPE  C31410542   1.132   3.311   4.502  0.0462 -0.1750 -0.1567
  103SAPE  H14X10543   1.037   3.298   4.557 -0.4956 -0.8231 -1.2120
  103SAPE  H14Y10544   1.110   3.398   4.437  3.4106  0.9457 -0.0120
  103SAPE  C31510545   1.253   3.344   4.594  0.0077  0.3431 -0.2170
  103SAPE  H15X10546   1.353   3.340   4.547  1.2119  0.1573  2.1747
  103SAPE  H15Y10547   1.268   3.268   4.674  3.6297  0.1405 -0.9241
  103SAPE  C31610548   1.240   3.483   4.671  0.3308  0.4964 -0.2227
  103SAPE  H16X10549   1.163   3.463   4.748 -0.0586 -1.3154 -1.0251
  103SAPE  H16Y10550   1.196   3.559   4.602 -0.9503  1.0998  1.2059
  103SAPE  C31710551   1.367   3.534   4.740  0.9113 -0.0138 -0.0588
  103SAPE  H17X10552   1.334   3.629   4.788  1.8729  1.2427 -1.7848
  103SAPE  H17Y10553   1.450   3.552   4.669  0.3692 -2.4192 -1.3961
  103SAPE  C31810554   1.410   3.435   4.848  0.2624  0.6283 -0.2465
  103SAPE  H18X10555   1.324   3.390   4.902 -1.4347  0.5005 -2.8693
  103SAPE  H18Y10556   1.473   3.489   4.922  0.8345  0.6525 -0.7445
  103SAPE  H18Z10557   1.470   3.354   4.800 -0.8757  0.7877 -2.0215
  104SAPE     N10558   2.689   3.739   2.703 -0.4261  0.9645  1.0176
  104SAPE   HN110559   2.721   3.714   2.608  1.6447  0.2212  1.8632
  104SAPE   HN210560   2.586   3.724   2.704 -0.3394 -0.3380  4.2565
  104SAPE   HN310561   2.725   3.835   2.722  0.6884  0.9003 -0.5942
  104SAPE   C1210562   2.746   3.640   2.800 -0.1135 -0.4834  0.4232
  104SAPE  H12A10563   2.701   3.662   2.899 -0.4333  0.6018  0.0484
  104SAPE  H12B10564   2.857   3.644   2.799 -0.1385  0.3850  0.5683
  104SAPE   C1110565   2.704   3.503   2.751 -0.3665  0.2970  0.1333
  104SAPE  H11A10566   2.595   3.504   2.732 -0.3732 -1.2357 -0.0181
  104SAPE  H11B10567   2.713   3.432   2.836 -1.4165 -1.4209 -1.1483
  104SAPE     P10568   2.915   3.421   2.619  0.3605  0.2889 -0.0073
  104SAPE   O1310569   2.935   3.358   2.485  0.0519  0.0815 -0.0836
  104SAPE   O1410570   3.006   3.529   2.649 -0.0055  0.0755 -0.1272
  104SAPE   O1210571   2.769   3.469   2.630  0.4122  0.3919  0.1752
  104SAPE   O1110572   2.932   3.308   2.723 -0.3743 -0.3158 -0.9605
  104SAPE    C110573   2.844   3.200   2.741  0.1436 -1.0686 -0.0059
  104SAPE    HA10574   2.741   3.234   2.761  0.9728  1.4225  0.3845
  104SAPE    HB10575   2.848   3.124   2.660  1.1628 -1.2898  0.2342
  104SAPE    C210576   2.889   3.117   2.864  0.5500  0.3726  0.5191
  104SAPE    HS10577   2.967   3.047   2.828  0.0042 -0.9447  1.8453
  104SAPE   O2110578   2.780   3.040   2.912 -0.2360  0.2979 -0.0345
  104SAPE   C2110579   2.736   2.937   2.839 -0.2822 -0.4869 -0.0142
  104SAPE   O2210580   2.790   2.907   2.737  0.0258  0.3742 -0.4907
  104SAPE   C2210581   2.619   2.871   2.912  0.0271  0.5424 -0.1400
  104SAPE   H2R10582   2.557   2.963   2.921  0.6374  1.1790 -1.8842
  104SAPE   H2S10583   2.572   2.790   2.852  2.3204 -0.4162 -0.7381
  104SAPE    C310584   2.933   3.212   2.969 -0.3680 -0.2995 -0.0458
  104SAPE    HX10585   2.865   3.298   2.989  2.0343  2.4509 -2.7310
  104SAPE    HY10586   3.026   3.258   2.929 -1.2054  1.3012 -0.2509
  104SAPE   O3110587   2.965   3.131   3.084 -0.0575  0.2022  0.5254
  104SAPE   C3110588   2.860   3.118   3.167 -0.1594  0.2253  0.6199
  104SAPE   O3210589   2.755   3.180   3.159  0.2146  0.3140  0.1516
  104SAPE   C3210590   2.914   3.019   3.278  0.4567 -0.2197 -0.0652
  104SAPE   H2X10591   3.015   3.061   3.293  0.3094 -0.7029  2.9972
  104SAPE   H2Y10592   2.918   2.916   3.236  0.2160 -0.6937  1.0453
  104SAPE   C2310593   2.657   2.823   3.053  0.1543  0.0492 -0.1063
  104SAPE   H3R10594   2.676   2.918   3.107  0.8699  0.8084 -1.6210
  104SAPE   H3S10595   2.757   2.776   3.043  0.3236 -1.0811  4.4566
  104SAPE   C2410596   2.571   2.716   3.118  0.2556  0.2918  0.1408
  104SAPE   H4R10597   2.630   2.668   3.199 -0.1782 -1.2339 -0.4221
  104SAPE   H4S10598   2.539   2.642   3.042  3.8348 -0.9960 -0.2770
  104SAPE   C2510599   2.443   2.783   3.168 -0.6113 -0.4474 -0.0320
  104SAPE   H5R10600   2.411   2.860   3.095  0.6281  1.3077  1.1834
  104SAPE   C2610601   2.376   2.779   3.277 -0.3293 -0.6853  0.1073
  104SAPE   H6R10602   2.299   2.858   3.285  0.9898  0.7486 -0.8130
  104SAPE   C2710603   2.411   2.702   3.404  0.1513  0.1335 -0.0163
  104SAPE   H7R10604   2.382   2.765   3.490 -2.5921 -1.3266  0.2426
  104SAPE   H7S10605   2.521   2.690   3.408 -0.0011 -1.0154  1.4428
  104SAPE   C2810606   2.341   2.566   3.430  0.1560 -0.3798  0.1692
  104SAPE   H8R10607   2.270   2.531   3.355  2.3882 -1.6642 -1.4850
  104SAPE   C2910608   2.336   2.506   3.552  0.6005 -0.3827 -0.4125
  104SAPE   H9R10609   2.276   2.416   3.571  2.1011 -1.3346  0.0121
  104SAPE  C21010610   2.403   2.547   3.682  1.0724  0.3622 -0.2454
  104SAPE  H10R10611   2.506   2.580   3.658  2.2380 -1.3555  1.9964
  104SAPE  H10S10612   2.428   2.458   3.744 -1.6045  0.1679  0.6716
  104SAPE  C21110613   2.320   2.643   3.763  0.1061 -0.8836  0.1546
  104SAPE  H11R10614   2.233   2.676   3.704  0.6643 -0.9799 -0.7506
  104SAPE  C21210615   2.354   2.691   3.883 -0.5187 -0.2753  0.2839
  104SAPE  H12R10616   2.287   2.762   3.933 -0.6046 -1.0568  1.3186
  104SAPE  C21310617   2.470   2.637   3.962  0.1401  0.1123 -0.2439
  104SAPE  H13R10618   2.549   2.715   3.954 -0.7626  1.1659  0.6664
  104SAPE  H13S10619   2.501   2.537   3.925 -0.8375  0.0018 -0.7974
  104SAPE  C21410620   2.418   2.628   4.104  1.1748  0.6455 -0.5746
  104SAPE  H14R10621   2.383   2.726   4.140  1.5046  0.6105 -0.1497
  104SAPE  C21510622   2.409   2.516   4.181 -0.2342  0.2338  0.3215
  104SAPE  H15R10623   2.372   2.519   4.285  0.1709 -1.0409  0.5109
  104SAPE  C21610624   2.447   2.379   4.131 -0.7922  0.3019  0.0103
  104SAPE  H16R10625   2.543   2.363   4.078 -1.7402  0.4784 -1.8578
  104SAPE  H16S10626   2.378   2.333   4.056  1.1711 -1.2310 -0.9636
  104SAPE  C21710627   2.453   2.267   4.240  0.6246  0.1292 -0.4660
  104SAPE  H17R10628   2.523   2.281   4.325 -2.9900 -0.1107  2.8703
  104SAPE  H17S10629   2.474   2.180   4.174 -1.3638  1.6067 -3.2688
  104SAPE  C21810630   2.316   2.237   4.316 -0.3745  0.5248  0.0397
  104SAPE  H18R10631   2.295   2.128   4.312  0.3063  0.4099 -0.6067
  104SAPE  H18S10632   2.234   2.274   4.249 -0.8969  0.4652  0.6386
  104SAPE  C21910633   2.312   2.290   4.456 -0.2505  0.5638 -0.1103
  104SAPE  H19R10634   2.358   2.391   4.459  0.1615  0.5462 -2.8491
  104SAPE  H19S10635   2.372   2.227   4.525 -1.2238  0.7652  0.9469
  104SAPE  C22010636   2.169   2.290   4.520  0.0732 -0.3518  0.1898
  104SAPE  H20R10637   2.100   2.339   4.448  0.3801 -1.7180 -1.0831
  104SAPE  H20S10638   2.158   2.346   4.615  0.4332  0.1361 -0.0519
  104SAPE  H20T10639   2.139   2.185   4.539  2.2365 -1.9496 -3.9096
  104SAPE   C3310640   2.827   3.022   3.404 -0.2676  0.2274  0.1355
  104SAPE   H3X10641   2.734   2.966   3.379  0.1977 -0.2070 -0.6775
  104SAPE   H3Y10642   2.812   3.128   3.432  0.5472  0.7771 -1.3900
  104SAPE   C3410643   2.894   2.938   3.517  0.5564 -0.5915 -0.1154
  104SAPE   H4X10644   3.000   2.973   3.519  1.2010 -2.4259 -0.3844
  104SAPE   H4Y10645   2.899   2.829   3.494 -0.0341 -0.4619 -0.8862
  104SAPE   C3510646   2.822   2.960   3.647  1.1067 -0.6638  1.1071
  104SAPE   H5X10647   2.742   2.884   3.661 -0.4060  0.8675  1.2143
  104SAPE   H5Y10648   2.772   3.059   3.632  0.6903 -1.2737 -2.8599
  104SAPE   C3610649   2.893   2.967   3.776  0.1845 -0.2979 -0.2929
  104SAPE   H6X10650   2.944   3.065   3.789 -1.2522  0.2831  1.3541
  104SAPE   H6Y10651   2.967   2.885   3.795 -0.9950 -0.7787  3.0096
  104SAPE   C3710652   2.789   2.966   3.887  0.3419 -0.5911 -0.3952
  104SAPE   H7X10653   2.699   2.906   3.861 -0.6739  1.1155 -0.9919
  104SAPE   H7Y10654   2.747   3.065   3.916  2.0470  0.1954 -0.4684
  104SAPE   C3810655   2.846   2.898   4.012 -0.6951  0.0058 -0.6607
  104SAPE   H8X10656   2.942   2.948   4.037  0.0785 -2.6020  2.0389
  104SAPE   H8Y10657   2.862   2.791   3.987  2.4124 -0.2170  1.6283
  104SAPE   C3910658   2.745   2.906   4.125 -0.1551  0.6509 -0.2090
  104SAPE   H9X10659   2.643   2.876   4.092 -0.6777 -0.2470  1.9795
  104SAPE   H9Y10660   2.735   3.015   4.143  0.4250  0.7665 -0.5918
  104SAPE  C31010661   2.777   2.821   4.247 -0.6176 -0.3644  0.3057
  104SAPE  H10X10662   2.887   2.840   4.254 -0.5839  1.0145 -2.4099
  104SAPE  H10Y10663   2.765   2.714   4.218 -1.4935 -0.0738 -0.4571
  104SAPE  C31110664   2.696   2.848   4.365  0.0228 -0.3441 -0.2073
  104SAPE  H11X10665   2.589   2.858   4.338 -0.2226 -0.9816  0.4947
  104SAPE  H11Y10666   2.733   2.942   4.412 -0.5927 -0.1407 -0.1185
  104SAPE  C31210667   2.703   2.735   4.467 -0.6952  0.4021  0.9292
  104SAPE  H12X10668   2.806   2.742   4.509 -0.6884  0.8729  0.8380
  104SAPE  H12Y10669   2.694   2.638   4.413 -2.6876  0.3530  1.2757
  104SAPE  C31310670   2.609   2.754   4.587  0.3029  0.3630 -0.7808
  104SAPE  H13X10671   2.510   2.733   4.542  1.2301  0.0013 -2.7716
  104SAPE  H13Y10672   2.618   2.855   4.633 -2.1292  0.2978 -0.0622
  104SAPE  C31410673   2.624   2.644   4.695  0.1210 -0.2634 -0.2827
  104SAPE  H14X10674   2.586   2.682   4.792  1.0423 -2.0517  0.8198
  104SAPE  H14Y10675   2.729   2.612   4.711  1.0654  1.7566 -1.8712
  104SAPE  C31510676   2.541   2.518   4.670 -0.1468 -0.1446  0.4967
  104SAPE  H15X10677   2.562   2.482   4.567  0.2899  0.5687  0.3316
  104SAPE  H15Y10678   2.433   2.543   4.667  0.3412  2.0871 -1.7201
  104SAPE  C31610679   2.573   2.398   4.762 -0.7077  0.2692 -0.5912
  104SAPE  H16X10680   2.683   2.391   4.774 -0.6471  1.2638 -0.5110
  104SAPE  H16Y10681   2.525   2.304   4.728  0.3991 -0.8145  0.7037
  104SAPE  C31710682   2.525   2.427   4.907  0.7033  0.6666 -0.6342
  104SAPE  H17X10683   2.570   2.523   4.938  1.3064  0.3517 -0.5061
  104SAPE  H17Y10684   2.570   2.350   4.974 -2.7087 -1.7141 -0.7622
  104SAPE  C31810685   2.375   2.428   4.926  0.3169 -1.0547 -0.2813
  104SAPE  H18X10686   2.363   2.439   5.036  0.2512  0.9294 -0.4472
  104SAPE  H18Y10687   2.328   2.341   4.876 -1.6519 -0.1455 -0.1224
  104SAPE  H18Z10688   2.328   2.518   4.880  0.1679 -1.9552 -1.9539
  105SAPE     N10689   6.786   0.103   2.428  0.0411 -0.1624  0.7176
  105SAPE   HN110690   6.688   0.133   2.409 -0.4222 -1.7908  0.3777
  105SAPE   HN210691   6.843   0.187   2.450 -0.6130  0.4730  0.0633
  105SAPE   HN310692   6.836   0.056   2.350  1.3870  2.1430  0.1187
  105SAPE   C1210693   6.777   0.008   2.540 -0.1111  0.3816 -0.7147
  105SAPE  H12A10694   6.860  -0.066   2.541 -0.1872  0.3039  0.4373
  105SAPE  H12B10695   6.686  -0.054   2.542  0.0954  0.0734 -0.7984
  105SAPE   C1110696   6.778   0.079   2.682  0.0725  0.4008  0.0130
  105SAPE  H11A10697   6.744   0.000   2.753  0.7877 -0.7670 -0.8904
  105SAPE  H11B10698   6.703   0.161   2.687  0.4629  0.7673 -0.1323
  105SAPE     P10699   6.945   0.275   2.688  0.2307 -0.0628  0.1230
  105SAPE   O1310700   7.087   0.301   2.735  0.2138  0.0500  0.8609
  105SAPE   O1410701   6.924   0.293   2.539  0.0650 -0.1445 -0.4156
  105SAPE   O1210702   6.905   0.126   2.729  0.2805  0.5014 -0.0145
  105SAPE   O1110703   6.847   0.365   2.765  0.4136 -0.3565 -0.3086
  105SAPE    C110704   6.833   0.349   2.915 -0.4862  0.2024 -0.4708
  105SAPE    HA10705   6.725   0.340   2.941 -0.0641 -0.5813  1.1319
  105SAPE    HB10706   6.880   0.259   2.958 -2.5152 -1.1647 -0.9573
  105SAPE    C210707   6.877   0.481   2.982 -0.3527 -0.0512 -0.5129
  105SAPE    HS10708   6.983   0.492   2.952 -0.8249 -1.3388 -2.9672
  105SAPE   O2110709   6.849   0.450   3.118 -0.1447  0.7936 -0.4636
  105SAPE   C2110710   6.944   0.481   3.203  0.1051  0.4070  0.4304
  105SAPE   O2210711   7.053   0.532   3.171  0.5565  0.8728 -0.4019
  105SAPE   C2210712   6.898   0.449   3.349 -0.2246  0.1851 -0.2333
  105SAPE   H2R10713   6.787   0.453   3.341 -0.2261  0.1030 -0.2516
  105SAPE   H2S10714   6.938   0.349   3.373  0.9140  0.8465  0.7325
  105SAPE    C310715   6.789   0.601   2.941  0.6487 -0.4972  1.1335
  105SAPE    HX10716   6.691   0.578   2.988 -0.8543  0.7419 -1.1946
  105SAPE    HY10717   6.798   0.591   2.830 -0.1403  0.7377  0.9383
  105SAPE   O3110718   6.841   0.728   2.987  0.7289 -0.4609 -0.0711
  105SAPE   C3110719   6.783   0.834   2.927 -0.3462  0.3020 -0.2549
  105SAPE   O3210720   6.704   0.828   2.834 -0.1460 -0.1242  0.0861
  105SAPE   C3210721   6.836   0.959   2.997 -0.4090 -0.6256 -0.4602
  105SAPE   H2X10722   6.887   1.020   2.919  1.0722 -0.7153  0.4013
  105SAPE   H2Y10723   6.914   0.931   3.072  0.5400  1.3416 -0.6339
  105SAPE   C2310724   6.967   0.548   3.456  0.2542  0.1444  0.6439
  105SAPE   H3R10725   6.949   0.650   3.415 -1.2296  0.0722  1.0491
  105SAPE   H3S10726   7.074   0.521   3.456  0.0820 -0.5608 -0.0144
  105SAPE   C2410727   6.930   0.542   3.609  0.2225  0.1755  0.3242
  105SAPE   H4R10728   6.826   0.579   3.617 -0.7531 -2.2962 -0.0850
  105SAPE   H4S10729   6.982   0.621   3.668 -1.3187  1.0302  0.5956
  105SAPE   C2510730   6.947   0.408   3.678  0.4336  0.1527  0.2503
  105SAPE   H5R10731   6.981   0.323   3.617 -0.5598 -0.5262  0.6334
  105SAPE   C2610732   6.902   0.374   3.799 -0.1784  0.4322 -0.1297
  105SAPE   H6R10733   6.916   0.271   3.835 -2.1903 -0.8514 -2.6545
  105SAPE   C2710734   6.820   0.460   3.898  0.0785 -0.9486 -0.2855
  105SAPE   H7R10735   6.823   0.413   3.999 -0.8171  1.8604  1.1795
  105SAPE   H7S10736   6.715   0.447   3.863 -0.6969  0.2618  1.4171
  105SAPE   C2810737   6.845   0.605   3.920 -0.2594 -0.1319  0.0653
  105SAPE   H8R10738   6.817   0.664   3.831 -3.0318 -0.8143  0.3822
  105SAPE   C2910739   6.892   0.660   4.032 -0.2425  0.9357 -0.2241
  105SAPE   H9R10740   6.907   0.769   4.024 -0.6539  0.9269 -1.2282
  105SAPE  C21010741   6.923   0.595   4.165 -0.3236 -0.2785 -0.8495
  105SAPE  H10R10742   7.030   0.611   4.191 -0.3270  0.0319 -1.0149
  105SAPE  H10S10743   6.914   0.485   4.158  2.1454 -0.6364  0.6053
  105SAPE  C21110744   6.839   0.665   4.273 -0.1473 -0.5961  0.0738
  105SAPE  H11R10745   6.869   0.760   4.321 -1.9815 -0.6631  1.4925
  105SAPE  C21210746   6.713   0.624   4.309  0.5743 -0.2699  0.8493
  105SAPE  H12R10747   6.644   0.678   4.374 -0.2020 -0.0211 -0.1518
  105SAPE  C21310748   6.647   0.503   4.247 -0.0942 -0.3236  0.6325
  105SAPE  H13R10749   6.592   0.455   4.331  0.3695 -1.0064  0.5543
  105SAPE  H13S10750   6.708   0.428   4.191 -1.0863 -1.4978  1.0748
  105SAPE  C21410751   6.547   0.565   4.145 -0.1768  0.5939  0.3340
  105SAPE  H14R10752   6.600   0.596   4.054 -0.2472  0.5218  0.2693
  105SAPE  C21510753   6.418   0.608   4.162 -0.7955  0.1541  0.1381
  105SAPE  H15R10754   6.359   0.658   4.084  0.2636 -1.2478 -1.6158
  105SAPE  C21610755   6.338   0.586   4.282 -0.0554 -0.5886  0.2919
  105SAPE  H16R10756   6.398   0.582   4.376 -1.0403  0.7654  1.0111
  105SAPE  H16S10757   6.281   0.491   4.273 -1.9831  0.4830  0.6985
  105SAPE  C21710758   6.235   0.697   4.302  0.3736 -0.1937 -0.8751
  105SAPE  H17R10759   6.161   0.693   4.220 -1.1469  4.3034  0.0245
  105SAPE  H17S10760   6.276   0.800   4.301 -0.9570  0.3477 -2.0023
  105SAPE  C21810761   6.148   0.684   4.428 -0.2521 -0.2407  0.8803
  105SAPE  H18R10762   6.076   0.769   4.428  0.6313  0.6031 -1.6212
  105SAPE  H18S10763   6.217   0.690   4.515  0.9087  0.1607 -0.0329
  105SAPE  C21910764   6.079   0.548   4.435 -0.1684  0.3608  0.7602
  105SAPE  H19R10765   6.154   0.467   4.446  0.0489  0.4740  0.1684
  105SAPE  H19S10766   6.015   0.542   4.345 -1.8773 -0.6472  1.9867
  105SAPE  C22010767   5.988   0.544   4.564  0.2174  0.5870 -0.2238
  105SAPE  H20R10768   5.951   0.444   4.597 -1.1855 -0.1285 -3.5655
  105SAPE  H20S10769   5.894   0.600   4.547  0.2151  1.2728  1.8383
  105SAPE  H20T10770   6.040   0.595   4.648 -1.0532  4.6297 -1.6723
  105SAPE   C3310771   6.725   1.046   3.059 -0.1137 -0.4722 -0.3113
  105SAPE   H3X10772   6.646   1.065   2.983  0.5281 -1.3707 -1.2408
  105SAPE   H3Y10773   6.769   1.143   3.091 -0.7463 -0.3485  0.1926
  105SAPE   C3410774   6.675   0.986   3.188  0.2280  0.6131 -0.1956
  105SAPE   H4X10775   6.763   0.980   3.255  0.9578  0.6254 -1.1296
  105SAPE   H4Y10776   6.644   0.881   3.169 -1.1975  0.8492  0.7087
  105SAPE   C3510777   6.566   1.069   3.259  0.3242  0.0737  0.1749
  105SAPE   H5X10778   6.487   1.073   3.182  1.0315 -0.8486 -0.6385
  105SAPE   H5Y10779   6.611   1.170   3.273 -0.8744  0.5555  0.6084
  105SAPE   C3610780   6.505   1.003   3.380  0.3441 -0.2386  0.0911
  105SAPE   H6X10781   6.483   0.896   3.357  1.2499 -0.7526  1.4933
  105SAPE   H6Y10782   6.407   1.054   3.396  0.2219 -0.7140  0.9202
  105SAPE   C3710783   6.580   1.020   3.510  0.0534  0.3647 -0.2186
  105SAPE   H7X10784   6.579   1.128   3.535  0.4532  0.7904 -1.9100
  105SAPE   H7Y10785   6.684   0.986   3.489 -0.5677 -0.2803 -2.6660
  105SAPE   C3810786   6.516   0.944   3.632  0.3710 -1.1816 -0.0684
  105SAPE   H8X10787   6.523   0.838   3.601  1.2838 -0.9169 -0.8061
  105SAPE   H8Y10788   6.407   0.967   3.634  0.8552  1.3985  1.0785
  105SAPE   C3910789   6.587   0.977   3.762 -0.4918  0.8276 -0.6241
  105SAPE   H9X10790   6.593   1.087   3.773  2.2808  0.5797  1.3414
  105SAPE   H9Y10791   6.688   0.936   3.745 -1.2318 -0.3043 -2.6668
  105SAPE  C31010792   6.517   0.919   3.894 -0.2586 -0.1297  0.4993
  105SAPE  H10X10793   6.504   0.809   3.883  0.4338 -0.2863  1.1882
  105SAPE  H10Y10794   6.417   0.966   3.904 -0.8471 -0.9561 -1.1048
  105SAPE  C31110795   6.596   0.947   4.017 -0.6748  0.2275  0.0765
  105SAPE  H11X10796   6.699   0.911   3.998 -0.7902 -0.4478  0.6774
  105SAPE  H11Y10797   6.552   0.874   4.089 -2.2084  0.1835 -0.8632
  105SAPE  C31210798   6.585   1.089   4.069 -0.2113 -0.2050  0.0099
  105SAPE  H12X10799   6.477   1.111   4.085 -0.3501  1.1206 -2.3052
  105SAPE  H12Y10800   6.609   1.162   3.988 -1.3936  0.4028  0.1794
  105SAPE  C31310801   6.659   1.111   4.203 -0.5281  0.1653  0.2804
  105SAPE  H13X10802   6.616   1.043   4.280  2.4015  2.3387  4.1856
  105SAPE  H13Y10803   6.630   1.212   4.239 -0.2619 -0.6272  3.0143
  105SAPE  C31410804   6.809   1.083   4.200 -0.2093  1.1829  0.6130
  105SAPE  H14X10805   6.862   1.123   4.111  0.6917  0.8160  0.9713
  105SAPE  H14Y10806   6.827   0.973   4.201 -0.1522  1.1661 -0.6421
  105SAPE  C31510807   6.889   1.140   4.321  0.1704 -0.0533  0.1878
  105SAPE  H15X10808   6.864   1.095   4.419 -0.4739  0.7629  0.4084
  105SAPE  H15Y10809   6.869   1.249   4.327 -2.6419 -0.5587  2.9428
  105SAPE  C31610810   7.048   1.134   4.310 -0.9031  0.5463 -0.0068
  105SAPE  H16X10811   7.074   1.045   4.249 -1.2348 -0.5540  1.4059
  105SAPE  H16Y10812   7.090   1.135   4.413 -0.0674 -2.8999 -0.1988
  105SAPE  C31710813   7.102   1.253   4.231  0.1080 -0.2140 -0.6645
  105SAPE  H17X10814   7.068   1.350   4.275 -0.4736 -0.1063 -1.3364
  105SAPE  H17Y10815   7.046   1.252   4.135 -1.7650 -3.9258  0.2802
  105SAPE  C31810816   7.251   1.251   4.221 -0.8777 -0.0061 -0.1924
  105SAPE  H18X10817   7.307   1.342   4.193  2.2827 -1.6815  0.2462
  105SAPE  H18Y10818   7.297   1.178   4.151  0.8096 -2.2703  2.9793
  105SAPE  H18Z10819   7.287   1.213   4.319  0.9758 -2.2234 -1.6396
  106SAPE     N10820   5.270   3.286   2.186 -0.0536  0.2954 -0.1184
  106SAPE   HN110821   5.306   3.355   2.117 -0.3617  0.4097 -0.1668
  106SAPE   HN210822   5.306   3.192   2.159  1.6272  0.9406 -0.2002
  106SAPE   HN310823   5.167   3.296   2.180  0.0674  1.7316 -0.0415
  106SAPE   C1210824   5.307   3.319   2.329 -0.5897 -0.0743 -1.0559
  106SAPE  H12A10825   5.249   3.250   2.394  2.3189 -0.1317  1.6905
  106SAPE  H12B10826   5.276   3.423   2.355  0.9184  0.1782 -0.1882
  106SAPE   C1110827   5.462   3.290   2.367  0.4206 -0.4792  0.4485
  106SAPE  H11A10828   5.486   3.187   2.332  0.4833  0.1665 -1.5198
  106SAPE  H11B10829   5.465   3.274   2.477  0.2284 -3.0015  0.1601
  106SAPE     P10830   5.593   3.507   2.391  0.1445 -0.1764 -0.2640
  106SAPE   O1310831   5.702   3.578   2.321  0.4319  0.0427  0.6152
  106SAPE   O1410832   5.468   3.583   2.428  0.0184 -0.0072 -0.1410
  106SAPE   O1210833   5.556   3.383   2.308 -0.1156 -0.0768  0.1817
  106SAPE   O1110834   5.657   3.462   2.526 -0.1220  0.4800 -0.6832
  106SAPE    C110835   5.760   3.362   2.523  0.3768  0.2590 -0.5208
  106SAPE    HA10836   5.732   3.270   2.467  0.4353 -0.3883  0.4850
  106SAPE    HB10837   5.856   3.399   2.481  0.7230  0.6306  0.5656
  106SAPE    C210838   5.795   3.327   2.671  0.1578  0.0987 -0.2003
  106SAPE    HS10839   5.880   3.256   2.675 -0.3303 -0.4556  0.5568
  106SAPE   O2110840   5.679   3.271   2.735  0.0738 -0.1183 -0.3897
  106SAPE   C2110841   5.672   3.145   2.734  0.1022 -0.3818 -0.3640
  106SAPE   O2210842   5.759   3.070   2.695  0.3491  0.0373  0.2188
  106SAPE   C2210843   5.541   3.101   2.801  0.0077 -0.2983  0.1789
  106SAPE   H2R10844   5.448   3.130   2.747 -1.0473 -2.7635  0.5248
  106SAPE   H2S10845   5.542   2.991   2.787 -0.5731 -0.4870  1.4499
  106SAPE    C310846   5.858   3.444   2.756 -0.2331 -0.3493  0.0809
  106SAPE    HX10847   5.791   3.533   2.755  0.1990 -0.0156  0.2077
  106SAPE    HY10848   5.946   3.471   2.693 -0.0021 -1.3831 -0.0547
  106SAPE   O3110849   5.881   3.408   2.898  0.1474 -0.6868  0.0820
  106SAPE   C3110850   5.990   3.338   2.930 -0.1125  0.3457  0.1115
  106SAPE   O3210851   6.076   3.308   2.850  0.1510  0.1345  0.1487
  106SAPE   C3210852   5.983   3.298   3.085 -0.2570  0.0145  0.7538
  106SAPE   H2X10853   6.019   3.394   3.128  2.6109 -0.4666 -0.3524
  106SAPE   H2Y10854   6.058   3.219   3.108  0.3433  0.2932 -0.1701
  106SAPE   C2310855   5.523   3.138   2.952 -0.7664 -0.2791 -1.1958
  106SAPE   H3R10856   5.517   3.249   2.957  2.2631 -0.0073 -1.7842
  106SAPE   H3S10857   5.616   3.106   3.002 -0.8338 -1.5426 -1.8236
  106SAPE   C2410858   5.408   3.064   3.025 -0.0537  0.3931 -1.0978
  106SAPE   H4R10859   5.451   2.962   3.032  0.4693  0.5358 -2.1062
  106SAPE   H4S10860   5.312   3.064   2.971 -1.0439 -1.5762  0.5252
  106SAPE   C2510861   5.372   3.120   3.153  0.7225  0.0492 -0.9641
  106SAPE   H5R10862   5.302   3.205   3.155  0.9574  0.2312  0.9082
  106SAPE   C2610863   5.434   3.081   3.273  0.3684  0.4091 -0.8542
  106SAPE   H6R10864   5.410   3.137   3.365  0.2070  0.8699 -1.1759
  106SAPE   C2710865   5.521   2.962   3.303  0.3234 -0.5970 -0.0739
  106SAPE   H7R10866   5.581   2.941   3.212  0.1116  2.5626 -1.0730
  106SAPE   H7S10867   5.453   2.874   3.306 -2.7600  1.6485  0.7942
  106SAPE   C2810868   5.597   2.965   3.437  0.0545 -0.6437  0.4840
  106SAPE   H8R10869   5.696   3.014   3.432 -1.2114  1.9640 -0.8024
  106SAPE   C2910870   5.559   2.916   3.559 -0.4784  0.8657  0.0073
  106SAPE   H9R10871   5.621   2.935   3.649 -0.2341  0.3239 -0.0424
  106SAPE  C21010872   5.423   2.847   3.583  0.0804 -0.2226  0.3910
  106SAPE  H10R10873   5.428   2.738   3.560 -0.6916 -0.0727 -0.5112
  106SAPE  H10S10874   5.355   2.882   3.503 -0.9335  0.8777  1.6878
  106SAPE  C21110875   5.369   2.880   3.723 -0.0801  0.0175 -0.3471
  106SAPE  H11R10876   5.334   2.984   3.728  0.3279  0.1379 -0.0348
  106SAPE  C21210877   5.385   2.807   3.838 -0.2425  0.0297 -0.2933
  106SAPE  H12R10878   5.356   2.850   3.935  1.8668  1.2117 -0.0987
  106SAPE  C21310879   5.457   2.671   3.843  0.6690  0.1141  0.4531
  106SAPE  H13R10880   5.474   2.638   3.738 -2.1622 -0.6393  0.1407
  106SAPE  H13S10881   5.389   2.597   3.890 -0.4572  0.1140 -1.0654
  106SAPE  C21410882   5.583   2.684   3.915 -0.3395 -0.1211 -0.2703
  106SAPE  H14R10883   5.670   2.719   3.857  0.7285  0.5792  1.6683
  106SAPE  C21510884   5.604   2.661   4.045 -0.0168  0.2284 -0.8148
  106SAPE  H15R10885   5.704   2.651   4.089 -0.3378 -0.9476 -0.3061
  106SAPE  C21610886   5.507   2.611   4.151  0.0526 -0.9309  0.0663
  106SAPE  H16R10887   5.422   2.552   4.110  1.9497 -3.5357 -0.2979
  106SAPE  H16S10888   5.466   2.690   4.218  0.8105 -1.3249  1.0117
  106SAPE  C21710889   5.566   2.515   4.257  0.1445  0.4400 -0.5415
  106SAPE  H17R10890   5.649   2.562   4.314 -0.0013 -0.0445  0.0902
  106SAPE  H17S10891   5.607   2.426   4.205  0.6636  1.5186 -2.0094
  106SAPE  C21810892   5.459   2.452   4.348 -0.3998 -0.6646 -0.2836
  106SAPE  H18R10893   5.380   2.398   4.291 -1.0561 -0.1886  0.1716
  106SAPE  H18S10894   5.415   2.545   4.388  1.7860  0.8129 -1.0607
  106SAPE  C21910895   5.508   2.363   4.458  0.0259 -0.1219 -0.5115
  106SAPE  H19R10896   5.577   2.418   4.525  1.0297 -1.5361 -0.3242
  106SAPE  H19S10897   5.562   2.276   4.415 -0.0247 -0.2274 -0.3624
  106SAPE  C22010898   5.398   2.306   4.549 -0.1763  0.4063  0.1830
  106SAPE  H20R10899   5.339   2.384   4.601 -0.9944  0.0978 -0.2617
  106SAPE  H20S10900   5.454   2.246   4.624  1.1060  0.3050 -0.8136
  106SAPE  H20T10901   5.320   2.252   4.491  0.1887 -1.1685  1.1281
  106SAPE   C3310902   5.846   3.243   3.131  0.1337  0.0705  0.3689
  106SAPE   H3X10903   5.830   3.154   3.066 -2.5896  0.1092  0.8581
  106SAPE   H3Y10904   5.766   3.317   3.112  0.7563  0.9313  1.0355
  106SAPE   C3410905   5.852   3.208   3.282 -0.5400  0.0114 -0.1414
  106SAPE   H4X10906   5.952   3.160   3.292 -0.0668  0.2901 -2.7214
  106SAPE   H4Y10907   5.778   3.135   3.319  0.3056 -0.1807  1.2375
  106SAPE   C3510908   5.830   3.329   3.376  0.5401  0.5985 -0.1726
  106SAPE   H5X10909   5.728   3.374   3.376  0.1887 -0.1820 -0.5537
  106SAPE   H5Y10910   5.915   3.395   3.348  2.3055 -2.6870 -3.3233
  106SAPE   C3610911   5.859   3.286   3.522  0.0861  0.3727  0.6365
  106SAPE   H6X10912   5.966   3.265   3.542 -0.1755 -1.3260  0.3771
  106SAPE   H6Y10913   5.802   3.193   3.542 -0.5031  0.9291  1.6399
  106SAPE   C3710914   5.809   3.395   3.621 -0.7811 -0.3171 -0.0927
  106SAPE   H7X10915   5.700   3.408   3.641 -1.1476 -1.4314 -1.2071
  106SAPE   H7Y10916   5.835   3.492   3.573  0.8488 -1.1412 -0.9625
  106SAPE   C3810917   5.870   3.396   3.759 -0.8268  0.0329  0.0836
  106SAPE   H8X10918   5.975   3.430   3.749 -0.6691 -0.8882 -1.6681
  106SAPE   H8Y10919   5.866   3.294   3.803 -0.8286 -0.4877 -1.0871
  106SAPE   C3910920   5.790   3.486   3.858  1.2501  0.5053  0.2172
  106SAPE   H9X10921   5.682   3.459   3.853  0.7817  2.2258  0.6046
  106SAPE   H9Y10922   5.794   3.594   3.832 -0.8879  0.4469 -0.5116
  106SAPE  C31010923   5.851   3.467   4.003  0.6428  0.3172  0.1279
  106SAPE  H10X10924   5.957   3.499   3.994  0.7578 -0.3709 -1.1884
  106SAPE  H10Y10925   5.858   3.358   4.026  0.3597  0.3332  0.2852
  106SAPE  C31110926   5.776   3.521   4.125  0.4917  0.0249  0.4467
  106SAPE  H11X10927   5.681   3.464   4.137 -1.4784  3.1502  0.9878
  106SAPE  H11Y10928   5.766   3.628   4.098 -0.8036 -0.2085 -0.0719
  106SAPE  C31210929   5.853   3.522   4.254 -0.8157  0.1420  0.5687
  106SAPE  H12X10930   5.950   3.573   4.241 -2.1279  3.3101  2.2670
  106SAPE  H12Y10931   5.867   3.413   4.271 -1.0394  0.0318  0.0761
  106SAPE  C31310932   5.769   3.588   4.369 -0.3506  0.3221  0.0431
  106SAPE  H13X10933   5.660   3.567   4.360  0.0982 -1.1658 -4.1420
  106SAPE  H13Y10934   5.781   3.698   4.354 -0.3380  0.5544  1.5980
  106SAPE  C31410935   5.835   3.558   4.505 -0.0214  0.0152 -0.4491
  106SAPE  H14X10936   5.941   3.532   4.485 -0.5621 -0.2712 -3.4494
  106SAPE  H14Y10937   5.798   3.453   4.518 -0.8572  0.1525 -1.5381
  106SAPE  C31510938   5.800   3.643   4.622 -0.0354  0.5031 -0.7546
  106SAPE  H15X10939   5.839   3.593   4.713  1.4904 -1.3845 -2.3550
  106SAPE  H15Y10940   5.690   3.643   4.638 -0.3348  1.2000 -2.5740
  106SAPE  C31610941   5.861   3.779   4.617  0.5521 -0.1277  0.4145
  106SAPE  H16X10942   5.797   3.838   4.687 -0.6489 -0.1054 -0.6692
  106SAPE  H16Y10943   5.852   3.814   4.512  0.8768 -2.2908 -0.3691
  106SAPE  C31710944   6.009   3.794   4.654 -0.3960 -0.4553  0.3766
  106SAPE  H17X10945   6.062   3.730   4.579  2.3665  0.6832  1.2354
  106SAPE  H17Y10946   6.029   3.746   4.752  0.4059  1.4002  1.1571
  106SAPE  C31810947   6.056   3.942   4.648 -0.0675  0.7673 -0.2066
  106SAPE  H18X10948   6.137   3.948   4.725 -0.8065 -3.4499  1.1667
  106SAPE  H18Y10949   5.980   4.013   4.686 -2.1352 -1.5842  0.3314
  106SAPE  H18Z10950   6.099   3.968   4.549  0.5413 -1.1707 -0.5008
  107SAPE     N10951   3.057   0.405   2.431 -0.1370 -0.1555 -0.1450
  107SAPE   HN110952   3.122   0.328   2.458  0.3371  0.0925 -0.5670
  107SAPE   HN210953   2.989   0.416   2.509 -0.2658 -0.9142 -0.1409
  107SAPE   HN310954   3.008   0.374   2.345  1.3332 -0.9925 -0.7296
  107SAPE   C1210955   3.124   0.531   2.397 -0.1720  0.1786  0.8198
  107SAPE  H12A10956   3.046   0.593   2.347 -0.7579 -1.9522 -1.0733
  107SAPE  H12B10957   3.203   0.509   2.322 -1.6803  0.0765 -0.8278
  107SAPE   C1110958   3.187   0.602   2.517 -0.1905  0.3642 -0.1666
  107SAPE  H11A10959   3.256   0.523   2.554  0.4615  0.7153 -0.6048
  107SAPE  H11B10960   3.107   0.623   2.591  0.6612  1.3593  0.5058
  107SAPE     P10961   3.298   0.819   2.601  0.1478 -0.1812  0.0627
  107SAPE   O1310962   3.431   0.874   2.560  0.4591  0.1658  0.3257
  107SAPE   O1410963   3.190   0.917   2.627 -0.0977  0.0826 -0.2227
  107SAPE   O1210964   3.257   0.720   2.489  0.0064  0.2242  0.0458
  107SAPE   O1110965   3.323   0.730   2.724 -0.1702 -0.2406 -0.0400
  107SAPE    C110966   3.280   0.752   2.857  0.7285 -1.0383 -0.3732
  107SAPE    HA10967   3.353   0.718   2.935 -1.5190  3.0858  4.0673
  107SAPE    HB10968   3.261   0.857   2.889 -1.3663 -1.3751 -0.3991
  107SAPE    C210969   3.148   0.675   2.887  0.3946  0.3008 -0.5480
  107SAPE    HS10970   3.081   0.687   2.799  0.1949  2.6803 -0.1499
  107SAPE   O2110971   3.075   0.725   2.999 -0.4973 -0.1969 -0.3077
  107SAPE   C2110972   3.010   0.835   2.974 -0.2776 -0.9437  1.2495
  107SAPE   O2210973   2.998   0.883   2.863 -0.2108 -0.3445  0.3013
  107SAPE   C2210974   2.948   0.909   3.090 -0.3166  0.4288  0.0376
  107SAPE   H2R10975   2.984   1.014   3.096 -0.2230  0.3002  2.2486
  107SAPE   H2S10976   2.841   0.923   3.063 -0.1583 -0.4223 -1.1507
  107SAPE    C310977   3.171   0.521   2.903 -0.3861  0.4397  0.3335
  107SAPE    HX10978   3.228   0.497   2.995 -0.2160 -0.4758 -0.0000
  107SAPE    HY10979   3.233   0.487   2.817 -0.0771 -0.7174  0.9905
  107SAPE   O3110980   3.047   0.453   2.913  0.2331 -0.0405  0.5670
  107SAPE   C3110981   2.973   0.430   2.805  0.2662 -0.5217  0.2883
  107SAPE   O3210982   3.008   0.439   2.690 -0.1236  0.2487 -0.5157
  107SAPE   C3210983   2.829   0.395   2.854  0.3951  0.5493  0.6095
  107SAPE   H2X10984   2.821   0.298   2.908 -0.8676 -0.7653 -1.7958
  107SAPE   H2Y10985   2.763   0.390   2.766  0.4281  0.9622  0.5610
  107SAPE   C2310986   2.981   0.840   3.223  1.1372 -0.4605 -0.3351
  107SAPE   H3R10987   3.091   0.849   3.241  1.3441 -0.3066 -1.5412
  107SAPE   H3S10988   2.952   0.733   3.216  1.5094 -0.4729 -2.3619
  107SAPE   C2410989   2.906   0.912   3.345 -0.5493 -0.0539 -0.4154
  107SAPE   H4R10990   2.797   0.896   3.328 -0.8028 -0.8152  1.6707
  107SAPE   H4S10991   2.927   1.020   3.334 -0.5348 -0.0474 -0.3203
  107SAPE   C2510992   2.955   0.853   3.474  0.1200  0.1246  0.4694
  107SAPE   H5R10993   3.055   0.805   3.472 -0.3658 -0.9422 -1.3931
  107SAPE   C2610994   2.891   0.857   3.594 -0.0741  0.5168 -0.2326
  107SAPE   H6R10995   2.941   0.807   3.678 -0.2259 -1.1269 -1.0688
  107SAPE   C2710996   2.754   0.916   3.622 -0.3477  0.0732 -0.1728
  107SAPE   H7R10997   2.705   0.914   3.522  1.3151  0.5182 -1.0388
  107SAPE   H7S10998   2.759   1.023   3.653 -2.0996  0.8004 -2.1601
  107SAPE   C2810999   2.675   0.833   3.721  0.4540  0.3135  0.4420
  107SAPE   H8R11000   2.602   0.771   3.666 -1.5463  1.5884  1.5616
  107SAPE   C2911001   2.661   0.857   3.856  0.0268 -0.0255  0.6618
  107SAPE   H9R11002   2.588   0.792   3.907  1.3869 -1.9018  0.3385
  107SAPE  C21011003   2.739   0.960   3.934  0.2851  0.3670 -0.8876
  107SAPE  H10R11004   2.679   0.962   4.028  0.3422 -4.8167 -0.4478
  107SAPE  H10S11005   2.743   1.064   3.894 -2.0940  0.5886 -0.6942
  107SAPE  C21111006   2.872   0.897   3.965  0.1740  0.1771 -0.5352
  107SAPE  H11R11007   2.946   0.891   3.884  0.8785 -0.6844  0.1451
  107SAPE  C21211008   2.929   0.846   4.080 -0.1046 -0.8819  0.1310
  107SAPE  H12R11009   3.038   0.837   4.082  0.0769  0.5042  3.4201
  107SAPE  C21311010   2.856   0.848   4.216 -0.3729  0.5860 -0.6747
  107SAPE  H13R11011   2.746   0.861   4.207 -0.6877  1.2825  2.6157
  107SAPE  H13S11012   2.891   0.939   4.271 -0.4721  0.5134 -0.4899
  107SAPE  C21411013   2.875   0.712   4.288  0.1031  0.5047  0.3991
  107SAPE  H14R11014   2.883   0.624   4.223  0.1197 -0.1144  1.2299
  107SAPE  C21511015   2.884   0.700   4.427 -0.2187 -0.6385 -0.5090
  107SAPE  H15R11016   2.914   0.600   4.460  0.6715 -0.2921 -0.2344
  107SAPE  C21611017   2.888   0.804   4.533  0.3112  0.0043  0.7915
  107SAPE  H16R11018   2.979   0.868   4.523 -0.1067  0.4676 -0.1962
  107SAPE  H16S11019   2.917   0.746   4.623  1.4436 -1.1557 -0.2793
  107SAPE  C21711020   2.760   0.890   4.558  0.6472  0.1611 -0.2834
  107SAPE  H17R11021   2.753   0.972   4.483 -0.1821  1.9062  1.6358
  107SAPE  H17S11022   2.767   0.944   4.654 -0.0487 -2.2342  1.1896
  107SAPE  C21811023   2.642   0.808   4.562  0.1370  0.1611 -1.1790
  107SAPE  H18R11024   2.670   0.726   4.631  0.4235  1.6043  0.4898
  107SAPE  H18S11025   2.616   0.762   4.465  3.0067  1.1536 -2.5224
  107SAPE  C21911026   2.509   0.863   4.630 -0.6204  0.1397  0.7343
  107SAPE  H19R11027   2.535   0.905   4.730  0.2874 -0.9306  0.9610
  107SAPE  H19S11028   2.437   0.780   4.644 -1.3230  0.6099  0.0215
  107SAPE  C22011029   2.442   0.963   4.536 -0.1315 -0.2408  0.3054
  107SAPE  H20R11030   2.361   1.017   4.589 -1.3619  1.0098 -2.6367
  107SAPE  H20S11031   2.408   0.920   4.439 -1.2181  0.2888  0.4444
  107SAPE  H20T11032   2.519   1.038   4.506 -1.2488  0.4917 -0.8119
  107SAPE   C3311033   2.790   0.515   2.947 -0.5032  0.4732  0.1004
  107SAPE   H3X11034   2.851   0.601   2.912  1.6697 -1.4185 -1.1025
  107SAPE   H3Y11035   2.815   0.495   3.053  1.3850 -0.9586 -0.5349
  107SAPE   C3411036   2.642   0.549   2.915 -0.1570  1.2170  0.3279
  107SAPE   H4X11037   2.564   0.474   2.941 -2.5225  3.6941  0.8574
  107SAPE   H4Y11038   2.638   0.564   2.805  1.2531  1.6074  0.3149
  107SAPE   C3511039   2.596   0.675   2.980  0.2779 -0.2790  0.3133
  107SAPE   H5X11040   2.486   0.687   2.964  0.5311 -0.7421 -2.2168
  107SAPE   H5Y11041   2.633   0.767   2.931 -0.7486 -1.3396 -2.6525
  107SAPE   C3611042   2.642   0.697   3.128 -0.8329  0.4069  0.1878
  107SAPE   H6X11043   2.606   0.793   3.172  0.8501  0.8045  0.7786
  107SAPE   H6Y11044   2.753   0.691   3.133 -0.5907  1.8013 -2.1789
  107SAPE   C3711045   2.577   0.590   3.222  0.8164  0.2303  0.2255
  107SAPE   H7X11046   2.582   0.486   3.183 -0.9595  0.7864 -1.6486
  107SAPE   H7Y11047   2.468   0.609   3.231  0.6260 -1.3582  1.7914
  107SAPE   C3811048   2.618   0.614   3.369 -0.3015 -0.0954 -0.2014
  107SAPE   H8X11049   2.627   0.718   3.406 -0.6518 -0.6478  1.5343
  107SAPE   H8Y11050   2.722   0.574   3.375  0.2151  0.5382 -3.1650
  107SAPE   C3911051   2.510   0.559   3.472  0.8123 -0.0516 -0.3836
  107SAPE   H9X11052   2.562   0.555   3.570 -0.3145 -0.8901  0.2018
  107SAPE   H9Y11053   2.483   0.455   3.442 -0.5030  0.3350 -0.6133
  107SAPE  C31011054   2.382   0.642   3.487  0.1314 -0.2843  0.5532
  107SAPE  H10X11055   2.334   0.649   3.387  0.2534  0.1816  0.5257
  107SAPE  H10Y11056   2.406   0.744   3.525  0.0886  0.7219 -1.9492
  107SAPE  C31111057   2.281   0.569   3.579 -0.0201 -0.4507  0.2545
  107SAPE  H11X11058   2.331   0.538   3.673 -0.0292 -0.9081  0.1097
  107SAPE  H11Y11059   2.248   0.476   3.528 -0.6220 -0.4741  0.6826
  107SAPE  C31211060   2.153   0.654   3.606  0.1480  0.5278 -0.1574
  107SAPE  H12X11061   2.134   0.713   3.514  0.6579  1.3140  0.2281
  107SAPE  H12Y11062   2.184   0.728   3.682  0.6521  1.0070 -0.8225
  107SAPE  C31311063   2.036   0.571   3.643  0.5963  0.9785  0.2876
  107SAPE  H13X11064   2.022   0.492   3.566 -0.1809 -0.4257  1.8065
  107SAPE  H13Y11065   1.942   0.627   3.659  0.0404 -0.0606  0.7020
  107SAPE  C31411066   2.062   0.505   3.779  0.5633 -0.3264  0.6772
  107SAPE  H14X11067   2.081   0.583   3.856  0.8594  0.8527 -0.5556
  107SAPE  H14Y11068   2.150   0.437   3.781  0.0513 -1.0558 -0.3800
  107SAPE  C31511069   1.948   0.419   3.838  0.2285 -0.6885  0.0537
  107SAPE  H15X11070   1.989   0.357   3.921  0.0808 -1.8125 -0.6886
  107SAPE  H15Y11071   1.914   0.350   3.758 -1.3669 -0.5446  0.5563
  107SAPE  C31611072   1.832   0.513   3.874 -0.5625  0.0636 -0.1996
  107SAPE  H16X11073   1.805   0.576   3.787  0.0895 -2.5386 -2.4466
  107SAPE  H16Y11074   1.858   0.570   3.965  1.1385  0.8709 -1.1410
  107SAPE  C31711075   1.701   0.451   3.915 -0.4484 -0.2297  0.6681
  107SAPE  H17X11076   1.711   0.411   4.018 -1.8837  0.8190  1.2437
  107SAPE  H17Y11077   1.673   0.361   3.855 -1.3182  1.1264 -1.0711
  107SAPE  C31811078   1.585   0.550   3.929 -0.2436  0.3719  0.1893
  107SAPE  H18X11079   1.483   0.505   3.932  0.9902 -2.7089 -0.7220
  107SAPE  H18Y11080   1.584   0.621   3.844 -1.7748 -0.5614 -0.6260
  107SAPE  H18Z11081   1.608   0.609   4.020  0.5718 -1.6627  1.3816
  108SAPE     N11082   0.488   1.517   2.478  0.3248  0.2502  0.1910
  108SAPE   HN111083   0.407   1.452   2.477 -1.0672  1.7876 -2.9767
  108SAPE   HN211084   0.450   1.599   2.427 -0.4955  2.2257  3.6116
  108SAPE   HN311085   0.577   1.475   2.446  0.8007  1.8138 -0.6323
  108SAPE   C1211086   0.493   1.582   2.615  0.4440 -0.3580  0.2871
  108SAPE  H12A11087   0.539   1.682   2.603 -1.1289  0.4976  1.0701
  108SAPE  H12B11088   0.547   1.512   2.681 -1.2907 -1.1018  0.9679
  108SAPE   C1111089   0.354   1.599   2.668 -0.8469 -0.3207  0.3352
  108SAPE  H11A11090   0.362   1.637   2.772 -1.1932  0.9967 -0.0926
  108SAPE  H11B11091   0.299   1.503   2.662  0.1262 -0.8529 -0.3422
  108SAPE     P11092   0.160   1.780   2.623 -0.2892  0.0845  0.2872
  108SAPE   O1311093   0.181   1.918   2.595 -0.4155  0.4605  0.3571
  108SAPE   O1411094   0.043   1.720   2.553  0.1408  0.1339  0.3241
  108SAPE   O1211095   0.291   1.696   2.584 -0.3314  0.2420 -0.5190
  108SAPE   O1111096   0.134   1.755   2.777  0.2242  0.0759  0.2575
  108SAPE    C111097   0.209   1.824   2.874 -0.2126  0.3121  0.2390
  108SAPE    HA11098   0.320   1.828   2.862 -0.0452  0.4213  1.6305
  108SAPE    HB11099   0.161   1.923   2.888 -3.6288 -1.3886  1.6515
  108SAPE    C211100   0.197   1.761   3.013 -0.1433 -0.4625  0.1997
  108SAPE    HS11101   0.256   1.668   3.016  1.0930  0.2923 -0.1528
  108SAPE   O2111102   0.061   1.729   3.035  0.0438  0.7279 -0.5044
  108SAPE   C2111103   0.022   1.608   3.011 -0.2474  0.6871 -0.5749
  108SAPE   O2211104   0.088   1.524   2.963 -0.3494  0.0555  0.1767
  108SAPE   C2211105  -0.113   1.583   3.069 -0.5496 -0.6070  0.3713
  108SAPE   H2R11106  -0.151   1.670   3.125 -0.1368 -0.3738  0.2912
  108SAPE   H2S11107  -0.177   1.565   2.980 -0.0016 -2.3919  0.2987
  108SAPE    C311108   0.248   1.867   3.116 -0.0792  0.8532  0.7079
  108SAPE    HX11109   0.168   1.942   3.133 -0.1234  1.4460 -1.7564
  108SAPE    HY11110   0.341   1.919   3.082 -0.2666  0.9537  0.3505
  108SAPE   O3111111   0.277   1.795   3.230 -0.4559 -0.4894 -0.1107
  108SAPE   C3111112   0.294   1.862   3.344  0.2171  0.1820  0.8926
  108SAPE   O3211113   0.313   1.983   3.352 -0.4158 -0.5202  0.5072
  108SAPE   C3211114   0.307   1.764   3.462  0.5549 -0.4199 -0.6776
  108SAPE   H2X11115   0.204   1.722   3.474  0.6598 -0.4766  0.0629
  108SAPE   H2Y11116   0.333   1.833   3.546  0.0710  0.8872 -1.5653
  108SAPE   C2311117  -0.115   1.449   3.138 -0.7137 -0.5214 -0.0903
  108SAPE   H3R11118  -0.038   1.383   3.093 -0.3109 -1.2800  1.6298
  108SAPE   H3S11119  -0.208   1.401   3.101 -0.5370 -0.2431 -0.9123
  108SAPE   C2411120  -0.119   1.455   3.297  0.2838  0.5582 -0.8939
  108SAPE   H4R11121  -0.145   1.352   3.332  1.6663  0.7218  0.7330
  108SAPE   H4S11122  -0.204   1.522   3.323  1.7791  1.3291  2.5074
  108SAPE   C2511123   0.008   1.506   3.364 -0.4572  0.1961 -0.2933
  108SAPE   H5R11124   0.069   1.588   3.323 -0.0815 -0.6452 -1.4697
  108SAPE   C2611125   0.060   1.460   3.481 -0.0292 -0.3666  0.0078
  108SAPE   H6R11126   0.158   1.491   3.519  0.6604 -1.1927 -1.0155
  108SAPE   C2711127   0.001   1.348   3.569  0.1777 -0.9893 -0.0890
  108SAPE   H7R11128   0.089   1.294   3.611 -0.2932 -1.0150  0.8914
  108SAPE   H7S11129  -0.047   1.269   3.509 -2.8803  1.0091 -0.4831
  108SAPE   C2811130  -0.098   1.403   3.680  0.3354  0.2052 -0.1761
  108SAPE   H8R11131  -0.194   1.431   3.635  0.3133  1.7984  0.7657
  108SAPE   C2911132  -0.082   1.430   3.810 -0.3194 -0.7246 -0.0594
  108SAPE   H9R11133  -0.159   1.477   3.872  0.7763 -0.7984  1.4202
  108SAPE  C21011134   0.034   1.385   3.890  0.5935  0.0716  0.9069
  108SAPE  H10R11135   0.094   1.311   3.832  0.8013  0.0385  1.1635
  108SAPE  H10S11136  -0.007   1.327   3.975 -0.7328  1.2620  1.1174
  108SAPE  C21111137   0.120   1.498   3.936 -0.1060 -0.2575  0.2241
  108SAPE  H11R11138   0.197   1.542   3.871  0.8322  1.9594  2.6513
  108SAPE  C21211139   0.094   1.559   4.050 -0.6467 -0.1399  0.8917
  108SAPE  H12R11140   0.157   1.644   4.079 -2.5602  1.1572  1.4415
  108SAPE  C21311141  -0.014   1.534   4.149  0.3583  0.2863  0.5063
  108SAPE  H13R11142   0.023   1.463   4.227 -0.9857 -1.7387 -0.6299
  108SAPE  H13S11143  -0.096   1.473   4.107  0.7207 -0.9086  1.4925
  108SAPE  C21411144  -0.077   1.658   4.213  0.2622  0.9566 -0.6766
  108SAPE  H14R11145  -0.182   1.685   4.191  0.2462  0.9302 -0.6348
  108SAPE  C21511146  -0.009   1.738   4.304 -0.1412  0.4191 -0.1109
  108SAPE  H15R11147  -0.052   1.826   4.353 -0.6877 -1.0305  2.1742
  108SAPE  C21611148   0.136   1.730   4.338 -0.4301  0.2591  0.0435
  108SAPE  H16R11149   0.176   1.632   4.305 -4.9338 -1.0553 -2.3336
  108SAPE  H16S11150   0.130   1.735   4.449 -0.5456  2.8896 -0.0370
  108SAPE  C21711151   0.222   1.857   4.305  0.4216 -0.1414 -0.3313
  108SAPE  H17R11152   0.175   1.951   4.341  0.0875 -0.6677  0.6385
  108SAPE  H17S11153   0.224   1.872   4.195 -0.0354 -1.9117 -0.6253
  108SAPE  C21811154   0.365   1.855   4.365 -0.5684  0.1091 -0.0982
  108SAPE  H18R11155   0.429   1.928   4.312  1.1642 -0.8274  0.6442
  108SAPE  H18S11156   0.409   1.761   4.326  1.4872  0.8624  0.2824
  108SAPE  C21911157   0.376   1.888   4.507 -0.1872  0.0312 -0.0019
  108SAPE  H19R11158   0.482   1.888   4.540  0.4022  0.7866 -1.7683
  108SAPE  H19S11159   0.334   1.796   4.553 -0.1495 -1.2725 -2.4224
  108SAPE  C22011160   0.297   2.006   4.564  0.5098  0.6639 -0.5058
  108SAPE  H20R11161   0.201   2.026   4.511  0.5953  2.0251 -0.1849
  108SAPE  H20S11162   0.354   2.100   4.552  0.3813  0.5875 -1.8154
  108SAPE  H20T11163   0.266   2.002   4.671 -0.5169 -0.6458 -0.8239
  108SAPE   C3311164   0.407   1.650   3.457 -0.0003 -0.6180  0.0374
  108SAPE   H3X11165   0.506   1.698   3.443  0.4421  0.2704  4.6947
  108SAPE   H3Y11166   0.386   1.585   3.369 -2.6576 -0.6829  0.6190
  108SAPE   C3411167   0.419   1.566   3.584  0.5266  0.5438 -0.2731
  108SAPE   H4X11168   0.481   1.476   3.566 -0.3267 -0.1419  0.1231
  108SAPE   H4Y11169   0.325   1.532   3.632  1.6376  0.2170  1.8340
  108SAPE   C3511170   0.496   1.645   3.695 -0.4716 -0.8038  0.5498
  108SAPE   H5X11171   0.597   1.665   3.653 -0.6722  0.9411  0.8061
  108SAPE   H5Y11172   0.454   1.740   3.735  1.8868  0.6408 -0.1927
  108SAPE   C3611173   0.508   1.564   3.827 -0.9881 -0.0864 -0.4237
  108SAPE   H6X11174   0.547   1.462   3.801  1.0730  1.1534 -2.6258
  108SAPE   H6Y11175   0.409   1.549   3.874  0.6334 -1.3563  2.9602
  108SAPE   C3711176   0.596   1.644   3.928 -0.1420 -0.2500  0.3133
  108SAPE   H7X11177   0.551   1.745   3.932  0.7493  0.1202  1.2895
  108SAPE   H7Y11178   0.699   1.663   3.894 -0.2114  0.6497  0.5760
  108SAPE   C3811179   0.605   1.586   4.070 -0.2615  1.2137 -0.2373
  108SAPE   H8X11180   0.672   1.498   4.069 -1.1146  0.5525  0.0012
  108SAPE   H8Y11181   0.506   1.557   4.111  0.0818 -0.0696 -0.3033
  108SAPE   C3911182   0.667   1.688   4.170  0.3141 -0.8582 -0.6116
  108SAPE   H9X11183   0.621   1.789   4.166 -1.7415 -1.7616 -1.0610
  108SAPE   H9Y11184   0.768   1.699   4.125 -0.2427 -1.2929 -2.0438
  108SAPE  C31011185   0.666   1.626   4.316  0.0657  0.0406  0.0839
  108SAPE  H10X11186   0.695   1.519   4.316 -2.6986 -0.7955  0.5322
  108SAPE  H10Y11187   0.566   1.611   4.361 -0.1051 -0.6054 -0.4906
  108SAPE  C31111188   0.767   1.684   4.417 -0.5298  0.1350  0.3155
  108SAPE  H11X11189   0.710   1.766   4.465 -0.2017 -0.6939  2.1909
  108SAPE  H11Y11190   0.863   1.719   4.372 -1.2819  3.6227  1.1389
  108SAPE  C31211191   0.800   1.587   4.532 -0.1394  0.2871 -0.1615
  108SAPE  H12X11192   0.883   1.515   4.513  0.8743  1.1844  0.6755
  108SAPE  H12Y11193   0.715   1.520   4.555  0.1899 -0.4013 -0.8891
  108SAPE  C31311194   0.830   1.647   4.668 -0.5213  0.4716 -0.5571
  108SAPE  H13X11195   0.748   1.717   4.697  0.0128 -0.1186  2.8468
  108SAPE  H13Y11196   0.921   1.712   4.670 -0.1136 -0.1111  0.4770
  108SAPE  C31411197   0.830   1.538   4.777 -0.0740 -0.0179  0.2370
  108SAPE  H14X11198   0.865   1.436   4.751 -0.7795  0.3207 -2.3221
  108SAPE  H14Y11199   0.726   1.508   4.804 -0.3246  1.1841  0.7069
  108SAPE  C31511200   0.892   1.592   4.912 -0.1830  0.1098 -0.1318
  108SAPE  H15X11201   0.856   1.697   4.919 -0.8992 -0.1093 -0.4515
  108SAPE  H15Y11202   1.002   1.589   4.902 -0.1196 -2.6351  0.5338
  108SAPE  C31611203   0.853   1.500   5.034 -0.2978 -0.0186 -0.1755
  108SAPE  H16X11204   0.917   1.409   5.025  0.0688  0.1766  0.4427
  108SAPE  H16Y11205   0.746   1.470   5.023 -0.3638  1.0115 -3.9681
  108SAPE  C31711206   0.874   1.559   5.169 -0.0360 -0.1108  0.0155
  108SAPE  H17X11207   0.984   1.575   5.165  0.2011 -1.5385  0.2825
  108SAPE  H17Y11208   0.837   1.491   5.248 -0.2465  0.0379  0.0451
  108SAPE  C31811209   0.798   1.693   5.199  0.6005  0.9649  0.5597
  108SAPE  H18X11210   0.801   1.727   5.305  0.2857  4.2056 -0.3565
  108SAPE  H18Y11211   0.691   1.678   5.173  0.6312  0.5782  0.6482
  108SAPE  H18Z11212   0.844   1.778   5.144 -0.0672  0.1294 -1.3851
  109SAPE     N11213   5.864   0.868   2.977 -0.2105  0.2118 -0.0752
  109SAPE   HN111214   5.808   0.836   3.058 -1.0488  0.7572 -0.4296
  109SAPE   HN211215   5.886   0.970   2.975  1.3204 -0.1076 -1.2756
  109SAPE   HN311216   5.814   0.840   2.890 -0.9757  0.1904  0.3598
  109SAPE   C1211217   5.993   0.796   2.972 -0.5671 -0.2558 -0.4557
  109SAPE  H12A11218   6.069   0.841   3.039  0.1473  0.3262 -1.6181
  109SAPE  H12B11219   6.024   0.809   2.866 -2.1516  0.7645 -0.8284
  109SAPE   C1111220   5.973   0.646   3.013 -0.6406 -0.2616  0.0309
  109SAPE  H11A11221   5.937   0.644   3.118  0.8709 -1.0489  0.5672
  109SAPE  H11B11222   6.076   0.611   3.032 -0.8759 -0.5095  0.8626
  109SAPE     P11223   5.968   0.505   2.811 -0.3036 -0.1696  0.2395
  109SAPE   O1311224   5.878   0.426   2.722 -0.4362 -0.9585 -0.4729
  109SAPE   O1411225   6.058   0.602   2.749  0.5960 -0.3782 -0.4190
  109SAPE   O1211226   5.894   0.572   2.924 -0.1029 -0.7101 -0.7427
  109SAPE   O1111227   6.050   0.399   2.901  0.1342  0.3282 -0.3340
  109SAPE    C111228   5.974   0.287   2.951 -0.3796  0.4307  0.1727
  109SAPE    HA11229   5.868   0.273   2.921 -0.2394 -1.5640  0.4635
  109SAPE    HB11230   6.019   0.193   2.913 -0.2454  0.7595 -0.4923
  109SAPE    C211231   5.964   0.274   3.102 -0.2288 -0.3526  0.1707
  109SAPE    HS11232   5.908   0.180   3.121  0.3950 -0.6413  0.6256
  109SAPE   O2111233   5.901   0.387   3.172  0.7691 -0.3173 -0.0203
  109SAPE   C2111234   5.766   0.372   3.173  0.5629 -0.4761  0.4159
  109SAPE   O2211235   5.705   0.281   3.117 -0.1066  0.5992 -0.0365
  109SAPE   C2211236   5.710   0.481   3.265 -0.1538  0.1433  0.0141
  109SAPE   H2R11237   5.789   0.541   3.315 -0.2531 -0.6655  1.2046
  109SAPE   H2S11238   5.644   0.544   3.202 -1.6588 -1.5332 -0.1658
  109SAPE    C311239   6.110   0.246   3.152  0.2549 -0.4368  0.3515
  109SAPE    HX11240   6.167   0.325   3.099 -0.6095  0.9041  1.3394
  109SAPE    HY11241   6.143   0.146   3.116 -2.3520 -0.7168 -1.4997
  109SAPE   O3111242   6.121   0.263   3.296 -0.2742 -0.0748  0.1025
  109SAPE   C3111243   6.140   0.158   3.370 -1.1723  1.0702 -0.0465
  109SAPE   O3211244   6.179   0.050   3.329  0.6020 -0.1771  0.2919
  109SAPE   C3211245   6.108   0.198   3.513  0.9180  0.6207 -0.0085
  109SAPE   H2X11246   5.998   0.211   3.516  0.9950  1.4812 -0.6096
  109SAPE   H2Y11247   6.154   0.293   3.546 -4.3221  2.6781  2.4378
  109SAPE   C2311248   5.614   0.417   3.367 -0.0600 -0.3123  0.1827
  109SAPE   H3R11249   5.547   0.342   3.320  0.5661 -2.8081  2.9266
  109SAPE   H3S11250   5.547   0.497   3.403 -1.4957 -0.8445 -1.1825
  109SAPE   C2411251   5.691   0.341   3.482  0.3328 -0.4089  0.1636
  109SAPE   H4R11252   5.779   0.404   3.507 -0.4683  0.5355  0.6847
  109SAPE   H4S11253   5.730   0.247   3.437  1.2764 -0.3175  0.7692
  109SAPE   C2511254   5.602   0.309   3.599 -0.1743 -0.3490  0.1984
  109SAPE   H5R11255   5.494   0.299   3.580 -0.6092  0.7792  1.8845
  109SAPE   C2611256   5.650   0.312   3.725 -0.3961 -0.9105 -0.1466
  109SAPE   H6R11257   5.574   0.291   3.802  1.1634 -0.2380  1.6570
  109SAPE   C2711258   5.794   0.326   3.761 -0.3557  0.8589 -0.3558
  109SAPE   H7R11259   5.847   0.394   3.690  0.2751 -0.8775 -1.6285
  109SAPE   H7S11260   5.839   0.224   3.764  0.2434  1.0775 -1.2236
  109SAPE   C2811261   5.810   0.389   3.902 -0.1149 -0.4557  0.1381
  109SAPE   H8R11262   5.720   0.369   3.963 -2.2501 -0.5134 -2.8152
  109SAPE   C2911263   5.912   0.463   3.941 -0.1475  0.2719 -0.0226
  109SAPE   H9R11264   5.899   0.511   4.039  1.8528 -1.9166  1.4165
  109SAPE  C21011265   6.035   0.492   3.857 -0.6144 -0.2535 -0.1271
  109SAPE  H10R11266   6.033   0.602   3.841  0.3859  0.3288  3.0928
  109SAPE  H10S11267   6.032   0.452   3.753  0.0428  0.4612 -0.4279
  109SAPE  C21111268   6.156   0.440   3.930  0.2392 -0.4519 -0.2816
  109SAPE  H11R11269   6.144   0.386   4.025  3.1878 -1.1050 -0.1755
  109SAPE  C21211270   6.281   0.444   3.892 -0.0867 -0.8378  0.3245
  109SAPE  H12R11271   6.363   0.397   3.949 -0.0514 -1.6402 -0.3526
  109SAPE  C21311272   6.321   0.501   3.755  0.6298  0.5260  0.5992
  109SAPE  H13R11273   6.345   0.609   3.768 -0.8895  1.1365 -1.1645
  109SAPE  H13S11274   6.244   0.495   3.675  1.1631 -0.1726  0.1238
  109SAPE  C21411275   6.448   0.433   3.709 -0.2376 -0.2331 -0.0654
  109SAPE  H14R11276   6.459   0.332   3.752  1.5774  0.9120  2.4137
  109SAPE  C21511277   6.530   0.474   3.608  0.5515  0.4654 -0.4711
  109SAPE  H15R11278   6.615   0.410   3.581 -0.3792 -0.2073 -1.9094
  109SAPE  C21611279   6.539   0.593   3.521  0.2464 -0.0497  0.1732
  109SAPE  H16R11280   6.637   0.644   3.534  0.1436  0.4493 -0.9742
  109SAPE  H16S11281   6.456   0.660   3.553 -0.7526 -0.5493 -1.2628
  109SAPE  C21711282   6.522   0.565   3.374  0.2496 -0.1948  0.1630
  109SAPE  H17R11283   6.582   0.479   3.337  2.7306  0.8379  1.4758
  109SAPE  H17S11284   6.553   0.657   3.320 -2.1791  0.3819 -0.3615
  109SAPE  C21811285   6.378   0.538   3.340  0.3011 -0.5639 -0.6779
  109SAPE  H18R11286   6.307   0.604   3.392  0.2405 -1.3298  0.2406
  109SAPE  H18S11287   6.327   0.444   3.368 -0.1890 -0.1310 -0.1255
  109SAPE  C21911288   6.355   0.539   3.185  0.5608  0.2913 -0.6748
  109SAPE  H19R11289   6.248   0.511   3.173  1.2048 -2.0042 -1.7183
  109SAPE  H19S11290   6.411   0.451   3.146  0.4900  0.5728 -1.4352
  109SAPE  C22011291   6.395   0.660   3.099 -0.1834 -0.4666 -0.1879
  109SAPE  H20R11292   6.326   0.744   3.121 -1.1382 -0.7145 -1.9932
  109SAPE  H20S11293   6.369   0.647   2.991  0.9191  2.0535 -0.8284
  109SAPE  H20T11294   6.503   0.683   3.109 -0.8015  1.7459  2.5278
  109SAPE   C3311295   6.141   0.075   3.606 -0.0577  0.5959 -0.2024
  109SAPE   H3X11296   6.242   0.032   3.588 -0.1501  0.5324 -0.5921
  109SAPE   H3Y11297   6.067  -0.008   3.600  1.9637 -1.3782  0.7183
  109SAPE   C3411298   6.160   0.120   3.753  0.4247  0.3126  0.0620
  109SAPE   H4X11299   6.059   0.153   3.785 -0.0173 -1.1721  0.2582
  109SAPE   H4Y11300   6.222   0.212   3.756 -1.2322  1.5334 -1.2523
  109SAPE   C3511301   6.211   0.019   3.851 -0.1925 -0.4153  0.6145
  109SAPE   H5X11302   6.313  -0.016   3.825  0.4231  2.4698 -1.3658
  109SAPE   H5Y11303   6.152  -0.075   3.847 -1.3282  0.3151 -0.9894
  109SAPE   C3611304   6.215   0.074   3.989 -0.5693 -0.1983 -0.2808
  109SAPE   H6X11305   6.276   0.167   3.992 -2.2116  1.0137 -1.8684
  109SAPE   H6Y11306   6.277  -0.002   4.041 -1.8379 -0.0733  1.5249
  109SAPE   C3711307   6.076   0.088   4.057 -0.3352  1.3945 -0.1157
  109SAPE   H7X11308   6.018  -0.004   4.038  3.0839 -1.6081  2.6079
  109SAPE   H7Y11309   6.026   0.178   4.015 -0.5622  1.1682 -0.3279
  109SAPE   C3811310   6.075   0.101   4.209  0.4988 -0.2004  0.4113
  109SAPE   H8X11311   6.124   0.198   4.234  1.6969 -0.1807 -1.7698
  109SAPE   H8Y11312   6.142   0.021   4.248  1.7068 -0.5729 -2.1649
  109SAPE   C3911313   5.935   0.110   4.261 -0.6362 -0.7499 -0.0542
  109SAPE   H9X11314   5.890   0.013   4.232 -2.5975  0.3370 -0.8931
  109SAPE   H9Y11315   5.880   0.198   4.220  1.4847  2.1026  2.7228
  109SAPE  C31011316   5.930   0.140   4.417  0.4838  0.9343  0.3688
  109SAPE  H10X11317   5.977   0.239   4.434 -0.2356  1.5285 -0.9480
  109SAPE  H10Y11318   6.000   0.063   4.455 -1.9701 -1.5147  0.2505
  109SAPE  C31111319   5.789   0.131   4.488 -0.3732 -0.4548 -0.6264
  109SAPE  H11X11320   5.725   0.206   4.439  1.8878  0.8718 -1.7115
  109SAPE  H11Y11321   5.811   0.148   4.596  0.2240 -0.2037 -0.7827
  109SAPE  C31211322   5.727  -0.009   4.482 -0.1189 -0.2369  0.1658
  109SAPE  H12X11323   5.795  -0.087   4.520  0.4695  0.4279  0.5035
  109SAPE  H12Y11324   5.709  -0.039   4.376 -2.6051 -0.4783  0.5915
  109SAPE  C31311325   5.590  -0.022   4.557 -0.0739 -1.0194 -0.2098
  109SAPE  H13X11326   5.590  -0.028   4.668 -0.9558  0.3265 -0.1143
  109SAPE  H13Y11327   5.536  -0.111   4.518 -1.3816 -0.8112  1.0403
  109SAPE  C31411328   5.499   0.104   4.525 -0.4052  0.8437 -0.6825
  109SAPE  H14X11329   5.507   0.115   4.415  2.0648  2.8704 -0.3983
  109SAPE  H14Y11330   5.526   0.205   4.563  0.4379  0.7413 -0.9883
  109SAPE  C31511331   5.351   0.068   4.560  0.6636 -0.0391  0.0891
  109SAPE  H15X11332   5.332  -0.022   4.499  0.9680 -0.3695  0.4750
  109SAPE  H15Y11333   5.285   0.154   4.536  1.1168  0.9058  2.0238
  109SAPE  C31611334   5.335   0.020   4.699 -0.4808  0.6000 -0.0246
  109SAPE  H16X11335   5.398   0.081   4.768 -1.5153  1.0230  0.5782
  109SAPE  H16Y11336   5.368  -0.086   4.704 -1.9478  0.1040 -0.2614
  109SAPE  C31711337   5.190   0.013   4.744  0.6560 -0.7357  0.1234
  109SAPE  H17X11338   5.122  -0.046   4.679 -0.5323  0.7336 -0.0163
  109SAPE  H17Y11339   5.145   0.115   4.747  0.4954 -0.7687 -0.8798
  109SAPE  C31811340   5.170  -0.048   4.890  0.7556 -0.7014 -0.1139
  109SAPE  H18X11341   5.070  -0.025   4.934  0.4153 -1.6464 -0.3732
  109SAPE  H18Y11342   5.246  -0.012   4.963 -0.0359  0.0203  0.3743
  109SAPE  H18Z11343   5.169  -0.159   4.888 -0.0280 -0.7616  1.6922
  110SAPE     N11344   2.357   4.173   2.651 -0.4752 -0.2124 -0.2563
  110SAPE   HN111345   2.434   4.106   2.633  0.6716  0.6746  1.1381
  110SAPE   HN211346   2.347   4.234   2.567 -0.9809 -0.7340 -0.5820
  110SAPE   HN311347   2.406   4.218   2.731 -0.8615 -0.1348 -0.0606
  110SAPE   C1211348   2.221   4.107   2.689 -0.2010  0.0325 -0.2884
  110SAPE  H12A11349   2.142   4.182   2.670 -1.0226 -0.6997  0.1664
  110SAPE  H12B11350   2.224   4.081   2.797 -0.5956 -0.1529 -0.3221
  110SAPE   C1111351   2.211   3.977   2.603  0.5279 -0.4386 -0.2671
  110SAPE  H11A11352   2.210   4.004   2.496  0.9020 -0.8299 -0.3727
  110SAPE  H11B11353   2.115   3.932   2.638  0.8396  0.9428  2.7329
  110SAPE     P11354   2.298   3.744   2.666 -0.2423 -0.1358 -0.0722
  110SAPE   O1311355   2.185   3.702   2.584  0.7216 -0.3250 -0.0892
  110SAPE   O1411356   2.426   3.668   2.662 -0.0560  0.0618 -0.0320
  110SAPE   O1211357   2.327   3.897   2.619  0.2304  0.2544  0.2435
  110SAPE   O1111358   2.253   3.753   2.818  0.0642  0.7234  0.0137
  110SAPE    C111359   2.347   3.794   2.914 -0.3830 -0.2333  0.0390
  110SAPE    HA11360   2.429   3.719   2.913 -1.3328 -1.3235  1.0586
  110SAPE    HB11361   2.386   3.895   2.886  0.0655 -0.4145  0.0031
  110SAPE    C211362   2.300   3.792   3.058  0.3139 -0.5024  0.7218
  110SAPE    HS11363   2.254   3.692   3.074 -0.1629 -0.2807  0.7777
  110SAPE   O2111364   2.209   3.901   3.070  0.4510  0.0080 -0.2064
  110SAPE   C2111365   2.113   3.871   3.158 -0.6185 -0.3106 -0.2089
  110SAPE   O2211366   2.096   3.772   3.223  0.6760  0.4807  0.3661
  110SAPE   C2211367   2.018   3.986   3.154 -0.1221 -0.4749 -0.0106
  110SAPE   H2R11368   2.058   4.076   3.102  1.1170 -0.9017  0.1729
  110SAPE   H2S11369   1.924   3.958   3.101 -0.3225 -1.1358  0.6789
  110SAPE    C311370   2.415   3.799   3.161 -0.5153 -0.0277  0.1881
  110SAPE    HX11371   2.488   3.720   3.132  1.1273  2.3795 -2.8344
  110SAPE    HY11372   2.476   3.891   3.148 -0.2316 -0.4340 -1.5476
  110SAPE   O3111373   2.362   3.790   3.296  0.1449  0.5904 -0.2255
  110SAPE   C3111374   2.332   3.671   3.345  0.9736 -0.1807  0.1012
  110SAPE   O3211375   2.327   3.569   3.281  0.7812  0.5546 -0.1404
  110SAPE   C3211376   2.308   3.684   3.497 -0.2154  0.0151  0.5329
  110SAPE   H2X11377   2.203   3.720   3.493 -0.7122 -1.4507 -0.7859
  110SAPE   H2Y11378   2.375   3.763   3.537 -0.9835  1.4676 -0.9198
  110SAPE   C2311379   1.967   4.017   3.296 -0.2962  0.1359  0.8045
  110SAPE   H3R11380   2.060   4.032   3.355  0.8938  0.0662 -0.9476
  110SAPE   H3S11381   1.911   3.930   3.336  1.1335 -0.9994  0.4439
  110SAPE   C2411382   1.880   4.137   3.313  0.0614  0.4210  0.1102
  110SAPE   H4R11383   1.833   4.130   3.414 -0.2528  1.9024  0.0984
  110SAPE   H4S11384   1.797   4.120   3.241 -1.0420  0.1854  1.3922
  110SAPE   C2511385   1.953   4.266   3.292  0.1139 -0.6937  0.2002
  110SAPE   H5R11386   1.993   4.292   3.192 -0.9146  1.4322  0.2684
  110SAPE   C2611387   1.971   4.356   3.393 -0.2919 -0.3245 -1.4020
  110SAPE   H6R11388   1.999   4.461   3.373 -0.9873  0.1457 -0.0273
  110SAPE   C2711389   1.920   4.344   3.536  0.4580  0.5871  0.3069
  110SAPE   H7R11390   1.809   4.333   3.535  0.6262 -1.8091 -2.1679
  110SAPE   H7S11391   1.939   4.447   3.573  1.2385  0.2865  0.7633
  110SAPE   C2811392   1.985   4.244   3.624  0.4673  0.4813  0.1695
  110SAPE   H8R11393   1.998   4.145   3.578  2.6698  1.3871 -1.3215
  110SAPE   C2911394   2.022   4.268   3.749  0.5004  0.5761  0.7399
  110SAPE   H9R11395   2.072   4.191   3.809 -1.0059  1.3767  3.2200
  110SAPE  C21011396   2.023   4.408   3.821  0.9997 -0.0347  0.3390
  110SAPE  H10R11397   2.042   4.383   3.927  0.5091 -0.1623  0.4025
  110SAPE  H10S11398   1.925   4.460   3.824  1.0925  0.1003  1.6237
  110SAPE  C21111399   2.135   4.486   3.763  0.1583 -0.3458  0.2359
  110SAPE  H11R11400   2.175   4.448   3.668 -0.9399 -2.2527  0.4992
  110SAPE  C21211401   2.186   4.595   3.820 -0.4971 -0.3068 -1.2948
  110SAPE  H12R11402   2.263   4.656   3.772 -0.8519 -0.5125 -2.1581
  110SAPE  C21311403   2.136   4.662   3.952 -0.1024 -0.3349  0.0076
  110SAPE  H13R11404   2.206   4.663   4.038 -0.1640  1.5458  0.0851
  110SAPE  H13S11405   2.046   4.603   3.980 -0.6438  0.7334  0.6169
  110SAPE  C21411406   2.080   4.808   3.935 -0.0451  0.4485  0.1055
  110SAPE  H14R11407   2.073   4.838   3.830  2.7130 -3.2327 -1.3757
  110SAPE  C21511408   2.041   4.883   4.037  0.3140 -0.3324  0.5639
  110SAPE  H15R11409   2.017   4.985   4.004 -4.1960 -0.6629  2.2285
  110SAPE  C21611410   2.026   4.852   4.183 -0.3019 -0.3090  0.1070
  110SAPE  H16R11411   2.057   4.750   4.215 -0.4695 -0.6171 -0.6799
  110SAPE  H16S11412   1.918   4.865   4.204 -0.0624  3.6760 -0.3451
  110SAPE  C21711413   2.108   4.945   4.266 -0.2302 -0.0321 -0.0230
  110SAPE  H17R11414   2.059   5.045   4.272  0.2049  0.1075  2.0340
  110SAPE  H17S11415   2.214   4.955   4.236 -0.5645 -1.2900 -1.7475
  110SAPE  C21811416   2.102   4.898   4.408 -0.2872  0.3768  0.2204
  110SAPE  H18R11417   2.164   4.810   4.436  0.9143  0.8793 -0.7486
  110SAPE  H18S11418   1.999   4.863   4.428  0.0360 -1.0677 -0.5334
  110SAPE  C21911419   2.148   5.001   4.507 -0.6225 -0.1192 -0.1827
  110SAPE  H19R11420   2.095   5.099   4.504 -1.0739 -0.3161  0.9039
  110SAPE  H19S11421   2.257   5.016   4.498 -0.3998 -0.5576  1.4693
  110SAPE  C22011422   2.132   4.960   4.657  0.7293  0.3478 -0.2818
  110SAPE  H20R11423   2.131   5.049   4.723  2.0709 -0.0394  0.3106
  110SAPE  H20S11424   2.224   4.902   4.683  0.5588  0.1138 -0.1919
  110SAPE  H20T11425   2.054   4.886   4.684  1.0307  0.5344  1.1893
  110SAPE   C3311426   2.316   3.549   3.561  0.3091 -0.1470 -0.0937
  110SAPE   H3X11427   2.413   3.499   3.540  0.1201 -0.2242 -0.8403
  110SAPE   H3Y11428   2.252   3.479   3.502  0.8048  0.8140 -1.8630
  110SAPE   C3411429   2.263   3.544   3.706 -0.8035 -0.2290  0.8076
  110SAPE   H4X11430   2.267   3.439   3.740  0.7936 -0.9714 -1.4390
  110SAPE   H4Y11431   2.157   3.577   3.701 -0.4415  0.9920  0.8698
  110SAPE   C3511432   2.353   3.640   3.788 -0.5846  0.0462  0.9647
  110SAPE   H5X11433   2.317   3.744   3.770 -0.5417 -0.0938 -0.0314
  110SAPE   H5Y11434   2.459   3.628   3.757 -0.7243  1.1549 -0.0478
  110SAPE   C3611435   2.361   3.605   3.934 -0.0926  0.2946  0.9163
  110SAPE   H6X11436   2.379   3.495   3.939 -1.1013  0.0421 -0.4465
  110SAPE   H6Y11437   2.258   3.620   3.972  0.3335 -0.4734  2.4598
  110SAPE   C3711438   2.460   3.687   4.023 -0.4454 -0.3192 -0.1106
  110SAPE   H7X11439   2.432   3.794   4.018 -1.2188 -0.4226  1.3879
  110SAPE   H7Y11440   2.560   3.683   3.975 -0.1628  3.2456 -0.1103
  110SAPE   C3811441   2.464   3.647   4.171  0.3935 -0.2424  0.2269
  110SAPE   H8X11442   2.539   3.705   4.230 -2.0916  1.4154  2.0209
  110SAPE   H8Y11443   2.487   3.539   4.178  1.5278  0.0132  0.6600
  110SAPE   C3911444   2.327   3.674   4.245  0.0880 -0.1966  0.7253
  110SAPE   H9X11445   2.252   3.606   4.197 -1.6213  2.6473 -0.9294
  110SAPE   H9Y11446   2.282   3.775   4.238 -1.5806 -0.9150  0.6076
  110SAPE  C31011447   2.326   3.627   4.394 -0.2170  1.2215 -0.2487
  110SAPE  H10X11448   2.331   3.517   4.405 -0.1663  1.3810  1.7423
  110SAPE  H10Y11449   2.229   3.655   4.439  0.3150  0.4436  1.4627
  110SAPE  C31111450   2.431   3.693   4.478  0.0617 -0.1062 -0.6026
  110SAPE  H11X11451   2.422   3.799   4.447 -1.0528  0.3125  1.0082
  110SAPE  H11Y11452   2.532   3.658   4.447 -0.2322 -0.0878 -1.6228
  110SAPE  C31211453   2.406   3.677   4.631  0.0880 -0.1919  0.5122
  110SAPE  H12X11454   2.307   3.726   4.649  0.7435  1.3978  0.0028
  110SAPE  H12Y11455   2.479   3.744   4.681 -0.3351  0.2288  0.5807
  110SAPE  C31311456   2.439   3.538   4.676  0.4551  0.5543  0.0738
  110SAPE  H13X11457   2.546   3.515   4.660  0.2542 -0.5640  0.1966
  110SAPE  H13Y11458   2.388   3.461   4.614  2.3660 -1.1382  0.5139
  110SAPE  C31411459   2.395   3.531   4.827 -0.3930  0.3718 -0.2776
  110SAPE  H14X11460   2.295   3.578   4.836  1.2677  3.9760  1.0659
  110SAPE  H14Y11461   2.477   3.586   4.878  0.6349 -1.5244  0.2198
  110SAPE  C31511462   2.397   3.385   4.881 -0.6528  0.0298 -0.6069
  110SAPE  H15X11463   2.505   3.366   4.899 -0.2168  1.4634 -1.5518
  110SAPE  H15Y11464   2.354   3.315   4.807 -0.2560  0.2105 -1.0117
  110SAPE  C31611465   2.334   3.387   5.011  0.5792  0.0213 -0.1524
  110SAPE  H16X11466   2.226   3.410   5.005  0.2520 -1.2935  0.4432
  110SAPE  H16Y11467   2.374   3.465   5.080  0.2023 -0.6756  0.8660
  110SAPE  C31711468   2.337   3.259   5.078  0.5590  1.1796 -0.7363
  110SAPE  H17X11469   2.444   3.237   5.100  0.2330  1.0905  0.9234
  110SAPE  H17Y11470   2.294   3.176   5.020 -1.5796  1.3793  0.4686
  110SAPE  C31811471   2.264   3.256   5.221 -0.6697 -0.3084 -0.1685
  110SAPE  H18X11472   2.299   3.171   5.283 -1.5933 -1.2267 -0.8674
  110SAPE  H18Y11473   2.154   3.249   5.206 -0.8349 -2.0195  1.4307
  110SAPE  H18Z11474   2.278   3.350   5.277 -0.1690  1.2808 -2.7803
  111SAPE     N11475   3.385   5.000   2.827 -0.0565 -0.4998  0.0285
  111SAPE   HN111476   3.344   4.905   2.814  0.9959 -0.8124 -1.3094
  111SAPE   HN211477   3.320   5.067   2.780  2.2348  0.4643 -1.9893
  111SAPE   HN311478   3.477   4.997   2.778 -0.0471 -0.4987  0.0469
  111SAPE   C1211479   3.392   5.046   2.972 -0.9473 -0.6703 -0.5545
  111SAPE  H12A11480   3.462   5.133   2.969 -0.3573 -1.1585 -1.8128
  111SAPE  H12B11481   3.447   4.966   3.027  1.4312  0.6679 -0.8193
  111SAPE   C1111482   3.255   5.067   3.032 -0.3219 -0.3815 -0.7834
  111SAPE  H11A11483   3.268   5.066   3.142 -1.6835 -1.3093 -0.6076
  111SAPE  H11B11484   3.180   4.987   3.012  0.2289 -1.1052 -0.0120
  111SAPE     P11485   3.091   5.179   2.866  0.0408  0.1310  0.2024
  111SAPE   O1311486   3.167   5.141   2.745  0.0376  0.3170  0.3672
  111SAPE   O1411487   2.980   5.091   2.908  0.0842 -0.0159 -0.4734
  111SAPE   O1211488   3.198   5.185   2.976 -0.1318 -0.3965 -0.3510
  111SAPE   O1111489   3.045   5.333   2.843  0.0831 -0.9253 -0.2139
  111SAPE    C111490   3.135   5.442   2.813 -0.6981  0.1348  0.2217
  111SAPE    HA11491   3.238   5.413   2.782 -0.9055  0.9182 -1.3014
  111SAPE    HB11492   3.102   5.496   2.722 -0.9369 -0.7649 -0.2376
  111SAPE    C211493   3.149   5.548   2.935 -0.4808  0.4167  0.0560
  111SAPE    HS11494   3.217   5.629   2.901 -0.5561  0.6122  0.3708
  111SAPE   O2111495   3.180   5.489   3.065 -0.0997 -0.5827  0.5872
  111SAPE   C2111496   3.320   5.471   3.071  0.1384  0.4364  0.3557
  111SAPE   O2211497   3.392   5.498   2.982 -0.1703  0.3193  0.5336
  111SAPE   C2211498   3.351   5.388   3.198 -0.2992 -0.5378 -0.0465
  111SAPE   H2R11499   3.348   5.463   3.280  1.1648  0.4826 -0.8859
  111SAPE   H2S11500   3.277   5.305   3.208  0.8299 -1.3809  1.9143
  111SAPE    C311501   3.017   5.625   2.941  0.0161 -0.4191 -0.2809
  111SAPE    HX11502   2.939   5.549   2.964  1.7883 -1.8896  1.1779
  111SAPE    HY11503   2.997   5.669   2.841  0.3234 -0.6763 -0.4566
  111SAPE   O3111504   3.025   5.732   3.041  0.5883  0.2347 -0.8878
  111SAPE   C3111505   2.903   5.768   3.095 -0.3971  0.3974 -0.4977
  111SAPE   O3211506   2.799   5.710   3.072 -0.3147  0.5553  0.4973
  111SAPE   C3211507   2.926   5.867   3.210  1.0444 -0.2721 -0.4142
  111SAPE   H2X11508   2.949   5.971   3.176 -0.7644  1.3709  2.9306
  111SAPE   H2Y11509   3.009   5.820   3.267  1.7676  0.8381 -0.5198
  111SAPE   C2311510   3.495   5.333   3.220 -0.6294  0.0958  0.4168
  111SAPE   H3R11511   3.582   5.400   3.239  0.2099 -1.0758  0.7898
  111SAPE   H3S11512   3.520   5.270   3.132  1.7821 -2.9250  3.0168
  111SAPE   C2411513   3.492   5.242   3.346  0.3262 -0.1246  0.5536
  111SAPE   H4R11514   3.416   5.167   3.317  1.2327 -0.0876 -2.1733
  111SAPE   H4S11515   3.468   5.300   3.438  1.6459  0.5642  0.4841
  111SAPE   C2511516   3.627   5.180   3.353 -0.2447  0.4903 -0.0065
  111SAPE   H5R11517   3.672   5.143   3.259  2.4923 -0.2461  1.5060
  111SAPE   C2611518   3.702   5.165   3.462 -0.0387  0.9376  0.7208
  111SAPE   H6R11519   3.806   5.132   3.447  0.2955  1.1832  2.3101
  111SAPE   C2711520   3.656   5.176   3.603 -0.6610 -0.1745  0.0779
  111SAPE   H7R11521   3.718   5.108   3.665  0.6103 -0.0588 -1.0090
  111SAPE   H7S11522   3.550   5.144   3.608 -0.7332 -0.1608 -1.0788
  111SAPE   C2811523   3.659   5.317   3.668  0.3595  0.8319 -0.4664
  111SAPE   H8R11524   3.638   5.396   3.594 -1.3304  0.3553 -0.5411
  111SAPE   C2911525   3.710   5.351   3.784 -0.0012  0.5207  0.1116
  111SAPE   H9R11526   3.684   5.451   3.820 -0.4183  0.0666  1.1056
  111SAPE  C21011527   3.763   5.258   3.889 -0.4118  0.1024 -0.5439
  111SAPE  H10R11528   3.865   5.251   3.844 -0.5633  0.9745 -1.0433
  111SAPE  H10S11529   3.722   5.155   3.880  0.8714 -0.6544  1.6310
  111SAPE  C21111530   3.776   5.316   4.030 -0.0680  0.1279  0.0781
  111SAPE  H11R11531   3.879   5.346   4.053  0.2955 -2.1318  1.7466
  111SAPE  C21211532   3.680   5.339   4.119 -0.4300  0.1505  0.2930
  111SAPE  H12R11533   3.722   5.358   4.219  0.5145  0.3047 -0.1137
  111SAPE  C21311534   3.532   5.322   4.106  0.5923 -0.0249  0.1706
  111SAPE  H13R11535   3.506   5.260   4.017  0.5004  0.2957 -0.0274
  111SAPE  H13S11536   3.495   5.424   4.084  1.3373  0.0577 -0.8173
  111SAPE  C21411537   3.483   5.251   4.235 -0.7775  0.6631  0.0162
  111SAPE  H14R11538   3.537   5.158   4.256 -1.5777  0.2225  0.1665
  111SAPE  C21511539   3.398   5.292   4.326  0.4401  0.1721 -0.7179
  111SAPE  H15R11540   3.369   5.227   4.410 -2.9932 -1.6242 -3.1048
  111SAPE  C21611541   3.329   5.427   4.312 -0.8370 -0.2331  0.3534
  111SAPE  H16R11542   3.219   5.414   4.322 -0.8200 -1.3160 -0.6430
  111SAPE  H16S11543   3.348   5.464   4.209  2.8219  0.1664  1.0050
  111SAPE  C21711544   3.381   5.531   4.414 -0.1089 -0.0021  0.4300
  111SAPE  H17R11545   3.343   5.634   4.397  0.4447  0.2463  0.6777
  111SAPE  H17S11546   3.491   5.536   4.404  0.1870 -1.7138  2.2525
  111SAPE  C21811547   3.340   5.497   4.563  1.0916 -0.1061 -0.1097
  111SAPE  H18R11548   3.388   5.405   4.602 -1.1745 -1.0609  0.5945
  111SAPE  H18S11549   3.229   5.492   4.560  1.1250 -0.5358 -1.4901
  111SAPE  C21911550   3.389   5.618   4.648  0.4422  0.4786 -0.4641
  111SAPE  H19R11551   3.362   5.715   4.602  2.2122  1.5054  0.5936
  111SAPE  H19S11552   3.500   5.614   4.647  0.4412 -2.9727 -1.0867
  111SAPE  C22011553   3.337   5.608   4.794  0.1495  0.2600 -0.9973
  111SAPE  H20R11554   3.358   5.511   4.844 -1.8102 -0.0897 -0.7861
  111SAPE  H20S11555   3.226   5.615   4.798 -0.1351 -3.0913 -0.3475
  111SAPE  H20T11556   3.384   5.688   4.855 -0.0582  0.9327 -1.6966
  111SAPE   C3311557   2.792   5.876   3.292  0.6396 -0.4590 -0.1736
  111SAPE   H3X11558   2.707   5.905   3.227  1.1109  0.8262 -0.2451
  111SAPE   H3Y11559   2.806   5.964   3.358  1.1388  0.6246 -1.6824
  111SAPE   C3411560   2.754   5.752   3.368 -0.1546 -0.6009  0.1873
  111SAPE   H4X11561   2.749   5.672   3.291 -0.4314 -0.3416 -0.0677
  111SAPE   H4Y11562   2.646   5.748   3.393 -0.6011  2.1547 -0.9028
  111SAPE   C3511563   2.845   5.703   3.486  0.4575 -0.1038 -0.2081
  111SAPE   H5X11564   2.944   5.700   3.436  0.9699  0.8237  0.7030
  111SAPE   H5Y11565   2.830   5.597   3.519 -2.0563 -0.0868 -1.1371
  111SAPE   C3611566   2.859   5.797   3.609  0.3040  0.3728  0.1570
  111SAPE   H6X11567   2.887   5.896   3.566  0.1199  0.5222  0.3754
  111SAPE   H6Y11568   2.930   5.761   3.686  1.0524 -0.5711 -0.9437
  111SAPE   C3711569   2.726   5.823   3.684 -0.2017 -0.4426 -0.0286
  111SAPE   H7X11570   2.689   5.722   3.712  2.1531 -1.0721  1.0892
  111SAPE   H7Y11571   2.663   5.878   3.611 -0.0659 -2.5827 -1.8668
  111SAPE   C3811572   2.757   5.901   3.818  0.0406  0.1046  0.0795
  111SAPE   H8X11573   2.836   5.844   3.873  0.3103 -0.4557 -0.8588
  111SAPE   H8Y11574   2.672   5.909   3.888  0.0499 -0.5860  0.1748
  111SAPE   C3911575   2.796   6.047   3.813  0.5319  0.0857  0.4245
  111SAPE   H9X11576   2.746   6.087   3.722  1.5730  0.2886 -0.0676
  111SAPE   H9Y11577   2.904   6.041   3.787 -0.4401 -2.4667 -3.9890
  111SAPE  C31011578   2.765   6.128   3.937  0.4978  0.1041 -0.0119
  111SAPE  H10X11579   2.655   6.124   3.954  0.5774  0.1281  0.5262
  111SAPE  H10Y11580   2.799   6.229   3.902  1.3149 -0.2295 -0.2065
  111SAPE  C31111581   2.839   6.081   4.056 -0.3716 -0.1298  0.7092
  111SAPE  H11X11582   2.948   6.080   4.036 -0.2226 -2.6716  1.2830
  111SAPE  H11Y11583   2.816   5.972   4.063  2.2701 -0.9387 -1.5143
  111SAPE  C31211584   2.811   6.151   4.191 -0.2559 -0.1287  0.2519
  111SAPE  H12X11585   2.844   6.257   4.189 -2.3020  0.5825  1.0789
  111SAPE  H12Y11586   2.858   6.103   4.279 -2.1883  0.9516  1.9472
  111SAPE  C31311587   2.668   6.151   4.239 -0.6572 -0.0829  0.7654
  111SAPE  H13X11588   2.641   6.050   4.276  0.0433  0.0927  1.8226
  111SAPE  H13Y11589   2.595   6.162   4.156  2.4120 -0.1594 -2.1755
  111SAPE  C31411590   2.635   6.259   4.341  0.4890  0.9157 -0.4273
  111SAPE  H14X11591   2.649   6.359   4.294 -0.5553  0.3664 -2.0031
  111SAPE  H14Y11592   2.698   6.246   4.432 -0.2336 -3.7045 -0.3810
  111SAPE  C31511593   2.487   6.250   4.385  0.2061 -0.3548  0.2164
  111SAPE  H15X11594   2.461   6.147   4.420  2.6853 -0.8195  0.8395
  111SAPE  H15Y11595   2.424   6.274   4.297  0.4294  0.6778  0.3235
  111SAPE  C31611596   2.448   6.356   4.491  0.0813  0.6588 -0.5307
  111SAPE  H16X11597   2.339   6.364   4.508  0.1631  0.0626  0.2986
  111SAPE  H16Y11598   2.489   6.454   4.459 -1.9748  1.2346 -1.5931
  111SAPE  C31711599   2.520   6.319   4.631 -0.3290 -0.4516  0.1338
  111SAPE  H17X11600   2.470   6.402   4.684  0.5086  0.1627 -0.0298
  111SAPE  H17Y11601   2.630   6.329   4.620 -0.3080  0.0090  0.7442
  111SAPE  C31811602   2.478   6.188   4.687 -0.3588  0.8377 -0.4146
  111SAPE  H18X11603   2.482   6.107   4.610 -2.9811 -1.8234  1.9885
  111SAPE  H18Y11604   2.370   6.184   4.713 -0.1340 -0.1516  0.4294
  111SAPE  H18Z11605   2.539   6.159   4.775 -0.9061  3.0036  0.7331
  112SAPE     N11606   4.462   4.665   2.540 -0.1676  0.4480 -0.5526
  112SAPE   HN111607   4.400   4.583   2.524  0.9288 -0.9527  1.8561
  112SAPE   HN211608   4.410   4.751   2.566 -1.7528  0.2518 -2.7846
  112SAPE   HN311609   4.525   4.679   2.458  0.2720 -1.5083 -0.5986
  112SAPE   C1211610   4.552   4.631   2.654 -1.1008 -0.5283  0.0977
  112SAPE  H12A11611   4.490   4.608   2.744  0.6984 -2.1853  0.9883
  112SAPE  H12B11612   4.614   4.720   2.675 -0.3504 -1.3409  1.4799
  112SAPE   C1111613   4.634   4.511   2.617 -0.3524 -0.2022  0.2116
  112SAPE  H11A11614   4.562   4.426   2.610 -3.3181  2.0985  0.7915
  112SAPE  H11B11615   4.698   4.491   2.705  0.3288 -1.9360 -0.6211
  112SAPE     P11616   4.789   4.414   2.424  0.1417 -0.3566 -0.1848
  112SAPE   O1311617   4.688   4.364   2.323  0.9918 -0.3383 -0.2498
  112SAPE   O1411618   4.918   4.461   2.368 -0.5994  0.0975 -0.0160
  112SAPE   O1211619   4.715   4.533   2.503 -0.0041 -0.5547 -0.4849
  112SAPE   O1111620   4.819   4.303   2.534  0.2658  0.6746 -0.1894
  112SAPE    C111621   4.930   4.342   2.620  0.0507  0.4436 -0.6372
  112SAPE    HA11622   5.028   4.327   2.570  0.4948 -0.3098  0.4205
  112SAPE    HB11623   4.922   4.441   2.670 -0.9913 -0.6565  1.5071
  112SAPE    C211624   4.926   4.241   2.739 -0.2312  0.1792  0.3753
  112SAPE    HS11625   4.936   4.141   2.692 -0.4825  0.3745 -0.1061
  112SAPE   O2111626   4.800   4.246   2.812 -0.2939  0.7016 -0.0058
  112SAPE   C2111627   4.746   4.120   2.838 -0.1618 -0.3835 -0.1746
  112SAPE   O2211628   4.801   4.015   2.823 -0.1391  0.1683 -0.7018
  112SAPE   C2211629   4.606   4.137   2.902 -0.7090 -0.0026 -0.5417
  112SAPE   H2R11630   4.601   4.220   2.976  0.2779 -2.3184  2.3630
  112SAPE   H2S11631   4.550   4.178   2.816  1.8445  0.5227 -2.0522
  112SAPE    C311632   5.049   4.264   2.834 -0.6344  1.1958  0.2684
  112SAPE    HX11633   5.046   4.365   2.880  0.5082  0.3403  2.3746
  112SAPE    HY11634   5.145   4.266   2.779 -0.4269  1.7578  0.6316
  112SAPE   O3111635   5.046   4.171   2.944  0.0473 -0.5992  0.4929
  112SAPE   C3111636   5.090   4.048   2.927  0.2445 -0.1188  0.1757
  112SAPE   O3211637   5.110   3.997   2.819  0.2779 -0.0320  0.6824
  112SAPE   C3211638   5.121   3.979   3.064  0.4590 -1.0768 -0.4001
  112SAPE   H2X11639   5.227   3.993   3.094  0.3541  0.7544 -0.7957
  112SAPE   H2Y11640   5.081   3.875   3.057  0.4150 -1.4365  3.3744
  112SAPE   C2311641   4.551   4.003   2.953  0.4065  0.4405 -0.7011
  112SAPE   H3R11642   4.626   3.935   2.999 -0.4689 -0.1332 -0.0970
  112SAPE   H3S11643   4.514   3.945   2.866 -1.9364 -0.5063  0.8101
  112SAPE   C2411644   4.429   4.027   3.042  0.1341  0.0526  0.0702
  112SAPE   H4R11645   4.356   4.092   2.990 -0.7434 -0.4417  0.6811
  112SAPE   H4S11646   4.484   4.076   3.125  0.7235  0.9806 -0.8448
  112SAPE   C2511647   4.362   3.891   3.080 -0.2858  0.0259 -0.1701
  112SAPE   H5R11648   4.324   3.813   3.012 -3.6253  0.2316  1.2640
  112SAPE   C2611649   4.325   3.855   3.206  0.2782  0.2823  0.8139
  112SAPE   H6R11650   4.282   3.755   3.221 -1.7822  0.7849 -1.1442
  112SAPE   C2711651   4.341   3.943   3.333 -0.3813  0.2969 -0.2536
  112SAPE   H7R11652   4.412   4.028   3.322  3.0218 -2.0497  1.6326
  112SAPE   H7S11653   4.377   3.865   3.405 -1.6061 -0.2022 -0.1653
  112SAPE   C2811654   4.208   3.988   3.390 -0.4840  0.5405  0.7048
  112SAPE   H8R11655   4.137   4.029   3.316 -2.0404 -0.7537  1.4380
  112SAPE   C2911656   4.174   4.000   3.521 -0.1717  0.6260 -0.5904
  112SAPE   H9R11657   4.074   4.035   3.552  0.2751  0.3157  1.3550
  112SAPE  C21011658   4.258   3.964   3.648 -0.5066 -0.3301 -0.4031
  112SAPE  H10R11659   4.338   3.900   3.605  0.8128  1.1593 -0.2801
  112SAPE  H10S11660   4.198   3.907   3.722  0.2631  0.5023  0.8997
  112SAPE  C21111661   4.333   4.085   3.691 -0.2662  0.2146  0.4531
  112SAPE  H11R11662   4.353   4.157   3.610 -1.6728 -0.1106 -0.2034
  112SAPE  C21211663   4.381   4.105   3.817  0.2845  0.2521  0.8330
  112SAPE  H12R11664   4.441   4.195   3.837  0.4029 -0.2994  3.1808
  112SAPE  C21311665   4.368   4.005   3.934  0.4093 -0.7312 -0.3600
  112SAPE  H13R11666   4.458   3.969   3.988 -0.7171  0.9160  2.8980
  112SAPE  H13S11667   4.312   3.916   3.896 -1.0370  0.5934 -1.4833
  112SAPE  C21411668   4.267   4.069   4.026  0.1086  0.5376 -0.1801
  112SAPE  H14R11669   4.172   4.097   3.977  0.0451 -0.6825 -0.7965
  112SAPE  C21511670   4.275   4.100   4.160  0.0952  0.4145 -0.3931
  112SAPE  H15R11671   4.187   4.136   4.215 -1.3971 -2.5172 -0.6615
  112SAPE  C21611672   4.398   4.075   4.250 -0.4578 -0.6106 -0.7812
  112SAPE  H16R11673   4.420   4.164   4.312  1.2576 -1.1244 -0.6137
  112SAPE  H16S11674   4.491   4.044   4.197  2.4112  1.7553  2.4642
  112SAPE  C21711675   4.360   3.969   4.352 -0.4981 -0.3298 -0.2739
  112SAPE  H17R11676   4.446   3.951   4.420 -1.9597 -0.3703  1.6501
  112SAPE  H17S11677   4.321   3.875   4.307  2.4123 -0.5520 -2.6416
  112SAPE  C21811678   4.259   4.011   4.464  0.3173  0.2249 -0.0441
  112SAPE  H18R11679   4.278   3.934   4.542  0.3895 -0.1390 -0.4187
  112SAPE  H18S11680   4.158   3.992   4.420 -1.3234 -0.7184  3.6890
  112SAPE  C21911681   4.278   4.147   4.531 -0.5090  0.0502 -0.1518
  112SAPE  H19R11682   4.243   4.221   4.456  1.0777 -0.5438 -1.5552
  112SAPE  H19S11683   4.387   4.163   4.543 -0.6254 -0.9143  2.9478
  112SAPE  C22011684   4.212   4.165   4.669 -0.2988  0.2557  0.3834
  112SAPE  H20R11685   4.243   4.086   4.740  2.3365 -0.6769 -1.6100
  112SAPE  H20S11686   4.104   4.189   4.666 -0.1637  1.0887  1.4353
  112SAPE  H20T11687   4.255   4.258   4.713  1.4642 -0.2169 -0.2603
  112SAPE   C3311688   5.028   4.028   3.179 -0.3739  0.0032  0.1921
  112SAPE   H3X11689   5.050   4.135   3.199  0.0097  0.0305 -0.3640
  112SAPE   H3Y11690   5.069   3.984   3.272 -0.8988 -0.0025  0.4298
  112SAPE   C3411691   4.881   3.973   3.176 -0.0925 -0.4130 -0.3732
  112SAPE   H4X11692   4.892   3.863   3.170  1.9414 -0.3415  1.0899
  112SAPE   H4Y11693   4.844   4.012   3.079  2.0297  1.2857 -0.5844
  112SAPE   C3511694   4.787   4.004   3.302  0.4456 -0.0245  0.2047
  112SAPE   H5X11695   4.681   3.971   3.296 -0.1023  1.8463 -1.5187
  112SAPE   H5Y11696   4.783   4.114   3.315 -0.5160 -0.2304  1.9628
  112SAPE   C3611697   4.842   3.947   3.439  0.2764  0.5705 -0.1858
  112SAPE   H6X11698   4.940   3.998   3.452  0.0505  0.6372  1.4753
  112SAPE   H6Y11699   4.856   3.839   3.423  1.4873  1.0376 -2.7064
  112SAPE   C3711700   4.751   3.978   3.556 -0.4941  0.5249 -0.5574
  112SAPE   H7X11701   4.657   3.920   3.552 -0.6569  0.7220  0.2706
  112SAPE   H7Y11702   4.718   4.084   3.545  0.1527  1.0253  1.8366
  112SAPE   C3811703   4.823   3.965   3.692  0.1201 -0.1074  0.2625
  112SAPE   H8X11704   4.913   4.030   3.677  1.8761 -1.5597  3.4819
  112SAPE   H8Y11705   4.869   3.864   3.697 -3.5971 -1.9203  1.8920
  112SAPE   C3911706   4.740   3.998   3.816  0.0543  0.5584 -0.3666
  112SAPE   H9X11707   4.644   3.941   3.813 -0.4035  1.3517 -1.5307
  112SAPE   H9Y11708   4.717   4.106   3.815  1.1992  0.8069 -1.6448
  112SAPE  C31011709   4.802   3.947   3.941 -0.1608 -0.7239  0.2085
  112SAPE  H10X11710   4.817   3.837   3.936 -0.2779 -0.7766  0.8600
  112SAPE  H10Y11711   4.733   3.958   4.028  0.1241  0.2410  0.3241
  112SAPE  C31111712   4.933   4.013   3.974  0.4609 -0.0776  0.7308
  112SAPE  H11X11713   4.930   4.124   3.964  2.2922 -0.0254  0.4155
  112SAPE  H11Y11714   4.992   3.980   3.886  0.8919  1.4059  0.4291
  112SAPE  C31211715   4.993   3.952   4.106  0.0236  0.0674  0.1901
  112SAPE  H12X11716   5.104   3.956   4.112 -0.0872  1.6194  2.9539
  112SAPE  H12Y11717   4.982   3.842   4.110  2.0087 -0.1546  0.8321
  112SAPE  C31311718   4.932   4.011   4.229  0.2538 -0.4993 -0.3144
  112SAPE  H13X11719   4.832   3.963   4.237  0.4007 -0.5800  1.5108
  112SAPE  H13Y11720   4.925   4.121   4.242  0.7322 -0.2704 -1.8253
  112SAPE  C31411721   5.012   3.960   4.359 -0.6255  0.4107 -0.3184
  112SAPE  H14X11722   5.119   3.990   4.362 -1.3727  3.2558  1.4667
  112SAPE  H14Y11723   5.015   3.849   4.361  3.2520  0.2854 -2.8415
  112SAPE  C31511724   4.952   4.014   4.486  0.3391 -0.1731 -0.0399
  112SAPE  H15X11725   4.842   4.001   4.475  0.3734  1.1006 -2.7956
  112SAPE  H15Y11726   4.958   4.125   4.483 -0.8967 -0.1158 -2.2734
  112SAPE  C31611727   5.009   3.947   4.608  0.2713 -0.0390 -0.2688
  112SAPE  H16X11728   5.117   3.965   4.627  0.7946 -2.4502 -0.6842
  112SAPE  H16Y11729   5.001   3.837   4.594  0.6519  0.0332 -1.0904
  112SAPE  C31711730   4.930   3.986   4.732  1.0328  0.0411 -0.2125
  112SAPE  H17X11731   4.823   4.010   4.714  1.3213  1.8581  0.2335
  112SAPE  H17Y11732   4.975   4.075   4.782 -1.5785  0.1892  2.0961
  112SAPE  C31811733   4.935   3.873   4.836 -1.0240 -0.3049  0.2625
  112SAPE  H18X11734   4.855   3.894   4.910 -0.2249  0.2660  0.9736
  112SAPE  H18Y11735   5.036   3.870   4.880 -1.3690 -0.8255  1.0386
  112SAPE  H18Z11736   4.916   3.775   4.787  2.3836 -0.5115 -0.8627
  113SAPE     N11737   0.264   4.190   2.201 -0.1492 -0.0988 -0.1229
  113SAPE   HN111738   0.287   4.108   2.142  2.6507 -0.9988  1.9848
  113SAPE   HN211739   0.202   4.156   2.278  1.2640  0.7852  1.4691
  113SAPE   HN311740   0.204   4.244   2.135 -0.5989 -2.7451 -2.0303
  113SAPE   C1211741   0.386   4.275   2.231  0.8070  0.0436  0.5674
  113SAPE  H12A11742   0.357   4.371   2.280  0.9005 -0.0182  0.7452
  113SAPE  H12B11743   0.419   4.297   2.127 -1.1382 -0.6102 -0.2329
  113SAPE   C1111744   0.501   4.208   2.298 -0.2231 -0.8289  0.0535
  113SAPE  H11A11745   0.495   4.225   2.408 -1.6384 -1.5527  0.1030
  113SAPE  H11B11746   0.592   4.260   2.261 -0.8809 -1.1906 -2.2320
  113SAPE     P11747   0.476   3.960   2.371  0.0733  0.1573 -0.6696
  113SAPE   O1311748   0.338   3.989   2.409  0.0483  0.3265 -0.0039
  113SAPE   O1411749   0.515   3.831   2.309  0.3004  0.1115 -0.7659
  113SAPE   O1211750   0.518   4.071   2.268  0.0748 -0.0441 -0.3286
  113SAPE   O1111751   0.574   3.991   2.490 -0.4793  0.6883  0.1649
  113SAPE    C111752   0.720   3.986   2.492  0.1510  0.4567  0.1728
  113SAPE    HA11753   0.773   3.973   2.395  0.1185  3.1807 -0.2922
  113SAPE    HB11754   0.764   4.074   2.543  3.3058  0.0727 -1.6510
  113SAPE    C211755   0.768   3.871   2.592  0.2883 -0.0697 -0.1489
  113SAPE    HS11756   0.738   3.774   2.548 -0.3507  0.0765 -0.0411
  113SAPE   O2111757   0.694   3.891   2.710 -0.1554 -0.4262 -0.1475
  113SAPE   C2111758   0.655   3.789   2.778  0.6702  0.2933  0.4420
  113SAPE   O2211759   0.667   3.675   2.738 -0.4629 -0.0878 -0.8139
  113SAPE   C2211760   0.601   3.838   2.914  0.0922 -0.0906 -0.1111
  113SAPE   H2R11761   0.692   3.839   2.978  0.4651 -3.2022 -0.4389
  113SAPE   H2S11762   0.555   3.936   2.891 -1.0794 -0.9720 -1.7685
  113SAPE    C311763   0.919   3.872   2.608  0.2612  0.5140  0.5514
  113SAPE    HX11764   0.949   3.975   2.636 -2.4457  1.6528 -0.4467
  113SAPE    HY11765   0.968   3.847   2.511 -0.9968 -0.6911  0.1952
  113SAPE   O3111766   0.959   3.788   2.718 -0.1310  0.2037 -0.3332
  113SAPE   C3111767   0.970   3.660   2.687 -0.1421  0.2990 -0.4532
  113SAPE   O3211768   0.941   3.611   2.583  0.1301 -0.1198  0.5998
  113SAPE   C3211769   1.030   3.591   2.809  0.2506 -0.3973 -1.1988
  113SAPE   H2X11770   1.137   3.618   2.822 -0.1728  0.1917  1.7656
  113SAPE   H2Y11771   1.012   3.482   2.798  1.2839 -0.7012 -0.1586
  113SAPE   C2311772   0.504   3.740   2.995  0.7760  0.2960  0.2643
  113SAPE   H3R11773   0.421   3.700   2.933  0.9345 -0.3732  0.4803
  113SAPE   H3S11774   0.444   3.803   3.065 -2.9298 -0.0476 -2.2867
  113SAPE   C2411775   0.574   3.623   3.065  0.4075 -0.0117 -0.2223
  113SAPE   H4R11776   0.651   3.680   3.122  0.1049  1.2245 -0.9865
  113SAPE   H4S11777   0.619   3.549   2.996 -0.2288  0.0547 -0.7227
  113SAPE   C2511778   0.482   3.554   3.161 -0.1692  0.2061  0.5174
  113SAPE   H5R11779   0.398   3.499   3.116 -0.6639  1.6150 -0.3279
  113SAPE   C2611780   0.471   3.561   3.293  0.3536 -0.4926  0.6527
  113SAPE   H6R11781   0.396   3.497   3.341 -0.9352  0.3876 -0.1333
  113SAPE   C2711782   0.575   3.626   3.384  0.0307 -0.1625 -0.0999
  113SAPE   H7R11783   0.673   3.624   3.332  1.0495 -0.2567  1.7598
  113SAPE   H7S11784   0.591   3.557   3.469  0.6109  0.2094  0.0938
  113SAPE   C2811785   0.548   3.764   3.431 -0.2442 -0.1702  0.3836
  113SAPE   H8R11786   0.510   3.834   3.355  0.6030 -0.7364 -0.5778
  113SAPE   C2911787   0.541   3.795   3.561  0.3231  0.0148 -0.0641
  113SAPE   H9R11788   0.508   3.897   3.587  1.2937 -0.0352  1.5167
  113SAPE  C21011789   0.576   3.715   3.685 -0.0881 -0.0790  0.9705
  113SAPE  H10R11790   0.648   3.783   3.737  0.5178 -0.1385  0.2306
  113SAPE  H10S11791   0.622   3.615   3.667  0.3208  0.0450  1.3177
  113SAPE  C21111792   0.459   3.661   3.755  1.0015  0.2131 -0.3533
  113SAPE  H11R11793   0.390   3.592   3.705  1.0577 -0.0117 -0.1209
  113SAPE  C21211794   0.426   3.684   3.886 -0.8350  0.3713 -0.1702
  113SAPE  H12R11795   0.353   3.631   3.948  0.5405  0.6087  1.7557
  113SAPE  C21311796   0.510   3.765   3.981  0.3753  0.0817 -0.4687
  113SAPE  H13R11797   0.613   3.785   3.944  0.8939 -1.5509  0.0202
  113SAPE  H13S11798   0.530   3.724   4.082  0.0272 -0.3278 -0.5619
  113SAPE  C21411799   0.429   3.899   3.997 -0.5671 -0.0192 -0.0584
  113SAPE  H14R11800   0.450   3.961   3.908  0.8993  1.3106  1.1578
  113SAPE  C21511801   0.340   3.936   4.094  0.0315  0.1505  0.1973
  113SAPE  H15R11802   0.320   4.044   4.100 -1.4492 -0.1762  2.1244
  113SAPE  C21611803   0.306   3.853   4.213  0.2774 -0.3427  0.0889
  113SAPE  H16R11804   0.372   3.764   4.223  0.6236 -0.0168  0.8277
  113SAPE  H16S11805   0.201   3.817   4.216 -0.0930  0.7301  0.5708
  113SAPE  C21711806   0.329   3.933   4.344 -0.3350 -0.1773 -0.6540
  113SAPE  H17R11807   0.320   3.860   4.428  0.0231  1.7428  1.1221
  113SAPE  H17S11808   0.251   4.012   4.347 -0.1706 -0.0246 -0.4272
  113SAPE  C21811809   0.467   3.997   4.345 -0.4477 -0.2231 -0.2071
  113SAPE  H18R11810   0.490   4.074   4.268  0.5087 -1.1602 -0.8859
  113SAPE  H18S11811   0.549   3.923   4.344 -0.4255 -0.2208  0.7586
  113SAPE  C21911812   0.484   4.078   4.474  0.5998 -0.6662  0.1468
  113SAPE  H19R11813   0.396   4.146   4.482  0.6132 -0.8620  3.7658
  113SAPE  H19S11814   0.572   4.145   4.469  2.0926 -2.3965  1.8019
  113SAPE  C22011815   0.522   3.988   4.585 -0.7230  0.2097  0.2905
  113SAPE  H20R11816   0.471   3.889   4.584 -1.4370  0.5607 -1.8126
  113SAPE  H20S11817   0.494   4.027   4.685 -1.5220 -0.6595  0.4144
  113SAPE  H20T11818   0.631   3.966   4.592 -0.8869 -0.8491 -0.2422
  113SAPE   C3311819   0.950   3.627   2.940 -0.3055  0.0050 -0.3105
  113SAPE   H3X11820   0.842   3.603   2.930  0.2103 -3.1081  0.4063
  113SAPE   H3Y11821   0.960   3.737   2.944 -0.1286  0.0183 -0.9555
  113SAPE   C3411822   1.007   3.557   3.070  0.1501 -0.1645 -0.3449
  113SAPE   H4X11823   1.117   3.570   3.079  0.3091 -2.2095  1.3126
  113SAPE   H4Y11824   0.991   3.448   3.060 -0.0231 -0.2202  0.5125
  113SAPE   C3511825   0.944   3.610   3.199 -0.0849 -0.2122 -0.9056
  113SAPE   H5X11826   0.842   3.566   3.194 -0.3898  0.6075 -3.3834
  113SAPE   H5Y11827   0.931   3.720   3.199  0.0957 -0.1890 -0.3405
  113SAPE   C3611828   1.022   3.556   3.318 -0.2975  0.0318 -0.4418
  113SAPE   H6X11829   1.127   3.593   3.319 -0.5061  0.6587  0.9279
  113SAPE   H6Y11830   1.029   3.446   3.306  0.0194  0.0924 -0.8283
  113SAPE   C3711831   0.959   3.589   3.450  0.6838  0.4368 -0.2490
  113SAPE   H7X11832   0.867   3.528   3.460  0.9831  0.0889  0.4689
  113SAPE   H7Y11833   0.932   3.697   3.449 -2.7449 -0.3148 -0.1271
  113SAPE   C3811834   1.057   3.559   3.564  0.7035  0.1078  0.5328
  113SAPE   H8X11835   1.093   3.454   3.560  0.0742 -0.0823 -1.4080
  113SAPE   H8Y11836   1.144   3.629   3.564  0.7049  0.1180 -0.2685
  113SAPE   C3911837   0.993   3.598   3.698 -1.5415  0.2448 -0.0799
  113SAPE   H9X11838   0.893   3.555   3.720  0.0038 -2.5769  2.2886
  113SAPE   H9Y11839   0.994   3.709   3.695  1.3679  0.3473  1.2890
  113SAPE  C31011840   1.097   3.565   3.805  0.2520  0.3408 -0.7651
  113SAPE  H10X11841   1.174   3.644   3.794 -1.2658  1.7737 -1.5928
  113SAPE  H10Y11842   1.144   3.465   3.799  0.4378  0.0102  3.3421
  113SAPE  C31111843   1.039   3.582   3.950  0.1104 -0.2581  0.2873
  113SAPE  H11X11844   0.987   3.486   3.970  0.4186  0.1202  3.2496
  113SAPE  H11Y11845   0.968   3.667   3.943  0.3504  0.0257  1.2061
  113SAPE  C31211846   1.151   3.611   4.042  0.1125  0.0937 -0.5530
  113SAPE  H12X11847   1.228   3.685   4.009  1.4047  0.8006  3.4579
  113SAPE  H12Y11848   1.203   3.513   4.040 -1.9763 -1.0709 -0.5193
  113SAPE  C31311849   1.113   3.643   4.194  0.2440  1.0574  0.5098
  113SAPE  H13X11850   1.196   3.613   4.262  0.1526  3.0773  1.5898
  113SAPE  H13Y11851   1.022   3.580   4.202  1.5055 -1.7531 -3.7948
  113SAPE  C31411852   1.085   3.790   4.217  0.5029 -0.2934 -0.0916
  113SAPE  H14X11853   1.047   3.840   4.125 -3.0446 -0.1141  1.2774
  113SAPE  H14Y11854   1.178   3.841   4.248 -0.1512  2.2751 -2.0223
  113SAPE  C31511855   0.981   3.821   4.330  0.4095 -0.6242 -0.0509
  113SAPE  H15X11856   0.880   3.776   4.336  0.8979 -1.6894  0.6790
  113SAPE  H15Y11857   0.954   3.928   4.323 -1.1242 -0.7927  2.0358
  113SAPE  C31611858   1.044   3.791   4.463  0.3807 -0.0234  0.0425
  113SAPE  H16X11859   1.146   3.835   4.472  0.3338 -0.1179  1.2770
  113SAPE  H16Y11860   1.053   3.680   4.465  1.7196 -0.0140 -2.2621
  113SAPE  C31711861   0.958   3.831   4.584 -0.7347 -0.0600 -1.0716
  113SAPE  H17X11862   0.852   3.811   4.557 -1.8134 -0.2600  2.7314
  113SAPE  H17Y11863   0.971   3.938   4.610 -0.0866 -0.8173  2.0914
  113SAPE  C31811864   0.976   3.755   4.715 -0.7334 -0.3403  0.0458
  113SAPE  H18X11865   0.904   3.791   4.791 -0.7604  0.8033 -0.4981
  113SAPE  H18Y11866   1.083   3.770   4.741 -0.8122  2.7711 -1.0585
  113SAPE  H18Z11867   0.961   3.645   4.713 -1.5859 -0.2354  0.3870
  114SAPE     N11868   1.511   4.490   2.321  0.1147 -0.0999 -0.1146
  114SAPE   HN111869   1.408   4.493   2.303 -0.1139 -1.4334  0.8251
  114SAPE   HN211870   1.552   4.560   2.257  2.4841 -0.6367  0.7172
  114SAPE   HN311871   1.546   4.397   2.292  1.7351  0.9896 -1.8657
  114SAPE   C1211872   1.536   4.534   2.468  0.4798 -0.0230 -0.0762
  114SAPE  H12A11873   1.489   4.633   2.484  0.1562  0.1942 -2.0948
  114SAPE  H12B11874   1.645   4.546   2.485  0.6644 -0.6211 -0.7546
  114SAPE   C1111875   1.493   4.418   2.553  0.6205  0.7600 -0.6413
  114SAPE  H11A11876   1.396   4.378   2.519 -0.0024  1.6671  0.0236
  114SAPE  H11B11877   1.487   4.462   2.655 -0.1633  0.6683 -0.6426
  114SAPE     P11878   1.691   4.267   2.645 -0.0809  0.2607  0.6000
  114SAPE   O1311879   1.631   4.155   2.725  0.3993 -0.0666  0.9310
  114SAPE   O1411880   1.822   4.251   2.582 -0.0195  0.3211  0.2605
  114SAPE   O1211881   1.590   4.304   2.528  0.0401 -0.1965 -0.2993
  114SAPE   O1111882   1.690   4.394   2.731 -0.3413 -0.6340  0.5903
  114SAPE    C111883   1.802   4.477   2.735  1.1855 -0.2556  0.4969
  114SAPE    HA11884   1.892   4.436   2.786  0.6355  1.8192  3.3710
  114SAPE    HB11885   1.827   4.519   2.635 -0.7924  0.4915  0.2701
  114SAPE    C211886   1.763   4.597   2.829 -0.2110  0.4847  0.4456
  114SAPE    HS11887   1.854   4.642   2.873  0.5582 -0.4331 -0.1433
  114SAPE   O2111888   1.672   4.562   2.938  0.0770  0.2529 -0.5268
  114SAPE   C2111889   1.716   4.469   3.026 -0.2302 -0.2790  0.5620
  114SAPE   O2211890   1.828   4.435   3.035 -0.3236  0.4427 -0.3692
  114SAPE   C2211891   1.599   4.415   3.113  0.4874  0.2395  0.2661
  114SAPE   H2R11892   1.507   4.473   3.092  0.0388 -0.1460  1.0983
  114SAPE   H2S11893   1.582   4.308   3.087 -2.6912  0.8675 -0.7111
  114SAPE    C311894   1.702   4.713   2.744  0.0277  0.5350 -0.4466
  114SAPE    HX11895   1.598   4.690   2.715 -0.0615  1.8354 -1.2559
  114SAPE    HY11896   1.772   4.728   2.658 -0.0778  4.1820 -0.0484
  114SAPE   O3111897   1.710   4.837   2.820  0.3543 -0.1930 -0.0775
  114SAPE   C3111898   1.599   4.908   2.830 -0.8350 -0.3855  0.1974
  114SAPE   O3211899   1.497   4.897   2.761  0.0029  0.8585  0.2064
  114SAPE   C3211900   1.624   5.017   2.942 -0.2796  0.6779  0.2006
  114SAPE   H2X11901   1.695   5.090   2.897 -0.6854  0.4509 -0.8252
  114SAPE   H2Y11902   1.685   4.970   3.022  1.4247  0.7104 -1.0155
  114SAPE   C2311903   1.610   4.421   3.273  0.2050 -0.1122  0.0063
  114SAPE   H3R11904   1.592   4.515   3.330  1.4175  0.8868 -1.1924
  114SAPE   H3S11905   1.717   4.405   3.299  0.2732  0.7201  0.2542
  114SAPE   C2411906   1.541   4.310   3.350 -0.3000  0.3220  0.3485
  114SAPE   H4R11907   1.575   4.288   3.454 -0.2899 -2.9553 -0.2267
  114SAPE   H4S11908   1.562   4.213   3.298  0.0185  0.7247 -0.2874
  114SAPE   C2511909   1.393   4.344   3.353 -0.7023 -0.2853 -0.2717
  114SAPE   H5R11910   1.347   4.343   3.253  0.8239 -2.6055 -1.0360
  114SAPE   C2611911   1.313   4.355   3.464  0.0376 -0.3138  0.4353
  114SAPE   H6R11912   1.210   4.388   3.446  0.7191  0.8496 -1.7960
  114SAPE   C2711913   1.363   4.345   3.603  0.9570  0.5578 -0.4287
  114SAPE   H7R11914   1.402   4.243   3.620  1.0513  0.7873  0.8193
  114SAPE   H7S11915   1.276   4.343   3.673 -1.2470  3.7837 -2.8061
  114SAPE   C2811916   1.453   4.460   3.645  0.3540 -0.0565 -0.0385
  114SAPE   H8R11917   1.477   4.544   3.577 -2.1188 -0.1428 -1.1403
  114SAPE   C2911918   1.492   4.468   3.771 -0.0497 -0.9399  0.0011
  114SAPE   H9R11919   1.561   4.550   3.793 -0.5743 -0.9967  2.0439
  114SAPE  C21011920   1.474   4.381   3.888  0.6809  0.5108  0.0864
  114SAPE  H10R11921   1.393   4.307   3.876  0.7890 -0.0376  2.3129
  114SAPE  H10S11922   1.431   4.441   3.971 -1.2381 -0.6980  0.0181
  114SAPE  C21111923   1.594   4.309   3.942  0.3630  0.9666  0.8705
  114SAPE  H11R11924   1.612   4.207   3.906 -2.6116  0.2005  1.2514
  114SAPE  C21211925   1.682   4.360   4.028 -0.0835 -0.3325 -0.8064
  114SAPE  H12R11926   1.771   4.301   4.054 -0.1547  0.2654  0.9341
  114SAPE  C21311927   1.676   4.496   4.090 -0.1470 -0.2919 -0.1433
  114SAPE  H13R11928   1.595   4.508   4.166 -1.7810  1.4406 -2.0644
  114SAPE  H13S11929   1.643   4.569   4.014  0.2535  1.8024  1.5774
  114SAPE  C21411930   1.803   4.547   4.159  0.2135 -0.1168 -0.2200
  114SAPE  H14R11931   1.864   4.621   4.105 -1.2433  3.0450  2.1650
  114SAPE  C21511932   1.833   4.520   4.287 -0.1226 -0.3040  0.1549
  114SAPE  H15R11933   1.934   4.555   4.316 -0.2763 -0.4894  0.9525
  114SAPE  C21611934   1.765   4.444   4.394  0.0109 -0.3095 -0.8075
  114SAPE  H16R11935   1.846   4.374   4.426 -0.3084 -0.6679 -0.7746
  114SAPE  H16S11936   1.684   4.381   4.350 -0.3030  0.5704 -1.5032
  114SAPE  C21711937   1.730   4.518   4.522 -0.3410 -0.5230  0.2729
  114SAPE  H17R11938   1.813   4.575   4.570 -1.2709  0.1049  1.2063
  114SAPE  H17S11939   1.704   4.435   4.591 -1.6308 -0.9516 -0.6926
  114SAPE  C21811940   1.616   4.630   4.508 -0.2777  0.3569  0.0467
  114SAPE  H18R11941   1.633   4.705   4.429  0.6931 -0.4156 -0.5036
  114SAPE  H18S11942   1.606   4.677   4.608 -1.6912  0.9273 -0.3384
  114SAPE  C21911943   1.476   4.561   4.487  0.1128 -0.3568  0.3625
  114SAPE  H19R11944   1.480   4.450   4.485 -0.9186 -0.4262 -2.5144
  114SAPE  H19S11945   1.435   4.606   4.394  2.1900 -0.2154 -0.5464
  114SAPE  C22011946   1.377   4.582   4.608 -0.0849  0.3060 -0.6594
  114SAPE  H20R11947   1.417   4.527   4.696  1.4108 -2.7566 -3.0465
  114SAPE  H20S11948   1.285   4.522   4.589  0.0867  0.3629 -1.7533
  114SAPE  H20T11949   1.350   4.685   4.641 -2.7996 -1.0455  1.7544
  114SAPE   C3311950   1.502   5.096   2.992  0.2351 -0.4035 -0.1117
  114SAPE   H3X11951   1.439   5.025   3.049  2.4220 -1.4339  1.1467
  114SAPE   H3Y11952   1.444   5.133   2.905 -0.7200 -0.5074  0.4732
  114SAPE   C3411953   1.521   5.215   3.092  0.0383 -0.2094 -0.1503
  114SAPE   H4X11954   1.426   5.253   3.135  0.8255 -0.4459  1.9258
  114SAPE   H4Y11955   1.561   5.302   3.035  0.5811 -0.3678 -0.0180
  114SAPE   C3511956   1.630   5.173   3.187 -0.0299 -0.7035 -0.1061
  114SAPE   H5X11957   1.729   5.153   3.141  0.0649 -0.1324 -0.1560
  114SAPE   H5Y11958   1.597   5.074   3.225 -2.3169 -0.1067 -0.3797
  114SAPE   C3611959   1.627   5.266   3.310  0.6252 -0.0288 -0.2331
  114SAPE   H6X11960   1.531   5.262   3.365  0.5255 -1.9448 -0.4994
  114SAPE   H6Y11961   1.644   5.372   3.281  1.1782 -0.5821 -2.0262
  114SAPE   C3711962   1.731   5.213   3.417  0.6994  0.2240  1.0551
  114SAPE   H7X11963   1.824   5.213   3.356 -0.5705 -0.2571 -0.9980
  114SAPE   H7Y11964   1.689   5.116   3.450  0.9294  0.7730  3.0629
  114SAPE   C3811965   1.748   5.304   3.528  0.1782  0.4977 -1.0364
  114SAPE   H8X11966   1.648   5.338   3.563 -1.0088 -2.3742 -1.3796
  114SAPE   H8Y11967   1.796   5.394   3.485 -0.9200  0.5555 -2.2046
  114SAPE   C3911968   1.833   5.247   3.644 -0.3196 -0.0068  0.0472
  114SAPE   H9X11969   1.786   5.150   3.672 -0.5701 -0.0938 -0.6708
  114SAPE   H9Y11970   1.820   5.322   3.725  0.0063 -0.5498  0.6181
  114SAPE  C31011971   1.982   5.221   3.613  0.1812 -0.3490 -0.3680
  114SAPE  H10X11972   2.019   5.315   3.569  0.1971  1.3810  3.0136
  114SAPE  H10Y11973   1.980   5.140   3.536 -1.1542 -0.0604 -0.6627
  114SAPE  C31111974   2.057   5.178   3.739  0.2205 -0.0648  0.0965
  114SAPE  H11X11975   2.154   5.132   3.710  0.3220  0.0497  0.2528
  114SAPE  H11Y11976   1.997   5.106   3.799 -0.0972  1.9691  2.3939
  114SAPE  C31211977   2.099   5.307   3.815  0.2615 -0.5188  0.3461
  114SAPE  H12X11978   2.007   5.368   3.830 -0.8946 -1.2504 -2.9109
  114SAPE  H12Y11979   2.172   5.371   3.760 -0.7304  0.0004 -0.4120
  114SAPE  C31311980   2.170   5.283   3.948 -0.7494  0.0742  0.6684
  114SAPE  H13X11981   2.277   5.287   3.919 -1.2919  2.2458 -1.2971
  114SAPE  H13Y11982   2.141   5.183   3.989 -0.8429  0.4919  1.6508
  114SAPE  C31411983   2.144   5.374   4.069  0.0828  1.0382  0.2291
  114SAPE  H14X11984   2.039   5.361   4.103 -0.4539  0.7484 -1.4649
  114SAPE  H14Y11985   2.161   5.479   4.037  0.5098  0.2493 -2.3057
  114SAPE  C31511986   2.247   5.343   4.175 -0.3559  0.0935  0.0975
  114SAPE  H15X11987   2.347   5.374   4.138  1.1570 -0.5045  3.3206
  114SAPE  H15Y11988   2.254   5.233   4.188  0.4747  0.0568 -0.5210
  114SAPE  C31611989   2.231   5.402   4.313  0.6394  0.6846  0.4065
  114SAPE  H16X11990   2.153   5.331   4.347  0.2735  0.6963 -0.3792
  114SAPE  H16Y11991   2.194   5.507   4.311  0.6490  0.6802 -0.1899
  114SAPE  C31711992   2.356   5.385   4.406 -0.3321 -0.2001  0.2964
  114SAPE  H17X11993   2.450   5.361   4.353 -0.2374 -1.6419  1.0589
  114SAPE  H17Y11994   2.337   5.294   4.468 -0.0407  0.4443  1.3693
  114SAPE  C31811995   2.372   5.504   4.497 -0.7973 -0.6208 -0.5775
  114SAPE  H18X11996   2.357   5.601   4.444  1.7457  0.2489  0.1868
  114SAPE  H18Y11997   2.467   5.496   4.552 -0.7159 -1.5113 -0.8284
  114SAPE  H18Z11998   2.286   5.498   4.567  0.5086 -1.6580  0.9960
  115SAPE     N11999   6.225   3.760   1.910 -0.3738 -0.3353 -0.0617
  115SAPE   HN112000   6.267   3.675   1.866  1.7985 -0.6461  2.3661
  115SAPE   HN212001   6.187   3.819   1.834  0.9056  1.2876  0.5031
  115SAPE   HN312002   6.300   3.819   1.952 -2.1218 -0.2345  3.2324
  115SAPE   C1212003   6.124   3.732   2.010 -0.2229 -0.3374  0.5435
  115SAPE  H12A12004   6.042   3.679   1.957  1.1888 -0.9811 -1.1159
  115SAPE  H12B12005   6.083   3.825   2.053  2.6086  0.8921  0.7617
  115SAPE   C1112006   6.181   3.650   2.128 -0.0733  0.1013 -0.0792
  115SAPE  H11A12007   6.232   3.559   2.089 -1.8153 -0.0454 -2.2248
  115SAPE  H11B12008   6.102   3.607   2.193 -0.3905  0.5951 -0.1313
  115SAPE     P12009   6.245   3.829   2.316  0.7369  0.2908 -0.1139
  115SAPE   O1312010   6.301   3.961   2.294  0.1723  0.4688  0.8248
  115SAPE   O1412011   6.096   3.818   2.345 -0.0169  0.0616 -0.1902
  115SAPE   O1212012   6.278   3.732   2.196 -0.2645 -0.3318 -0.4972
  115SAPE   O1112013   6.330   3.778   2.440  0.5205  0.1092 -0.0370
  115SAPE    C112014   6.273   3.684   2.526  0.5285 -0.0290  0.0977
  115SAPE    HA12015   6.184   3.630   2.488  1.5844 -1.0147 -1.0807
  115SAPE    HB12016   6.354   3.613   2.555 -0.4972 -0.4495  2.1266
  115SAPE    C212017   6.229   3.754   2.652  0.3555  0.0748 -0.0397
  115SAPE    HS12018   6.159   3.832   2.617 -0.0559 -0.8865 -1.4389
  115SAPE   O2112019   6.353   3.807   2.705  0.6756  0.1719 -0.0344
  115SAPE   C2112020   6.353   3.934   2.742  0.1385 -0.2572  0.2081
  115SAPE   O2212021   6.253   4.009   2.739  0.0944 -0.5865  0.1089
  115SAPE   C2212022   6.492   3.976   2.788  0.4600 -0.2216 -0.7968
  115SAPE   H2R12023   6.555   3.898   2.835 -0.4459  0.7866  2.3032
  115SAPE   H2S12024   6.535   4.017   2.694 -2.1395 -1.5006 -2.6841
  115SAPE    C312025   6.146   3.670   2.756 -0.4108 -0.3382  0.5797
  115SAPE    HX12026   6.207   3.578   2.768  1.5031  0.7955  0.1099
  115SAPE    HY12027   6.054   3.653   2.697  0.3302 -0.9725 -0.4186
  115SAPE   O3112028   6.123   3.744   2.876  0.7322 -0.0207 -0.7926
  115SAPE   C3112029   6.037   3.842   2.871  1.0796 -0.5433  0.4762
  115SAPE   O3212030   5.976   3.891   2.779  0.2229  0.6624 -0.1824
  115SAPE   C3212031   6.014   3.893   3.012  0.2975 -0.0945 -0.3368
  115SAPE   H2X12032   6.107   3.947   3.040  0.3364  0.3798 -1.3416
  115SAPE   H2Y12033   6.013   3.809   3.084  0.0684  1.1204  1.1208
  115SAPE   C2312034   6.486   4.095   2.896 -0.4117 -0.2666  0.3585
  115SAPE   H3R12035   6.385   4.111   2.938 -1.0821  1.1151 -1.6486
  115SAPE   H3S12036   6.532   4.187   2.855  1.4301 -1.9950 -1.6941
  115SAPE   C2412037   6.573   4.059   3.023 -0.2584  0.2950  0.5642
  115SAPE   H4R12038   6.680   4.046   2.996 -0.8553 -2.6326 -0.6948
  115SAPE   H4S12039   6.551   3.957   3.061  3.1017  0.7266  4.2412
  115SAPE   C2512040   6.558   4.156   3.136  0.1496 -0.0733 -0.5503
  115SAPE   H5R12041   6.636   4.234   3.140 -0.3163  0.3717  0.0393
  115SAPE   C2612042   6.455   4.170   3.226  1.2116  0.2087  0.6184
  115SAPE   H6R12043   6.470   4.248   3.302 -1.9202  0.6960  0.8882
  115SAPE   C2712044   6.338   4.070   3.237  0.6848  0.3056 -0.1116
  115SAPE   H7R12045   6.334   3.986   3.165 -0.9847 -0.2834  0.6124
  115SAPE   H7S12046   6.245   4.126   3.215  1.2376  0.6907 -1.5583
  115SAPE   C2812047   6.309   4.013   3.372  0.8845 -0.4010  0.1776
  115SAPE   H8R12048   6.336   3.908   3.390  1.1837 -0.3346  0.1093
  115SAPE   C2912049   6.220   4.069   3.462  0.3082 -1.0655  0.3373
  115SAPE   H9R12050   6.203   4.027   3.562 -2.1191  0.7255  0.7662
  115SAPE  C21012051   6.132   4.194   3.453 -0.2455 -0.0978 -0.6189
  115SAPE  H10R12052   6.037   4.156   3.495  0.6066 -2.5489 -0.7773
  115SAPE  H10S12053   6.125   4.224   3.346  2.4480 -1.5899 -1.3268
  115SAPE  C21112054   6.182   4.316   3.523 -0.2115  0.2853  0.0392
  115SAPE  H11R12055   6.224   4.390   3.454 -1.7176  0.6681 -0.5004
  115SAPE  C21212056   6.185   4.337   3.660  0.7508 -0.4628  0.3270
  115SAPE  H12R12057   6.216   4.438   3.689  0.3808  0.0392 -0.9960
  115SAPE  C21312058   6.132   4.242   3.766 -0.2550 -0.7021  1.1835
  115SAPE  H13R12059   6.217   4.188   3.814  0.2049  0.0974  1.2885
  115SAPE  H13S12060   6.072   4.159   3.723  0.8169 -1.9078  1.9408
  115SAPE  C21412061   6.049   4.311   3.872  0.9418 -0.2172 -0.0537
  115SAPE  H14R12062   5.953   4.354   3.839  1.6453 -0.1034 -2.1470
  115SAPE  C21512063   6.082   4.323   4.001  0.1796 -0.3620  0.0051
  115SAPE  H15R12064   6.007   4.364   4.070  0.1793  0.7379 -0.6144
  115SAPE  C21612065   6.217   4.290   4.060 -1.1382 -0.6201  0.2925
  115SAPE  H16R12066   6.297   4.299   3.983 -0.4725 -0.2770  1.0135
  115SAPE  H16S12067   6.214   4.184   4.094  1.5760 -0.4189  1.3871
  115SAPE  C21712068   6.251   4.389   4.169  0.6577  0.3920 -1.1354
  115SAPE  H17R12069   6.246   4.497   4.144 -0.0864  1.5321  3.0904
  115SAPE  H17S12070   6.357   4.360   4.188  1.2864  1.9398 -2.1271
  115SAPE  C21812071   6.196   4.370   4.317  0.9579 -0.5814  0.4384
  115SAPE  H18R12072   6.086   4.374   4.314  1.0375  1.5828 -1.2746
  115SAPE  H18S12073   6.229   4.445   4.392 -1.7535 -1.5568  2.7988
  115SAPE  C21912074   6.236   4.235   4.380  0.0078  0.3424 -0.2110
  115SAPE  H19R12075   6.346   4.237   4.369  0.2334  1.3515  1.8340
  115SAPE  H19S12076   6.198   4.147   4.324 -2.2541  0.2252  1.3449
  115SAPE  C22012077   6.228   4.213   4.534 -0.5692 -0.1204 -0.1856
  115SAPE  H20R12078   6.265   4.302   4.588 -0.3021  0.2455 -0.9664
  115SAPE  H20S12079   6.256   4.111   4.571 -2.9069  0.3994  3.5853
  115SAPE  H20T12080   6.118   4.213   4.549 -0.6360 -0.3392 -0.6746
  115SAPE   C3312081   5.899   3.995   3.030 -0.8380 -0.3329 -0.0721
  115SAPE   H3X12082   5.802   3.945   3.006 -1.3455 -0.5952  2.2301
  115SAPE   H3Y12083   5.908   4.082   2.962 -3.2890 -1.1267 -1.5635
  115SAPE   C3412084   5.896   4.041   3.177  0.4563 -0.3618 -0.4576
  115SAPE   H4X12085   5.988   4.100   3.194 -0.4166  1.1290 -0.6940
  115SAPE   H4Y12086   5.900   3.954   3.246  1.6410  0.5558  0.6703
  115SAPE   C3512087   5.777   4.129   3.212 -0.2352 -0.0580  0.7151
  115SAPE   H5X12088   5.683   4.080   3.179  0.0309 -1.2853  1.7105
  115SAPE   H5Y12089   5.783   4.224   3.154 -1.9338  0.5841  1.5357
  115SAPE   C3612090   5.761   4.178   3.356  0.2809  0.6434  0.5384
  115SAPE   H6X12091   5.681   4.255   3.351  0.3401  0.7098  0.5974
  115SAPE   H6Y12092   5.857   4.222   3.392 -0.6779  2.4557  1.0162
  115SAPE   C3712093   5.722   4.068   3.456  0.0145 -0.0841 -0.7243
  115SAPE   H7X12094   5.787   3.979   3.447  0.2508  0.0528 -0.3789
  115SAPE   H7Y12095   5.614   4.044   3.449  0.2657 -1.0200 -1.7357
  115SAPE   C3812096   5.748   4.127   3.602  0.3461 -0.3481 -0.0923
  115SAPE   H8X12097   5.852   4.164   3.612  1.0576 -2.4552  1.0920
  115SAPE   H8Y12098   5.745   4.038   3.669  0.2316 -0.8268 -0.7281
  115SAPE   C3912099   5.643   4.234   3.644  0.0087 -0.4370  0.5675
  115SAPE   H9X12100   5.546   4.216   3.592 -2.3110  3.0838  3.1360
  115SAPE   H9Y12101   5.665   4.332   3.597 -2.8696  0.6171  1.1556
  115SAPE  C31012102   5.630   4.262   3.790  0.6810  0.1556  0.5226
  115SAPE  H10X12103   5.542   4.329   3.802  0.1242 -0.3409 -0.6503
  115SAPE  H10Y12104   5.715   4.320   3.831  0.2685  1.3978 -0.3373
  115SAPE  C31112105   5.592   4.141   3.870  0.7193  0.3469  0.2641
  115SAPE  H11X12106   5.673   4.065   3.876  0.1424 -0.4114 -1.0684
  115SAPE  H11Y12107   5.510   4.093   3.813  1.0670  0.5985 -0.4522
  115SAPE  C31212108   5.550   4.177   4.015 -0.6510  0.1464  0.9793
  115SAPE  H12X12109   5.464   4.246   3.999 -0.7257 -0.4024 -1.3718
  115SAPE  H12Y12110   5.628   4.228   4.075 -1.5746  0.5009  1.9147
  115SAPE  C31312111   5.494   4.064   4.101  0.4408  0.6235 -0.2028
  115SAPE  H13X12112   5.571   3.995   4.142  1.3555  3.0151  2.4500
  115SAPE  H13Y12113   5.439   4.003   4.027  0.9779  1.4772 -1.3462
  115SAPE  C31412114   5.397   4.104   4.214  0.2402  0.1428 -0.9128
  115SAPE  H14X12115   5.368   4.015   4.272  0.5140  1.4467  1.3234
  115SAPE  H14Y12116   5.301   4.139   4.171 -0.7007 -1.0511  0.1455
  115SAPE  C31512117   5.439   4.216   4.309  0.2454 -0.3342  0.5857
  115SAPE  H15X12118   5.524   4.272   4.264 -0.3421 -0.7879 -1.1592
  115SAPE  H15Y12119   5.480   4.168   4.401 -2.3216  0.0924  2.0440
  115SAPE  C31612120   5.322   4.304   4.357 -0.1595 -0.5098 -0.3249
  115SAPE  H16X12121   5.272   4.343   4.265  0.4526  2.0085  0.3454
  115SAPE  H16Y12122   5.365   4.395   4.403 -1.4279 -0.3808  0.6708
  115SAPE  C31712123   5.221   4.233   4.454 -0.0131 -0.0668  0.2173
  115SAPE  H17X12124   5.251   4.127   4.444 -1.4369 -0.4741  0.0970
  115SAPE  H17Y12125   5.118   4.254   4.419 -0.6636  0.1680  2.1416
  115SAPE  C31812126   5.229   4.268   4.604  0.1852 -0.0745  0.6238
  115SAPE  H18X12127   5.336   4.263   4.635  0.0906 -0.8264  0.8279
  115SAPE  H18Y12128   5.173   4.198   4.670 -1.5435 -0.7738 -1.4935
  115SAPE  H18Z12129   5.209   4.375   4.626 -0.7916 -0.3644  1.1722
  116SAPE     N12130   1.484   0.650   2.439 -0.6098 -0.5301  0.1368
  116SAPE   HN112131   1.385   0.620   2.427 -0.7017 -0.8519  1.5145
  116SAPE   HN212132   1.533   0.669   2.349 -0.2171 -1.4290  0.1569
  116SAPE   HN312133   1.534   0.580   2.496 -1.4695 -2.3824 -1.2954
  116SAPE   C1212134   1.472   0.784   2.511 -0.2421 -0.2703  0.5107
  116SAPE  H12A12135   1.445   0.759   2.616 -0.8398 -2.7216 -0.1785
  116SAPE  H12B12136   1.398   0.851   2.460  1.3539  0.1577 -1.3643
  116SAPE   C1112137   1.613   0.849   2.508 -0.2365 -0.1046 -0.1514
  116SAPE  H11A12138   1.602   0.946   2.560  2.4330 -0.5109  1.3630
  116SAPE  H11B12139   1.632   0.865   2.400 -2.5862  1.3069 -0.4372
  116SAPE     P12140   1.856   0.807   2.585  0.0044  0.0058  0.3002
  116SAPE   O1312141   1.942   0.688   2.550  0.3166  0.1459 -0.2124
  116SAPE   O1412142   1.881   0.920   2.492  0.3593 -0.5239 -0.1119
  116SAPE   O1212143   1.704   0.762   2.573  0.4967  0.2241 -0.6431
  116SAPE   O1112144   1.887   0.856   2.734 -0.3447  0.7124  0.7483
  116SAPE    C112145   1.784   0.871   2.826 -0.2966 -0.7167  0.0350
  116SAPE    HA12146   1.787   0.970   2.876 -0.9434 -0.5326 -0.2820
  116SAPE    HB12147   1.683   0.876   2.780 -0.3922  1.2931  0.3772
  116SAPE    C212148   1.779   0.761   2.928 -0.0100 -0.2016  0.6538
  116SAPE    HS12149   1.700   0.780   3.004 -1.2813  1.1551 -0.9159
  116SAPE   O2112150   1.907   0.740   2.988 -0.2277 -0.6045 -0.2948
  116SAPE   C2112151   1.927   0.822   3.091  0.2806 -0.5309 -0.1599
  116SAPE   O2212152   1.843   0.904   3.133 -0.5465  0.6029  0.2577
  116SAPE   C2212153   2.074   0.811   3.144 -0.2751 -0.7560 -0.2071
  116SAPE   H2R12154   2.077   0.730   3.220  1.4493 -1.5967 -1.1047
  116SAPE   H2S12155   2.131   0.785   3.052 -0.1760  0.8812 -0.6359
  116SAPE    C312156   1.717   0.628   2.873  0.2231 -0.4634  0.8906
  116SAPE    HX12157   1.775   0.586   2.789 -1.0138 -0.3524 -0.0529
  116SAPE    HY12158   1.626   0.659   2.816  0.5845  0.5137  0.8314
  116SAPE   O3112159   1.697   0.533   2.984  0.3974 -0.7561 -0.3224
  116SAPE   C3112160   1.801   0.445   3.003 -0.4417 -0.0643  0.1475
  116SAPE   O3212161   1.904   0.451   2.941 -0.1071 -0.5353  0.1304
  116SAPE   C3212162   1.763   0.350   3.111  0.0521  0.4137 -0.4340
  116SAPE   H2X12163   1.834   0.265   3.104  0.4833  0.9051 -2.5507
  116SAPE   H2Y12164   1.665   0.305   3.082 -0.7979  3.4516 -2.7331
  116SAPE   C2312165   2.132   0.945   3.186 -0.2198  0.1321 -0.3563
  116SAPE   H3R12166   2.063   0.988   3.262 -0.1591 -0.3029 -0.0526
  116SAPE   H3S12167   2.145   1.007   3.095  1.0597 -1.7905 -1.5380
  116SAPE   C2412168   2.271   0.930   3.254  0.3790 -0.0133  0.2911
  116SAPE   H4R12169   2.349   0.883   3.190  1.8242 -0.0690  2.0302
  116SAPE   H4S12170   2.261   0.852   3.333 -1.3223 -1.1677 -0.9835
  116SAPE   C2512171   2.313   1.074   3.302 -0.0069  0.9699  0.1894
  116SAPE   H5R12172   2.337   1.133   3.212  0.2508  0.4966 -0.0576
  116SAPE   C2612173   2.346   1.112   3.426 -0.0946  0.1276 -0.1497
  116SAPE   H6R12174   2.396   1.210   3.425  0.3269 -0.0721 -1.6422
  116SAPE   C2712175   2.323   1.030   3.547  0.4318  0.1156  0.4149
  116SAPE   H7R12176   2.424   1.016   3.591  0.3562 -0.9952  0.2643
  116SAPE   H7S12177   2.307   0.924   3.517  1.0886  0.1706 -0.1526
  116SAPE   C2812178   2.215   1.091   3.633 -0.3398 -0.8087  0.1299
  116SAPE   H8R12179   2.130   1.141   3.585 -1.4435 -2.9758 -0.3249
  116SAPE   C2912180   2.222   1.094   3.767  0.1284 -0.6560 -0.4237
  116SAPE   H9R12181   2.148   1.153   3.823  0.9806  0.5377 -0.5189
  116SAPE  C21012182   2.315   1.026   3.856 -0.2037  0.8396  0.5383
  116SAPE  H10R12183   2.369   0.948   3.797 -3.9498 -2.6332  1.2149
  116SAPE  H10S12184   2.251   0.954   3.911 -0.6464 -0.8475 -1.9918
  116SAPE  C21112185   2.401   1.115   3.936 -0.3937  0.1339  0.0892
  116SAPE  H11R12186   2.490   1.157   3.888  0.8845 -0.7754  1.5819
  116SAPE  C21212187   2.381   1.134   4.068 -0.5217  0.6122 -0.0929
  116SAPE  H12R12188   2.449   1.198   4.126  0.9244 -1.6048  0.7672
  116SAPE  C21312189   2.268   1.078   4.160 -0.8959  0.5483  0.0351
  116SAPE  H13R12190   2.299   1.059   4.265 -1.3744  1.3816  0.3400
  116SAPE  H13S12191   2.237   0.979   4.121 -3.3885  1.4154 -0.3468
  116SAPE  C21412192   2.160   1.177   4.145 -0.2365  0.0460  0.6762
  116SAPE  H14R12193   2.076   1.153   4.079 -1.8981  1.1816  2.2776
  116SAPE  C21512194   2.127   1.267   4.234  0.1421 -0.3210 -1.2945
  116SAPE  H15R12195   2.039   1.333   4.229 -0.3928 -0.6143  1.8708
  116SAPE  C21612196   2.224   1.294   4.356 -0.1427  0.2084 -0.2014
  116SAPE  H16R12197   2.328   1.295   4.317  0.0288  2.6573  0.1450
  116SAPE  H16S12198   2.208   1.213   4.429  0.9605  2.9800  3.4235
  116SAPE  C21712199   2.191   1.425   4.428  0.1565  0.0324 -0.5003
  116SAPE  H17R12200   2.080   1.429   4.426  0.1798  2.7616 -0.9316
  116SAPE  H17S12201   2.231   1.512   4.372 -2.5481  0.6400 -1.6879
  116SAPE  C21812202   2.257   1.418   4.562  0.1578  0.0298  0.0206
  116SAPE  H18R12203   2.360   1.377   4.551 -1.2261 -3.6821 -0.4642
  116SAPE  H18S12204   2.204   1.339   4.619  1.7820  0.8731  2.9415
  116SAPE  C21912205   2.273   1.553   4.634 -0.0141 -0.8182 -0.3836
  116SAPE  H19R12206   2.172   1.600   4.640 -0.1893 -0.9475 -1.8599
  116SAPE  H19S12207   2.329   1.621   4.566  0.0098 -0.8762 -0.4212
  116SAPE  C22012208   2.323   1.545   4.777  0.2425 -0.0446 -0.8298
  116SAPE  H20R12209   2.310   1.646   4.822 -1.2265 -0.5057 -0.1782
  116SAPE  H20S12210   2.431   1.518   4.779  0.1379 -0.4461 -0.4868
  116SAPE  H20T12211   2.261   1.466   4.825 -0.0542  0.8126  0.2382
  116SAPE   C3312212   1.752   0.419   3.250 -0.2007 -0.3988 -0.1054
  116SAPE   H3X12213   1.701   0.517   3.242  2.3431  1.4231  3.1023
  116SAPE   H3Y12214   1.852   0.453   3.286 -1.7212  4.3970  0.2751
  116SAPE   C3412215   1.683   0.326   3.356  0.1833 -0.3479  0.2759
  116SAPE   H4X12216   1.715   0.219   3.357 -1.8679 -1.0023  0.6248
  116SAPE   H4Y12217   1.578   0.331   3.320  0.4555 -2.8630 -1.1056
  116SAPE   C3512218   1.693   0.393   3.497 -0.2860  0.0142  0.2697
  116SAPE   H5X12219   1.677   0.503   3.498  0.0384  0.0608  0.1771
  116SAPE   H5Y12220   1.793   0.361   3.532 -1.1505 -2.4005  0.7011
  116SAPE   C3612221   1.571   0.347   3.587 -0.5135  0.4556  0.6240
  116SAPE   H6X12222   1.476   0.362   3.532  0.9642 -0.9689 -2.5408
  116SAPE   H6Y12223   1.568   0.404   3.682 -0.2373 -0.7989  1.4116
  116SAPE   C3712224   1.578   0.205   3.647  0.7600 -0.1459  0.2473
  116SAPE   H7X12225   1.682   0.198   3.684  0.8692  1.4024  0.3089
  116SAPE   H7Y12226   1.566   0.153   3.549 -2.5639  0.5969  0.1320
  116SAPE   C3812227   1.466   0.168   3.745 -0.6060  0.0016 -0.7595
  116SAPE   H8X12228   1.499   0.191   3.849 -1.6524 -2.3552  0.1665
  116SAPE   H8Y12229   1.458   0.057   3.739  2.5609 -0.2768 -1.4102
  116SAPE   C3912230   1.319   0.217   3.726 -0.0187  0.1820 -0.1830
  116SAPE   H9X12231   1.273   0.162   3.641  0.6553 -0.7785  0.0595
  116SAPE   H9Y12232   1.314   0.324   3.693 -3.1162  0.2818  0.3230
  116SAPE  C31012233   1.222   0.206   3.844 -0.4620  0.7525 -0.2678
  116SAPE  H10X12234   1.207   0.102   3.882  1.3466 -0.4266 -2.5196
  116SAPE  H10Y12235   1.124   0.235   3.801 -0.3391  1.3344 -0.1664
  116SAPE  C31112236   1.257   0.299   3.964  0.4641  0.7560  0.3096
  116SAPE  H11X12237   1.260   0.405   3.930 -3.0834  0.6682 -0.6541
  116SAPE  H11Y12238   1.356   0.280   4.010  0.0515  1.9731  1.8078
  116SAPE  C31212239   1.143   0.293   4.077 -0.8420 -0.6988  0.2886
  116SAPE  H12X12240   1.136   0.186   4.104 -0.9116 -0.3412  1.8114
  116SAPE  H12Y12241   1.046   0.324   4.033 -2.2115 -0.7607  3.0266
  116SAPE  C31312242   1.182   0.379   4.198  0.9498  0.0327 -0.4031
  116SAPE  H13X12243   1.175   0.487   4.174 -2.2803 -0.2745 -1.3593
  116SAPE  H13Y12244   1.286   0.362   4.233  0.7355  0.0413  0.2607
  116SAPE  C31412245   1.092   0.362   4.320  0.2835  1.1702  0.3519
  116SAPE  H14X12246   1.098   0.256   4.353  0.1127  0.8800 -0.5044
  116SAPE  H14Y12247   0.985   0.385   4.299 -0.2747 -1.2077  0.2171
  116SAPE  C31512248   1.142   0.461   4.422  0.2938  0.4353  0.2260
  116SAPE  H15X12249   1.130   0.566   4.387 -0.1096  0.4354  0.3539
  116SAPE  H15Y12250   1.249   0.433   4.434 -0.3772 -1.9114  1.2673
  116SAPE  C31612251   1.064   0.453   4.551  0.0395 -0.5068 -0.3907
  116SAPE  H16X12252   1.078   0.355   4.601 -0.4427 -0.3824 -0.0049
  116SAPE  H16Y12253   0.959   0.479   4.524  0.8856  2.6511 -1.0749
  116SAPE  C31712254   1.109   0.553   4.662  0.1522  0.0171 -0.0015
  116SAPE  H17X12255   1.215   0.531   4.687  0.6687  1.1183 -1.1669
  116SAPE  H17Y12256   1.044   0.523   4.748  2.9371 -1.8015  1.6492
  116SAPE  C31812257   1.079   0.700   4.624  0.5470 -0.0600 -0.6445
  116SAPE  H18X12258   0.969   0.712   4.628  0.2071 -2.9321  0.9308
  116SAPE  H18Y12259   1.099   0.719   4.516  3.6175  2.0479  0.1516
  116SAPE  H18Z12260   1.120   0.783   4.685  0.5952 -0.6850  0.1807
  117SOPE     N12261   0.601   3.206   6.755 -0.0447 -0.9129  0.1943
  117SOPE   HN112262   0.568   3.282   6.692  2.1982  0.8153  0.9476
  117SOPE   HN212263   0.682   3.243   6.808  0.9884 -2.2948 -0.3428
  117SOPE   HN312264   0.634   3.121   6.705 -1.1035 -1.9382  1.1759
  117SOPE   C1212265   0.484   3.163   6.835  0.4616  1.1680  0.2446
  117SOPE  H12A12266   0.469   3.238   6.915 -0.0174  0.6423  0.6527
  117SOPE  H12B12267   0.513   3.067   6.885 -0.7754  1.6840  2.0483
  117SOPE   C1112268   0.352   3.145   6.755  0.3529 -0.1003 -0.7040
  117SOPE  H11A12269   0.266   3.127   6.823  0.9784 -0.3815  0.0219
  117SOPE  H11B12270   0.368   3.050   6.699 -0.7375 -0.1722 -0.9156
  117SOPE     P12271   0.183   3.319   6.634 -0.3017 -0.3988  0.2195
  117SOPE   O1312272   0.215   3.451   6.578 -0.1824  0.3609  0.3117
  117SOPE   O1412273   0.102   3.313   6.758 -0.0955 -0.2798  0.1957
  117SOPE   O1212274   0.328   3.251   6.660  0.2617  0.3684  0.1067
  117SOPE   O1112275   0.107   3.232   6.528 -0.1332  0.1477  0.0288
  117SOPE    C112276   0.155   3.105   6.482 -0.0743  0.3805  1.1873
  117SOPE    HA12277   0.071   3.034   6.468 -0.0682  0.4359  0.8667
  117SOPE    HB12278   0.237   3.059   6.540  0.5442 -1.4117 -0.9623
  117SOPE    C212279   0.213   3.114   6.331  0.1551 -0.2616 -0.2733
  117SOPE    HS12280   0.216   3.008   6.298 -0.1754 -0.2636 -0.3011
  117SOPE   O2112281   0.330   3.193   6.332  0.3821  0.3863 -0.2918
  117SOPE   C2112282   0.438   3.119   6.365 -0.3508  0.5749  0.2625
  117SOPE   O2212283   0.429   3.003   6.408  0.0028 -0.0262  0.1311
  117SOPE   C2212284   0.569   3.199   6.352  0.4709 -0.7829  0.3174
  117SOPE   H2R12285   0.625   3.192   6.447  0.5644 -1.6012  0.2070
  117SOPE   H2S12286   0.547   3.306   6.333  0.8267 -0.5632  1.1337
  117SOPE    C312287   0.107   3.187   6.249 -0.2317  0.5005  0.2644
  117SOPE    HX12288   0.094   3.283   6.303  3.0679  1.5746 -0.5932
  117SOPE    HY12289   0.012   3.131   6.258  0.4414 -0.8496 -0.6597
  117SOPE   O3112290   0.145   3.186   6.105 -0.1407  0.1627 -0.4098
  117SOPE   C3112291   0.203   3.302   6.056  1.2208  0.8024  0.2863
  117SOPE   O3212292   0.218   3.401   6.123  0.6145 -0.2909 -0.4877
  117SOPE   C3212293   0.243   3.271   5.912 -0.7644  0.4659 -0.6051
  117SOPE   H2X12294   0.162   3.224   5.853 -1.6395 -0.1518  0.9965
  117SOPE   H2Y12295   0.321   3.192   5.923 -1.9656 -0.6452  0.2669
  117SOPE   C2312296   0.649   3.137   6.234  0.7332 -0.1277 -0.0020
  117SOPE   H3R12297   0.666   3.028   6.248 -1.7337 -0.4977  0.4708
  117SOPE   H3S12298   0.751   3.181   6.242  1.5027 -1.8554  0.1497
  117SOPE   C2412299   0.587   3.165   6.099  0.2673 -0.0537 -0.4875
  117SOPE   H4R12300   0.487   3.116   6.103  0.0479  0.4793  1.7218
  117SOPE   H4S12301   0.569   3.275   6.089 -0.2501 -0.0739  0.1483
  117SOPE   C2512302   0.672   3.112   5.980 -0.4400 -0.5224  0.4025
  117SOPE   H5R12303   0.779   3.106   6.008 -0.6376 -0.9994  1.1053
  117SOPE   H5S12304   0.635   3.008   5.962 -1.6456  0.0755 -0.7106
  117SOPE   C2612305   0.649   3.177   5.848  0.5559  0.2357  0.0311
  117SOPE   H6R12306   0.540   3.178   5.826  0.3205 -1.4550  1.0195
  117SOPE   H6S12307   0.677   3.285   5.853 -0.6149  0.5865 -0.4834
  117SOPE   C2712308   0.725   3.126   5.730 -0.2453 -0.6559  0.3632
  117SOPE   H7R12309   0.824   3.086   5.762 -0.0829  0.5390  1.4201
  117SOPE   H7S12310   0.669   3.039   5.690  1.4024 -1.7126  0.2332
  117SOPE   C2812311   0.750   3.233   5.621  0.1433 -0.2327 -0.1222
  117SOPE   H8R12312   0.648   3.268   5.594  0.0576  0.3191  0.8433
  117SOPE   H8S12313   0.787   3.327   5.668 -0.8371  2.0425 -3.5218
  117SOPE   C2912314   0.835   3.173   5.514  0.3397 -0.0321 -0.0953
  117SOPE   H9112315   0.944   3.181   5.528  0.5478 -1.0801 -0.9717
  117SOPE  C21012316   0.788   3.124   5.396 -0.6717 -0.7120 -1.0048
  117SOPE  H10112317   0.865   3.080   5.331 -0.3634  0.7757 -1.6661
  117SOPE  C21112318   0.645   3.113   5.349  0.3875  0.5266  0.0904
  117SOPE  H11R12319   0.625   3.207   5.294 -0.8456  0.5607  0.5623
  117SOPE  H11S12320   0.575   3.110   5.436  0.3762 -0.6975  0.0586
  117SOPE  C21212321   0.614   3.002   5.248  0.0693  0.3516 -0.5347
  117SOPE  H12R12322   0.687   3.028   5.168  1.1063  3.1995  1.1615
  117SOPE  H12S12323   0.508   2.995   5.218 -0.4508  0.3976  1.1621
  117SOPE  C21312324   0.643   2.852   5.282 -0.0985 -0.3723  0.1629
  117SOPE  H13R12325   0.582   2.821   5.370 -0.4719 -0.6635 -0.1960
  117SOPE  H13S12326   0.751   2.835   5.300  0.0279  0.6545  0.4459
  117SOPE  C21412327   0.597   2.763   5.165 -0.3436  0.7266 -0.4634
  117SOPE  H14R12328   0.496   2.792   5.132 -0.9476  1.5033  1.8779
  117SOPE  H14S12329   0.589   2.659   5.203 -1.3914  0.5852 -1.0469
  117SOPE  C21512330   0.693   2.761   5.042  0.2246 -0.0943 -0.1307
  117SOPE  H15R12331   0.797   2.787   5.073  0.3944  0.6796 -1.3081
  117SOPE  H15S12332   0.653   2.837   4.972 -1.6194  0.5554  1.5373
  117SOPE  C21612333   0.699   2.622   4.967  0.1483  0.3845 -0.0510
  117SOPE  H16R12334   0.608   2.564   4.995  0.5443  0.3186  1.1425
  117SOPE  H16S12335   0.770   2.553   5.016 -1.5888 -0.5920  1.2275
  117SOPE  C21712336   0.723   2.644   4.824 -0.9662 -0.2241  0.1138
  117SOPE  H17R12337   0.808   2.708   4.790  0.5133 -2.4519 -0.5708
  117SOPE  H17S12338   0.627   2.695   4.799 -1.1389  0.3882  1.8772
  117SOPE  C21812339   0.730   2.513   4.756  0.3298  0.4920 -0.6031
  117SOPE  H18R12340   0.707   2.521   4.648 -1.1473 -1.0798 -0.4594
  117SOPE  H18S12341   0.668   2.432   4.801  0.5151  0.6393 -0.0687
  117SOPE  H18T12342   0.827   2.460   4.763  0.0415  0.0657  0.5532
  117SOPE   C3312343   0.292   3.400   5.843 -0.0673 -0.7034  0.4050
  117SOPE   H3X12344   0.381   3.442   5.895 -1.2668  0.3490  1.7129
  117SOPE   H3Y12345   0.209   3.475   5.842  0.8780  0.4466  2.0641
  117SOPE   C3412346   0.339   3.369   5.701  0.0741  0.4809  0.3643
  117SOPE   H4X12347   0.288   3.278   5.663  3.1026 -0.7308 -1.1070
  117SOPE   H4Y12348   0.443   3.330   5.711 -1.3616 -3.4869  1.6991
  117SOPE   C3512349   0.313   3.483   5.606  0.0423 -0.3899 -0.9000
  117SOPE   H5X12350   0.369   3.567   5.651 -0.3077 -0.8823  0.5087
  117SOPE   H5Y12351   0.204   3.503   5.615  0.3336  0.8777  0.0654
  117SOPE   C3612352   0.350   3.462   5.464 -0.1114 -0.4233  0.2145
  117SOPE   H6X12353   0.459   3.451   5.450 -0.1842 -1.6149  0.5220
  117SOPE   H6Y12354   0.316   3.559   5.422 -3.8061 -1.7285 -0.2156
  117SOPE   C3712355   0.284   3.344   5.390 -0.6022 -0.4598 -0.2028
  117SOPE   H7X12356   0.174   3.352   5.389 -0.6635 -1.2481 -0.6789
  117SOPE   H7Y12357   0.307   3.253   5.450 -1.5420 -0.8279 -0.3945
  117SOPE   C3812358   0.328   3.322   5.241 -0.0814 -0.2007  0.4696
  117SOPE   H8X12359   0.265   3.238   5.204 -1.0218  1.2125 -1.2807
  117SOPE   H8Y12360   0.434   3.288   5.243 -0.5334 -1.8023 -0.5395
  117SOPE   C3912361   0.298   3.446   5.156 -0.6108  0.4932  0.1945
  117SOPE   H9X12362   0.355   3.530   5.202  0.8142  0.3883 -1.3170
  117SOPE   H9Y12363   0.190   3.472   5.155 -0.7214  0.3395 -3.7656
  117SOPE  C31012364   0.340   3.436   5.005 -0.5407 -0.1966  0.5446
  117SOPE  H10X12365   0.315   3.332   4.978 -1.0171  0.6076 -2.4849
  117SOPE  H10Y12366   0.447   3.452   4.984 -0.2842 -1.9359  0.4487
  117SOPE  C31112367   0.261   3.527   4.921 -0.5385  0.2324 -0.1916
  117SOPE  H11X12368   0.305   3.629   4.925 -0.8171  0.3071  1.2539
  117SOPE  H11Y12369   0.156   3.535   4.957  0.0898  1.2403  1.5140
  117SOPE  C31212370   0.244   3.480   4.774  0.2675  0.1292  0.2384
  117SOPE  H12X12371   0.204   3.376   4.781  1.6104 -0.7453 -2.9462
  117SOPE  H12Y12372   0.346   3.463   4.733  0.1722 -0.2814  0.1631
  117SOPE  C31312373   0.152   3.575   4.693 -0.4191  0.3630  0.6727
  117SOPE  H13X12374   0.194   3.674   4.666 -1.7053  0.9900  0.9329
  117SOPE  H13Y12375   0.061   3.601   4.751  1.5479  0.2557  4.0488
  117SOPE  C31412376   0.098   3.514   4.565  0.4652 -1.1977  1.0941
  117SOPE  H14X12377   0.014   3.443   4.583 -2.0519  1.1945 -0.4627
  117SOPE  H14Y12378   0.183   3.459   4.520  1.8790  0.3046  1.8209
  117SOPE  C31512379   0.037   3.621   4.467  0.4123  0.2561 -0.4732
  117SOPE  H15X12380   0.104   3.708   4.455  1.1925  0.1665  2.4402
  117SOPE  H15Y12381  -0.052   3.660   4.520 -0.3517 -1.0078 -0.7735
  117SOPE  C31612382   0.021   3.565   4.321  0.3546 -0.2201  0.4449
  117SOPE  H16X12383  -0.019   3.647   4.258 -0.7226 -1.0206  0.0594
  117SOPE  H16Y12384  -0.057   3.486   4.320 -1.7534  1.7306  1.2760
  117SOPE  C31712385   0.148   3.514   4.252 -0.1162  0.1439 -0.0657
  117SOPE  H17X12386   0.188   3.439   4.324 -0.3384  1.0941  1.0780
  117SOPE  H17Y12387   0.226   3.592   4.247 -0.4465  0.4407 -0.6976
  117SOPE  C31812388   0.138   3.445   4.123  0.0518  0.7978 -0.2048
  117SOPE  H18X12389   0.237   3.419   4.080 -0.1299  0.4246 -0.4081
  117SOPE  H18Y12390   0.097   3.492   4.030  1.4575 -1.9539 -2.3698
  117SOPE  H18Z12391   0.083   3.349   4.131 -0.1048  0.3200 -4.3989
  118SOPE     N12392   3.473   6.610   6.978 -0.1990  0.4013 -0.4853
  118SOPE   HN112393   3.386   6.592   6.923 -1.0321  1.6314  0.3589
  118SOPE   HN212394   3.471   6.536   7.050 -0.6610  0.3369 -0.5558
  118SOPE   HN312395   3.463   6.697   7.034 -0.9597  0.0232 -0.0112
  118SOPE   C1212396   3.588   6.615   6.884 -0.1341 -0.2020 -0.4321
  118SOPE  H12A12397   3.679   6.651   6.936 -0.7986 -0.5206  1.0182
  118SOPE  H12B12398   3.550   6.678   6.800 -0.5938 -0.2632 -0.2727
  118SOPE   C1112399   3.605   6.472   6.836  0.3916 -0.3803 -0.1953
  118SOPE  H11A12400   3.674   6.474   6.749  1.3012 -0.5521  0.5034
  118SOPE  H11B12401   3.507   6.439   6.794  1.2716 -1.5397 -1.4221
  118SOPE     P12402   3.792   6.356   6.991 -0.1613  0.0182  0.0821
  118SOPE   O1312403   3.786   6.244   7.095  0.0044 -0.4827  0.3528
  118SOPE   O1412404   3.846   6.486   7.035  0.3755 -0.3870 -0.0773
  118SOPE   O1212405   3.640   6.375   6.938  0.0876 -0.3446  0.0449
  118SOPE   O1112406   3.868   6.313   6.856  0.1741 -0.1314  0.3277
  118SOPE    C112407   3.837   6.187   6.792  0.8323  0.6554  0.5129
  118SOPE    HA12408   3.737   6.148   6.819  0.5851  0.7775 -0.2181
  118SOPE    HB12409   3.920   6.119   6.822 -0.9182 -0.7342  2.5669
  118SOPE    C212410   3.825   6.192   6.638 -0.3975  0.1743  0.0153
  118SOPE    HS12411   3.844   6.087   6.607 -1.8329 -0.7333  1.9867
  118SOPE   O2112412   3.919   6.282   6.584 -0.2467  0.6432 -0.2541
  118SOPE   C2112413   4.042   6.238   6.553 -0.5134 -0.0137 -0.0129
  118SOPE   O2212414   4.075   6.124   6.557  0.0034  0.2359  0.5804
  118SOPE   C2212415   4.136   6.345   6.505  0.0879  0.0691  0.1739
  118SOPE   H2R12416   4.228   6.287   6.483 -0.5650 -0.8816 -0.1140
  118SOPE   H2S12417   4.153   6.413   6.592  0.9883 -0.7798  0.6818
  118SOPE    C312418   3.680   6.220   6.583  0.8672  0.4211 -1.4703
  118SOPE    HX12419   3.654   6.322   6.619 -0.6259 -0.9811  1.7998
  118SOPE    HY12420   3.611   6.149   6.633  2.9563 -1.0258 -0.4948
  118SOPE   O3112421   3.671   6.194   6.443 -0.2038  0.4272  0.3178
  118SOPE   C3112422   3.580   6.262   6.380  1.0164 -0.1851  0.6272
  118SOPE   O3212423   3.519   6.362   6.420  0.2521 -0.5369 -0.0190
  118SOPE   C3212424   3.561   6.196   6.240 -0.8848 -0.0346 -0.2652
  118SOPE   H2X12425   3.476   6.125   6.246 -0.8534 -0.0012  0.8971
  118SOPE   H2Y12426   3.654   6.144   6.209  0.2746  1.5409  0.4180
  118SOPE   C2312427   4.076   6.423   6.384  0.8633 -1.3219  0.2188
  118SOPE   H3R12428   4.143   6.509   6.364 -0.5787 -0.6203 -1.9719
  118SOPE   H3S12429   3.977   6.465   6.411  0.3886 -2.0576 -0.3358
  118SOPE   C2412430   4.058   6.343   6.257 -0.4110  0.5833 -0.2897
  118SOPE   H4R12431   4.164   6.321   6.235 -0.3995 -0.3932  0.6946
  118SOPE   H4S12432   4.015   6.242   6.276 -0.5026  0.3192 -1.7259
  118SOPE   C2512433   3.991   6.427   6.145 -0.0331  1.0355 -0.1296
  118SOPE   H5R12434   3.887   6.448   6.176 -0.6309 -0.7687 -0.8318
  118SOPE   H5S12435   4.037   6.527   6.128  0.1873  0.7766 -1.1677
  118SOPE   C2612436   3.993   6.364   6.009  0.3620  0.4428  0.4646
  118SOPE   H6R12437   3.959   6.435   5.930 -0.3952  0.1639  0.5300
  118SOPE   H6S12438   4.094   6.320   5.998  1.5508  2.5065  2.5237
  118SOPE   C2712439   3.891   6.252   5.989 -0.5523  0.2518  0.1601
  118SOPE   H7R12440   3.914   6.169   6.059 -1.2440 -1.9899 -2.1351
  118SOPE   H7S12441   3.792   6.280   6.031 -1.2917 -3.4089  1.2054
  118SOPE   C2812442   3.877   6.185   5.848 -0.2154  0.3447 -0.5511
  118SOPE   H8R12443   3.955   6.108   5.831  1.1986  1.2661  1.3595
  118SOPE   H8S12444   3.782   6.128   5.857  0.5812 -1.0295 -0.6193
  118SOPE   C2912445   3.856   6.284   5.733  0.1586 -0.1692  0.2727
  118SOPE   H9112446   3.798   6.374   5.754  3.5590  2.0101  1.1039
  118SOPE  C21012447   3.911   6.283   5.612 -0.1007 -0.4442 -0.6060
  118SOPE  H10112448   3.875   6.350   5.533 -0.4006  2.2319  1.6270
  118SOPE  C21112449   4.000   6.170   5.555  0.3897 -0.0701 -0.9366
  118SOPE  H11R12450   4.074   6.140   5.633  0.8611 -0.4849 -1.5272
  118SOPE  H11S12451   4.055   6.215   5.470  2.9783 -0.5031  0.4038
  118SOPE  C21212452   3.909   6.053   5.501 -0.4995 -0.0449 -0.2658
  118SOPE  H12R12453   3.854   6.026   5.594  1.7174 -0.7042  0.9191
  118SOPE  H12S12454   3.989   5.978   5.481  1.3027  0.6847  3.3452
  118SOPE  C21312455   3.825   6.091   5.380 -0.5406  0.1704  0.1255
  118SOPE  H13R12456   3.740   6.161   5.394 -0.3464  0.8351 -1.6494
  118SOPE  H13S12457   3.786   5.991   5.354 -3.1018  0.1054  3.5663
  118SOPE  C21412458   3.903   6.136   5.261 -0.2902  0.1145  0.0649
  118SOPE  H14R12459   3.993   6.072   5.257 -0.7266 -0.5662  0.8120
  118SOPE  H14S12460   3.929   6.243   5.278 -3.0132  0.7540  0.6955
  118SOPE  C21512461   3.816   6.120   5.129 -0.2812  0.5124 -0.3321
  118SOPE  H15R12462   3.732   6.190   5.107 -0.1276  0.9185  0.3576
  118SOPE  H15S12463   3.769   6.019   5.135 -1.2297  0.9833  0.3883
  118SOPE  C21612464   3.910   6.131   5.012  0.4520  0.3695  0.3010
  118SOPE  H16R12465   3.994   6.060   5.025 -0.4620 -1.1133 -1.4085
  118SOPE  H16S12466   3.954   6.232   5.001  0.0174  0.6113  0.7168
  118SOPE  C21712467   3.841   6.105   4.876 -0.1383 -0.0290  0.3528
  118SOPE  H17R12468   3.762   6.174   4.842  0.0979  0.1135  0.0865
  118SOPE  H17S12469   3.800   6.002   4.868  3.3087 -1.3752 -2.9981
  118SOPE  C21812470   3.939   6.129   4.764 -0.0175  0.4057  0.3095
  118SOPE  H18R12471   4.019   6.051   4.761  0.2507  0.7073 -0.8786
  118SOPE  H18S12472   3.984   6.229   4.779  1.1342  0.1968 -1.3263
  118SOPE  H18T12473   3.890   6.133   4.664  0.2412  0.0362  0.1623
  118SOPE   C3312474   3.520   6.296   6.128  0.2574  0.0445 -0.3268
  118SOPE   H3X12475   3.602   6.363   6.094  1.2395 -0.9524 -0.0118
  118SOPE   H3Y12476   3.439   6.357   6.172  0.5234 -1.4502  2.5349
  118SOPE   C3412477   3.486   6.217   6.005  0.5310 -0.2707 -0.4473
  118SOPE   H4X12478   3.396   6.159   6.036  0.8221  0.2445  1.4894
  118SOPE   H4Y12479   3.575   6.156   5.978  0.0898 -1.2362  0.1939
  118SOPE   C3512480   3.455   6.304   5.885 -0.1781  0.2160  0.2540
  118SOPE   H5X12481   3.550   6.355   5.859 -0.0680 -0.0667  0.1008
  118SOPE   H5Y12482   3.370   6.375   5.896 -1.9536 -1.6028 -0.9175
  118SOPE   C3612483   3.418   6.213   5.770 -0.0701  0.9053  0.3439
  118SOPE   H6X12484   3.326   6.153   5.788  0.4495 -0.7960 -2.0471
  118SOPE   H6Y12485   3.506   6.146   5.760 -0.9639 -0.2214 -0.2992
  118SOPE   C3712486   3.399   6.281   5.633  0.1739 -0.3553 -0.4762
  118SOPE   H7X12487   3.455   6.376   5.616 -0.4676 -0.3208 -2.6222
  118SOPE   H7Y12488   3.293   6.297   5.604 -0.1965 -1.8386  0.0008
  118SOPE   C3812489   3.456   6.190   5.515  1.0425 -0.1839 -0.8940
  118SOPE   H8X12490   3.562   6.173   5.543  0.5684 -1.7039  0.0875
  118SOPE   H8Y12491   3.445   6.260   5.429  2.4026 -1.2743 -2.0057
  118SOPE   C3912492   3.374   6.063   5.497 -0.2422  0.0621  0.1524
  118SOPE   H9X12493   3.266   6.086   5.480 -0.6648 -0.1772  2.2324
  118SOPE   H9Y12494   3.360   6.003   5.589 -0.5081 -0.3855 -0.1801
  118SOPE  C31012495   3.419   5.962   5.392 -0.6822 -0.2980  0.2178
  118SOPE  H10X12496   3.372   5.865   5.416 -0.2711 -0.7075 -0.6018
  118SOPE  H10Y12497   3.529   5.946   5.401 -0.4426  0.3270 -1.2359
  118SOPE  C31112498   3.372   6.012   5.259  0.4828 -0.0118  0.7389
  118SOPE  H11X12499   3.424   6.102   5.220  3.0063 -0.9398  1.7399
  118SOPE  H11Y12500   3.261   6.014   5.261  0.3475 -1.3642 -1.8146
  118SOPE  C31212501   3.386   5.900   5.156 -0.4790 -0.1319  0.6752
  118SOPE  H12X12502   3.355   5.800   5.192 -2.6099  0.0253 -0.5900
  118SOPE  H12Y12503   3.491   5.890   5.123 -0.5825  0.8680 -0.0080
  118SOPE  C31312504   3.306   5.927   5.030  0.8185 -0.3423  0.3455
  118SOPE  H13X12505   3.202   5.951   5.058  0.6448  0.9786 -1.2815
  118SOPE  H13Y12506   3.294   5.831   4.975  1.7010 -0.1440 -0.2269
  118SOPE  C31412507   3.356   6.034   4.931  0.1636  1.0204 -0.2467
  118SOPE  H14X12508   3.467   6.027   4.935  0.0475 -1.2151  2.0065
  118SOPE  H14Y12509   3.323   6.132   4.971  1.7464  1.2789  0.4753
  118SOPE  C31512510   3.300   6.007   4.794  0.2593 -0.1839 -0.2410
  118SOPE  H15X12511   3.190   6.001   4.809  0.1675 -4.9837 -1.2826
  118SOPE  H15Y12512   3.329   5.912   4.745 -1.1813 -1.2643  0.8970
  118SOPE  C31612513   3.333   6.118   4.701 -0.1340 -0.3767 -0.5471
  118SOPE  H16X12514   3.292   6.208   4.751  1.0188  0.3492 -0.8581
  118SOPE  H16Y12515   3.275   6.128   4.607 -1.1761 -0.8160  0.0380
  118SOPE  C31712516   3.483   6.119   4.669 -1.1076 -0.3914  0.7019
  118SOPE  H17X12517   3.540   6.109   4.764  2.1018  0.4142 -1.0127
  118SOPE  H17Y12518   3.507   6.224   4.642  0.7846 -0.7760  0.7664
  118SOPE  C31812519   3.530   6.013   4.567  0.0219  0.6299 -0.3709
  118SOPE  H18X12520   3.638   5.990   4.552 -0.1958 -0.5091 -0.3080
  118SOPE  H18Y12521   3.484   6.026   4.467  0.7480 -0.1753 -0.8316
  118SOPE  H18Z12522   3.490   5.917   4.607 -0.7094  1.7720  1.7976
  119SOPE     N12523   2.183   4.795   7.272  0.0387 -0.0082  0.0881
  119SOPE   HN112524   2.175   4.838   7.366 -0.6487 -1.2426  0.6290
  119SOPE   HN212525   2.212   4.866   7.202  0.0636 -0.5553 -0.4699
  119SOPE   HN312526   2.093   4.749   7.248  0.9902 -1.2919 -1.2242
  119SOPE   C1212527   2.276   4.686   7.271 -0.0486 -0.2799  0.6329
  119SOPE  H12A12528   2.226   4.598   7.317 -0.3825 -0.0593  0.6916
  119SOPE  H12B12529   2.365   4.722   7.328  0.0852  0.5970 -0.1179
  119SOPE   C1112530   2.326   4.645   7.128  0.4707 -0.5047 -0.2939
  119SOPE  H11A12531   2.421   4.591   7.147 -0.0412 -0.6458  2.1735
  119SOPE  H11B12532   2.341   4.730   7.058  0.3790  1.5681  2.0522
  119SOPE     P12533   2.242   4.420   7.028 -0.2334 -0.1418 -0.0990
  119SOPE   O1312534   2.128   4.361   6.950  0.2807 -0.1829 -0.2767
  119SOPE   O1412535   2.292   4.347   7.146  0.5802  0.3671 -0.1402
  119SOPE   O1212536   2.216   4.567   7.069 -0.2102  0.3634  0.5116
  119SOPE   O1112537   2.365   4.445   6.927 -0.2842  0.0525 -0.6168
  119SOPE    C112538   2.412   4.334   6.857 -0.3935  0.1132  0.5359
  119SOPE    HA12539   2.339   4.251   6.852 -0.2200 -0.0220  0.2187
  119SOPE    HB12540   2.503   4.295   6.905  0.6712  0.7848 -0.8506
  119SOPE    C212541   2.438   4.370   6.708  1.3170  0.4904  0.1697
  119SOPE    HS12542   2.482   4.280   6.658  1.8127  1.2962 -0.8686
  119SOPE   O2112543   2.509   4.490   6.687  1.1138 -0.0300 -0.0813
  119SOPE   C2112544   2.636   4.473   6.708  0.0639 -0.2002  0.9166
  119SOPE   O2212545   2.692   4.365   6.731  0.0855  0.2931 -0.6240
  119SOPE   C2212546   2.699   4.607   6.685 -0.4110 -0.4769  0.5776
  119SOPE   H2R12547   2.804   4.606   6.723  0.1959  0.8483 -0.9558
  119SOPE   H2S12548   2.638   4.680   6.744  2.5675  1.7021  1.2143
  119SOPE    C312549   2.300   4.401   6.639  0.7325 -0.4977 -0.9072
  119SOPE    HX12550   2.270   4.488   6.703 -0.0242 -0.9279 -0.6597
  119SOPE    HY12551   2.228   4.322   6.670  2.1542 -0.0484  4.8068
  119SOPE   O3112552   2.320   4.426   6.500 -0.5307 -1.3130 -0.3303
  119SOPE   C3112553   2.330   4.332   6.410 -0.1760  0.4430 -0.8378
  119SOPE   O3212554   2.301   4.213   6.431  0.5059 -0.0678 -0.1763
  119SOPE   C3212555   2.384   4.390   6.279 -0.5455 -0.1868 -0.3913
  119SOPE   H2X12556   2.494   4.383   6.297 -0.7434  0.8058  1.4281
  119SOPE   H2Y12557   2.354   4.496   6.267  0.3070 -0.0224 -1.2029
  119SOPE   C2312558   2.680   4.647   6.538  0.1423 -0.0901  0.5439
  119SOPE   H3R12559   2.708   4.754   6.525  1.0572 -0.3529  0.2330
  119SOPE   H3S12560   2.574   4.647   6.505  0.7718  0.8440 -1.6709
  119SOPE   C2412561   2.770   4.562   6.450 -0.5279 -0.6116  0.8967
  119SOPE   H4R12562   2.868   4.575   6.499 -1.3544  1.2440  2.1783
  119SOPE   H4S12563   2.735   4.457   6.452 -1.9908 -0.1525  0.6707
  119SOPE   C2512564   2.795   4.615   6.305 -0.3515  0.4023 -0.4762
  119SOPE   H5R12565   2.701   4.655   6.260 -0.3301 -0.5899 -1.4333
  119SOPE   H5S12566   2.871   4.697   6.309  0.1247 -0.0713  0.7909
  119SOPE   C2612567   2.841   4.503   6.219 -0.7890 -0.3923 -0.3833
  119SOPE   H6R12568   2.795   4.404   6.244 -1.1745 -0.1536 -0.1270
  119SOPE   H6S12569   2.808   4.525   6.115 -0.9581 -0.7196 -0.4035
  119SOPE   C2712570   2.990   4.489   6.201  0.3346 -0.0801 -0.5839
  119SOPE   H7R12571   3.030   4.593   6.191 -2.0293  0.9662  0.0536
  119SOPE   H7S12572   3.048   4.433   6.278  0.9249 -0.8713 -1.5880
  119SOPE   C2812573   3.014   4.409   6.074 -0.0744  0.6263  0.0536
  119SOPE   H8R12574   2.945   4.323   6.089 -0.0563  0.6572  0.3120
  119SOPE   H8S12575   2.994   4.454   5.974 -0.6785  0.4860  0.1076
  119SOPE   C2912576   3.154   4.358   6.051  0.4479 -0.4524  0.0530
  119SOPE   H9112577   3.236   4.409   6.104  2.3916  1.2215 -4.0638
  119SOPE  C21012578   3.184   4.259   5.961 -0.1072 -0.4896 -0.9569
  119SOPE  H10112579   3.289   4.243   5.930  0.5356  1.2709  0.1416
  119SOPE  C21112580   3.077   4.191   5.876  0.1324 -0.9029 -1.0260
  119SOPE  H11R12581   2.982   4.247   5.865 -0.2906 -1.2831  0.4558
  119SOPE  H11S12582   3.039   4.097   5.922 -1.3655 -0.0361 -0.4347
  119SOPE  C21212583   3.131   4.175   5.726 -0.1806 -0.8536 -0.1792
  119SOPE  H12R12584   3.149   4.276   5.683  1.2373 -0.7474  0.6223
  119SOPE  H12S12585   3.052   4.117   5.673 -0.0766 -1.1770  0.0196
  119SOPE  C21312586   3.254   4.086   5.720  0.4547 -0.6610  0.9842
  119SOPE  H13R12587   3.239   3.989   5.772  0.6415 -0.5952  1.1565
  119SOPE  H13S12588   3.334   4.140   5.774  1.3262  0.4259 -1.2569
  119SOPE  C21412589   3.316   4.076   5.583 -0.2470  0.0098  0.3941
  119SOPE  H14R12590   3.422   4.042   5.586 -1.1797 -3.5557 -1.4490
  119SOPE  H14S12591   3.311   4.178   5.540 -2.7145  0.2434  1.1093
  119SOPE  C21512592   3.247   3.963   5.495 -0.0195 -0.1903  1.1962
  119SOPE  H15R12593   3.138   3.985   5.488  0.4202  1.8838 -0.4245
  119SOPE  H15S12594   3.255   3.869   5.553  0.8176 -1.0314 -0.2137
  119SOPE  C21612595   3.296   3.944   5.346  0.0946 -0.1358  0.2345
  119SOPE  H16R12596   3.407   3.940   5.359 -0.0075 -1.1350  0.9988
  119SOPE  H16S12597   3.268   4.038   5.295  1.6686  0.0819 -0.2887
  119SOPE  C21712598   3.234   3.822   5.286  0.1896  0.3057 -0.1341
  119SOPE  H17R12599   3.124   3.838   5.291 -0.2576 -2.4548  0.5106
  119SOPE  H17S12600   3.266   3.739   5.352 -0.9881  0.5733  0.8279
  119SOPE  C21812601   3.290   3.792   5.147 -0.0185 -0.4979 -0.3150
  119SOPE  H18R12602   3.297   3.883   5.082 -2.0315 -1.8268 -2.5661
  119SOPE  H18S12603   3.215   3.725   5.100 -0.3730  0.6623 -1.4870
  119SOPE  H18T12604   3.388   3.741   5.152  0.6743  0.5700 -1.9402
  119SOPE   C3312605   2.347   4.303   6.158  0.1108  0.6826 -0.0481
  119SOPE   H3X12606   2.238   4.290   6.139  0.0759  1.1166 -0.1533
  119SOPE   H3Y12607   2.389   4.201   6.168 -2.1836 -0.4298 -0.9928
  119SOPE   C3412608   2.411   4.362   6.030 -0.0371  0.0966  0.5514
  119SOPE   H4X12609   2.521   4.345   6.037  0.3681  1.7636 -1.1158
  119SOPE   H4Y12610   2.392   4.470   6.014 -0.1297  0.0483  0.3322
  119SOPE   C3512611   2.347   4.302   5.902  0.1753  0.0308  0.1175
  119SOPE   H5X12612   2.251   4.352   5.879  1.0122  1.0360 -1.3632
  119SOPE   H5Y12613   2.322   4.194   5.899  1.0711 -0.1762 -0.2495
  119SOPE   C3612614   2.439   4.336   5.785 -0.0210  0.7620  0.6444
  119SOPE   H6X12615   2.470   4.442   5.797 -2.6045  1.6572  0.0954
  119SOPE   H6Y12616   2.375   4.319   5.695 -0.0918  1.9975  0.4391
  119SOPE   C3712617   2.568   4.255   5.778 -0.2388  0.6864  0.1442
  119SOPE   H7X12618   2.557   4.146   5.795  1.3896  0.3615 -0.7257
  119SOPE   H7Y12619   2.633   4.291   5.860 -2.6024  0.5716  2.1863
  119SOPE   C3812620   2.636   4.280   5.641  0.5564  0.2542 -1.2813
  119SOPE   H8X12621   2.687   4.379   5.648  0.4689  0.1923  0.7862
  119SOPE   H8Y12622   2.553   4.286   5.567 -1.7210 -1.8874  0.9000
  119SOPE   C3912623   2.738   4.173   5.601  0.4796 -0.2148 -0.4089
  119SOPE   H9X12624   2.692   4.073   5.612 -1.4028  0.2573 -3.0217
  119SOPE   H9Y12625   2.828   4.182   5.665  0.3069 -1.0830 -0.0282
  119SOPE  C31012626   2.775   4.193   5.460  0.3585 -0.1905  0.0099
  119SOPE  H10X12627   2.801   4.298   5.433 -2.9559  0.9519  0.8533
  119SOPE  H10Y12628   2.676   4.184   5.411 -1.3502  2.2666  2.7336
  119SOPE  C31112629   2.870   4.081   5.415 -0.0551  0.3802  0.1965
  119SOPE  H11X12630   2.849   4.002   5.490 -0.3704  3.3059  3.4261
  119SOPE  H11Y12631   2.976   4.113   5.430  0.3219 -0.2393 -0.9771
  119SOPE  C31212632   2.847   4.038   5.263 -0.3042  0.6556 -0.4707
  119SOPE  H12X12633   2.738   4.016   5.254 -0.1591  0.3156 -1.4648
  119SOPE  H12Y12634   2.885   3.937   5.239 -2.1391  0.3313 -2.3315
  119SOPE  C31312635   2.900   4.132   5.154  0.5704 -0.2019  0.3531
  119SOPE  H13X12636   3.010   4.137   5.172  0.4389 -0.1811  1.2023
  119SOPE  H13Y12637   2.864   4.236   5.166 -0.8466 -0.3443 -2.0564
  119SOPE  C31412638   2.869   4.084   5.010 -1.1579 -0.2352  0.3957
  119SOPE  H14X12639   2.916   3.985   4.991  0.7400  1.1067 -2.6430
  119SOPE  H14Y12640   2.915   4.153   4.936 -1.4395 -1.2829 -0.7915
  119SOPE  C31512641   2.727   4.059   4.974 -0.1830  0.3581 -0.0124
  119SOPE  H15X12642   2.668   4.146   5.008 -0.1735 -0.0185  0.9910
  119SOPE  H15Y12643   2.684   3.963   5.008 -2.1734  0.6689 -1.4264
  119SOPE  C31612644   2.712   4.059   4.813  0.3091 -0.3014  0.0017
  119SOPE  H16X12645   2.790   3.990   4.776  1.4733  0.9987 -0.0459
  119SOPE  H16Y12646   2.735   4.158   4.767  0.5286 -0.3569 -0.0057
  119SOPE  C31712647   2.569   4.033   4.770  0.1418  0.2115  0.4788
  119SOPE  H17X12648   2.497   4.098   4.825  0.3258  0.4178  0.4777
  119SOPE  H17Y12649   2.540   3.929   4.796 -1.6761  0.7754  0.8726
  119SOPE  C31812650   2.551   4.046   4.614 -0.6270 -0.6314  0.4399
  119SOPE  H18X12651   2.599   3.959   4.565 -0.8979 -0.5579  0.0369
  119SOPE  H18Y12652   2.582   4.143   4.569 -1.6354 -0.9018 -0.9106
  119SOPE  H18Z12653   2.444   4.037   4.586 -0.4591 -0.3162 -0.3356
  120SOPE     N12654   6.076   2.283   7.076 -0.3967 -0.5013 -0.2540
  120SOPE   HN112655   6.150   2.346   7.113 -0.3041 -0.1848 -0.9610
  120SOPE   HN212656   6.090   2.196   7.131 -0.7989  0.1599  0.9163
  120SOPE   HN312657   6.105   2.275   6.976  1.0372  1.7316 -0.1001
  120SOPE   C1212658   5.932   2.331   7.077  0.4914 -0.2929 -0.8580
  120SOPE  H12A12659   5.927   2.438   7.047 -1.1939 -0.3980 -1.0769
  120SOPE  H12B12660   5.892   2.324   7.181  0.0380 -0.0473 -1.0124
  120SOPE   C1112661   5.839   2.259   6.975  0.0818  0.0662  0.1189
  120SOPE  H11A12662   5.878   2.268   6.871  1.7258  3.1635  0.8987
  120SOPE  H11B12663   5.742   2.313   6.969  0.8578  1.3713 -3.4328
  120SOPE     P12664   5.692   2.079   7.099 -0.0736  0.0242  0.3314
  120SOPE   O1312665   5.580   2.166   7.058 -0.1557 -0.4445  0.0890
  120SOPE   O1412666   5.726   2.074   7.244  0.5429 -0.3633  0.6499
  120SOPE   O1212667   5.826   2.121   7.025  0.4827 -0.5847 -0.1297
  120SOPE   O1112668   5.679   1.928   7.051 -0.0866  0.5359  0.0227
  120SOPE    C112669   5.774   1.859   6.988  0.3313 -0.0579  0.1294
  120SOPE    HA12670   5.744   1.752   6.999 -1.4606  0.3768 -0.1996
  120SOPE    HB12671   5.874   1.879   7.032  0.0179  0.8680  0.4520
  120SOPE    C212672   5.801   1.890   6.830 -0.0818  0.3573  0.3891
  120SOPE    HS12673   5.847   1.991   6.822 -0.8658  0.7593  0.7855
  120SOPE   O2112674   5.667   1.893   6.775  0.2890  0.1448 -0.0925
  120SOPE   C2112675   5.650   1.950   6.661 -0.2588 -0.8308  0.1459
  120SOPE   O2212676   5.739   2.014   6.598 -0.1904  0.7437 -0.7863
  120SOPE   C2212677   5.507   1.926   6.615 -0.2019  1.4375 -0.1127
  120SOPE   H2R12678   5.439   1.960   6.696  1.1471  3.0186  0.4077
  120SOPE   H2S12679   5.500   1.816   6.599 -3.8582  1.5864 -0.4871
  120SOPE    C312680   5.888   1.774   6.753  0.3610 -0.7979 -0.6711
  120SOPE    HX12681   5.820   1.687   6.766 -1.6282  0.7934  0.1388
  120SOPE    HY12682   5.980   1.753   6.811  0.2500 -1.0206 -0.5735
  120SOPE   O3112683   5.917   1.798   6.616 -0.6321  0.5703  0.1119
  120SOPE   C3112684   5.991   1.912   6.600  0.2547  0.4882 -0.1146
  120SOPE   O3212685   6.057   1.961   6.689  0.5119  0.3592  0.2574
  120SOPE   C3212686   6.000   1.952   6.447  0.9498  0.3286  0.2010
  120SOPE   H2X12687   5.908   2.012   6.428 -0.4011 -1.4527  0.8957
  120SOPE   H2Y12688   5.982   1.862   6.384 -0.8387  1.0713 -0.4249
  120SOPE   C2312689   5.477   1.988   6.480  0.4312 -0.3704  0.4728
  120SOPE   H3R12690   5.521   2.090   6.473 -0.1453 -0.0672  1.0439
  120SOPE   H3S12691   5.367   2.001   6.477  0.2173 -1.5765  1.9418
  120SOPE   C2412692   5.528   1.903   6.361 -0.1697  0.2084 -0.6518
  120SOPE   H4R12693   5.638   1.893   6.366 -0.2828 -1.0137 -0.2712
  120SOPE   H4S12694   5.482   1.802   6.353 -0.7872  0.2250  1.8108
  120SOPE   C2512695   5.510   1.978   6.223 -0.0226 -0.7278  0.0316
  120SOPE   H5R12696   5.402   1.999   6.210  0.2538  1.1418  0.4066
  120SOPE   H5S12697   5.561   2.076   6.238  1.1669 -1.5625  1.9031
  120SOPE   C2612698   5.579   1.908   6.097 -0.8391  0.1284  0.0511
  120SOPE   H6R12699   5.686   1.895   6.125 -0.1206 -0.7673 -2.7596
  120SOPE   H6S12700   5.544   1.803   6.089  1.7751 -0.6870 -2.6929
  120SOPE   C2712701   5.550   1.978   5.968 -0.7167  0.7394 -0.5817
  120SOPE   H7R12702   5.443   2.007   5.964 -1.0431 -0.6204 -3.0676
  120SOPE   H7S12703   5.600   2.078   5.966 -0.8934  0.8466 -3.3953
  120SOPE   C2812704   5.593   1.889   5.843 -0.2100 -0.0192 -0.0927
  120SOPE   H8R12705   5.563   1.782   5.855  0.8082 -0.3072 -0.0500
  120SOPE   H8S12706   5.528   1.927   5.761  1.4125  1.4848 -0.7360
  120SOPE   C2912707   5.740   1.907   5.805  0.6159  0.0591 -1.1254
  120SOPE   H9112708   5.807   1.895   5.892  0.3344  0.5105 -0.8472
  120SOPE  C21012709   5.779   1.966   5.690  0.2492  0.5373  0.4894
  120SOPE  H10112710   5.885   1.986   5.673  0.5075 -0.3930  0.9332
  120SOPE  C21112711   5.691   2.005   5.574  1.0033  0.3831  0.3024
  120SOPE  H11R12712   5.616   2.079   5.610 -0.5584 -2.4721  3.5272
  120SOPE  H11S12713   5.623   1.921   5.547 -0.0868  0.9309  1.2211
  120SOPE  C21212714   5.770   2.058   5.460 -0.2772 -0.3841 -0.2382
  120SOPE  H12R12715   5.838   1.981   5.417  1.0955  1.8280 -2.3291
  120SOPE  H12S12716   5.834   2.145   5.487 -0.7925 -0.6846  2.1299
  120SOPE  C21312717   5.675   2.098   5.344  0.1548 -0.0645  1.1047
  120SOPE  H13R12718   5.722   2.179   5.285  0.5851  0.3137  1.9618
  120SOPE  H13S12719   5.576   2.141   5.371 -0.5877  2.1216 -3.9668
  120SOPE  C21412720   5.664   1.975   5.248 -0.9031  0.1755 -0.1560
  120SOPE  H14R12721   5.629   1.885   5.304  0.3146  0.4680  1.1204
  120SOPE  H14S12722   5.766   1.956   5.208 -0.5503  0.1827  0.7032
  120SOPE  C21512723   5.567   2.005   5.135 -0.3763 -0.2579  0.3569
  120SOPE  H15R12724   5.576   2.112   5.109 -1.5335 -0.1322  0.4156
  120SOPE  H15S12725   5.466   1.982   5.175 -0.0004 -1.3663  0.6946
  120SOPE  C21612726   5.596   1.926   5.003  0.2584  0.2067  0.2304
  120SOPE  H16R12727   5.707   1.937   4.995  0.2079  0.5895  0.0285
  120SOPE  H16S12728   5.560   1.989   4.919 -0.7463 -0.1855  0.3504
  120SOPE  C21712729   5.544   1.780   5.007  0.3944  0.2317  0.5764
  120SOPE  H17R12730   5.589   1.723   5.091 -3.2637 -1.9936  1.2545
  120SOPE  H17S12731   5.577   1.746   4.906 -3.5714  0.6855 -1.0762
  120SOPE  C21812732   5.392   1.779   5.016  0.4942 -0.3653  0.2561
  120SOPE  H18R12733   5.347   1.844   4.938 -0.5318  0.0538  1.1618
  120SOPE  H18S12734   5.367   1.814   5.119 -0.9090  1.5146 -0.6732
  120SOPE  H18T12735   5.350   1.676   5.010 -0.5813  0.1483 -1.5735
  120SOPE   C3312736   6.122   2.031   6.403 -0.1185  0.3601 -0.7716
  120SOPE   H3X12737   6.194   1.956   6.363 -1.1315 -1.2072  0.2662
  120SOPE   H3Y12738   6.170   2.099   6.477 -0.8186  1.7064 -1.5178
  120SOPE   C3412739   6.091   2.121   6.278 -0.7721 -0.5036 -0.3966
  120SOPE   H4X12740   6.181   2.185   6.259  0.2791 -1.4176  1.2786
  120SOPE   H4Y12741   5.999   2.178   6.301 -2.4622 -3.6815  1.2985
  120SOPE   C3512742   6.071   2.047   6.153 -0.7566  0.2188  0.0501
  120SOPE   H5X12743   5.999   1.965   6.176 -0.8639  0.1885 -0.3788
  120SOPE   H5Y12744   6.158   1.982   6.129 -2.1970 -1.5026 -0.7738
  120SOPE   C3612745   6.022   2.130   6.029 -0.1680  0.3998 -0.6498
  120SOPE   H6X12746   5.911   2.134   6.039 -0.0435 -0.8197  1.8696
  120SOPE   H6Y12747   6.047   2.078   5.934 -2.0756  1.2153 -1.6653
  120SOPE   C3712748   6.081   2.271   6.030  0.3939 -0.4716  0.3918
  120SOPE   H7X12749   6.192   2.266   6.024  0.2650 -2.2178 -3.7238
  120SOPE   H7Y12750   6.058   2.318   6.129  0.4447 -0.6431  0.4858
  120SOPE   C3812751   6.049   2.352   5.899 -0.0359 -0.5047 -0.1416
  120SOPE   H8X12752   6.107   2.447   5.890 -1.4897  0.3322 -1.1069
  120SOPE   H8Y12753   5.943   2.385   5.908  0.5255  1.5478 -0.4670
  120SOPE   C3912754   6.073   2.270   5.773 -0.0938  0.6806 -0.1856
  120SOPE   H9X12755   5.986   2.201   5.760  0.1647  0.7229 -2.5979
  120SOPE   H9Y12756   6.163   2.210   5.796 -0.0669  1.4484  1.8737
  120SOPE  C31012757   6.088   2.346   5.644 -0.5127  0.9134 -0.8130
  120SOPE  H10X12758   6.181   2.405   5.659 -1.2959  1.8782  0.5285
  120SOPE  H10Y12759   6.002   2.413   5.623 -1.4493 -0.8655 -2.9409
  120SOPE  C31112760   6.112   2.260   5.515  0.1735  0.3800 -0.0124
  120SOPE  H11X12761   6.047   2.170   5.512  1.1682 -0.3403 -0.4309
  120SOPE  H11Y12762   6.217   2.225   5.510  0.3650  0.9638 -0.0316
  120SOPE  C31212763   6.073   2.328   5.389  0.3764  0.0432  0.1962
  120SOPE  H12X12764   5.973   2.372   5.407 -0.0630  0.5285 -2.8823
  120SOPE  H12Y12765   6.055   2.267   5.297 -0.6236  0.6557 -0.0296
  120SOPE  C31312766   6.171   2.437   5.339 -0.8060  0.4131 -0.1873
  120SOPE  H13X12767   6.193   2.516   5.413  0.1165 -0.9992  1.0953
  120SOPE  H13Y12768   6.116   2.486   5.256  0.2076 -1.4265 -2.0357
  120SOPE  C31412769   6.308   2.388   5.301  0.1561  0.2323 -0.1394
  120SOPE  H14X12770   6.348   2.349   5.397 -2.2053 -2.2902 -0.0538
  120SOPE  H14Y12771   6.370   2.473   5.265 -0.7717  1.4988  1.1156
  120SOPE  C31512772   6.320   2.278   5.196 -0.1882  0.3716  0.2133
  120SOPE  H15X12773   6.262   2.186   5.220 -0.3421  0.7640  1.4397
  120SOPE  H15Y12774   6.428   2.253   5.191 -0.3352 -0.0913 -1.0953
  120SOPE  C31612775   6.273   2.331   5.057 -0.3331  0.4817 -0.4872
  120SOPE  H16X12776   6.350   2.392   5.005  0.2920 -0.4739 -0.7113
  120SOPE  H16Y12777   6.178   2.383   5.078 -1.8788 -2.4662  0.3222
  120SOPE  C31712778   6.243   2.205   4.959 -0.0599 -0.2913  0.1101
  120SOPE  H17X12779   6.204   2.240   4.861 -2.7525  1.0083  1.5357
  120SOPE  H17Y12780   6.150   2.169   5.008  0.1754  0.4726  1.1662
  120SOPE  C31812781   6.345   2.093   4.932  0.1855 -0.5366  0.2877
  120SOPE  H18X12782   6.434   2.135   4.880 -2.3447  4.6671 -0.5348
  120SOPE  H18Y12783   6.302   2.027   4.854  1.5039  0.2096 -1.1248
  120SOPE  H18Z12784   6.376   2.040   5.025 -0.6705  0.6993  1.3124
  121SOPE     N12785   4.339   6.141   6.850  0.0905  0.6739  0.1750
  121SOPE   HN112786   4.320   6.082   6.933 -0.9665  0.9267  0.1249
  121SOPE   HN212787   4.436   6.178   6.861  0.0279  1.0781 -0.5584
  121SOPE   HN312788   4.270   6.218   6.846  0.0131  0.5733 -0.7217
  121SOPE   C1212789   4.325   6.070   6.718 -0.1305  1.0500 -0.0025
  121SOPE  H12A12790   4.358   6.148   6.646 -0.7812  1.4098  0.0769
  121SOPE  H12B12791   4.219   6.046   6.696 -0.6551  2.9852  0.2168
  121SOPE   C1112792   4.392   5.929   6.719 -0.4596  0.0644 -0.0823
  121SOPE  H11A12793   4.419   5.922   6.611 -2.1707 -1.4522 -0.4562
  121SOPE  H11B12794   4.317   5.855   6.753 -0.9049 -0.9088 -2.8701
  121SOPE     P12795   4.582   5.800   6.858 -0.2254  0.1964  0.3896
  121SOPE   O1312796   4.486   5.686   6.872 -0.3501  0.6171 -0.3896
  121SOPE   O1412797   4.657   5.837   6.984  0.0590 -0.1678 -0.1840
  121SOPE   O1212798   4.510   5.925   6.804 -0.5444 -1.1544 -0.4264
  121SOPE   O1112799   4.678   5.770   6.738 -0.3492  0.7294 -0.5415
  121SOPE    C112800   4.629   5.690   6.627  0.8094  0.0177  0.2214
  121SOPE    HA12801   4.532   5.728   6.589 -0.3279 -0.5268  2.4231
  121SOPE    HB12802   4.612   5.583   6.651 -0.1561  0.1613  0.2182
  121SOPE    C212803   4.739   5.684   6.530 -0.9607 -0.3136 -0.0586
  121SOPE    HS12804   4.783   5.785   6.515  0.9631 -0.8383  1.4860
  121SOPE   O2112805   4.706   5.615   6.407 -0.1758  0.0102 -0.1874
  121SOPE   C2112806   4.646   5.678   6.329  0.4586  0.5482 -0.1073
  121SOPE   O2212807   4.600   5.792   6.340  0.3799 -0.1863  0.3983
  121SOPE   C2212808   4.628   5.590   6.198  0.0400 -0.9161 -0.1164
  121SOPE   H2R12809   4.583   5.492   6.225  1.2045 -1.0692  1.3996
  121SOPE   H2S12810   4.732   5.562   6.169 -0.2813 -0.6557 -1.5937
  121SOPE    C312811   4.860   5.613   6.598  0.3688  0.2642  0.0626
  121SOPE    HX12812   4.832   5.505   6.602 -0.6775  0.5222  0.1984
  121SOPE    HY12813   4.859   5.633   6.707  0.5089 -0.1804  0.1482
  121SOPE   O3112814   4.982   5.629   6.528 -0.3480 -0.4306 -0.3086
  121SOPE   C3112815   5.055   5.731   6.576 -0.1053 -0.0638 -0.3376
  121SOPE   O3212816   5.018   5.804   6.671  0.1506  0.5081  0.0825
  121SOPE   C3212817   5.193   5.722   6.501  0.8063 -0.3539 -0.0416
  121SOPE   H2X12818   5.256   5.651   6.559 -1.1680 -1.4436  0.8917
  121SOPE   H2Y12819   5.234   5.823   6.522 -0.5416 -0.2650  2.6274
  121SOPE   C2312820   4.552   5.653   6.078 -0.1956  0.0834  0.6599
  121SOPE   H3R12821   4.575   5.762   6.080 -0.3312  0.1552 -0.7974
  121SOPE   H3S12822   4.442   5.645   6.085 -0.1954 -0.0692  0.4905
  121SOPE   C2412823   4.582   5.601   5.930 -0.3577  0.2094 -0.0975
  121SOPE   H4R12824   4.504   5.642   5.863 -2.1999 -0.7426  1.3654
  121SOPE   H4S12825   4.680   5.639   5.893 -0.4444 -0.8920 -1.5298
  121SOPE   C2512826   4.579   5.446   5.914  0.6390 -0.5174 -0.6052
  121SOPE   H5R12827   4.652   5.402   5.985  0.7158  0.1262 -0.2738
  121SOPE   H5S12828   4.480   5.406   5.947  0.1567 -1.2737 -2.8025
  121SOPE   C2612829   4.593   5.408   5.769  0.3486 -0.1914 -0.4420
  121SOPE   H6R12830   4.545   5.312   5.742  0.4096  0.1768 -1.9474
  121SOPE   H6S12831   4.537   5.489   5.716  2.2561  0.9578 -0.8141
  121SOPE   C2712832   4.743   5.408   5.720  0.1248  0.2409  0.1143
  121SOPE   H7R12833   4.783   5.504   5.759  2.4520  0.1525 -1.8214
  121SOPE   H7S12834   4.808   5.327   5.760  0.1052 -1.7706 -3.4560
  121SOPE   C2812835   4.744   5.412   5.565  0.4628  0.3870  0.2426
  121SOPE   H8R12836   4.672   5.488   5.528 -1.0870 -1.3709 -0.5257
  121SOPE   H8S12837   4.850   5.439   5.545  0.6445 -0.7773 -0.5080
  121SOPE   C2912838   4.705   5.288   5.482  1.3894 -0.4803  0.1125
  121SOPE   H9112839   4.617   5.233   5.519  1.8921 -1.2385  0.2084
  121SOPE  C21012840   4.756   5.233   5.371  0.2381  0.6660 -0.4209
  121SOPE  H10112841   4.716   5.138   5.332 -0.0800  1.8383 -3.1638
  121SOPE  C21112842   4.871   5.287   5.297 -0.0710  0.5582 -0.3423
  121SOPE  H11R12843   4.927   5.363   5.356  1.7754 -0.7300 -0.3273
  121SOPE  H11S12844   4.834   5.346   5.211 -0.6139 -0.7160 -1.0065
  121SOPE  C21212845   4.953   5.165   5.246  0.0487  0.9320  0.0951
  121SOPE  H12R12846   4.937   5.082   5.317  0.3972 -0.3791 -1.3002
  121SOPE  H12S12847   5.062   5.187   5.239  0.2249 -0.2916 -1.8471
  121SOPE  C21312848   4.916   5.115   5.109  0.1741 -0.2203  0.3362
  121SOPE  H13R12849   4.809   5.129   5.084  0.8412  1.3757 -1.9725
  121SOPE  H13S12850   4.935   5.005   5.099 -0.5476 -0.3428  0.2981
  121SOPE  C21412851   5.005   5.170   4.985 -0.1152 -0.3090 -0.1974
  121SOPE  H14R12852   5.003   5.282   4.982 -0.6754 -0.3302 -0.9059
  121SOPE  H14S12853   4.960   5.133   4.891 -0.6553 -0.6689  0.1969
  121SOPE  C21512854   5.150   5.128   4.975 -0.6560 -0.4504 -0.0745
  121SOPE  H15R12855   5.147   5.017   4.974 -0.8262 -0.4622  0.8098
  121SOPE  H15S12856   5.202   5.159   5.068  1.9425 -1.7230 -0.9904
  121SOPE  C21612857   5.232   5.172   4.848  0.2414  0.0468 -0.0476
  121SOPE  H16R12858   5.161   5.245   4.803 -1.2162 -1.0534  0.3627
  121SOPE  H16S12859   5.236   5.088   4.776  1.0059  0.3923 -0.4102
  121SOPE  C21712860   5.367   5.242   4.864 -0.0706 -0.3679  0.3662
  121SOPE  H17R12861   5.376   5.283   4.967  4.5074 -1.7652  0.7383
  121SOPE  H17S12862   5.374   5.325   4.791 -1.0293 -0.6475 -0.0592
  121SOPE  C21812863   5.494   5.159   4.855 -0.6055  0.1856  0.4352
  121SOPE  H18R12864   5.494   5.094   4.765  0.0102 -1.0674  1.3123
  121SOPE  H18S12865   5.504   5.092   4.944 -1.3280  2.5857  2.4346
  121SOPE  H18T12866   5.583   5.224   4.845 -2.9886  3.6461 -0.0572
  121SOPE   C3312867   5.201   5.699   6.348  0.5734 -0.8011  0.0127
  121SOPE   H3X12868   5.153   5.601   6.328 -0.6341 -0.0603 -0.8672
  121SOPE   H3Y12869   5.306   5.682   6.316  0.5535  0.4767 -0.7781
  121SOPE   C3412870   5.154   5.814   6.259  0.1663  0.1236  0.2450
  121SOPE   H4X12871   5.167   5.801   6.150 -2.5799  2.4553 -0.4825
  121SOPE   H4Y12872   5.201   5.906   6.299 -0.0820  0.0597  0.6931
  121SOPE   C3512873   5.003   5.836   6.283 -0.1401 -0.1052 -0.2285
  121SOPE   H5X12874   4.983   5.886   6.380  1.6946 -1.9416  1.1660
  121SOPE   H5Y12875   4.943   5.742   6.289  1.9581 -1.4078  2.1887
  121SOPE   C3612876   4.948   5.925   6.175 -0.5979  0.3428  0.0273
  121SOPE   H6X12877   5.017   6.009   6.152  1.6088 -1.4362 -0.2007
  121SOPE   H6Y12878   4.853   5.963   6.217 -1.0717  0.1782 -0.8684
  121SOPE   C3712879   4.919   5.852   6.047 -0.5587  0.6310 -0.0776
  121SOPE   H7X12880   4.858   5.760   6.060 -0.0706  0.2951 -0.1438
  121SOPE   H7Y12881   5.016   5.814   6.009 -2.0777 -2.0121 -1.6744
  121SOPE   C3812882   4.857   5.931   5.930 -0.2672  0.3874 -0.0478
  121SOPE   H8X12883   4.899   6.031   5.902 -0.0699  0.2389 -0.2910
  121SOPE   H8Y12884   4.750   5.938   5.959 -0.6643 -1.9899 -0.7237
  121SOPE   C3912885   4.870   5.860   5.793 -0.4032 -0.4433 -0.0064
  121SOPE   H9X12886   4.844   5.753   5.798 -1.6864 -0.0796  1.8312
  121SOPE   H9Y12887   4.968   5.877   5.743 -0.0391  0.3991  0.9704
  121SOPE  C31012888   4.769   5.911   5.694 -0.2659  0.0661  0.0307
  121SOPE  H10X12889   4.783   6.019   5.674 -2.7774  0.7150  1.3408
  121SOPE  H10Y12890   4.670   5.909   5.744  0.6983  2.6176  2.2777
  121SOPE  C31112891   4.772   5.832   5.561 -0.2491  0.1469  0.3413
  121SOPE  H11X12892   4.699   5.876   5.489  1.6292  0.6436 -1.3715
  121SOPE  H11Y12893   4.737   5.728   5.575 -2.4844  0.8333  0.3669
  121SOPE  C31212894   4.904   5.816   5.485  0.4602  0.7524 -0.0273
  121SOPE  H12X12895   4.971   5.759   5.552  1.0333 -0.1158 -1.2986
  121SOPE  H12Y12896   4.957   5.910   5.460  1.9650  0.8808  3.1096
  121SOPE  C31312897   4.893   5.726   5.360  0.2358  0.0352 -0.1938
  121SOPE  H13X12898   4.835   5.634   5.385  1.5570 -0.6785  0.3310
  121SOPE  H13Y12899   4.996   5.686   5.352 -0.3558 -2.1492  1.7844
  121SOPE  C31412900   4.838   5.795   5.232 -0.2574  0.3909  0.4132
  121SOPE  H14X12901   4.729   5.817   5.235 -0.3651  0.2408 -1.3192
  121SOPE  H14Y12902   4.856   5.716   5.156 -0.3003 -1.4817  2.2499
  121SOPE  C31512903   4.911   5.930   5.192  0.4796  0.5353 -0.4094
  121SOPE  H15X12904   5.020   5.911   5.182  0.3787  1.1007 -3.2178
  121SOPE  H15Y12905   4.885   6.008   5.267 -0.9550  0.0565 -0.3949
  121SOPE  C31612906   4.862   5.988   5.060 -0.8299  0.3621 -0.4554
  121SOPE  H16X12907   4.923   6.080   5.048  1.6378 -1.2420 -0.9552
  121SOPE  H16Y12908   4.755   6.016   5.066 -1.3101 -1.0056 -1.9642
  121SOPE  C31712909   4.872   5.893   4.939  0.3889  0.7915 -0.1564
  121SOPE  H17X12910   4.789   5.821   4.953 -1.6143  2.1221 -3.7482
  121SOPE  H17Y12911   4.967   5.834   4.934 -0.3477 -0.3336 -2.0296
  121SOPE  C31812912   4.838   5.964   4.807  0.2378  0.6588  0.4045
  121SOPE  H18X12913   4.731   5.976   4.781  0.0929 -0.5106  0.3943
  121SOPE  H18Y12914   4.879   5.904   4.722  0.3924  0.9321  0.2853
  121SOPE  H18Z12915   4.882   6.066   4.803 -0.4080  0.9770  1.2909
  122SOPE     N12916   4.526   6.566   7.062 -0.2899  0.6431 -0.9344
  122SOPE   HN112917   4.564   6.659   7.087  0.4360  0.2107 -0.4034
  122SOPE   HN212918   4.493   6.518   7.149  0.8684  2.5846  0.6632
  122SOPE   HN312919   4.600   6.505   7.022 -0.4531  0.2730 -0.6791
  122SOPE   C1212920   4.414   6.599   6.964 -0.5138 -0.1568  0.1580
  122SOPE  H12A12921   4.345   6.663   7.023 -2.1330 -1.2495 -0.4751
  122SOPE  H12B12922   4.361   6.508   6.929 -1.3610  0.9926 -1.6538
  122SOPE   C1112923   4.467   6.679   6.851 -0.6931 -0.2630 -0.2314
  122SOPE  H11A12924   4.391   6.723   6.783  0.1390  2.4260  0.4493
  122SOPE  H11B12925   4.524   6.607   6.789 -0.9710 -1.7833  1.2205
  122SOPE     P12926   4.581   6.911   6.808 -0.5596 -0.2540 -0.2569
  122SOPE   O1312927   4.654   7.012   6.886 -0.2822  0.0170  0.1347
  122SOPE   O1412928   4.449   6.954   6.761 -0.0697  0.0231  0.1634
  122SOPE   O1212929   4.565   6.777   6.886 -0.2751 -0.2829  0.1334
  122SOPE   O1112930   4.673   6.871   6.688 -0.0234 -0.4214  0.5541
  122SOPE    C112931   4.741   6.746   6.678 -0.1327 -0.4132 -0.2454
  122SOPE    HA12932   4.717   6.671   6.756 -1.8268  2.1997  1.8953
  122SOPE    HB12933   4.851   6.760   6.683 -0.1899 -0.4312  2.3478
  122SOPE    C212934   4.728   6.676   6.533 -0.4237 -0.4080 -0.0373
  122SOPE    HS12935   4.778   6.745   6.462  0.2878 -2.1651 -1.3385
  122SOPE   O2112936   4.585   6.655   6.500 -0.3074 -0.4178 -0.2904
  122SOPE   C2112937   4.542   6.691   6.386  0.1595  0.1873  0.1547
  122SOPE   O2212938   4.610   6.735   6.298 -0.1386  0.1282  0.3387
  122SOPE   C2212939   4.401   6.640   6.369  0.2063 -0.2093 -0.1821
  122SOPE   H2R12940   4.334   6.649   6.458 -2.0146 -0.5277 -1.7201
  122SOPE   H2S12941   4.412   6.533   6.343  0.5627 -0.1135 -0.4277
  122SOPE    C312942   4.802   6.538   6.528  0.5397 -0.8820 -0.2244
  122SOPE    HX12943   4.745   6.486   6.607 -2.0411 -0.5067 -1.7213
  122SOPE    HY12944   4.908   6.558   6.558  0.1771 -0.4831  0.8552
  122SOPE   O3112945   4.783   6.469   6.399  0.1596 -0.8121 -0.1445
  122SOPE   C3112946   4.841   6.517   6.295  0.4075  0.5071  0.6113
  122SOPE   O3212947   4.917   6.615   6.292 -0.4451  0.1427  0.8834
  122SOPE   C3212948   4.799   6.441   6.167 -0.6569 -0.0275  0.4406
  122SOPE   H2X12949   4.743   6.514   6.105 -0.7685 -1.2015 -0.8942
  122SOPE   H2Y12950   4.724   6.363   6.191 -0.5706 -0.1831  0.2006
  122SOPE   C2312951   4.320   6.705   6.256  0.2189 -0.6106 -0.1743
  122SOPE   H3R12952   4.349   6.812   6.257 -3.2677  0.5225  2.8418
  122SOPE   H3S12953   4.211   6.706   6.281 -0.2603 -1.6181 -2.0118
  122SOPE   C2412954   4.343   6.633   6.126  0.1448 -0.2822  0.7393
  122SOPE   H4R12955   4.448   6.652   6.097 -0.3331 -0.2317 -1.0975
  122SOPE   H4S12956   4.317   6.526   6.135  0.1019 -0.2683  0.7813
  122SOPE   C2512957   4.267   6.698   6.013  0.6509 -0.6292  0.5602
  122SOPE   H5R12958   4.163   6.707   6.051  0.3611  0.3298 -0.3893
  122SOPE   H5S12959   4.306   6.799   5.991  0.3047 -0.0234  2.5308
  122SOPE   C2612960   4.281   6.616   5.883  1.4744  0.3734  0.3598
  122SOPE   H6R12961   4.385   6.632   5.847  0.6045  0.9604 -2.0802
  122SOPE   H6S12962   4.256   6.508   5.895 -0.2696  0.6910 -0.1882
  122SOPE   C2712963   4.199   6.665   5.774  0.0426 -0.2308  0.2499
  122SOPE   H7R12964   4.094   6.662   5.813  0.1437 -0.5502  0.5005
  122SOPE   H7S12965   4.210   6.774   5.757 -1.2167 -0.1090  0.0868
  122SOPE   C2812966   4.218   6.590   5.651 -0.1335 -0.0262  0.3971
  122SOPE   H8R12967   4.313   6.617   5.601  0.4350 -3.3996 -0.5546
  122SOPE   H8S12968   4.221   6.481   5.670  1.7276  0.0651  0.7873
  122SOPE   C2912969   4.104   6.608   5.557  0.7571  0.3783  0.3010
  122SOPE   H9112970   4.020   6.664   5.599  0.0377  1.3759 -2.2694
  122SOPE  C21012971   4.104   6.596   5.420  0.3912 -0.0117 -0.7714
  122SOPE  H10112972   4.012   6.619   5.363  0.0279  2.5906  0.6997
  122SOPE  C21112973   4.223   6.563   5.326  0.0255 -0.0411  0.1491
  122SOPE  H11R12974   4.223   6.463   5.279  1.5911 -0.0100  0.0372
  122SOPE  H11S12975   4.316   6.562   5.387 -1.3188 -0.8169  2.2974
  122SOPE  C21212976   4.254   6.657   5.200  0.5741 -0.0283  0.4334
  122SOPE  H12R12977   4.358   6.646   5.165 -0.0217 -0.2554 -1.3704
  122SOPE  H12S12978   4.225   6.758   5.236 -0.3271 -1.1195  3.0252
  122SOPE  C21312979   4.161   6.630   5.071  0.1870  0.3216 -0.6364
  122SOPE  H13R12980   4.141   6.721   5.010  0.2817 -0.0975 -1.3001
  122SOPE  H13S12981   4.068   6.601   5.124  0.1668 -0.1578 -0.9356
  122SOPE  C21412982   4.214   6.514   4.994 -0.2300 -0.0025  0.9518
  122SOPE  H14R12983   4.152   6.425   5.015 -1.3042  0.7299  0.9674
  122SOPE  H14S12984   4.316   6.488   5.030  0.5519  2.1397  0.4594
  122SOPE  C21512985   4.231   6.530   4.841  0.2693 -0.0085  0.3344
  122SOPE  H15R12986   4.270   6.430   4.814 -0.8697 -0.1542 -0.8424
  122SOPE  H15S12987   4.298   6.610   4.804 -1.2974  0.4542 -1.6823
  122SOPE  C21612988   4.110   6.552   4.752 -0.5661 -0.1393  0.1599
  122SOPE  H16R12989   4.097   6.658   4.784  1.3997 -0.3675  1.9204
  122SOPE  H16S12990   4.030   6.480   4.779 -0.3517  0.2292  1.9127
  122SOPE  C21712991   4.151   6.553   4.605  0.2521  0.0540 -0.3670
  122SOPE  H17R12992   4.253   6.510   4.606  0.3207 -0.0623 -3.4178
  122SOPE  H17S12993   4.159   6.652   4.556  1.0828 -0.5252 -1.4349
  122SOPE  C21812994   4.062   6.448   4.534  0.4750 -0.9687  0.3900
  122SOPE  H18R12995   4.090   6.443   4.426  0.0110  0.6189  0.1677
  122SOPE  H18S12996   3.954   6.473   4.540  0.1397 -2.2227 -0.0452
  122SOPE  H18T12997   4.075   6.345   4.572 -0.2663 -1.1904  0.0700
  122SOPE   C3312998   4.910   6.405   6.074  0.1547  0.6783  0.0592
  122SOPE   H3X12999   4.968   6.333   6.135 -1.7187  0.9538  2.2851
  122SOPE   H3Y13000   4.971   6.497   6.059  3.0596 -0.6845  2.4877
  122SOPE   C3413001   4.860   6.339   5.939 -0.1564 -0.2144  0.5679
  122SOPE   H4X13002   4.817   6.240   5.965  1.1905 -1.3506 -1.2527
  122SOPE   H4Y13003   4.949   6.308   5.880  1.2957  2.6159  1.0894
  122SOPE   C3513004   4.782   6.424   5.838 -0.5381  0.4932  0.3262
  122SOPE   H5X13005   4.851   6.507   5.812  1.6665 -1.7237 -1.3810
  122SOPE   H5Y13006   4.684   6.460   5.876 -1.1439  0.1863 -0.8924
  122SOPE   C3613007   4.749   6.345   5.711  0.3524  0.2329  0.6785
  122SOPE   H6X13008   4.680   6.265   5.744  2.0916 -2.5274 -1.8720
  122SOPE   H6Y13009   4.836   6.287   5.673  1.4096  1.9639  0.3068
  122SOPE   C3713010   4.687   6.423   5.597  0.5456  0.0293 -1.1303
  122SOPE   H7X13011   4.757   6.507   5.575  1.9419 -0.2044  1.9256
  122SOPE   H7Y13012   4.606   6.470   5.657  0.3901 -1.1348 -0.4164
  122SOPE   C3813013   4.641   6.343   5.476 -0.5341  0.0161  0.1508
  122SOPE   H8X13014   4.554   6.278   5.498 -1.9299  1.3826 -1.1855
  122SOPE   H8Y13015   4.730   6.283   5.447 -1.4109 -1.8483  1.1382
  122SOPE   C3913016   4.608   6.418   5.351  0.0014 -0.0579  0.2437
  122SOPE   H9X13017   4.696   6.427   5.285  0.5611 -0.4244  0.9317
  122SOPE   H9Y13018   4.587   6.522   5.383 -0.2497  0.4013 -1.3443
  122SOPE  C31013019   4.493   6.370   5.269 -0.6393 -0.2887 -0.3771
  122SOPE  H10X13020   4.472   6.461   5.209 -1.8406 -0.7123 -0.6358
  122SOPE  H10Y13021   4.400   6.358   5.328 -0.8606 -1.9604 -1.0172
  122SOPE  C31113022   4.510   6.233   5.196 -0.7121 -0.1767  0.3093
  122SOPE  H11X13023   4.516   6.152   5.272 -2.8936  0.5149  1.2826
  122SOPE  H11Y13024   4.604   6.234   5.136 -0.3513  1.4659  0.8441
  122SOPE  C31213025   4.404   6.197   5.093 -0.1567 -0.3383 -0.5830
  122SOPE  H12X13026   4.421   6.256   5.001 -0.3615 -0.8800 -0.9726
  122SOPE  H12Y13027   4.307   6.229   5.136 -0.1881 -0.2193 -0.7411
  122SOPE  C31313028   4.405   6.049   5.058 -0.1773 -0.2174 -0.1940
  122SOPE  H13X13029   4.363   5.985   5.138  1.4931 -1.6155 -0.3856
  122SOPE  H13Y13030   4.513   6.032   5.037 -0.0426 -0.6840  0.8429
  122SOPE  C31413031   4.314   6.014   4.935  0.0132  0.1814  0.7871
  122SOPE  H14X13032   4.344   6.067   4.842  1.4475 -3.3140 -0.9402
  122SOPE  H14Y13033   4.205   6.025   4.950 -0.2197  0.4635 -0.8945
  122SOPE  C31513034   4.341   5.862   4.894 -0.0714  0.0980 -0.1334
  122SOPE  H15X13035   4.332   5.795   4.982 -2.9990  1.6107  0.8812
  122SOPE  H15Y13036   4.447   5.854   4.864 -0.2815 -0.6625 -0.6911
  122SOPE  C31613037   4.258   5.814   4.777 -0.2998 -0.0548 -0.1048
  122SOPE  H16X13038   4.267   5.884   4.691  1.0061  0.2991  0.2909
  122SOPE  H16Y13039   4.153   5.813   4.814  0.2082  0.5236  1.4451
  122SOPE  C31713040   4.297   5.676   4.727  0.3029 -0.2053 -0.3858
  122SOPE  H17X13041   4.216   5.640   4.661  0.2312 -1.2871  0.2753
  122SOPE  H17Y13042   4.299   5.612   4.818  0.9539 -1.1287 -1.0386
  122SOPE  C31813043   4.433   5.678   4.660  0.5878  0.3669 -0.1655
  122SOPE  H18X13044   4.421   5.736   4.566  1.2700 -0.1877 -0.6085
  122SOPE  H18Y13045   4.458   5.574   4.628  1.3862  0.4756  0.0833
  122SOPE  H18Z13046   4.517   5.718   4.720  1.9532  0.1976 -1.8815
  123SOPE     N13047   6.262   5.688   1.803  0.6367  0.5068 -0.4357
  123SOPE   HN113048   6.160   5.705   1.795  0.5462 -0.1253 -0.7135
  123SOPE   HN213049   6.308   5.740   1.726 -1.2480  1.6697 -0.8324
  123SOPE   HN313050   6.272   5.584   1.802 -2.1804  0.1329 -1.7127
  123SOPE   C1213051   6.298   5.734   1.944 -0.1047 -0.6307  0.3851
  123SOPE  H12A13052   6.345   5.834   1.937  1.3492 -1.3737 -1.6441
  123SOPE  H12B13053   6.373   5.660   1.981 -1.2960 -1.1818  1.7619
  123SOPE   C1113054   6.172   5.732   2.037 -0.6702 -0.0667  0.1797
  123SOPE  H11A13055   6.084   5.791   2.003 -1.5997 -1.8759 -0.6930
  123SOPE  H11B13056   6.206   5.779   2.132  0.3326 -0.8431  0.2153
  123SOPE     P13057   5.981   5.561   2.103 -0.2558 -0.2454 -0.1812
  123SOPE   O1313058   5.968   5.421   2.150 -0.5754 -0.5605  0.0646
  123SOPE   O1413059   5.902   5.598   1.984  0.0988  0.0229 -0.3132
  123SOPE   O1213060   6.132   5.594   2.062 -0.1620  0.1152  0.2037
  123SOPE   O1113061   5.943   5.668   2.211 -0.4254  0.3865  0.0456
  123SOPE    C113062   6.012   5.685   2.337 -0.5811  0.3540 -0.2574
  123SOPE    HA13063   6.087   5.766   2.340  0.4063 -0.5262 -0.4838
  123SOPE    HB13064   6.063   5.594   2.374 -0.0817  0.9927  0.6437
  123SOPE    C213065   5.905   5.721   2.445  0.1891  0.5340  0.0054
  123SOPE    HS13066   5.862   5.817   2.408  0.3330  0.6831  0.2234
  123SOPE   O2113067   5.959   5.736   2.580  0.1480  0.0534 -0.2571
  123SOPE   C2113068   5.993   5.861   2.612  0.1390  0.1576 -0.5151
  123SOPE   O2213069   5.999   5.950   2.531 -0.3713  0.6623  0.0677
  123SOPE   C2213070   6.015   5.881   2.761 -0.6792 -0.1148  0.6890
  123SOPE   H2R13071   6.119   5.846   2.780 -0.6761  0.2159  1.3306
  123SOPE   H2S13072   5.946   5.826   2.829 -1.1603  0.2791  0.5282
  123SOPE    C313073   5.789   5.620   2.452  0.1879  0.1613  1.0205
  123SOPE    HX13074   5.829   5.524   2.489  0.3450  0.5555  1.9050
  123SOPE    HY13075   5.751   5.613   2.348 -0.8823 -1.8309  1.5052
  123SOPE   O3113076   5.679   5.672   2.526  0.7169 -0.0329  0.4137
  123SOPE   C3113077   5.615   5.581   2.604 -0.5139 -0.1486  0.0095
  123SOPE   O3213078   5.627   5.460   2.592  0.0452 -0.0842 -0.0889
  123SOPE   C3213079   5.510   5.651   2.691  0.4073  0.2682 -0.3640
  123SOPE   H2X13080   5.479   5.581   2.771 -1.7387  2.1355  0.5777
  123SOPE   H2Y13081   5.417   5.671   2.633 -0.0718 -1.2564 -0.1522
  123SOPE   C2313082   6.030   6.025   2.807  0.0170  0.1908 -0.0639
  123SOPE   H3R13083   5.939   6.087   2.791  0.1800  0.3823 -0.2526
  123SOPE   H3S13084   6.100   6.079   2.740 -0.6064  2.5847  1.1050
  123SOPE   C2413085   6.079   6.026   2.951  0.2054 -0.1599 -0.1852
  123SOPE   H4R13086   6.015   5.959   3.012 -0.5096 -0.0199 -0.7594
  123SOPE   H4S13087   6.186   5.998   2.951  0.8474  2.1195  0.3371
  123SOPE   C2513088   6.058   6.171   3.007 -1.0728 -0.5963  0.6151
  123SOPE   H5R13089   6.128   6.234   2.948 -2.7120  0.7765  0.0786
  123SOPE   H5S13090   5.958   6.210   2.979 -1.1517 -0.2401  1.3811
  123SOPE   C2613091   6.086   6.174   3.156  0.1460 -0.0875 -0.0478
  123SOPE   H6R13092   6.008   6.107   3.198 -1.0099  1.5695  0.5476
  123SOPE   H6S13093   6.183   6.130   3.185 -0.9539 -4.6766 -2.4314
  123SOPE   C2713094   6.063   6.316   3.204  0.1135 -0.3013 -0.1673
  123SOPE   H7R13095   6.114   6.384   3.133  1.3801 -0.3864  0.6255
  123SOPE   H7S13096   5.956   6.345   3.202 -0.1049 -1.0852 -1.5259
  123SOPE   C2813097   6.133   6.332   3.341  0.2700 -0.5073 -0.1268
  123SOPE   H8R13098   6.090   6.271   3.423 -0.2183 -1.0173 -0.7502
  123SOPE   H8S13099   6.240   6.304   3.341 -0.1244 -2.1527 -0.8000
  123SOPE   C2913100   6.129   6.480   3.376 -0.2806  0.6573  0.0733
  123SOPE   H9113101   6.085   6.542   3.297  0.6165  0.8783 -0.2544
  123SOPE  C21013102   6.168   6.542   3.489 -0.5181  0.5386  0.0449
  123SOPE  H10113103   6.134   6.646   3.501 -0.5723  0.4447  0.7453
  123SOPE  C21113104   6.215   6.476   3.617 -0.3510  0.0252 -0.2005
  123SOPE  H11R13105   6.310   6.519   3.656  1.0984 -1.9538 -1.3335
  123SOPE  H11S13106   6.245   6.369   3.616  1.7254  0.5593  0.2740
  123SOPE  C21213107   6.105   6.473   3.729  0.5308 -0.1809  0.1951
  123SOPE  H12R13108   6.019   6.413   3.692  0.0668  1.1875 -0.9932
  123SOPE  H12S13109   6.073   6.578   3.741  2.7109  0.5013  0.5532
  123SOPE  C21313110   6.146   6.403   3.853 -0.4554 -0.3436  0.7708
  123SOPE  H13R13111   6.238   6.453   3.889  2.0314 -2.1956 -2.4238
  123SOPE  H13S13112   6.174   6.297   3.840 -0.7933 -0.7404  2.9301
  123SOPE  C21413113   6.047   6.406   3.972 -0.4998 -0.5969 -0.1732
  123SOPE  H14R13114   6.072   6.335   4.054  1.4960 -1.3009 -1.3291
  123SOPE  H14S13115   5.946   6.384   3.932 -1.0965 -0.3955  1.1704
  123SOPE  C21513116   6.037   6.548   4.036 -0.0554  0.4111 -0.4876
  123SOPE  H15R13117   5.978   6.604   3.961 -0.0442  0.3428 -0.5477
  123SOPE  H15S13118   6.133   6.605   4.036 -0.3420  1.0528 -3.4580
  123SOPE  C21613119   5.965   6.548   4.171 -0.6642  0.3865 -1.2795
  123SOPE  H16R13120   5.858   6.532   4.144 -0.8303 -1.7708  0.3801
  123SOPE  H16S13121   5.987   6.651   4.205 -0.0551  0.1360 -0.8893
  123SOPE  C21713122   6.016   6.464   4.293 -0.0833  0.1218  0.1437
  123SOPE  H17R13123   6.110   6.514   4.326  0.5854 -0.9601 -0.0751
  123SOPE  H17S13124   6.025   6.358   4.260 -1.0315 -1.1400  3.4575
  123SOPE  C21813125   5.924   6.466   4.415 -0.4275 -0.3699 -0.1961
  123SOPE  H18R13126   5.913   6.572   4.447 -2.0697 -0.4489 -0.3908
  123SOPE  H18S13127   5.967   6.399   4.493  2.3028  0.9165 -0.4717
  123SOPE  H18T13128   5.824   6.423   4.392 -2.0868  2.5035  1.0590
  123SOPE   C3313129   5.566   5.773   2.762 -0.2107  0.6098 -0.7786
  123SOPE   H3X13130   5.477   5.822   2.806 -2.0662 -1.3566 -2.1184
  123SOPE   H3Y13131   5.619   5.838   2.689 -1.0931  1.9405 -0.2684
  123SOPE   C3413132   5.653   5.730   2.883 -0.0066 -0.0405  0.6462
  123SOPE   H4X13133   5.751   5.686   2.854 -0.7071 -0.6816 -0.8555
  123SOPE   H4Y13134   5.604   5.649   2.941  1.0029  0.2211  1.9089
  123SOPE   C3513135   5.689   5.856   2.964  0.2424 -0.8685 -0.7639
  123SOPE   H5X13136   5.600   5.911   3.002 -0.0129 -1.8153  0.0423
  123SOPE   H5Y13137   5.745   5.920   2.892  2.4131  1.5323  2.7326
  123SOPE   C3613138   5.776   5.835   3.092 -1.0525 -0.4140  0.6983
  123SOPE   H6X13139   5.800   5.936   3.130  0.4861  0.2400 -1.8276
  123SOPE   H6Y13140   5.878   5.798   3.064 -0.2473  1.2536  1.3212
  123SOPE   C3713141   5.704   5.748   3.194  0.5118 -0.1489 -0.2165
  123SOPE   H7X13142   5.688   5.642   3.162  1.5125 -0.4501  0.2534
  123SOPE   H7Y13143   5.606   5.799   3.199  0.4068 -0.2776 -0.8022
  123SOPE   C3813144   5.771   5.756   3.331 -0.2827  0.4370  0.1235
  123SOPE   H8X13145   5.783   5.862   3.363 -3.4188  1.2387 -1.0202
  123SOPE   H8Y13146   5.872   5.712   3.317 -0.4237  0.8263 -2.5287
  123SOPE   C3913147   5.689   5.673   3.431  0.4917 -0.5195 -0.1615
  123SOPE   H9X13148   5.674   5.571   3.391  2.4177 -0.0835 -2.2206
  123SOPE   H9Y13149   5.594   5.729   3.413  0.0070 -2.0583 -3.1079
  123SOPE  C31013150   5.730   5.680   3.577 -0.1951 -0.4963 -0.8100
  123SOPE  H10X13151   5.750   5.786   3.603 -0.1212 -0.3722 -1.3697
  123SOPE  H10Y13152   5.823   5.622   3.597 -1.3731 -2.0614  0.4578
  123SOPE  C31113153   5.618   5.615   3.671 -0.1419  0.0721  0.3733
  123SOPE  H11X13154   5.574   5.528   3.619  1.2689 -0.6097  0.2833
  123SOPE  H11Y13155   5.537   5.690   3.683 -1.1472 -0.9158 -0.1014
  123SOPE  C31213156   5.670   5.559   3.807  0.0469  0.2356  0.3469
  123SOPE  H12X13157   5.741   5.477   3.785  1.6931  2.0272 -1.4653
  123SOPE  H12Y13158   5.583   5.527   3.869 -0.2187 -0.7389 -0.4945
  123SOPE  C31313159   5.751   5.655   3.895 -0.1674 -0.0144  0.4711
  123SOPE  H13X13160   5.703   5.756   3.893 -2.3991 -1.0233 -0.0550
  123SOPE  H13Y13161   5.848   5.669   3.843  0.2915  0.1846  1.3591
  123SOPE  C31413162   5.782   5.605   4.033 -0.0693 -0.0889  0.7509
  123SOPE  H14X13163   5.840   5.510   4.029  0.8003  0.4574  0.1477
  123SOPE  H14Y13164   5.692   5.591   4.096 -0.8611  1.0483 -0.1047
  123SOPE  C31513165   5.873   5.707   4.108 -0.1776 -0.0938 -1.0789
  123SOPE  H15X13166   5.831   5.807   4.084  0.9547  1.2915  2.1415
  123SOPE  H15Y13167   5.984   5.700   4.100  0.1099  1.3792  0.7883
  123SOPE  C31613168   5.846   5.704   4.261 -0.4340 -0.5666 -0.0822
  123SOPE  H16X13169   5.736   5.719   4.269 -0.3004  0.2288  0.3851
  123SOPE  H16Y13170   5.886   5.800   4.300 -0.7436 -0.0691 -0.9663
  123SOPE  C31713171   5.910   5.592   4.338 -0.0749  0.3388  0.3415
  123SOPE  H17X13172   6.015   5.621   4.316 -1.0276  1.7798 -3.0096
  123SOPE  H17Y13173   5.902   5.487   4.301 -1.1267  0.8567 -0.9679
  123SOPE  C31813174   5.860   5.591   4.487  0.5390 -0.9440 -0.4696
  123SOPE  H18X13175   5.907   5.515   4.552  0.8152 -0.2778  0.1130
  123SOPE  H18Y13176   5.752   5.562   4.487  0.6163 -1.2418 -0.7078
  123SOPE  H18Z13177   5.861   5.695   4.527 -3.6242 -0.3491 -1.3857
  124SOPE     N13178   3.822   4.321   2.538  0.4449 -0.5272 -0.5681
  124SOPE   HN113179   3.810   4.259   2.455 -2.0888  1.6921 -2.0216
  124SOPE   HN213180   3.925   4.322   2.551  0.3483  1.0076  0.2847
  124SOPE   HN313181   3.786   4.272   2.623  2.2447 -0.1532  0.4612
  124SOPE   C1213182   3.764   4.457   2.526  0.7607 -0.2763 -0.5378
  124SOPE  H12A13183   3.656   4.442   2.505  1.1336 -0.9249 -2.2196
  124SOPE  H12B13184   3.808   4.520   2.445  0.4837  1.6129  0.7094
  124SOPE   C1113185   3.758   4.522   2.668  0.3231 -0.2233  0.2057
  124SOPE  H11A13186   3.862   4.534   2.706  0.0371  1.2213  0.5948
  124SOPE  H11B13187   3.704   4.456   2.739  2.1596 -0.6918  1.2058
  124SOPE     P13188   3.735   4.774   2.733 -0.0171  0.0337 -0.4907
  124SOPE   O1313189   3.621   4.853   2.788  0.2852  0.1672  0.2432
  124SOPE   O1413190   3.816   4.839   2.628  0.6172 -0.2090  0.4370
  124SOPE   O1213191   3.685   4.640   2.663  0.7382  0.2325  0.2386
  124SOPE   O1113192   3.829   4.717   2.848 -0.9899 -0.2181  0.1855
  124SOPE    C113193   3.969   4.745   2.851  0.3883  0.5495  0.3827
  124SOPE    HA13194   4.017   4.753   2.752  2.7728 -0.7916  1.3368
  124SOPE    HB13195   4.019   4.665   2.911  0.4543  1.7771  2.0555
  124SOPE    C213196   4.007   4.868   2.936 -0.3306  0.1667  0.0381
  124SOPE    HS13197   4.114   4.862   2.963 -0.3462  1.8387  0.5940
  124SOPE   O2113198   3.934   4.868   3.060 -0.0011 -0.2561  0.5270
  124SOPE   C2113199   3.984   4.780   3.158  0.2424 -0.6220 -0.3335
  124SOPE   O2213200   4.073   4.701   3.141 -0.2679  0.4846 -0.2197
  124SOPE   C2213201   3.922   4.804   3.295  0.6826 -0.3730  0.5838
  124SOPE   H2R13202   3.827   4.747   3.297  0.7414 -0.4614  1.0604
  124SOPE   H2S13203   3.903   4.913   3.303 -1.3794 -0.3432 -2.7983
  124SOPE    C313204   3.979   4.991   2.855 -0.3230 -0.4444  0.0614
  124SOPE    HX13205   3.868   5.000   2.850 -0.1846  0.7940 -1.9523
  124SOPE    HY13206   4.019   4.966   2.754 -1.1346 -2.2221  0.1387
  124SOPE   O3113207   4.041   5.107   2.913 -0.0249  0.1415 -0.8513
  124SOPE   C3113208   3.969   5.185   2.987  0.3712 -0.0785 -0.2013
  124SOPE   O3213209   3.854   5.174   3.016  0.4498 -0.6136 -0.2317
  124SOPE   C3213210   4.065   5.287   3.043 -0.6373 -0.0965 -0.5490
  124SOPE   H2X13211   4.077   5.370   2.969  2.2914  1.5443  1.5535
  124SOPE   H2Y13212   4.165   5.241   3.054  0.0429  1.8720  2.7875
  124SOPE   C2313213   4.006   4.736   3.403 -1.1604  0.3071 -0.0901
  124SOPE   H3R13214   4.109   4.775   3.395 -0.8643 -0.4020  0.1851
  124SOPE   H3S13215   4.016   4.626   3.393 -0.2989  0.3692 -0.0113
  124SOPE   C2413216   3.962   4.755   3.550  0.1282  0.0690 -0.1949
  124SOPE   H4R13217   3.867   4.700   3.565 -0.0767  0.1351 -1.1671
  124SOPE   H4S13218   4.039   4.708   3.615 -1.3003 -1.6624  0.3176
  124SOPE   C2513219   3.944   4.905   3.595 -0.0256 -0.2248 -0.2094
  124SOPE   H5R13220   4.038   4.961   3.582  1.1330 -1.7491  1.1349
  124SOPE   H5S13221   3.866   4.950   3.530  0.3027 -0.0277 -0.4630
  124SOPE   C2613222   3.894   4.924   3.734  0.2848 -0.0508 -0.1154
  124SOPE   H6R13223   3.906   5.031   3.762 -2.9893  0.9664 -2.0376
  124SOPE   H6S13224   3.785   4.905   3.743  0.5011 -1.2223  0.2268
  124SOPE   C2713225   3.954   4.841   3.856  0.0189  0.1395 -0.1031
  124SOPE   H7R13226   3.910   4.740   3.849 -2.4791  1.2054 -0.9169
  124SOPE   H7S13227   4.064   4.826   3.858 -0.0808 -0.5759  0.7085
  124SOPE   C2813228   3.912   4.891   4.002 -0.5934  0.6315 -0.2409
  124SOPE   H8R13229   3.821   4.954   3.995 -0.4989  0.6310 -1.6332
  124SOPE   H8S13230   3.892   4.798   4.060 -0.1723  0.5288 -0.2569
  124SOPE   C2913231   4.022   4.955   4.074  0.5429  0.4135  0.2879
  124SOPE   H9113232   4.107   4.980   4.009 -0.4659 -0.6288 -1.4939
  124SOPE  C21013233   4.036   4.970   4.205 -0.3543  0.0408 -0.0304
  124SOPE  H10113234   4.129   5.020   4.238  0.9028 -0.6989 -2.2284
  124SOPE  C21113235   3.934   4.928   4.318  0.2698  0.1902  0.1538
  124SOPE  H11R13236   3.960   4.822   4.338 -1.2412 -0.4129 -0.9406
  124SOPE  H11S13237   3.830   4.926   4.279  1.0232  0.1224 -1.9929
  124SOPE  C21213238   3.942   5.013   4.442 -0.4176 -0.0097 -0.4344
  124SOPE  H12R13239   4.044   5.023   4.485 -0.5339  2.6722 -0.6131
  124SOPE  H12S13240   3.889   4.965   4.527 -2.7497 -0.7328 -2.2131
  124SOPE  C21313241   3.895   5.157   4.420  0.0230 -0.3878 -0.6174
  124SOPE  H13R13242   3.802   5.160   4.360 -0.6093  4.7665  0.1173
  124SOPE  H13S13243   3.973   5.204   4.355  0.0469 -2.0442 -1.8429
  124SOPE  C21413244   3.880   5.231   4.550  0.5665  0.6635 -0.2015
  124SOPE  H14R13245   3.824   5.163   4.618 -2.4362  0.1504 -2.9609
  124SOPE  H14S13246   3.809   5.314   4.535  0.8304  0.6436 -1.6895
  124SOPE  C21513247   4.006   5.290   4.615 -0.2897 -0.4076 -0.5037
  124SOPE  H15R13248   4.050   5.380   4.566 -3.0027  2.1346  1.3925
  124SOPE  H15S13249   4.076   5.204   4.625  0.3710 -0.2342 -2.9614
  124SOPE  C21613250   3.975   5.347   4.763 -0.3424  0.5504  0.8620
  124SOPE  H16R13251   3.915   5.271   4.819 -2.4670  0.1934 -1.6781
  124SOPE  H16S13252   3.904   5.432   4.757  1.2023  1.7824 -1.2391
  124SOPE  C21713253   4.097   5.383   4.846 -0.5642 -0.5729 -0.3898
  124SOPE  H17R13254   4.169   5.445   4.787  0.7306 -1.2581  0.4301
  124SOPE  H17S13255   4.167   5.298   4.864  1.4051  0.8435 -1.0273
  124SOPE  C21813256   4.065   5.459   4.975 -0.0455  0.4467  0.2119
  124SOPE  H18R13257   4.152   5.418   5.032 -0.2027 -1.4606 -0.8410
  124SOPE  H18S13258   3.967   5.456   5.027  0.6690  1.2118  1.6709
  124SOPE  H18T13259   4.089   5.568   4.979  2.4504  0.0440 -1.1766
  124SOPE   C3313260   4.021   5.351   3.175 -0.1009 -0.0447  0.6572
  124SOPE   H3X13261   3.912   5.375   3.174 -0.8344 -2.7364 -2.1579
  124SOPE   H3Y13262   4.070   5.450   3.177  0.6909 -0.3283 -1.8174
  124SOPE   C3413263   4.077   5.277   3.307 -0.4161  0.4711 -0.1742
  124SOPE   H4X13264   4.188   5.271   3.308 -0.4638 -1.3534  1.5976
  124SOPE   H4Y13265   4.026   5.180   3.328 -1.3411  0.3839 -2.5228
  124SOPE   C3513266   4.045   5.360   3.433  0.3846 -0.0994  0.2946
  124SOPE   H5X13267   3.934   5.363   3.431  0.3670 -0.6338 -1.6887
  124SOPE   H5Y13268   4.082   5.464   3.416 -0.7821  0.7172  2.4110
  124SOPE   C3613269   4.115   5.312   3.565  0.4884 -0.5846 -0.2160
  124SOPE   H6X13270   4.223   5.298   3.548  0.1775 -0.5786 -2.4909
  124SOPE   H6Y13271   4.061   5.216   3.579 -1.8246  0.7571  0.6272
  124SOPE   C3713272   4.096   5.409   3.685  0.6072 -0.2703  0.0744
  124SOPE   H7X13273   3.988   5.435   3.696  0.9077  1.0739 -0.0197
  124SOPE   H7Y13274   4.144   5.507   3.666  1.5794 -0.7315  0.1277
  124SOPE   C3813275   4.153   5.366   3.819 -0.2521 -1.0123  0.0574
  124SOPE   H8X13276   4.264   5.366   3.810 -0.3163 -0.4093 -0.9605
  124SOPE   H8Y13277   4.106   5.268   3.840 -1.6765 -0.1354  1.1264
  124SOPE   C3913278   4.112   5.465   3.946 -0.6043  0.6459 -0.7685
  124SOPE   H9X13279   4.005   5.495   3.940  0.0933  3.1564 -1.9358
  124SOPE   H9Y13280   4.161   5.564   3.932  1.2698 -0.1863 -0.4001
  124SOPE  C31013281   4.149   5.404   4.085 -0.1795  0.8492 -0.8414
  124SOPE  H10X13282   4.102   5.303   4.085 -2.3719  1.8153 -0.7561
  124SOPE  H10Y13283   4.091   5.451   4.168  0.2789 -2.8469  1.8352
  124SOPE  C31113284   4.296   5.418   4.116  0.6456  0.1526  0.5039
  124SOPE  H11X13285   4.320   5.527   4.125  1.3085 -0.0076  0.7566
  124SOPE  H11Y13286   4.355   5.362   4.040  0.4803 -0.7637  1.0470
  124SOPE  C31213287   4.322   5.356   4.255  0.1147 -0.1086  0.0521
  124SOPE  H12X13288   4.267   5.260   4.243  1.1676 -0.4533 -2.6835
  124SOPE  H12Y13289   4.279   5.417   4.338 -0.1316  1.0404 -0.8987
  124SOPE  C31313290   4.465   5.344   4.293  0.5247  1.2743  0.4894
  124SOPE  H13X13291   4.514   5.289   4.210 -2.8163 -2.1459  0.4975
  124SOPE  H13Y13292   4.468   5.285   4.388  0.7548 -0.8514 -0.7747
  124SOPE  C31413293   4.526   5.478   4.317  0.0138 -0.7252 -0.4681
  124SOPE  H14X13294   4.476   5.547   4.388 -2.1238  0.0900 -2.6320
  124SOPE  H14Y13295   4.522   5.540   4.225 -1.4327  2.2089  1.4158
  124SOPE  C31513296   4.677   5.474   4.355 -0.1868  0.2045  0.9758
  124SOPE  H15X13297   4.720   5.571   4.321  0.2458 -0.4188 -0.3291
  124SOPE  H15Y13298   4.728   5.397   4.293  3.9652  2.5888  1.0102
  124SOPE  C31613299   4.704   5.453   4.500 -0.2891 -0.0495 -0.8013
  124SOPE  H16X13300   4.675   5.351   4.532 -1.4519  0.7840  0.9559
  124SOPE  H16Y13301   4.639   5.519   4.561  1.5121  0.6720  0.4241
  124SOPE  C31713302   4.840   5.477   4.554 -0.7619  0.8837  0.0600
  124SOPE  H17X13303   4.839   5.477   4.666 -0.7359 -0.5463  0.0817
  124SOPE  H17Y13304   4.878   5.578   4.528  0.7451  0.4819  0.6202
  124SOPE  C31813305   4.936   5.362   4.510  0.3240 -0.0919 -0.2030
  124SOPE  H18X13306   5.033   5.373   4.563  0.3689 -1.2752 -0.0097
  124SOPE  H18Y13307   4.954   5.373   4.401  2.4641 -3.3065 -0.2924
  124SOPE  H18Z13308   4.915   5.258   4.542  0.0005  0.4263  1.3659
  125SOPE     N13309   2.632   5.013   2.685  0.1700  0.0923 -0.2663
  125SOPE   HN113310   2.614   4.911   2.687  1.5754 -0.1925  1.7803
  125SOPE   HN213311   2.569   5.044   2.608  0.4579 -0.6210 -0.7988
  125SOPE   HN313312   2.732   5.034   2.664  0.0861  1.7992  0.7968
  125SOPE   C1213313   2.608   5.059   2.822 -0.4865 -0.2117  0.0129
  125SOPE  H12A13314   2.564   5.161   2.824  1.9012  0.8746 -0.0067
  125SOPE  H12B13315   2.707   5.068   2.870 -0.7623 -2.6720  1.2272
  125SOPE   C1113316   2.546   4.949   2.907 -0.4320  0.1602 -0.1622
  125SOPE  H11A13317   2.440   4.941   2.875 -0.0383  0.8508 -1.7513
  125SOPE  H11B13318   2.546   4.987   3.012  1.1868  1.4223 -0.5692
  125SOPE     P13319   2.557   4.696   2.844  0.6726  0.2118  0.0362
  125SOPE   O1313320   2.622   4.571   2.882  0.0111  0.2400  0.3653
  125SOPE   O1413321   2.566   4.738   2.703  0.7520 -0.1843 -0.4368
  125SOPE   O1213322   2.626   4.823   2.902 -0.0164  0.2377  0.6383
  125SOPE   O1113323   2.416   4.701   2.897 -0.3645  0.1940 -0.1412
  125SOPE    C113324   2.384   4.705   3.040  0.1171 -0.0663 -0.0034
  125SOPE    HA13325   2.276   4.711   3.066 -0.3284 -0.3224 -1.7218
  125SOPE    HB13326   2.430   4.795   3.085  2.3848  0.2362 -2.7151
  125SOPE    C213327   2.443   4.587   3.119  0.1498  1.0818  0.1431
  125SOPE    HS13328   2.553   4.584   3.107  0.0883 -2.0612 -0.2756
  125SOPE   O2113329   2.382   4.465   3.083  0.3412 -0.4011  0.1315
  125SOPE   C2113330   2.452   4.360   3.110  0.3509  0.2334  0.2567
  125SOPE   O2213331   2.566   4.344   3.146  0.3316  0.1854 -0.3313
  125SOPE   C2213332   2.360   4.234   3.102 -0.6463 -0.6093  0.4432
  125SOPE   H2R13333   2.362   4.176   3.007 -0.5890 -1.9948  1.2602
  125SOPE   H2S13334   2.255   4.270   3.110  0.2132  2.0070  0.6714
  125SOPE    C313335   2.409   4.617   3.267  0.0586  0.2487 -0.0653
  125SOPE    HX13336   2.423   4.522   3.323 -2.5577  0.1777  0.6507
  125SOPE    HY13337   2.300   4.641   3.263  0.1595  0.5891 -1.0520
  125SOPE   O3113338   2.479   4.719   3.333  0.0212  0.0165 -0.1288
  125SOPE   C3113339   2.411   4.762   3.442  0.4917 -0.1319 -0.4433
  125SOPE   O3213340   2.336   4.691   3.509 -0.0168  0.2903  0.1083
  125SOPE   C3213341   2.426   4.904   3.461  0.9348 -0.0560 -1.0336
  125SOPE   H2X13342   2.367   4.952   3.381  1.2531 -1.0188 -1.8656
  125SOPE   H2Y13343   2.532   4.937   3.461  1.1841 -0.8156 -0.5977
  125SOPE   C2313344   2.390   4.142   3.221 -0.6115  0.2807  0.3558
  125SOPE   H3R13345   2.498   4.115   3.216 -0.6118  0.3230  0.1114
  125SOPE   H3S13346   2.329   4.049   3.213 -2.0879  1.2424  0.1550
  125SOPE   C2413347   2.358   4.223   3.351 -0.6400 -0.2743  1.1700
  125SOPE   H4R13348   2.430   4.307   3.352 -1.1712  0.1869  0.8234
  125SOPE   H4S13349   2.260   4.273   3.361  0.0769  1.5586 -0.5250
  125SOPE   C2513350   2.402   4.152   3.480 -0.0754 -0.6274  0.0219
  125SOPE   H5R13351   2.347   4.057   3.494  1.3942 -1.5402 -0.1483
  125SOPE   H5S13352   2.512   4.140   3.470  0.0756  0.9849 -0.5148
  125SOPE   C2613353   2.393   4.237   3.611 -0.3331 -0.4055  0.7150
  125SOPE   H6R13354   2.443   4.334   3.589 -3.2490  0.9359 -0.6497
  125SOPE   H6S13355   2.286   4.255   3.634 -1.0673 -0.9129 -1.9366
  125SOPE   C2713356   2.439   4.154   3.724 -0.0719 -0.2232 -0.2391
  125SOPE   H7R13357   2.401   4.052   3.699  2.4543 -0.5997 -3.1405
  125SOPE   H7S13358   2.550   4.145   3.722 -0.0749 -1.4740  2.1218
  125SOPE   C2813359   2.381   4.190   3.865 -0.2855  0.0916  0.0295
  125SOPE   H8R13360   2.420   4.290   3.896  1.9573 -0.7780  0.2174
  125SOPE   H8S13361   2.271   4.199   3.852 -0.5555 -1.5745  0.9436
  125SOPE   C2913362   2.401   4.083   3.967  0.2920 -0.1861 -0.8327
  125SOPE   H9113363   2.415   3.983   3.923 -0.7276 -0.7386  0.0685
  125SOPE  C21013364   2.404   4.107   4.098 -0.0111  0.1951  0.1065
  125SOPE  H10113365   2.417   4.028   4.173 -0.4468  0.0588  0.0394
  125SOPE  C21113366   2.391   4.239   4.165 -0.0633  0.5881 -0.0515
  125SOPE  H11R13367   2.299   4.286   4.125 -0.3078  0.1386 -0.0176
  125SOPE  H11S13368   2.475   4.310   4.147  0.8096 -0.4874 -0.3620
  125SOPE  C21213369   2.382   4.218   4.318  0.0190 -0.0011  0.8678
  125SOPE  H12R13370   2.488   4.207   4.349  0.2100  0.6170  0.4679
  125SOPE  H12S13371   2.323   4.129   4.350 -0.0774 -1.1556 -2.1670
  125SOPE  C21313372   2.315   4.341   4.374  0.0141 -0.5119 -0.5162
  125SOPE  H13R13373   2.211   4.348   4.335 -0.5602 -1.8525  0.6641
  125SOPE  H13S13374   2.361   4.437   4.342  1.0924 -1.5337 -2.1482
  125SOPE  C21413375   2.307   4.339   4.520 -0.4373 -0.2176  0.2136
  125SOPE  H14R13376   2.409   4.349   4.563  0.0507 -2.6419 -0.2191
  125SOPE  H14S13377   2.267   4.238   4.543  1.0341 -1.3059 -1.7035
  125SOPE  C21513378   2.220   4.443   4.583 -0.4145 -0.2549 -0.0918
  125SOPE  H15R13379   2.115   4.442   4.548 -1.1535 -0.8639  2.0301
  125SOPE  H15S13380   2.264   4.541   4.554 -0.9553  0.4293  1.3141
  125SOPE  C21613381   2.237   4.436   4.733 -0.1424 -0.0347  0.0335
  125SOPE  H16R13382   2.337   4.406   4.770 -0.0759  1.1851  0.8720
  125SOPE  H16S13383   2.173   4.353   4.772 -0.7990  1.6371  2.7604
  125SOPE  C21713384   2.197   4.569   4.797  0.2602 -0.2134  0.0531
  125SOPE  H17R13385   2.102   4.613   4.758 -0.3311  1.6259  3.2083
  125SOPE  H17S13386   2.270   4.648   4.770 -0.6073  0.5161 -0.2065
  125SOPE  C21813387   2.176   4.557   4.947  0.3776  0.3959 -0.1653
  125SOPE  H18R13388   2.149   4.655   4.992  0.3212 -0.5184  1.9173
  125SOPE  H18S13389   2.265   4.524   5.005  0.7879  0.6324 -0.6593
  125SOPE  H18T13390   2.088   4.491   4.962  0.8380 -0.1646  0.1422
  125SOPE   C3313391   2.379   4.956   3.606 -0.2825 -0.7684 -0.7581
  125SOPE   H3X13392   2.279   4.921   3.639 -0.8197  0.0746 -1.4712
  125SOPE   H3Y13393   2.384   5.066   3.591  2.5665 -0.4331  1.6707
  125SOPE   C3413394   2.487   4.918   3.710 -0.2420  0.1961  0.3973
  125SOPE   H4X13395   2.582   4.971   3.687 -0.6070  0.2543 -1.0641
  125SOPE   H4Y13396   2.508   4.809   3.712  0.9371  0.4075  2.7248
  125SOPE   C3513397   2.432   4.964   3.844 -0.3984  0.0805  0.0380
  125SOPE   H5X13398   2.379   4.873   3.881 -0.2840 -0.5117 -1.1973
  125SOPE   H5Y13399   2.370   5.055   3.836  1.0115  1.4245  2.8947
  125SOPE   C3613400   2.546   4.986   3.946  0.2740  0.2141  0.1402
  125SOPE   H6X13401   2.610   5.072   3.917 -0.2731  0.8896  0.8671
  125SOPE   H6Y13402   2.615   4.899   3.947 -0.1527 -0.1246  0.8000
  125SOPE   C3713403   2.487   5.024   4.086 -0.4511 -0.8127  0.5295
  125SOPE   H7X13404   2.408   4.949   4.105  3.2041 -4.5009  2.8986
  125SOPE   H7Y13405   2.445   5.127   4.093 -0.2540 -0.7133  0.2974
  125SOPE   C3813406   2.595   5.012   4.204  0.6739  1.2307  0.1516
  125SOPE   H8X13407   2.670   5.093   4.199  2.7307 -0.6479 -1.4036
  125SOPE   H8Y13408   2.646   4.913   4.199 -0.3946  0.6559  0.2679
  125SOPE   C3913409   2.517   4.996   4.345 -0.4564  0.7427  0.4628
  125SOPE   H9X13410   2.455   4.905   4.348 -0.2451  0.6087  1.0302
  125SOPE   H9Y13411   2.452   5.081   4.374  0.9419  2.2353 -0.5783
  125SOPE  C31013412   2.615   4.966   4.463  0.1559 -0.5327 -0.4134
  125SOPE  H10X13413   2.709   5.025   4.460  0.1323 -0.4471  0.4068
  125SOPE  H10Y13414   2.628   4.856   4.462 -0.4908 -0.6878  1.9342
  125SOPE  C31113415   2.565   4.977   4.608  0.2963  0.1313  0.2047
  125SOPE  H11X13416   2.636   4.932   4.680 -2.1207  0.6405  3.1358
  125SOPE  H11Y13417   2.469   4.926   4.632 -0.1986  1.0695  0.2739
  125SOPE  C31213418   2.551   5.127   4.651  0.5704 -0.1126  0.3067
  125SOPE  H12X13419   2.476   5.178   4.587  1.0263  1.7439  1.1780
  125SOPE  H12Y13420   2.653   5.171   4.648  0.1915  0.7487 -0.7848
  125SOPE  C31313421   2.479   5.146   4.788  0.1077  0.0118 -0.2983
  125SOPE  H13X13422   2.516   5.065   4.854 -0.4126 -1.2883 -1.5456
  125SOPE  H13Y13423   2.371   5.124   4.770 -0.1290  0.8232  0.0950
  125SOPE  C31413424   2.489   5.286   4.842 -0.4892  0.4828 -0.0301
  125SOPE  H14X13425   2.406   5.349   4.803  0.1188 -0.3141 -2.8514
  125SOPE  H14Y13426   2.581   5.340   4.810 -0.0134  0.5052  1.3312
  125SOPE  C31513427   2.488   5.292   4.993 -0.1089 -0.2981 -0.6144
  125SOPE  H15X13428   2.582   5.246   5.029 -0.5199 -0.4036  0.3448
  125SOPE  H15Y13429   2.399   5.241   5.036  0.0702  0.2287  0.4180
  125SOPE  C31613430   2.496   5.441   5.055 -0.5067 -0.5779  0.7200
  125SOPE  H16X13431   2.482   5.444   5.165 -0.7166  1.8129  0.6734
  125SOPE  H16Y13432   2.427   5.503   4.993  3.2014  2.1581 -1.0208
  125SOPE  C31713433   2.640   5.514   5.033  0.4862 -0.7900  0.5364
  125SOPE  H17X13434   2.629   5.620   5.065  1.5261 -0.6067  0.3256
  125SOPE  H17Y13435   2.669   5.500   4.927 -1.2882 -1.9574  0.1735
  125SOPE  C31813436   2.750   5.452   5.116  0.0102 -0.1583 -0.2643
  125SOPE  H18X13437   2.845   5.509   5.106  0.6936 -1.1311  0.3897
  125SOPE  H18Y13438   2.774   5.349   5.083 -1.3554 -1.5284  2.6417
  125SOPE  H18Z13439   2.727   5.454   5.225  1.4860 -0.3260  0.0771
  126SOPE     N13440   3.251   1.182   2.665 -0.2647 -0.3777  0.0487
  126SOPE   HN113441   3.229   1.246   2.586 -1.8100 -2.6657 -1.4571
  126SOPE   HN213442   3.351   1.154   2.668 -0.2655 -0.7349 -1.9030
  126SOPE   HN313443   3.202   1.094   2.643 -0.4538 -0.5694  1.1557
  126SOPE   C1213444   3.201   1.236   2.802 -0.2909  0.5487  0.9476
  126SOPE  H12A13445   3.198   1.153   2.876  1.7838 -1.2929 -0.8938
  126SOPE  H12B13446   3.095   1.270   2.802 -0.1252  1.0635  0.7212
  126SOPE   C1113447   3.298   1.343   2.856 -0.2829 -0.1305 -0.2580
  126SOPE  H11A13448   3.388   1.288   2.891  0.8150  3.1269  2.4562
  126SOPE  H11B13449   3.253   1.397   2.942  0.9643  1.6663 -0.6668
  126SOPE     P13450   3.464   1.534   2.756  0.4140 -0.1153  0.0286
  126SOPE   O1313451   3.414   1.674   2.782 -0.0192 -0.3052 -0.1675
  126SOPE   O1413452   3.532   1.512   2.628  0.6133  0.2410  0.1779
  126SOPE   O1213453   3.336   1.441   2.759  0.2123  0.2167 -0.0187
  126SOPE   O1113454   3.543   1.477   2.879 -0.2600 -0.4660  0.0001
  126SOPE    C113455   3.679   1.442   2.870 -0.6196 -0.2273 -0.1781
  126SOPE    HA13456   3.728   1.429   2.771 -0.8800  1.3797 -0.5401
  126SOPE    HB13457   3.693   1.339   2.909  0.9040  0.1435  0.3455
  126SOPE    C213458   3.761   1.530   2.975 -0.3063 -0.1034 -0.0631
  126SOPE    HS13459   3.867   1.497   2.962 -0.1604  0.9148 -1.8218
  126SOPE   O2113460   3.721   1.525   3.110  0.0533  0.3046  0.1427
  126SOPE   C2113461   3.764   1.414   3.169 -0.9621 -0.7261 -0.2533
  126SOPE   O2213462   3.826   1.324   3.114  0.2640 -0.2185  0.4773
  126SOPE   C2213463   3.716   1.410   3.311 -0.4265  0.0221 -0.1583
  126SOPE   H2R13464   3.606   1.416   3.297 -0.4205  1.8834  0.3775
  126SOPE   H2S13465   3.735   1.499   3.375 -1.2743  0.9838 -1.1784
  126SOPE    C313466   3.776   1.682   2.923 -0.2801 -0.4404  0.0337
  126SOPE    HX13467   3.674   1.726   2.923  0.0037  0.3502 -2.5887
  126SOPE    HY13468   3.801   1.673   2.815 -0.7345 -0.5149 -0.0661
  126SOPE   O3113469   3.871   1.762   2.994  0.3731 -0.0455  0.3997
  126SOPE   C3113470   3.824   1.828   3.099 -0.0402  0.2647  0.2557
  126SOPE   O3213471   3.711   1.859   3.127  0.2301 -0.6694  0.5116
  126SOPE   C3213472   3.949   1.864   3.184 -0.1719 -0.0275  0.3787
  126SOPE   H2X13473   3.941   1.969   3.219 -0.8978 -0.6684  2.2167
  126SOPE   H2Y13474   4.040   1.858   3.120  0.2600 -0.9632  1.0564
  126SOPE   C2313475   3.771   1.281   3.373 -0.0932 -0.4513 -0.9982
  126SOPE   H3R13476   3.881   1.280   3.362  0.5114  2.7605  2.6366
  126SOPE   H3S13477   3.745   1.185   3.323  0.6362 -1.1161 -0.1450
  126SOPE   C2413478   3.721   1.256   3.520  0.0341 -0.1066  0.6044
  126SOPE   H4R13479   3.744   1.347   3.580  0.5551  2.7166 -3.4227
  126SOPE   H4S13480   3.611   1.250   3.512 -0.3378  2.0613  2.8421
  126SOPE   C2513481   3.774   1.124   3.577  0.0519 -0.7300 -0.5405
  126SOPE   H5R13482   3.753   1.048   3.499 -0.4301  0.4283 -1.5724
  126SOPE   H5S13483   3.885   1.129   3.577  0.0777 -0.8964 -1.9357
  126SOPE   C2613484   3.710   1.085   3.718  0.5317  0.4506  0.4912
  126SOPE   H6R13485   3.728   1.166   3.791  0.0968 -0.7630  2.0129
  126SOPE   H6S13486   3.600   1.072   3.712  0.5524  0.4874 -0.0740
  126SOPE   C2713487   3.785   0.958   3.769  0.1484  0.2685 -0.2821
  126SOPE   H7R13488   3.767   0.884   3.689 -0.6546  2.0829 -1.8525
  126SOPE   H7S13489   3.891   0.984   3.790  0.3875 -1.8233  1.5268
  126SOPE   C2813490   3.729   0.901   3.903  0.0377  0.4973 -0.1229
  126SOPE   H8R13491   3.755   0.974   3.982 -0.2616  0.9720 -0.4583
  126SOPE   H8S13492   3.618   0.900   3.897  0.0879 -0.2889 -1.3325
  126SOPE   C2913493   3.786   0.764   3.945  0.3095  0.0377  0.0434
  126SOPE   H9113494   3.893   0.764   3.969  0.0962  1.6403  1.2000
  126SOPE  C21013495   3.725   0.646   3.937  0.2954 -0.2514 -0.7773
  126SOPE  H10113496   3.774   0.550   3.958 -0.4642 -0.8030 -1.4351
  126SOPE  C21113497   3.574   0.628   3.911 -0.3060 -0.9398 -0.2403
  126SOPE  H11R13498   3.515   0.721   3.925  0.9801 -0.0358 -0.6047
  126SOPE  H11S13499   3.523   0.554   3.975 -1.5347 -0.3310 -0.4787
  126SOPE  C21213500   3.561   0.576   3.763  0.6479 -0.6957 -0.2915
  126SOPE  H12R13501   3.608   0.652   3.697 -3.6443  1.8178 -0.7989
  126SOPE  H12S13502   3.453   0.581   3.739 -0.2618 -0.6567  3.2748
  126SOPE  C21313503   3.601   0.432   3.743  0.0567  0.8700  0.1968
  126SOPE  H13R13504   3.564   0.374   3.831  0.8093  0.9255  0.5559
  126SOPE  H13S13505   3.711   0.417   3.746 -0.1997 -1.6421 -0.3890
  126SOPE  C21413506   3.525   0.377   3.619 -0.4045  0.1160 -0.3043
  126SOPE  H14R13507   3.416   0.392   3.629 -0.9835 -3.1036 -0.8039
  126SOPE  H14S13508   3.532   0.266   3.616 -0.5720  0.1041 -0.2796
  126SOPE  C21513509   3.565   0.435   3.486 -0.8904 -0.4385  0.3694
  126SOPE  H15R13510   3.674   0.432   3.465 -1.1908  0.8150 -1.5880
  126SOPE  H15S13511   3.545   0.544   3.482  0.7561 -0.1180  0.4679
  126SOPE  C21613512   3.486   0.369   3.374  0.8274 -0.9167 -0.6061
  126SOPE  H16R13513   3.380   0.367   3.407  1.2978  2.4402  1.6955
  126SOPE  H16S13514   3.524   0.267   3.352  1.8884 -0.1382 -2.5742
  126SOPE  C21713515   3.497   0.435   3.236  0.7350 -0.0011 -0.3981
  126SOPE  H17R13516   3.411   0.410   3.171  2.4832 -0.2848 -2.7337
  126SOPE  H17S13517   3.591   0.395   3.192  1.0821  0.0581  0.2832
  126SOPE  C21813518   3.496   0.582   3.237  0.8055  0.5253 -0.0394
  126SOPE  H18R13519   3.593   0.624   3.271 -0.3697  1.3435  2.6101
  126SOPE  H18S13520   3.419   0.624   3.306  0.5963  0.1642 -0.0529
  126SOPE  H18T13521   3.483   0.627   3.136 -1.8609 -0.7643 -0.3722
  126SOPE   C3313522   3.966   1.784   3.319  0.3589 -0.3461 -0.1318
  126SOPE   H3X13523   4.073   1.763   3.338  0.1246 -0.2111  1.5186
  126SOPE   H3Y13524   3.924   1.681   3.306  0.4260 -0.2822 -0.9178
  126SOPE   C3413525   3.896   1.851   3.443 -0.2551  0.2887  0.1865
  126SOPE   H4X13526   3.788   1.824   3.435 -0.3415  0.3168  1.2060
  126SOPE   H4Y13527   3.906   1.960   3.428 -1.5123  0.3673 -0.2776
  126SOPE   C3513528   3.946   1.786   3.565 -0.3944 -0.2448 -0.5048
  126SOPE   H5X13529   4.057   1.788   3.559 -0.2180 -2.6161  0.7969
  126SOPE   H5Y13530   3.912   1.681   3.559  0.6140 -0.7282  1.5043
  126SOPE   C3613531   3.907   1.858   3.699  0.0806 -0.1143  1.2797
  126SOPE   H6X13532   3.801   1.888   3.710 -0.4730 -1.9133  1.0482
  126SOPE   H6Y13533   3.964   1.952   3.716  1.1375 -0.3131 -0.8326
  126SOPE   C3713534   3.954   1.782   3.830 -1.1380  0.0983  0.2693
  126SOPE   H7X13535   4.062   1.758   3.820 -1.2458  0.2166 -1.5524
  126SOPE   H7Y13536   3.901   1.686   3.812 -0.2268 -0.6766  1.5457
  126SOPE   C3813537   3.936   1.851   3.960 -0.0788 -1.0881 -0.2740
  126SOPE   H8X13538   3.866   1.937   3.955  0.0837 -1.0059 -1.1851
  126SOPE   H8Y13539   4.032   1.902   3.981 -1.1332  0.3533  1.4296
  126SOPE   C3913540   3.894   1.757   4.074 -0.0696 -0.0072 -0.1600
  126SOPE   H9X13541   3.968   1.674   4.077 -0.8265 -0.6656  1.0720
  126SOPE   H9Y13542   3.794   1.715   4.048 -0.0473  1.2538 -2.5557
  126SOPE  C31013543   3.878   1.821   4.217 -0.5103 -0.7299 -0.4454
  126SOPE  H10X13544   3.809   1.907   4.218  0.0501 -0.2685  0.6253
  126SOPE  H10Y13545   3.974   1.870   4.246 -1.5675  1.2013 -0.0964
  126SOPE  C31113546   3.839   1.709   4.324 -0.3495 -0.6415 -0.5665
  126SOPE  H11X13547   3.901   1.619   4.304 -0.5797 -0.6185 -1.4401
  126SOPE  H11Y13548   3.733   1.685   4.302 -1.2613  3.2738 -1.2796
  126SOPE  C31213549   3.872   1.755   4.466 -0.1298 -0.0613 -0.2649
  126SOPE  H12X13550   3.825   1.851   4.493  0.9104 -0.0539  1.6633
  126SOPE  H12Y13551   3.982   1.764   4.480  0.2516 -0.2634 -2.6800
  126SOPE  C31313552   3.821   1.661   4.571  0.3255  0.2491 -0.1143
  126SOPE  H13X13553   3.813   1.555   4.538  3.1974  0.6203 -2.4951
  126SOPE  H13Y13554   3.725   1.696   4.615 -0.0639 -0.6186 -0.2533
  126SOPE  C31413555   3.916   1.671   4.700  0.1984 -0.8743 -0.2150
  126SOPE  H14X13556   3.928   1.776   4.732 -2.5901 -0.5736  0.1377
  126SOPE  H14Y13557   4.013   1.631   4.664 -0.5084 -2.9024 -0.0453
  126SOPE  C31513558   3.871   1.580   4.811 -0.0675  0.0213 -0.2181
  126SOPE  H15X13559   3.880   1.478   4.767  1.6860 -0.2166  0.5835
  126SOPE  H15Y13560   3.766   1.609   4.832 -0.0511  0.1960 -0.3812
  126SOPE  C31613561   3.955   1.578   4.934 -0.6651  0.1622  0.0948
  126SOPE  H16X13562   3.911   1.499   4.999 -0.4121 -1.1536 -1.2877
  126SOPE  H16Y13563   3.947   1.676   4.986 -0.3170  0.1310  0.2034
  126SOPE  C31713564   4.100   1.535   4.906 -0.4962  0.7302  0.8401
  126SOPE  H17X13565   4.159   1.612   4.851 -1.2674  0.1971 -0.8112
  126SOPE  H17Y13566   4.094   1.450   4.835  0.9194  2.0376 -0.9619
  126SOPE  C31813567   4.185   1.485   5.016  0.1893  0.2687 -0.1035
  126SOPE  H18X13568   4.117   1.410   5.062 -0.5936  0.1319 -1.4252
  126SOPE  H18Y13569   4.211   1.564   5.089 -2.2367  0.1952  0.9436
  126SOPE  H18Z13570   4.283   1.443   4.987 -0.5103 -0.9384 -0.7985
  127SOPE     N13571   5.212   1.672   2.650  0.3389 -0.0195  0.3519
  127SOPE   HN113572   5.249   1.668   2.747  1.0729  0.0071  0.0808
  127SOPE   HN213573   5.158   1.760   2.635  2.7422  1.0443 -3.5879
  127SOPE   HN313574   5.144   1.593   2.651  1.9211 -1.4477  1.0491
  127SOPE   C1213575   5.328   1.669   2.545  0.2737 -0.7008 -0.1110
  127SOPE  H12A13576   5.286   1.694   2.445 -3.5460  0.2531  1.5245
  127SOPE  H12B13577   5.384   1.574   2.552  1.4574  0.1104  2.4398
  127SOPE   C1113578   5.425   1.789   2.582  0.3722  1.0611 -0.4736
  127SOPE  H11A13579   5.360   1.877   2.601 -0.4404 -0.0424  2.4901
  127SOPE  H11B13580   5.490   1.805   2.493  2.2362  0.0860  0.6603
  127SOPE     P13581   5.630   1.690   2.710 -0.0772  0.2422  0.2702
  127SOPE   O1313582   5.625   1.572   2.619 -0.6912 -0.1526  0.0141
  127SOPE   O1413583   5.654   1.645   2.844 -0.4575  0.0906 -0.0927
  127SOPE   O1213584   5.490   1.763   2.709  0.2660  0.3978  0.1214
  127SOPE   O1113585   5.738   1.793   2.661 -0.3725  0.1094  0.0933
  127SOPE    C113586   5.768   1.922   2.711 -0.0843 -0.4866 -0.6255
  127SOPE    HA13587   5.674   1.970   2.746 -0.6418  0.4146 -3.1700
  127SOPE    HB13588   5.789   1.992   2.627 -1.1785 -1.1470 -1.4754
  127SOPE    C213589   5.874   1.925   2.815 -0.2257 -0.2819  0.4671
  127SOPE    HS13590   5.964   1.872   2.777 -0.3217 -1.5731  1.9734
  127SOPE   O2113591   5.819   1.867   2.936 -0.2277  0.5169  0.0634
  127SOPE   C2113592   5.910   1.808   3.012  0.8622  0.2068  0.1309
  127SOPE   O2213593   6.024   1.780   2.981  0.0649 -0.3312 -0.6669
  127SOPE   C2213594   5.849   1.767   3.146  0.0512 -0.2236  0.2388
  127SOPE   H2R13595   5.763   1.699   3.127  0.4129 -0.9918  1.2556
  127SOPE   H2S13596   5.803   1.856   3.193  1.5087  0.5110  0.3060
  127SOPE    C313597   5.920   2.078   2.846  0.0404  0.3919  0.4737
  127SOPE    HX13598   5.824   2.131   2.864  0.6544  1.7077 -0.0664
  127SOPE    HY13599   5.973   2.116   2.757  1.2647  2.3243  1.9594
  127SOPE   O3113600   5.995   2.095   2.967  0.0310 -0.7607 -0.1202
  127SOPE   C3113601   6.121   2.126   2.965  0.9332  0.6859 -0.6526
  127SOPE   O3213602   6.195   2.125   2.868  0.0143  0.2323 -0.4298
  127SOPE   C3213603   6.165   2.154   3.116  0.5037 -0.6583  0.6074
  127SOPE   H2X13604   6.126   2.253   3.150 -0.0765 -0.2940 -1.0038
  127SOPE   H2Y13605   6.275   2.167   3.115  0.3931  0.4902  1.2451
  127SOPE   C2313606   5.950   1.705   3.242  0.0259  0.3423 -0.1589
  127SOPE   H3R13607   6.045   1.759   3.257  0.0176 -0.4031  3.2414
  127SOPE   H3S13608   5.980   1.607   3.198 -0.1826  0.0210  0.3969
  127SOPE   C2413609   5.895   1.674   3.378 -0.3888 -0.1546 -0.7301
  127SOPE   H4R13610   5.977   1.624   3.435 -1.2365  0.2383  0.8784
  127SOPE   H4S13611   5.886   1.770   3.433  4.8856 -0.0946  0.5493
  127SOPE   C2513612   5.774   1.587   3.390  0.1907 -0.3666  0.1723
  127SOPE   H5R13613   5.692   1.654   3.358  1.7938  0.5655 -2.3286
  127SOPE   H5S13614   5.772   1.509   3.310 -2.8942  2.3292 -2.7116
  127SOPE   C2613615   5.748   1.537   3.532 -0.4425 -0.2457  0.9417
  127SOPE   H6R13616   5.827   1.459   3.549  0.1301  0.3025  0.8393
  127SOPE   H6S13617   5.770   1.620   3.602  0.5864 -0.0335  0.3835
  127SOPE   C2713618   5.615   1.477   3.559  1.0321  0.6193  0.4484
  127SOPE   H7R13619   5.551   1.567   3.560  0.2047  0.0516 -0.1225
  127SOPE   H7S13620   5.586   1.415   3.472 -1.2206  0.0656  1.5323
  127SOPE   C2813621   5.600   1.395   3.692 -0.4354 -0.0763 -0.2261
  127SOPE   H8R13622   5.571   1.477   3.761 -0.6739  0.6362 -1.1541
  127SOPE   H8S13623   5.504   1.342   3.676 -0.8809  1.3847 -2.9767
  127SOPE   C2913624   5.719   1.308   3.736 -0.0640 -0.4540 -0.2170
  127SOPE   H9113625   5.750   1.222   3.675 -0.1884 -0.3594 -0.4149
  127SOPE  C21013626   5.790   1.327   3.850  0.1542 -0.3704 -0.0014
  127SOPE  H10113627   5.878   1.266   3.873 -0.0900 -0.3570  1.0255
  127SOPE  C21113628   5.776   1.429   3.957  1.0617  0.5760  0.1046
  127SOPE  H11R13629   5.670   1.448   3.983  0.2224 -0.4742 -2.1991
  127SOPE  H11S13630   5.820   1.526   3.924 -2.5915  2.9641  1.7006
  127SOPE  C21213631   5.844   1.399   4.094  0.5618 -0.0124  0.1222
  127SOPE  H12R13632   5.948   1.367   4.071  0.0871 -0.3414 -1.7117
  127SOPE  H12S13633   5.793   1.308   4.133 -0.5432 -0.1358 -1.5124
  127SOPE  C21313634   5.814   1.498   4.206 -0.2691 -0.5378  0.0473
  127SOPE  H13R13635   5.705   1.513   4.214 -0.5738 -1.0017 -2.4191
  127SOPE  H13S13636   5.862   1.597   4.191 -1.8404  1.2533  4.8157
  127SOPE  C21413637   5.882   1.466   4.340 -0.5341  0.5766 -0.3387
  127SOPE  H14R13638   5.991   1.449   4.325 -0.5004 -0.4407  0.9515
  127SOPE  H14S13639   5.849   1.373   4.390  2.6376  0.6968  2.3345
  127SOPE  C21513640   5.867   1.574   4.435 -0.3045 -0.0154  0.1373
  127SOPE  H15R13641   5.760   1.602   4.444 -0.0655  0.6951  0.8807
  127SOPE  H15S13642   5.918   1.665   4.397  1.2678 -0.6492  0.6044
  127SOPE  C21613643   5.937   1.546   4.567  0.6014  0.2864 -0.2087
  127SOPE  H16R13644   5.975   1.635   4.622  1.2252 -0.6419  0.8909
  127SOPE  H16S13645   6.034   1.497   4.546  0.0472 -1.6722  1.5820
  127SOPE  C21713646   5.844   1.474   4.661 -0.2698  0.0843  0.8323
  127SOPE  H17R13647   5.893   1.432   4.752  1.7180 -0.4098 -0.4028
  127SOPE  H17S13648   5.805   1.377   4.624 -0.2721 -0.2821  1.7593
  127SOPE  C21813649   5.729   1.561   4.709  0.1995  0.1765  0.2047
  127SOPE  H18R13650   5.638   1.564   4.645 -0.6363  1.2011  1.3903
  127SOPE  H18S13651   5.769   1.665   4.712 -0.3722  0.3996  0.3466
  127SOPE  H18T13652   5.693   1.543   4.813 -3.3604  0.0872 -0.9058
  127SOPE   C3313653   6.119   2.051   3.218 -0.2880 -0.0994 -0.5881
  127SOPE   H3X13654   6.164   1.950   3.203  0.4771  0.4631 -2.5462
  127SOPE   H3Y13655   6.009   2.043   3.218 -0.4397  1.7081 -0.8294
  127SOPE   C3413656   6.153   2.104   3.359  0.3903  0.4486  0.1194
  127SOPE   H4X13657   6.101   2.203   3.358 -1.5979 -0.5221 -2.0391
  127SOPE   H4Y13658   6.263   2.112   3.378  0.7105 -1.3474 -0.7804
  127SOPE   C3513659   6.100   2.019   3.476 -0.4594  0.5257  0.3720
  127SOPE   H5X13660   6.167   1.932   3.489  1.1506  1.7420  0.5316
  127SOPE   H5Y13661   6.000   1.977   3.453  0.6938 -2.3168  0.1007
  127SOPE   C3613662   6.109   2.097   3.612  0.1688 -0.2724 -0.8576
  127SOPE   H6X13663   6.035   2.180   3.603  1.1606  0.6524 -0.6255
  127SOPE   H6Y13664   6.215   2.127   3.627  0.3070 -1.3862  0.6331
  127SOPE   C3713665   6.061   2.000   3.725 -0.0473 -0.1937 -0.1321
  127SOPE   H7X13666   6.058   2.061   3.817  0.3912 -0.2946 -0.0468
  127SOPE   H7Y13667   6.134   1.918   3.742 -1.5711 -0.9665  3.7792
  127SOPE   C3813668   5.913   1.941   3.717 -0.1735  0.8567 -0.2336
  127SOPE   H8X13669   5.917   1.855   3.647  1.6079  2.7349 -2.5947
  127SOPE   H8Y13670   5.838   2.016   3.685  0.9296  1.1302 -2.3186
  127SOPE   C3913671   5.878   1.885   3.859  0.1020 -0.1419 -0.3580
  127SOPE   H9X13672   5.973   1.842   3.898  0.5111 -0.4580 -1.6319
  127SOPE   H9Y13673   5.804   1.803   3.848  0.6079 -0.4107 -2.2746
  127SOPE  C31013674   5.813   1.989   3.958  0.8806 -0.3466 -0.1309
  127SOPE  H10X13675   5.739   2.041   3.892  0.5148  0.6696  1.0434
  127SOPE  H10Y13676   5.902   2.054   3.975  0.3277  0.9381 -1.7599
  127SOPE  C31113677   5.759   1.928   4.080  0.0705  0.4894  0.0927
  127SOPE  H11X13678   5.845   1.873   4.124  0.4367  0.6807 -0.3768
  127SOPE  H11Y13679   5.686   1.848   4.056  1.2001 -0.1378 -1.3836
  127SOPE  C31213680   5.696   2.026   4.179  0.6445  0.6867  0.1195
  127SOPE  H12X13681   5.611   2.075   4.128 -0.3641 -0.9440  0.1810
  127SOPE  H12Y13682   5.769   2.108   4.197 -0.4185  1.2880  1.8944
  127SOPE  C31313683   5.646   1.969   4.314 -0.0772 -0.1552 -0.4853
  127SOPE  H13X13684   5.604   2.054   4.372  0.6155 -1.1530  1.5644
  127SOPE  H13Y13685   5.738   1.938   4.368 -0.4830  2.3476  1.8348
  127SOPE  C31413686   5.558   1.850   4.308  0.4765  0.4270  0.3345
  127SOPE  H14X13687   5.609   1.766   4.257  0.2024 -1.2164  2.5561
  127SOPE  H14Y13688   5.462   1.876   4.258 -0.1146  1.0408  1.7227
  127SOPE  C31513689   5.513   1.777   4.437  0.4119 -0.5094 -0.1425
  127SOPE  H15X13690   5.598   1.733   4.493 -1.2562  0.3676  3.4072
  127SOPE  H15Y13691   5.464   1.680   4.415 -2.3786  0.9652 -0.8702
  127SOPE  C31613692   5.430   1.863   4.535 -0.0739  0.0573 -0.0451
  127SOPE  H16X13693   5.346   1.903   4.475 -1.8677 -0.9544  1.6886
  127SOPE  H16Y13694   5.505   1.934   4.576  0.3678 -1.7649  2.5881
  127SOPE  C31713695   5.374   1.791   4.653 -0.7767  0.9943  0.5449
  127SOPE  H17X13696   5.354   1.857   4.740 -0.9618 -0.1540  1.3964
  127SOPE  H17Y13697   5.459   1.732   4.694  0.2711  2.5223  0.6277
  127SOPE  C31813698   5.266   1.694   4.628  0.3019  0.3987 -0.3358
  127SOPE  H18X13699   5.289   1.609   4.561 -0.6453  0.2696 -0.5078
  127SOPE  H18Y13700   5.179   1.749   4.587  0.0633 -1.1653 -2.0523
  127SOPE  H18Z13701   5.235   1.649   4.724  1.0599 -0.8656 -0.6613
  128SOPE     N13702   2.050   0.496   2.712  0.5599 -0.1255 -0.1040
  128SOPE   HN113703   2.147   0.512   2.746  0.4442 -1.0126  0.6997
  128SOPE   HN213704   2.016   0.571   2.648 -2.6447 -0.7539  0.6623
  128SOPE   HN313705   1.995   0.488   2.800 -0.3481 -1.7338 -0.7612
  128SOPE   C1213706   2.036   0.368   2.628 -0.3758  0.4836 -0.6898
  128SOPE  H12A13707   2.107   0.295   2.671 -1.4549 -1.9371 -2.7424
  128SOPE  H12B13708   2.072   0.395   2.526  1.9336  1.4826  0.3412
  128SOPE   C1113709   1.893   0.310   2.625  0.5339  0.1980  0.4811
  128SOPE  H11A13710   1.873   0.249   2.716 -0.8595 -0.0759  0.0183
  128SOPE  H11B13711   1.892   0.245   2.535 -0.2948  0.3202  0.3920
  128SOPE     P13712   1.649   0.381   2.581 -0.0436 -0.1330 -0.0812
  128SOPE   O1313713   1.638   0.348   2.438  0.7276 -0.3793  0.1498
  128SOPE   O1413714   1.559   0.488   2.629  0.6513  0.8317  0.1466
  128SOPE   O1213715   1.801   0.417   2.610  0.2575 -0.2992  0.0665
  128SOPE   O1113716   1.626   0.249   2.666  0.5733  0.3378  0.0112
  128SOPE    C113717   1.509   0.233   2.748  0.0272  0.7354 -0.3062
  128SOPE    HA13718   1.418   0.251   2.688 -1.8933 -0.1943  2.1722
  128SOPE    HB13719   1.505   0.306   2.832  1.0654 -0.0535  0.4652
  128SOPE    C213720   1.498   0.097   2.813 -0.1019  0.0345  0.0075
  128SOPE    HS13721   1.452   0.023   2.744 -0.4390  0.6123 -0.3932
  128SOPE   O2113722   1.420   0.111   2.932  0.0655  0.2509 -0.3994
  128SOPE   C2113723   1.291   0.122   2.925 -0.4029  0.8183 -0.5689
  128SOPE   O2213724   1.221   0.090   2.833  0.8393 -0.5322 -0.7748
  128SOPE   C2213725   1.239   0.194   3.053 -0.3580 -0.8593 -0.3234
  128SOPE   H2R13726   1.301   0.165   3.140  0.4030 -0.4501 -0.7185
  128SOPE   H2S13727   1.137   0.156   3.073 -0.1045 -1.1752  0.4041
  128SOPE    C313728   1.635   0.044   2.858 -0.4404  0.0438  0.7785
  128SOPE    HX13729   1.696   0.126   2.901  0.1952 -0.0631  0.1004
  128SOPE    HY13730   1.693   0.020   2.766  2.5261  0.7261  2.3473
  128SOPE   O3113731   1.630  -0.080   2.930 -0.5629  0.7118 -0.0556
  128SOPE   C3113732   1.738  -0.100   3.014 -0.0691 -0.1589 -0.0783
  128SOPE   O3213733   1.837  -0.037   3.009  0.2644  0.0067 -0.4916
  128SOPE   C3213734   1.696  -0.214   3.114 -0.3108  0.5905  0.0201
  128SOPE   H2X13735   1.681  -0.306   3.053 -1.2872  0.8019 -0.0720
  128SOPE   H2Y13736   1.594  -0.210   3.157  1.1019  0.1629  3.7944
  128SOPE   C2313737   1.250   0.353   3.039  0.6421 -0.6146 -0.7236
  128SOPE   H3R13738   1.193   0.367   2.945 -2.6442 -0.5217  1.1258
  128SOPE   H3S13739   1.358   0.378   3.040  0.9463 -1.8726  0.2611
  128SOPE   C2413740   1.188   0.429   3.156 -0.9309  0.0846  0.1597
  128SOPE   H4R13741   1.226   0.532   3.141  0.5292 -0.7205 -2.4074
  128SOPE   H4S13742   1.079   0.424   3.135 -0.6598 -1.2340 -1.1489
  128SOPE   C2513743   1.227   0.377   3.300  0.8219  0.2290 -0.0941
  128SOPE   H5R13744   1.159   0.291   3.321 -1.0809  2.0100  1.5236
  128SOPE   H5S13745   1.330   0.340   3.320  1.1934  2.1961  2.0670
  128SOPE   C2613746   1.220   0.483   3.410 -0.3980 -0.0910 -0.6906
  128SOPE   H6R13747   1.257   0.431   3.502 -0.2090  0.0322 -0.6959
  128SOPE   H6S13748   1.288   0.570   3.395  2.0108 -1.6938  0.4112
  128SOPE   C2713749   1.079   0.540   3.438  0.5527  0.2132 -0.2561
  128SOPE   H7R13750   1.040   0.563   3.337 -1.0735 -3.3456 -0.5742
  128SOPE   H7S13751   1.014   0.464   3.486  2.5490 -2.2571 -1.2185
  128SOPE   C2813752   1.081   0.671   3.517 -0.0535  0.2212 -0.1817
  128SOPE   H8R13753   1.125   0.749   3.451 -5.1626  2.5123 -1.3807
  128SOPE   H8S13754   0.976   0.706   3.530 -0.3655 -0.3595 -1.0717
  128SOPE   C2913755   1.143   0.658   3.659 -0.2638 -0.1958  0.5123
  128SOPE   H9113756   1.252   0.669   3.670  0.2093  0.4987 -3.4850
  128SOPE  C21013757   1.071   0.616   3.765 -0.0667  0.1819  0.1498
  128SOPE  H10113758   1.119   0.615   3.864 -0.1963  1.0389  0.2282
  128SOPE  C21113759   0.932   0.568   3.763  0.4334  0.0797 -0.2514
  128SOPE  H11R13760   0.932   0.461   3.734  1.4064 -0.2451  0.8715
  128SOPE  H11S13761   0.866   0.621   3.691 -0.5885  0.8756  1.1998
  128SOPE  C21213762   0.865   0.568   3.899 -0.0739  0.1850 -0.0358
  128SOPE  H12R13763   0.925   0.503   3.966 -1.6404 -1.1150  0.1627
  128SOPE  H12S13764   0.767   0.516   3.901  0.4244 -0.7838 -0.0120
  128SOPE  C21313765   0.853   0.706   3.954 -0.0651 -0.5702 -0.6456
  128SOPE  H13R13766   0.808   0.773   3.878 -2.9852  0.2194  1.6180
  128SOPE  H13S13767   0.948   0.760   3.973  1.3117 -1.9084 -3.1374
  128SOPE  C21413768   0.771   0.722   4.088 -0.0207  1.0292  0.2334
  128SOPE  H14R13769   0.688   0.650   4.075 -0.4684  1.5383  0.2216
  128SOPE  H14S13770   0.733   0.826   4.091 -0.2730  0.9163  1.4464
  128SOPE  C21513771   0.862   0.691   4.209  0.5991 -0.4550 -0.6177
  128SOPE  H15R13772   0.931   0.778   4.213  0.3937 -0.3300  0.4052
  128SOPE  H15S13773   0.918   0.596   4.191 -0.7894 -1.6345  0.9942
  128SOPE  C21613774   0.789   0.679   4.344  0.2882 -0.0855  0.2716
  128SOPE  H16R13775   0.751   0.783   4.358  1.7452  0.4289  0.6428
  128SOPE  H16S13776   0.867   0.676   4.423  0.2590  1.1227  0.3649
  128SOPE  C21713777   0.678   0.570   4.360 -0.5248  0.2332  0.1668
  128SOPE  H17R13778   0.704   0.494   4.283 -2.1233 -1.3621  1.1218
  128SOPE  H17S13779   0.581   0.615   4.331  0.7777  1.6266 -2.3238
  128SOPE  C21813780   0.663   0.504   4.500  0.5229  0.3669  0.5829
  128SOPE  H18R13781   0.574   0.438   4.499  1.0233 -0.4781 -3.5647
  128SOPE  H18S13782   0.638   0.579   4.578 -1.2751 -0.1071  0.5145
  128SOPE  H18T13783   0.753   0.444   4.525  1.1058  1.1286  0.3409
  128SOPE   C3313784   1.805  -0.225   3.219  0.0412  0.3070 -0.9562
  128SOPE   H3X13785   1.902  -0.219   3.164 -0.4733  1.2751 -1.7989
  128SOPE   H3Y13786   1.805  -0.319   3.278 -1.3739  1.1879  0.5199
  128SOPE   C3413787   1.791  -0.109   3.324 -0.2837 -0.4182  0.4175
  128SOPE   H4X13788   1.791  -0.008   3.277 -1.7157  0.1998  1.6722
  128SOPE   H4Y13789   1.880  -0.105   3.390  0.9977  0.0001 -1.2482
  128SOPE   C3513790   1.672  -0.139   3.422 -0.2390  0.6180  0.1575
  128SOPE   H5X13791   1.585  -0.165   3.358  1.4194  0.7837 -2.2946
  128SOPE   H5Y13792   1.658  -0.043   3.475  1.1705  0.9369 -0.0017
  128SOPE   C3613793   1.711  -0.248   3.519 -0.2987  0.3002  0.1957
  128SOPE   H6X13794   1.771  -0.221   3.608  0.3460 -1.4011  0.3168
  128SOPE   H6Y13795   1.770  -0.329   3.471  1.5539  0.0029  2.7646
  128SOPE   C3713796   1.570  -0.295   3.578  0.0511  0.3969 -0.4733
  128SOPE   H7X13797   1.507  -0.358   3.511  1.0811  0.0418 -1.1419
  128SOPE   H7Y13798   1.515  -0.209   3.620  1.5695  1.2573 -0.1846
  128SOPE   C3813799   1.599  -0.389   3.707  0.2177  0.2663  0.0143
  128SOPE   H8X13800   1.690  -0.355   3.760 -0.6977 -0.7669  2.3925
  128SOPE   H8Y13801   1.619  -0.494   3.676  0.2431 -0.8127  3.3231
  128SOPE   C3913802   1.484  -0.390   3.810 -0.5539 -0.4348  0.6206
  128SOPE   H9X13803   1.385  -0.403   3.761 -0.3210  0.1536 -0.0150
  128SOPE   H9Y13804   1.484  -0.293   3.863  1.1584  1.2318 -2.2082
  128SOPE  C31013805   1.499  -0.504   3.914  0.3115 -0.0812 -0.1055
  128SOPE  H10X13806   1.512  -0.598   3.857 -0.3239 -0.0206 -0.3597
  128SOPE  H10Y13807   1.401  -0.500   3.967  0.1814 -0.3498 -0.3270
  128SOPE  C31113808   1.614  -0.485   4.016  0.3516  0.1062  0.5180
  128SOPE  H11X13809   1.595  -0.391   4.072  0.8752 -0.7409  2.1918
  128SOPE  H11Y13810   1.713  -0.466   3.968  0.1190  0.2317  0.0870
  128SOPE  C31213811   1.637  -0.601   4.111 -0.4146  0.0393  0.6985
  128SOPE  H12X13812   1.746  -0.603   4.137 -1.0127 -1.3057  3.5274
  128SOPE  H12Y13813   1.621  -0.697   4.057  2.0511 -1.0324  1.6815
  128SOPE  C31313814   1.547  -0.605   4.236 -0.7384 -0.4766  0.3918
  128SOPE  H13X13815   1.442  -0.580   4.211 -0.6203  1.3326  1.5387
  128SOPE  H13Y13816   1.590  -0.536   4.312 -3.8730 -0.4182  2.2577
  128SOPE  C31413817   1.542  -0.744   4.314 -0.1798  0.2670  0.7787
  128SOPE  H14X13818   1.485  -0.812   4.247  1.2489 -0.9546  0.7697
  128SOPE  H14Y13819   1.479  -0.731   4.404 -1.9419  0.5080 -0.4248
  128SOPE  C31513820   1.681  -0.797   4.360  0.1961 -0.5573  0.0046
  128SOPE  H15X13821   1.719  -0.712   4.419 -0.9386  0.3954 -0.5904
  128SOPE  H15Y13822   1.755  -0.828   4.283  0.4794 -1.3414  0.5854
  128SOPE  C31613823   1.670  -0.926   4.452 -0.0597 -0.6386 -0.0460
  128SOPE  H16X13824   1.772  -0.957   4.482  0.4180  2.0173  1.3729
  128SOPE  H16Y13825   1.627  -1.008   4.390  1.5767  0.5250 -2.9053
  128SOPE  C31713826   1.586  -0.907   4.580  0.1117  0.0749 -0.5597
  128SOPE  H17X13827   1.477  -0.888   4.570  0.1916  1.6167  0.9080
  128SOPE  H17Y13828   1.617  -0.810   4.626 -1.0581  0.6477 -0.9519
  128SOPE  C31813829   1.609  -1.028   4.669  0.0933  0.5684 -0.2098
  128SOPE  H18X13830   1.582  -1.120   4.612  0.4764 -0.7049  1.5922
  128SOPE  H18Y13831   1.552  -1.023   4.764 -0.4809 -0.6211 -0.4645
  128SOPE  H18Z13832   1.715  -1.044   4.700 -0.4481 -0.6607  1.1239
  129OSM      N13833   0.769   3.848   6.868  0.2958 -0.8403  0.7035
  129OSM    C1513834   0.759   3.946   6.980  0.5853  0.6255 -0.3266
  129OSM   H15A13835   0.691   4.028   6.965 -0.7652 -0.5274 -0.6763
  129OSM   H15B13836   0.850   3.998   7.006 -1.1429  2.7208  2.0858
  129OSM   H15C13837   0.736   3.895   7.072  1.3938 -0.1931 -0.5686
  129OSM    C1413838   0.650   3.754   6.859  0.2603 -0.5618 -0.1017
  129OSM   H14A13839   0.678   3.667   6.916  1.7937 -0.0606 -0.0449
  129OSM   H14B13840   0.633   3.725   6.757 -1.2947 -1.5799  0.4076
  129OSM   H14C13841   0.562   3.798   6.906 -0.6275 -1.1345 -1.1778
  129OSM    C1313842   0.770   3.924   6.732 -0.5160  0.2401 -0.8423
  129OSM   H13A13843   0.680   3.981   6.717 -1.2116 -0.3866  0.7532
  129OSM   H13B13844   0.775   3.851   6.652  1.0794 -2.1586  1.2733
  129OSM   H13C13845   0.857   3.988   6.734  0.0965 -0.4184  3.3253
  129OSM    C1213846   0.907   3.769   6.875  0.0132  0.4892  0.0695
  129OSM   H12A13847   0.987   3.841   6.871  0.5031 -0.1092 -1.7564
  129OSM   H12B13848   0.920   3.701   6.793 -2.0954  0.1915 -0.0718
  129OSM    C1113849   0.935   3.675   6.996  0.6044 -0.0926 -0.1332
  129OSM   H11A13850   0.907   3.716   7.095  0.1267  0.8732 -0.6548
  129OSM   H11B13851   1.043   3.659   7.014 -0.0687 -0.7533  4.4782
  129OSM      P13852   0.928   3.416   6.919  0.0377  0.0659  0.0982
  129OSM    O1313853   1.029   3.364   7.012  0.2086 -0.0659  0.0746
  129OSM    O1413854   0.826   3.318   6.872  0.6456 -0.5449  0.4461
  129OSM    O1113855   1.008   3.464   6.794 -0.5845  0.1974 -0.0271
  129OSM    O1213856   0.856   3.551   6.974  0.1688  0.0751 -0.6160
  129OSM    C1S13857   0.948   3.456   6.665 -0.2495 -0.6285 -0.0984
  129OSM    H1S13858   0.843   3.490   6.676 -0.6728 -1.9403  0.1277
  129OSM    H1T13859   0.952   3.350   6.633 -1.1296 -0.7824  0.2725
  129OSM     NF13860   0.924   3.573   6.459  0.4665 -0.1841 -0.1722
  129OSM    HNF13861   0.951   3.526   6.376  1.1653  0.7852 -0.5148
  129OSM    C2S13862   1.009   3.565   6.571  0.4366  0.1282  0.0823
  129OSM    H2S13863   1.009   3.665   6.619  1.6253  1.2082 -2.0614
  129OSM    C3S13864   1.153   3.526   6.538 -0.2724 -0.9810  0.1163
  129OSM    H3S13865   1.136   3.438   6.471  0.2342  0.1610 -1.5885
  129OSM     O313866   1.233   3.494   6.647  0.2615  0.2529 -0.6417
  129OSM    HO313867   1.173   3.509   6.721 -0.3525  1.7827 -1.4070
  129OSM    C4S13868   1.221   3.631   6.451 -0.5495 -0.1305  0.4955
  129OSM    H4S13869   1.241   3.728   6.500  1.0956  0.8230 -1.9071
  129OSM    C5S13870   1.268   3.607   6.328  0.7343  0.1667 -0.2145
  129OSM    H5S13871   1.268   3.506   6.284 -1.3506  0.4099 -0.8835
  129OSM    C6S13872   1.335   3.694   6.227 -0.0430 -0.2908 -0.8111
  129OSM    H6S13873   1.258   3.767   6.192 -0.4624  0.2628  1.1382
  129OSM    H6T13874   1.379   3.636   6.144  0.2980 -0.9704 -0.1586
  129OSM    C7S13875   1.445   3.784   6.279 -0.0172  0.3938 -0.3750
  129OSM    H7S13876   1.534   3.721   6.302 -0.7854 -0.8957 -0.8150
  129OSM    H7T13877   1.424   3.835   6.375 -0.3815 -1.4151  0.5655
  129OSM    C8S13878   1.482   3.899   6.190  0.1216 -0.1929  0.6592
  129OSM    H8S13879   1.570   3.958   6.223  1.6646  1.0157 -4.7479
  129OSM    H8T13880   1.399   3.973   6.187  1.0958  0.9620  1.2524
  129OSM    C9S13881   1.501   3.852   6.046 -0.4015  0.1939  1.1777
  129OSM    H9S13882   1.421   3.784   6.011 -0.8690  0.8261  0.9898
  129OSM    H9T13883   1.589   3.784   6.051 -1.7617 -1.6461  1.0642
  129OSM   C10S13884   1.526   3.960   5.935  0.2351 -0.0986 -0.0933
  129OSM   H10S13885   1.611   4.010   5.986  1.0127 -1.1958 -0.2707
  129OSM   H10T13886   1.443   4.033   5.923  0.4830 -0.1230 -2.4224
  129OSM   C11S13887   1.564   3.918   5.799  0.3386 -0.1599  1.0482
  129OSM   H11S13888   1.648   3.847   5.788 -0.7756 -1.4466  0.6352
  129OSM   H11T13889   1.600   4.005   5.740 -1.1575 -0.7913 -0.8802
  129OSM   C12S13890   1.440   3.855   5.725 -0.0419 -0.4690  0.1952
  129OSM   H12S13891   1.366   3.937   5.714  3.1475  2.4279 -1.2741
  129OSM   H12T13892   1.399   3.773   5.788  0.4889 -1.0587 -0.2209
  129OSM   C13S13893   1.468   3.806   5.579 -0.1159 -0.9985 -0.4289
  129OSM   H13S13894   1.570   3.762   5.574 -0.6241 -2.2211 -0.3676
  129OSM   H13T13895   1.461   3.901   5.521  1.2641 -0.1741  0.6978
  129OSM   C14S13896   1.363   3.715   5.534  0.0285 -0.1832  0.0478
  129OSM   H14S13897   1.269   3.772   5.546 -0.4194 -0.2646 -2.5799
  129OSM   H14T13898   1.361   3.630   5.605 -1.1104  0.3526  0.6808
  129OSM   C15S13899   1.383   3.660   5.394  0.6473 -0.3901  0.0104
  129OSM   H15S13900   1.294   3.603   5.359  0.0654 -0.1900  1.1311
  129OSM   H15T13901   1.477   3.601   5.398  0.1435 -1.1934  3.4625
  129OSM   C16S13902   1.407   3.774   5.299  0.2441 -0.9147 -0.1557
  129OSM   H16S13903   1.492   3.839   5.324  1.0871 -2.4778  1.2576
  129OSM   H16T13904   1.318   3.837   5.319 -0.3017 -1.6608 -0.1595
  129OSM   C17S13905   1.399   3.731   5.157  0.3419 -0.7675 -0.1779
  129OSM   H17S13906   1.481   3.657   5.142  1.3818  0.0972  1.0034
  129OSM   H17T13907   1.431   3.820   5.098 -2.0882 -0.2810 -0.8832
  129OSM   C18S13908   1.264   3.674   5.104  0.2666 -0.4302 -0.4097
  129OSM   H18S13909   1.185   3.747   5.130  0.4364 -0.2788 -0.3184
  129OSM   H18T13910   1.243   3.574   5.147 -2.2093  0.2143  0.0547
  129OSM   H18U13911   1.262   3.655   4.995 -1.6875  0.7341 -0.6150
  129OSM    C1F13912   0.796   3.616   6.449  0.7170  0.4622 -0.0421
  129OSM     OF13913   0.746   3.694   6.530 -0.1938  0.0458  0.5132
  129OSM    C2F13914   0.714   3.553   6.342  0.5979  0.0244  0.2802
  129OSM    H2F13915   0.605   3.549   6.366 -0.1624 -0.2083 -2.8190
  129OSM    H2G13916   0.749   3.449   6.325 -0.7805 -0.1740 -1.6612
  129OSM    C3F13917   0.720   3.634   6.216  0.2204 -0.1633  0.0484
  129OSM    H3F13918   0.828   3.659   6.203 -0.0083  0.7713 -0.1752
  129OSM    H3G13919   0.671   3.733   6.230  0.5961  0.2150 -1.1322
  129OSM    C4F13920   0.660   3.566   6.095  0.2339 -0.1897 -0.5943
  129OSM    H4F13921   0.558   3.536   6.125  1.4938 -1.1148  3.2759
  129OSM    H4G13922   0.726   3.480   6.070  3.4517  2.2043 -0.9898
  129OSM    C5F13923   0.675   3.653   5.962 -0.0663  0.0196  0.3800
  129OSM    H5F13924   0.712   3.754   5.989  0.2718 -0.3531  1.3454
  129OSM    H5G13925   0.574   3.688   5.930  1.0141  1.9485 -1.1446
  129OSM    C6F13926   0.745   3.587   5.844  0.1434  0.5010 -0.6423
  129OSM    H6F13927   0.700   3.489   5.815 -0.4951 -0.0923  2.0668
  129OSM    H6G13928   0.848   3.561   5.874  0.2397  1.4866 -0.0620
  129OSM    C7F13929   0.742   3.675   5.720 -0.2314  0.1876  0.6445
  129OSM    H7F13930   0.802   3.766   5.743 -1.4037  0.8252  1.3092
  129OSM    H7G13931   0.636   3.708   5.717 -0.0562  0.7203 -0.7005
  129OSM    C8F13932   0.788   3.593   5.591  0.4715  0.4029  0.2977
  129OSM    H8F13933   0.715   3.513   5.568  1.1982  0.0903 -1.0254
  129OSM    H8G13934   0.890   3.551   5.603  0.6397  0.7141 -0.0401
  129OSM    C9F13935   0.780   3.694   5.476 -0.0250 -0.3641 -0.2637
  129OSM    H9F13936   0.732   3.788   5.508  0.3989  0.0075 -0.7052
  129OSM   C10F13937   0.840   3.677   5.355 -0.3060  0.1295  0.6458
  129OSM   H10F13938   0.821   3.746   5.271 -0.2784 -3.0974 -2.2177
  129OSM   C11F13939   0.921   3.562   5.320  0.0635  1.2726  0.2967
  129OSM   H11F13940   0.891   3.469   5.373  2.0148 -0.7535 -1.8969
  129OSM   H11G13941   1.027   3.576   5.352 -0.0671  0.0624  1.3340
  129OSM   C12F13942   0.901   3.512   5.173  0.2157  0.1094  0.2131
  129OSM   H12F13943   0.949   3.594   5.115  1.9180 -0.8173  0.2733
  129OSM   H12G13944   0.793   3.510   5.144  0.8770  0.6613 -2.6132
  129OSM   C13F13945   0.976   3.376   5.147  1.2466  0.1501 -0.4258
  129OSM   H13F13946   0.926   3.286   5.187  2.7444  0.5479  2.5950
  129OSM   H13G13947   1.079   3.387   5.187  0.6214  1.2869  0.9518
  129OSM   C14F13948   0.993   3.357   4.995  0.3818  0.7236 -0.3113
  129OSM   H14F13949   1.032   3.253   4.985 -2.3890 -0.2236 -2.8152
  129OSM   H14G13950   1.062   3.435   4.959 -0.3690  3.4938  3.5882
  129OSM   C15F13951   0.853   3.344   4.924  0.1510  0.4392 -0.6343
  129OSM   H15F13952   0.804   3.442   4.906 -2.2091 -0.7399 -1.0337
  129OSM   H15G13953   0.780   3.280   4.978  0.2636 -0.0861 -1.0986
  129OSM   C16F13954   0.864   3.281   4.784  0.1684  0.6219  0.2726
  129OSM   H16F13955   0.921   3.186   4.793  0.5419  0.9986  2.4190
  129OSM   H16G13956   0.908   3.344   4.703  1.3812  0.8856  1.1063
  129OSM   C17F13957   0.723   3.239   4.725  0.2299  0.3296  0.4367
  129OSM   H17F13958   0.657   3.329   4.731 -1.2455 -0.8179  2.6559
  129OSM   H17G13959   0.671   3.170   4.794 -0.4249 -0.5480 -0.8849
  129OSM   C18F13960   0.717   3.174   4.587 -0.2754  0.3367  0.2087
  129OSM   H18F13961   0.739   3.065   4.578 -0.2531  0.4495 -1.5274
  129OSM   H18G13962   0.799   3.226   4.533 -0.1900  0.6486  0.6334
  129OSM   H18H13963   0.617   3.183   4.538 -0.7129 -1.1670  0.7483
  130OSM      N13964   2.057   6.715   7.356  0.1452  0.2705  0.4410
  130OSM    C1513965   2.206   6.692   7.331  0.2013  0.0092 -0.2138
  130OSM   H15A13966   2.258   6.780   7.296  0.7350 -0.5164 -0.7550
  130OSM   H15B13967   2.226   6.606   7.269 -2.4156  0.0083 -1.1864
  130OSM   H15C13968   2.258   6.673   7.424  1.4217 -0.4574 -0.9766
  130OSM    C1413969   1.998   6.611   7.449 -0.7180  1.0463 -0.3556
  130OSM   H14A13970   1.982   6.517   7.398 -0.7453  2.3785 -2.9651
  130OSM   H14B13971   1.902   6.634   7.494 -1.9544 -0.6575 -1.9467
  130OSM   H14C13972   2.071   6.598   7.527 -0.4027 -0.4146 -0.8743
  130OSM    C1313973   2.049   6.847   7.428 -0.1955  0.1751 -0.6932
  130OSM   H13A13974   2.095   6.925   7.371  1.0889  1.5951  2.0829
  130OSM   H13B13975   2.109   6.835   7.518 -0.7643  3.0837  0.1604
  130OSM   H13C13976   1.944   6.868   7.444 -0.6394 -0.3235 -2.7126
  130OSM    C1213977   1.979   6.722   7.225  0.1652 -0.2581 -0.2483
  130OSM   H12A13978   1.877   6.754   7.242  0.6778  0.4937  1.6287
  130OSM   H12B13979   1.954   6.619   7.204 -0.6928 -0.3630  1.1721
  130OSM    C1113980   2.054   6.773   7.094 -0.0050 -0.3385 -0.0312
  130OSM   H11A13981   1.987   6.740   7.011 -1.3525 -1.1722  1.3404
  130OSM   H11B13982   2.156   6.731   7.095  0.5988  1.0159 -1.0422
  130OSM      P13983   2.178   6.994   7.053  0.1118 -0.4403 -0.3905
  130OSM    O1313984   2.200   7.117   7.136 -0.0374 -0.5907 -0.4564
  130OSM    O1413985   2.296   6.910   7.048 -0.1439  0.1979 -0.0918
  130OSM    O1113986   2.139   7.051   6.910 -0.3993 -0.3891  0.4267
  130OSM    O1213987   2.052   6.913   7.108 -0.4489  0.0906  0.8857
  130OSM    C1S13988   2.008   7.046   6.858 -1.0081 -0.5388  0.6542
  130OSM    H1S13989   1.949   7.130   6.900 -0.0140 -0.3595  1.7356
  130OSM    H1T13990   1.954   6.951   6.877 -2.1658  0.2220  1.2984
  130OSM     NF13991   1.873   7.068   6.646 -0.2850  0.1257  0.4540
  130OSM    HNF13992   1.843   6.982   6.607 -1.3600  0.7527 -0.1350
  130OSM    C2S13993   2.008   7.067   6.704 -0.1471  0.0278  0.6629
  130OSM    H2S13994   2.049   7.169   6.688 -1.0658  0.5895  1.7010
  130OSM    C3S13995   2.092   6.970   6.621 -0.7634 -0.1981 -0.1803
  130OSM    H3S13996   2.053   6.867   6.622  1.2855 -1.0380  1.2426
  130OSM     O313997   2.227   6.946   6.671  0.1340  0.2359  0.5569
  130OSM    HO313998   2.215   6.959   6.765  0.3943 -3.9949  1.3751
  130OSM    C4S13999   2.094   7.002   6.467  0.4271 -0.1152 -0.5511
  130OSM    H4S14000   2.018   6.945   6.411 -0.6162 -1.3939  2.0096
  130OSM    C5S14001   2.179   7.091   6.411  0.0951 -0.1321 -0.1784
  130OSM    H5S14002   2.254   7.142   6.474  0.1670 -0.7058  0.2090
  130OSM    C6S14003   2.191   7.133   6.271 -1.0992 -0.4753  0.4357
  130OSM    H6S14004   2.294   7.162   6.241 -1.3706  0.1491  0.1010
  130OSM    H6T14005   2.130   7.224   6.254  1.3621  1.5637  1.7704
  130OSM    C7S14006   2.140   7.041   6.155 -0.3587  0.3156  0.1886
  130OSM    H7S14007   2.036   7.006   6.172  0.0813 -0.7344  0.7985
  130OSM    H7T14008   2.201   6.948   6.157  0.9362  1.1543  0.6907
  130OSM    C8S14009   2.131   7.116   6.018  0.1339 -0.6196  0.3291
  130OSM    H8S14010   2.235   7.126   5.979  0.2902 -1.8657  0.3964
  130OSM    H8T14011   2.083   7.215   6.034 -3.7034 -2.0592 -1.1940
  130OSM    C9S14012   2.052   7.052   5.905 -0.1197 -0.0880  0.0631
  130OSM    H9S14013   1.942   7.044   5.921 -0.7183  3.3740 -1.3032
  130OSM    H9T14014   2.091   6.949   5.896  1.7258  0.6963 -1.8996
  130OSM   C10S14015   2.065   7.110   5.759  0.2901  0.0034  0.0721
  130OSM   H10S14016   2.175   7.113   5.739  0.2979 -1.5334 -0.2167
  130OSM   H10T14017   2.026   7.214   5.753 -1.2388 -0.6432 -1.9700
  130OSM   C11S14018   2.007   7.031   5.643 -0.6775 -0.0153 -0.5288
  130OSM   H11S14019   1.898   7.013   5.638 -0.4631 -1.0618 -2.6057
  130OSM   H11T14020   2.053   6.930   5.644  0.3378  0.3974  2.2003
  130OSM   C12S14021   2.042   7.101   5.506 -0.8144 -0.3326 -1.1855
  130OSM   H12S14022   2.152   7.121   5.509 -0.5861 -1.5878 -0.2696
  130OSM   H12T14023   1.985   7.196   5.499 -1.5083 -0.8338 -2.5584
  130OSM   C13S14024   2.003   7.018   5.385 -0.2368 -0.2811 -0.1128
  130OSM   H13S14025   1.892   7.019   5.376 -0.1145  1.0444 -2.2148
  130OSM   H13T14026   2.044   6.915   5.380 -1.0489 -0.6389  0.3264
  130OSM   C14S14027   2.052   7.086   5.251  0.4326  0.2007 -0.0844
  130OSM   H14S14028   2.161   7.072   5.234  0.0941 -0.2552 -2.1255
  130OSM   H14T14029   2.035   7.196   5.260  0.0154 -0.0064  2.0817
  130OSM   C15S14030   1.984   7.020   5.131 -0.4326 -0.8361 -0.3176
  130OSM   H15S14031   1.877   7.048   5.125  0.2079  1.7811 -0.5590
  130OSM   H15T14032   1.984   6.909   5.135  1.0261 -0.9762 -2.2704
  130OSM   C16S14033   2.042   7.064   4.992  0.4112 -0.0173  0.0083
  130OSM   H16S14034   2.146   7.027   4.979  0.7487  0.9082  0.0203
  130OSM   H16T14035   2.043   7.175   4.990  0.2476 -0.0227 -0.5281
  130OSM   C17S14036   1.953   7.015   4.876 -0.0342  0.5135 -0.7080
  130OSM   H17S14037   1.851   7.059   4.883  0.2412  1.0451  0.1879
  130OSM   H17T14038   1.955   6.906   4.894  0.9137  0.5475 -0.5736
  130OSM   C18S14039   2.006   7.045   4.738 -0.5397  0.3306 -0.2195
  130OSM   H18S14040   2.116   7.061   4.731 -0.8348  1.6976 -2.5769
  130OSM   H18T14041   1.976   7.148   4.712  0.3813  0.6864  0.0867
  130OSM   H18U14042   1.979   6.970   4.661 -1.8360 -1.5071  1.8817
  130OSM    C1F14043   1.779   7.164   6.664  0.3814 -0.1446 -0.4378
  130OSM     OF14044   1.808   7.274   6.721 -0.3872  0.9726 -0.0789
  130OSM    C2F14045   1.638   7.137   6.621  0.4056 -0.3368 -0.1034
  130OSM    H2F14046   1.575   7.107   6.707  1.4236  1.7218  1.4513
  130OSM    H2G14047   1.642   7.054   6.548 -0.9479  1.6229 -2.5810
  130OSM    C3F14048   1.585   7.260   6.553  0.3970  0.0549  0.2617
  130OSM    H3F14049   1.630   7.351   6.598  1.3547 -0.2057 -0.1459
  130OSM    H3G14050   1.475   7.251   6.567  0.2705  1.2918  0.1944
  130OSM    C4F14051   1.613   7.256   6.404  0.9256  0.1425 -0.8003
  130OSM    H4F14052   1.576   7.166   6.351  2.4045 -0.4246 -0.8845
  130OSM    H4G14053   1.723   7.258   6.389  1.4281 -1.4775  2.0167
  130OSM    C5F14054   1.543   7.381   6.349 -0.1976  0.2976 -0.1696
  130OSM    H5F14055   1.574   7.471   6.406  2.8501  0.4193 -1.8141
  130OSM    H5G14056   1.436   7.358   6.365 -0.0070  0.8740  2.2687
  130OSM    C6F14057   1.566   7.401   6.200 -0.4952  0.4163  0.2954
  130OSM    H6F14058   1.499   7.486   6.174 -0.4220 -0.2052 -2.1833
  130OSM    H6G14059   1.528   7.314   6.142  2.6524  0.1556 -1.6153
  130OSM    C7F14060   1.720   7.424   6.169  0.3977  0.0915  0.0955
  130OSM    H7F14061   1.773   7.339   6.217 -0.8641 -1.0840 -0.5312
  130OSM    H7G14062   1.750   7.516   6.223 -0.6315  0.7982 -0.4997
  130OSM    C8F14063   1.765   7.436   6.020 -0.8979  0.0488  0.8897
  130OSM    H8F14064   1.866   7.483   6.012 -0.4302 -0.9029  1.0450
  130OSM    H8G14065   1.695   7.507   5.971  2.1453  2.0737 -0.8710
  130OSM    C9F14066   1.764   7.290   5.955  0.0614 -0.0517 -0.4791
  130OSM    H9F14067   1.837   7.225   6.005 -0.7266 -0.6604 -0.0822
  130OSM   C10F14068   1.675   7.240   5.864 -0.3624  0.3536 -0.1043
  130OSM   H10F14069   1.676   7.131   5.849 -0.3485  0.4163 -0.5781
  130OSM   C11F14070   1.569   7.320   5.787  0.3517  0.0936 -0.1885
  130OSM   H11F14071   1.512   7.376   5.864 -1.7811 -1.2493 -0.7218
  130OSM   H11G14072   1.492   7.244   5.762 -1.7934  2.0383  0.2326
  130OSM   C12F14073   1.613   7.409   5.677  0.3394 -0.0760 -0.2337
  130OSM   H12F14074   1.678   7.476   5.738  1.4053 -0.2850 -1.1084
  130OSM   H12G14075   1.532   7.476   5.639  0.0343 -0.2453  0.1069
  130OSM   C13F14076   1.676   7.340   5.558 -0.3488 -0.0388  0.8599
  130OSM   H13F14077   1.602   7.266   5.520  2.6043 -1.9621 -1.6291
  130OSM   H13G14078   1.764   7.280   5.590 -1.0634 -1.1701  0.7902
  130OSM   C14F14079   1.718   7.434   5.445 -0.0097  0.3959 -0.4955
  130OSM   H14F14080   1.807   7.488   5.485 -0.0661  0.4107 -0.3886
  130OSM   H14G14081   1.632   7.504   5.431 -0.5207  0.3968  2.1093
  130OSM   C15F14082   1.750   7.378   5.307  0.8686 -0.2151 -0.0553
  130OSM   H15F14083   1.653   7.338   5.268  0.9047  0.0746 -0.4461
  130OSM   H15G14084   1.825   7.296   5.310  0.6037 -0.5537 -1.5952
  130OSM   C16F14085   1.789   7.488   5.216  0.0747 -0.3854 -0.7522
  130OSM   H16F14086   1.883   7.534   5.255  0.1305  1.8339 -3.2393
  130OSM   H16G14087   1.719   7.574   5.217  1.8616  1.1367  0.0306
  130OSM   C17F14088   1.816   7.448   5.069  0.1866 -0.3984  0.0408
  130OSM   H17F14089   1.721   7.404   5.033 -2.1614  3.5718  0.8247
  130OSM   H17G14090   1.902   7.377   5.067  0.7054  0.2327 -2.0866
  130OSM   C18F14091   1.843   7.568   4.979  0.1507  0.1838 -0.5342
  130OSM   H18F14092   1.901   7.647   5.031 -0.4421  0.9540 -1.0101
  130OSM   H18G14093   1.746   7.608   4.941 -0.6051 -2.1418 -1.2003
  130OSM   H18H14094   1.899   7.536   4.888  0.6454  1.5956 -0.7591
  131OSM      N14095   0.108   2.224   6.953  0.2759 -0.3568 -0.5116
  131OSM    C1514096   0.203   2.188   7.059 -0.0363 -0.2441 -0.5164
  131OSM   H15A14097   0.300   2.232   7.043  0.3319 -0.8616 -0.0266
  131OSM   H15B14098   0.220   2.082   7.045  1.8155 -0.1362  0.6794
  131OSM   H15C14099   0.170   2.201   7.161  0.0994  0.0167 -0.5059
  131OSM    C1414100   0.116   2.377   6.949 -0.6454  0.2603 -0.3330
  131OSM   H14A14101   0.215   2.417   6.930 -1.4451  2.5821  0.0586
  131OSM   H14B14102   0.084   2.422   7.042  0.9834  0.4424  0.1846
  131OSM   H14C14103   0.059   2.421   6.869  0.3451  2.3611  0.0262
  131OSM    C1314104   0.159   2.176   6.821  0.8133 -0.1905 -0.6687
  131OSM   H13A14105   0.153   2.068   6.812 -0.1653 -0.0957 -1.3906
  131OSM   H13B14106   0.259   2.211   6.801  0.6016 -0.2731 -2.0017
  131OSM   H13C14107   0.111   2.229   6.740  1.3810  0.9458 -0.2753
  131OSM    C1214108  -0.034   2.185   6.985 -0.0716  0.7358  0.2465
  131OSM   H12A14109  -0.100   2.242   6.920  0.3946  2.2873  1.0788
  131OSM   H12B14110  -0.050   2.214   7.087  0.3081  2.8390 -0.2404
  131OSM    C1114111  -0.071   2.033   6.976 -0.0800 -0.5470 -0.1295
  131OSM   H11A14112  -0.052   1.995   6.874  0.4493 -1.2308  0.2114
  131OSM   H11B14113  -0.178   2.040   7.006  0.1737  0.7879  0.5547
  131OSM      P14114   0.066   1.828   7.044  0.1846 -0.0539 -0.1436
  131OSM    O1314115   0.207   1.857   7.037 -0.4105  0.1724 -0.2681
  131OSM    O1414116   0.029   1.723   7.139 -0.4602  0.3975 -0.7888
  131OSM    O1114117   0.020   1.779   6.902 -0.5779  0.0769  0.0768
  131OSM    O1214118  -0.022   1.952   7.077  0.0436  0.0178 -0.1839
  131OSM    C1S14119   0.104   1.683   6.834 -0.0581  0.0155  0.2556
  131OSM    H1S14120   0.119   1.597   6.903  0.0055  0.6977  1.1039
  131OSM    H1T14121   0.195   1.733   6.796  0.7660  1.3900  3.6736
  131OSM     NF14122   0.106   1.515   6.657 -0.6948  1.0577  0.0033
  131OSM    HNF14123   0.144   1.512   6.565  1.1403 -2.6304  0.6712
  131OSM    C2S14124   0.041   1.634   6.706  0.3350  0.7130 -0.2586
  131OSM    H2S14125  -0.063   1.601   6.726  0.0869  0.7187 -1.4849
  131OSM    C3S14126   0.020   1.749   6.601 -0.7990  0.1813 -0.6965
  131OSM    H3S14127   0.124   1.766   6.565  0.6634 -1.1930  2.4594
  131OSM     O314128  -0.028   1.873   6.655 -0.1945 -0.3837  0.1470
  131OSM    HO314129  -0.013   1.861   6.749 -1.2834  1.9933  0.7076
  131OSM    C4S14130  -0.058   1.703   6.479 -0.4265 -0.0312 -0.0239
  131OSM    H4S14131   0.003   1.719   6.389 -2.4991  0.0737 -1.4753
  131OSM    C5S14132  -0.186   1.665   6.465  1.0639  0.4842 -0.6441
  131OSM    H5S14133  -0.243   1.689   6.556  2.5049  1.2537  0.0875
  131OSM    C6S14134  -0.272   1.642   6.340  0.0902  0.0394  0.2388
  131OSM    H6S14135  -0.357   1.713   6.332 -1.7685 -2.0644  0.3054
  131OSM    H6T14136  -0.302   1.536   6.355 -0.6857 -0.0918 -1.9507
  131OSM    C7S14137  -0.181   1.649   6.211  0.0365 -0.0067 -0.5773
  131OSM    H7S14138  -0.116   1.559   6.219  0.0796  0.0594 -0.1272
  131OSM    H7T14139  -0.124   1.743   6.200 -0.3937  0.7085  2.3476
  131OSM    C8S14140  -0.270   1.637   6.090  0.0871  0.1491  0.2809
  131OSM    H8S14141  -0.351   1.714   6.092  0.8240  0.9386  0.2441
  131OSM    H8T14142  -0.313   1.534   6.087  2.8342 -1.1240  1.2652
  131OSM    C9S14143  -0.192   1.661   5.959 -1.1453 -0.3135 -0.7727
  131OSM    H9S14144  -0.112   1.585   5.946 -0.9788 -0.0727 -1.2169
  131OSM    H9T14145  -0.142   1.760   5.959  1.7883 -1.6956  0.0545
  131OSM   C10S14146  -0.278   1.671   5.832 -0.0060  0.2634  0.5666
  131OSM   H10S14147  -0.346   1.758   5.839  1.4124  1.6182 -1.3871
  131OSM   H10T14148  -0.339   1.578   5.821  0.9335 -0.2053 -0.9932
  131OSM   C11S14149  -0.190   1.683   5.711 -0.4339  0.6297 -0.2093
  131OSM   H11S14150  -0.129   1.590   5.715 -2.3422 -0.6951 -0.1178
  131OSM   H11T14151  -0.134   1.778   5.725  1.3002 -0.5148  0.9648
  131OSM   C12S14152  -0.271   1.675   5.583  0.3028 -0.4068 -0.5661
  131OSM   H12S14153  -0.332   1.768   5.581 -1.6165 -1.5099  1.3226
  131OSM   H12T14154  -0.336   1.585   5.587  2.2387 -1.9337 -1.8392
  131OSM   C13S14155  -0.188   1.658   5.460  0.1236  0.5192  0.0501
  131OSM   H13S14156  -0.161   1.551   5.474  0.7899  0.6957  0.1152
  131OSM   H13T14157  -0.095   1.717   5.459  1.4926 -1.4903 -1.6442
  131OSM   C14S14158  -0.270   1.666   5.333  0.0254 -0.2604  0.2394
  131OSM   H14S14159  -0.363   1.610   5.357  0.0608 -0.9999 -1.2180
  131OSM   H14T14160  -0.221   1.617   5.247 -0.5757 -1.0050  0.3077
  131OSM   C15S14161  -0.314   1.811   5.296 -0.9671  0.1042 -0.2015
  131OSM   H15S14162  -0.383   1.839   5.378 -0.2448 -0.1260  0.4949
  131OSM   H15T14163  -0.362   1.813   5.196  0.1640  2.4705 -0.7728
  131OSM   C16S14164  -0.203   1.913   5.275 -0.3546  0.4345 -0.3997
  131OSM   H16S14165  -0.146   1.928   5.369 -0.8026  0.1467 -0.0783
  131OSM   H16T14166  -0.238   2.014   5.245 -2.0455  0.2166  0.7173
  131OSM   C17S14167  -0.093   1.857   5.170  0.7420 -0.0423 -0.9053
  131OSM   H17S14168  -0.129   1.829   5.068  0.7421 -1.2129 -0.5963
  131OSM   H17T14169  -0.060   1.759   5.212  1.1678  0.3569 -0.3069
  131OSM   C18S14170   0.025   1.948   5.156  0.1231 -0.8403  0.3295
  131OSM   H18S14171   0.081   1.963   5.250  0.5305 -0.3310  0.0162
  131OSM   H18T14172  -0.011   2.046   5.116  0.8803  0.5959  2.9358
  131OSM   H18U14173   0.096   1.921   5.074 -0.7721 -0.5929 -0.5420
  131OSM    C1F14174   0.104   1.398   6.722 -0.4966 -0.7528  0.0205
  131OSM     OF14175   0.037   1.383   6.822 -0.3692  0.2984  0.0449
  131OSM    C2F14176   0.195   1.288   6.679  0.4925  0.6805 -0.2205
  131OSM    H2F14177   0.246   1.242   6.767  0.6276  1.9545  0.3848
  131OSM    H2G14178   0.265   1.325   6.601 -0.2168 -1.7650 -2.1465
  131OSM    C3F14179   0.124   1.161   6.615 -0.7146 -0.5687  0.7450
  131OSM    H3F14180   0.078   1.117   6.706  1.6761 -0.2019  2.2157
  131OSM    H3G14181   0.198   1.097   6.561  0.2976  2.5139 -1.8677
  131OSM    C4F14182   0.027   1.210   6.496 -1.2974 -0.1694 -0.6556
  131OSM    H4F14183   0.091   1.285   6.445 -0.6993 -0.3970 -0.2465
  131OSM    H4G14184  -0.061   1.261   6.540 -0.5123  0.7849 -0.1440
  131OSM    C5F14185  -0.016   1.094   6.406  0.1401 -0.3320 -1.1755
  131OSM    H5F14186  -0.070   1.012   6.458  1.5018 -0.4185  0.1630
  131OSM    H5G14187   0.068   1.046   6.351  1.7028 -1.0644  1.6501
  131OSM    C6F14188  -0.115   1.148   6.300 -0.7176 -0.1391  0.3176
  131OSM    H6F14189  -0.200   1.199   6.352 -1.4979  0.1072 -1.1261
  131OSM    H6G14190  -0.163   1.061   6.250  0.1176 -0.6081  0.3215
  131OSM    C7F14191  -0.045   1.237   6.193  0.5284  0.5872 -0.0797
  131OSM    H7F14192   0.057   1.199   6.170  0.4797  0.7735 -0.6232
  131OSM    H7G14193  -0.041   1.341   6.233 -0.0241  1.5186 -2.2792
  131OSM    C8F14194  -0.132   1.249   6.066 -1.1179  0.3956  0.1420
  131OSM    H8F14195  -0.094   1.335   6.008  2.6180 -1.6672 -0.7866
  131OSM    H8G14196  -0.229   1.283   6.109 -0.9594  1.0799 -0.0293
  131OSM    C9F14197  -0.127   1.124   5.981  0.5868 -0.6800  0.7753
  131OSM    H9F14198  -0.206   1.051   6.005 -0.8539  0.8016  0.7022
  131OSM   C10F14199  -0.050   1.109   5.868 -0.3197 -0.2668 -0.4542
  131OSM   H10F14200  -0.052   1.010   5.820  0.0203 -1.5702  2.0506
  131OSM   C11F14201   0.061   1.196   5.809  0.3605 -0.2502  0.0074
  131OSM   H11F14202   0.150   1.162   5.867 -0.7126  1.6711  3.0553
  131OSM   H11G14203   0.046   1.304   5.832  0.4757 -0.2434  0.0525
  131OSM   C12F14204   0.082   1.184   5.656 -0.3020 -0.7488  0.3069
  131OSM   H12F14205   0.101   1.081   5.619  2.7902  0.3010 -1.3772
  131OSM   H12G14206   0.174   1.245   5.642 -0.5996 -0.4501 -0.3773
  131OSM   C13F14207  -0.038   1.236   5.578  0.1668  0.0497  0.3935
  131OSM   H13F14208  -0.060   1.336   5.622 -0.3536 -0.5546  1.5784
  131OSM   H13G14209  -0.125   1.168   5.596  1.0087 -1.3964 -0.8154
  131OSM   C14F14210  -0.002   1.237   5.429  0.0203 -0.2482  0.2810
  131OSM   H14F14211   0.039   1.138   5.400  0.3296 -0.3494  1.0280
  131OSM   H14G14212   0.069   1.321   5.416 -1.3861  1.2465  1.6841
  131OSM   C15F14213  -0.119   1.274   5.337  0.2892 -0.9044  0.2531
  131OSM   H15F14214  -0.132   1.384   5.348  2.0823 -0.5513 -0.7513
  131OSM   H15G14215  -0.213   1.235   5.381 -0.5179 -0.5250 -1.0858
  131OSM   C16F14216  -0.088   1.233   5.193 -0.1619  0.2328  0.2157
  131OSM   H16F14217  -0.079   1.123   5.193 -1.2979  0.1208  1.0215
  131OSM   H16G14218   0.012   1.274   5.167 -0.3983  0.6503 -0.0576
  131OSM   C17F14219  -0.182   1.284   5.084  0.1230  0.7930 -0.2906
  131OSM   H17F14220  -0.278   1.306   5.136 -0.8745 -2.5834 -0.4391
  131OSM   H17G14221  -0.198   1.197   5.016  0.3626 -0.8086  1.5958
  131OSM   C18F14222  -0.121   1.401   5.001  0.8201  0.7966  0.2889
  131OSM   H18F14223  -0.019   1.379   4.965  1.2675  1.8651  0.8702
  131OSM   H18G14224  -0.126   1.489   5.069 -1.4453 -0.4104  1.8121
  131OSM   H18H14225  -0.188   1.425   4.915  1.5127  0.3848 -0.3798
  132OSM      N14226   2.178   3.727   7.324 -0.4326 -0.7910 -0.3474
  132OSM    C1514227   2.181   3.863   7.399  0.1908  0.1422  0.2185
  132OSM   H15A14228   2.079   3.889   7.422 -0.2301 -1.2093 -0.0402
  132OSM   H15B14229   2.234   3.938   7.343  2.3857 -0.0530  1.8798
  132OSM   H15C14230   2.244   3.852   7.486  1.9153  1.1359 -0.8377
  132OSM    C1414231   2.312   3.694   7.264 -0.4742 -0.5436 -0.9730
  132OSM   H14A14232   2.386   3.679   7.341 -3.1550 -3.0685  1.3760
  132OSM   H14B14233   2.349   3.780   7.210  1.1498  0.2257  1.2322
  132OSM   H14C14234   2.307   3.605   7.204 -0.0144 -1.6490  0.5742
  132OSM    C1314235   2.131   3.628   7.423  0.2273  0.3270  0.2934
  132OSM   H13A14236   2.113   3.535   7.371  0.3656  1.1303 -1.2338
  132OSM   H13B14237   2.039   3.665   7.467  0.2323  1.5256 -0.6596
  132OSM   H13C14238   2.200   3.609   7.504  0.1227  0.2171  0.3576
  132OSM    C1214239   2.072   3.747   7.217 -0.3563 -1.0710  0.4723
  132OSM   H12A14240   2.101   3.841   7.172 -1.6884 -0.6383  0.4824
  132OSM   H12B14241   1.977   3.755   7.267 -0.9181 -0.5431 -0.6339
  132OSM    C1114242   2.063   3.638   7.111 -1.1704 -0.1648  0.8107
  132OSM   H11A14243   2.159   3.636   7.054 -3.4481 -0.3921 -3.4390
  132OSM   H11B14244   1.986   3.661   7.035  1.5680  1.4962 -1.6728
  132OSM      P14245   1.949   3.389   7.107 -0.4387 -0.1910  0.1262
  132OSM    O1314246   2.012   3.258   7.112  0.2019 -0.1446 -0.5791
  132OSM    O1414247   1.821   3.407   7.177  0.2030 -0.0511 -0.1463
  132OSM    O1114248   1.927   3.425   6.948 -0.4208 -0.4577  0.4719
  132OSM    O1214249   2.046   3.505   7.169 -0.0920  0.7525  0.2602
  132OSM    C1S14250   2.028   3.444   6.847 -0.0015 -0.5140 -0.7306
  132OSM    H1S14251   2.126   3.398   6.874 -0.5673 -1.5139 -0.3271
  132OSM    H1T14252   2.043   3.550   6.817  0.3364  0.0871  1.3650
  132OSM     NF14253   2.092   3.369   6.609  0.6679 -0.2527  0.2815
  132OSM    HNF14254   2.108   3.421   6.526  0.8126 -0.0607  0.4287
  132OSM    C2S14255   1.984   3.387   6.702  0.1038 -0.3959 -0.0829
  132OSM    H2S14256   1.935   3.287   6.706  0.6324 -0.8387 -2.7605
  132OSM    C3S14257   1.858   3.480   6.661 -0.3039  0.0579 -0.0327
  132OSM    H3S14258   1.887   3.587   6.670  0.0993  0.0306 -0.9115
  132OSM     O314259   1.752   3.475   6.756 -0.1421 -0.2304  0.3028
  132OSM    HO314260   1.802   3.446   6.833  0.7633 -1.6656 -0.7665
  132OSM    C4S14261   1.806   3.457   6.524 -0.4199  0.5172  0.1558
  132OSM    H4S14262   1.844   3.529   6.449 -1.0355  1.9319  1.1586
  132OSM    C5S14263   1.713   3.366   6.492 -0.3466  0.3139  0.3471
  132OSM    H5S14264   1.673   3.317   6.582 -1.2108  1.6848  0.7387
  132OSM    C6S14265   1.642   3.344   6.361 -0.5289 -0.3859  0.1853
  132OSM    H6S14266   1.542   3.392   6.363 -0.6642 -0.6168 -0.5049
  132OSM    H6T14267   1.628   3.234   6.356 -1.7607 -0.3848  2.4150
  132OSM    C7S14268   1.713   3.400   6.242 -0.1110  0.1970 -0.3225
  132OSM    H7S14269   1.817   3.362   6.236 -0.4788 -0.8180 -0.5337
  132OSM    H7T14270   1.716   3.511   6.242 -1.2627  0.2696 -1.9699
  132OSM    C8S14271   1.652   3.354   6.108 -0.1203 -0.0194  0.4667
  132OSM    H8S14272   1.544   3.378   6.112 -0.0490  0.6752 -1.0399
  132OSM    H8T14273   1.662   3.244   6.097 -0.2787 -0.2274  2.1613
  132OSM    C9S14274   1.717   3.415   5.986 -0.3837 -0.1242  0.2920
  132OSM    H9S14275   1.827   3.402   5.999  0.0733  1.0938 -1.6904
  132OSM    H9T14276   1.686   3.522   5.976 -2.8488 -0.8983 -1.2859
  132OSM   C10S14277   1.692   3.342   5.857  0.3781 -0.4693  0.2296
  132OSM   H10S14278   1.588   3.349   5.818 -0.1116  0.1587  1.6073
  132OSM   H10T14279   1.711   3.235   5.879 -0.4330 -0.7385 -0.3429
  132OSM   C11S14280   1.797   3.386   5.749 -0.9815  0.2031  0.1433
  132OSM   H11S14281   1.799   3.307   5.670 -0.8775 -0.2448  0.5868
  132OSM   H11T14282   1.901   3.394   5.788 -0.6325 -0.7325 -0.5355
  132OSM   C12S14283   1.767   3.526   5.681  0.1264  0.2651 -0.1543
  132OSM   H12S14284   1.804   3.598   5.758 -0.8220  0.1555  0.4240
  132OSM   H12T14285   1.656   3.533   5.673  0.1464 -0.0185 -0.7230
  132OSM   C13S14286   1.827   3.561   5.547 -0.0328 -0.6788  0.7285
  132OSM   H13S14287   1.934   3.529   5.551  0.0471 -0.4902  0.2250
  132OSM   H13T14288   1.819   3.672   5.539 -3.4013 -0.7856  1.3709
  132OSM   C14S14289   1.759   3.501   5.427  0.1550 -0.0501  0.3723
  132OSM   H14S14290   1.685   3.579   5.401 -0.1718 -0.7529 -0.9015
  132OSM   H14T14291   1.702   3.409   5.452 -0.6993  0.4609  0.3502
  132OSM   C15S14292   1.858   3.466   5.312 -0.4906 -0.6276 -0.0309
  132OSM   H15S14293   1.920   3.379   5.342 -1.1630 -1.4576 -0.9849
  132OSM   H15T14294   1.928   3.552   5.302 -2.7194  1.4774  1.2662
  132OSM   C16S14295   1.781   3.450   5.182  1.0364  0.8129  0.1975
  132OSM   H16S14296   1.741   3.549   5.151  0.1153 -0.5149 -3.3218
  132OSM   H16T14297   1.693   3.384   5.198  0.5729  1.4500  0.3065
  132OSM   C17S14298   1.875   3.409   5.073 -0.0681  0.5991  0.6176
  132OSM   H17S14299   1.934   3.324   5.113 -2.1518 -0.5736  1.3517
  132OSM   H17T14300   1.957   3.483   5.065  1.3572 -0.8902  0.8861
  132OSM   C18S14301   1.828   3.376   4.934  0.1026 -0.7832  0.0392
  132OSM   H18S14302   1.889   3.428   4.858 -0.2970  0.6446  0.6526
  132OSM   H18T14303   1.722   3.412   4.932  0.4260  0.2024 -0.0751
  132OSM   H18U14304   1.833   3.267   4.918  1.8897 -0.4306 -2.2147
  132OSM    C1F14305   2.190   3.281   6.625 -0.0291 -0.0724 -0.8611
  132OSM     OF14306   2.195   3.211   6.727  0.5950  0.1065  0.0360
  132OSM    C2F14307   2.284   3.278   6.512 -0.4006  0.4538  0.4112
  132OSM    H2F14308   2.361   3.357   6.520 -0.9179  0.8691  1.4268
  132OSM    H2G14309   2.230   3.299   6.417 -1.0655 -1.6148  0.2771
  132OSM    C3F14310   2.353   3.142   6.496 -0.0028 -0.3589  0.7483
  132OSM    H3F14311   2.295   3.048   6.485 -0.8364  0.3836 -2.0054
  132OSM    H3G14312   2.423   3.124   6.580  3.1803  3.8003 -0.6357
  132OSM    C4F14313   2.442   3.140   6.367  0.0395 -0.3385 -0.1089
  132OSM    H4F14314   2.513   3.225   6.363  0.1184 -0.0681  3.6024
  132OSM    H4G14315   2.373   3.163   6.283 -0.9882  1.6251  1.2035
  132OSM    C5F14316   2.502   3.000   6.333  0.4500 -0.2603 -0.3411
  132OSM    H5F14317   2.426   2.935   6.383 -1.2523  1.5863 -0.3837
  132OSM    H5G14318   2.591   2.996   6.400 -0.1059  0.6063  0.4690
  132OSM    C6F14319   2.539   2.970   6.189 -0.1062  0.3310 -0.1708
  132OSM    H6F14320   2.602   3.059   6.170 -0.6633  0.4846 -1.4096
  132OSM    H6G14321   2.452   2.965   6.120  1.0579 -1.1067 -1.6054
  132OSM    C7F14322   2.611   2.834   6.182  0.6144  0.1751  0.2663
  132OSM    H7F14323   2.540   2.749   6.196  0.2925  0.6883  2.0461
  132OSM    H7G14324   2.684   2.840   6.266  0.6161  2.5209  0.1499
  132OSM    C8F14325   2.678   2.811   6.043  0.2781 -0.9078 -0.0727
  132OSM    H8F14326   2.605   2.826   5.962 -1.0968  0.5811  1.3642
  132OSM    H8G14327   2.713   2.706   6.036  0.0596 -0.9285 -0.9505
  132OSM    C9F14328   2.797   2.906   6.031 -0.5589 -0.4169  0.4995
  132OSM    H9F14329   2.850   2.936   6.122  1.4658 -0.8245 -0.4851
  132OSM   C10F14330   2.850   2.946   5.912 -0.5956  0.5431 -0.1887
  132OSM   H10F14331   2.935   3.014   5.928  0.6686 -1.2911  1.4983
  132OSM   C11F14332   2.796   2.923   5.770 -0.4104 -0.3791 -0.1964
  132OSM   H11F14333   2.779   3.021   5.721  0.2668  1.3721  2.8761
  132OSM   H11G14334   2.705   2.859   5.778  0.6879 -2.1562 -1.0424
  132OSM   C12F14335   2.877   2.830   5.675 -0.2045  0.0632  0.4520
  132OSM   H12F14336   2.815   2.807   5.586 -2.2979 -2.2930  2.3682
  132OSM   H12G14337   2.900   2.732   5.722  2.8057 -0.5921 -2.0552
  132OSM   C13F14338   3.009   2.905   5.629  0.3523  0.4456 -0.2375
  132OSM   H13F14339   3.057   2.937   5.724  0.8518  0.7980 -0.6055
  132OSM   H13G14340   2.973   2.992   5.570  0.4718  0.8734  0.3116
  132OSM   C14F14341   3.092   2.814   5.539 -0.4207 -0.1505 -0.1403
  132OSM   H14F14342   3.050   2.798   5.438 -0.1765  1.4434 -0.5222
  132OSM   H14G14343   3.099   2.718   5.594  0.1155 -0.4285 -0.6807
  132OSM   C15F14344   3.232   2.864   5.504  0.0101 -0.6348  0.7308
  132OSM   H15F14345   3.298   2.850   5.593  1.2233  1.7298  0.2963
  132OSM   H15G14346   3.224   2.973   5.483 -1.1371 -0.9740 -0.6470
  132OSM   C16F14347   3.297   2.786   5.382 -0.0612  0.9381  0.6002
  132OSM   H16F14348   3.237   2.816   5.293 -1.2075 -1.2222  0.5891
  132OSM   H16G14349   3.300   2.676   5.398  3.0430  0.9229  0.5279
  132OSM   C17F14350   3.444   2.823   5.353 -0.4767  0.3962 -0.0162
  132OSM   H17F14351   3.510   2.784   5.433  0.5532  1.4589 -0.3158
  132OSM   H17G14352   3.459   2.932   5.337  0.4781  0.2410 -0.2233
  132OSM   C18F14353   3.492   2.749   5.227 -0.3757  0.3831 -0.3668
  132OSM   H18F14354   3.592   2.788   5.198  1.3649 -4.5847 -2.0760
  132OSM   H18G14355   3.426   2.762   5.139  0.7965 -0.0092 -1.3352
  132OSM   H18H14356   3.514   2.641   5.240 -0.1424  0.3756 -0.7957
  133OSM      N14357   1.299   6.618   7.226  0.2576  0.3568  0.0520
  133OSM    C1514358   1.254   6.526   7.343 -0.0061  0.7005  0.7045
  133OSM   H15A14359   1.336   6.499   7.406 -1.1788 -1.9805  1.2070
  133OSM   H15B14360   1.202   6.439   7.306 -0.7312  0.3872  2.3682
  133OSM   H15C14361   1.180   6.574   7.406 -0.7102 -1.2460  1.4266
  133OSM    C1414362   1.166   6.649   7.160  0.4585  0.3665  0.0363
  133OSM   H14A14363   1.095   6.685   7.233  2.0618  1.6855  1.0134
  133OSM   H14B14364   1.124   6.557   7.122 -2.2878  0.7408  1.8089
  133OSM   H14C14365   1.183   6.725   7.085  3.2267 -1.4360 -1.3178
  133OSM    C1314366   1.351   6.737   7.285 -0.5905  0.4613  0.3291
  133OSM   H13A14367   1.447   6.719   7.331 -1.0853 -1.6674  0.6543
  133OSM   H13B14368   1.294   6.797   7.354  1.6815  1.6793  1.2706
  133OSM   H13C14369   1.375   6.804   7.204  1.2873  0.4805  0.8547
  133OSM    C1214370   1.387   6.545   7.126 -0.2620  0.1650  0.6919
  133OSM   H12A14371   1.347   6.446   7.114  1.2343 -0.6109  1.7204
  133OSM   H12B14372   1.485   6.524   7.168  0.4774  1.5226 -0.2694
  133OSM    C1114373   1.425   6.618   6.992 -0.0199 -0.1364  0.1709
  133OSM   H11A14374   1.333   6.650   6.938  0.1430  0.1601  0.0721
  133OSM   H11B14375   1.491   6.549   6.934 -1.0979 -0.5218 -0.6434
  133OSM      P14376   1.658   6.760   7.036 -0.0088  0.1265 -0.2301
  133OSM    O1314377   1.680   6.909   7.045  0.2205 -0.0998 -0.0884
  133OSM    O1414378   1.701   6.682   7.150 -0.2906  0.7159 -0.1825
  133OSM    O1114379   1.720   6.695   6.897  0.0370  0.0545 -0.6645
  133OSM    O1214380   1.502   6.734   7.015 -0.3099  0.2156 -0.4593
  133OSM    C1S14381   1.676   6.722   6.764 -0.7641 -0.3875  0.1253
  133OSM    H1S14382   1.699   6.828   6.738 -1.9767  0.2675  1.5678
  133OSM    H1T14383   1.565   6.708   6.761 -0.8354  0.3446 -1.2776
  133OSM     NF14384   1.698   6.654   6.525 -0.1409  0.2760  0.0835
  133OSM    HNF14385   1.635   6.589   6.484 -0.1537 -0.3324  1.0242
  133OSM    C2S14386   1.740   6.620   6.667  0.2963  0.2443  0.2964
  133OSM    H2S14387   1.851   6.622   6.663  0.2957  1.0284  0.3506
  133OSM    C3S14388   1.702   6.476   6.716 -0.6692  0.3586  0.6594
  133OSM    H3S14389   1.591   6.482   6.719 -0.7336  2.1836 -1.7804
  133OSM     O314390   1.752   6.448   6.846  0.2269  0.3799 -0.7691
  133OSM    HO314391   1.779   6.532   6.883  0.3209 -0.1781  0.4950
  133OSM    C4S14392   1.754   6.373   6.630 -0.0651  0.3990 -0.3533
  133OSM    H4S14393   1.863   6.356   6.628  0.0724  1.2849 -1.3792
  133OSM    C5S14394   1.682   6.294   6.546 -0.1042  0.1026 -0.6234
  133OSM    H5S14395   1.575   6.316   6.537  0.2124  1.9395 -0.4402
  133OSM    C6S14396   1.731   6.186   6.452  0.1340  0.4314 -0.1824
  133OSM    H6S14397   1.659   6.104   6.431  0.9811 -0.6608  1.0001
  133OSM    H6T14398   1.813   6.134   6.506 -0.7271 -2.9254 -1.8015
  133OSM    C7S14399   1.771   6.242   6.309  0.1786 -0.5006  0.0019
  133OSM    H7S14400   1.796   6.159   6.238 -2.9278 -0.5651 -1.1639
  133OSM    H7T14401   1.867   6.298   6.321  1.2349 -2.6180  2.4166
  133OSM    C8S14402   1.662   6.333   6.247  0.2024  0.0454 -0.0765
  133OSM    H8S14403   1.650   6.437   6.285 -1.1024  0.6969 -2.0837
  133OSM    H8T14404   1.564   6.281   6.247  0.8664 -1.2590  0.4656
  133OSM    C9S14405   1.690   6.344   6.094  0.0081  0.2170 -0.9552
  133OSM    H9S14406   1.722   6.247   6.051  0.6899  0.3140 -0.6910
  133OSM    H9T14407   1.785   6.403   6.086 -0.3945  0.8453 -1.2284
  133OSM   C10S14408   1.580   6.389   6.003  0.2974 -0.4425 -0.9813
  133OSM   H10S14409   1.575   6.500   5.996 -3.5399 -0.3799  0.2015
  133OSM   H10T14410   1.485   6.362   6.055  0.3385  2.0103  0.5486
  133OSM   C11S14411   1.602   6.333   5.862 -0.1559  0.2736 -0.8087
  133OSM   H11S14412   1.591   6.223   5.869 -1.7204  0.4978  1.5153
  133OSM   H11T14413   1.706   6.361   5.837 -0.0142  0.7238  0.2419
  133OSM   C12S14414   1.497   6.394   5.767 -0.1808 -0.4570 -0.3417
  133OSM   H12S14415   1.532   6.492   5.730 -0.8307  0.1799  0.6877
  133OSM   H12T14416   1.395   6.416   5.806 -0.1091  0.2353 -0.5362
  133OSM   C13S14417   1.481   6.324   5.636 -0.4549  0.2497 -0.5438
  133OSM   H13S14418   1.475   6.215   5.660  0.6769  0.3742  0.4028
  133OSM   H13T14419   1.569   6.334   5.570 -0.0502 -2.5650 -0.5699
  133OSM   C14S14420   1.371   6.379   5.553 -0.5074 -0.1830  0.1972
  133OSM   H14S14421   1.272   6.367   5.602 -0.7601 -1.0638 -0.4939
  133OSM   H14T14422   1.378   6.319   5.459  0.4018  1.4171 -0.7999
  133OSM   C15S14423   1.396   6.522   5.500  0.6396  0.2449  0.2728
  133OSM   H15S14424   1.500   6.541   5.463  0.0372  0.3912 -1.4465
  133OSM   H15T14425   1.374   6.592   5.583 -0.5551 -0.0474  0.2131
  133OSM   C16S14426   1.292   6.553   5.385 -0.8656  0.3594 -0.5539
  133OSM   H16S14427   1.277   6.663   5.384  2.4669  0.9481 -0.0156
  133OSM   H16T14428   1.197   6.499   5.403 -0.6833 -0.4275 -1.8335
  133OSM   C17S14429   1.345   6.504   5.248  0.7103  0.6293 -0.0175
  133OSM   H17S14430   1.386   6.402   5.256 -0.4232  0.1308 -0.3059
  133OSM   H17T14431   1.432   6.563   5.212  0.8634  0.2510 -0.2718
  133OSM   C18S14432   1.233   6.509   5.150  0.5448 -0.3175  0.4219
  133OSM   H18S14433   1.275   6.482   5.050 -1.9142 -0.2620 -0.7064
  133OSM   H18T14434   1.187   6.610   5.142  3.8111  1.4432  2.0467
  133OSM   H18U14435   1.156   6.443   5.194 -0.8184  2.5688  2.7097
  133OSM    C1F14436   1.740   6.757   6.452  0.5380 -0.6344 -0.8277
  133OSM     OF14437   1.780   6.863   6.507  0.1084  0.1027 -0.2301
  133OSM    C2F14438   1.721   6.743   6.313 -0.2940 -0.2354  0.3422
  133OSM    H2F14439   1.615   6.716   6.295 -0.5465  0.4861  0.6904
  133OSM    H2G14440   1.784   6.673   6.254 -1.0439 -1.3308  0.8255
  133OSM    C3F14441   1.732   6.874   6.228  0.4199  0.1161  0.0739
  133OSM    H3F14442   1.830   6.920   6.253  0.9490 -0.7691 -0.3421
  133OSM    H3G14443   1.659   6.953   6.255 -0.9143 -1.5569  1.5340
  133OSM    C4F14444   1.730   6.851   6.075 -0.9303 -0.1698 -0.3188
  133OSM    H4F14445   1.808   6.778   6.044 -0.2419  0.6165 -0.4773
  133OSM    H4G14446   1.764   6.944   6.026  0.2075  0.1453  0.9873
  133OSM    C5F14447   1.598   6.801   6.019 -0.6357  0.6090 -0.0669
  133OSM    H5F14448   1.534   6.889   6.038 -0.5253  0.8656 -0.8565
  133OSM    H5G14449   1.566   6.721   6.089  0.4393  0.3787  0.1765
  133OSM    C6F14450   1.587   6.773   5.868 -0.1715 -1.0576 -0.3296
  133OSM    H6F14451   1.485   6.739   5.841 -0.9047  0.8435 -0.0823
  133OSM    H6G14452   1.657   6.690   5.844  1.9504  0.4360  0.4406
  133OSM    C7F14453   1.639   6.888   5.783 -0.0609 -0.3070  0.0609
  133OSM    H7F14454   1.741   6.928   5.802  0.7993 -1.5791 -1.6485
  133OSM    H7G14455   1.566   6.971   5.789 -0.5267 -0.5439 -1.8491
  133OSM    C8F14456   1.620   6.856   5.630 -0.0706 -0.2995  0.3234
  133OSM    H8F14457   1.530   6.794   5.608  0.0359  0.1530 -1.5684
  133OSM    H8G14458   1.699   6.785   5.596 -0.8478 -0.6594 -0.7821
  133OSM    C9F14459   1.625   6.969   5.531 -0.9488  0.2059 -0.5664
  133OSM    H9F14460   1.659   7.067   5.566  0.2593  0.7281 -2.9872
  133OSM   C10F14461   1.584   6.971   5.403  0.2449  0.4415  0.1349
  133OSM   H10F14462   1.591   7.065   5.346 -1.3552  0.1925 -0.5483
  133OSM   C11F14463   1.539   6.850   5.321 -0.3524 -0.5087 -0.2265
  133OSM   H11F14464   1.512   6.761   5.382  1.2812 -2.2328 -1.8817
  133OSM   H11G14465   1.629   6.810   5.270 -2.0369 -2.4072 -1.9114
  133OSM   C12F14466   1.430   6.865   5.227 -0.1714 -0.5218  0.7524
  133OSM   H12F14467   1.331   6.884   5.275 -0.8872  0.3783 -1.0040
  133OSM   H12G14468   1.417   6.765   5.180 -1.4731  0.5671 -1.3809
  133OSM   C13F14469   1.466   6.965   5.112  0.4793 -0.0210  0.2066
  133OSM   H13F14470   1.556   6.933   5.056 -0.1102  0.2977 -0.9616
  133OSM   H13G14471   1.470   7.066   5.158 -1.4208 -0.4862  1.5309
  133OSM   C14F14472   1.356   6.956   5.000  0.0761 -0.0919  0.5050
  133OSM   H14F14473   1.259   6.997   5.034 -0.4026  0.0259 -0.9168
  133OSM   H14G14474   1.345   6.850   4.968 -0.1647 -0.1164  0.6639
  133OSM   C15F14475   1.398   7.032   4.874  0.4594 -0.5243  0.8939
  133OSM   H15F14476   1.493   6.987   4.840  1.4034  3.7103 -3.1065
  133OSM   H15G14477   1.409   7.142   4.882 -0.3391 -0.1194 -2.2640
  133OSM   C16F14478   1.284   7.007   4.763  0.0721 -0.1579 -0.2606
  133OSM   H16F14479   1.196   7.071   4.783 -0.8955 -0.7977 -2.2088
  133OSM   H16G14480   1.268   6.898   4.776 -0.3855  0.0144  0.7525
  133OSM   C17F14481   1.334   7.048   4.627  0.0796 -0.2518 -0.5353
  133OSM   H17F14482   1.381   7.148   4.634  0.3194 -0.4626  1.8206
  133OSM   H17G14483   1.248   7.067   4.559  0.4746 -0.6201 -1.1476
  133OSM   C18F14484   1.444   6.971   4.566 -0.3995  0.4880 -1.0600
  133OSM   H18F14485   1.534   6.960   4.630 -1.4885 -0.4411  0.3762
  133OSM   H18G14486   1.469   7.002   4.463  2.5131  0.1538 -0.5487
  133OSM   H18H14487   1.411   6.865   4.558 -0.4895  0.2198  1.7435
  134OSM      N14488   5.851   4.487   7.244 -0.3162  0.1881  0.5064
  134OSM    C1514489   5.711   4.456   7.291  0.1891 -0.5637  0.2296
  134OSM   H15A14490   5.652   4.545   7.277  1.2197  0.2566  0.8692
  134OSM   H15B14491   5.710   4.428   7.396  1.6015 -0.7506  0.2152
  134OSM   H15C14492   5.662   4.383   7.230 -1.2551  0.8521 -0.3756
  134OSM    C1414493   5.898   4.615   7.298 -0.2438  0.1455 -0.7381
  134OSM   H14A14494   5.887   4.618   7.405 -2.0580 -1.7843 -0.8021
  134OSM   H14B14495   5.845   4.697   7.253 -1.1594 -0.0333  0.0051
  134OSM   H14C14496   6.001   4.639   7.273  0.4356 -0.7265  1.0134
  134OSM    C1314497   5.935   4.373   7.299  0.2811 -0.6512 -0.1259
  134OSM   H13A14498   6.039   4.386   7.274  0.9864 -0.3249  2.6295
  134OSM   H13B14499   5.889   4.281   7.266 -0.0966 -0.4853 -0.0752
  134OSM   H13C14500   5.921   4.371   7.406 -5.7218  0.8251 -0.5294
  134OSM    C1214501   5.861   4.486   7.094  0.5383  0.0521  0.2189
  134OSM   H12A14502   5.961   4.507   7.061  0.0319 -1.5649 -2.7090
  134OSM   H12B14503   5.806   4.568   7.050  1.2564 -0.0241 -0.8386
  134OSM    C1114504   5.801   4.364   7.021 -0.5257 -0.6721  0.2915
  134OSM   H11A14505   5.832   4.269   7.070  0.4464 -0.5456 -0.0569
  134OSM   H11B14506   5.838   4.367   6.916 -1.6097  0.2824 -0.0788
  134OSM      P14507   5.567   4.256   6.976  0.2187 -0.0033  0.6035
  134OSM    O1314508   5.583   4.147   7.070 -0.7257  0.0812 -0.4799
  134OSM    O1414509   5.431   4.312   6.957  0.0096 -0.1545  0.0366
  134OSM    O1114510   5.629   4.207   6.838 -0.1322 -0.2466  0.0179
  134OSM    O1214511   5.661   4.377   7.021  0.4351  0.0972  0.3062
  134OSM    C1S14512   5.567   4.253   6.718  0.0046  0.3793 -0.0395
  134OSM    H1S14513   5.504   4.345   6.722  1.0757  1.1629 -0.7156
  134OSM    H1T14514   5.507   4.167   6.682 -0.5941 -0.6096  3.0625
  134OSM     NF14515   5.599   4.291   6.476 -0.3393  0.1572 -0.0461
  134OSM    HNF14516   5.618   4.218   6.410  2.2908  0.3853  0.3388
  134OSM    C2S14517   5.673   4.283   6.599  0.3321  0.1580 -0.3013
  134OSM    H2S14518   5.733   4.374   6.619  0.2460  0.4020 -1.1429
  134OSM    C3S14519   5.776   4.167   6.591  0.2969 -0.1144  0.0037
  134OSM    H3S14520   5.724   4.078   6.551  0.4907  1.1343 -3.3844
  134OSM     O314521   5.832   4.122   6.715 -0.1810 -0.0010  0.7400
  134OSM    HO314522   5.780   4.175   6.776 -0.7993  0.0105  0.2134
  134OSM    C4S14523   5.882   4.208   6.495 -0.0764 -0.2997  0.6671
  134OSM    H4S14524   5.860   4.171   6.394  1.3169 -0.1984  0.3075
  134OSM    C5S14525   5.996   4.279   6.495 -0.6734  0.0476  0.6444
  134OSM    H5S14526   6.037   4.328   6.585 -0.1982  2.0886 -0.6030
  134OSM    C6S14527   6.086   4.302   6.373 -0.4389  0.9867  0.1079
  134OSM    H6S14528   6.120   4.203   6.338 -0.2122  0.8823  0.6164
  134OSM    H6T14529   6.174   4.361   6.407  0.4709 -0.1748 -0.2074
  134OSM    C7S14530   6.028   4.384   6.254 -0.0535  0.3263  1.0063
  134OSM    H7S14531   6.026   4.491   6.282 -0.3755  0.9173 -1.1604
  134OSM    H7T14532   5.924   4.358   6.224  0.9910 -1.8675 -1.0583
  134OSM    C8S14533   6.120   4.378   6.122  0.2006  0.5271 -0.1574
  134OSM    H8S14534   6.223   4.371   6.162 -0.1711 -1.6522  0.5728
  134OSM    H8T14535   6.108   4.467   6.058 -2.0899 -0.5398 -1.3134
  134OSM    C9S14536   6.080   4.258   6.043 -0.0566  0.5986  0.7491
  134OSM    H9S14537   5.977   4.280   6.008 -0.8151 -0.7756  1.9749
  134OSM    H9T14538   6.055   4.163   6.095  0.2665 -0.5284 -1.0628
  134OSM   C10S14539   6.174   4.204   5.932 -0.2293 -0.4510 -0.2956
  134OSM   H10S14540   6.117   4.121   5.884 -2.4343 -0.2336  1.7562
  134OSM   H10T14541   6.267   4.166   5.979  1.3542  2.5589 -0.7246
  134OSM   C11S14542   6.212   4.310   5.828  0.6216  0.6314 -0.3241
  134OSM   H11S14543   6.271   4.378   5.893  1.4675  0.0770 -0.4959
  134OSM   H11T14544   6.129   4.368   5.784  0.3930 -1.0075 -2.2046
  134OSM   C12S14545   6.289   4.245   5.721  0.5513  0.5555 -0.1246
  134OSM   H12S14546   6.218   4.180   5.665 -1.2168  3.3435 -1.3303
  134OSM   H12T14547   6.364   4.175   5.765  3.0458  2.9459 -0.2926
  134OSM   C13S14548   6.344   4.342   5.610 -0.4073  0.1013 -0.6838
  134OSM   H13S14549   6.427   4.289   5.560 -2.1691 -3.6423  0.0514
  134OSM   H13T14550   6.379   4.431   5.667  0.9480 -1.9048  1.8273
  134OSM   C14S14551   6.261   4.400   5.499  0.1684  0.1234 -0.6491
  134OSM   H14S14552   6.182   4.471   5.531 -1.4296 -0.9995 -1.9272
  134OSM   H14T14553   6.205   4.320   5.447  0.3513 -0.6046  0.2354
  134OSM   C15S14554   6.336   4.473   5.390 -0.0904  1.1420  0.8067
  134OSM   H15S14555   6.272   4.473   5.300  0.6493  1.8764  0.2692
  134OSM   H15T14556   6.430   4.424   5.355 -1.1029  1.2427 -2.3452
  134OSM   C16S14557   6.362   4.619   5.429 -0.6574  0.2111  0.3830
  134OSM   H16S14558   6.416   4.632   5.525 -0.4201  0.0554  0.2701
  134OSM   H16T14559   6.266   4.674   5.425  0.7897  2.8131 -0.7048
  134OSM   C17S14560   6.446   4.691   5.327 -0.2333  0.2391  0.2044
  134OSM   H17S14561   6.543   4.638   5.313  0.8584  2.3621 -0.7694
  134OSM   H17T14562   6.459   4.793   5.367 -0.1339 -0.5903  2.4218
  134OSM   C18S14563   6.398   4.701   5.183  0.8719  0.0748 -0.1792
  134OSM   H18S14564   6.474   4.731   5.108 -0.2627  0.8881 -1.0465
  134OSM   H18T14565   6.328   4.788   5.178 -0.3277 -0.8343  0.3046
  134OSM   H18U14566   6.332   4.617   5.153  2.0136 -0.4815 -1.2094
  134OSM    C1F14567   5.523   4.394   6.444 -0.1201 -0.8717 -0.2381
  134OSM     OF14568   5.493   4.480   6.523  0.5166  0.2916 -0.2219
  134OSM    C2F14569   5.483   4.403   6.302 -0.3779  0.2932  0.1764
  134OSM    H2F14570   5.435   4.307   6.274 -1.3776  0.0712  2.4148
  134OSM    H2G14571   5.579   4.416   6.248  0.9607 -0.6980  2.1767
  134OSM    C3F14572   5.371   4.516   6.282  0.2998  0.0501  0.2241
  134OSM    H3F14573   5.415   4.614   6.311  1.4263 -0.5736  0.6736
  134OSM    H3G14574   5.283   4.503   6.348 -0.7317 -0.6775 -1.2259
  134OSM    C4F14575   5.309   4.509   6.142 -0.1226 -0.2262 -0.1310
  134OSM    H4F14576   5.220   4.576   6.137 -0.6028 -0.7528  0.9912
  134OSM    H4G14577   5.272   4.405   6.131  0.8560 -0.5974 -0.0120
  134OSM    C5F14578   5.413   4.557   6.038  0.0174 -0.0476  0.0786
  134OSM    H5F14579   5.499   4.488   6.048 -0.1265 -0.0481  1.5963
  134OSM    H5G14580   5.444   4.660   6.065 -2.0094  0.3732  1.0099
  134OSM    C6F14581   5.339   4.557   5.909  0.3716  0.4017  0.3231
  134OSM    H6F14582   5.286   4.654   5.907  3.8137  2.4114 -0.1277
  134OSM    H6G14583   5.278   4.465   5.896 -0.3316  0.9466 -0.2960
  134OSM    C7F14584   5.431   4.552   5.784  0.0666 -0.2391  0.6708
  134OSM    H7F14585   5.483   4.455   5.779  0.7259  0.1112  0.5788
  134OSM    H7G14586   5.500   4.633   5.815 -0.2512  0.7501 -1.0112
  134OSM    C8F14587   5.368   4.599   5.653  0.0101 -0.5799 -0.2240
  134OSM    H8F14588   5.320   4.698   5.659 -0.7782 -1.0141  0.7758
  134OSM    H8G14589   5.278   4.534   5.642  0.5440 -1.6910  1.5627
  134OSM    C9F14590   5.454   4.597   5.528 -0.2157  0.5361  0.0517
  134OSM    H9F14591   5.486   4.697   5.495 -1.3324  0.3107 -1.8817
  134OSM   C10F14592   5.471   4.489   5.446  0.2647  0.3492  0.4110
  134OSM   H10F14593   5.550   4.494   5.369  0.9908 -3.2160  0.7495
  134OSM   C11F14594   5.405   4.354   5.469  0.0521 -0.1856  0.3820
  134OSM   H11F14595   5.325   4.363   5.545  0.7779  2.6628  0.9321
  134OSM   H11G14596   5.485   4.290   5.512 -0.5618 -1.1013  0.1649
  134OSM   C12F14597   5.335   4.287   5.344  0.1482  0.5749 -0.5059
  134OSM   H12F14598   5.265   4.356   5.292  0.5760 -0.2527 -2.2641
  134OSM   H12G14599   5.275   4.197   5.369  0.8790  0.3949  0.6775
  134OSM   C13F14600   5.446   4.240   5.245 -0.2293 -0.3921  0.6119
  134OSM   H13F14601   5.518   4.169   5.292 -0.4739 -0.1361  1.3990
  134OSM   H13G14602   5.509   4.329   5.220 -1.1730 -0.3175 -1.6837
  134OSM   C14F14603   5.397   4.174   5.114 -0.3972  0.1251 -0.1499
  134OSM   H14F14604   5.322   4.249   5.081 -1.0027  0.7931  2.5103
  134OSM   H14G14605   5.343   4.080   5.137 -0.9207 -0.0088 -1.8085
  134OSM   C15F14606   5.499   4.150   5.004 -0.1522  0.0170  0.0837
  134OSM   H15F14607   5.550   4.063   5.051 -0.7180  0.0853  0.8404
  134OSM   H15G14608   5.581   4.222   4.989  0.0822 -0.0986  0.8159
  134OSM   C16F14609   5.436   4.106   4.870 -0.0413 -0.0470  0.2921
  134OSM   H16F14610   5.433   4.193   4.801  2.7819 -0.0557  0.0134
  134OSM   H16G14611   5.332   4.070   4.877 -0.6390  1.6322  0.6203
  134OSM   C17F14612   5.527   3.994   4.806  1.2804 -0.5270 -0.1925
  134OSM   H17F14613   5.502   3.905   4.867 -0.1583 -0.3538 -0.5003
  134OSM   H17G14614   5.634   4.024   4.808  1.2513 -0.4077 -0.3723
  134OSM   C18F14615   5.475   3.966   4.663 -0.1332  0.5932  0.3255
  134OSM   H18F14616   5.515   3.868   4.629 -0.5086  0.5860 -0.0979
  134OSM   H18G14617   5.516   4.046   4.598  2.7428 -0.6946  0.4068
  134OSM   H18H14618   5.364   3.960   4.673 -0.2447 -0.3406 -1.1429
  135OSM      N14619   4.142   3.671   7.096 -0.1226  0.0573  0.3385
  135OSM    C1514620   4.106   3.805   7.155  0.8918  0.3161  0.0185
  135OSM   H15A14621   4.092   3.810   7.262  1.1170 -0.4148  0.0887
  135OSM   H15B14622   4.016   3.847   7.112 -0.0919 -1.8001 -0.0946
  135OSM   H15C14623   4.194   3.868   7.149 -0.2459  2.0741  1.0233
  135OSM    C1414624   4.250   3.627   7.186 -0.5828  0.4714  0.1545
  135OSM   H14A14625   4.218   3.575   7.275 -1.0121  1.8843  0.8510
  135OSM   H14B14626   4.300   3.716   7.223  0.0569 -0.3397  1.2973
  135OSM   H14C14627   4.324   3.565   7.138 -1.3019  0.7803 -1.4112
  135OSM    C1314628   4.028   3.583   7.118  0.2158 -0.0380 -0.2769
  135OSM   H13A14629   3.943   3.620   7.063  0.0935 -1.0819 -0.8018
  135OSM   H13B14630   4.000   3.579   7.222 -0.0017  2.2367 -0.1993
  135OSM   H13C14631   4.045   3.487   7.073  0.1929  0.6963 -1.9220
  135OSM    C1214632   4.182   3.701   6.953 -0.0176 -0.0683 -0.1331
  135OSM   H12A14633   4.092   3.732   6.902 -1.5768  1.5260  3.2947
  135OSM   H12B14634   4.219   3.611   6.906 -0.3344 -0.5844  0.5925
  135OSM    C1114635   4.284   3.811   6.933  0.4743  0.3552 -0.0945
  135OSM   H11A14636   4.236   3.904   6.970  0.2587  0.0436  0.4122
  135OSM   H11B14637   4.286   3.828   6.823 -0.8086 -1.0537 -0.3611
  135OSM      P14638   4.537   3.749   6.915 -0.0643 -0.4317 -0.1974
  135OSM    O1314639   4.650   3.736   7.007 -0.2824  0.0743  0.0614
  135OSM    O1414640   4.507   3.628   6.832  0.0240  0.3288 -0.7421
  135OSM    O1114641   4.547   3.870   6.817  0.2068 -0.5996  0.1458
  135OSM    O1214642   4.407   3.784   7.000 -0.1935  0.2061 -0.3392
  135OSM    C1S14643   4.659   3.873   6.719 -0.2836  0.1496 -0.0966
  135OSM    H1S14644   4.703   3.773   6.696 -0.5053  0.0692 -0.1715
  135OSM    H1T14645   4.738   3.938   6.762 -0.3238 -0.3891  0.8227
  135OSM     NF14646   4.693   3.923   6.472 -0.4243  0.4241  0.7783
  135OSM    HNF14647   4.741   4.003   6.435 -0.0383 -0.1235  0.0684
  135OSM    C2S14648   4.605   3.936   6.579 -0.3175 -0.3026 -0.0051
  135OSM    H2S14649   4.518   3.871   6.555 -0.2004 -0.1554 -0.8662
  135OSM    C3S14650   4.545   4.082   6.598  0.0283 -0.0150 -0.2326
  135OSM    H3S14651   4.629   4.140   6.641  0.7071 -2.7411  2.5581
  135OSM     O314652   4.438   4.098   6.694  0.1753  0.0995  0.3843
  135OSM    HO314653   4.440   4.015   6.743  5.3564  0.1986  0.8272
  135OSM    C4S14654   4.502   4.142   6.470 -0.5983  0.3795 -0.9752
  135OSM    H4S14655   4.405   4.106   6.433  0.3470  0.3951 -3.6705
  135OSM    C5S14656   4.552   4.245   6.408  0.3738  0.3282 -0.1854
  135OSM    H5S14657   4.641   4.295   6.449  0.1871  1.0671 -0.6579
  135OSM    C6S14658   4.491   4.301   6.282  0.3800  0.0928 -0.1440
  135OSM    H6S14659   4.407   4.246   6.235 -0.3180  1.3064 -0.3744
  135OSM    H6T14660   4.571   4.315   6.205  0.4382  1.1916  0.0917
  135OSM    C7S14661   4.417   4.438   6.311 -0.1761  0.5347  0.3002
  135OSM    H7S14662   4.486   4.510   6.360 -0.9409  2.1477 -0.8870
  135OSM    H7T14663   4.335   4.428   6.386 -0.0896  0.1883  0.3521
  135OSM    C8S14664   4.348   4.484   6.180  0.2153  0.2169 -1.3240
  135OSM    H8S14665   4.291   4.573   6.214  1.6203  0.0530  1.8231
  135OSM    H8T14666   4.280   4.398   6.162 -0.8586  0.8377 -0.3595
  135OSM    C9S14667   4.441   4.518   6.070 -0.5396  0.5148  0.1727
  135OSM    H9S14668   4.499   4.430   6.038 -0.6798 -0.4642  2.4141
  135OSM    H9T14669   4.515   4.593   6.105  0.3215  0.1909 -0.9114
  135OSM   C10S14670   4.372   4.580   5.954  0.0166 -0.3083  0.4155
  135OSM   H10S14671   4.343   4.685   5.975 -1.1549 -0.1930 -1.5411
  135OSM   H10T14672   4.276   4.529   5.931  0.2912 -0.6805  0.0975
  135OSM   C11S14673   4.467   4.588   5.836 -0.1477  0.3334  0.3888
  135OSM   H11S14674   4.474   4.481   5.804  1.6976  0.3300  0.6687
  135OSM   H11T14675   4.565   4.625   5.873  0.0507 -1.7764  2.1783
  135OSM   C12S14676   4.422   4.677   5.725 -0.3616 -0.6838 -0.0229
  135OSM   H12S14677   4.512   4.700   5.665 -1.1470 -1.8218 -1.7087
  135OSM   H12T14678   4.385   4.776   5.762  3.1754  0.6891  0.1947
  135OSM   C13S14679   4.312   4.614   5.638 -0.1342  0.1129 -0.2672
  135OSM   H13S14680   4.226   4.596   5.707 -0.9074  2.8778 -0.3841
  135OSM   H13T14681   4.336   4.509   5.612  0.4033 -0.0840  0.9325
  135OSM   C14S14682   4.276   4.711   5.523  0.0582  0.1813 -0.4151
  135OSM   H14S14683   4.349   4.700   5.440 -0.7744  1.7918 -1.4057
  135OSM   H14T14684   4.294   4.813   5.562  2.2286 -0.0069 -0.7566
  135OSM   C15S14685   4.138   4.695   5.477 -0.7077 -0.2331 -0.9509
  135OSM   H15S14686   4.068   4.714   5.562  0.5546 -2.4322  0.6795
  135OSM   H15T14687   4.108   4.593   5.445 -2.0567 -0.3756  0.6095
  135OSM   C16S14688   4.110   4.798   5.367  0.2430  0.1135 -0.0967
  135OSM   H16S14689   4.169   4.771   5.277 -0.2211  1.9322 -0.9886
  135OSM   H16T14690   4.145   4.902   5.387 -2.2361  1.9016 -4.0633
  135OSM   C17S14691   3.965   4.791   5.323  0.2031  0.2426 -0.3014
  135OSM   H17S14692   3.895   4.771   5.407  1.1716 -3.0782 -0.1479
  135OSM   H17T14693   3.958   4.709   5.248  0.1709 -1.0052  1.0265
  135OSM   C18S14694   3.920   4.923   5.263 -0.5399  0.1633 -0.6370
  135OSM   H18S14695   3.979   4.963   5.177 -1.3148  0.2418 -1.1542
  135OSM   H18T14696   3.917   4.987   5.354 -0.7782 -2.9235  1.6688
  135OSM   H18U14697   3.812   4.917   5.235 -0.5691 -0.6613 -0.3551
  135OSM    C1F14698   4.712   3.806   6.412  0.0534 -0.4665  0.2912
  135OSM     OF14699   4.680   3.702   6.472  0.1195 -0.4199  0.0269
  135OSM    C2F14700   4.756   3.805   6.266  0.2040 -0.6246  0.1029
  135OSM    H2F14701   4.704   3.720   6.216 -1.3195  0.2065  0.2167
  135OSM    H2G14702   4.866   3.792   6.269  0.5520  1.9285  0.6100
  135OSM    C3F14703   4.710   3.930   6.187 -0.5384 -0.2980 -0.0785
  135OSM    H3F14704   4.758   4.023   6.225  1.7721 -0.6017 -1.9830
  135OSM    H3G14705   4.601   3.950   6.189 -0.7457 -1.4128  1.1104
  135OSM    C4F14706   4.753   3.916   6.042  0.4328 -0.7154  0.0159
  135OSM    H4F14707   4.863   3.921   6.039  0.4434 -0.2222  0.8474
  135OSM    H4G14708   4.712   3.817   6.012 -2.6049 -0.1356  1.7855
  135OSM    C5F14709   4.699   4.028   5.952 -0.6232 -0.0744 -0.5738
  135OSM    H5F14710   4.682   4.122   6.009 -0.7612 -1.2754  1.4506
  135OSM    H5G14711   4.603   3.994   5.908  0.3367 -2.3370 -1.0368
  135OSM    C6F14712   4.801   4.049   5.834 -0.1533  0.4856 -0.0578
  135OSM    H6F14713   4.904   4.016   5.861 -0.0716  0.1937 -0.6870
  135OSM    H6G14714   4.803   4.157   5.809 -2.0035  0.2077 -1.6844
  135OSM    C7F14715   4.763   3.970   5.711  0.3322 -0.3950  0.1060
  135OSM    H7F14716   4.666   4.018   5.684 -0.3282 -1.1249  1.1005
  135OSM    H7G14717   4.730   3.867   5.738 -0.6924 -0.2171 -0.4162
  135OSM    C8F14718   4.859   3.966   5.595 -0.0698 -0.5800 -0.2416
  135OSM    H8F14719   4.824   3.889   5.523 -0.7355  0.1475 -0.7147
  135OSM    H8G14720   4.953   3.926   5.638  1.3561  2.0835 -0.6776
  135OSM    C9F14721   4.884   4.099   5.527 -0.3321  0.6524  0.3725
  135OSM    H9F14722   4.874   4.189   5.589  0.1342  0.8089  0.2291
  135OSM   C10F14723   4.907   4.120   5.395 -0.3199  0.5832  0.0123
  135OSM   H10F14724   4.929   4.224   5.368 -2.4719  0.5898 -2.0757
  135OSM   C11F14725   4.940   4.014   5.288 -0.0404 -0.4328 -0.4114
  135OSM   H11F14726   4.848   3.958   5.262 -0.3147  0.4524 -1.3957
  135OSM   H11G14727   5.005   3.939   5.339 -0.6877 -0.6344  0.1189
  135OSM   C12F14728   5.015   4.073   5.163 -0.1397  0.5367  0.2110
  135OSM   H12F14729   5.044   3.987   5.099  1.1983  0.0566  1.4040
  135OSM   H12G14730   5.113   4.118   5.192  0.7738 -0.6169 -0.9935
  135OSM   C13F14731   4.935   4.178   5.079 -0.3795  0.1106  0.5491
  135OSM   H13F14732   4.826   4.157   5.090 -0.5608  0.7083 -0.0189
  135OSM   H13G14733   4.946   4.164   4.970 -2.6467 -0.4815  0.3482
  135OSM   C14F14734   4.965   4.328   5.109 -0.9027 -0.3210 -0.4234
  135OSM   H14F14735   5.062   4.356   5.063 -0.3118 -0.7531  0.5300
  135OSM   H14G14736   4.967   4.341   5.220 -0.9966 -2.5455 -0.1224
  135OSM   C15F14737   4.855   4.415   5.054 -0.0456  0.5397  0.4905
  135OSM   H15F14738   4.761   4.397   5.109  0.5734  2.4440  2.3219
  135OSM   H15G14739   4.832   4.379   4.951  2.0753 -0.5820  0.3571
  135OSM   C16F14740   4.886   4.568   5.045  0.3698 -0.1925  0.1221
  135OSM   H16F14741   4.961   4.581   4.964 -0.3344  0.1555 -0.4795
  135OSM   H16G14742   4.924   4.600   5.145  1.0539 -0.5043 -0.0319
  135OSM   C17F14743   4.760   4.647   5.007 -0.1734 -0.3174  0.1844
  135OSM   H17F14744   4.676   4.638   5.080 -1.6589 -0.1633 -1.4373
  135OSM   H17G14745   4.718   4.609   4.911 -1.5559 -0.3753  0.7877
  135OSM   C18F14746   4.800   4.791   4.986  0.1106 -0.5754 -0.1650
  135OSM   H18F14747   4.868   4.788   4.899 -2.0461 -0.1403 -1.9554
  135OSM   H18G14748   4.845   4.824   5.082  0.1480  2.0294 -0.9923
  135OSM   H18H14749   4.717   4.858   4.956  1.9189  1.5508 -0.6485
  136OSM      N14750   2.140   1.679   7.273  0.1342 -0.0047 -0.7376
  136OSM    C1514751   2.281   1.720   7.309  0.4752 -0.1436  0.6199
  136OSM   H15A14752   2.318   1.668   7.396 -2.3292  1.8175  3.2032
  136OSM   H15B14753   2.276   1.828   7.317 -1.8244 -0.0642 -0.8537
  136OSM   H15C14754   2.343   1.689   7.226 -0.5495 -1.9577  0.4978
  136OSM    C1414755   2.079   1.764   7.163 -0.1625 -0.1514  0.3823
  136OSM   H14A14756   2.150   1.756   7.082  1.2523 -2.9718  1.7251
  136OSM   H14B14757   2.061   1.865   7.195  1.7298  0.3942 -0.1776
  136OSM   H14C14758   1.980   1.737   7.128  0.3074  1.5586 -2.6473
  136OSM    C1314759   2.146   1.533   7.220 -0.3150 -1.3463 -0.2528
  136OSM   H13A14760   2.172   1.461   7.296  0.1795  0.2606  1.1723
  136OSM   H13B14761   2.218   1.529   7.139  0.0116 -1.1913  0.0262
  136OSM   H13C14762   2.050   1.499   7.184  0.0812 -0.6333 -2.0899
  136OSM    C1214763   2.055   1.684   7.393 -0.1216  0.0381 -0.0461
  136OSM   H12A14764   2.079   1.597   7.452  0.3694  1.1645  1.4852
  136OSM   H12B14765   1.953   1.662   7.364 -1.4150  2.7476  1.8614
  136OSM    C1114766   2.056   1.812   7.477 -0.3678  0.5126  0.1546
  136OSM   H11A14767   2.146   1.830   7.539 -0.7406  0.8828  0.5967
  136OSM   H11B14768   1.977   1.789   7.552 -0.1208 -0.5579  0.1046
  136OSM      P14769   2.102   2.064   7.384 -0.4978  0.1685  0.3492
  136OSM    O1314770   2.045   2.168   7.469  0.9948 -0.2379  0.6715
  136OSM    O1414771   2.248   2.043   7.409  0.4240  0.4227 -0.1563
  136OSM    O1114772   2.069   2.093   7.233 -0.2791  0.4154 -0.1204
  136OSM    O1214773   2.009   1.934   7.410 -0.6019  0.0430  0.0187
  136OSM    C1S14774   1.932   2.097   7.195 -0.1989 -0.3252  0.8299
  136OSM    H1S14775   1.871   2.176   7.243  1.3831  2.1954 -1.0386
  136OSM    H1T14776   1.886   1.997   7.207  0.3446 -0.9230 -1.5004
  136OSM     NF14777   1.785   2.138   6.994  0.4368 -0.4650 -0.3010
  136OSM    HNF14778   1.763   2.059   6.937 -1.5646 -0.7575  0.7951
  136OSM    C2S14779   1.923   2.138   7.041  0.0858 -0.2691 -0.5587
  136OSM    H2S14780   1.963   2.241   7.026 -1.1935  0.0898 -1.6984
  136OSM    C3S14781   2.018   2.050   6.959 -0.0564  0.0896 -0.0783
  136OSM    H3S14782   1.997   1.941   6.952 -0.6897  0.2396 -0.6320
  136OSM     O314783   2.154   2.042   7.006  0.3766 -0.1162 -0.5147
  136OSM    HO314784   2.154   2.092   7.088  2.6952 -0.7545 -0.0541
  136OSM    C4S14785   2.028   2.103   6.823 -0.0590  0.1537 -0.0947
  136OSM    H4S14786   2.118   2.165   6.810  1.9763 -2.7757 -1.0302
  136OSM    C5S14787   1.959   2.057   6.719 -0.0344  0.0740 -0.1015
  136OSM    H5S14788   1.895   1.971   6.743  0.8348  0.2034  3.2948
  136OSM    C6S14789   1.973   2.087   6.574 -0.2166  0.0488  0.7900
  136OSM    H6S14790   1.868   2.092   6.538 -0.6818  3.7341  2.1984
  136OSM    H6T14791   2.022   2.007   6.514 -0.4545 -0.2800  1.0364
  136OSM    C7S14792   2.042   2.222   6.535 -0.7217 -0.4254  0.1009
  136OSM    H7S14793   2.150   2.223   6.561 -0.0610  1.1154 -2.4237
  136OSM    H7T14794   1.996   2.308   6.587  0.2069  0.7685 -0.9735
  136OSM    C8S14795   2.051   2.253   6.380  0.9663  0.6644  0.1873
  136OSM    H8S14796   2.111   2.345   6.365  1.7183  0.2379  0.5238
  136OSM    H8T14797   1.948   2.272   6.341  0.1002  0.6799  2.3562
  136OSM    C9S14798   2.113   2.136   6.297  0.1131 -0.1855  0.1242
  136OSM    H9S14799   2.069   2.036   6.316 -3.3428  1.5291  2.0445
  136OSM    H9T14800   2.218   2.126   6.329  0.2623 -0.1407 -0.3375
  136OSM   C10S14801   2.096   2.171   6.149 -0.3469 -0.2658  0.6493
  136OSM   H10S14802   2.136   2.274   6.145 -0.0862 -0.3889 -0.0484
  136OSM   H10T14803   1.988   2.169   6.122 -0.1189 -0.1885 -0.2994
  136OSM   C11S14804   2.172   2.080   6.049 -0.8297 -0.0438 -0.5860
  136OSM   H11S14805   2.145   1.973   6.057 -1.4854  0.2281  1.6314
  136OSM   H11T14806   2.281   2.093   6.071 -1.0901 -0.2009  0.9338
  136OSM   C12S14807   2.149   2.141   5.916 -0.0954 -0.0847 -1.0448
  136OSM   H12S14808   2.133   2.251   5.911  0.5987  0.0210 -1.1699
  136OSM   H12T14809   2.051   2.096   5.891 -1.5937  0.3348  3.3383
  136OSM   C13S14810   2.268   2.097   5.815 -0.0275  0.0884 -0.1674
  136OSM   H13S14811   2.280   1.988   5.834  0.5274  0.5557  2.5066
  136OSM   H13T14812   2.358   2.152   5.848  0.2587 -0.6045  0.2341
  136OSM   C14S14813   2.235   2.116   5.661 -0.1125 -0.2462  0.1553
  136OSM   H14S14814   2.126   2.102   5.674 -0.2651  1.2934  0.7762
  136OSM   H14T14815   2.290   2.033   5.611 -0.7255 -1.1874  1.0251
  136OSM   C15S14816   2.267   2.264   5.602 -0.3082  0.7875  0.5533
  136OSM   H15S14817   2.378   2.268   5.612 -0.3126  2.6716  0.0876
  136OSM   H15T14818   2.208   2.334   5.664 -0.4041  0.5827  0.6937
  136OSM   C16S14819   2.217   2.269   5.456  0.1095  0.4472 -0.0847
  136OSM   H16S14820   2.111   2.239   5.442  0.2905 -0.0426 -0.4461
  136OSM   H16T14821   2.258   2.180   5.403 -2.5301 -0.6845 -0.3943
  136OSM   C17S14822   2.253   2.395   5.378  0.4718 -0.1893  0.1034
  136OSM   H17S14823   2.288   2.479   5.443  0.9009  1.5935 -2.3000
  136OSM   H17T14824   2.170   2.439   5.319 -0.3744  0.7964  1.9436
  136OSM   C18S14825   2.371   2.362   5.286  0.1374 -0.5441 -0.6891
  136OSM   H18S14826   2.396   2.459   5.237 -2.2665  0.7788  0.4848
  136OSM   H18T14827   2.340   2.280   5.217 -0.3148 -1.0654  0.1272
  136OSM   H18U14828   2.459   2.335   5.347  0.8425  2.4050 -0.2148
  136OSM    C1F14829   1.686   2.221   7.028  0.3040 -0.5537  0.3183
  136OSM     OF14830   1.700   2.311   7.107  0.4394 -0.6350  0.1046
  136OSM    C2F14831   1.554   2.193   6.966  0.4235 -0.2737 -0.4320
  136OSM    H2F14832   1.478   2.181   7.047  0.4462 -0.1776 -0.3968
  136OSM    H2G14833   1.553   2.096   6.911 -0.1794 -1.0431  0.8864
  136OSM    C3F14834   1.511   2.302   6.869  0.1850  1.0127 -0.2637
  136OSM    H3F14835   1.465   2.393   6.915 -0.4502  0.3750  0.3906
  136OSM    H3G14836   1.427   2.268   6.805  1.0330  1.2476 -1.5318
  136OSM    C4F14837   1.618   2.350   6.773 -0.0842 -0.9307  0.2603
  136OSM    H4F14838   1.694   2.275   6.742  0.6720  0.0868 -0.4325
  136OSM    H4G14839   1.674   2.417   6.843 -2.1337 -0.7506  1.8394
  136OSM    C5F14840   1.566   2.440   6.664 -0.5904 -0.4599  0.5584
  136OSM    H5F14841   1.523   2.530   6.711  1.8775  0.2498  1.6398
  136OSM    H5G14842   1.488   2.388   6.605  0.6418 -1.9004  0.1388
  136OSM    C6F14843   1.681   2.488   6.575 -0.3222 -0.4585 -0.1172
  136OSM    H6F14844   1.730   2.395   6.539 -2.1582 -0.9565 -1.5118
  136OSM    H6G14845   1.756   2.540   6.638  0.9531 -3.7939  1.3720
  136OSM    C7F14846   1.626   2.565   6.451  0.0559  0.1129  0.4468
  136OSM    H7F14847   1.605   2.672   6.471 -3.6540  0.2670 -3.0456
  136OSM    H7G14848   1.527   2.515   6.439  0.9769 -2.2570  1.9740
  136OSM    C8F14849   1.708   2.552   6.323  0.1108 -0.4507 -0.6789
  136OSM    H8F14850   1.729   2.443   6.316  2.5413 -0.3045  2.3166
  136OSM    H8G14851   1.800   2.608   6.347  0.6989 -1.0396 -1.5095
  136OSM    C9F14852   1.627   2.606   6.207  0.1814  0.2505 -0.9472
  136OSM    H9F14853   1.538   2.665   6.231  1.2004  2.5932 -2.6115
  136OSM   C10F14854   1.653   2.572   6.079  0.0940 -0.0534 -0.0024
  136OSM   H10F14855   1.584   2.599   5.998  0.3953  0.6913 -0.0227
  136OSM   C11F14856   1.781   2.504   6.039  0.2127  0.1295  0.1765
  136OSM   H11F14857   1.758   2.414   5.977 -0.7994  0.8718 -0.5638
  136OSM   H11G14858   1.841   2.475   6.127  0.5827  0.2024 -0.0506
  136OSM   C12F14859   1.860   2.616   5.968  0.3901  0.0227  0.6450
  136OSM   H12F14860   1.880   2.708   6.027  3.1900  0.1243 -0.3111
  136OSM   H12G14861   1.811   2.658   5.878  2.8980 -0.4921 -1.0807
  136OSM   C13F14862   1.995   2.559   5.928 -0.0971 -0.3800  0.1010
  136OSM   H13F14863   1.969   2.483   5.852  2.1059 -1.7766  0.6327
  136OSM   H13G14864   2.043   2.510   6.016 -1.1564  0.8109  1.3919
  136OSM   C14F14865   2.106   2.659   5.882 -0.5089  0.2022  0.0446
  136OSM   H14F14866   2.116   2.732   5.965  2.1485 -0.2423  0.2090
  136OSM   H14G14867   2.082   2.707   5.784 -0.5233  2.7771  1.2137
  136OSM   C15F14868   2.237   2.580   5.866 -0.0070  0.8957  0.1282
  136OSM   H15F14869   2.232   2.498   5.791 -0.9678  1.4559 -0.4263
  136OSM   H15G14870   2.251   2.523   5.961  0.5779  1.1992  0.2294
  136OSM   C16F14871   2.359   2.662   5.836 -0.3264  0.3019 -0.1740
  136OSM   H16F14872   2.454   2.603   5.830 -1.3654 -1.3918 -0.8402
  136OSM   H16G14873   2.377   2.732   5.919  1.3316 -0.6188  0.2933
  136OSM   C17F14874   2.354   2.746   5.703 -0.1646 -0.1226 -0.9375
  136OSM   H17F14875   2.298   2.838   5.732  1.0049  0.6618 -1.0739
  136OSM   H17G14876   2.305   2.691   5.620  0.5615  0.1790 -1.5805
  136OSM   C18F14877   2.488   2.803   5.648  0.8320  0.2023 -0.6898
  136OSM   H18F14878   2.517   2.893   5.707 -1.7943  1.1476 -0.6876
  136OSM   H18G14879   2.485   2.823   5.539 -0.6037 -2.2173 -1.1742
  136OSM   H18H14880   2.562   2.721   5.658 -1.0502 -1.6128 -0.9895
  137OSM      N14881   4.790   3.322   6.894  0.5246 -0.1918 -1.1649
  137OSM    C1514882   4.721   3.379   6.770 -0.4082  0.0945  0.1418
  137OSM   H15A14883   4.633   3.439   6.790 -0.2166  1.2467 -2.1196
  137OSM   H15B14884   4.689   3.296   6.709 -0.4840  0.3933 -0.2248
  137OSM   H15C14885   4.792   3.449   6.729  0.6060  1.2221  3.4450
  137OSM    C1414886   4.785   3.426   7.006  0.1588  0.0029 -0.7452
  137OSM   H14A14887   4.845   3.514   6.985 -2.2710  2.2146  0.8698
  137OSM   H14B14888   4.834   3.383   7.093  2.3035 -1.1876 -2.4555
  137OSM   H14C14889   4.687   3.466   7.026  0.3025 -0.8193  2.1810
  137OSM    C1314890   4.699   3.217   6.946 -0.2232  0.8501 -0.1727
  137OSM   H13A14891   4.696   3.127   6.885  0.2317  0.0509  0.9353
  137OSM   H13B14892   4.596   3.246   6.958 -0.4233 -0.0920  0.5968
  137OSM   H13C14893   4.724   3.182   7.046 -1.2322  4.0265  1.3075
  137OSM    C1214894   4.934   3.284   6.866  0.2540 -0.1636  0.2314
  137OSM   H12A14895   4.980   3.370   6.821  0.3935  1.0374  2.5067
  137OSM   H12B14896   4.932   3.208   6.790 -0.3270  0.4399 -0.3691
  137OSM    C1114897   5.022   3.224   6.972  0.4720 -0.6893  0.0577
  137OSM   H11A14898   4.957   3.145   7.015  0.4750 -0.4279  0.5551
  137OSM   H11B14899   5.038   3.299   7.053  2.7441 -0.0805 -0.8600
  137OSM      P14900   5.157   3.030   6.856 -0.5465  0.0977 -0.1051
  137OSM    O1314901   5.281   3.028   6.777  0.4525 -0.0030  1.1948
  137OSM    O1414902   5.142   2.926   6.953  0.5311 -0.1489  0.6746
  137OSM    O1114903   5.043   3.021   6.752  0.0483 -0.0919 -0.4390
  137OSM    O1214904   5.139   3.171   6.913  0.2235  0.1130  0.2161
  137OSM    C1S14905   4.916   2.959   6.765 -0.0219  0.1835  0.4275
  137OSM    H1S14906   4.839   3.011   6.826  0.4283  1.9876 -0.4826
  137OSM    H1T14907   4.928   2.859   6.812 -1.3235 -0.1624  0.0833
  137OSM     NF14908   4.714   2.884   6.631  0.1056 -0.2577 -0.4835
  137OSM    HNF14909   4.691   2.787   6.624 -3.1624  0.5240 -2.6834
  137OSM    C2S14910   4.852   2.930   6.623 -0.1629  0.3133  0.3403
  137OSM    H2S14911   4.856   3.026   6.566  1.5004 -1.3342 -2.5624
  137OSM    C3S14912   4.943   2.846   6.535 -0.0276 -0.3427 -0.4062
  137OSM    H3S14913   4.942   2.742   6.573 -1.5914  0.1031  0.9248
  137OSM     O314914   5.082   2.868   6.544 -0.4254 -0.4825  0.1956
  137OSM    HO314915   5.103   2.944   6.599  0.7562 -0.1130 -0.7170
  137OSM    C4S14916   4.884   2.840   6.395 -0.3340 -0.0965 -0.1080
  137OSM    H4S14917   4.826   2.751   6.368  1.0169 -1.0660  0.1126
  137OSM    C5S14918   4.900   2.931   6.302 -0.1466 -0.2916 -0.1786
  137OSM    H5S14919   4.964   3.016   6.330  1.6983 -1.4315 -0.7607
  137OSM    C6S14920   4.845   2.924   6.164 -0.5414  0.3701  0.1100
  137OSM    H6S14921   4.771   3.002   6.135 -0.8252  0.2093  0.3954
  137OSM    H6T14922   4.790   2.827   6.159  0.2464 -0.0694 -0.2443
  137OSM    C7S14923   4.947   2.911   6.049 -0.5230 -0.4711 -0.2815
  137OSM    H7S14924   5.017   2.832   6.081  0.3106  0.1330 -0.5821
  137OSM    H7T14925   5.007   3.005   6.050  2.2971 -2.1677 -0.0087
  137OSM    C8S14926   4.871   2.891   5.918  0.6483 -0.6841  0.3645
  137OSM    H8S14927   4.808   2.982   5.903 -0.9220 -1.6937  0.6358
  137OSM    H8T14928   4.799   2.807   5.927 -0.4315 -0.1040 -2.0601
  137OSM    C9S14929   4.952   2.878   5.790  0.2754  0.6665  0.5433
  137OSM    H9S14930   5.026   2.795   5.799  0.5763  0.6787 -1.4535
  137OSM    H9T14931   5.020   2.963   5.772  1.4939 -0.2001  0.9232
  137OSM   C10S14932   4.865   2.865   5.666  0.3092  0.5135 -0.2886
  137OSM   H10S14933   4.813   2.962   5.648  0.8044  0.6743 -0.9116
  137OSM   H10T14934   4.793   2.782   5.684 -0.0896  1.1815  1.3057
  137OSM   C11S14935   4.939   2.819   5.539  0.1108  0.0188 -0.0239
  137OSM   H11S14936   5.024   2.885   5.517 -0.7956  1.4069  0.5130
  137OSM   H11T14937   4.870   2.824   5.452 -0.1119 -1.2057  0.0637
  137OSM   C12S14938   4.987   2.675   5.536  0.0124  0.5782  0.4635
  137OSM   H12S14939   4.909   2.601   5.562  0.3853 -0.0821 -0.2543
  137OSM   H12T14940   5.073   2.652   5.603  0.2876 -1.8679 -0.6409
  137OSM   C13S14941   5.035   2.632   5.399  0.2210  0.3536  0.3906
  137OSM   H13S14942   5.097   2.709   5.348  4.1316 -2.7446 -0.0536
  137OSM   H13T14943   4.945   2.604   5.342  2.1569 -2.1052 -1.6599
  137OSM   C14S14944   5.114   2.499   5.408  0.2101 -0.0665 -0.0695
  137OSM   H14S14945   5.042   2.435   5.464  1.5974  0.6782  2.7066
  137OSM   H14T14946   5.210   2.506   5.463 -0.4756  1.1070  1.0499
  137OSM   C15S14947   5.144   2.451   5.267 -0.1659 -0.2678 -0.5138
  137OSM   H15S14948   5.057   2.437   5.199 -0.9189 -0.3762  0.4596
  137OSM   H15T14949   5.198   2.355   5.277  0.2996  0.1077  0.7594
  137OSM   C16S14950   5.255   2.534   5.190  0.7356  0.1745  0.2134
  137OSM   H16S14951   5.353   2.512   5.237  0.1291 -1.5300  0.7459
  137OSM   H16T14952   5.228   2.641   5.195 -3.3722 -0.6591 -0.1065
  137OSM   C17S14953   5.265   2.503   5.044  0.0258  0.4267 -0.3377
  137OSM   H17S14954   5.330   2.575   4.990  0.8604 -1.3214 -1.7571
  137OSM   H17T14955   5.164   2.511   4.997  0.1511 -2.5914 -1.3158
  137OSM   C18S14956   5.307   2.355   5.011  0.1583  0.0641  0.2006
  137OSM   H18S14957   5.409   2.344   5.055  0.3825  0.6185 -0.1673
  137OSM   H18T14958   5.314   2.325   4.904 -2.1079  2.0352 -0.5885
  137OSM   H18U14959   5.238   2.276   5.046 -1.1203  1.5490  1.1692
  137OSM    C1F14960   4.613   2.965   6.652  0.1115 -0.4787  0.2509
  137OSM     OF14961   4.637   3.080   6.678  0.0241 -0.5285  0.0978
  137OSM    C2F14962   4.477   2.903   6.653  0.4445  0.0941  0.7656
  137OSM    H2F14963   4.472   2.833   6.739 -1.9640 -1.4929 -0.5704
  137OSM    H2G14964   4.465   2.837   6.565  3.5884 -1.8263  1.5980
  137OSM    C3F14965   4.363   3.005   6.674 -0.4828  0.6161  0.1412
  137OSM    H3F14966   4.381   3.049   6.774 -2.6910  1.7613  0.0759
  137OSM    H3G14967   4.269   2.946   6.682  0.6134 -0.9114  3.6532
  137OSM    C4F14968   4.336   3.107   6.564 -0.2382  1.0034 -0.1785
  137OSM    H4F14969   4.350   3.051   6.469  0.5552  1.5101 -0.3748
  137OSM    H4G14970   4.399   3.199   6.565  0.1606  0.8374 -2.5281
  137OSM    C5F14971   4.193   3.153   6.564  0.1127  0.4234 -0.2482
  137OSM    H5F14972   4.167   3.190   6.666  0.3535  0.6523 -0.2712
  137OSM    H5G14973   4.131   3.061   6.555 -1.4212  1.5641 -1.9448
  137OSM    C6F14974   4.157   3.255   6.463  0.4374  0.3632 -0.0758
  137OSM    H6F14975   4.222   3.345   6.472  1.2017 -0.0181 -1.4378
  137OSM    H6G14976   4.055   3.293   6.486 -0.1656 -0.5569 -1.1335
  137OSM    C7F14977   4.163   3.210   6.316  0.5983 -0.0053 -0.9487
  137OSM    H7F14978   4.069   3.160   6.284 -1.2855  1.2706  2.1355
  137OSM    H7G14979   4.257   3.156   6.294  2.8686  3.4102 -0.3719
  137OSM    C8F14980   4.184   3.339   6.224 -0.8182  0.2528  0.1829
  137OSM    H8F14981   4.208   3.309   6.120 -1.4740 -1.9196  0.6054
  137OSM    H8G14982   4.277   3.386   6.262 -1.1315  1.4858 -0.5200
  137OSM    C9F14983   4.062   3.434   6.224  0.0058  0.1091  0.0821
  137OSM    H9F14984   4.044   3.502   6.309 -5.0158 -0.4680 -0.2154
  137OSM   C10F14985   3.967   3.440   6.128 -0.7605 -0.1600  0.0276
  137OSM   H10F14986   3.876   3.496   6.155  0.0554  0.2603  2.1326
  137OSM   C11F14987   3.966   3.357   6.002 -0.1081 -0.7947 -0.2181
  137OSM   H11F14988   3.881   3.285   6.002  1.0039 -2.1472  0.1463
  137OSM   H11G14989   4.062   3.306   5.975  0.2135  1.3871 -3.9696
  137OSM   C12F14990   3.941   3.459   5.886  0.9099 -0.0813 -1.2197
  137OSM   H12F14991   4.006   3.548   5.901  0.0092  0.3993  0.1025
  137OSM   H12G14992   3.836   3.497   5.893  1.9853  3.1440 -0.7183
  137OSM   C13F14993   3.948   3.399   5.748 -0.2000 -0.6252 -0.2843
  137OSM   H13F14994   3.901   3.473   5.679 -2.4084 -1.1535  0.5462
  137OSM   H13G14995   3.892   3.303   5.739 -0.7617 -0.5121  1.5870
  137OSM   C14F14996   4.097   3.374   5.712  0.2687 -0.3789  0.2831
  137OSM   H14F14997   4.132   3.291   5.778 -2.6948 -1.6950  0.3348
  137OSM   H14G14998   4.159   3.462   5.741 -0.1280  0.0841 -0.2621
  137OSM   C15F14999   4.120   3.346   5.566  0.1662 -0.4448 -1.1448
  137OSM   H15F15000   4.031   3.285   5.536 -0.7891 -0.3985  1.3736
  137OSM   H15G15001   4.218   3.294   5.565  0.7270  0.5770 -0.6128
  137OSM   C16F15002   4.107   3.466   5.472 -0.3618 -0.0167  0.2354
  137OSM   H16F15003   4.177   3.546   5.507 -0.2963  0.3904 -0.7944
  137OSM   H16G15004   4.007   3.510   5.490 -1.1417 -1.7109  0.2169
  137OSM   C17F15005   4.118   3.433   5.323 -0.4081 -0.1349  0.4160
  137OSM   H17F15006   4.228   3.424   5.309 -0.6269 -0.5276 -1.2117
  137OSM   H17G15007   4.081   3.519   5.263 -3.4617 -1.8945 -0.4427
  137OSM   C18F15008   4.037   3.313   5.270 -0.1779 -0.2051  0.2028
  137OSM   H18F15009   4.059   3.223   5.332  0.7128  0.3791  0.7675
  137OSM   H18G15010   4.067   3.296   5.164 -2.9999  0.6658 -0.8167
  137OSM   H18H15011   3.927   3.325   5.278  0.1546  3.3241  1.2919
  138OSM      N15012   5.982   0.128   7.082  0.5720 -0.2245  0.6818
  138OSM    C1515013   5.893   0.247   7.092 -0.4025  0.5153  0.1645
  138OSM   H15A15014   5.799   0.236   7.040 -0.5675 -1.1693  0.7561
  138OSM   H15B15015   5.943   0.338   7.062 -0.3729  0.4409 -0.0132
  138OSM   H15C15016   5.864   0.248   7.196  0.0040 -2.9651  0.4220
  138OSM    C1415017   6.088   0.139   7.185 -0.8514  0.5843  0.6347
  138OSM   H14A15018   6.153   0.053   7.187  0.7874  1.7639  1.5012
  138OSM   H14B15019   6.052   0.163   7.284 -3.0801  1.9541 -0.4331
  138OSM   H14C15020   6.151   0.223   7.158 -0.0850 -0.3289 -0.4795
  138OSM    C1315021   5.894   0.012   7.118 -1.1441 -0.0588  0.0205
  138OSM   H13A15022   5.818  -0.004   7.043  0.6473 -0.7198 -1.7383
  138OSM   H13B15023   5.831   0.032   7.204  0.3356  1.3685  0.8229
  138OSM   H13C15024   5.951  -0.080   7.123  2.0364  1.7378 -0.6595
  138OSM    C1215025   6.031   0.120   6.945  0.5286  0.2075  0.6013
  138OSM   H12A15026   5.951   0.122   6.873  1.0746 -1.0501 -0.0653
  138OSM   H12B15027   6.070   0.020   6.939  2.1948  0.7148  1.8684
  138OSM    C1115028   6.136   0.221   6.908 -0.4506 -0.0832 -0.0551
  138OSM   H11A15029   6.098   0.323   6.933  2.6761  1.1284  0.1484
  138OSM   H11B15030   6.147   0.227   6.798  1.0475  0.5349  0.1087
  138OSM      P15031   6.367   0.094   6.960  0.4692 -0.0695 -0.5984
  138OSM    O1315032   6.488   0.118   7.045 -0.1248  0.2432 -0.1662
  138OSM    O1415033   6.285  -0.023   6.983 -0.2028 -0.1072  0.6599
  138OSM    O1115034   6.404   0.091   6.810  0.4374  0.2760 -0.4407
  138OSM    O1215035   6.258   0.210   6.985 -0.3949 -0.3811  0.2087
  138OSM    C1S15036   6.475   0.201   6.752 -0.0782  0.2453 -0.1109
  138OSM    H1S15037   6.558   0.237   6.817  0.2922 -2.7742  1.2915
  138OSM    H1T15038   6.399   0.276   6.723 -2.5926 -2.4628 -0.9391
  138OSM     NF15039   6.646   0.264   6.579 -0.1927  0.1511  0.0540
  138OSM    HNF15040   6.623   0.317   6.498 -1.9339  1.7119  1.4609
  138OSM    C2S15041   6.572   0.153   6.636  0.3237  0.2464 -0.4677
  138OSM    H2S15042   6.632   0.066   6.670 -1.3930 -0.5663  0.6294
  138OSM    C3S15043   6.473   0.094   6.529  0.1915  0.3167 -0.4616
  138OSM    H3S15044   6.399   0.175   6.508  1.5022  1.4825 -0.7261
  138OSM     O315045   6.396  -0.016   6.573 -0.3925  0.5115  0.1411
  138OSM    HO315046   6.381  -0.005   6.668  1.6407 -2.4942  0.9504
  138OSM    C4S15047   6.546   0.061   6.400 -0.8601  0.3183 -0.7710
  138OSM    H4S15048   6.520   0.131   6.320  1.3328  0.1315 -1.7364
  138OSM    C5S15049   6.648  -0.031   6.378  0.4628 -0.7113 -0.3952
  138OSM    H5S15050   6.675  -0.104   6.455 -1.1016 -1.2044 -0.2761
  138OSM    C6S15051   6.725  -0.045   6.250 -0.0875 -0.1976  0.0926
  138OSM    H6S15052   6.706  -0.141   6.198 -1.8355  0.0343  0.2298
  138OSM    H6T15053   6.834  -0.037   6.269  0.1974 -1.4862 -0.8790
  138OSM    C7S15054   6.702   0.072   6.146  0.5987  0.1481  0.2631
  138OSM    H7S15055   6.743   0.168   6.184  0.7481  1.1329 -2.2062
  138OSM    H7T15056   6.593   0.070   6.123  0.6154 -0.6366  0.2022
  138OSM    C8S15057   6.784   0.050   6.006  0.0105 -0.1250  0.2884
  138OSM    H8S15058   6.891   0.043   6.035  0.6843  3.0541 -1.0151
  138OSM    H8T15059   6.778   0.144   5.948 -0.6559 -1.0594 -1.2098
  138OSM    C9S15060   6.723  -0.048   5.912  0.2616 -0.4561  0.5448
  138OSM    H9S15061   6.616  -0.027   5.896 -0.0748 -2.8454 -0.8770
  138OSM    H9T15062   6.736  -0.147   5.962 -2.7637 -0.4744  1.4729
  138OSM   C10S15063   6.796  -0.062   5.776 -0.3634 -0.3170 -0.4884
  138OSM   H10S15064   6.904  -0.069   5.800 -0.6974  0.0721  1.2521
  138OSM   H10T15065   6.783   0.036   5.725  0.8709 -0.3019 -0.7957
  138OSM   C11S15066   6.739  -0.176   5.682 -0.1727  0.1589 -0.3719
  138OSM   H11S15067   6.733  -0.271   5.739  0.7931  2.1561  3.4523
  138OSM   H11T15068   6.812  -0.192   5.600 -1.3445 -1.5990 -1.1302
  138OSM   C12S15069   6.600  -0.147   5.631  0.3029  0.3992 -0.3737
  138OSM   H12S15070   6.537  -0.113   5.716 -2.2328 -1.9676 -1.1852
  138OSM   H12T15071   6.558  -0.233   5.575  0.2194  1.0083 -1.2704
  138OSM   C13S15072   6.586  -0.028   5.536 -0.0649  0.6516  0.2178
  138OSM   H13S15073   6.663  -0.032   5.457  0.0993 -2.1274  0.4253
  138OSM   H13T15074   6.614   0.064   5.592 -1.6674  2.2731 -1.5179
  138OSM   C14S15075   6.450  -0.018   5.477 -0.3606 -0.1354 -0.1068
  138OSM   H14S15076   6.369  -0.039   5.551  0.0595  2.6379  1.2873
  138OSM   H14T15077   6.443  -0.101   5.404 -0.2508 -0.5515  0.3484
  138OSM   C15S15078   6.422   0.116   5.406  0.2037 -0.9477 -0.2577
  138OSM   H15S15079   6.423   0.199   5.480 -0.1252  0.6485 -1.9888
  138OSM   H15T15080   6.325   0.114   5.351  1.4068  1.5869 -2.7312
  138OSM   C16S15081   6.532   0.163   5.308 -0.3763  0.4044  0.2803
  138OSM   H16S15082   6.630   0.183   5.357  0.5103  0.6101 -1.5025
  138OSM   H16T15083   6.499   0.253   5.252 -0.3304 -1.6563 -3.3759
  138OSM   C17S15084   6.546   0.057   5.185 -0.7409  0.4921 -0.3557
  138OSM   H17S15085   6.563  -0.045   5.226  1.0197  1.2626  0.9801
  138OSM   H17T15086   6.638   0.084   5.128  0.5631 -1.4716  0.7121
  138OSM   C18S15087   6.444   0.055   5.076 -0.2032 -0.4429 -0.3434
  138OSM   H18S15088   6.362  -0.001   5.126  0.5298  0.1826  1.6791
  138OSM   H18T15089   6.485   0.001   4.988 -0.4490  3.1820 -2.8936
  138OSM   H18U15090   6.414   0.154   5.036 -2.4217 -1.0463 -0.3528
  138OSM    C1F15091   6.765   0.301   6.632 -0.0220  0.0067 -0.1532
  138OSM     OF15092   6.808   0.245   6.730 -0.1139 -0.1107 -0.0020
  138OSM    C2F15093   6.830   0.415   6.564 -0.2491 -0.2242 -0.2483
  138OSM    H2F15094   6.827   0.502   6.633 -0.9041  0.9451 -1.6873
  138OSM    H2G15095   6.769   0.436   6.474 -1.1787 -1.7611 -0.0037
  138OSM    C3F15096   6.975   0.388   6.518 -0.0708 -0.0426 -0.2566
  138OSM    H3F15097   7.046   0.390   6.604 -1.0874 -2.9928  0.7641
  138OSM    H3G15098   7.003   0.474   6.453  0.4659 -0.0993 -0.1016
  138OSM    C4F15099   6.997   0.261   6.432  0.0149 -0.4273 -0.1673
  138OSM    H4F15100   6.913   0.236   6.363  0.0195 -2.3911  0.4633
  138OSM    H4G15101   6.997   0.174   6.501 -0.4389  0.7606  1.3994
  138OSM    C5F15102   7.142   0.266   6.372  1.0115 -0.1022 -0.2786
  138OSM    H5F15103   7.207   0.184   6.409  0.5727 -0.9107 -1.2357
  138OSM    H5G15104   7.187   0.350   6.429 -1.2607  2.0793 -1.5032
  138OSM    C6F15105   7.151   0.279   6.218  0.0690 -0.3808 -0.1244
  138OSM    H6F15106   7.130   0.179   6.174 -1.2934  0.1455 -0.7457
  138OSM    H6G15107   7.253   0.314   6.190  0.3375 -1.1551 -0.1435
  138OSM    C7F15108   7.056   0.382   6.158 -0.0093  0.1734  0.2355
  138OSM    H7F15109   7.065   0.481   6.207  3.0489  1.3795 -2.3587
  138OSM    H7G15110   6.954   0.340   6.171  1.0041 -2.9678 -0.9782
  138OSM    C8F15111   7.079   0.412   6.005  0.1441  0.1394  0.9841
  138OSM    H8F15112   7.183   0.450   5.994 -0.6134  2.0642 -0.1126
  138OSM    H8G15113   7.004   0.487   5.974  0.3862  0.9405  2.2279
  138OSM    C9F15114   7.066   0.287   5.920 -0.8093  0.0573  0.1540
  138OSM    H9F15115   7.112   0.200   5.969  2.6143  1.2212 -0.6670
  138OSM   C10F15116   6.989   0.266   5.814 -1.0435  0.4649  0.6046
  138OSM   H10F15117   7.007   0.180   5.748 -1.2669  1.1217 -0.3423
  138OSM   C11F15118   6.918   0.377   5.746  0.2313 -0.0018  0.2280
  138OSM   H11F15119   6.982   0.460   5.711  2.4351 -1.6088  0.2130
  138OSM   H11G15120   6.840   0.419   5.812 -1.6557 -0.6506 -1.4909
  138OSM   C12F15121   6.835   0.333   5.621 -0.9708 -0.6418 -0.4764
  138OSM   H12F15122   6.750   0.402   5.604 -0.0200  0.1811 -2.0831
  138OSM   H12G15123   6.782   0.242   5.658  0.0593 -1.1680 -0.2502
  138OSM   C13F15124   6.933   0.293   5.505 -0.1673  0.3461  0.0758
  138OSM   H13F15125   6.961   0.186   5.513 -0.1415  0.1463 -2.1375
  138OSM   H13G15126   7.031   0.342   5.522 -0.5836  0.3883  2.7508
  138OSM   C14F15127   6.895   0.340   5.367 -0.5108  0.3030  0.2733
  138OSM   H14F15128   6.789   0.312   5.348 -0.2028 -0.4208 -0.4456
  138OSM   H14G15129   6.964   0.284   5.299  0.4043  1.8526 -0.1247
  138OSM   C15F15130   6.921   0.482   5.334 -0.2330  0.1505 -0.6713
  138OSM   H15F15131   7.026   0.509   5.354 -1.0167  2.1893  1.0713
  138OSM   H15G15132   6.867   0.544   5.409  0.8003 -1.1532  1.2396
  138OSM   C16F15133   6.879   0.514   5.187  0.0379 -0.7245  0.5068
  138OSM   H16F15134   6.897   0.624   5.185 -0.0005 -0.7029  1.1561
  138OSM   H16G15135   6.771   0.494   5.170  0.3315 -0.1739 -2.6308
  138OSM   C17F15136   6.942   0.434   5.075 -0.1328  0.3114 -0.0074
  138OSM   H17F15137   6.870   0.354   5.047  0.5770 -0.5692  0.6361
  138OSM   H17G15138   7.039   0.390   5.104 -0.0775  1.8707  2.4729
  138OSM   C18F15139   6.955   0.517   4.946  0.2570  0.1138  0.2896
  138OSM   H18F15140   7.002   0.455   4.867  0.6963  1.8855 -0.9022
  138OSM   H18G15141   7.021   0.604   4.968 -1.6200  2.1945 -1.7931
  138OSM   H18H15142   6.856   0.547   4.907  0.5055 -0.7283 -1.0650
  139OSM      N15143   3.016   4.198   7.245  0.0455 -0.5235 -0.4063
  139OSM    C1515144   3.103   4.153   7.131  0.3266  0.2143  0.0187
  139OSM   H15A15145   3.052   4.085   7.063  2.4154 -0.6197 -0.7763
  139OSM   H15B15146   3.188   4.103   7.173 -0.0799  0.3641  1.0369
  139OSM   H15C15147   3.141   4.237   7.074 -1.5460  2.2101  1.5549
  139OSM    C1415148   3.098   4.304   7.317 -0.0542  0.4732  0.7340
  139OSM   H14A15149   3.186   4.255   7.356 -1.3387 -0.6934  2.2456
  139OSM   H14B15150   3.042   4.355   7.394  0.3710  0.2685  1.1860
  139OSM   H14C15151   3.136   4.377   7.247  0.5321 -0.8127 -0.3309
  139OSM    C1315152   2.896   4.274   7.212  0.3731 -0.5987  0.6839
  139OSM   H13A15153   2.853   4.318   7.301  0.6948  0.5446  0.2930
  139OSM   H13B15154   2.833   4.212   7.150  1.3203  2.3823 -3.7331
  139OSM   H13C15155   2.918   4.349   7.137  0.7543 -1.8849 -0.5385
  139OSM    C1215156   2.978   4.085   7.336 -0.0560  0.6534 -0.5435
  139OSM   H12A15157   2.932   4.104   7.432 -1.5934 -0.0407 -1.1037
  139OSM   H12B15158   3.065   4.032   7.371  0.3812  1.8491  0.2393
  139OSM    C1115159   2.877   3.990   7.273  0.2640 -0.1336 -0.2021
  139OSM   H11A15160   2.875   3.894   7.328  1.0158  0.5898  1.1353
  139OSM   H11B15161   2.917   3.973   7.171 -1.2464  0.1531 -0.8741
  139OSM      P15162   2.621   3.967   7.232  0.2380 -0.2079 -0.0495
  139OSM    O1315163   2.623   3.834   7.291 -0.4908 -0.5413 -0.3808
  139OSM    O1415164   2.493   4.044   7.259 -0.0298 -0.1815 -0.0799
  139OSM    O1115165   2.634   3.942   7.072  0.8116  0.5395 -0.5559
  139OSM    O1215166   2.745   4.046   7.274  0.5907  0.9742 -0.6710
  139OSM    C1S15167   2.665   4.053   6.985  0.0461  0.0788 -0.4357
  139OSM    H1S15168   2.751   4.104   7.033 -1.5070 -0.0615  2.7246
  139OSM    H1T15169   2.588   4.133   6.989 -0.0172 -0.0298  1.0757
  139OSM     NF15170   2.789   4.101   6.769 -0.5478 -0.0832 -0.5863
  139OSM    HNF15171   2.748   4.152   6.693 -1.1139 -0.0203 -0.2427
  139OSM    C2S15172   2.699   4.004   6.836  0.2376 -1.0206  0.4011
  139OSM    H2S15173   2.756   3.910   6.847  1.5912 -0.0174  2.4190
  139OSM    C3S15174   2.569   3.971   6.750  0.1977  0.6124  0.3875
  139OSM    H3S15175   2.522   4.057   6.698 -2.6096 -1.3312 -0.5615
  139OSM     O315176   2.464   3.924   6.842 -0.1018  0.4722  0.2820
  139OSM    HO315177   2.500   3.925   6.931 -0.7455 -0.1020  0.5551
  139OSM    C4S15178   2.602   3.870   6.642 -0.1728  0.4844 -0.1828
  139OSM    H4S15179   2.592   3.769   6.684 -0.4814 -0.4825 -2.4004
  139OSM    C5S15180   2.633   3.870   6.511 -0.8370 -0.6487 -0.6318
  139OSM    H5S15181   2.649   3.968   6.464 -1.0259 -0.0279  0.5700
  139OSM    C6S15182   2.663   3.762   6.415 -0.3883  0.7291  0.4432
  139OSM    H6S15183   2.771   3.738   6.410 -0.4585  0.5893 -0.7766
  139OSM    H6T15184   2.631   3.796   6.314  2.4637  0.9810 -0.4396
  139OSM    C7S15185   2.595   3.627   6.439  0.4839  0.6243 -0.0331
  139OSM    H7S15186   2.486   3.649   6.446  0.5452  0.5798  1.2049
  139OSM    H7T15187   2.616   3.581   6.538  0.2437  0.8211  0.1104
  139OSM    C8S15188   2.616   3.511   6.340  0.2947  0.1987  0.1492
  139OSM    H8S15189   2.559   3.423   6.377  2.3001  0.1062  3.4603
  139OSM    H8T15190   2.723   3.482   6.347  0.7525  2.1869  4.2237
  139OSM    C9S15191   2.599   3.555   6.192 -0.3628  0.1323 -0.1211
  139OSM    H9S15192   2.675   3.634   6.170  1.7408 -1.2023  1.8353
  139OSM    H9T15193   2.495   3.593   6.197 -0.3413  0.1420  0.3429
  139OSM   C10S15194   2.608   3.437   6.092 -0.2485 -0.2634 -0.1001
  139OSM   H10S15195   2.536   3.364   6.133 -0.9864  0.7131  0.3734
  139OSM   H10T15196   2.710   3.393   6.087 -0.2902 -0.2539 -1.3125
  139OSM   C11S15197   2.595   3.490   5.944  0.7709  0.1477 -0.3591
  139OSM   H11S15198   2.615   3.599   5.936 -1.2321  0.5303 -0.7104
  139OSM   H11T15199   2.492   3.472   5.907  0.6486  0.7949 -0.3504
  139OSM   C12S15200   2.682   3.420   5.845  0.5881  0.7108  0.9108
  139OSM   H12S15201   2.695   3.316   5.883  0.2261 -0.6301 -2.2782
  139OSM   H12T15202   2.778   3.476   5.839  0.6438  0.5114 -0.7942
  139OSM   C13S15203   2.623   3.408   5.699 -0.1739 -0.6064  0.1109
  139OSM   H13S15204   2.636   3.507   5.652 -1.8826  0.4012  1.6269
  139OSM   H13T15205   2.514   3.387   5.704 -0.2879  0.1027  0.9052
  139OSM   C14S15206   2.674   3.290   5.622  1.0140 -0.8186 -0.3856
  139OSM   H14S15207   2.632   3.203   5.677 -0.7540  0.5634  0.5638
  139OSM   H14T15208   2.784   3.285   5.635  1.0905  1.4460  0.1932
  139OSM   C15S15209   2.634   3.291   5.476  0.3282 -0.2897 -0.5700
  139OSM   H15S15210   2.674   3.379   5.421 -1.1400  0.0109 -1.2117
  139OSM   H15T15211   2.524   3.275   5.474 -0.4168  2.7114  3.8108
  139OSM   C16S15212   2.703   3.175   5.400 -0.0583  0.1420  0.5795
  139OSM   H16S15213   2.810   3.166   5.428  0.5480  2.1218 -0.9089
  139OSM   H16T15214   2.699   3.219   5.298 -2.7769  0.3115  0.6735
  139OSM   C17S15215   2.633   3.040   5.407 -0.1010 -0.0821  0.3654
  139OSM   H17S15216   2.540   3.055   5.349 -1.1566  0.1418  2.0442
  139OSM   H17T15217   2.614   3.015   5.514 -1.6433  1.5358  0.5151
  139OSM   C18S15218   2.724   2.930   5.348 -0.1797  0.2139  0.3064
  139OSM   H18S15219   2.674   2.830   5.344  0.2033  0.0656 -1.2031
  139OSM   H18T15220   2.813   2.911   5.411 -1.2387 -0.8219  1.5744
  139OSM   H18U15221   2.751   2.964   5.246  0.5398  1.8205  1.0085
  139OSM    C1F15222   2.913   4.117   6.814 -0.2181  0.1464 -0.3675
  139OSM     OF15223   2.961   4.042   6.895  0.3031  0.3678 -0.3752
  139OSM    C2F15224   2.991   4.242   6.766  1.0114  0.9382  0.1641
  139OSM    H2F15225   3.013   4.310   6.850  0.5136  1.6238 -0.2520
  139OSM    H2G15226   2.924   4.295   6.696  0.2950 -0.8597 -0.5849
  139OSM    C3F15227   3.121   4.194   6.705  0.3107  0.3574  0.2272
  139OSM    H3F15228   3.190   4.167   6.788  0.3589  0.9161  0.3685
  139OSM    H3G15229   3.173   4.277   6.652 -0.2227  0.2626 -0.4593
  139OSM    C4F15230   3.117   4.077   6.599  0.3701 -0.2931 -0.1382
  139OSM    H4F15231   3.058   3.987   6.627  0.4313 -0.6574 -1.1461
  139OSM    H4G15232   3.222   4.041   6.596  0.9589  1.2676  0.5979
  139OSM    C5F15233   3.070   4.125   6.462  0.7102 -0.5296  0.1988
  139OSM    H5F15234   3.138   4.086   6.383 -1.7534 -1.8461 -1.3831
  139OSM    H5G15235   3.056   4.234   6.450 -0.7960 -0.6973  0.3291
  139OSM    C6F15236   2.943   4.050   6.419  0.2428  0.0884  0.1456
  139OSM    H6F15237   2.865   4.073   6.495  0.4918  0.0983  0.4010
  139OSM    H6G15238   2.946   3.939   6.418 -2.2377 -0.0782  1.4407
  139OSM    C7F15239   2.903   4.091   6.272 -0.2333 -0.2343  0.5739
  139OSM    H7F15240   2.994   4.120   6.216 -0.1878 -0.8704  0.3046
  139OSM    H7G15241   2.822   4.167   6.273 -1.8282 -1.8447  0.0441
  139OSM    C8F15242   2.836   3.984   6.179 -0.0189 -0.0039  0.5214
  139OSM    H8F15243   2.761   3.933   6.243 -0.8999 -1.4287 -1.5232
  139OSM    H8G15244   2.905   3.899   6.156  0.3607  0.0744  1.3237
  139OSM    C9F15245   2.777   4.040   6.047 -0.0540  0.3038  0.1091
  139OSM    H9F15246   2.733   4.141   6.052  1.0935  1.0021 -2.3077
  139OSM   C10F15247   2.783   3.978   5.927 -0.5398 -0.3768  0.3649
  139OSM   H10F15248   2.739   4.031   5.841  0.3565  0.8303  0.6172
  139OSM   C11F15249   2.846   3.846   5.897  0.3324  0.5846  0.0195
  139OSM   H11F15250   2.787   3.769   5.952  0.5832  2.0751  2.5246
  139OSM   H11G15251   2.945   3.841   5.947  0.9445  1.7430 -1.0152
  139OSM   C12F15252   2.868   3.796   5.754  0.2590 -0.3946  0.3436
  139OSM   H12F15253   2.902   3.876   5.685 -2.2494  0.9517  0.5501
  139OSM   H12G15254   2.765   3.771   5.722 -0.0612  1.1198  0.0934
  139OSM   C13F15255   2.977   3.681   5.739  0.2313 -1.0121 -0.3584
  139OSM   H13F15256   2.943   3.591   5.795 -1.9222  1.0067  1.8335
  139OSM   H13G15257   3.072   3.716   5.783 -0.0986 -1.6068  0.8656
  139OSM   C14F15258   3.013   3.632   5.597  0.2479 -0.3066  0.1343
  139OSM   H14F15259   3.062   3.722   5.554 -2.4597  0.9600 -0.5259
  139OSM   H14G15260   2.919   3.614   5.542  0.9522 -3.6497 -0.2429
  139OSM   C15F15261   3.105   3.514   5.595 -0.5186 -0.2754  0.1024
  139OSM   H15F15262   3.063   3.425   5.646 -1.9578  0.4719  0.2899
  139OSM   H15G15263   3.188   3.557   5.655  1.1173 -0.7603 -1.7008
  139OSM   C16F15264   3.158   3.476   5.451  0.4538 -0.1601  0.1517
  139OSM   H16F15265   3.256   3.425   5.448 -0.5766 -2.3589  1.4329
  139OSM   H16G15266   3.175   3.575   5.403 -1.4159  0.3103  0.3453
  139OSM   C17F15267   3.057   3.395   5.367  0.6197  0.0899 -0.6116
  139OSM   H17F15268   2.979   3.467   5.334  1.2032  1.4434  0.8465
  139OSM   H17G15269   3.017   3.321   5.439 -0.0195  2.3162  1.4436
  139OSM   C18F15270   3.122   3.345   5.243 -0.9019 -0.2485 -0.6536
  139OSM   H18F15271   3.172   3.432   5.195 -0.0740  0.1463  0.8654
  139OSM   H18G15272   3.047   3.295   5.177 -0.4819 -2.0008  0.1436
  139OSM   H18H15273   3.205   3.274   5.260 -0.3558  0.7415  0.9664
  140OSM      N15274   5.302   1.800   7.322  0.9530  0.2167  0.1483
  140OSM    C1515275   5.244   1.942   7.330 -0.2449  0.3391 -0.2982
  140OSM   H15A15276   5.188   1.958   7.238 -1.2168 -0.0072  0.2135
  140OSM   H15B15277   5.322   2.016   7.334 -1.1807  1.4962 -2.0827
  140OSM   H15C15278   5.178   1.942   7.415  0.2860  0.9891  0.1190
  140OSM    C1415279   5.408   1.802   7.220 -0.3154  0.0291  0.3368
  140OSM   H14A15280   5.492   1.867   7.240  1.0259 -0.9233 -1.8399
  140OSM   H14B15281   5.365   1.835   7.126 -1.0123 -1.1326  0.2340
  140OSM   H14C15282   5.449   1.706   7.193 -0.0331  0.5815 -1.3748
  140OSM    C1315283   5.362   1.775   7.456  0.3003  0.8762  0.5378
  140OSM   H13A15284   5.388   1.670   7.461  0.1756  0.6120 -2.2694
  140OSM   H13B15285   5.289   1.782   7.535 -0.6262 -0.9567 -0.0941
  140OSM   H13C15286   5.444   1.842   7.481 -0.8249  2.4289  0.1911
  140OSM    C1215287   5.190   1.706   7.289  0.2493  0.5320 -0.5115
  140OSM   H12A15288   5.116   1.706   7.368  2.0593 -0.0311  1.2808
  140OSM   H12B15289   5.227   1.607   7.267 -0.3647  0.3278 -0.6512
  140OSM    C1115290   5.098   1.738   7.170  0.2211 -0.1439 -0.0010
  140OSM   H11A15291   5.043   1.647   7.137  1.5239 -1.2667  0.8100
  140OSM   H11B15292   5.151   1.770   7.078 -1.1298 -1.1582 -1.1911
  140OSM      P15293   4.869   1.805   7.269  0.1507 -0.2338  0.2388
  140OSM    O1315294   4.882   1.707   7.382  0.4055 -0.0906  0.6930
  140OSM    O1415295   4.795   1.927   7.303  0.4159 -0.1253 -0.0559
  140OSM    O1115296   4.794   1.728   7.152 -0.5366 -0.2411 -0.7957
  140OSM    O1215297   5.005   1.838   7.206  0.1935 -0.0022  0.1087
  140OSM    C1S15298   4.777   1.791   7.028  0.7060 -0.1200 -0.0337
  140OSM    H1S15299   4.871   1.789   6.970 -0.3660  1.9342 -2.0101
  140OSM    H1T15300   4.751   1.898   7.045  0.0622 -0.3257  0.3335
  140OSM     NF15301   4.648   1.790   6.814 -0.3353 -0.4083  0.3489
  140OSM    HNF15302   4.572   1.849   6.786  0.8226  0.4477 -1.1795
  140OSM    C2S15303   4.661   1.732   6.947 -0.3083 -0.8281  0.8311
  140OSM    H2S15304   4.680   1.626   6.921 -2.7939 -0.5306 -2.9813
  140OSM    C3S15305   4.534   1.727   7.033 -0.2182 -0.0194 -0.5399
  140OSM    H3S15306   4.500   1.833   7.043 -0.0955 -0.0968  0.8021
  140OSM     O315307   4.545   1.682   7.168  0.5186  0.0832  0.0529
  140OSM    HO315308   4.637   1.684   7.192 -0.0573 -0.1345  2.5914
  140OSM    C4S15309   4.433   1.641   6.958 -0.5382  0.4180  0.3173
  140OSM    H4S15310   4.362   1.698   6.896  0.4663 -0.1740 -1.4528
  140OSM    C5S15311   4.421   1.506   6.960 -0.5467 -0.0879  0.1881
  140OSM    H5S15312   4.485   1.443   7.023  0.4632  0.3508 -0.3676
  140OSM    C6S15313   4.323   1.429   6.871 -0.0156  0.0288  0.0125
  140OSM    H6S15314   4.231   1.394   6.922 -0.7378  1.7507 -0.0173
  140OSM    H6T15315   4.373   1.336   6.838 -0.9543 -1.1796  1.7840
  140OSM    C7S15316   4.257   1.511   6.754  0.2633 -0.5019 -0.1981
  140OSM    H7S15317   4.334   1.539   6.679 -0.9684  1.8763 -0.6940
  140OSM    H7T15318   4.215   1.608   6.789  1.8614 -0.3203  1.4156
  140OSM    C8S15319   4.160   1.412   6.699 -0.0886 -0.1344  0.4157
  140OSM    H8S15320   4.086   1.400   6.781 -0.1148 -2.2583  0.1454
  140OSM    H8T15321   4.202   1.311   6.677  1.1862  0.6613 -0.9355
  140OSM    C9S15322   4.090   1.465   6.576  0.5179  1.2653  0.2224
  140OSM    H9S15323   4.170   1.489   6.503  0.1121 -0.7270 -0.9774
  140OSM    H9T15324   4.026   1.551   6.607 -1.6406 -0.3060  0.3674
  140OSM   C10S15325   3.994   1.369   6.503 -0.0428  0.7444 -0.2630
  140OSM   H10S15326   3.908   1.337   6.565  0.2024  0.8484  0.1346
  140OSM   H10T15327   4.062   1.288   6.468  0.0118  0.9353 -0.6118
  140OSM   C11S15328   3.933   1.430   6.381  0.1628  0.1343 -0.5093
  140OSM   H11S15329   4.015   1.449   6.308  0.8664 -2.1906 -0.4135
  140OSM   H11T15330   3.892   1.526   6.418  1.1729 -0.5471  2.6530
  140OSM   C12S15331   3.815   1.369   6.318 -0.0297 -0.0380  0.1751
  140OSM   H12S15332   3.745   1.340   6.399  1.2442  0.0878  1.3496
  140OSM   H12T15333   3.829   1.279   6.253 -1.3277 -1.2299  1.4728
  140OSM   C13S15334   3.742   1.474   6.228 -0.4030  1.0567  0.1725
  140OSM   H13S15335   3.729   1.572   6.279  0.2333 -0.0280  2.5875
  140OSM   H13T15336   3.637   1.440   6.221 -0.1073 -0.1279  1.1517
  140OSM   C14S15337   3.803   1.491   6.091  0.6563  0.0901  0.4502
  140OSM   H14S15338   3.867   1.405   6.063  1.0083  0.5288 -0.1026
  140OSM   H14T15339   3.870   1.580   6.089 -1.1462  1.5346  0.6548
  140OSM   C15S15340   3.697   1.525   5.987 -0.8205  0.4760 -0.6451
  140OSM   H15S15341   3.640   1.608   6.033  0.8117  1.6499 -0.6502
  140OSM   H15T15342   3.629   1.437   5.986  1.6470 -1.5576 -0.0633
  140OSM   C16S15343   3.748   1.521   5.846 -0.2347 -0.4454 -0.1144
  140OSM   H16S15344   3.803   1.426   5.829  2.3802  0.8909  0.4455
  140OSM   H16T15345   3.837   1.587   5.853 -0.5724  0.3860 -2.6560
  140OSM   C17S15346   3.649   1.563   5.734  0.4405  0.2433  0.3223
  140OSM   H17S15347   3.594   1.656   5.757  0.7992  0.4174  0.4743
  140OSM   H17T15348   3.570   1.485   5.725  0.1500  0.6686 -0.9266
  140OSM   C18S15349   3.717   1.580   5.601  0.2017  0.0829  0.1007
  140OSM   H18S15350   3.650   1.609   5.517  0.2037 -2.4883 -0.8878
  140OSM   H18T15351   3.761   1.486   5.561 -0.1988  0.2721 -0.8002
  140OSM   H18U15352   3.802   1.652   5.603 -0.0248  0.3701 -0.4722
  140OSM    C1F15353   4.754   1.787   6.741 -0.3639  0.4233  0.3403
  140OSM     OF15354   4.833   1.694   6.748 -0.0619 -0.2969  0.2991
  140OSM    C2F15355   4.770   1.889   6.633  0.3732  0.2730 -0.5266
  140OSM    H2F15356   4.858   1.954   6.655  0.4496 -0.1380  0.4264
  140OSM    H2G15357   4.692   1.967   6.644  2.5705  2.3599  1.3712
  140OSM    C3F15358   4.784   1.830   6.491 -0.5622 -0.2350  0.0321
  140OSM    H3F15359   4.718   1.741   6.482 -0.3292 -0.3835 -0.2071
  140OSM    H3G15360   4.884   1.783   6.482 -0.2810  0.2512  0.5795
  140OSM    C4F15361   4.752   1.918   6.369  0.5072  0.4424  0.1030
  140OSM    H4F15362   4.817   2.007   6.379 -0.5102  1.0235  2.1797
  140OSM    H4G15363   4.645   1.949   6.378  0.1417 -0.9434  0.9095
  140OSM    C5F15364   4.778   1.851   6.230 -0.3970  0.2808  0.6408
  140OSM    H5F15365   4.723   1.755   6.221 -1.1788  0.8314 -0.6958
  140OSM    H5G15366   4.886   1.832   6.210 -0.1802 -2.1354  3.4101
  140OSM    C6F15367   4.722   1.938   6.121 -0.1105 -0.3491 -0.2315
  140OSM    H6F15368   4.766   2.040   6.118 -0.4386 -0.2319 -1.9802
  140OSM    H6G15369   4.614   1.947   6.146 -0.1574 -0.6580 -0.3149
  140OSM    C7F15370   4.704   1.872   5.985 -0.2298  0.6676  0.2232
  140OSM    H7F15371   4.642   1.946   5.931  0.3026  2.5225  2.0424
  140OSM    H7G15372   4.655   1.772   5.986  1.3305 -0.1855 -1.3032
  140OSM    C8F15373   4.844   1.860   5.920 -0.0945 -0.5601 -0.4902
  140OSM    H8F15374   4.900   1.773   5.963 -2.8358 -0.6452  3.3780
  140OSM    H8G15375   4.901   1.946   5.962  0.5121 -1.6768  1.1240
  140OSM    C9F15376   4.852   1.831   5.776  0.2372 -0.9169 -0.3201
  140OSM    H9F15377   4.888   1.731   5.746  0.4753 -0.6881 -0.8127
  140OSM   C10F15378   4.843   1.929   5.681 -0.0239  0.1973  0.0193
  140OSM   H10F15379   4.874   1.904   5.579 -3.3966 -0.2739 -1.0114
  140OSM   C11F15380   4.817   2.074   5.696 -0.3655 -0.0395 -0.4734
  140OSM   H11F15381   4.890   2.134   5.636  2.5823 -2.5695  0.3030
  140OSM   H11G15382   4.831   2.098   5.804 -0.3666  1.3574 -0.7677
  140OSM   C12F15383   4.677   2.130   5.672 -0.6107  0.0958  0.3747
  140OSM   H12F15384   4.667   2.232   5.716  0.1159  0.7308 -0.8642
  140OSM   H12G15385   4.605   2.064   5.726 -2.6410  0.7145 -1.3977
  140OSM   C13F15386   4.643   2.134   5.522  0.5032  0.5886 -0.0694
  140OSM   H13F15387   4.538   2.171   5.515  0.4033  0.2409 -0.4748
  140OSM   H13G15388   4.644   2.031   5.481 -0.8372 -0.9789  3.4100
  140OSM   C14F15389   4.717   2.235   5.433  0.3803 -0.0660  0.0639
  140OSM   H14F15390   4.824   2.204   5.426  0.1062 -0.8312 -1.1333
  140OSM   H14G15391   4.721   2.331   5.489  0.9735  0.5800 -1.0453
  140OSM   C15F15392   4.644   2.261   5.303 -0.6344 -0.0107 -0.1722
  140OSM   H15F15393   4.552   2.322   5.320 -0.0870  1.1926 -1.3818
  140OSM   H15G15394   4.613   2.163   5.262  0.8156 -0.8249  0.6128
  140OSM   C16F15395   4.732   2.326   5.209 -0.3716 -1.1734  0.5130
  140OSM   H16F15396   4.819   2.263   5.181  1.2827  2.0682 -2.5108
  140OSM   H16G15397   4.786   2.411   5.256  1.6915 -1.2571 -1.4778
  140OSM   C17F15398   4.666   2.375   5.073 -0.5641 -0.0757 -1.0026
  140OSM   H17F15399   4.740   2.365   4.991  0.8977 -0.3533  0.3113
  140OSM   H17G15400   4.642   2.483   5.075 -0.2622  0.0332 -2.1991
  140OSM   C18F15401   4.537   2.305   5.027  0.0046 -0.3289 -0.8740
  140OSM   H18F15402   4.519   2.318   4.918 -0.4059  1.2884 -0.6354
  140OSM   H18G15403   4.449   2.328   5.090 -0.6666  0.2283 -1.9839
  140OSM   H18H15404   4.562   2.197   5.040  0.1945 -0.2338 -0.4237
  141OSM      N15405   4.658   1.401   7.406 -0.2316  0.1764 -0.2888
  141OSM    C1515406   4.546   1.499   7.407 -0.8805 -0.0979 -0.1816
  141OSM   H15A15407   4.511   1.515   7.307  0.8335  0.6976 -0.6870
  141OSM   H15B15408   4.580   1.596   7.442  0.0614 -0.6456  0.4861
  141OSM   H15C15409   4.463   1.468   7.469 -0.4918  1.2439  1.0720
  141OSM    C1415410   4.709   1.382   7.546  0.1007 -0.0771  0.2836
  141OSM   H14A15411   4.781   1.302   7.551  0.0357 -0.2857 -1.5810
  141OSM   H14B15412   4.621   1.358   7.605 -1.0359  2.3628 -0.2902
  141OSM   H14C15413   4.746   1.474   7.590  1.9970  0.3984 -2.1411
  141OSM    C1315414   4.597   1.264   7.367 -0.6248 -0.6477  0.4001
  141OSM   H13A15415   4.676   1.190   7.371  1.5800  1.4558 -1.5485
  141OSM   H13B15416   4.548   1.267   7.271 -2.0576  0.8504  1.1287
  141OSM   H13C15417   4.528   1.224   7.441 -3.1347  1.7668 -0.4743
  141OSM    C1215418   4.770   1.439   7.308 -0.3264  0.0555  0.2717
  141OSM   H12A15419   4.801   1.539   7.335 -1.6867  0.2900  1.0701
  141OSM   H12B15420   4.730   1.453   7.209  0.2487  0.7544  0.1340
  141OSM    C1115421   4.901   1.358   7.301 -0.2017  0.6745 -0.5434
  141OSM   H11A15422   4.942   1.370   7.404 -3.8743 -0.5941  1.2220
  141OSM   H11B15423   4.965   1.410   7.227 -0.0633  0.6103 -0.4708
  141OSM      P15424   4.852   1.161   7.131 -0.1981  0.2223 -0.0325
  141OSM    O1315425   4.985   1.120   7.075  0.2949 -0.2403  0.0021
  141OSM    O1415426   4.746   1.058   7.131  0.7955 -0.2553 -0.3845
  141OSM    O1115427   4.790   1.286   7.055  0.0929  0.1384  0.1118
  141OSM    O1215428   4.875   1.218   7.275  1.4246  0.2575  0.1121
  141OSM    C1S15429   4.885   1.364   6.987  0.2890  0.1363  0.1282
  141OSM    H1S15430   4.990   1.345   7.020 -0.5166 -3.0169  1.2396
  141OSM    H1T15431   4.879   1.473   7.010 -3.3414  0.2111 -0.5860
  141OSM     NF15432   4.959   1.450   6.770 -0.1678 -0.2758  0.0760
  141OSM    HNF15433   4.909   1.532   6.746  1.3423  0.3580 -1.0854
  141OSM    C2S15434   4.879   1.348   6.833  0.5390  0.4075  0.5730
  141OSM    H2S15435   4.916   1.246   6.810  1.7534  0.4191  2.3227
  141OSM    C3S15436   4.728   1.344   6.779  0.6977 -0.3040 -0.4443
  141OSM    H3S15437   4.678   1.438   6.811  0.8518 -0.5090  0.4424
  141OSM     O315438   4.651   1.229   6.836  0.6824 -0.7789  0.4998
  141OSM    HO315439   4.708   1.193   6.904  1.5516 -0.5323 -0.0724
  141OSM    C4S15440   4.716   1.331   6.632 -1.1063  0.3133  0.0832
  141OSM    H4S15441   4.721   1.224   6.605  0.3177 -0.0921  1.7876
  141OSM    C5S15442   4.682   1.433   6.551 -0.3628 -0.5259  0.0119
  141OSM    H5S15443   4.664   1.533   6.593 -0.5903  0.2256 -1.7736
  141OSM    C6S15444   4.648   1.414   6.405  0.4836  0.6767 -0.3550
  141OSM    H6S15445   4.549   1.462   6.386 -0.3650 -0.6980  0.4128
  141OSM    H6T15446   4.623   1.306   6.395  1.1784  0.5017 -0.1985
  141OSM    C7S15447   4.744   1.452   6.288 -0.8189  0.1896  0.4115
  141OSM    H7S15448   4.847   1.425   6.318 -1.5993 -0.4953  2.6576
  141OSM    H7T15449   4.748   1.563   6.289  0.0529  0.1634  0.4174
  141OSM    C8S15450   4.709   1.388   6.159 -0.1286  0.0763 -0.6470
  141OSM    H8S15451   4.705   1.277   6.156 -0.6089  0.0823 -0.3580
  141OSM    H8T15452   4.789   1.408   6.085  1.0507  0.5192  0.6872
  141OSM    C9S15453   4.573   1.439   6.106  0.4183  0.0220  0.2575
  141OSM    H9S15454   4.591   1.548   6.100  1.0251  0.0486  1.9739
  141OSM    H9T15455   4.486   1.409   6.168 -0.6186  0.8553 -0.7358
  141OSM   C10S15456   4.533   1.399   5.963 -0.2877  0.2246 -0.1748
  141OSM   H10S15457   4.438   1.454   5.942 -1.4031 -0.8076  1.7973
  141OSM   H10T15458   4.519   1.293   5.934 -0.1260  0.4649 -1.1652
  141OSM   C11S15459   4.632   1.450   5.849  0.5006  1.0537 -0.3521
  141OSM   H11S15460   4.719   1.380   5.847  0.1990  0.5841  1.2410
  141OSM   H11T15461   4.670   1.548   5.885 -2.0070  1.5486  1.2203
  141OSM   C12S15462   4.557   1.454   5.709 -0.1202 -0.8015 -0.0907
  141OSM   H12S15463   4.617   1.507   5.632  1.0546 -0.2503  1.1733
  141OSM   H12T15464   4.465   1.513   5.728  1.3851  1.1345  1.6421
  141OSM   C13S15465   4.517   1.320   5.649 -0.3431  0.3929 -0.5093
  141OSM   H13S15466   4.422   1.285   5.693 -1.2644  2.2306 -0.9418
  141OSM   H13T15467   4.611   1.263   5.663  0.4795  1.9170  0.3906
  141OSM   C14S15468   4.484   1.321   5.499  0.2417  0.7354 -0.0436
  141OSM   H14S15469   4.575   1.353   5.444 -0.5566  1.8489 -0.7599
  141OSM   H14T15470   4.419   1.410   5.486  0.3231  0.6611 -1.0658
  141OSM   C15S15471   4.417   1.194   5.457 -0.6351  0.0126 -0.3967
  141OSM   H15S15472   4.319   1.190   5.510 -0.4351  0.6619  0.0390
  141OSM   H15T15473   4.483   1.107   5.479 -1.0848 -0.0981  0.5834
  141OSM   C16S15474   4.383   1.192   5.310  0.3924 -0.3123 -0.4132
  141OSM   H16S15475   4.326   1.283   5.279  0.5894 -0.2192 -0.5053
  141OSM   H16T15476   4.311   1.111   5.288 -2.6059  2.1209 -0.3855
  141OSM   C17S15477   4.509   1.181   5.219  0.0506 -0.0375 -0.2710
  141OSM   H17S15478   4.563   1.091   5.255  1.2407  0.3148 -1.1260
  141OSM   H17T15479   4.572   1.272   5.222  1.3875 -0.9364 -0.1309
  141OSM   C18S15480   4.468   1.151   5.071 -0.6528 -0.3211 -0.7826
  141OSM   H18S15481   4.557   1.154   5.005  0.1727 -2.2581  0.1743
  141OSM   H18T15482   4.401   1.236   5.043 -0.3646  0.8221  1.7033
  141OSM   H18U15483   4.416   1.053   5.063 -0.4773 -0.4078 -0.8556
  141OSM    C1F15484   5.088   1.455   6.777 -0.2407 -0.2308 -0.2815
  141OSM     OF15485   5.157   1.358   6.810  0.1813  0.0221  0.0159
  141OSM    C2F15486   5.148   1.591   6.736 -0.7698  0.0963  0.1859
  141OSM    H2F15487   5.256   1.592   6.765 -0.0068 -1.5773 -2.3034
  141OSM    H2G15488   5.107   1.677   6.794 -0.5066  0.4022 -0.0744
  141OSM    C3F15489   5.129   1.618   6.585  0.5230 -0.0860 -0.0064
  141OSM    H3F15490   5.026   1.609   6.545  0.7283  1.4520 -0.9560
  141OSM    H3G15491   5.170   1.527   6.537  0.2502  0.4978 -1.3758
  141OSM    C4F15492   5.209   1.732   6.525 -0.5920 -0.6920 -0.5996
  141OSM    H4F15493   5.319   1.715   6.531  0.1304  3.2296 -0.4474
  141OSM    H4G15494   5.200   1.825   6.585  3.0588  0.1997 -1.1561
  141OSM    C5F15495   5.173   1.752   6.378  0.4022 -0.6724  0.0070
  141OSM    H5F15496   5.215   1.850   6.349  1.4467 -0.8996  0.7024
  141OSM    H5G15497   5.062   1.749   6.370  0.2776 -1.8142  1.7205
  141OSM    C6F15498   5.225   1.653   6.277  0.3151  0.2747 -0.6898
  141OSM    H6F15499   5.192   1.551   6.307  0.6479 -0.0563 -1.4503
  141OSM    H6G15500   5.335   1.654   6.292  0.1832 -2.3969  1.5061
  141OSM    C7F15501   5.200   1.690   6.132 -0.2016 -0.9504  0.0597
  141OSM    H7F15502   5.259   1.784   6.120 -0.3881 -0.8850 -0.3921
  141OSM    H7G15503   5.090   1.703   6.122 -0.0624  0.3505  0.0895
  141OSM    C8F15504   5.240   1.574   6.031 -0.1144 -0.2669 -0.5052
  141OSM    H8F15505   5.198   1.482   6.075 -1.0183  0.8275  1.0149
  141OSM    H8G15506   5.351   1.564   6.032  0.0973  1.7634  0.2718
  141OSM    C9F15507   5.199   1.609   5.892  1.0585 -0.0315 -0.1552
  141OSM    H9F15508   5.226   1.711   5.862 -0.4805 -0.4148 -3.2642
  141OSM   C10F15509   5.109   1.544   5.809  0.0168 -0.1278 -0.7095
  141OSM   H10F15510   5.070   1.583   5.714 -1.0692 -0.3216 -0.3505
  141OSM   C11F15511   5.046   1.410   5.834 -0.6001 -0.1316  0.1849
  141OSM   H11F15512   4.939   1.413   5.861 -0.7579  0.8387 -0.4879
  141OSM   H11G15513   5.097   1.371   5.925  2.0507  0.4446 -0.9626
  141OSM   C12F15514   5.052   1.331   5.700 -0.2483  0.1198  0.0563
  141OSM   H12F15515   5.160   1.316   5.677  0.1722 -1.4358  2.5704
  141OSM   H12G15516   5.011   1.398   5.622  0.5951 -1.6880 -2.0746
  141OSM   C13F15517   4.965   1.209   5.704 -0.0374 -0.1026  0.3101
  141OSM   H13F15518   4.868   1.229   5.755  0.5188  1.5828  0.7474
  141OSM   H13G15519   5.005   1.129   5.770 -1.9086  0.1823  1.8974
  141OSM   C14F15520   4.932   1.153   5.566 -0.7695  0.4178 -0.2869
  141OSM   H14F15521   4.908   1.235   5.495 -1.1323  0.6567  0.1024
  141OSM   H14G15522   4.837   1.096   5.557 -0.9330  0.9999 -3.9331
  141OSM   C15F15523   5.035   1.064   5.517  0.4015  0.5679  0.1345
  141OSM   H15F15524   5.040   0.972   5.580 -1.2779  1.2798  1.3810
  141OSM   H15G15525   5.132   1.118   5.503  1.4128 -1.2617 -0.3214
  141OSM   C16F15526   5.005   1.012   5.377 -0.1965 -0.0365  0.6712
  141OSM   H16F15527   5.067   0.921   5.362  0.4183  0.2880  1.2008
  141OSM   H16G15528   5.030   1.087   5.299 -2.1582 -0.3634 -0.3312
  141OSM   C17F15529   4.863   0.946   5.347  0.3345  0.5434  0.0638
  141OSM   H17F15530   4.790   1.023   5.380 -0.1864 -1.0012  2.8393
  141OSM   H17G15531   4.855   0.858   5.414  1.3210 -0.6029 -1.2404
  141OSM   C18F15532   4.844   0.886   5.200 -0.2462 -0.0941  0.0164
  141OSM   H18F15533   4.881   0.957   5.123  0.4967  0.0172  0.4662
  141OSM   H18G15534   4.736   0.862   5.187 -0.4306  0.4183  0.5640
  141OSM   H18H15535   4.904   0.793   5.195  0.1771  0.2001 -0.4282
  142OSM      N15536   6.494   1.595   7.173 -0.6088 -0.6841  0.2727
  142OSM    C1515537   6.625   1.555   7.105 -0.4539 -0.0472  0.0191
  142OSM   H15A15538   6.620   1.517   7.004  0.8604 -0.9501  0.2551
  142OSM   H15B15539   6.678   1.483   7.166 -0.8696 -1.1438 -0.8719
  142OSM   H15C15540   6.694   1.638   7.114 -0.1108 -0.3394  0.1365
  142OSM    C1415541   6.532   1.631   7.307 -0.0165  0.2217 -0.0086
  142OSM   H14A15542   6.587   1.546   7.347 -1.1637 -1.1133 -1.1692
  142OSM   H14B15543   6.450   1.661   7.369 -0.2451 -1.8078  0.7584
  142OSM   H14C15544   6.604   1.711   7.304 -1.4548  1.5260 -1.4654
  142OSM    C1315545   6.433   1.712   7.099 -0.9473  0.8699 -0.1080
  142OSM   H13A15546   6.426   1.699   6.992 -0.6204  0.3298 -0.0689
  142OSM   H13B15547   6.476   1.811   7.114  0.4857  0.1388  0.8200
  142OSM   H13C15548   6.330   1.703   7.128 -0.7629 -1.3785 -0.0405
  142OSM    C1215549   6.408   1.474   7.166  0.2778 -0.1822  0.3297
  142OSM   H12A15550   6.473   1.393   7.197  0.3837 -0.5974 -0.9250
  142OSM   H12B15551   6.375   1.460   7.064 -2.6055  0.5465  1.0771
  142OSM    C1115552   6.274   1.470   7.249  0.3834  0.2369  0.4596
  142OSM   H11A15553   6.317   1.481   7.351 -1.8906  1.4466  1.3598
  142OSM   H11B15554   6.227   1.370   7.254 -0.7642  0.7875  1.1193
  142OSM      P15555   6.053   1.554   7.134  0.2822  0.2173 -0.5451
  142OSM    O1315556   5.940   1.548   7.228 -0.3016 -0.6008  0.5129
  142OSM    O1415557   6.057   1.648   7.020  0.2873 -0.0245 -0.5694
  142OSM    O1115558   6.076   1.402   7.073  0.4995  0.2571  0.2093
  142OSM    O1215559   6.185   1.573   7.217 -0.0608 -1.0893 -0.2292
  142OSM    C1S15560   5.972   1.325   6.997 -0.1393 -0.4268 -0.2335
  142OSM    H1S15561   5.874   1.329   7.048 -0.1439 -3.3313  0.1479
  142OSM    H1T15562   5.995   1.217   7.011  0.6315 -0.2698 -0.1947
  142OSM     NF15563   5.825   1.310   6.793 -1.0480 -0.6514 -0.6728
  142OSM    HNF15564   5.838   1.236   6.728 -0.9107 -0.2380 -1.1303
  142OSM    C2S15565   5.951   1.365   6.849  0.1074 -0.4176 -0.2204
  142OSM    H2S15566   5.931   1.473   6.862  2.2020  0.0603 -0.5210
  142OSM    C3S15567   6.072   1.348   6.760  0.1998 -0.4369  0.1990
  142OSM    H3S15568   6.111   1.244   6.756 -0.4935 -0.7574  1.3641
  142OSM     O315569   6.181   1.425   6.801 -0.2034 -0.2888  0.1154
  142OSM    HO315570   6.164   1.459   6.889  0.9492 -0.1887  0.3159
  142OSM    C4S15571   6.044   1.378   6.612  0.2663  0.2179 -0.2039
  142OSM    H4S15572   6.023   1.291   6.548 -0.3822  0.6275 -0.5616
  142OSM    C5S15573   6.054   1.497   6.554  0.0238  0.3925  0.0049
  142OSM    H5S15574   6.077   1.584   6.617 -0.2810 -0.2202  0.9904
  142OSM    C6S15575   6.055   1.516   6.397 -0.0577  0.6393  0.4302
  142OSM    H6S15576   6.030   1.620   6.365  0.2548  0.3069 -0.9556
  142OSM    H6T15577   5.984   1.447   6.347  3.0537 -0.5428 -2.8295
  142OSM    C7S15578   6.199   1.481   6.340 -0.6083 -0.3687  0.3030
  142OSM    H7S15579   6.241   1.386   6.380  1.0768  0.3945  0.4200
  142OSM    H7T15580   6.268   1.562   6.369 -0.5756 -0.2879  0.0054
  142OSM    C8S15581   6.191   1.463   6.191 -0.0220  0.4989 -0.0922
  142OSM    H8S15582   6.110   1.394   6.162  0.3959 -0.1560  0.2726
  142OSM    H8T15583   6.287   1.419   6.156  0.7711  1.1712  1.1625
  142OSM    C9S15584   6.172   1.596   6.114  0.4730 -0.3754 -0.1981
  142OSM    H9S15585   6.243   1.659   6.172  1.1566 -0.0904 -1.3313
  142OSM    H9T15586   6.078   1.648   6.141  1.4843 -0.3214  4.0190
  142OSM   C10S15587   6.206   1.595   5.965  0.1292 -0.2319  0.2187
  142OSM   H10S15588   6.141   1.517   5.919 -1.0171  1.6926 -1.5857
  142OSM   H10T15589   6.313   1.566   5.957  1.1205  2.6860  1.5229
  142OSM   C11S15590   6.167   1.733   5.893  0.0971  0.2774  0.4630
  142OSM   H11S15591   6.229   1.810   5.945  0.4721  1.3654 -1.5067
  142OSM   H11T15592   6.059   1.754   5.909 -0.1717 -1.4046  1.0700
  142OSM   C12S15593   6.208   1.743   5.749  0.9096 -0.0438 -0.4394
  142OSM   H12S15594   6.315   1.715   5.745  0.7610 -1.0610  1.3581
  142OSM   H12T15595   6.201   1.849   5.716 -0.0944  0.1447  0.3159
  142OSM   C13S15596   6.120   1.667   5.646  0.1797  0.1130 -0.3324
  142OSM   H13S15597   6.016   1.703   5.656 -0.1270 -0.6449 -0.7047
  142OSM   H13T15598   6.124   1.559   5.671  0.5418  0.7324  2.6343
  142OSM   C14S15599   6.162   1.692   5.503 -0.3363  0.2496  0.0135
  142OSM   H14S15600   6.254   1.633   5.482  0.4312  1.3008  0.3487
  142OSM   H14T15601   6.195   1.797   5.492  1.9932 -0.6030 -2.4835
  142OSM   C15S15602   6.041   1.664   5.408 -0.5817 -0.1790  0.2189
  142OSM   H15S15603   5.948   1.721   5.431 -1.8954 -0.9320 -2.7707
  142OSM   H15T15604   6.020   1.556   5.420  1.0408 -0.6851 -1.1702
  142OSM   C16S15605   6.071   1.698   5.258 -0.2960 -0.5304  0.5698
  142OSM   H16S15606   5.997   1.647   5.193 -1.0475  0.0062  0.9815
  142OSM   H16T15607   6.171   1.661   5.228  0.1017 -0.0761  1.2917
  142OSM   C17S15608   6.065   1.849   5.219  0.4640 -0.0610 -0.2752
  142OSM   H17S15609   6.137   1.917   5.270  0.3432 -0.5279  0.5440
  142OSM   H17T15610   5.964   1.886   5.248  0.0969 -1.4328  0.2832
  142OSM   C18S15611   6.060   1.864   5.066  0.9382 -0.2518  0.0480
  142OSM   H18S15612   5.975   1.809   5.021 -0.3530  1.1148  0.6967
  142OSM   H18T15613   6.150   1.829   5.012  0.7056 -1.1086  0.2020
  142OSM   H18U15614   6.038   1.969   5.036  2.0436 -0.4285 -1.4819
  142OSM    C1F15615   5.702   1.329   6.853 -0.0148 -0.8472  0.0165
  142OSM     OF15616   5.682   1.414   6.941 -0.7391 -0.0256  0.0836
  142OSM    C2F15617   5.599   1.228   6.810 -0.2712 -0.3448  0.3765
  142OSM    H2F15618   5.590   1.147   6.885 -0.3033 -0.4757  0.2334
  142OSM    H2G15619   5.631   1.178   6.716  0.2021 -0.4002  0.5633
  142OSM    C3F15620   5.462   1.294   6.779 -0.5141 -0.0771  0.2787
  142OSM    H3F15621   5.413   1.333   6.871 -0.4149  2.9171 -0.8079
  142OSM    H3G15622   5.395   1.219   6.733 -1.2376  0.3209  0.6658
  142OSM    C4F15623   5.473   1.408   6.671  0.1918  0.5425  0.0382
  142OSM    H4F15624   5.524   1.492   6.723  0.9811 -1.0176  1.8905
  142OSM    H4G15625   5.372   1.434   6.633  0.5789  0.9494 -0.7355
  142OSM    C5F15626   5.560   1.385   6.547  0.0379 -0.0941  0.0247
  142OSM    H5F15627   5.512   1.310   6.481 -0.5414  1.9507 -1.9921
  142OSM    H5G15628   5.662   1.353   6.577  0.0528 -0.6073 -0.5381
  142OSM    C6F15629   5.582   1.505   6.461 -0.1902  0.0686  0.8454
  142OSM    H6F15630   5.653   1.572   6.515  0.1337 -0.5558  1.2030
  142OSM    H6G15631   5.488   1.560   6.438  1.1698  1.9319 -0.6147
  142OSM    C7F15632   5.666   1.457   6.341 -0.0634  0.7266 -0.6530
  142OSM    H7F15633   5.621   1.374   6.284  0.3162 -0.2908  0.4955
  142OSM    H7G15634   5.766   1.426   6.380  0.7130 -2.9201 -4.8373
  142OSM    C8F15635   5.676   1.574   6.238  0.7081  0.3847  0.3102
  142OSM    H8F15636   5.686   1.670   6.292 -0.2551  0.5590  0.1935
  142OSM    H8G15637   5.578   1.583   6.186  1.2834  0.2011 -0.8304
  142OSM    C9F15638   5.783   1.572   6.131 -0.4045 -0.5728 -0.0682
  142OSM    H9F15639   5.885   1.575   6.172 -0.1769 -0.5303 -0.6283
  142OSM   C10F15640   5.767   1.544   6.000 -0.1766 -0.1212 -0.5733
  142OSM   H10F15641   5.850   1.534   5.928  0.2148 -1.9271  0.0932
  142OSM   C11F15642   5.637   1.519   5.931  0.1517  0.3343 -0.2060
  142OSM   H11F15643   5.562   1.593   5.968 -1.5327 -1.5789  0.3466
  142OSM   H11G15644   5.602   1.416   5.950 -0.9655  0.7913  0.2860
  142OSM   C12F15645   5.664   1.524   5.775  0.6245  0.0120 -0.6862
  142OSM   H12F15646   5.744   1.452   5.747  0.0731 -0.0980 -2.0242
  142OSM   H12G15647   5.694   1.629   5.756 -1.3433  1.0617  1.5206
  142OSM   C13F15648   5.532   1.506   5.704  0.4728 -0.1166 -0.4034
  142OSM   H13F15649   5.460   1.581   5.743  1.2155 -0.0177  0.8402
  142OSM   H13G15650   5.503   1.403   5.732  2.2227 -0.7923 -0.9028
  142OSM   C14F15651   5.530   1.518   5.549  0.3170  0.2362  0.1660
  142OSM   H14F15652   5.598   1.441   5.508  0.7614  0.3256  0.7266
  142OSM   H14G15653   5.569   1.620   5.531  3.4193 -0.5071  1.9166
  142OSM   C15F15654   5.387   1.506   5.507  0.8220  0.2593 -0.1889
  142OSM   H15F15655   5.319   1.573   5.565 -1.9188 -2.4160 -0.0964
  142OSM   H15G15656   5.354   1.403   5.529  0.3611 -0.3534 -3.2803
  142OSM   C16F15657   5.377   1.527   5.359 -0.1841 -0.0614  0.7821
  142OSM   H16F15658   5.476   1.526   5.308 -0.8151  0.6939 -0.5079
  142OSM   H16G15659   5.336   1.628   5.337  0.2735  0.6582  2.9699
  142OSM   C17F15660   5.289   1.426   5.281 -0.9686 -0.5458 -0.8245
  142OSM   H17F15661   5.326   1.327   5.316 -0.5087  0.4131  1.6641
  142OSM   H17G15662   5.307   1.446   5.174  2.5259 -1.4025 -0.5465
  142OSM   C18F15663   5.144   1.449   5.308  0.1673  0.1942 -0.1747
  142OSM   H18F15664   5.106   1.550   5.283 -1.5791 -0.6446 -1.0511
  142OSM   H18G15665   5.124   1.441   5.417  0.4931 -1.8031 -0.2190
  142OSM   H18H15666   5.078   1.381   5.250 -1.7344  1.9847 -0.2598
  143OSM      N15667   5.278   5.188   7.145  0.2553 -0.1452  0.7158
  143OSM    C1515668   5.240   5.086   7.251 -0.4874 -0.6573 -0.2283
  143OSM   H15A15669   5.158   5.026   7.214 -1.2517  0.8930 -1.1728
  143OSM   H15B15670   5.200   5.130   7.341  1.1372 -0.6717  0.5418
  143OSM   H15C15671   5.315   5.011   7.270  2.3921  1.8423 -0.9258
  143OSM    C1415672   5.159   5.241   7.072  0.3825 -0.3067  0.1382
  143OSM   H14A15673   5.113   5.171   7.003  0.8549 -0.0886 -0.4072
  143OSM   H14B15674   5.196   5.314   7.001  1.8705  0.2542  1.4361
  143OSM   H14C15675   5.079   5.277   7.134 -1.6858 -1.3748 -1.7521
  143OSM    C1315676   5.352   5.309   7.206  0.0808  0.5051  0.1673
  143OSM   H13A15677   5.451   5.274   7.229 -0.5352 -0.7784  0.9872
  143OSM   H13B15678   5.305   5.350   7.294 -0.0608  1.2057 -0.2237
  143OSM   H13C15679   5.354   5.391   7.135 -1.8172 -2.0658 -3.1604
  143OSM    C1215680   5.367   5.119   7.045 -0.5676  0.2150  0.0110
  143OSM   H12A15681   5.397   5.191   6.970  0.9559 -0.4621 -0.0719
  143OSM   H12B15682   5.300   5.050   6.997  3.0642 -2.7996 -1.1462
  143OSM    C1115683   5.478   5.017   7.080 -0.1588 -0.0898 -0.0330
  143OSM   H11A15684   5.556   5.082   7.124 -0.5363  0.7782 -0.6060
  143OSM   H11B15685   5.523   4.975   6.987 -0.9663 -2.2240  0.4921
  143OSM      P15686   5.572   4.809   7.190 -0.1795 -0.2175 -0.2515
  143OSM    O1315687   5.686   4.876   7.247 -0.3210  0.0326 -0.1009
  143OSM    O1415688   5.520   4.689   7.256 -0.3981 -0.2204  0.3606
  143OSM    O1115689   5.622   4.757   7.051 -0.1847  0.1852 -0.3914
  143OSM    O1215690   5.453   4.904   7.160 -0.0361 -0.4224  0.3244
  143OSM    C1S15691   5.534   4.676   6.970  0.4089  0.6020 -0.6750
  143OSM    H1S15692   5.431   4.707   6.996 -0.0015 -1.8996  0.9956
  143OSM    H1T15693   5.548   4.569   6.994  0.1504  0.6258 -0.4096
  143OSM     NF15694   5.460   4.655   6.733 -0.0253 -0.8534  0.5467
  143OSM    HNF15695   5.465   4.565   6.689  0.0672 -0.8842  0.6202
  143OSM    C2S15696   5.568   4.707   6.826 -0.1157  1.0313  0.4967
  143OSM    H2S15697   5.575   4.816   6.807  1.9035  0.7864 -0.4202
  143OSM    C3S15698   5.707   4.649   6.791  0.0093  0.5926  0.3158
  143OSM    H3S15699   5.692   4.540   6.805 -0.5615  0.5993 -0.2015
  143OSM     O315700   5.815   4.678   6.876  0.0273  0.6982 -0.0034
  143OSM    HO315701   5.767   4.711   6.952 -3.2920  0.3389 -1.7402
  143OSM    C4S15702   5.740   4.670   6.643  0.8544  0.2894 -0.4338
  143OSM    H4S15703   5.706   4.596   6.570  0.7113  1.3914 -1.5101
  143OSM    C5S15704   5.794   4.780   6.597 -0.5525 -0.6853 -0.4543
  143OSM    H5S15705   5.821   4.852   6.676 -2.0141 -0.3542 -0.2273
  143OSM    C6S15706   5.837   4.805   6.458  0.3544 -0.4499 -0.3426
  143OSM    H6S15707   5.947   4.815   6.461  0.1911  1.8495 -0.8189
  143OSM    H6T15708   5.801   4.908   6.442 -1.3183 -0.1653  3.8167
  143OSM    C7S15709   5.781   4.716   6.338  0.3617 -0.3767 -0.2347
  143OSM    H7S15710   5.671   4.714   6.326  0.5063  0.3679 -2.0380
  143OSM    H7T15711   5.817   4.611   6.353 -1.0053 -1.2569 -2.5626
  143OSM    C8S15712   5.836   4.773   6.205  0.2873  0.6175 -0.3254
  143OSM    H8S15713   5.943   4.791   6.226  0.7081 -0.0287 -1.8232
  143OSM    H8T15714   5.781   4.869   6.191  0.9425  1.0403 -0.0252
  143OSM    C9S15715   5.829   4.671   6.084  0.5374 -0.5278 -0.5454
  143OSM    H9S15716   5.724   4.644   6.060 -0.4362  1.8058  0.7969
  143OSM    H9T15717   5.881   4.575   6.106  1.2260 -0.1008 -0.2609
  143OSM   C10S15718   5.883   4.732   5.953  0.2532  0.0063 -0.2131
  143OSM   H10S15719   5.994   4.735   5.955  0.2671 -0.7294  1.0214
  143OSM   H10T15720   5.849   4.838   5.943 -2.5470 -0.8148 -0.3256
  143OSM   C11S15721   5.828   4.658   5.826  0.1148 -0.4137 -0.3031
  143OSM   H11S15722   5.721   4.685   5.815  0.6743  1.3384 -2.1126
  143OSM   H11T15723   5.838   4.552   5.856 -1.1878  0.4548  3.8584
  143OSM   C12S15724   5.905   4.714   5.697  0.5704 -0.2046 -0.6507
  143OSM   H12S15725   6.013   4.696   5.716  0.7168  1.8733  0.9525
  143OSM   H12T15726   5.880   4.822   5.687  0.3388  0.1601  2.7196
  143OSM   C13S15727   5.857   4.643   5.571  0.1445  0.0077  0.1514
  143OSM   H13S15728   5.747   4.639   5.558  0.2564  1.3336 -1.4690
  143OSM   H13T15729   5.905   4.543   5.561  2.5662  1.2772 -1.9797
  143OSM   C14S15730   5.921   4.721   5.454  0.1328 -0.6221 -0.5833
  143OSM   H14S15731   6.030   4.712   5.472  0.4451  0.4325 -1.7912
  143OSM   H14T15732   5.903   4.831   5.456  0.7754 -0.5151 -0.4817
  143OSM   C15S15733   5.894   4.664   5.310 -0.1343 -0.3514 -0.6825
  143OSM   H15S15734   5.795   4.702   5.279 -0.4786  0.2114  0.9723
  143OSM   H15T15735   5.885   4.554   5.320  0.6462 -0.3271  0.5728
  143OSM   C16S15736   6.006   4.695   5.215  1.0757 -0.1962  0.6748
  143OSM   H16S15737   6.103   4.646   5.241  2.0090 -0.1558 -2.3960
  143OSM   H16T15738   6.037   4.801   5.205  1.6658 -0.3375  0.9105
  143OSM   C17S15739   5.980   4.634   5.073 -0.1264 -0.2161 -0.9623
  143OSM   H17S15740   5.891   4.685   5.030 -1.7533 -1.2695  0.9884
  143OSM   H17T15741   5.961   4.526   5.088  0.4139  0.1283  3.7454
  143OSM   C18S15742   6.098   4.651   4.977  0.5090  0.6331 -0.1501
  143OSM   H18S15743   6.139   4.754   4.971  2.4114 -0.1439 -1.5616
  143OSM   H18T15744   6.059   4.621   4.878  0.9057  1.2372 -0.4922
  143OSM   H18U15745   6.184   4.587   5.008 -0.7761 -0.4094  1.4292
  143OSM    C1F15746   5.347   4.718   6.730 -0.1223 -0.4535  0.0760
  143OSM     OF15747   5.326   4.829   6.784 -0.3541  0.2030  0.9457
  143OSM    C2F15748   5.234   4.644   6.671  0.0134  0.0577  0.4301
  143OSM    H2F15749   5.168   4.593   6.745 -0.0144  1.6749  1.5769
  143OSM    H2G15750   5.280   4.574   6.598  0.5328  0.0481  0.7648
  143OSM    C3F15751   5.127   4.738   6.606  0.0810  0.2400  1.0932
  143OSM    H3F15752   5.083   4.803   6.684  0.1850 -0.2865  1.5982
  143OSM    H3G15753   5.049   4.673   6.562 -0.2126  0.3487  1.4537
  143OSM    C4F15754   5.179   4.824   6.489  0.6426  0.2670 -0.5118
  143OSM    H4F15755   5.284   4.797   6.463  1.0432  0.7231  0.5688
  143OSM    H4G15756   5.182   4.929   6.527 -1.4705  0.3274 -0.3844
  143OSM    C5F15757   5.075   4.825   6.380  0.3415  0.2730  1.1280
  143OSM    H5F15758   4.986   4.884   6.410 -0.9419 -0.7432 -0.4693
  143OSM    H5G15759   5.030   4.725   6.360 -0.7463  1.2535 -1.8388
  143OSM    C6F15760   5.125   4.864   6.238  0.6129  0.1444 -0.4260
  143OSM    H6F15761   5.134   4.768   6.183 -2.7013 -1.3566  1.3497
  143OSM    H6G15762   5.216   4.928   6.239  0.5790  0.2353  1.9357
  143OSM    C7F15763   5.022   4.960   6.173  0.0752 -0.3912 -0.0590
  143OSM    H7F15764   5.006   5.040   6.248 -2.1832 -1.9237  1.2356
  143OSM    H7G15765   4.922   4.913   6.160 -0.0334  0.4491 -3.2966
  143OSM    C8F15766   5.068   5.026   6.044  0.1116  0.3472  0.3577
  143OSM    H8F15767   5.164   5.080   6.058 -1.0667  2.0100  2.7579
  143OSM    H8G15768   5.000   5.113   6.028 -0.0250  0.1777  0.0142
  143OSM    C9F15769   5.072   4.924   5.937 -0.5068 -0.0959 -0.8260
  143OSM    H9F15770   5.152   4.851   5.958  1.7200  2.6281  0.8578
  143OSM   C10F15771   4.992   4.914   5.827 -0.0724  0.3983 -0.9080
  143OSM   H10F15772   4.997   4.822   5.768 -0.2455 -0.2510  0.0766
  143OSM   C11F15773   4.884   5.007   5.794 -0.1860 -0.4558  0.0171
  143OSM   H11F15774   4.871   4.995   5.684  0.0780  1.2718 -0.2415
  143OSM   H11G15775   4.918   5.111   5.814 -0.7414 -0.2948  0.1449
  143OSM   C12F15776   4.761   4.964   5.873  0.5615 -0.8059 -0.6559
  143OSM   H12F15777   4.788   4.984   5.979  1.5838  0.8823 -1.2002
  143OSM   H12G15778   4.724   4.863   5.847 -0.6589 -0.4161 -0.5072
  143OSM   C13F15779   4.642   5.057   5.844 -0.0822 -0.0204  0.1835
  143OSM   H13F15780   4.602   5.044   5.741 -4.7721  1.1383  1.5968
  143OSM   H13G15781   4.680   5.161   5.853  1.5521 -0.6873  1.5039
  143OSM   C14F15782   4.525   5.038   5.948 -0.1361 -0.6523  0.0217
  143OSM   H14F15783   4.565   5.055   6.050 -0.1126 -0.5630 -0.0024
  143OSM   H14G15784   4.492   4.932   5.937 -2.3732  0.2632 -5.3723
  143OSM   C15F15785   4.397   5.125   5.911  0.4628  0.6423  0.2824
  143OSM   H15F15786   4.444   5.226   5.912  1.0152  0.4122 -0.7504
  143OSM   H15G15787   4.326   5.106   5.993  1.3992 -4.4010  0.2552
  143OSM   C16F15788   4.336   5.085   5.772  0.1855 -0.4626  0.1542
  143OSM   H16F15789   4.313   4.977   5.761  1.7850 -1.0720  2.1786
  143OSM   H16G15790   4.418   5.106   5.700  0.3610 -0.4300  0.3625
  143OSM   C17F15791   4.204   5.165   5.758 -0.3855 -0.8639 -0.4941
  143OSM   H17F15792   4.239   5.270   5.750  0.1285 -0.8816  1.1146
  143OSM   H17G15793   4.137   5.148   5.845  1.0890  1.5333  1.2540
  143OSM   C18F15794   4.128   5.129   5.630  0.6569 -0.2979 -0.4878
  143OSM   H18F15795   4.107   5.020   5.624  1.2518 -0.4856  0.5810
  143OSM   H18G15796   4.185   5.149   5.537  0.2502 -0.0505 -0.6851
  143OSM   H18H15797   4.027   5.175   5.640 -1.1677 -4.1250  0.6385
  144OSM      N15798   4.127   0.756   7.271 -0.1807 -0.5428 -0.0676
  144OSM    C1515799   4.177   0.637   7.344  0.1793  0.2188 -0.0819
  144OSM   H15A15800   4.094   0.577   7.379  0.2428 -0.7693 -1.5434
  144OSM   H15B15801   4.236   0.667   7.430 -0.6367  0.5394  0.3810
  144OSM   H15C15802   4.240   0.573   7.285 -1.4100 -0.7783 -0.7490
  144OSM    C1415803   4.020   0.825   7.360 -0.0125 -0.7752  0.1843
  144OSM   H14A15804   3.951   0.753   7.400  2.7212 -3.8178 -0.1184
  144OSM   H14B15805   3.963   0.892   7.298  1.9949  1.1759  0.3064
  144OSM   H14C15806   4.061   0.891   7.435 -1.7821  0.4639  0.1114
  144OSM    C1315807   4.228   0.854   7.238  0.0279 -0.9263  0.1260
  144OSM   H13A15808   4.273   0.879   7.334  0.7410 -0.1411 -0.3980
  144OSM   H13B15809   4.179   0.945   7.205  0.9774 -0.5987 -0.4307
  144OSM   H13C15810   4.294   0.835   7.155  0.6262  1.1409  0.0569
  144OSM    C1215811   4.057   0.709   7.148 -0.5179  0.4167 -0.1828
  144OSM   H12A15812   4.015   0.611   7.158  1.6358 -0.3886  1.7858
  144OSM   H12B15813   4.133   0.697   7.072 -0.8658  2.3315 -0.9170
  144OSM    C1115814   3.951   0.805   7.086  0.0585  1.0332  0.1237
  144OSM   H11A15815   3.858   0.784   7.142  1.7264  2.3380  3.6265
  144OSM   H11B15816   3.930   0.765   6.984 -1.0586 -2.4115  1.5802
  144OSM      P15817   4.054   1.011   6.980 -0.8748  0.3449  0.3108
  144OSM    O1315818   4.077   1.154   7.007  0.1567  0.0952  0.7557
  144OSM    O1415819   4.180   0.933   6.947  0.5667  0.3778  0.1643
  144OSM    O1115820   3.954   1.012   6.864  0.6661  0.2012  0.1516
  144OSM    O1215821   3.976   0.942   7.091 -0.2867  0.8491 -0.3478
  144OSM    C1S15822   3.833   1.091   6.864  0.2245  0.1844  0.2791
  144OSM    H1S15823   3.863   1.197   6.862  3.0965 -0.5432  0.5067
  144OSM    H1T15824   3.775   1.069   6.956  0.9008 -1.9297  0.2555
  144OSM     NF15825   3.610   1.118   6.772 -0.3707  0.2336  0.3776
  144OSM    HNF15826   3.543   1.062   6.820  1.0809 -0.3133  1.8253
  144OSM    C2S15827   3.739   1.056   6.742  0.3735 -0.0929 -0.1619
  144OSM    H2S15828   3.777   1.113   6.654  0.9412  2.7043  1.7636
  144OSM    C3S15829   3.728   0.903   6.737 -0.4076 -0.1522  0.3703
  144OSM    H3S15830   3.677   0.870   6.830 -0.7236 -2.2079 -0.4700
  144OSM     O315831   3.848   0.819   6.734  0.0950 -0.2256 -0.0353
  144OSM    HO315832   3.913   0.882   6.767  0.1802 -0.5939  0.5123
  144OSM    C4S15833   3.641   0.872   6.620  0.2313  0.1069  0.4228
  144OSM    H4S15834   3.541   0.838   6.653 -0.2818 -0.8643 -1.9094
  144OSM    C5S15835   3.669   0.881   6.486  0.4049  0.8099  0.3810
  144OSM    H5S15836   3.765   0.927   6.457  0.1260  0.2868 -1.5229
  144OSM    C6S15837   3.573   0.844   6.374  0.9327 -0.3270 -0.0033
  144OSM    H6S15838   3.613   0.889   6.281  2.3743 -0.9049  0.3085
  144OSM    H6T15839   3.465   0.866   6.383  0.1449 -3.5696 -0.3967
  144OSM    C7S15840   3.578   0.690   6.365  0.3778 -0.1703 -0.3138
  144OSM    H7S15841   3.502   0.643   6.299 -0.4024  3.0909 -1.9336
  144OSM    H7T15842   3.563   0.656   6.470 -0.1816  0.7241 -0.0934
  144OSM    C8S15843   3.714   0.627   6.319  0.4436 -0.6053  0.1304
  144OSM    H8S15844   3.708   0.516   6.328 -3.5985 -0.7477 -1.7935
  144OSM    H8T15845   3.786   0.661   6.396 -2.2389  0.5018  2.3630
  144OSM    C9S15846   3.765   0.649   6.175  0.4816 -0.2761 -0.9504
  144OSM    H9S15847   3.853   0.584   6.160  1.3925 -0.0237  2.4169
  144OSM    H9T15848   3.803   0.753   6.176  2.0130 -0.8196 -0.0430
  144OSM   C10S15849   3.659   0.627   6.063  0.0683 -0.0989  0.0969
  144OSM   H10S15850   3.699   0.660   5.965 -0.5661 -1.8397 -0.8107
  144OSM   H10T15851   3.571   0.693   6.078  0.5069  0.5815 -0.3267
  144OSM   C11S15852   3.616   0.480   6.047  0.2944  0.6514  0.5174
  144OSM   H11S15853   3.573   0.444   6.142  0.9388 -0.1886  0.5101
  144OSM   H11T15854   3.713   0.432   6.023  0.1150  1.0730 -1.1741
  144OSM   C12S15855   3.514   0.465   5.939  0.5009  0.0218 -0.1417
  144OSM   H12S15856   3.528   0.558   5.880  2.5675 -0.9124 -1.1961
  144OSM   H12T15857   3.410   0.465   5.979  0.1131 -2.2664 -0.9595
  144OSM   C13S15858   3.538   0.356   5.840  0.3276  0.2734 -0.0408
  144OSM   H13S15859   3.532   0.255   5.885  1.1875 -1.0549 -2.6623
  144OSM   H13T15860   3.640   0.372   5.797 -0.2381  3.6775 -0.4142
  144OSM   C14S15861   3.450   0.349   5.713  0.2116  0.3550 -0.3741
  144OSM   H14S15862   3.472   0.441   5.653 -0.6949  0.6099 -0.3287
  144OSM   H14T15863   3.342   0.359   5.734  0.2077 -2.8348  1.8207
  144OSM   C15S15864   3.473   0.207   5.651  0.0594 -0.3676  0.0367
  144OSM   H15S15865   3.432   0.128   5.717  1.4750 -1.5725 -0.4731
  144OSM   H15T15866   3.582   0.185   5.648  0.5917  1.4849  2.4079
  144OSM   C16S15867   3.412   0.192   5.511  0.2355 -0.4693 -0.7169
  144OSM   H16S15868   3.431   0.088   5.477  3.1746  0.3789 -2.0119
  144OSM   H16T15869   3.469   0.263   5.446  0.2102  0.5625  0.3524
  144OSM   C17S15870   3.265   0.222   5.492  0.2485  0.5717 -0.3860
  144OSM   H17S15871   3.228   0.307   5.552 -0.9605 -1.2499  1.5887
  144OSM   H17T15872   3.206   0.136   5.531  0.7771  0.4967  0.2675
  144OSM   C18S15873   3.229   0.231   5.346  0.3177 -0.0254  0.2718
  144OSM   H18S15874   3.122   0.264   5.345  0.4153  0.2987 -0.8250
  144OSM   H18T15875   3.246   0.131   5.302 -0.6060  1.0982 -2.9043
  144OSM   H18U15876   3.298   0.296   5.288  2.2275 -2.3021 -0.1271
  144OSM    C1F15877   3.592   1.252   6.757 -0.3184 -0.4726  0.1347
  144OSM     OF15878   3.676   1.322   6.701  0.1127  0.1368 -0.4840
  144OSM    C2F15879   3.466   1.305   6.818  0.6420 -0.2764 -0.4734
  144OSM    H2F15880   3.480   1.315   6.928  0.3411  0.5100 -0.5023
  144OSM    H2G15881   3.391   1.224   6.806  2.5678 -2.4617  1.3314
  144OSM    C3F15882   3.430   1.441   6.766 -0.9623  0.5832 -0.1118
  144OSM    H3F15883   3.442   1.449   6.656  1.1366  0.1294  0.0518
  144OSM    H3G15884   3.498   1.508   6.822 -1.6770 -1.1638  3.1202
  144OSM    C4F15885   3.283   1.478   6.798  0.3287  0.2753  0.0895
  144OSM    H4F15886   3.285   1.589   6.792  0.7591  0.1869 -3.1112
  144OSM    H4G15887   3.266   1.444   6.902  2.7493 -0.1845  0.3793
  144OSM    C5F15888   3.179   1.425   6.696  0.6735  0.2062 -0.8066
  144OSM    H5F15889   3.073   1.436   6.729  0.4100 -1.8905 -0.7999
  144OSM    H5G15890   3.211   1.320   6.713  1.7222  0.8681  1.8420
  144OSM    C6F15891   3.199   1.461   6.555  0.4880 -0.0618  0.3081
  144OSM    H6F15892   3.146   1.387   6.492 -2.1568  1.1569  0.9328
  144OSM    H6G15893   3.304   1.445   6.524  1.0070 -1.3752  2.4975
  144OSM    C7F15894   3.163   1.606   6.518  0.2812  0.2265  0.2431
  144OSM    H7F15895   3.245   1.671   6.555  0.0169 -0.0210  1.2771
  144OSM    H7G15896   3.067   1.639   6.563 -0.3766  0.5472 -1.2948
  144OSM    C8F15897   3.154   1.631   6.358  0.1508 -0.7481  0.5514
  144OSM    H8F15898   3.249   1.591   6.319  1.9025  2.1186  1.6021
  144OSM    H8G15899   3.141   1.741   6.347 -1.2424 -1.0596 -1.5386
  144OSM    C9F15900   3.043   1.549   6.298 -0.8821 -0.0336 -0.3836
  144OSM    H9F15901   2.966   1.508   6.365 -0.1719  1.1211  1.2124
  144OSM   C10F15902   3.051   1.512   6.167 -0.4319 -0.7217 -0.0277
  144OSM   H10F15903   2.976   1.445   6.122 -0.1271 -0.3603 -1.0866
  144OSM   C11F15904   3.156   1.558   6.067 -0.3387  0.3153 -0.1609
  144OSM   H11F15905   3.154   1.485   5.984 -2.6615 -2.8148  2.3627
  144OSM   H11G15906   3.257   1.549   6.113 -0.2713 -0.4299 -0.4432
  144OSM   C12F15907   3.131   1.719   6.036 -0.5742 -0.5922  0.1475
  144OSM   H12F15908   3.115   1.772   6.132  1.3763  0.1381  0.1001
  144OSM   H12G15909   3.037   1.729   5.977 -0.7068  1.7965  0.7016
  144OSM   C13F15910   3.249   1.785   5.954  0.5481  0.0572 -0.2478
  144OSM   H13F15911   3.215   1.890   5.943  1.1282  0.2523 -0.1789
  144OSM   H13G15912   3.261   1.736   5.855  1.4963 -1.6791  0.6846
  144OSM   C14F15913   3.383   1.774   6.020  0.2927 -0.3132 -0.6154
  144OSM   H14F15914   3.472   1.799   5.958 -0.7397  0.7768 -1.7264
  144OSM   H14G15915   3.413   1.667   6.034 -1.4502 -0.6199  1.0741
  144OSM   C15F15916   3.393   1.851   6.156  0.4073  0.7686  0.2029
  144OSM   H15F15917   3.335   1.795   6.232  0.8081  1.5894  1.1214
  144OSM   H15G15918   3.348   1.952   6.156 -1.2839  0.0572  0.9925
  144OSM   C16F15919   3.537   1.855   6.201  0.6110  0.5050  0.2056
  144OSM   H16F15920   3.580   1.929   6.131 -1.2963 -0.6274 -2.2959
  144OSM   H16G15921   3.588   1.758   6.182  0.7202  0.5324  0.3496
  144OSM   C17F15922   3.566   1.900   6.344  0.5936  0.2428 -0.3178
  144OSM   H17F15923   3.519   1.996   6.373 -0.2380  0.2530 -1.6255
  144OSM   H17G15924   3.675   1.923   6.333  0.0923  2.7757 -0.6191
  144OSM   C18F15925   3.543   1.795   6.444  0.6554  0.2468 -0.7827
  144OSM   H18F15926   3.616   1.712   6.431 -0.8728 -1.1865 -0.5888
  144OSM   H18G15927   3.442   1.751   6.431 -0.0945  0.8245  2.3612
  144OSM   H18H15928   3.554   1.826   6.550 -0.4467  0.4736 -0.7222
  145OSM      N15929   6.075   6.159   7.135 -0.1313  0.7784 -0.2270
  145OSM    C1515930   6.148   6.283   7.104 -0.6677 -0.7391  0.2480
  145OSM   H15A15931   6.173   6.283   6.999 -0.8128 -2.6300  0.1671
  145OSM   H15B15932   6.237   6.298   7.163 -1.1602  1.4341  0.5257
  145OSM   H15C15933   6.084   6.368   7.122  1.5889  1.4185 -1.3707
  145OSM    C1415934   6.157   6.055   7.057  0.4441 -0.0084  0.0437
  145OSM   H14A15935   6.261   6.058   7.086  0.9926  0.3973 -1.8449
  145OSM   H14B15936   6.151   6.080   6.953  1.6767 -0.7343 -0.2249
  145OSM   H14C15937   6.130   5.950   7.062  4.2550 -1.1510  0.0537
  145OSM    C1315938   6.075   6.140   7.282  0.0285  0.2463 -0.8987
  145OSM   H13A15939   6.013   6.211   7.335 -0.4177  1.4916 -2.9854
  145OSM   H13B15940   6.172   6.133   7.329 -1.1190 -0.4557  1.5162
  145OSM   H13C15941   6.040   6.039   7.299  1.9966 -0.5485 -1.2970
  145OSM    C1215942   5.943   6.162   7.078 -0.4178 -0.4095 -0.6132
  145OSM   H12A15943   5.898   6.070   7.112  0.2752 -0.5599 -0.0890
  145OSM   H12B15944   5.960   6.144   6.973  0.5962  0.6187 -0.6459
  145OSM    C1115945   5.856   6.280   7.107 -0.4502 -0.1632  0.1888
  145OSM   H11A15946   5.847   6.308   7.214 -0.3522  1.9815 -0.3134
  145OSM   H11B15947   5.755   6.251   7.071 -1.0410  1.5072  0.3888
  145OSM      P15948   5.802   6.466   6.923 -0.1623  0.1929 -0.1248
  145OSM    O1315949   5.783   6.365   6.821  0.5542 -0.2971  0.0250
  145OSM    O1415950   5.681   6.526   6.985  0.4067  0.0240 -0.1893
  145OSM    O1115951   5.899   6.577   6.875  0.2342  0.4006 -0.3881
  145OSM    O1215952   5.893   6.397   7.031  0.5235 -0.3312  0.2369
  145OSM    C1S15953   6.032   6.550   6.824  0.0796  0.2577 -0.4868
  145OSM    H1S15954   6.057   6.442   6.828 -0.1419  0.2512  2.0085
  145OSM    H1T15955   6.108   6.602   6.886 -0.0531 -0.5655  0.3767
  145OSM     NF15956   6.184   6.567   6.634 -0.4743  0.0807  0.1661
  145OSM    HNF15957   6.251   6.640   6.649  0.7226 -0.6311 -1.4548
  145OSM    C2S15958   6.048   6.592   6.673  0.1783 -0.7407  0.4003
  145OSM    H2S15959   5.983   6.530   6.606  2.2820  0.8481 -3.4070
  145OSM    C3S15960   6.007   6.746   6.647 -0.0762 -0.1520 -0.4564
  145OSM    H3S15961   6.098   6.804   6.670  0.1570 -0.0623 -1.5560
  145OSM     O315962   5.900   6.798   6.728  0.4238 -0.0957 -0.1644
  145OSM    HO315963   5.882   6.723   6.784  0.7316 -0.3264 -0.3717
  145OSM    C4S15964   5.962   6.759   6.504 -0.3984 -0.2055 -0.8155
  145OSM    H4S15965   5.858   6.722   6.497 -0.5728  0.1407 -0.1789
  145OSM    C5S15966   6.025   6.822   6.405  0.0875  0.7597 -0.0931
  145OSM    H5S15967   6.120   6.867   6.435 -0.2057  0.8504  0.7160
  145OSM    C6S15968   5.969   6.829   6.266 -0.2208 -0.7309 -0.1312
  145OSM    H6S15969   6.042   6.811   6.184 -0.3151 -0.6709 -0.2274
  145OSM    H6T15970   5.951   6.936   6.241  0.0472 -0.7202 -0.2925
  145OSM    C7S15971   5.838   6.759   6.235  0.3672 -0.1992 -0.1998
  145OSM    H7S15972   5.758   6.830   6.263  0.5108  1.5904 -3.7690
  145OSM    H7T15973   5.827   6.654   6.270 -0.6434 -0.2005 -0.5078
  145OSM    C8S15974   5.824   6.743   6.086 -0.5897  0.2326 -1.2347
  145OSM    H8S15975   5.893   6.659   6.062  0.2525  0.0971  1.3619
  145OSM    H8T15976   5.872   6.832   6.041  4.1913 -0.1955  2.2590
  145OSM    C9S15977   5.676   6.709   6.041  0.3287 -0.4744 -0.1123
  145OSM    H9S15978   5.606   6.785   6.082  0.7537  0.5470 -1.2330
  145OSM    H9T15979   5.640   6.626   6.105 -1.8400  2.1106  2.3106
  145OSM   C10S15980   5.671   6.673   5.896 -0.0560 -0.2734 -0.0627
  145OSM   H10S15981   5.580   6.616   5.864  1.1702 -1.8932 -0.8436
  145OSM   H10T15982   5.760   6.608   5.885  0.8999  0.7605  1.3327
  145OSM   C11S15983   5.668   6.796   5.802 -0.5883 -0.2453 -0.0720
  145OSM   H11S15984   5.748   6.865   5.838 -1.4296  1.1952 -0.8825
  145OSM   H11T15985   5.574   6.854   5.806  0.0250  0.7598  0.3628
  145OSM   C12S15986   5.697   6.774   5.658  0.0229 -0.4053  0.2411
  145OSM   H12S15987   5.804   6.788   5.633  0.1842  1.3157  1.6718
  145OSM   H12T15988   5.647   6.846   5.589 -1.2569 -2.8447 -1.5515
  145OSM   C13S15989   5.651   6.640   5.605  0.5724 -0.1726 -0.5411
  145OSM   H13S15990   5.542   6.628   5.618  0.3909 -1.0359 -2.4317
  145OSM   H13T15991   5.710   6.565   5.660  0.0756 -1.6248 -1.9113
  145OSM   C14S15992   5.674   6.636   5.453  0.2101  0.7785  0.2878
  145OSM   H14S15993   5.764   6.583   5.415 -0.9579  0.1289 -1.6876
  145OSM   H14T15994   5.694   6.740   5.421 -0.2404  0.3861 -1.3298
  145OSM   C15S15995   5.552   6.589   5.366 -0.6543 -0.2843 -0.3060
  145OSM   H15S15996   5.474   6.664   5.389 -0.8734 -0.4860 -0.3900
  145OSM   H15T15997   5.516   6.488   5.395 -1.1292 -0.8398 -2.6941
  145OSM   C16S15998   5.582   6.573   5.218  0.1190 -1.1405 -0.4950
  145OSM   H16S15999   5.677   6.520   5.197  1.6955  1.5668 -0.6581
  145OSM   H16T16000   5.601   6.680   5.195  0.4570 -1.0248  0.3144
  145OSM   C17S16001   5.459   6.527   5.130 -0.3542  0.1844  0.3711
  145OSM   H17S16002   5.382   6.605   5.144 -2.0082 -1.1641 -0.7607
  145OSM   H17T16003   5.425   6.431   5.176 -0.4529 -1.1711 -2.3116
  145OSM   C18S16004   5.480   6.508   4.989  0.0757 -0.7136  0.0746
  145OSM   H18S16005   5.384   6.477   4.943 -1.4728  1.3250  1.7646
  145OSM   H18T16006   5.557   6.430   4.971  1.7164  0.6661  0.8545
  145OSM   H18U16007   5.510   6.606   4.945 -1.3119  0.1404  0.9410
  145OSM    C1F16008   6.231   6.457   6.585  0.3604  0.0813  0.2135
  145OSM     OF16009   6.162   6.358   6.571 -0.0002 -0.3060  0.1082
  145OSM    C2F16010   6.378   6.448   6.534  0.2053  0.1652  0.1683
  145OSM    H2F16011   6.432   6.372   6.594  1.4483  1.2030  0.4085
  145OSM    H2G16012   6.429   6.540   6.573  2.0718  0.2683 -2.2904
  145OSM    C3F16013   6.418   6.454   6.386 -0.2319  0.8124  0.3963
  145OSM    H3F16014   6.395   6.353   6.344  2.0802 -0.7446  2.5554
  145OSM    H3G16015   6.527   6.475   6.374 -0.4779  1.6090 -0.5877
  145OSM    C4F16016   6.333   6.550   6.302  0.5404 -0.2225 -0.0114
  145OSM    H4F16017   6.358   6.650   6.345 -0.6133  0.6656 -1.3165
  145OSM    H4G16018   6.224   6.551   6.323  0.1544 -0.4034 -1.8183
  145OSM    C5F16019   6.379   6.561   6.156  0.4386  0.7011  0.3921
  145OSM    H5F16020   6.359   6.463   6.109 -0.6334 -0.3915  2.9526
  145OSM    H5G16021   6.489   6.573   6.148  0.4988 -0.6890 -1.6511
  145OSM    C6F16022   6.305   6.671   6.087 -0.6553 -0.1182 -0.3124
  145OSM    H6F16023   6.313   6.767   6.142  3.8620 -1.3701  1.6696
  145OSM    H6G16024   6.201   6.631   6.094 -1.1595  1.3413  1.2364
  145OSM    C7F16025   6.336   6.682   5.933 -0.2239 -0.4072  0.8393
  145OSM    H7F16026   6.314   6.590   5.874 -0.5067  0.8360 -1.1014
  145OSM    H7G16027   6.443   6.704   5.917 -0.1760 -1.0072  0.2938
  145OSM    C8F16028   6.265   6.794   5.861 -0.0987 -0.5087 -0.1066
  145OSM    H8F16029   6.287   6.800   5.752  2.6734  1.3463  0.4371
  145OSM    H8G16030   6.308   6.884   5.910 -0.5212  0.2997 -1.1758
  145OSM    C9F16031   6.124   6.789   5.872  0.5866  0.2313  1.3293
  145OSM    H9F16032   6.094   6.851   5.957 -0.9120 -0.8306  1.6232
  145OSM   C10F16033   6.035   6.724   5.794  0.0323  0.0644 -0.6765
  145OSM   H10F16034   5.929   6.740   5.819  0.3529 -0.9794  1.5922
  145OSM   C11F16035   6.072   6.641   5.675 -0.3769  1.2750 -0.0543
  145OSM   H11F16036   6.006   6.552   5.674 -1.2553  1.8990 -2.0185
  145OSM   H11G16037   6.174   6.598   5.686 -0.5479  1.0213  0.5862
  145OSM   C12F16038   6.072   6.712   5.533  0.4164  0.1848  0.0895
  145OSM   H12F16039   6.139   6.800   5.526 -0.2604  0.7336  0.3590
  145OSM   H12G16040   5.972   6.761   5.527 -0.6195 -1.5914  1.7070
  145OSM   C13F16041   6.092   6.616   5.414  0.2053 -0.4069  0.1620
  145OSM   H13F16042   6.039   6.524   5.446  0.2585 -0.7216 -0.6466
  145OSM   H13G16043   6.199   6.594   5.396  0.2955  1.0489 -1.3093
  145OSM   C14F16044   6.017   6.665   5.291 -0.8349 -0.6329  0.0498
  145OSM   H14F16045   6.059   6.755   5.241 -2.2192 -0.0121 -0.0347
  145OSM   H14G16046   5.922   6.710   5.327 -0.5666  0.4691 -0.5677
  145OSM   C15F16047   5.999   6.554   5.181  0.6674 -0.4808  0.2331
  145OSM   H15F16048   5.950   6.467   5.230  1.7152 -1.9537 -1.2454
  145OSM   H15G16049   6.100   6.524   5.146  0.8415  0.3258  0.0192
  145OSM   C16F16050   5.930   6.594   5.049  0.0147  0.4665 -0.3640
  145OSM   H16F16051   5.997   6.670   5.003  2.2425  0.6101  2.7474
  145OSM   H16G16052   5.837   6.651   5.067 -0.0618 -0.3336  2.2450
  145OSM   C17F16053   5.914   6.477   4.948  0.3418  0.0167  0.1890
  145OSM   H17F16054   5.871   6.393   5.007 -1.0710  0.6144  0.0518
  145OSM   H17G16055   6.013   6.440   4.914  1.0984  1.8905  0.2465
  145OSM   C18F16056   5.836   6.511   4.822 -0.0356 -0.1119 -1.1175
  145OSM   H18F16057   5.884   6.599   4.775 -1.1200  1.3542  0.4095
  145OSM   H18G16058   5.730   6.534   4.847  0.3334 -0.5180  1.0493
  145OSM   H18H16059   5.824   6.417   4.764 -1.8935 -0.6732  0.0759
  146OSM      N16060   4.995   0.357   6.992  0.8299 -0.2830 -0.4149
  146OSM    C1516061   4.911   0.478   6.969  0.0108  0.1683 -0.4330
  146OSM   H15A16062   4.899   0.501   6.864  0.1365 -1.4620 -0.8327
  146OSM   H15B16063   4.950   0.566   7.019 -2.2302  0.7935  0.3400
  146OSM   H15C16064   4.816   0.487   7.021  0.7721  2.0743  0.7242
  146OSM    C1416065   5.138   0.369   6.938 -0.0017  0.3779  0.0475
  146OSM   H14A16066   5.191   0.447   6.990  1.2129 -1.3434  1.5168
  146OSM   H14B16067   5.135   0.384   6.832  1.0611 -1.8351 -0.3415
  146OSM   H14C16068   5.187   0.274   6.957 -0.4393  0.3802  1.3507
  146OSM    C1316069   5.002   0.330   7.142 -0.2216  0.5734  0.5970
  146OSM   H13A16070   5.054   0.236   7.148 -2.5337 -0.9373 -1.2820
  146OSM   H13B16071   4.905   0.321   7.188 -0.2917 -0.9036  0.2109
  146OSM   H13C16072   5.053   0.406   7.201  0.2184  1.1495 -0.4890
  146OSM    C1216073   4.939   0.241   6.931 -0.1656  0.9567  0.7116
  146OSM   H12A16074   4.945   0.249   6.823 -1.1852 -2.3035  0.2921
  146OSM   H12B16075   4.835   0.232   6.959  0.3712 -3.0562  2.1316
  146OSM    C1116076   5.001   0.106   6.971  0.0943 -0.1479  0.0289
  146OSM   H11A16077   4.926   0.037   6.927  1.0658 -1.7936  0.8558
  146OSM   H11B16078   5.003   0.096   7.082 -1.4454 -0.8370  0.0198
  146OSM      P16079   5.182  -0.052   6.868 -0.1335 -0.1065 -0.4009
  146OSM    O1316080   5.300  -0.109   6.941 -0.1564  0.1134 -0.4077
  146OSM    O1416081   5.074  -0.151   6.841  0.0557  0.2319  0.7741
  146OSM    O1116082   5.234  -0.020   6.730  0.4067  0.2327 -0.5736
  146OSM    O1216083   5.127   0.080   6.922 -0.1088  0.1528  0.4695
  146OSM    C1S16084   5.162   0.057   6.627  0.6298 -0.4751 -0.0271
  146OSM    H1S16085   5.148   0.163   6.659  0.3175  0.2740 -2.4365
  146OSM    H1T16086   5.065   0.005   6.611 -0.5899  0.2124  4.0119
  146OSM     NF16087   5.159   0.152   6.397 -0.0256 -1.0267  0.4737
  146OSM    HNF16088   5.085   0.127   6.334  0.1869 -1.4064  0.3724
  146OSM    C2S16089   5.231   0.069   6.487 -0.9201  0.2904 -0.0124
  146OSM    H2S16090   5.330   0.117   6.495 -1.2216  1.4568 -2.3938
  146OSM    C3S16091   5.266  -0.074   6.430  0.0733  0.1074  0.8449
  146OSM    H3S16092   5.165  -0.121   6.433 -0.4370  1.0989 -0.0829
  146OSM     O316093   5.353  -0.162   6.512  0.1420 -0.3167  0.1309
  146OSM    HO316094   5.337  -0.139   6.604  1.6588 -3.4901  1.3222
  146OSM    C4S16095   5.316  -0.065   6.285 -0.3089 -0.2155 -0.2017
  146OSM    H4S16096   5.401   0.004   6.271 -1.3105  0.9157 -0.9941
  146OSM    C5S16097   5.252  -0.116   6.180  0.1842 -0.7290  0.6749
  146OSM    H5S16098   5.155  -0.168   6.186 -0.0686 -0.7869 -2.2715
  146OSM    C6S16099   5.306  -0.104   6.034  0.8937 -0.2488 -0.6920
  146OSM    H6S16100   5.342  -0.205   6.003  1.0262 -0.1289 -0.9289
  146OSM    H6T16101   5.400  -0.046   6.026  2.0281 -1.7005  1.1148
  146OSM    C7S16102   5.198  -0.047   5.941 -0.2226  0.2141 -0.6049
  146OSM    H7S16103   5.155   0.050   5.973  0.9514  0.3462  0.6293
  146OSM    H7T16104   5.121  -0.127   5.937 -0.3780  0.3020  0.3907
  146OSM    C8S16105   5.257  -0.008   5.804  0.0741  0.2522  0.2531
  146OSM    H8S16106   5.350  -0.065   5.782  0.5986  1.4506 -0.7580
  146OSM    H8T16107   5.288   0.099   5.806 -1.8882  0.8682  0.0787
  146OSM    C9S16108   5.161  -0.012   5.688 -0.4607 -0.2007  0.4189
  146OSM    H9S16109   5.075   0.056   5.707  0.3258  1.1625 -0.6663
  146OSM    H9T16110   5.115  -0.109   5.660  0.7382  0.0486 -2.9050
  146OSM   C10S16111   5.226   0.034   5.555 -0.5216  0.4991  0.2948
  146OSM   H10S16112   5.314  -0.032   5.533 -0.5702 -0.2072  2.0633
  146OSM   H10T16113   5.258   0.140   5.561 -0.5417  0.4365  1.7884
  146OSM   C11S16114   5.129   0.036   5.442 -0.3151 -0.2296  0.3133
  146OSM   H11S16115   5.030   0.077   5.469 -0.7200 -0.4737 -0.7269
  146OSM   H11T16116   5.126  -0.060   5.386 -2.2649  0.5772 -1.1021
  146OSM   C12S16117   5.179   0.120   5.324  0.5333  0.2963  0.2280
  146OSM   H12S16118   5.255   0.067   5.262 -0.1512  0.0891 -0.4571
  146OSM   H12T16119   5.227   0.212   5.364  0.5198  0.3874  0.0338
  146OSM   C13S16120   5.070   0.166   5.224 -0.1560 -0.1584 -0.0661
  146OSM   H13S16121   4.994   0.221   5.283 -1.5785 -1.0820 -0.9975
  146OSM   H13T16122   5.014   0.076   5.192  1.5449 -2.1828  2.2581
  146OSM   C14S16123   5.113   0.245   5.101  0.4556  0.3341 -0.2702
  146OSM   H14S16124   5.180   0.190   5.032  1.0601 -1.4587  1.6448
  146OSM   H14T16125   5.182   0.326   5.133  1.6458 -0.4122 -0.8649
  146OSM   C15S16126   4.988   0.313   5.035 -0.7775  0.3873  0.0851
  146OSM   H15S16127   4.937   0.385   5.103  1.6610  1.1151  1.2524
  146OSM   H15T16128   4.910   0.238   5.010 -1.1142  0.9193 -0.5069
  146OSM   C16S16129   5.014   0.406   4.910 -0.7305  0.1944 -0.4584
  146OSM   H16S16130   4.912   0.409   4.867 -0.5322 -1.2215 -1.0958
  146OSM   H16T16131   5.082   0.351   4.841 -0.1217 -0.3518  0.5711
  146OSM   C17S16132   5.065   0.546   4.952  0.3967  0.1749 -0.1694
  146OSM   H17S16133   5.146   0.534   5.027 -1.4064  0.2426  1.8819
  146OSM   H17T16134   4.989   0.616   4.993  1.0265  0.5959  0.3036
  146OSM   C18S16135   5.125   0.632   4.831  0.3614  0.4719 -0.4657
  146OSM   H18S16136   5.157   0.731   4.870 -2.5841  1.1923  0.4043
  146OSM   H18T16137   5.044   0.651   4.757  1.9975 -2.2098 -3.1676
  146OSM   H18U16138   5.211   0.574   4.791  0.6016  1.4969 -1.4728
  146OSM    C1F16139   5.162   0.288   6.414  0.4458  0.5430  0.3746
  146OSM     OF16140   5.232   0.334   6.497 -0.0384  0.5050 -0.5999
  146OSM    C2F16141   5.085   0.373   6.313 -0.2270  0.3376 -0.2024
  146OSM    H2F16142   5.106   0.479   6.341 -1.9294  1.1749 -1.8850
  146OSM    H2G16143   4.977   0.366   6.339 -0.1379 -1.1778 -0.1739
  146OSM    C3F16144   5.133   0.336   6.172  0.2849 -0.0485  0.0571
  146OSM    H3F16145   5.114   0.227   6.159  0.0547 -0.1391  1.0509
  146OSM    H3G16146   5.241   0.352   6.150  0.7271 -0.4020  1.7953
  146OSM    C4F16147   5.054   0.410   6.063 -0.2157  0.6394 -0.2825
  146OSM    H4F16148   5.082   0.517   6.070 -0.0836  0.6939 -1.4367
  146OSM    H4G16149   4.947   0.398   6.089 -0.0426  2.0858  1.2925
  146OSM    C5F16150   5.084   0.358   5.922 -0.0320  0.2948  0.1424
  146OSM    H5F16151   5.045   0.254   5.910  0.4716  0.1547 -0.3314
  146OSM    H5G16152   5.195   0.354   5.918 -0.0143 -0.7932  1.2428
  146OSM    C6F16153   5.038   0.453   5.811  0.2459  0.2185  1.2273
  146OSM    H6F16154   5.092   0.548   5.834 -1.0898  1.5439 -0.8077
  146OSM    H6G16155   4.928   0.464   5.817  0.0188  1.3711 -2.5184
  146OSM    C7F16156   5.080   0.413   5.670 -0.1252  0.9681 -0.1932
  146OSM    H7F16157   5.048   0.306   5.670 -1.4857  1.3643  0.0177
  146OSM    H7G16158   5.190   0.416   5.654 -0.0115  0.7787  0.5080
  146OSM    C8F16159   5.016   0.511   5.570  0.2167  0.0598  0.1034
  146OSM    H8F16160   5.034   0.616   5.600 -1.6692  0.7759 -1.0615
  146OSM    H8G16161   4.906   0.497   5.561  0.2419  0.5229 -1.2304
  146OSM    C9F16162   5.064   0.489   5.427 -0.2752  0.2722  0.5903
  146OSM    H9F16163   4.999   0.416   5.376  0.2076 -0.0294  0.3951
  146OSM   C10F16164   5.156   0.552   5.345  0.3659  0.4447  0.3708
  146OSM   H10F16165   5.172   0.515   5.242  1.2374  1.6556  0.0519
  146OSM   C11F16166   5.252   0.659   5.388 -0.4961 -0.0281  0.3169
  146OSM   H11F16167   5.344   0.604   5.417 -0.3459 -0.3067 -0.6496
  146OSM   H11G16168   5.221   0.724   5.473  2.0779  0.2066  1.1712
  146OSM   C12F16169   5.277   0.736   5.264  0.1273  0.3768  0.6947
  146OSM   H12F16170   5.188   0.792   5.228  0.6169  0.3851 -0.5539
  146OSM   H12G16171   5.304   0.678   5.173  0.7532 -0.8903  1.6590
  146OSM   C13F16172   5.384   0.848   5.282 -0.1689  0.0037  0.2329
  146OSM   H13F16173   5.468   0.805   5.340  0.5432  2.7707  1.3818
  146OSM   H13G16174   5.339   0.922   5.351 -0.7320  0.2974 -0.4411
  146OSM   C14F16175   5.436   0.911   5.150 -0.4635 -0.0594  0.5856
  146OSM   H14F16176   5.524   0.970   5.182  0.6220 -1.0947 -0.4279
  146OSM   H14G16177   5.453   0.833   5.072  0.4967 -0.4025  1.1197
  146OSM   C15F16178   5.328   1.005   5.092  0.0674  0.7859  0.3536
  146OSM   H15F16179   5.285   1.055   5.181 -1.4616 -2.3671  1.5385
  146OSM   H15G16180   5.245   0.948   5.046 -1.0387 -0.3962  3.5583
  146OSM   C16F16181   5.389   1.115   5.000  0.6080 -0.4943 -0.1580
  146OSM   H16F16182   5.427   1.078   4.902  0.6883 -1.1702  0.1272
  146OSM   H16G16183   5.462   1.171   5.061 -0.3286  3.7256 -2.5243
  146OSM   C17F16184   5.302   1.245   4.968  0.2109 -0.2269 -0.0048
  146OSM   H17F16185   5.239   1.268   5.057  1.3314  0.8639  0.5539
  146OSM   H17G16186   5.223   1.226   4.893 -0.4317  1.8441  0.0963
  146OSM   C18F16187   5.372   1.363   4.917 -0.3470  0.0689 -0.7329
  146OSM   H18F16188   5.421   1.341   4.821 -2.3852 -1.2174 -1.5560
  146OSM   H18G16189   5.447   1.401   4.989 -0.2565 -0.1108 -0.7334
  146OSM   H18H16190   5.306   1.453   4.913  0.1882  0.4421 -1.2256
  147OSM      N16191   3.273   1.777   2.454 -0.3970 -0.1198  0.3452
  147OSM    C1516192   3.242   1.631   2.490  0.7107 -1.0845 -0.2612
  147OSM   H15A16193   3.296   1.597   2.577  0.9143 -1.6806 -0.6173
  147OSM   H15B16194   3.273   1.566   2.410  3.3409 -0.9556  0.5471
  147OSM   H15C16195   3.137   1.608   2.500  0.4561  0.6863  2.2520
  147OSM    C1416196   3.419   1.775   2.421  0.5508  0.3166 -0.0967
  147OSM   H14A16197   3.475   1.765   2.513  1.3244 -0.3175 -0.6360
  147OSM   H14B16198   3.456   1.867   2.379  1.9219 -0.6211 -1.0151
  147OSM   H14C16199   3.445   1.700   2.348  2.1114  1.8954 -1.2539
  147OSM    C1316200   3.186   1.819   2.340 -0.3830 -0.1126 -0.6993
  147OSM   H13A16201   3.211   1.923   2.328  0.4911 -0.2138  0.0639
  147OSM   H13B16202   3.081   1.808   2.359 -0.0445 -0.0159  1.5745
  147OSM   H13C16203   3.216   1.758   2.255  0.9715  0.2570 -0.5196
  147OSM    C1216204   3.236   1.849   2.576 -0.5169 -0.0065  0.3452
  147OSM   H12A16205   3.288   1.810   2.663  2.7919  1.2890 -0.8889
  147OSM   H12B16206   3.133   1.827   2.599 -0.6418 -0.9703 -1.0039
  147OSM    C1116207   3.256   2.001   2.565 -0.8750  0.3523  0.1154
  147OSM   H11A16208   3.205   2.058   2.646  0.9909  2.3304 -0.0035
  147OSM   H11B16209   3.199   2.032   2.476 -1.5773  0.0880  0.4646
  147OSM      P16210   3.433   2.185   2.515 -0.1235 -0.0197 -0.0101
  147OSM    O1316211   3.581   2.214   2.517 -0.0868 -0.6787 -0.5277
  147OSM    O1416212   3.375   2.208   2.386  0.7826  0.0253 -0.1982
  147OSM    O1116213   3.367   2.273   2.630 -0.7484  0.0566 -0.0123
  147OSM    O1216214   3.397   2.040   2.567 -0.2219 -0.4993  0.2380
  147OSM    C1S16215   3.404   2.257   2.768  0.1866  0.0079  1.1095
  147OSM    H1S16216   3.515   2.250   2.778  0.3410 -1.2703 -0.9804
  147OSM    H1T16217   3.365   2.158   2.801  0.1581 -0.0663  0.8505
  147OSM     NF16218   3.418   2.378   2.978  0.0361  0.4944  0.2859
  147OSM    HNF16219   3.364   2.367   3.060  0.2279  0.3356  0.3943
  147OSM    C2S16220   3.346   2.366   2.853 -0.7217  0.6427  0.3668
  147OSM    H2S16221   3.364   2.465   2.806  1.9471  0.6542  1.2599
  147OSM    C3S16222   3.192   2.346   2.865  0.1026 -0.2342  0.9070
  147OSM    H3S16223   3.177   2.252   2.923 -1.0348 -1.3475 -1.0753
  147OSM     O316224   3.122   2.330   2.745  0.2054  0.2571  0.2379
  147OSM    HO316225   3.196   2.309   2.687  1.0690  0.2561  1.3109
  147OSM    C4S16226   3.139   2.462   2.946  0.0674  0.0041  0.4365
  147OSM    H4S16227   3.152   2.559   2.897 -0.7785 -0.0579  0.0564
  147OSM    C5S16228   3.074   2.462   3.059  0.6045  0.0742 -0.2717
  147OSM    H5S16229   3.050   2.366   3.106  1.3589  0.4194  0.8643
  147OSM    C6S16230   3.037   2.585   3.128 -0.5362  0.5551 -0.4936
  147OSM    H6S16231   2.963   2.636   3.063 -0.2886  1.4221 -0.1222
  147OSM    H6T16232   3.124   2.654   3.116  0.4269 -0.8599 -2.1634
  147OSM    C7S16233   2.989   2.580   3.277 -0.1050  0.4194 -0.0753
  147OSM    H7S16234   2.886   2.538   3.280 -0.8134  2.1252  0.9083
  147OSM    H7T16235   2.981   2.684   3.316 -0.8537  1.2134 -2.2045
  147OSM    C8S16236   3.082   2.520   3.382  0.2817  0.4571 -0.5463
  147OSM    H8S16237   3.190   2.547   3.376  0.2322  1.8601  2.7579
  147OSM    H8T16238   3.080   2.410   3.364  1.3844 -0.1110  2.2902
  147OSM    C9S16239   3.035   2.544   3.525 -0.2413 -0.1910 -1.1934
  147OSM    H9S16240   3.025   2.654   3.539  1.7006 -0.2053  0.9637
  147OSM    H9T16241   3.110   2.503   3.596 -2.6909 -1.8423  0.6016
  147OSM   C10S16242   2.896   2.476   3.556 -0.3928  0.5515 -0.1134
  147OSM   H10S16243   2.915   2.367   3.557 -0.1407  0.5884  1.3902
  147OSM   H10T16244   2.819   2.511   3.483  2.0759  0.2943 -3.0350
  147OSM   C11S16245   2.840   2.512   3.699 -0.1135 -0.3090 -0.3428
  147OSM   H11S16246   2.737   2.471   3.710 -0.4087  0.0287 -1.7509
  147OSM   H11T16247   2.829   2.622   3.696  2.4359 -0.0111 -0.8728
  147OSM   C12S16248   2.928   2.476   3.828  1.3120  0.2691  0.2278
  147OSM   H12S16249   3.021   2.535   3.823  2.3454 -1.3181  0.1417
  147OSM   H12T16250   2.953   2.369   3.820 -1.3665 -0.4363  0.1579
  147OSM   C13S16251   2.848   2.486   3.958 -0.2602 -0.3802 -0.1912
  147OSM   H13S16252   2.743   2.457   3.939 -0.9358  1.5465  0.4287
  147OSM   H13T16253   2.849   2.595   3.979  0.6094 -0.4743  0.2999
  147OSM   C14S16254   2.912   2.395   4.067 -0.5444 -0.3595  0.1057
  147OSM   H14S16255   3.018   2.429   4.067 -0.8438  0.6197 -0.3444
  147OSM   H14T16256   2.905   2.288   4.038 -2.8122 -0.2613  0.1701
  147OSM   C15S16257   2.853   2.430   4.210  0.5235  0.6651  0.8935
  147OSM   H15S16258   2.744   2.410   4.208  0.6627 -0.1140 -1.4827
  147OSM   H15T16259   2.877   2.538   4.226  0.9299  0.5573  1.0206
  147OSM   C16S16260   2.933   2.363   4.320  0.9878  0.0161 -0.3697
  147OSM   H16S16261   3.037   2.401   4.315  0.8891  0.2161 -1.0355
  147OSM   H16T16262   2.943   2.253   4.310  0.7974 -0.2461  1.8128
  147OSM   C17S16263   2.869   2.405   4.461  0.3015  0.6787  0.6546
  147OSM   H17S16264   2.762   2.379   4.456  0.6182 -0.4204 -1.9153
  147OSM   H17T16265   2.879   2.514   4.484 -3.0770  1.1425  0.4071
  147OSM   C18S16266   2.935   2.346   4.582 -0.3611 -0.4367  0.9467
  147OSM   H18S16267   2.876   2.363   4.674 -2.0282 -0.7911 -0.0188
  147OSM   H18T16268   3.041   2.376   4.593  0.2107 -1.9913  0.0623
  147OSM   H18U16269   2.939   2.236   4.566 -1.5076 -0.2713 -0.7496
  147OSM    C1F16270   3.547   2.417   2.992  0.2557 -0.5884 -0.4535
  147OSM     OF16271   3.614   2.461   2.899 -0.2447  0.0636  0.0443
  147OSM    C2F16272   3.602   2.409   3.129 -0.4646  0.0556  0.8006
  147OSM    H2F16273   3.559   2.318   3.176  2.3328 -0.9978  1.5022
  147OSM    H2G16274   3.565   2.496   3.188 -0.5433 -0.1622  1.0777
  147OSM    C3F16275   3.760   2.394   3.151  0.4238 -0.2132  0.4437
  147OSM    H3F16276   3.815   2.478   3.103  0.0496 -0.0965  0.2161
  147OSM    H3G16277   3.789   2.303   3.094  1.4885 -0.8517  1.9363
  147OSM    C4F16278   3.798   2.381   3.300 -0.2350 -0.2094 -0.4861
  147OSM    H4F16279   3.907   2.361   3.308 -0.5443 -1.3915  1.3679
  147OSM    H4G16280   3.736   2.300   3.344 -0.7861  1.4389  1.9437
  147OSM    C5F16281   3.783   2.505   3.383  0.5067  1.0895 -0.1731
  147OSM    H5F16282   3.676   2.534   3.372  0.2072 -0.3215 -1.3562
  147OSM    H5G16283   3.842   2.589   3.340  0.0693 -0.0899 -3.4181
  147OSM    C6F16284   3.806   2.485   3.536 -0.1297 -0.0822  0.2614
  147OSM    H6F16285   3.913   2.453   3.538 -0.4175 -1.1849 -0.6881
  147OSM    H6G16286   3.752   2.392   3.565  2.3808 -0.8888  2.9080
  147OSM    C7F16287   3.772   2.604   3.622 -0.0438  0.0444  0.1508
  147OSM    H7F16288   3.663   2.611   3.643 -0.0839 -0.1707  0.0230
  147OSM    H7G16289   3.803   2.693   3.563  0.4276 -0.2828 -0.0976
  147OSM    C8F16290   3.854   2.617   3.749  1.0057  1.5847  0.2068
  147OSM    H8F16291   3.842   2.722   3.783  1.0675  1.8253 -0.4945
  147OSM    H8G16292   3.960   2.593   3.725  0.3431  1.4057 -3.0668
  147OSM    C9F16293   3.777   2.511   3.844 -0.3052  0.4190  0.4174
  147OSM    H9F16294   3.756   2.408   3.810 -0.1101 -0.4520  2.7870
  147OSM   C10F16295   3.719   2.539   3.966 -1.2094  0.6519  0.2669
  147OSM   H10F16296   3.675   2.454   4.020  2.9470 -0.1993  2.8086
  147OSM   C11F16297   3.711   2.667   4.041 -0.1286  0.5580  0.0234
  147OSM   H11F16298   3.606   2.703   4.037 -0.8152 -1.1896  0.9544
  147OSM   H11G16299   3.781   2.744   4.004  0.4012 -0.5243 -1.3122
  147OSM   C12F16300   3.744   2.654   4.193 -0.3274  1.0059  0.0325
  147OSM   H12F16301   3.749   2.756   4.238 -1.3272  0.4677  1.4255
  147OSM   H12G16302   3.844   2.610   4.213 -0.6964  0.5470  0.9064
  147OSM   C13F16303   3.643   2.573   4.278 -0.2637  0.1596  0.0023
  147OSM   H13F16304   3.658   2.463   4.272 -0.9246 -0.3221  4.1250
  147OSM   H13G16305   3.540   2.593   4.242 -1.6649  2.2407  4.4154
  147OSM   C14F16306   3.632   2.613   4.427 -0.8880  0.9719 -0.2162
  147OSM   H14F16307   3.598   2.718   4.436 -0.0501  1.2267  0.0418
  147OSM   H14G16308   3.733   2.614   4.473 -0.2396 -0.5615 -1.4882
  147OSM   C15F16309   3.538   2.523   4.510 -0.5487 -0.5433 -0.2677
  147OSM   H15F16310   3.580   2.421   4.518  0.3512 -0.0101  4.2713
  147OSM   H15G16311   3.441   2.523   4.456 -0.1608 -1.6251 -0.9888
  147OSM   C16F16312   3.531   2.570   4.651  0.2787  0.0166 -0.4300
  147OSM   H16F16313   3.496   2.676   4.645  2.6713  1.0169  1.3903
  147OSM   H16G16314   3.625   2.566   4.710  0.0885 -0.5954 -0.1589
  147OSM   C17F16315   3.433   2.482   4.731 -0.6190  0.9218 -0.4608
  147OSM   H17F16316   3.476   2.379   4.738 -1.0093  0.7599 -0.4399
  147OSM   H17G16317   3.327   2.480   4.698 -0.9209 -1.0042  0.4773
  147OSM   C18F16318   3.423   2.537   4.874 -0.1250  0.1817 -0.7211
  147OSM   H18F16319   3.367   2.632   4.870 -0.3508  0.2340  1.8746
  147OSM   H18G16320   3.522   2.560   4.919  0.0226 -0.1158 -0.8873
  147OSM   H18H16321   3.358   2.471   4.935  2.2769 -0.9372  0.8094
  148OSM      N16322   3.391   2.577   2.220  0.2872  0.6409 -0.2767
  148OSM    C1516323   3.483   2.499   2.308 -0.0011  0.9145  0.5061
  148OSM   H15A16324   3.579   2.488   2.259  0.5678  1.6115  1.4372
  148OSM   H15B16325   3.457   2.395   2.324  1.9156  0.5044  1.2009
  148OSM   H15C16326   3.477   2.549   2.404 -6.2532  0.9120  0.5231
  148OSM    C1416327   3.439   2.716   2.191  0.1932  0.0144  0.0783
  148OSM   H14A16328   3.391   2.763   2.106  1.3313  0.8169 -0.1442
  148OSM   H14B16329   3.545   2.731   2.184 -0.0083  1.0782 -1.3502
  148OSM   H14C16330   3.422   2.772   2.281  1.3771 -0.4617  0.6160
  148OSM    C1316331   3.381   2.509   2.083  0.0909 -0.4646 -0.8463
  148OSM   H13A16332   3.366   2.576   2.000  1.5067 -1.9129 -2.3543
  148OSM   H13B16333   3.315   2.423   2.082  0.5069 -0.7890 -0.4483
  148OSM   H13C16334   3.480   2.477   2.054  1.2580  1.0843  1.2261
  148OSM    C1216335   3.253   2.581   2.279  0.2796  0.4313 -0.7667
  148OSM   H12A16336   3.200   2.489   2.257 -0.9621  0.8945  0.1360
  148OSM   H12B16337   3.194   2.666   2.245  0.6926  0.6883 -0.8426
  148OSM    C1116338   3.241   2.589   2.444  0.0939  0.5547  0.5831
  148OSM   H11A16339   3.284   2.497   2.490  0.6100 -0.6327 -2.0549
  148OSM   H11B16340   3.134   2.603   2.468 -0.2637  1.0763 -1.2094
  148OSM      P16341   3.257   2.840   2.522 -0.3575 -0.2687 -0.2313
  148OSM    O1316342   3.309   2.949   2.431  0.3549  1.1975 -0.1913
  148OSM    O1416343   3.106   2.829   2.523  0.2723 -0.2847  0.1392
  148OSM    O1116344   3.307   2.861   2.672  0.0948 -0.1122 -0.3860
  148OSM    O1216345   3.321   2.700   2.488 -0.5328  0.5079 -0.0756
  148OSM    C1S16346   3.441   2.812   2.699 -0.8070  0.4736 -0.1682
  148OSM    H1S16347   3.518   2.837   2.623  1.2549  0.5793  1.8429
  148OSM    H1T16348   3.439   2.701   2.694 -0.9018  0.3822  1.4165
  148OSM     NF16349   3.603   2.749   2.872 -0.9652 -0.0982  0.3873
  148OSM    HNF16350   3.605   2.650   2.887  2.5141 -0.0714  0.8591
  148OSM    C2S16351   3.482   2.824   2.848 -0.7878 -0.2102 -0.1363
  148OSM    H2S16352   3.498   2.930   2.877  0.4503 -0.5444  0.4506
  148OSM    C3S16353   3.366   2.769   2.942  0.0529 -0.0074  0.1699
  148OSM    H3S16354   3.335   2.663   2.929  2.9252 -0.8395 -0.6171
  148OSM     O316355   3.243   2.839   2.924  0.0486 -0.6037  0.2501
  148OSM    HO316356   3.253   2.872   2.835 -0.4048 -0.3516  0.2908
  148OSM    C4S16357   3.417   2.790   3.079 -0.0179  0.2513 -0.4458
  148OSM    H4S16358   3.488   2.714   3.115 -0.4933 -0.0074 -0.0408
  148OSM    C5S16359   3.369   2.879   3.172  0.3008  0.3279  0.0118
  148OSM    H5S16360   3.291   2.951   3.142  0.6550 -0.4469 -3.0400
  148OSM    C6S16361   3.420   2.901   3.314 -0.1413  0.1501 -0.7131
  148OSM    H6S16362   3.464   3.002   3.329  2.5529 -1.1710  0.9350
  148OSM    H6T16363   3.505   2.834   3.339  0.7676  1.2010 -0.9090
  148OSM    C7S16364   3.310   2.855   3.416 -0.8770 -0.3941 -0.0159
  148OSM    H7S16365   3.266   2.754   3.398 -0.5473 -0.7597  1.1455
  148OSM    H7T16366   3.226   2.928   3.411 -1.5247 -1.1711 -1.0454
  148OSM    C8S16367   3.367   2.834   3.554 -0.2331  0.2328  0.3620
  148OSM    H8S16368   3.437   2.910   3.596  2.5413 -1.0584 -1.6204
  148OSM    H8T16369   3.439   2.749   3.557 -1.8670 -1.3697 -2.2215
  148OSM    C9S16370   3.267   2.806   3.668 -0.1953  0.1742 -0.3108
  148OSM    H9S16371   3.208   2.715   3.646 -1.4701  1.2885 -1.7326
  148OSM    H9T16372   3.199   2.894   3.672  0.9262  1.0791 -0.6129
  148OSM   C10S16373   3.325   2.796   3.809 -0.7922 -0.1637  0.0530
  148OSM   H10S16374   3.420   2.854   3.817  0.1040 -1.2806 -1.9989
  148OSM   H10T16375   3.358   2.691   3.822 -0.5010 -0.0278  0.4633
  148OSM   C11S16376   3.221   2.820   3.924  0.3514 -0.1833  0.1744
  148OSM   H11S16377   3.129   2.758   3.912  0.2882 -0.6718  2.5757
  148OSM   H11T16378   3.189   2.926   3.926 -0.1725 -0.3390  0.7512
  148OSM   C12S16379   3.274   2.785   4.065  0.3474 -0.1627 -0.3133
  148OSM   H12S16380   3.347   2.862   4.095 -1.4017  1.3575  0.2566
  148OSM   H12T16381   3.320   2.684   4.061  0.6622  0.0179 -2.0264
  148OSM   C13S16382   3.170   2.783   4.177  0.5914 -0.1912  0.3307
  148OSM   H13S16383   3.083   2.721   4.150  0.3727  0.6470 -0.9884
  148OSM   H13T16384   3.129   2.887   4.177 -0.8848 -0.7256 -1.6978
  148OSM   C14S16385   3.233   2.778   4.318 -0.2115  0.0901  0.1163
  148OSM   H14S16386   3.298   2.869   4.320 -0.0191 -0.0423 -0.0555
  148OSM   H14T16387   3.286   2.681   4.321 -1.3530 -0.6147 -1.2279
  148OSM   C15S16388   3.132   2.776   4.432  0.6529  1.2413  0.2756
  148OSM   H15S16389   3.067   2.685   4.432 -0.4290  1.9932  0.9730
  148OSM   H15T16390   3.055   2.854   4.411  0.9243  1.0878 -1.4483
  148OSM   C16S16391   3.199   2.818   4.564  0.0116  0.7273  0.8787
  148OSM   H16S16392   3.245   2.918   4.557  0.8076  0.4218  1.5903
  148OSM   H16T16393   3.284   2.749   4.582  1.0074  1.5504 -0.4851
  148OSM   C17S16394   3.108   2.820   4.685 -0.4352 -0.8027  0.8543
  148OSM   H17S16395   3.029   2.897   4.680  1.5846  1.3836  0.7767
  148OSM   H17T16396   3.164   2.862   4.771 -1.7098 -1.1806  1.9018
  148OSM   C18S16397   3.057   2.683   4.730  0.0067  0.4087  0.5670
  148OSM   H18S16398   3.133   2.606   4.752  0.5489  0.9471  0.5920
  148OSM   H18T16399   3.004   2.634   4.645  1.7580 -2.8508  1.2026
  148OSM   H18U16400   2.994   2.691   4.822 -1.4965  1.8778 -0.5233
  148OSM    C1F16401   3.725   2.796   2.842  0.0191  0.9332 -0.4098
  148OSM     OF16402   3.747   2.908   2.795 -0.0415 -0.4464  0.4573
  148OSM    C2F16403   3.834   2.697   2.853  0.1154 -0.7531  0.4220
  148OSM    H2F16404   3.854   2.653   2.752 -1.0989  0.1720 -0.2571
  148OSM    H2G16405   3.797   2.621   2.925 -0.2285 -0.8720  0.1242
  148OSM    C3F16406   3.956   2.760   2.912 -0.9316 -0.5980 -0.4670
  148OSM    H3F16407   3.955   2.871   2.910 -2.7370 -0.5745 -0.3655
  148OSM    H3G16408   4.047   2.732   2.855  0.1768 -0.9320  1.3965
  148OSM    C4F16409   3.982   2.721   3.057  0.0573 -0.1021 -0.1882
  148OSM    H4F16410   3.950   2.616   3.074 -0.9530  0.3774  1.0680
  148OSM    H4G16411   3.916   2.789   3.115  0.0610  1.7075 -2.1971
  148OSM    C5F16412   4.132   2.733   3.091 -0.1013 -0.0918 -0.5258
  148OSM    H5F16413   4.160   2.839   3.075  0.2300 -0.1682 -0.4544
  148OSM    H5G16414   4.179   2.669   3.013  0.2010  0.4651 -0.8007
  148OSM    C6F16415   4.170   2.677   3.228  0.0516  0.2422 -0.4812
  148OSM    H6F16416   4.281   2.679   3.238  0.3264  0.6101 -3.0233
  148OSM    H6G16417   4.137   2.571   3.232 -1.8701  0.7254 -1.8284
  148OSM    C7F16418   4.104   2.752   3.339 -0.2315 -0.2760 -0.2045
  148OSM    H7F16419   3.995   2.773   3.339 -0.1696  0.2242  1.3189
  148OSM    H7G16420   4.173   2.839   3.350  1.3347 -1.6558  1.5389
  148OSM    C8F16421   4.131   2.677   3.472 -0.3911 -0.3339  0.0443
  148OSM    H8F16422   4.110   2.571   3.448 -1.2481 -0.5695  1.7256
  148OSM    H8G16423   4.063   2.717   3.550 -1.0992 -1.0486 -0.1892
  148OSM    C9F16424   4.274   2.693   3.527  1.1329 -0.1348 -0.0307
  148OSM    H9F16425   4.349   2.650   3.460  0.3115 -0.7618 -0.5716
  148OSM   C10F16426   4.316   2.749   3.642  0.2866 -0.4068 -0.7835
  148OSM   H10F16427   4.423   2.772   3.650  0.3480 -0.7336 -0.6538
  148OSM   C11F16428   4.225   2.793   3.753 -0.1305  0.0903  0.7935
  148OSM   H11F16429   4.125   2.747   3.743  0.0699 -0.2462  0.3040
  148OSM   H11G16430   4.199   2.900   3.735 -0.9973 -0.1835  0.3632
  148OSM   C12F16431   4.268   2.788   3.898  1.0010 -0.7448  0.3783
  148OSM   H12F16432   4.347   2.861   3.925 -0.5669  0.3186  2.3615
  148OSM   H12G16433   4.298   2.683   3.919 -3.1499 -1.9712  1.0294
  148OSM   C13F16434   4.148   2.835   3.990  0.1218  0.1596  0.1744
  148OSM   H13F16435   4.056   2.778   3.963  0.6147  0.2143 -1.7846
  148OSM   H13G16436   4.126   2.939   3.959  1.5839  0.5257  0.2736
  148OSM   C14F16437   4.183   2.832   4.140  0.2808 -0.0363  0.4626
  148OSM   H14F16438   4.261   2.909   4.154 -0.7351  0.9093  1.0877
  148OSM   H14G16439   4.226   2.735   4.172 -0.3809 -0.1096  1.1676
  148OSM   C15F16440   4.072   2.871   4.236  0.8242 -0.0842 -0.0513
  148OSM   H15F16441   3.990   2.797   4.226 -0.6177  1.0218  2.4136
  148OSM   H15G16442   4.043   2.973   4.202  1.6643  0.6435  1.3101
  148OSM   C16F16443   4.121   2.876   4.383 -0.7226 -0.4333  0.0897
  148OSM   H16F16444   4.216   2.933   4.373 -0.8302 -0.2144  0.3058
  148OSM   H16G16445   4.160   2.779   4.420  1.4713  0.4744  0.3351
  148OSM   C17F16446   4.013   2.921   4.482 -0.7021 -0.3697 -0.2140
  148OSM   H17F16447   4.039   2.874   4.579  0.0784 -1.7808 -1.0769
  148OSM   H17G16448   3.917   2.876   4.448  0.0250 -1.1261 -1.3502
  148OSM   C18F16449   4.009   3.076   4.482  0.4366  0.3194 -0.8839
  148OSM   H18F16450   3.949   3.104   4.572 -1.5689 -1.5829 -1.5331
  148OSM   H18G16451   3.961   3.119   4.392  0.3623  0.3538 -0.8286
  148OSM   H18H16452   4.109   3.118   4.505  1.1546 -0.4612 -2.4633
  149OSM      N16453   4.842   2.192   2.369 -0.3286 -0.0859 -0.4519
  149OSM    C1516454   4.735   2.178   2.276 -0.1886 -0.1361 -0.2333
  149OSM   H15A16455   4.762   2.217   2.179 -0.8128  1.1553  0.0812
  149OSM   H15B16456   4.649   2.235   2.309 -0.7184 -1.5935  1.0292
  149OSM   H15C16457   4.707   2.075   2.265 -1.1883  0.2219 -1.3005
  149OSM    C1416458   4.948   2.094   2.336 -0.4950 -0.3512  0.2244
  149OSM   H14A16459   5.030   2.106   2.406 -0.9754 -1.2769  0.9747
  149OSM   H14B16460   4.987   2.105   2.236  0.5114  0.7297  0.7142
  149OSM   H14C16461   4.913   1.993   2.355  1.6814 -0.5229  4.5132
  149OSM    C1316462   4.897   2.335   2.370  0.5622  0.3043 -0.0607
  149OSM   H13A16463   4.997   2.345   2.412  0.3788 -0.7539  0.6701
  149OSM   H13B16464   4.827   2.402   2.417 -0.3515 -0.7923  0.1874
  149OSM   H13C16465   4.917   2.362   2.268 -0.8827  0.8795 -0.2031
  149OSM    C1216466   4.791   2.161   2.510  0.2320  0.3629 -0.4356
  149OSM   H12A16467   4.772   2.056   2.521 -2.7861  0.6857 -1.6684
  149OSM   H12B16468   4.700   2.215   2.531 -0.8923 -1.4289 -0.4847
  149OSM    C1116469   4.893   2.195   2.615  0.2270 -0.6244 -0.4400
  149OSM   H11A16470   4.850   2.177   2.716 -2.7394 -0.3928 -1.5659
  149OSM   H11B16471   4.896   2.306   2.612 -1.1383 -0.5769 -0.4202
  149OSM      P16472   5.061   1.995   2.692 -0.1289  0.6185  0.2340
  149OSM    O1316473   5.063   1.886   2.594  0.0497 -0.2673  0.2695
  149OSM    O1416474   5.187   2.023   2.767  0.2719  0.0216 -0.1642
  149OSM    O1116475   4.938   1.971   2.785  0.5881  0.5117  0.3437
  149OSM    O1216476   5.020   2.128   2.607 -0.5185 -0.0266 -0.4801
  149OSM    C1S16477   4.944   1.857   2.871 -0.3386  0.2361  0.3357
  149OSM    H1S16478   5.043   1.845   2.921  1.4172 -1.2205 -3.1121
  149OSM    H1T16479   4.920   1.757   2.828  0.0534  0.0022  0.6492
  149OSM     NF16480   4.869   1.788   3.103 -0.3073 -0.1163 -0.5079
  149OSM    HNF16481   4.806   1.711   3.114 -1.8107  1.1799  0.4898
  149OSM    C2S16482   4.842   1.874   2.985 -0.4127 -0.1502 -0.0430
  149OSM    H2S16483   4.851   1.978   3.023  0.5506 -0.1064 -0.3686
  149OSM    C3S16484   4.713   1.851   2.911  0.5907  0.6237  0.2973
  149OSM    H3S16485   4.701   1.748   2.871 -3.1254  0.8687  0.3932
  149OSM     O316486   4.696   1.940   2.807  0.1989 -0.6190 -0.0747
  149OSM    HO316487   4.775   1.995   2.797 -1.7068  1.8771 -3.6603
  149OSM    C4S16488   4.605   1.874   3.012 -0.0062 -0.1548  0.4128
  149OSM    H4S16489   4.605   1.976   3.054 -0.6201 -0.1423  0.3941
  149OSM    C5S16490   4.520   1.781   3.062  0.8743  0.4149 -0.6094
  149OSM    H5S16491   4.526   1.677   3.026  1.4966  0.0991  0.3823
  149OSM    C6S16492   4.423   1.801   3.180 -0.6374  0.0715  0.2998
  149OSM    H6S16493   4.322   1.758   3.164  0.1070 -1.3713 -0.7207
  149OSM    H6T16494   4.406   1.911   3.183 -0.1981  0.1503 -0.1082
  149OSM    C7S16495   4.483   1.747   3.316  0.1211  0.1968 -0.3037
  149OSM    H7S16496   4.587   1.783   3.329  0.3869 -1.0610  1.3657
  149OSM    H7T16497   4.478   1.636   3.306 -0.0114  0.1843 -0.0986
  149OSM    C8S16498   4.391   1.796   3.433  0.1078 -0.2238  0.0355
  149OSM    H8S16499   4.288   1.762   3.410  0.8137 -1.4035 -1.5522
  149OSM    H8T16500   4.393   1.906   3.418  1.2350 -0.4506 -1.8232
  149OSM    C9S16501   4.443   1.743   3.565  0.3981  0.5776 -0.3879
  149OSM    H9S16502   4.553   1.759   3.568  0.3922  1.0842 -2.0398
  149OSM    H9T16503   4.416   1.636   3.575 -1.5612  1.1295  0.8397
  149OSM   C10S16504   4.391   1.811   3.689 -0.9760  0.5716  0.4420
  149OSM   H10S16505   4.288   1.842   3.663 -0.8269  0.1369 -0.7164
  149OSM   H10T16506   4.441   1.908   3.713  0.1215  0.3740 -0.9266
  149OSM   C11S16507   4.389   1.716   3.813 -0.3198 -0.8023  0.1831
  149OSM   H11S16508   4.491   1.673   3.824  0.4141  0.4422 -1.3317
  149OSM   H11T16509   4.334   1.624   3.783 -0.7855 -0.1329 -1.0784
  149OSM   C12S16510   4.349   1.781   3.948  0.0733 -0.2330 -0.4275
  149OSM   H12S16511   4.253   1.837   3.939  0.9463  2.1583  3.0534
  149OSM   H12T16512   4.430   1.854   3.967 -1.1529  1.0735 -0.0082
  149OSM   C13S16513   4.323   1.680   4.067 -0.1014  0.2979 -0.2927
  149OSM   H13S16514   4.388   1.593   4.043  0.2174  0.6557 -0.7370
  149OSM   H13T16515   4.221   1.638   4.058  1.0158 -2.8337  0.3598
  149OSM   C14S16516   4.353   1.733   4.211  0.0642 -0.0262  0.4661
  149OSM   H14S16517   4.286   1.820   4.224  2.0423  1.8408 -0.9566
  149OSM   H14T16518   4.454   1.779   4.206 -0.5867  1.3717 -0.6112
  149OSM   C15S16519   4.356   1.625   4.323 -0.5908 -0.2068  0.1419
  149OSM   H15S16520   4.419   1.535   4.308 -0.0807 -0.0272  1.1517
  149OSM   H15T16521   4.251   1.590   4.334  0.0228 -1.8907  1.1607
  149OSM   C16S16522   4.398   1.691   4.451  0.7054 -0.5555 -1.0124
  149OSM   H16S16523   4.324   1.771   4.474  1.3857 -0.2348  0.1658
  149OSM   H16T16524   4.499   1.736   4.444  0.5601 -0.0604 -0.1491
  149OSM   C17S16525   4.408   1.585   4.563  0.4367 -0.3199 -0.5462
  149OSM   H17S16526   4.473   1.505   4.522  1.5052  0.3103 -0.1152
  149OSM   H17T16527   4.303   1.556   4.581 -0.0727  2.6682  2.1493
  149OSM   C18S16528   4.470   1.635   4.692 -0.4623  0.0194 -0.1928
  149OSM   H18S16529   4.422   1.730   4.724  2.3338  2.3074 -2.2538
  149OSM   H18T16530   4.573   1.677   4.685  0.4833 -1.9666  0.7279
  149OSM   H18U16531   4.470   1.548   4.761 -1.1042 -1.4875 -1.9969
  149OSM    C1F16532   4.969   1.815   3.181  0.2458 -0.0923 -0.5107
  149OSM     OF16533   5.058   1.896   3.162  0.7481  0.3578 -0.8526
  149OSM    C2F16534   4.952   1.742   3.310 -0.1565 -0.0757 -0.7206
  149OSM    H2F16535   4.965   1.635   3.282 -3.2993 -0.7933  0.1897
  149OSM    H2G16536   4.847   1.754   3.342  0.7763  1.3949  2.1291
  149OSM    C3F16537   5.044   1.792   3.428 -0.5082  0.1052  0.3289
  149OSM    H3F16538   5.059   1.902   3.425 -1.2319  0.1862 -1.3103
  149OSM    H3G16539   5.145   1.757   3.396 -0.3043  0.8628  0.1360
  149OSM    C4F16540   5.003   1.732   3.563  0.0827  0.6695 -0.5417
  149OSM    H4F16541   5.092   1.721   3.629  0.5652 -3.4635 -1.5438
  149OSM    H4G16542   4.970   1.626   3.554  0.8933 -0.0849  3.4392
  149OSM    C5F16543   4.901   1.823   3.634  0.0036  0.1128  0.3284
  149OSM    H5F16544   4.810   1.827   3.571 -0.0470 -0.1450  0.3828
  149OSM    H5G16545   4.948   1.924   3.634  0.7857 -0.1976 -1.9369
  149OSM    C6F16546   4.870   1.779   3.770  0.3150  0.3811 -0.0905
  149OSM    H6F16547   4.807   1.858   3.816  2.1650  1.8810 -0.0357
  149OSM    H6G16548   4.961   1.775   3.834 -0.0001 -4.0444  0.3989
  149OSM    C7F16549   4.821   1.633   3.784  0.3071  0.3389 -0.1244
  149OSM    H7F16550   4.907   1.563   3.773  1.3811  1.5566  0.2434
  149OSM    H7G16551   4.736   1.608   3.718  0.4786  1.1863 -0.6686
  149OSM    C8F16552   4.766   1.603   3.930 -0.1204  0.0715  0.0480
  149OSM    H8F16553   4.725   1.500   3.920 -0.3073  0.0984  0.5079
  149OSM    H8G16554   4.684   1.670   3.964  1.5632  0.2178  4.4921
  149OSM    C9F16555   4.880   1.607   4.027 -0.2627 -0.1309 -0.4649
  149OSM    H9F16556   4.979   1.601   3.978  1.1487 -1.2242  2.2865
  149OSM   C10F16557   4.886   1.629   4.161 -0.1842  0.0296 -0.7293
  149OSM   H10F16558   4.987   1.628   4.205 -0.1888  1.2609 -0.6647
  149OSM   C11F16559   4.767   1.649   4.257 -0.0243  0.2552  0.5447
  149OSM   H11F16560   4.676   1.606   4.210 -0.0289  1.0986 -0.2640
  149OSM   H11G16561   4.741   1.757   4.254  1.5135  0.6495  0.4795
  149OSM   C12F16562   4.787   1.591   4.401 -0.1466 -0.3039 -0.0325
  149OSM   H12F16563   4.797   1.486   4.366 -0.7107  0.1262 -1.5593
  149OSM   H12G16564   4.691   1.601   4.454 -0.0253 -0.1699  0.1645
  149OSM   C13F16565   4.901   1.651   4.488  0.7238  0.0012 -0.5662
  149OSM   H13F16566   4.895   1.761   4.503  1.4289  0.0928 -0.9252
  149OSM   H13G16567   5.000   1.633   4.440  0.9730  3.6308 -1.6614
  149OSM   C14F16568   4.905   1.609   4.633  0.1610 -0.1017 -0.2306
  149OSM   H14F16569   4.803   1.610   4.677  0.3046 -1.4917  0.1999
  149OSM   H14G16570   4.969   1.678   4.693 -0.2989  1.3376 -1.3418
  149OSM   C15F16571   4.973   1.472   4.636  0.0073  0.0567 -1.2736
  149OSM   H15F16572   5.072   1.466   4.586  0.5339  1.0009 -0.3851
  149OSM   H15G16573   4.903   1.409   4.578 -0.2422  0.7978 -1.8000
  149OSM   C16F16574   4.989   1.416   4.782  0.8257 -0.7189  0.4125
  149OSM   H16F16575   5.052   1.491   4.834  1.0664 -0.6377  0.0039
  149OSM   H16G16576   5.056   1.328   4.769  0.8782 -0.3265 -3.1515
  149OSM   C17F16577   4.857   1.385   4.863 -0.3861 -0.1239  0.4455
  149OSM   H17F16578   4.791   1.323   4.799  1.6747  0.6596 -2.6373
  149OSM   H17G16579   4.793   1.475   4.875 -1.0997 -0.5103 -0.3536
  149OSM   C18F16580   4.903   1.322   4.988 -0.2523  0.0767 -0.6329
  149OSM   H18F16581   4.967   1.232   4.975  1.0156  0.7847  0.5365
  149OSM   H18G16582   4.809   1.294   5.041  1.0175 -0.3072  1.5289
  149OSM   H18H16583   4.966   1.386   5.053 -1.7815 -0.6115  1.6844
  150OSM      N16584   2.262   3.240   2.437 -0.1316  0.6122  0.2665
  150OSM    C1516585   2.321   3.165   2.320 -0.5384 -0.5385 -0.1675
  150OSM   H15A16586   2.418   3.201   2.287  0.2443 -2.2915  0.1287
  150OSM   H15B16587   2.270   3.184   2.227 -0.8317  0.7473  0.2421
  150OSM   H15C16588   2.328   3.058   2.330 -0.8883 -0.6197 -0.7575
  150OSM    C1416589   2.310   3.393   2.435  0.1617  0.2284  0.1818
  150OSM   H14A16590   2.276   3.433   2.340  0.1710 -1.6471 -0.6716
  150OSM   H14B16591   2.415   3.415   2.448 -0.1098  2.5761 -1.1636
  150OSM   H14C16592   2.261   3.436   2.520  0.3838  1.7945 -0.4576
  150OSM    C1316593   2.117   3.223   2.434  0.0658  0.4918  0.0248
  150OSM   H13A16594   2.073   3.291   2.363  1.5726  2.3359  0.7788
  150OSM   H13B16595   2.077   3.263   2.526  0.2687  1.0418 -0.1267
  150OSM   H13C16596   2.080   3.123   2.417  0.8816 -0.0337  1.1735
  150OSM    C1216597   2.321   3.176   2.563 -0.4219  0.2529  0.6905
  150OSM   H12A16598   2.424   3.155   2.538 -0.1696  2.3061 -0.1541
  150OSM   H12B16599   2.281   3.078   2.583  2.3940 -1.1488  0.0979
  150OSM    C1116600   2.298   3.253   2.690 -0.4696  0.4829 -0.0666
  150OSM   H11A16601   2.341   3.354   2.675 -0.6797  0.3221 -1.9473
  150OSM   H11B16602   2.357   3.212   2.775  0.1696 -0.5358 -0.9845
  150OSM      P16603   2.082   3.144   2.781 -0.2403  0.2342  0.6273
  150OSM    O1316604   1.937   3.168   2.756 -0.2224  0.6526  0.2486
  150OSM    O1416605   2.132   3.018   2.725 -0.2711  0.3955  0.2479
  150OSM    O1116606   2.122   3.142   2.937  0.2236  0.0761 -0.3712
  150OSM    O1216607   2.161   3.267   2.728  0.0177 -0.0269  0.1354
  150OSM    C1S16608   2.101   3.263   3.008 -0.0681  0.4771 -0.3196
  150OSM    H1S16609   1.994   3.294   3.006 -0.5898 -1.1410  0.3515
  150OSM    H1T16610   2.162   3.352   2.986 -1.0317  1.1669 -0.2647
  150OSM     NF16611   2.095   3.351   3.242  0.5505  0.3149  0.0937
  150OSM    HNF16612   2.167   3.417   3.262  0.4938  0.7680 -1.1141
  150OSM    C2S16613   2.132   3.238   3.156  0.3332 -0.9425 -0.1269
  150OSM    H2S16614   2.065   3.158   3.193  1.6220 -1.3315  1.4607
  150OSM    C3S16615   2.283   3.198   3.169 -0.0793 -0.5808  0.7515
  150OSM    H3S16616   2.338   3.287   3.133 -0.6112  0.1441  1.6906
  150OSM     O316617   2.329   3.087   3.083 -0.1400 -0.2974 -0.3844
  150OSM    HO316618   2.266   3.094   3.012 -0.6998 -1.0634  0.0297
  150OSM    C4S16619   2.326   3.167   3.302  0.0885  0.4197 -0.0436
  150OSM    H4S16620   2.268   3.086   3.349  1.1009 -0.4776 -0.3028
  150OSM    C5S16621   2.407   3.235   3.385  0.1242  0.6414  0.6142
  150OSM    H5S16622   2.452   3.327   3.346  0.5601  0.2189  0.1172
  150OSM    C6S16623   2.430   3.188   3.527 -0.4872 -1.0729  0.5801
  150OSM    H6S16624   2.401   3.270   3.597  1.1209 -0.0329  0.1089
  150OSM    H6T16625   2.541   3.173   3.526 -0.6033 -2.0525 -1.4341
  150OSM    C7S16626   2.363   3.061   3.576  0.5079  0.0565 -0.6144
  150OSM    H7S16627   2.389   2.974   3.512  2.1816  0.2881 -0.3042
  150OSM    H7T16628   2.253   3.076   3.579  0.5087 -0.0366  0.2644
  150OSM    C8S16629   2.403   3.023   3.718  0.3008  0.0461  0.1650
  150OSM    H8S16630   2.509   3.055   3.728  0.4635 -0.9114  1.9159
  150OSM    H8T16631   2.403   2.914   3.741 -2.0189  0.0509  0.3760
  150OSM    C9S16632   2.327   3.099   3.834  0.0807  0.2037 -0.0172
  150OSM    H9S16633   2.217   3.086   3.840  0.0139  1.2174  2.2643
  150OSM    H9T16634   2.348   3.206   3.811  0.9559 -0.5908 -3.5299
  150OSM   C10S16635   2.373   3.066   3.983 -0.2729 -0.2455 -0.4564
  150OSM   H10S16636   2.483   3.081   3.986 -0.3950  0.5644  0.1482
  150OSM   H10T16637   2.352   2.959   4.003 -1.2966  0.0567  0.1259
  150OSM   C11S16638   2.305   3.157   4.089 -0.3265 -0.4659 -0.4150
  150OSM   H11S16639   2.199   3.158   4.057 -1.1631 -0.2572  2.1737
  150OSM   H11T16640   2.345   3.260   4.076  1.8018 -1.1013  0.6081
  150OSM   C12S16641   2.319   3.108   4.235  0.4486 -0.1366  0.5834
  150OSM   H12S16642   2.307   3.188   4.311  1.1524  0.7224 -0.1933
  150OSM   H12T16643   2.426   3.079   4.233  0.7311  0.9254 -0.6284
  150OSM   C13S16644   2.229   2.988   4.255 -0.1170  0.2560  0.2556
  150OSM   H13S16645   2.248   2.922   4.168  1.1405  1.7090 -0.6371
  150OSM   H13T16646   2.125   3.026   4.260  0.0542  0.8328 -0.4173
  150OSM   C14S16647   2.274   2.920   4.382  0.6935  0.1270 -0.3145
  150OSM   H14S16648   2.271   2.993   4.466  0.1777  1.6628 -1.6252
  150OSM   H14T16649   2.378   2.884   4.369  0.3688 -0.9516 -0.0422
  150OSM   C15S16650   2.186   2.792   4.411 -0.0279  0.3442 -0.4112
  150OSM   H15S16651   2.216   2.710   4.343  0.5301 -0.0726  0.3232
  150OSM   H15T16652   2.081   2.801   4.377 -0.0910 -3.5134 -1.7219
  150OSM   C16S16653   2.205   2.734   4.555 -0.8172  0.5154 -0.1976
  150OSM   H16S16654   2.250   2.804   4.628 -2.9219 -0.4588  2.1667
  150OSM   H16T16655   2.270   2.644   4.549 -1.7297 -0.1602 -0.1948
  150OSM   C17S16656   2.076   2.694   4.609  0.6276  0.4962  0.1065
  150OSM   H17S16657   2.014   2.631   4.541 -0.0619 -0.3518  1.4844
  150OSM   H17T16658   2.010   2.781   4.628  0.1626  0.0157  0.7583
  150OSM   C18S16659   2.080   2.624   4.737 -0.3369  0.8883  0.1454
  150OSM   H18S16660   2.132   2.683   4.815 -0.8332 -0.3866  1.4985
  150OSM   H18T16661   2.134   2.527   4.726  1.0981  1.5199  1.2765
  150OSM   H18U16662   1.976   2.607   4.772 -0.5860  0.2644 -0.8710
  150OSM    C1F16663   1.968   3.370   3.269  0.9001 -0.9093  0.0553
  150OSM     OF16664   1.883   3.286   3.239  0.0737 -0.3984 -0.0361
  150OSM    C2F16665   1.934   3.506   3.333 -0.1833  0.0602  0.1774
  150OSM    H2F16666   1.943   3.585   3.256 -0.5439  0.5484  0.6303
  150OSM    H2G16667   2.007   3.527   3.414  0.1877 -1.1215  0.1697
  150OSM    C3F16668   1.789   3.518   3.380  0.2008  0.4955 -0.5489
  150OSM    H3F16669   1.776   3.430   3.447 -1.3832  1.2723  0.2334
  150OSM    H3G16670   1.730   3.511   3.286 -0.6434 -0.8150  0.0478
  150OSM    C4F16671   1.748   3.650   3.441  0.1578  0.5175 -0.4969
  150OSM    H4F16672   1.639   3.648   3.463  0.0339 -0.7171 -1.1811
  150OSM    H4G16673   1.766   3.732   3.367  4.5095 -0.6953 -1.0450
  150OSM    C5F16674   1.829   3.674   3.565 -0.4909  0.4329 -0.4113
  150OSM    H5F16675   1.938   3.673   3.544  0.3218 -2.2438  2.9532
  150OSM    H5G16676   1.801   3.591   3.634 -0.9889  1.9059  1.2519
  150OSM    C6F16677   1.803   3.809   3.637  0.0872  0.5946  0.5711
  150OSM    H6F16678   1.706   3.813   3.691  0.6634  2.8637  1.5456
  150OSM    H6G16679   1.815   3.881   3.554  0.2614 -1.5834 -1.4067
  150OSM    C7F16680   1.922   3.826   3.734 -0.3677 -0.2619 -0.2637
  150OSM    H7F16681   2.006   3.839   3.663 -1.0908 -2.5584 -1.6276
  150OSM    H7G16682   1.932   3.734   3.796 -0.8708 -1.0554 -1.3404
  150OSM    C8F16683   1.890   3.951   3.820 -0.4437 -0.2963 -0.8920
  150OSM    H8F16684   1.793   3.923   3.868  0.6813 -1.9861  0.5257
  150OSM    H8G16685   1.865   4.045   3.766 -1.7628  0.2209  0.5429
  150OSM    C9F16686   2.003   3.967   3.915 -0.2846 -0.7873  0.3594
  150OSM    H9F16687   2.103   3.992   3.875 -0.6002 -0.0533  0.0342
  150OSM   C10F16688   1.999   3.939   4.043 -0.0718  0.4659 -0.7161
  150OSM   H10F16689   2.089   3.933   4.106 -0.1514  3.9902 -0.0483
  150OSM   C11F16690   1.868   3.909   4.108  0.0995 -0.0136  0.6242
  150OSM   H11F16691   1.826   3.807   4.096  0.9390 -0.4717  1.4425
  150OSM   H11G16692   1.780   3.965   4.069  1.3840  0.6389 -1.4685
  150OSM   C12F16693   1.880   3.936   4.260 -0.9821 -0.4881  0.3396
  150OSM   H12F16694   1.968   3.878   4.294  0.8001  0.2649 -2.6213
  150OSM   H12G16695   1.791   3.891   4.309 -0.8791 -1.2934 -0.1981
  150OSM   C13F16696   1.893   4.089   4.287  0.0016  0.0546 -0.1652
  150OSM   H13F16697   1.799   4.142   4.261  1.0198  1.8285 -0.3534
  150OSM   H13G16698   1.965   4.130   4.214 -0.4959 -0.8017 -1.1675
  150OSM   C14F16699   1.950   4.118   4.426 -0.1482  1.0587  0.2098
  150OSM   H14F16700   2.003   4.215   4.414  1.8425 -0.1211 -0.9809
  150OSM   H14G16701   2.035   4.049   4.442  1.1343  2.0326 -1.9165
  150OSM   C15F16702   1.848   4.117   4.541  0.4016 -0.2041 -0.4088
  150OSM   H15F16703   1.814   4.017   4.578  0.6342 -0.2210 -0.2410
  150OSM   H15G16704   1.755   4.169   4.508  0.1958 -0.1605  0.2093
  150OSM   C16F16705   1.902   4.204   4.664  0.4127  0.0332  0.9658
  150OSM   H16F16706   1.947   4.303   4.644 -1.8812  0.9308  0.0110
  150OSM   H16G16707   1.988   4.145   4.705  1.3732  0.6948 -0.0439
  150OSM   C17F16708   1.808   4.228   4.784 -0.4723 -0.6826 -0.0195
  150OSM   H17F16709   1.738   4.142   4.792 -0.9458 -0.3800 -0.8075
  150OSM   H17G16710   1.749   4.319   4.760 -4.4594 -2.9719  0.2167
  150OSM   C18F16711   1.891   4.254   4.909  0.5119  0.0708 -0.5918
  150OSM   H18F16712   1.824   4.271   4.996  0.8661 -1.2591 -0.0313
  150OSM   H18G16713   1.954   4.344   4.895  1.8299 -0.9214 -1.2188
  150OSM   H18H16714   1.962   4.174   4.939  0.5602  0.0424 -0.7806
  151OSM      N16715   0.730   2.260   2.350 -0.0955 -0.8487 -0.5071
  151OSM    C1516716   0.770   2.333   2.231 -0.1302  0.6919  0.0551
  151OSM   H15A16717   0.735   2.279   2.144 -0.7499 -0.9383  1.2604
  151OSM   H15B16718   0.878   2.336   2.233 -0.1311  0.5999  1.1032
  151OSM   H15C16719   0.720   2.428   2.218 -1.7954 -0.4021 -2.3169
  151OSM    C1416720   0.576   2.276   2.362  0.4416  1.4619 -0.2305
  151OSM   H14A16721   0.537   2.373   2.337 -0.2072  1.1819 -0.3269
  151OSM   H14B16722   0.552   2.257   2.466 -1.0240  0.1148 -0.7775
  151OSM   H14C16723   0.527   2.201   2.301  2.5993  0.0318 -0.3376
  151OSM    C1316724   0.765   2.112   2.350 -0.5349 -0.1422  0.8433
  151OSM   H13A16725   0.755   2.055   2.259  0.4737  1.5717 -0.3970
  151OSM   H13B16726   0.712   2.058   2.427 -1.2415 -0.4095  0.1869
  151OSM   H13C16727   0.871   2.112   2.371 -0.1657  0.3076 -0.9072
  151OSM    C1216728   0.797   2.329   2.473 -0.2223 -0.6216 -0.3706
  151OSM   H12A16729   0.774   2.434   2.471  2.1340 -0.0501 -0.5820
  151OSM   H12B16730   0.905   2.325   2.468  0.1039  1.8729  2.0759
  151OSM    C1116731   0.777   2.260   2.604 -0.1488 -0.1764  0.1697
  151OSM   H11A16732   0.808   2.343   2.671  0.2101  1.6315 -2.1265
  151OSM   H11B16733   0.843   2.171   2.616  0.1350  0.1330  0.9555
  151OSM      P16734   0.590   2.090   2.692 -0.2101 -0.4213  0.1877
  151OSM    O1316735   0.468   2.122   2.768 -0.8272  0.2001  0.7328
  151OSM    O1416736   0.574   1.986   2.588 -0.0247 -0.4197 -0.4848
  151OSM    O1116737   0.705   2.045   2.794 -0.5591 -0.1100  0.7027
  151OSM    O1216738   0.636   2.218   2.623 -0.2702 -0.1514 -0.5015
  151OSM    C1S16739   0.692   2.059   2.937 -0.6789  0.1149  0.5927
  151OSM    H1S16740   0.643   2.154   2.964  1.4217  1.3390  0.3689
  151OSM    H1T16741   0.791   2.060   2.988  0.0295 -1.5003 -0.6521
  151OSM     NF16742   0.618   1.943   3.146  0.0772 -0.1508 -0.2877
  151OSM    HNF16743   0.689   1.881   3.179 -0.2503 -0.1176  0.4903
  151OSM    C2S16744   0.609   1.937   3.004  0.0037  0.6692 -0.2933
  151OSM    H2S16745   0.504   1.948   2.968 -0.6152 -0.5876  1.0443
  151OSM    C3S16746   0.651   1.800   2.944 -0.7151  0.2332 -0.3104
  151OSM    H3S16747   0.762   1.797   2.953 -0.8054  1.3848  1.6369
  151OSM     O316748   0.623   1.774   2.800  0.2547 -0.2071 -0.8435
  151OSM    HO316749   0.608   1.860   2.760 -0.3795 -1.2983 -3.1081
  151OSM    C4S16750   0.602   1.681   3.027  0.5808  0.5803 -0.7605
  151OSM    H4S16751   0.493   1.676   3.038  0.3828  1.6642 -2.0942
  151OSM    C5S16752   0.673   1.583   3.087  0.0140  0.0486 -0.1673
  151OSM    H5S16753   0.783   1.592   3.083 -0.1003  1.0438 -1.8110
  151OSM    C6S16754   0.600   1.475   3.164 -0.4861 -0.2013 -0.5923
  151OSM    H6S16755   0.595   1.503   3.271 -0.4251 -0.6947 -0.4565
  151OSM    H6T16756   0.674   1.393   3.154  1.7014  1.7097 -0.9576
  151OSM    C7S16757   0.459   1.413   3.120 -0.2990  0.1795 -0.6549
  151OSM    H7S16758   0.458   1.388   3.012 -0.2591  0.2095 -0.6627
  151OSM    H7T16759   0.380   1.489   3.138 -0.5196 -0.8261  3.4082
  151OSM    C8S16760   0.420   1.293   3.208  0.3282  0.3550 -0.1254
  151OSM    H8S16761   0.413   1.311   3.317 -0.4284 -3.0732  0.5050
  151OSM    H8T16762   0.487   1.205   3.194 -1.6896 -1.2558 -0.2376
  151OSM    C9S16763   0.277   1.248   3.161 -0.0954  0.2327 -0.1648
  151OSM    H9S16764   0.296   1.196   3.064  0.4032  0.1378 -0.0224
  151OSM    H9T16765   0.222   1.343   3.150  0.6274  0.4711 -2.2812
  151OSM   C10S16766   0.210   1.156   3.265 -0.8645 -0.5864 -0.0434
  151OSM   H10S16767   0.102   1.142   3.244 -0.2966 -1.9776 -2.2820
  151OSM   H10T16768   0.207   1.213   3.361  0.9630 -0.5625  0.0203
  151OSM   C11S16769   0.280   1.020   3.283 -0.7756 -0.5391 -0.0990
  151OSM   H11S16770   0.389   1.036   3.290 -1.0452  0.7300  2.3659
  151OSM   H11T16771   0.258   0.959   3.193  1.2525  0.8806 -1.6378
  151OSM   C12S16772   0.234   0.950   3.416 -0.2080 -0.3944 -0.3276
  151OSM   H12S16773   0.258   0.842   3.414  2.3462  0.0678  0.7515
  151OSM   H12T16774   0.125   0.965   3.426 -0.0616 -0.2464  1.3040
  151OSM   C13S16775   0.302   1.010   3.541 -0.6899 -0.3663 -0.5202
  151OSM   H13S16776   0.271   1.116   3.553 -0.6537 -0.4529  0.4278
  151OSM   H13T16777   0.413   1.010   3.532 -0.3967  3.6321  1.0793
  151OSM   C14S16778   0.274   0.926   3.672  0.5383  0.2520 -0.5688
  151OSM   H14S16779   0.299   0.821   3.643 -1.6679 -0.4810  0.0172
  151OSM   H14T16780   0.167   0.904   3.692  0.5665  1.3371  0.9454
  151OSM   C15S16781   0.359   0.966   3.794 -0.2648 -0.3457 -0.5520
  151OSM   H15S16782   0.342   1.076   3.796 -1.6646 -0.5533 -0.1136
  151OSM   H15T16783   0.465   0.936   3.777  0.5727  2.0051  0.1658
  151OSM   C16S16784   0.321   0.908   3.935 -0.3163  0.3369  0.2741
  151OSM   H16S16785   0.287   0.808   3.903 -0.2864  0.2510  0.5133
  151OSM   H16T16786   0.237   0.969   3.974 -1.5327  0.4007 -2.2702
  151OSM   C17S16787   0.434   0.891   4.030 -0.1272  0.2050 -0.8294
  151OSM   H17S16788   0.456   0.991   4.073 -1.2554 -0.6597  1.9721
  151OSM   H17T16789   0.519   0.850   3.971  0.7346 -1.1807  1.2875
  151OSM   C18S16790   0.402   0.796   4.144 -0.6613  0.1827  0.3922
  151OSM   H18S16791   0.311   0.839   4.191 -0.2250  1.3842  0.1611
  151OSM   H18T16792   0.485   0.778   4.215 -0.5866  1.1201  0.5563
  151OSM   H18U16793   0.366   0.700   4.099 -0.4597  0.6915 -0.8970
  151OSM    C1F16794   0.589   2.047   3.217  0.4831  0.0738  0.8115
  151OSM     OF16795   0.521   2.141   3.171 -0.2557  0.7084  0.1063
  151OSM    C2F16796   0.646   2.052   3.357 -0.2753  0.0747 -0.2008
  151OSM    H2F16797   0.757   2.058   3.350 -0.0852 -0.9118  1.4954
  151OSM    H2G16798   0.619   1.954   3.401 -0.7575  0.1316 -0.3674
  151OSM    C3F16799   0.588   2.163   3.447  0.1873  0.3149  0.1268
  151OSM    H3F16800   0.478   2.163   3.434  0.0593 -0.2101  1.1034
  151OSM    H3G16801   0.613   2.265   3.409  0.5976  0.1133 -0.1541
  151OSM    C4F16802   0.630   2.155   3.590 -0.2037 -0.5905 -0.1070
  151OSM    H4F16803   0.617   2.259   3.627  1.5631  0.6342 -2.5679
  151OSM    H4G16804   0.739   2.134   3.600 -1.0262 -4.1113  4.5709
  151OSM    C5F16805   0.548   2.057   3.675 -0.0710  0.1594 -0.5793
  151OSM    H5F16806   0.569   1.950   3.652 -2.8469 -0.7412  0.6538
  151OSM    H5G16807   0.442   2.077   3.648  0.1535 -0.7105 -2.1650
  151OSM    C6F16808   0.557   2.064   3.830  0.1400  0.0001  0.4216
  151OSM    H6F16809   0.482   2.003   3.884  1.2774 -0.4413  1.5471
  151OSM    H6G16810   0.532   2.170   3.853  2.4911  1.1395 -1.7708
  151OSM    C7F16811   0.699   2.044   3.879  0.3695  0.7883  0.2552
  151OSM    H7F16812   0.779   2.096   3.823  1.4469 -0.0992  0.9182
  151OSM    H7G16813   0.722   1.935   3.875 -0.2633  0.6506  0.2269
  151OSM    C8F16814   0.711   2.084   4.028 -0.0443 -0.0349  0.2401
  151OSM    H8F16815   0.618   2.047   4.076 -0.8322 -1.2723 -2.0807
  151OSM    H8G16816   0.703   2.195   4.035  0.6477  0.0977 -0.8200
  151OSM    C9F16817   0.833   2.021   4.092  0.8983  0.0907 -0.5045
  151OSM    H9F16818   0.819   1.928   4.148  0.1526 -0.3375 -1.3798
  151OSM   C10F16819   0.950   2.086   4.114  0.0226 -0.0426 -0.4595
  151OSM   H10F16820   1.036   2.040   4.166 -1.3252  0.0201  2.0051
  151OSM   C11F16821   0.991   2.218   4.056  0.0008  0.1748  0.1935
  151OSM   H11F16822   0.903   2.285   4.054  1.2635  2.0072  1.8687
  151OSM   H11G16823   1.028   2.195   3.954 -0.2922 -1.4510  0.4328
  151OSM   C12F16824   1.106   2.290   4.129  1.7189 -0.2379 -0.7316
  151OSM   H12F16825   1.141   2.367   4.057  1.3490  0.7072  0.0675
  151OSM   H12G16826   1.187   2.216   4.147  1.7765 -0.1046 -0.4279
  151OSM   C13F16827   1.060   2.339   4.272 -0.3312 -0.0139  0.4764
  151OSM   H13F16828   1.023   2.250   4.328 -2.5959 -0.0171 -0.9006
  151OSM   H13G16829   0.973   2.406   4.255 -0.0836  0.2558  0.2928
  151OSM   C14F16830   1.174   2.390   4.365  0.6974  0.5329  0.4388
  151OSM   H14F16831   1.246   2.305   4.373  0.3357  0.4133  3.3887
  151OSM   H14G16832   1.127   2.408   4.464  1.0474  2.6259  0.2692
  151OSM   C15F16833   1.231   2.520   4.316 -0.1652 -0.3483  0.3461
  151OSM   H15F16834   1.136   2.575   4.298 -0.2778 -0.9925 -1.2309
  151OSM   H15G16835   1.277   2.494   4.218 -0.3671 -0.9308  0.4060
  151OSM   C16F16836   1.334   2.595   4.413 -0.0894  0.2780  0.2307
  151OSM   H16F16837   1.413   2.520   4.433 -0.0386  0.3061  0.1351
  151OSM   H16G16838   1.285   2.615   4.511 -0.2021 -2.2503  0.7449
  151OSM   C17F16839   1.389   2.725   4.358 -0.4394 -0.1863  0.0296
  151OSM   H17F16840   1.302   2.794   4.353  0.6448  1.1477 -2.4119
  151OSM   H17G16841   1.414   2.709   4.251 -1.4233  1.1103 -0.4182
  151OSM   C18F16842   1.503   2.791   4.439  0.0155  0.3131  0.1916
  151OSM   H18F16843   1.601   2.742   4.424  0.2791  0.6423  0.7913
  151OSM   H18G16844   1.471   2.810   4.544  1.9679 -0.2109  0.9320
  151OSM   H18H16845   1.510   2.888   4.386 -0.9413 -0.0895 -0.7008
  152OSM      N16846   1.237   5.264   2.352  0.7405  0.2541  0.0101
  152OSM    C1516847   1.253   5.362   2.239 -0.3689  0.2744  0.0006
  152OSM   H15A16848   1.204   5.457   2.258 -0.0767  0.5226 -0.4658
  152OSM   H15B16849   1.201   5.325   2.153  0.7385 -0.1642 -0.4953
  152OSM   H15C16850   1.357   5.380   2.218  0.1172 -1.6665  0.6156
  152OSM    C1416851   1.322   5.151   2.302 -0.2206  0.1645 -0.0023
  152OSM   H14A16852   1.413   5.191   2.261 -0.1319  1.2996  1.2004
  152OSM   H14B16853   1.272   5.110   2.216 -0.7860 -1.7705  1.1827
  152OSM   H14C16854   1.334   5.073   2.376 -1.9808  0.1716  0.3387
  152OSM    C1316855   1.295   5.321   2.481 -0.0855  0.0177  0.2409
  152OSM   H13A16856   1.237   5.410   2.501  1.3218  1.1913 -0.7099
  152OSM   H13B16857   1.399   5.348   2.472  0.2996 -1.6866 -0.8929
  152OSM   H13C16858   1.278   5.246   2.557 -0.6568  0.5583  0.6564
  152OSM    C1216859   1.090   5.229   2.368 -0.1128  0.4294  0.1559
  152OSM   H12A16860   1.033   5.318   2.391 -0.7147  0.2059 -0.4382
  152OSM   H12B16861   1.076   5.176   2.461  0.2632  1.1956  0.6641
  152OSM    C1116862   1.012   5.157   2.257  0.1276  0.0347  0.2023
  152OSM   H11A16863   1.039   5.201   2.159  3.3351  0.1680  1.0138
  152OSM   H11B16864   0.904   5.180   2.272  0.0749  1.2507 -1.7806
  152OSM      P16865   1.013   4.914   2.171 -0.0568  0.0795 -0.1519
  152OSM    O1316866   1.011   4.981   2.040  0.0455  0.5370  0.6416
  152OSM    O1416867   1.109   4.799   2.189  0.1104 -0.2722 -0.5819
  152OSM    O1116868   0.870   4.873   2.211 -0.0159 -0.1635  0.1807
  152OSM    O1216869   1.049   5.025   2.271 -0.4829  0.3490  0.0988
  152OSM    C1S16870   0.844   4.792   2.322  0.3188  0.3972  0.5240
  152OSM    H1S16871   0.921   4.718   2.354 -0.8049 -0.2246  1.8929
  152OSM    H1T16872   0.776   4.711   2.287  1.5141 -0.3059 -0.2700
  152OSM     NF16873   0.796   4.770   2.561  0.3007 -0.4154  0.3676
  152OSM    HNF16874   0.708   4.735   2.594 -1.3015  1.6054 -1.4867
  152OSM    C2S16875   0.795   4.864   2.448  0.6353  0.3935  0.4234
  152OSM    H2S16876   0.870   4.941   2.474 -0.0553  0.7062  1.5822
  152OSM    C3S16877   0.656   4.932   2.426 -0.3350  0.2249  0.1235
  152OSM    H3S16878   0.580   4.859   2.390 -1.8665  1.6568  0.2931
  152OSM     O316879   0.651   5.027   2.321  0.3872 -0.0319  0.1234
  152OSM    HO316880   0.731   4.997   2.278  0.0977 -2.3841  1.1083
  152OSM    C4S16881   0.596   4.989   2.552 -0.2895  0.5185  0.5578
  152OSM    H4S16882   0.515   4.927   2.593  0.7165 -1.0796  0.2490
  152OSM    C5S16883   0.627   5.107   2.616 -0.0214 -0.1975  0.4265
  152OSM    H5S16884   0.709   5.169   2.579  0.0884 -0.6997 -0.1848
  152OSM    C6S16885   0.552   5.154   2.740  0.3207  0.0577  0.2089
  152OSM    H6S16886   0.478   5.231   2.710  1.2106  1.5616  1.6865
  152OSM    H6T16887   0.624   5.219   2.794  1.6065  1.0946 -2.5442
  152OSM    C7S16888   0.496   5.052   2.839 -0.6042  0.3609 -0.0773
  152OSM    H7S16889   0.578   4.995   2.888 -0.2787  0.2868 -0.7023
  152OSM    H7T16890   0.421   4.994   2.781  0.2817  1.1938 -2.1612
  152OSM    C8S16891   0.416   5.114   2.956  0.6929 -0.1451 -0.2987
  152OSM    H8S16892   0.323   5.154   2.912  0.7881 -1.2666 -1.5714
  152OSM    H8T16893   0.464   5.194   3.016 -0.8407 -0.0718  0.9094
  152OSM    C9S16894   0.376   5.000   3.051 -0.2583  0.4110 -0.2140
  152OSM    H9S16895   0.416   4.906   3.008 -0.7881  0.0474  0.0662
  152OSM    H9T16896   0.265   4.996   3.052 -0.3423  1.2203  2.3580
  152OSM   C10S16897   0.432   5.018   3.197 -0.1281  0.0529 -0.1216
  152OSM   H10S16898   0.372   5.098   3.245 -0.6553 -0.9777  0.9935
  152OSM   H10T16899   0.536   5.054   3.180  0.7484 -0.5359  3.3675
  152OSM   C11S16900   0.414   4.895   3.284 -0.4582 -0.1070 -0.2735
  152OSM   H11S16901   0.445   4.806   3.226  1.7247 -0.4631  1.3037
  152OSM   H11T16902   0.308   4.886   3.316 -0.2532  0.4420  0.6057
  152OSM   C12S16903   0.488   4.909   3.415 -0.4502  1.0263  0.0764
  152OSM   H12S16904   0.427   4.986   3.467 -2.2159 -0.1031 -0.2296
  152OSM   H12T16905   0.596   4.933   3.407 -0.5950  2.3162  1.6130
  152OSM   C13S16906   0.473   4.782   3.501 -0.1714  0.2125 -0.1666
  152OSM   H13S16907   0.550   4.709   3.468 -0.1476 -0.4127  1.1740
  152OSM   H13T16908   0.381   4.724   3.479 -0.5385 -0.0179  1.7498
  152OSM   C14S16909   0.491   4.803   3.653  0.1752 -0.3513  0.0022
  152OSM   H14S16910   0.425   4.886   3.687  0.7778  0.6788 -1.2619
  152OSM   H14T16911   0.593   4.829   3.687 -0.1943  1.4703 -0.1747
  152OSM   C15S16912   0.448   4.676   3.729  0.7909 -0.1476  0.0369
  152OSM   H15S16913   0.523   4.599   3.701 -0.1429 -0.8954 -0.4639
  152OSM   H15T16914   0.347   4.654   3.688 -0.1127  1.2431  1.4168
  152OSM   C16S16915   0.448   4.687   3.882 -1.0204  0.6783  0.3989
  152OSM   H16S16916   0.372   4.620   3.926 -1.7688  0.8556 -0.5716
  152OSM   H16T16917   0.418   4.785   3.925  1.2389  1.5967  0.0489
  152OSM   C17S16918   0.590   4.633   3.935  0.7405 -0.0586 -0.2226
  152OSM   H17S16919   0.675   4.704   3.927  0.8386 -0.3133 -1.8955
  152OSM   H17T16920   0.623   4.548   3.871  0.9475 -0.4310  0.3685
  152OSM   C18S16921   0.580   4.586   4.081  0.2465  0.6564  0.2557
  152OSM   H18S16922   0.555   4.674   4.145 -3.1265 -0.3819  0.5742
  152OSM   H18T16923   0.669   4.529   4.117  0.6580  0.4636 -1.0046
  152OSM   H18U16924   0.494   4.516   4.083  0.9225 -0.1935  1.7406
  152OSM    C1F16925   0.902   4.718   2.621  0.1037 -0.2066 -0.2173
  152OSM     OF16926   1.018   4.734   2.574 -0.1851 -0.0085 -0.9366
  152OSM    C2F16927   0.872   4.648   2.744  0.2285  0.7157 -0.7178
  152OSM    H2F16928   0.964   4.590   2.769 -0.6644 -0.4191  0.0537
  152OSM    H2G16929   0.790   4.578   2.718  0.0356  1.5557 -2.4984
  152OSM    C3F16930   0.832   4.742   2.856  0.0063  0.4325  0.1677
  152OSM    H3F16931   0.758   4.819   2.826  0.6616  0.4934 -1.3942
  152OSM    H3G16932   0.920   4.796   2.898  0.8419 -0.3220 -0.5870
  152OSM    C4F16933   0.769   4.668   2.976 -0.4489  0.1693 -0.3871
  152OSM    H4F16934   0.851   4.617   3.031 -0.9902  0.4139  0.6860
  152OSM    H4G16935   0.692   4.601   2.933 -0.3377  0.5493 -1.1959
  152OSM    C5F16936   0.693   4.766   3.071 -0.3940  0.4482  0.0594
  152OSM    H5F16937   0.596   4.721   3.102  0.0126 -0.1399  0.4947
  152OSM    H5G16938   0.668   4.857   3.012 -1.3961 -0.5160 -1.0603
  152OSM    C6F16939   0.774   4.818   3.187  0.1942  0.0403  0.2723
  152OSM    H6F16940   0.724   4.907   3.230  1.0642  0.6537  0.0563
  152OSM    H6G16941   0.875   4.856   3.159  0.6724  0.8018  2.7573
  152OSM    C7F16942   0.793   4.705   3.291  0.1423  0.0910 -0.4984
  152OSM    H7F16943   0.857   4.627   3.245 -0.2268  0.8774 -2.4864
  152OSM    H7G16944   0.692   4.666   3.317 -0.4807  0.6411 -1.9559
  152OSM    C8F16945   0.866   4.759   3.417  0.3750  0.0962  0.3409
  152OSM    H8F16946   0.792   4.826   3.466 -1.0298 -0.0532 -1.4596
  152OSM    H8G16947   0.948   4.820   3.374 -2.5059  2.5798 -2.1215
  152OSM    C9F16948   0.894   4.641   3.502 -0.2452 -0.0710  0.1469
  152OSM    H9F16949   0.819   4.560   3.499  1.0679 -1.3382  0.5163
  152OSM   C10F16950   1.000   4.624   3.584  0.7705  0.1744  0.4846
  152OSM   H10F16951   1.018   4.530   3.637 -0.1473  0.1329  0.7369
  152OSM   C11F16952   1.116   4.719   3.595  0.4373 -0.0942  0.1183
  152OSM   H11F16953   1.108   4.811   3.533  4.1423 -0.1720 -0.6745
  152OSM   H11G16954   1.204   4.660   3.564  0.2080 -1.8930  2.5321
  152OSM   C12F16955   1.133   4.768   3.744 -0.0916 -0.1483 -0.6437
  152OSM   H12F16956   1.036   4.750   3.794  0.8052 -1.9325  0.5601
  152OSM   H12G16957   1.151   4.877   3.741 -0.4481  0.1249  2.9778
  152OSM   C13F16958   1.240   4.686   3.826  0.5196  0.2730  0.1670
  152OSM   H13F16959   1.333   4.682   3.765  1.0892 -1.3091  1.1124
  152OSM   H13G16960   1.209   4.581   3.841  0.5517  0.3001  0.4232
  152OSM   C14F16961   1.290   4.748   3.959 -0.2537  0.4494  0.1274
  152OSM   H14F16962   1.316   4.853   3.935 -0.8861  0.4609 -0.5077
  152OSM   H14G16963   1.391   4.704   3.978 -0.4112  0.1146  0.2126
  152OSM   C15F16964   1.200   4.726   4.083 -0.1368 -0.0714 -0.2949
  152OSM   H15F16965   1.244   4.745   4.183 -0.0479  1.4151 -0.5794
  152OSM   H15G16966   1.170   4.619   4.077 -1.4617  0.2774 -0.3107
  152OSM   C16F16967   1.060   4.787   4.088  0.2751 -0.1670 -0.1088
  152OSM   H16F16968   1.002   4.745   4.004  1.4418 -2.2461  0.0746
  152OSM   H16G16969   1.056   4.898   4.075 -2.3458 -0.0767  0.7611
  152OSM   C17F16970   0.978   4.763   4.219 -0.0366 -0.3923  0.2576
  152OSM   H17F16971   1.043   4.790   4.306  1.2413  0.6205 -0.9579
  152OSM   H17G16972   0.967   4.653   4.229  1.8217 -0.6818 -0.5130
  152OSM   C18F16973   0.842   4.836   4.218  0.3860  0.8389  0.3125
  152OSM   H18F16974   0.773   4.783   4.150  0.9785 -0.8964  1.0109
  152OSM   H18G16975   0.843   4.941   4.181 -1.1254  0.5314 -0.6786
  152OSM   H18H16976   0.801   4.815   4.319 -0.2638 -2.9187 -0.5799
  153OSM      N16977   1.004   4.067   2.037 -0.7133 -0.1033 -0.5026
  153OSM    C1516978   0.959   4.210   2.025 -0.0386  0.9874 -0.0084
  153OSM   H15A16979   0.851   4.220   2.018 -0.2508 -1.0857 -0.5139
  153OSM   H15B16980   0.999   4.265   1.942 -1.2278  2.5901  0.4269
  153OSM   H15C16981   0.988   4.269   2.111 -0.8430  2.8284 -0.9553
  153OSM    C1416982   0.933   3.986   1.937  0.5082 -0.1186  0.4090
  153OSM   H14A16983   0.974   3.887   1.943  0.6178 -0.0926  0.1165
  153OSM   H14B16984   0.945   4.019   1.835  0.4409 -0.5051  0.2770
  153OSM   H14C16985   0.828   3.983   1.962  0.4351 -1.3414 -0.0062
  153OSM    C1316986   1.149   4.055   2.002 -0.0107  0.4705  0.1546
  153OSM   H13A16987   1.201   4.117   2.073 -1.2118  1.7125  0.0131
  153OSM   H13B16988   1.183   4.079   1.902  0.3354  0.2454  0.2172
  153OSM   H13C16989   1.184   3.954   2.015  0.5324  0.6417  0.0442
  153OSM    C1216990   0.979   4.005   2.178  0.3305  0.0559  0.0720
  153OSM   H12A16991   1.018   3.905   2.182 -2.7071 -1.2576 -0.3207
  153OSM   H12B16992   0.874   3.984   2.193  0.5167 -0.5640  0.5536
  153OSM    C1116993   1.023   4.080   2.307 -0.4707 -0.3033 -0.1200
  153OSM   H11A16994   0.983   4.039   2.402 -0.6794  1.6110  0.6798
  153OSM   H11B16995   0.977   4.181   2.293 -1.4804 -0.7049  0.2118
  153OSM      P16996   1.234   3.954   2.356 -0.0784 -0.0958 -0.5118
  153OSM    O1316997   1.165   3.832   2.309  0.3206 -0.7729 -0.1704
  153OSM    O1416998   1.376   3.975   2.321  0.2625 -0.7627 -0.2098
  153OSM    O1116999   1.222   3.954   2.512  0.1840 -0.1163  0.1096
  153OSM    O1217000   1.167   4.088   2.312  0.5308  0.0208 -0.6079
  153OSM    C1S17001   1.301   4.059   2.576  0.4124  0.1896  0.1523
  153OSM    H1S17002   1.256   4.159   2.554 -0.4173  0.4390  2.6715
  153OSM    H1T17003   1.408   4.056   2.547  0.7777  2.5614  1.0017
  153OSM     NF17004   1.341   4.183   2.783  0.0550 -0.2486 -1.1062
  153OSM    HNF17005   1.439   4.180   2.803 -0.2050  0.6071  0.4665
  153OSM    C2S17006   1.292   4.053   2.730 -0.2250 -1.2886 -0.0516
  153OSM    H2S17007   1.185   4.037   2.753 -0.1420 -1.0874  0.4849
  153OSM    C3S17008   1.368   3.932   2.789 -0.7706  0.6042  0.4354
  153OSM    H3S17009   1.477   3.945   2.779 -0.2483 -1.9739  1.7050
  153OSM     O317010   1.348   3.804   2.727  0.6867  0.2225  0.4605
  153OSM    HO317011   1.285   3.817   2.656  0.9658 -0.2250  0.1288
  153OSM    C4S17012   1.350   3.917   2.936 -0.7651  0.2944 -0.3654
  153OSM    H4S17013   1.444   3.953   2.980  1.1664 -1.6364 -2.6149
  153OSM    C5S17014   1.257   3.859   3.013  0.7045  0.3403 -0.8616
  153OSM    H5S17015   1.178   3.805   2.959 -0.7648 -1.0878  2.4596
  153OSM    C6S17016   1.254   3.848   3.165  0.1882  0.2509  0.1597
  153OSM    H6S17017   1.279   3.742   3.185 -1.1014  0.1231  1.2333
  153OSM    H6T17018   1.154   3.878   3.203  0.8048 -0.3326  2.4039
  153OSM    C7S17019   1.350   3.942   3.253 -0.0945  0.4446  0.3249
  153OSM    H7S17020   1.328   4.044   3.215  0.4843  0.3606 -0.2558
  153OSM    H7T17021   1.455   3.910   3.232 -0.6966 -0.8992 -0.7871
  153OSM    C8S17022   1.330   3.947   3.402 -0.3348 -0.1850  0.3962
  153OSM    H8S17023   1.223   3.959   3.430  0.1745  0.2976  2.2660
  153OSM    H8T17024   1.374   4.040   3.444 -1.0899  0.7964 -0.9146
  153OSM    C9S17025   1.384   3.823   3.474  0.3217 -0.1585 -0.0201
  153OSM    H9S17026   1.495   3.824   3.471  0.5457  2.3544  3.3496
  153OSM    H9T17027   1.354   3.730   3.422 -1.3262  0.9930 -1.2451
  153OSM   C10S17028   1.347   3.812   3.622  0.3487 -0.2898  0.2283
  153OSM   H10S17029   1.358   3.705   3.648  2.4648 -0.1861 -0.0227
  153OSM   H10T17030   1.251   3.862   3.648  1.0701  2.2557 -1.5566
  153OSM   C11S17031   1.444   3.886   3.716  0.3539 -0.5636 -0.2887
  153OSM   H11S17032   1.532   3.928   3.662  0.5024  0.9698  1.0826
  153OSM   H11T17033   1.479   3.817   3.795  1.0889  0.2519  0.1194
  153OSM   C12S17034   1.388   4.014   3.787  0.2199  0.2983  0.2489
  153OSM   H12S17035   1.309   4.064   3.727  2.3276  2.1060 -1.1155
  153OSM   H12T17036   1.468   4.087   3.809  0.4682  0.0145  0.2950
  153OSM   C13S17037   1.338   3.983   3.927 -0.1472 -0.1411 -0.1453
  153OSM   H13S17038   1.272   3.895   3.939  1.0534 -0.9432  0.8348
  153OSM   H13T17039   1.276   4.069   3.961  0.9700  0.4329  0.4951
  153OSM   C14S17040   1.451   3.954   4.027 -0.4599 -0.4979 -0.6035
  153OSM   H14S17041   1.551   3.993   3.999 -1.0097  0.7668 -0.8898
  153OSM   H14T17042   1.478   3.848   4.041 -0.5240 -0.2224  2.1891
  153OSM   C15S17043   1.410   3.982   4.171  0.4167 -0.2417  0.1702
  153OSM   H15S17044   1.442   3.897   4.235  0.8954  0.8484  1.4215
  153OSM   H15T17045   1.301   3.999   4.179  0.1820  0.2196 -2.8203
  153OSM   C16S17046   1.468   4.110   4.219  0.2017 -0.7177  0.2716
  153OSM   H16S17047   1.431   4.189   4.150 -1.2772  0.7805  2.6321
  153OSM   H16T17048   1.579   4.100   4.211  0.2029 -1.5793  1.1194
  153OSM   C17S17049   1.440   4.145   4.368  0.1800 -0.0594 -0.0018
  153OSM   H17S17050   1.337   4.183   4.382  0.1369 -0.0728 -0.2788
  153OSM   H17T17051   1.509   4.227   4.401 -1.2869  0.4790  1.9119
  153OSM   C18S17052   1.470   4.028   4.462 -0.2592 -0.6513  0.4327
  153OSM   H18S17053   1.404   3.941   4.445 -1.2886 -0.1637  1.7799
  153OSM   H18T17054   1.453   4.061   4.566  3.6000 -2.6208  1.8990
  153OSM   H18U17055   1.577   3.997   4.463  0.5470  1.7647 -0.7857
  153OSM    C1F17056   1.272   4.295   2.801 -0.2720 -0.2313 -0.0595
  153OSM     OF17057   1.160   4.303   2.751 -0.1515 -0.8759  0.1344
  153OSM    C2F17058   1.338   4.401   2.883  0.4766 -0.3204  0.6322
  153OSM    H2F17059   1.444   4.414   2.853  1.2355 -4.8180  0.6072
  153OSM    H2G17060   1.347   4.363   2.987  0.3383 -0.0759  0.7330
  153OSM    C3F17061   1.255   4.527   2.883 -0.0062  1.2636 -0.0182
  153OSM    H3F17062   1.159   4.500   2.931  0.9311 -0.0086  1.2365
  153OSM    H3G17063   1.239   4.549   2.775  2.0233  1.2422 -0.3633
  153OSM    C4F17064   1.304   4.652   2.952 -0.5925 -0.1703  0.6367
  153OSM    H4F17065   1.255   4.732   2.893  3.1709  0.3547 -2.1493
  153OSM    H4G17066   1.411   4.665   2.925 -1.3550  3.7127 -1.2280
  153OSM    C5F17067   1.270   4.665   3.099 -0.0263 -0.6393 -0.1569
  153OSM    H5F17068   1.346   4.599   3.145  0.0161 -1.3879 -1.2549
  153OSM    H5G17069   1.166   4.628   3.111 -0.7244  1.0021 -0.7475
  153OSM    C6F17070   1.289   4.810   3.135 -0.3272 -0.6471 -0.0069
  153OSM    H6F17071   1.237   4.887   3.073  2.2288  3.8060  2.8213
  153OSM    H6G17072   1.397   4.826   3.111 -0.1738  2.3534  2.1312
  153OSM    C7F17073   1.259   4.838   3.275 -0.1634  0.3564 -0.2087
  153OSM    H7F17074   1.337   4.774   3.321 -0.2670  0.2955 -0.1187
  153OSM    H7G17075   1.161   4.795   3.307 -0.4589  1.7921  0.9633
  153OSM    C8F17076   1.271   4.986   3.314 -0.8476 -0.0484  0.3573
  153OSM    H8F17077   1.368   5.022   3.274 -1.4657  1.0921 -0.1576
  153OSM    H8G17078   1.276   4.994   3.425 -0.2807  2.5482  0.2051
  153OSM    C9F17079   1.161   5.073   3.264 -0.3357  0.1829 -0.8501
  153OSM    H9F17080   1.164   5.075   3.154  1.6271  0.9268 -0.8160
  153OSM   C10F17081   1.072   5.139   3.339 -0.0400 -0.5730 -0.3575
  153OSM   H10F17082   0.988   5.191   3.290  0.6346  2.4419  1.4345
  153OSM   C11F17083   1.075   5.150   3.488  0.6324 -0.6379  0.2344
  153OSM   H11F17084   1.127   5.242   3.521 -0.0206  0.0567 -0.6175
  153OSM   H11G17085   1.123   5.063   3.538 -1.6456 -1.3693  1.3259
  153OSM   C12F17086   0.930   5.163   3.557 -0.0793 -0.6223  0.5990
  153OSM   H12F17087   0.862   5.081   3.522  0.6164 -0.9716  0.0306
  153OSM   H12G17088   0.876   5.257   3.532 -3.7376 -1.9212  2.8932
  153OSM   C13F17089   0.951   5.161   3.715  0.7138  0.2430  0.4675
  153OSM   H13F17090   0.996   5.257   3.750 -2.2947  1.0498  2.5589
  153OSM   H13G17091   1.022   5.079   3.735 -0.5633 -0.8984  0.4498
  153OSM   C14F17092   0.820   5.132   3.788  0.1986 -0.0527  0.3826
  153OSM   H14F17093   0.782   5.041   3.739  0.8197 -0.5879  0.8703
  153OSM   H14G17094   0.739   5.206   3.766  0.1097 -0.3628 -0.3547
  153OSM   C15F17095   0.826   5.105   3.941  0.0172 -0.4278  0.3413
  153OSM   H15F17096   0.889   5.181   3.992 -0.6630 -1.4836  2.9452
  153OSM   H15G17097   0.882   5.012   3.968  3.5046  1.2398 -0.5653
  153OSM   C16F17098   0.686   5.128   3.999 -0.4983 -0.0789  1.0646
  153OSM   H16F17099   0.678   5.238   3.995  0.2463 -0.0644 -1.7744
  153OSM   H16G17100   0.697   5.098   4.106  1.7627 -0.7280  0.7097
  153OSM   C17F17101   0.577   5.045   3.937 -0.8215 -0.1930 -0.5214
  153OSM   H17F17102   0.602   4.940   3.963  2.0031  1.0672  2.7292
  153OSM   H17G17103   0.581   5.075   3.830  2.1069  2.5471  0.1950
  153OSM   C18F17104   0.441   5.080   3.987 -0.1815  0.3807  0.3244
  153OSM   H18F17105   0.416   5.054   4.092 -0.6112 -1.1642 -0.1373
  153OSM   H18G17106   0.368   5.026   3.924 -1.9275  3.3874 -0.4499
  153OSM   H18H17107   0.419   5.188   3.971  1.4879  1.0936  2.3943
  154OSM      N17108   1.369   1.948   2.764 -0.3187  0.2063 -0.6705
  154OSM    C1517109   1.251   2.037   2.803 -0.1610 -0.0425  0.3873
  154OSM   H15A17110   1.177   1.976   2.852  0.3164  0.4266  1.7637
  154OSM   H15B17111   1.198   2.078   2.718  0.1191  0.4976  0.4680
  154OSM   H15C17112   1.284   2.108   2.878 -1.0297 -2.7745  3.5838
  154OSM    C1417113   1.321   1.855   2.661  0.3792 -0.4772  0.3179
  154OSM   H14A17114   1.240   1.794   2.697 -1.1305  1.3538  0.1767
  154OSM   H14B17115   1.399   1.787   2.629  0.1774  0.3307 -2.1137
  154OSM   H14C17116   1.283   1.903   2.572  1.2260  1.9951  1.1971
  154OSM    C1317117   1.478   2.025   2.701 -0.2399  0.0010 -0.7688
  154OSM   H13A17118   1.446   2.059   2.604  0.8077  0.9504 -0.8033
  154OSM   H13B17119   1.562   1.959   2.682 -0.7645 -0.2684 -2.2318
  154OSM   H13C17120   1.503   2.112   2.760 -3.5374  0.2876  0.3792
  154OSM    C1217121   1.426   1.875   2.888  0.0483 -0.4857  0.0398
  154OSM   H12A17122   1.427   1.947   2.968 -1.9195 -0.2582 -0.0973
  154OSM   H12B17123   1.533   1.864   2.877  0.0276  0.8982 -2.3738
  154OSM    C1117124   1.369   1.737   2.924  0.3904  0.8254 -0.2007
  154OSM   H11A17125   1.258   1.748   2.922  0.3135  0.8839  2.2584
  154OSM   H11B17126   1.390   1.716   3.031 -0.2315  1.2557  0.0126
  154OSM      P17127   1.546   1.559   2.873  0.1736  0.0431  0.5119
  154OSM    O1317128   1.596   1.485   2.753 -0.2603 -0.6731  0.2630
  154OSM    O1417129   1.645   1.657   2.929 -0.0569 -0.1613 -0.1355
  154OSM    O1117130   1.498   1.459   2.978 -0.4737  0.0765  0.6979
  154OSM    O1217131   1.412   1.629   2.835  0.3034  0.3716  0.0989
  154OSM    C1S17132   1.386   1.374   2.942  0.5279  0.7791 -0.2123
  154OSM    H1S17133   1.416   1.314   2.853  0.9076 -0.5984  0.7944
  154OSM    H1T17134   1.293   1.429   2.917 -0.3639 -0.5517  0.0632
  154OSM     NF17135   1.301   1.151   3.014 -1.0126 -0.2875 -0.1275
  154OSM    HNF17136   1.203   1.133   3.010 -0.8504 -1.0695 -0.8046
  154OSM    C2S17137   1.357   1.280   3.064 -0.5028  0.4718 -0.2236
  154OSM    H2S17138   1.459   1.266   3.107  0.2299  2.6008 -1.1120
  154OSM    C3S17139   1.274   1.361   3.171  0.0949  0.4872  0.2276
  154OSM    H3S17140   1.176   1.375   3.122  1.5378 -0.0438 -3.0702
  154OSM     O317141   1.328   1.489   3.186 -0.1181 -0.3192 -0.3176
  154OSM    HO317142   1.396   1.500   3.118  1.2267 -0.0265  1.0092
  154OSM    C4S17143   1.255   1.305   3.306  0.4212  0.0104 -0.3029
  154OSM    H4S17144   1.160   1.323   3.358  1.2373 -1.3632  1.8104
  154OSM    C5S17145   1.343   1.248   3.384  0.2501  0.5704 -0.1406
  154OSM    H5S17146   1.440   1.222   3.340 -0.4022  0.0109 -1.2870
  154OSM    C6S17147   1.299   1.200   3.518 -0.2429 -0.3105  0.5027
  154OSM    H6S17148   1.229   1.269   3.571  0.5133  1.7206 -1.0509
  154OSM    H6T17149   1.387   1.188   3.584  1.1741 -0.1274 -1.2898
  154OSM    C7S17150   1.233   1.055   3.533 -0.4760  0.8007 -0.1993
  154OSM    H7S17151   1.309   0.974   3.529 -1.5436 -0.4252  2.2403
  154OSM    H7T17152   1.166   1.034   3.446 -0.5926  1.2069 -0.2119
  154OSM    C8S17153   1.156   1.031   3.667  0.5488 -1.0363  0.6008
  154OSM    H8S17154   1.118   0.927   3.676  0.4428 -1.1354 -0.7811
  154OSM    H8T17155   1.064   1.090   3.649  1.5491 -0.3054 -2.9955
  154OSM    C9S17156   1.221   1.077   3.805  0.0711  0.7974  0.3632
  154OSM    H9S17157   1.137   1.106   3.872 -0.6587  1.0187 -0.6298
  154OSM    H9T17158   1.290   1.163   3.795  0.1316  0.7223  0.1209
  154OSM   C10S17159   1.294   0.954   3.864  0.1657  0.4973  0.5305
  154OSM   H10S17160   1.387   0.938   3.805 -0.6798  0.7845 -0.9173
  154OSM   H10T17161   1.232   0.863   3.850  2.3798 -1.1602  1.0588
  154OSM   C11S17162   1.338   0.966   4.006 -0.6954 -0.7697 -0.1821
  154OSM   H11S17163   1.254   1.006   4.066  0.3548  2.8063 -0.8362
  154OSM   H11T17164   1.403   1.056   3.998 -1.1643 -0.1436  2.2585
  154OSM   C12S17165   1.419   0.848   4.067 -0.2403 -0.7061  0.0317
  154OSM   H12S17166   1.512   0.841   4.007 -0.4576  1.5581 -0.6642
  154OSM   H12T17167   1.369   0.750   4.060 -3.3310  0.6800  0.8632
  154OSM   C13S17168   1.469   0.895   4.209  0.0569  0.2901 -0.6213
  154OSM   H13S17169   1.508   0.998   4.206  0.7695  0.0539  0.2095
  154OSM   H13T17170   1.556   0.831   4.236 -1.0284 -0.9894  0.0212
  154OSM   C14S17171   1.354   0.874   4.310  1.0004 -0.0017 -0.3196
  154OSM   H14S17172   1.324   0.767   4.323 -0.1317  0.2413 -0.7927
  154OSM   H14T17173   1.265   0.935   4.284  0.5807 -0.4501  0.0506
  154OSM   C15S17174   1.393   0.930   4.447  0.3505  0.4209  0.3639
  154OSM   H15S17175   1.307   0.922   4.516  0.8289 -1.1957  0.8222
  154OSM   H15T17176   1.433   1.034   4.444 -1.7832  1.3696  2.1638
  154OSM   C16S17177   1.512   0.849   4.518  0.2136 -0.8119 -0.5943
  154OSM   H16S17178   1.518   0.919   4.604  1.1260 -1.2968 -0.2467
  154OSM   H16T17179   1.609   0.854   4.464  1.9969 -0.8848  2.3810
  154OSM   C17S17180   1.483   0.709   4.565 -0.5600 -0.1906 -0.0291
  154OSM   H17S17181   1.499   0.640   4.479 -2.6875  0.7121 -1.2450
  154OSM   H17T17182   1.373   0.706   4.581 -1.1915  4.0430 -2.0301
  154OSM   C18S17183   1.557   0.677   4.692  0.1563  1.1849  0.1956
  154OSM   H18S17184   1.519   0.728   4.783  1.2093 -0.1815  1.4672
  154OSM   H18T17185   1.663   0.708   4.683 -0.6068  3.5241 -2.0183
  154OSM   H18U17186   1.551   0.569   4.718  1.5118  1.0580  0.0580
  154OSM    C1F17187   1.389   1.066   2.960  0.1179  0.0848  0.1890
  154OSM     OF17188   1.510   1.091   2.944  0.2943 -0.1790  0.2945
  154OSM    C2F17189   1.332   0.939   2.910  0.1355  0.2362  0.1441
  154OSM    H2F17190   1.350   0.930   2.801  0.7051 -2.3081  0.3785
  154OSM    H2G17191   1.223   0.943   2.931 -0.2242 -0.8137 -1.3512
  154OSM    C3F17192   1.393   0.818   2.982 -0.1185  0.8592 -0.1923
  154OSM    H3F17193   1.496   0.795   2.947 -0.3997 -0.0267 -0.4927
  154OSM    H3G17194   1.328   0.728   2.974 -0.2931  0.9745 -0.0906
  154OSM    C4F17195   1.387   0.836   3.130 -0.0980  0.5980  0.4086
  154OSM    H4F17196   1.284   0.865   3.161 -0.0656 -0.7086  1.8257
  154OSM    H4G17197   1.464   0.911   3.158  3.0228 -2.0055 -0.5492
  154OSM    C5F17198   1.454   0.721   3.209 -0.9656  0.9389 -0.3118
  154OSM    H5F17199   1.553   0.712   3.160  0.0201  1.2073  1.5696
  154OSM    H5G17200   1.400   0.626   3.187  2.2663 -0.7057 -1.9273
  154OSM    C6F17201   1.491   0.758   3.359  0.4555 -0.2568  0.0415
  154OSM    H6F17202   1.485   0.663   3.415 -0.7006 -0.8031 -0.9660
  154OSM    H6G17203   1.407   0.821   3.397 -0.8957  1.0385 -4.4248
  154OSM    C7F17204   1.628   0.824   3.368 -0.1454 -0.9069  0.1698
  154OSM    H7F17205   1.631   0.901   3.288  2.4023  0.5546  1.5467
  154OSM    H7G17206   1.711   0.753   3.353 -0.2059 -0.6326 -1.6791
  154OSM    C8F17207   1.633   0.891   3.499  0.4928 -0.4934  0.1229
  154OSM    H8F17208   1.633   0.810   3.575 -0.0928 -0.1795  0.4624
  154OSM    H8G17209   1.546   0.956   3.521 -1.0566 -2.0163 -1.2952
  154OSM    C9F17210   1.764   0.964   3.530  0.0041  0.1147 -0.1186
  154OSM    H9F17211   1.825   0.975   3.439  0.5711 -0.3541  0.2014
  154OSM   C10F17212   1.824   0.996   3.645  0.1108  0.3200  0.1963
  154OSM   H10F17213   1.929   1.029   3.643  0.7868 -1.3805  2.6306
  154OSM   C11F17214   1.765   0.986   3.780 -0.3204 -0.0989  0.2070
  154OSM   H11F17215   1.673   0.926   3.796 -0.3725  0.1150  0.7473
  154OSM   H11G17216   1.742   1.090   3.812 -3.7432 -1.2744  2.0895
  154OSM   C12F17217   1.867   0.929   3.875 -0.0939  0.4353 -0.0352
  154OSM   H12F17218   1.942   1.008   3.894  0.6298 -0.2322 -0.0992
  154OSM   H12G17219   1.911   0.832   3.843 -1.5021 -0.7748  1.5012
  154OSM   C13F17220   1.817   0.900   4.016 -0.6366  0.2376  0.8602
  154OSM   H13F17221   1.731   0.829   4.020  0.1634 -1.0463 -2.1266
  154OSM   H13G17222   1.776   0.993   4.061 -0.3302  0.0470  1.5389
  154OSM   C14F17223   1.922   0.837   4.106  0.2499 -0.5732 -0.1188
  154OSM   H14F17224   1.989   0.926   4.112 -1.9321  1.0844  0.7507
  154OSM   H14G17225   1.953   0.748   4.046  0.7180  0.0095 -0.7685
  154OSM   C15F17226   1.863   0.809   4.241  0.3791  0.2301 -0.6438
  154OSM   H15F17227   1.772   0.745   4.239  1.3042 -1.2876  1.7537
  154OSM   H15G17228   1.832   0.905   4.287  1.3776  0.1298  0.2652
  154OSM   C16F17229   1.961   0.736   4.334 -0.2566 -0.1324 -0.0432
  154OSM   H16F17230   2.044   0.807   4.354 -1.2029  0.8932  0.3135
  154OSM   H16G17231   2.001   0.645   4.283 -1.2532 -0.2039 -0.7352
  154OSM   C17F17232   1.889   0.693   4.464 -0.3455 -0.2006  0.3930
  154OSM   H17F17233   1.799   0.632   4.443  0.2365 -0.8253 -0.3663
  154OSM   H17G17234   1.847   0.784   4.513 -1.5904 -1.3288  1.4762
  154OSM   C18F17235   1.977   0.622   4.562  0.1327  0.1003 -0.1339
  154OSM   H18F17236   1.912   0.614   4.652 -1.5570 -0.1363 -1.3311
  154OSM   H18G17237   2.068   0.686   4.563 -0.3849  0.8441 -0.6713
  154OSM   H18H17238   2.007   0.526   4.514  1.5202  0.8610 -0.8351
  155OSM      N17239   0.384   5.332   2.387  0.1300 -0.1970  0.5688
  155OSM    C1517240   0.287   5.268   2.477 -0.2680  0.3301  0.6284
  155OSM   H15A17241   0.292   5.160   2.476  1.0528  0.3418  2.0748
  155OSM   H15B17242   0.188   5.301   2.447 -0.4964 -1.5276 -0.8533
  155OSM   H15C17243   0.293   5.298   2.580 -1.3200 -0.1050  0.8338
  155OSM    C1417244   0.350   5.479   2.394 -0.1595  0.7033 -0.0549
  155OSM   H14A17245   0.258   5.514   2.350 -0.3724  2.4121  1.6426
  155OSM   H14B17246   0.428   5.529   2.338  0.0365  1.5261  0.9330
  155OSM   H14C17247   0.351   5.513   2.496 -4.3279  0.0860  0.3436
  155OSM    C1317248   0.523   5.319   2.425 -0.1041  0.0493  0.0574
  155OSM   H13A17249   0.539   5.344   2.528 -0.8825  3.0722 -0.4606
  155OSM   H13B17250   0.575   5.382   2.355 -2.1303 -0.2795 -1.8748
  155OSM   H13C17251   0.561   5.219   2.413 -1.5962 -0.7234  1.3152
  155OSM    C1217252   0.375   5.279   2.240 -0.2277 -0.1365  0.2491
  155OSM   H12A17253   0.395   5.174   2.255  3.7407  0.0046 -2.4551
  155OSM   H12B17254   0.457   5.320   2.184 -1.0330  0.7720 -0.3061
  155OSM    C1117255   0.243   5.304   2.166 -0.1500 -0.4834 -0.5460
  155OSM   H11A17256   0.264   5.261   2.065 -0.5488 -1.4225 -0.2426
  155OSM   H11B17257   0.223   5.412   2.149  0.9077 -0.0043  1.0319
  155OSM      P17258  -0.014   5.283   2.238 -0.3667 -0.0887  0.1000
  155OSM    O1317259  -0.055   5.355   2.114  0.5846  0.4386 -0.5831
  155OSM    O1417260  -0.106   5.179   2.291  0.3143  0.5290 -0.0991
  155OSM    O1117261  -0.011   5.406   2.344 -0.3840 -0.3016 -0.1281
  155OSM    O1217262   0.133   5.233   2.234 -0.2511  0.2078  0.5456
  155OSM    C1S17263  -0.047   5.383   2.483  0.2438 -0.2095  0.3111
  155OSM    H1S17264   0.010   5.293   2.515  1.0589  0.5567  1.0814
  155OSM    H1T17265  -0.156   5.375   2.502  0.4710 -0.2003  1.7194
  155OSM     NF17266  -0.032   5.457   2.724  0.2226  0.4079 -0.3047
  155OSM    HNF17267  -0.108   5.498   2.773 -0.3438  0.2501 -1.0226
  155OSM    C2S17268  -0.001   5.498   2.586  0.6039  0.0128  0.3998
  155OSM    H2S17269   0.109   5.509   2.570  0.0061  1.8299 -3.5425
  155OSM    C3S17270  -0.056   5.633   2.541  0.2063 -0.1280  0.2560
  155OSM    H3S17271  -0.166   5.621   2.548  0.1259 -0.2278 -0.9681
  155OSM     O317272  -0.026   5.664   2.404 -0.1883 -0.1552 -0.5254
  155OSM    HO317273  -0.007   5.585   2.354 -0.3805 -1.0252  0.7225
  155OSM    C4S17274  -0.014   5.746   2.635  0.4939 -0.0299 -0.4232
  155OSM    H4S17275  -0.088   5.759   2.715  1.9600 -2.0608  1.4085
  155OSM    C5S17276   0.096   5.814   2.639  0.3229 -0.8088 -0.6471
  155OSM    H5S17277   0.177   5.802   2.566 -0.8693 -0.5639 -2.0676
  155OSM    C6S17278   0.128   5.924   2.742 -0.4606 -0.2497  0.3940
  155OSM    H6S17279   0.103   6.019   2.690 -1.2615 -0.4091  0.4647
  155OSM    H6T17280   0.237   5.930   2.761 -0.2042 -1.1769 -0.7395
  155OSM    C7S17281   0.050   5.928   2.876 -0.3139  0.1144 -0.1401
  155OSM    H7S17282   0.069   5.832   2.929  0.6110 -0.7922 -2.0014
  155OSM    H7T17283  -0.058   5.940   2.855 -0.7647 -2.4483  0.3954
  155OSM    C8S17284   0.084   6.055   2.962 -0.3930 -0.2672 -0.2397
  155OSM    H8S17285  -0.007   6.082   3.019 -0.3324  1.2135 -0.8091
  155OSM    H8T17286   0.107   6.138   2.893 -0.8742 -0.2251 -0.3571
  155OSM    C9S17287   0.216   6.041   3.053 -0.5419 -1.3246  0.2462
  155OSM    H9S17288   0.250   6.141   3.088  0.7030 -1.6572  0.0465
  155OSM    H9T17289   0.301   6.013   2.987 -0.6531 -0.5577 -0.2286
  155OSM   C10S17290   0.193   5.955   3.170 -0.5162  0.3757 -0.0052
  155OSM   H10S17291   0.291   5.906   3.190 -0.6592 -0.7372 -1.7660
  155OSM   H10T17292   0.115   5.880   3.144 -0.8459  0.6435  0.1954
  155OSM   C11S17293   0.148   6.023   3.300 -0.0319 -0.4671  0.3771
  155OSM   H11S17294   0.059   6.089   3.288 -0.1828 -0.9469 -1.4749
  155OSM   H11T17295   0.226   6.090   3.340  0.4847 -0.5469 -0.4599
  155OSM   C12S17296   0.121   5.917   3.407  0.5120 -0.1142  0.5950
  155OSM   H12S17297   0.214   5.867   3.442 -0.7693 -3.5915 -0.5963
  155OSM   H12T17298   0.068   5.834   3.357  3.7769 -2.1485  0.2395
  155OSM   C13S17299   0.038   5.974   3.524  0.0188 -0.5281 -0.5030
  155OSM   H13S17300  -0.069   5.990   3.498  0.4619  2.1418 -0.9579
  155OSM   H13T17301   0.081   6.073   3.552 -0.0901 -1.5290  4.0166
  155OSM   C14S17302   0.046   5.896   3.651 -0.1065  1.1411 -0.3737
  155OSM   H14S17303   0.151   5.873   3.679 -0.1203  0.1165 -1.0937
  155OSM   H14T17304  -0.008   5.800   3.632 -2.0453  2.3240 -1.1259
  155OSM   C15S17305  -0.042   5.961   3.761 -0.2573  0.5826 -0.0793
  155OSM   H15S17306  -0.143   5.979   3.717 -0.3884  0.1676  0.0402
  155OSM   H15T17307   0.007   6.055   3.794 -2.4816  1.2319  1.6535
  155OSM   C16S17308  -0.045   5.865   3.877  0.7561  0.7213 -0.1719
  155OSM   H16S17309   0.058   5.825   3.887  1.1026  1.7178  0.3646
  155OSM   H16T17310  -0.116   5.782   3.862 -0.4981  1.4514  1.4147
  155OSM   C17S17311  -0.082   5.925   4.016 -0.2036 -0.8512  0.1278
  155OSM   H17S17312  -0.184   5.968   4.009  0.0477  0.0438  1.5465
  155OSM   H17T17313  -0.017   6.012   4.039  0.2271 -1.6564  2.0950
  155OSM   C18S17314  -0.073   5.818   4.118 -0.0440  0.7320  0.7008
  155OSM   H18S17315  -0.092   5.850   4.222 -0.9948  0.6294  0.5727
  155OSM   H18T17316   0.029   5.773   4.114 -0.2699  0.2747 -0.7218
  155OSM   H18U17317  -0.137   5.732   4.089 -1.0967  1.7755 -0.1824
  155OSM    C1F17318   0.037   5.356   2.783  0.4804 -0.3608  0.0564
  155OSM     OF17319   0.130   5.305   2.726  0.0723 -0.4050 -0.0807
  155OSM    C2F17320  -0.018   5.314   2.907  0.1756 -0.0610  0.2502
  155OSM    H2F17321  -0.126   5.291   2.898  0.1398  0.1740  0.0670
  155OSM    H2G17322  -0.012   5.405   2.970  0.7584  0.1481 -0.0969
  155OSM    C3F17323   0.055   5.191   2.971  0.2753 -0.1465  0.0868
  155OSM    H3F17324   0.159   5.226   2.987  0.1662  0.1525  0.1542
  155OSM    H3G17325   0.053   5.104   2.902  0.4140 -2.0873  2.3835
  155OSM    C4F17326   0.004   5.147   3.111 -0.0336  0.2257 -0.3451
  155OSM    H4F17327   0.036   5.233   3.173  2.1396 -0.8867  0.1844
  155OSM    H4G17328   0.052   5.054   3.149 -0.0198  0.0554 -0.7759
  155OSM    C5F17329  -0.146   5.125   3.136 -0.0261  0.3404  0.1218
  155OSM    H5F17330  -0.164   5.020   3.104 -0.1897  0.2755  0.4248
  155OSM    H5G17331  -0.218   5.183   3.075 -3.7178 -1.7032  2.1737
  155OSM    C6F17332  -0.199   5.140   3.276 -0.4206 -0.2872 -1.3306
  155OSM    H6F17333  -0.205   5.251   3.280  1.0609 -0.1191 -2.7975
  155OSM    H6G17334  -0.124   5.099   3.347 -3.4434  1.0317  3.0453
  155OSM    C7F17335  -0.346   5.086   3.287 -0.1057 -0.1758  0.1076
  155OSM    H7F17336  -0.340   4.979   3.259  0.9084 -0.8020  2.4467
  155OSM    H7G17337  -0.405   5.141   3.211  1.3206  1.9572  0.4553
  155OSM    C8F17338  -0.405   5.100   3.428 -0.2253  0.2798  0.0333
  155OSM    H8F17339  -0.363   5.027   3.500 -0.8054 -1.7936 -1.6037
  155OSM    H8G17340  -0.511   5.067   3.418 -0.4428  0.9969 -0.1053
  155OSM    C9F17341  -0.407   5.245   3.467 -0.0651  0.4716 -0.3217
  155OSM    H9F17342  -0.451   5.312   3.392 -1.2274  1.6609  1.3568
  155OSM   C10F17343  -0.358   5.293   3.583 -0.4289 -0.0578  0.5122
  155OSM   H10F17344  -0.370   5.399   3.608 -0.1156 -0.0229  0.5189
  155OSM   C11F17345  -0.298   5.208   3.697 -0.0637 -0.6941  0.4258
  155OSM   H11F17346  -0.188   5.226   3.706 -0.2681  0.0036  1.6792
  155OSM   H11G17347  -0.317   5.099   3.683  0.1153 -0.5971 -0.6063
  155OSM   C12F17348  -0.372   5.245   3.826  0.2104  0.6005 -0.4782
  155OSM   H12F17349  -0.480   5.223   3.832  0.5150 -0.6296  2.7404
  155OSM   H12G17350  -0.374   5.353   3.849 -0.4949  0.6106 -0.5637
  155OSM   C13F17351  -0.289   5.182   3.948  0.1901  0.0233  0.2327
  155OSM   H13F17352  -0.192   5.223   3.913  0.1355 -1.4552 -1.8959
  155OSM   H13G17353  -0.292   5.071   3.937  0.5070  0.0971 -0.6936
  155OSM   C14F17354  -0.328   5.239   4.090 -0.2628  0.1338  0.0721
  155OSM   H14F17355  -0.416   5.185   4.129  0.3818  1.6851  4.1210
  155OSM   H14G17356  -0.364   5.343   4.079 -1.3980 -0.2812 -0.2206
  155OSM   C15F17357  -0.209   5.240   4.195  0.0565  0.5731  0.9570
  155OSM   H15F17358  -0.136   5.306   4.145 -0.8813 -1.3765 -3.4600
  155OSM   H15G17359  -0.171   5.135   4.199 -1.2293  0.0790  0.7392
  155OSM   C16F17360  -0.252   5.289   4.339 -0.6583 -1.1314  0.3101
  155OSM   H16F17361  -0.307   5.386   4.331 -0.2557 -0.9950 -1.1441
  155OSM   H16G17362  -0.160   5.310   4.397 -0.5595 -1.1545  0.1621
  155OSM   C17F17363  -0.330   5.200   4.437 -0.0146 -0.8164  0.2961
  155OSM   H17F17364  -0.429   5.167   4.401 -0.6577 -0.3996  1.6392
  155OSM   H17G17365  -0.356   5.267   4.522  3.4186  0.0296  0.8442
  155OSM   C18F17366  -0.257   5.073   4.492 -0.2368 -0.5420  0.0596
  155OSM   H18F17367  -0.161   5.110   4.534 -1.4121  0.6343  1.8508
  155OSM   H18G17368  -0.239   4.994   4.416  1.5211  0.6123 -0.8098
  155OSM   H18H17369  -0.321   5.031   4.572 -2.5080 -0.8597 -1.8198
  156OSM      N17370   3.453   4.186   2.170  0.0564  0.1689 -0.2525
  156OSM    C1517371   3.544   4.208   2.058  0.3388 -0.3470  0.2034
  156OSM   H15A17372   3.651   4.204   2.074  0.6167  2.2521 -0.6582
  156OSM   H15B17373   3.538   4.310   2.025 -1.2452 -0.4997 -0.0610
  156OSM   H15C17374   3.523   4.141   1.976 -0.0399  0.6736 -0.5429
  156OSM    C1417375   3.311   4.218   2.121 -0.1953  0.7874 -0.3380
  156OSM   H14A17376   3.306   4.324   2.101 -1.1441  0.9278  0.5488
  156OSM   H14B17377   3.238   4.212   2.200 -1.7856  0.4615 -1.7644
  156OSM   H14C17378   3.277   4.159   2.037  1.7997  0.9883 -1.3397
  156OSM    C1317379   3.465   4.042   2.211 -0.0686  0.0702 -0.1286
  156OSM   H13A17380   3.565   4.015   2.244  1.0643  2.0434 -1.7031
  156OSM   H13B17381   3.430   3.977   2.133  1.7600  1.3240 -2.0888
  156OSM   H13C17382   3.397   4.030   2.294  1.9093  0.3372  1.6388
  156OSM    C1217383   3.488   4.269   2.293 -0.2181  0.2592 -0.0695
  156OSM   H12A17384   3.500   4.374   2.269  0.0596  0.5027  1.0517
  156OSM   H12B17385   3.578   4.221   2.327  1.2851  1.7040 -1.7833
  156OSM    C1117386   3.387   4.271   2.413 -0.2660 -0.1565  0.1703
  156OSM   H11A17387   3.287   4.301   2.374  0.1214 -0.9510 -1.5419
  156OSM   H11B17388   3.428   4.352   2.476 -0.8561  2.0589 -2.1206
  156OSM      P17389   3.502   4.105   2.570 -0.3089 -0.0583 -0.4296
  156OSM    O1317390   3.494   3.962   2.617  0.0717 -0.3129 -0.0782
  156OSM    O1417391   3.625   4.143   2.499 -0.1635  0.3233  0.5428
  156OSM    O1117392   3.484   4.212   2.690 -0.5807  0.4597 -0.0411
  156OSM    O1217393   3.378   4.151   2.485  0.2025  0.5667  0.2244
  156OSM    C1S17394   3.415   4.174   2.810  0.4534  0.7641 -0.1953
  156OSM    H1S17395   3.431   4.071   2.849  0.6809  0.8974  0.0704
  156OSM    H1T17396   3.305   4.176   2.793 -0.2198 -4.6499  1.5937
  156OSM     NF17397   3.388   4.228   3.048 -0.4055  0.1430 -0.2661
  156OSM    HNF17398   3.291   4.242   3.062 -0.0425  1.0811  1.6365
  156OSM    C2S17399   3.448   4.271   2.924 -0.2011  0.7187 -0.6679
  156OSM    H2S17400   3.557   4.281   2.941 -0.2213  2.6436 -1.4239
  156OSM    C3S17401   3.393   4.416   2.888  0.4297  0.6626  0.2720
  156OSM    H3S17402   3.284   4.399   2.877  0.6065  0.4967 -1.4936
  156OSM     O317403   3.426   4.455   2.756  0.1276 -0.1783  0.8041
  156OSM    HO317404   3.414   4.369   2.716 -0.6992  0.4577 -0.3947
  156OSM    C4S17405   3.424   4.525   2.993 -1.0080 -0.2240  0.5005
  156OSM    H4S17406   3.527   4.562   2.996 -0.3258 -2.0723  1.8230
  156OSM    C5S17407   3.331   4.592   3.065 -0.0889  0.1868 -1.0497
  156OSM    H5S17408   3.225   4.562   3.062 -0.1404 -0.5385  2.9404
  156OSM    C6S17409   3.359   4.692   3.176 -0.3804 -0.7326 -0.3678
  156OSM    H6S17410   3.276   4.765   3.191  1.1333  0.6462  1.9560
  156OSM    H6T17411   3.444   4.753   3.140  1.2162 -1.4887  1.9183
  156OSM    C7S17412   3.398   4.633   3.310  0.0405 -0.5668  0.1855
  156OSM    H7S17413   3.496   4.581   3.309  0.4499  0.1668  1.2102
  156OSM    H7T17414   3.316   4.562   3.337 -0.8360  0.7194  1.0213
  156OSM    C8S17415   3.407   4.746   3.411 -0.5983 -0.3429  0.1633
  156OSM    H8S17416   3.318   4.811   3.421 -0.0271  0.2682  1.5003
  156OSM    H8T17417   3.485   4.810   3.364  0.1651 -2.2132 -1.2668
  156OSM    C9S17418   3.446   4.687   3.542 -0.3062  0.1199  0.4806
  156OSM    H9S17419   3.536   4.622   3.537 -0.8738 -0.6681  0.3401
  156OSM    H9T17420   3.367   4.625   3.590  0.3037 -1.1729 -0.1164
  156OSM   C10S17421   3.490   4.813   3.629 -0.0695  1.4269 -0.5447
  156OSM   H10S17422   3.399   4.875   3.642 -0.9549 -0.0345  0.4237
  156OSM   H10T17423   3.569   4.874   3.580  0.6459 -0.7056 -2.1661
  156OSM   C11S17424   3.544   4.778   3.775  0.3351 -0.2981  0.5300
  156OSM   H11S17425   3.559   4.876   3.827 -3.2445 -0.4716  2.1605
  156OSM   H11T17426   3.640   4.723   3.766  1.5010  1.2732  2.4022
  156OSM   C12S17427   3.444   4.690   3.842 -0.8842 -0.0953 -0.0611
  156OSM   H12S17428   3.430   4.598   3.782  0.9935  0.2995 -1.1776
  156OSM   H12T17429   3.345   4.740   3.831 -1.0572 -0.8036 -2.0877
  156OSM   C13S17430   3.492   4.657   3.989 -0.1821 -0.1014  0.0907
  156OSM   H13S17431   3.597   4.622   3.993 -0.6935 -1.8833 -0.9719
  156OSM   H13T17432   3.444   4.559   4.009 -0.9259  0.2041 -0.1225
  156OSM   C14S17433   3.452   4.765   4.076  0.0641  0.1801  0.9200
  156OSM   H14S17434   3.346   4.795   4.060  0.0808  0.1971  0.8403
  156OSM   H14T17435   3.513   4.854   4.048  0.7195 -0.2979  0.7978
  156OSM   C15S17436   3.466   4.720   4.224  0.0889  0.9441  0.1244
  156OSM   H15S17437   3.439   4.614   4.241  0.2081  0.8413 -0.3184
  156OSM   H15T17438   3.396   4.790   4.274  1.0201  2.6264 -0.8087
  156OSM   C16S17439   3.612   4.753   4.280 -0.1559  0.5240 -0.3494
  156OSM   H16S17440   3.630   4.860   4.257 -3.3645  0.9583 -1.3942
  156OSM   H16T17441   3.682   4.696   4.216 -0.4170 -0.7645  0.4724
  156OSM   C17S17442   3.639   4.711   4.426 -0.8353  0.3182  0.8701
  156OSM   H17S17443   3.742   4.727   4.463 -0.5409 -2.1725  1.2749
  156OSM   H17T17444   3.629   4.601   4.434  2.2381 -0.2178 -1.1354
  156OSM   C18S17445   3.533   4.767   4.521 -0.0184  0.4175 -0.4073
  156OSM   H18S17446   3.550   4.752   4.629  1.8011  1.6116 -0.4791
  156OSM   H18T17447   3.437   4.720   4.490 -0.6855  2.8475 -2.3800
  156OSM   H18U17448   3.534   4.876   4.497  0.6157  0.1497 -1.7183
  156OSM    C1F17449   3.438   4.135   3.118  0.0023  0.7873  0.0001
  156OSM     OF17450   3.542   4.072   3.094  0.5588  0.2602 -0.0681
  156OSM    C2F17451   3.340   4.094   3.233 -0.2323  0.0340  0.7744
  156OSM    H2F17452   3.340   3.983   3.232  1.7477 -0.0493  2.7561
  156OSM    H2G17453   3.242   4.142   3.212  0.2634  0.6141 -0.3109
  156OSM    C3F17454   3.387   4.131   3.371  0.4955 -0.1397 -0.3444
  156OSM    H3F17455   3.388   4.242   3.379 -0.5098 -0.1811  0.6404
  156OSM    H3G17456   3.481   4.082   3.403  0.2405 -0.4749 -0.0954
  156OSM    C4F17457   3.285   4.103   3.481 -0.1631  0.6173 -0.0863
  156OSM    H4F17458   3.253   3.997   3.474 -0.1848  0.6350 -0.2653
  156OSM    H4G17459   3.197   4.169   3.463 -2.2788 -2.2197 -0.7945
  156OSM    C5F17460   3.325   4.125   3.628 -0.6020  0.0352 -0.4611
  156OSM    H5F17461   3.368   4.226   3.644 -0.9873 -0.0052  0.9724
  156OSM    H5G17462   3.418   4.067   3.647  0.8295  2.0930 -0.8278
  156OSM    C6F17463   3.231   4.073   3.743 -0.4434  0.0563  1.2119
  156OSM    H6F17464   3.208   3.970   3.710 -1.3203  1.0481 -1.4812
  156OSM    H6G17465   3.140   4.137   3.738 -0.2357  0.2307 -0.9767
  156OSM    C7F17466   3.300   4.075   3.879 -0.0531 -0.1380 -0.6344
  156OSM    H7F17467   3.312   4.184   3.896  3.1359 -0.3179 -1.1509
  156OSM    H7G17468   3.399   4.025   3.878 -0.4649 -0.9707 -0.9649
  156OSM    C8F17469   3.207   4.035   3.992  0.0521 -0.5722 -1.2572
  156OSM    H8F17470   3.160   3.941   3.957 -2.4858 -0.0384  0.4365
  156OSM    H8G17471   3.126   4.111   3.997 -0.6809 -1.3331 -1.3170
  156OSM    C9F17472   3.277   4.025   4.127  0.3023 -0.3129  0.0776
  156OSM    H9F17473   3.327   3.928   4.141  0.3903 -0.1663  0.8254
  156OSM   C10F17474   3.262   4.098   4.241 -0.3434 -0.0408  0.5156
  156OSM   H10F17475   3.303   4.056   4.334  3.9963 -1.0098 -1.5648
  156OSM   C11F17476   3.207   4.235   4.259  0.2953 -0.8572  0.0963
  156OSM   H11F17477   3.107   4.221   4.306  0.6383 -0.7076  0.8793
  156OSM   H11G17478   3.190   4.268   4.154  1.0156  0.1769  0.3007
  156OSM   C12F17479   3.298   4.328   4.335 -0.3064  0.3345  0.0472
  156OSM   H12F17480   3.255   4.431   4.329 -1.0227  0.0075 -0.6632
  156OSM   H12G17481   3.405   4.317   4.307 -0.5164 -1.5378 -0.1434
  156OSM   C13F17482   3.310   4.292   4.485  0.9408  0.2816  0.1977
  156OSM   H13F17483   3.371   4.199   4.488 -0.1479 -0.5756 -2.2710
  156OSM   H13G17484   3.214   4.267   4.536 -0.0530  2.4232 -0.5308
  156OSM   C14F17485   3.368   4.406   4.574 -0.2094  0.5785 -0.3271
  156OSM   H14F17486   3.311   4.498   4.598  2.9476  2.7332 -0.4748
  156OSM   H14G17487   3.464   4.442   4.530  1.1816 -1.6880  0.6648
  156OSM   C15F17488   3.420   4.359   4.715  0.4590 -1.0756  0.4306
  156OSM   H15F17489   3.474   4.452   4.742  1.1439 -1.7018  1.3014
  156OSM   H15G17490   3.489   4.272   4.709  0.6088 -1.3870  4.1829
  156OSM   C16F17491   3.318   4.331   4.821  0.1261  0.4781  0.9719
  156OSM   H16F17492   3.236   4.267   4.781  0.1294  0.4277  1.0465
  156OSM   H16G17493   3.280   4.428   4.861  1.7700  1.0542  1.2179
  156OSM   C17F17494   3.389   4.252   4.926  1.3120 -0.0774 -0.3066
  156OSM   H17F17495   3.470   4.307   4.979  0.9421 -2.4855  3.0525
  156OSM   H17G17496   3.434   4.166   4.871 -1.1911 -0.4463 -1.9386
  156OSM   C18F17497   3.300   4.174   5.023 -0.1980  0.6669 -0.7853
  156OSM   H18F17498   3.257   4.085   4.973 -0.2813  0.3559 -0.1719
  156OSM   H18G17499   3.210   4.224   5.064  1.5942  0.7989  3.5721
  156OSM   H18H17500   3.356   4.142   5.114  0.1713  2.8118 -0.1922
  157OSM      N17501   3.174   6.693   2.266  0.2686 -0.4760 -0.2823
  157OSM    C1517502   3.130   6.564   2.310  0.3160  0.3575  0.6265
  157OSM   H15A17503   3.023   6.551   2.316  0.5070 -1.9574 -0.1060
  157OSM   H15B17504   3.161   6.548   2.412 -0.1530  1.3833  0.9422
  157OSM   H15C17505   3.155   6.484   2.242 -2.0000  0.2798 -0.2306
  157OSM    C1417506   3.315   6.680   2.216 -0.3726 -0.1233 -0.1227
  157OSM   H14A17507   3.380   6.635   2.290 -0.4723 -1.3876 -0.7783
  157OSM   H14B17508   3.369   6.769   2.187  1.0279 -0.6272  0.8404
  157OSM   H14C17509   3.326   6.617   2.129  1.2737 -0.9112  0.6056
  157OSM    C1317510   3.080   6.728   2.153 -0.4113  0.1178  0.0886
  157OSM   H13A17511   3.093   6.664   2.068 -0.0729 -1.2174  1.1132
  157OSM   H13B17512   3.093   6.831   2.123  0.9925  0.2516  1.0397
  157OSM   H13C17513   2.978   6.730   2.188 -1.1212  0.2778 -1.8678
  157OSM    C1217514   3.154   6.794   2.383 -0.8686  0.0738  0.3272
  157OSM   H12A17515   3.054   6.783   2.423 -1.4071  1.2731 -0.6192
  157OSM   H12B17516   3.162   6.897   2.353 -2.1708  0.6687  1.8826
  157OSM    C1117517   3.243   6.766   2.510  0.6950 -0.3540 -0.4505
  157OSM   H11A17518   3.265   6.659   2.528 -1.3115 -0.8395 -0.7308
  157OSM   H11B17519   3.189   6.811   2.595  1.2417  1.8316 -1.1913
  157OSM      P17520   3.369   7.003   2.506  0.4066  0.5595  0.2179
  157OSM    O1317521   3.499   7.044   2.458 -0.4931  0.2145  0.4226
  157OSM    O1417522   3.249   7.071   2.450  0.4077 -0.5387 -0.5893
  157OSM    O1117523   3.371   7.021   2.659 -0.0280  0.0627  0.2294
  157OSM    O1217524   3.358   6.843   2.492 -0.6034  0.6091  0.7068
  157OSM    C1S17525   3.454   6.947   2.737 -0.6035  0.0564 -0.2479
  157OSM    H1S17526   3.550   7.003   2.741  1.8589 -3.8602  1.2636
  157OSM    H1T17527   3.469   6.842   2.704  1.1634  0.1804  0.0413
  157OSM     NF17528   3.510   6.905   2.979  0.0581  0.1933 -0.1884
  157OSM    HNF17529   3.462   6.843   3.040  0.6488  1.3045  1.4629
  157OSM    C2S17530   3.416   6.970   2.887 -0.5232 -0.8572 -0.3203
  157OSM    H2S17531   3.427   7.079   2.907  2.4719 -0.9448 -0.9760
  157OSM    C3S17532   3.268   6.930   2.911  1.0458 -0.6407 -0.1710
  157OSM    H3S17533   3.263   6.820   2.926  0.4286 -0.6056 -0.0749
  157OSM     O317534   3.178   6.949   2.804  0.4579  0.1549  0.3126
  157OSM    HO317535   3.226   6.997   2.737 -1.6016  1.1146 -0.5709
  157OSM    C4S17536   3.203   6.991   3.034  0.6750  0.5234  0.2668
  157OSM    H4S17537   3.213   7.101   3.033 -0.3988  0.6292 -0.1812
  157OSM    C5S17538   3.181   6.936   3.156  0.3309  0.0322  0.5252
  157OSM    H5S17539   3.197   6.828   3.171 -0.2796 -0.1022  0.2073
  157OSM    C6S17540   3.141   7.014   3.276  0.5421 -0.3255  0.2030
  157OSM    H6S17541   3.228   7.039   3.340 -0.4174  2.4241  0.5871
  157OSM    H6T17542   3.078   6.949   3.341 -0.2507 -1.3186 -1.5082
  157OSM    C7S17543   3.062   7.150   3.247 -1.4456  0.0266 -0.3663
  157OSM    H7S17544   2.984   7.131   3.170 -0.0390 -1.5737 -1.4685
  157OSM    H7T17545   3.141   7.217   3.206 -0.9875  1.1482  2.1374
  157OSM    C8S17546   2.993   7.200   3.376 -0.1100 -0.5100 -0.6016
  157OSM    H8S17547   2.895   7.158   3.405 -1.3922  2.6306 -0.0227
  157OSM    H8T17548   2.956   7.300   3.343  0.7837 -0.6886 -2.2502
  157OSM    C9S17549   3.080   7.209   3.505  0.3100  0.6107  0.5929
  157OSM    H9S17550   3.174   7.261   3.477  0.1263  1.9965  2.3617
  157OSM    H9T17551   3.109   7.106   3.537 -0.2679  0.2608  0.0110
  157OSM   C10S17552   3.001   7.290   3.616 -0.3385  0.1917  0.3172
  157OSM   H10S17553   2.902   7.240   3.628 -1.5769  1.3056 -3.6945
  157OSM   H10T17554   2.976   7.392   3.580  1.3052 -0.2856 -2.4339
  157OSM   C11S17555   3.086   7.300   3.746 -0.2175 -0.5868  0.0656
  157OSM   H11S17556   3.016   7.341   3.823 -0.8795  0.7603 -1.1962
  157OSM   H11T17557   3.169   7.372   3.729 -1.3623  0.6874 -0.4146
  157OSM   C12S17558   3.141   7.169   3.807  0.1024 -0.4235 -0.0414
  157OSM   H12S17559   3.213   7.115   3.742 -0.6969 -1.4456 -0.1060
  157OSM   H12T17560   3.056   7.101   3.826 -0.1351  0.2598  1.4964
  157OSM   C13S17561   3.209   7.190   3.946 -0.6394  0.2529  0.5116
  157OSM   H13S17562   3.294   7.260   3.933 -0.2484 -0.1927  0.6676
  157OSM   H13T17563   3.239   7.092   3.989  0.4592  0.7543  0.9160
  157OSM   C14S17564   3.110   7.261   4.040 -0.4878 -0.0229 -0.1723
  157OSM   H14S17565   3.010   7.213   4.032 -0.9863  0.6224  1.6641
  157OSM   H14T17566   3.100   7.367   4.009 -0.6030 -0.6438 -2.4097
  157OSM   C15S17567   3.154   7.255   4.191 -0.3628  0.0832  0.1254
  157OSM   H15S17568   3.164   7.152   4.229  0.6615 -0.2817 -1.0318
  157OSM   H15T17569   3.084   7.305   4.261  0.7771  1.9619  0.0081
  157OSM   C16S17570   3.297   7.305   4.215 -0.0942  0.0139  0.1336
  157OSM   H16S17571   3.331   7.385   4.145  2.1890 -0.5547  0.5047
  157OSM   H16T17572   3.373   7.224   4.209  1.1127  1.1552 -0.5694
  157OSM   C17S17573   3.332   7.361   4.358 -0.3815 -0.2823 -0.4153
  157OSM   H17S17574   3.281   7.459   4.367 -3.2880 -1.7173 -0.0037
  157OSM   H17T17575   3.439   7.389   4.356 -0.6985  0.9510 -2.1458
  157OSM   C18S17576   3.305   7.278   4.487  0.9680 -0.0722 -0.0902
  157OSM   H18S17577   3.195   7.263   4.497  0.8405  0.7855 -0.1513
  157OSM   H18T17578   3.346   7.321   4.580  1.0792 -0.7548  0.1814
  157OSM   H18U17579   3.357   7.182   4.466 -0.3785 -1.1339  1.2098
  157OSM    C1F17580   3.644   6.920   2.991 -0.3833  0.2598 -0.3395
  157OSM     OF17581   3.703   7.019   2.938  0.3130  0.0270 -0.2611
  157OSM    C2F17582   3.712   6.809   3.077 -0.2372 -0.0370  0.0986
  157OSM    H2F17583   3.715   6.714   3.020  2.8233  0.8417 -1.4459
  157OSM    H2G17584   3.657   6.786   3.170  1.9126  0.3589  1.5493
  157OSM    C3F17585   3.855   6.853   3.124 -0.9323 -0.2622 -1.0537
  157OSM    H3F17586   3.844   6.955   3.168  0.1483 -0.8893  0.8021
  157OSM    H3G17587   3.926   6.857   3.039  1.0728 -0.4797  0.5349
  157OSM    C4F17588   3.912   6.761   3.238  0.8151 -0.2518  0.1665
  157OSM    H4F17589   4.022   6.748   3.224  0.8203 -0.9991  0.7989
  157OSM    H4G17590   3.879   6.659   3.208 -0.4408  0.2260 -0.1245
  157OSM    C5F17591   3.872   6.798   3.382 -0.7055 -0.1786 -0.2395
  157OSM    H5F17592   3.763   6.806   3.402 -0.3659 -0.0298  1.7214
  157OSM    H5G17593   3.926   6.890   3.412 -1.1539 -0.5921  2.0501
  157OSM    C6F17594   3.904   6.692   3.482 -0.3063 -0.0896 -0.2534
  157OSM    H6F17595   4.012   6.672   3.469  0.3375  1.9329  1.4889
  157OSM    H6G17596   3.849   6.596   3.480 -0.6332 -0.0504  2.7938
  157OSM    C7F17597   3.876   6.725   3.629 -0.0348  0.2858 -0.4004
  157OSM    H7F17598   3.881   6.633   3.692  0.8838  0.8484  0.3802
  157OSM    H7G17599   3.772   6.765   3.627 -1.1778 -2.4127  0.0607
  157OSM    C8F17600   3.964   6.838   3.682  0.4354  0.0701 -0.4549
  157OSM    H8F17601   3.888   6.885   3.749 -0.1899 -0.6588 -0.6356
  157OSM    H8G17602   3.991   6.910   3.602 -1.1019  1.2751  0.0599
  157OSM    C9F17603   4.083   6.789   3.752 -0.1802 -0.7139 -0.1174
  157OSM    H9F17604   4.172   6.804   3.690  0.9268 -3.6477  0.5807
  157OSM   C10F17605   4.081   6.761   3.884  0.4438 -0.0285  0.2433
  157OSM   H10F17606   4.175   6.735   3.936  1.7677  2.0740 -0.9462
  157OSM   C11F17607   3.967   6.750   3.971 -0.6304 -0.6271 -0.1614
  157OSM   H11F17608   3.970   6.648   4.016 -2.7181 -0.4807  0.4100
  157OSM   H11G17609   3.877   6.749   3.907 -0.3233  1.8480 -0.7175
  157OSM   C12F17610   3.946   6.862   4.070  0.1854  0.5508  0.3629
  157OSM   H12F17611   3.850   6.837   4.121  0.1461 -1.3128 -0.5337
  157OSM   H12G17612   3.932   6.954   4.010  1.9930  0.1980 -0.6749
  157OSM   C13F17613   4.056   6.881   4.180  0.1519  0.2108  0.5381
  157OSM   H13F17614   4.146   6.920   4.129  1.3959 -1.7754  1.1090
  157OSM   H13G17615   4.072   6.781   4.225  2.1327 -0.6393 -1.8734
  157OSM   C14F17616   3.994   6.982   4.280  0.3334  0.0933  0.2451
  157OSM   H14F17617   4.066   6.998   4.363 -0.4826  0.2899  0.9186
  157OSM   H14G17618   3.904   6.930   4.318  0.0452  0.3085 -0.1362
  157OSM   C15F17619   3.975   7.129   4.226  0.5125  1.0940 -0.5507
  157OSM   H15F17620   3.924   7.121   4.127  1.1246 -0.2894 -0.7738
  157OSM   H15G17621   4.074   7.163   4.190  1.0559 -1.1066 -1.3054
  157OSM   C16F17622   3.896   7.221   4.316  0.7256 -0.5850 -0.3106
  157OSM   H16F17623   3.797   7.176   4.338  0.8342  0.0685  1.7609
  157OSM   H16G17624   3.875   7.319   4.269  1.0086 -1.1292 -1.6161
  157OSM   C17F17625   3.969   7.267   4.443 -0.0625 -0.4420  0.0009
  157OSM   H17F17626   3.966   7.191   4.524  2.7991 -1.5851 -0.8528
  157OSM   H17G17627   3.911   7.347   4.494 -2.5731 -0.3795 -2.6992
  157OSM   C18F17628   4.116   7.301   4.421 -0.4725  0.4245 -0.8308
  157OSM   H18F17629   4.127   7.380   4.344  0.2067  1.1589 -0.0073
  157OSM   H18G17630   4.186   7.218   4.401 -0.2128  0.9947 -2.4327
  157OSM   H18H17631   4.169   7.341   4.510  0.5672 -0.0348 -1.2329
  158OSM      N17632   2.560   6.372   2.671 -0.3980 -0.1527 -0.1777
  158OSM    C1517633   2.599   6.227   2.693 -0.1937  0.5185  0.6227
  158OSM   H15A17634   2.699   6.209   2.654 -0.8418  1.0981 -1.4408
  158OSM   H15B17635   2.532   6.154   2.650 -0.1905 -1.1441  3.2272
  158OSM   H15C17636   2.600   6.209   2.799  0.7842 -1.3916  0.3547
  158OSM    C1417637   2.429   6.391   2.750 -1.2170 -0.1279  0.0038
  158OSM   H14A17638   2.416   6.498   2.759 -1.2764  0.0381 -1.6588
  158OSM   H14B17639   2.459   6.351   2.845  0.9395 -2.4313 -1.5316
  158OSM   H14C17640   2.344   6.341   2.706 -2.3431  0.2460  1.6752
  158OSM    C1317641   2.664   6.464   2.723 -0.9844  0.0922  0.1889
  158OSM   H13A17642   2.669   6.459   2.831 -1.4512 -2.3039  0.1529
  158OSM   H13B17643   2.642   6.567   2.697  0.4699  0.7641  1.4724
  158OSM   H13C17644   2.758   6.441   2.675  0.6967  2.5250  2.0418
  158OSM    C1217645   2.526   6.400   2.533 -0.0840 -0.2207  0.1251
  158OSM   H12A17646   2.466   6.320   2.493 -0.5006 -0.6027  1.4677
  158OSM   H12B17647   2.615   6.395   2.472  1.5886  0.8389  2.3244
  158OSM    C1117648   2.458   6.535   2.493  0.4658  0.3416 -0.1381
  158OSM   H11A17649   2.356   6.537   2.537  0.6323 -0.7376  0.3338
  158OSM   H11B17650   2.450   6.529   2.382 -0.7277  0.5009 -0.0800
  158OSM      P17651   2.498   6.778   2.503  0.1741 -0.1119 -0.1704
  158OSM    O1317652   2.623   6.853   2.462  0.9798  0.9038 -0.5529
  158OSM    O1417653   2.380   6.784   2.410 -0.2605  0.2987 -0.3255
  158OSM    O1117654   2.455   6.832   2.646  0.0221 -0.0325  0.1869
  158OSM    O1217655   2.549   6.638   2.533  0.0028  0.5970  0.7267
  158OSM    C1S17656   2.380   6.762   2.741 -0.3594 -0.1422  0.3597
  158OSM    H1S17657   2.418   6.660   2.763 -1.5712 -0.5291  0.7782
  158OSM    H1T17658   2.275   6.758   2.704 -0.9580  1.4944  1.7357
  158OSM     NF17659   2.276   6.762   2.955  0.2067 -0.1765  0.4522
  158OSM    HNF17660   2.191   6.815   2.955  2.3130  3.5488 -0.6488
  158OSM    C2S17661   2.379   6.828   2.876 -1.0528 -0.7705  0.1411
  158OSM    H2S17662   2.474   6.814   2.933 -0.5389 -0.0750 -0.5229
  158OSM    C3S17663   2.361   6.983   2.854 -0.6029 -0.4863  0.1831
  158OSM    H3S17664   2.277   6.989   2.782  0.2307 -1.6346 -0.9360
  158OSM     O317665   2.464   7.060   2.800 -0.4173  0.0016 -0.3860
  158OSM    HO317666   2.545   7.010   2.795 -0.3099 -0.2248  2.1931
  158OSM    C4S17667   2.334   7.044   2.985 -0.0221 -0.5162  0.3913
  158OSM    H4S17668   2.414   7.055   3.060  1.0262  0.7449 -0.8690
  158OSM    C5S17669   2.209   7.083   3.032 -0.1781 -0.4976 -0.8168
  158OSM    H5S17670   2.120   7.082   2.968 -1.7983  0.2790  1.2951
  158OSM    C6S17671   2.182   7.139   3.172 -0.5844 -0.1410 -0.3778
  158OSM    H6S17672   2.124   7.233   3.160 -0.6857  0.1458  1.9378
  158OSM    H6T17673   2.282   7.172   3.209 -0.0669  0.9495 -2.5426
  158OSM    C7S17674   2.126   7.044   3.274 -0.3991 -0.7655  0.7197
  158OSM    H7S17675   2.049   6.985   3.220  0.9481  2.1104 -5.0795
  158OSM    H7T17676   2.076   7.096   3.359 -0.4577 -1.3497  1.0473
  158OSM    C8S17677   2.237   6.953   3.345 -0.0506 -0.0339  0.0689
  158OSM    H8S17678   2.303   7.031   3.388 -0.7502 -0.0477  1.2398
  158OSM    H8T17679   2.286   6.888   3.270  0.4551  1.1793 -0.6743
  158OSM    C9S17680   2.179   6.865   3.455  0.5987 -0.5556 -0.2276
  158OSM    H9S17681   2.262   6.805   3.498 -0.7105 -0.9134  1.9409
  158OSM    H9T17682   2.104   6.794   3.414 -0.0572  0.4637 -0.8414
  158OSM   C10S17683   2.106   6.926   3.580 -0.1989 -0.2326  0.9880
  158OSM   H10S17684   2.000   6.952   3.555  0.9282  2.7794 -1.2715
  158OSM   H10T17685   2.159   7.022   3.597 -2.5552  1.3513 -0.0690
  158OSM   C11S17686   2.110   6.830   3.700 -0.6722 -0.1001 -0.5515
  158OSM   H11S17687   2.202   6.848   3.759 -1.1393  0.4155  0.0325
  158OSM   H11T17688   2.109   6.724   3.667 -1.7371 -0.2545 -0.0625
  158OSM   C12S17689   1.992   6.849   3.793  0.5340  0.3151  0.0145
  158OSM   H12S17690   1.896   6.816   3.748  0.8165  1.1557 -1.2743
  158OSM   H12T17691   1.972   6.958   3.800 -0.5081  0.3906 -2.8355
  158OSM   C13S17692   2.008   6.773   3.923  0.6877  0.4266 -0.1163
  158OSM   H13S17693   2.070   6.833   3.993 -0.8346  0.0320  1.6580
  158OSM   H13T17694   2.076   6.686   3.908 -0.4200 -1.1865  3.1415
  158OSM   C14S17695   1.880   6.721   3.983  0.0131  1.3098 -0.2359
  158OSM   H14S17696   1.905   6.688   4.086  1.7321 -1.6023 -1.4815
  158OSM   H14T17697   1.851   6.627   3.932  3.0448  0.5028 -0.6354
  158OSM   C15S17698   1.762   6.821   3.990  0.8399  0.2771  0.2096
  158OSM   H15S17699   1.727   6.846   3.888  2.1117 -1.3331 -0.6718
  158OSM   H15T17700   1.806   6.914   4.032 -0.3568  0.7035  0.5503
  158OSM   C16S17701   1.651   6.775   4.087 -0.4312 -0.8196  0.5802
  158OSM   H16S17702   1.695   6.738   4.181 -1.0292 -2.0740  0.3867
  158OSM   H16T17703   1.588   6.696   4.041 -2.6509  0.3925  1.4138
  158OSM   C17S17704   1.552   6.887   4.119 -0.3117 -0.3934  0.2641
  158OSM   H17S17705   1.521   6.935   4.024 -1.1003  1.4167  1.3892
  158OSM   H17T17706   1.611   6.970   4.165 -0.4254 -0.0733 -0.1623
  158OSM   C18S17707   1.437   6.846   4.205 -0.0874 -0.8311  0.0560
  158OSM   H18S17708   1.468   6.820   4.308  1.3002  0.3596 -0.0362
  158OSM   H18T17709   1.404   6.751   4.158  0.5655 -0.6323 -0.8360
  158OSM   H18U17710   1.360   6.926   4.199  1.5558  0.7165 -1.9082
  158OSM    C1F17711   2.304   6.649   3.016  0.0248  0.1888 -0.3948
  158OSM     OF17712   2.406   6.588   2.993  0.0930  0.7526 -0.0868
  158OSM    C2F17713   2.197   6.600   3.111 -0.4204  0.1567  0.5260
  158OSM    H2F17714   2.142   6.510   3.077 -1.9198  0.7956  1.1721
  158OSM    H2G17715   2.120   6.679   3.122  0.1904  0.9900 -0.8422
  158OSM    C3F17716   2.270   6.559   3.242  0.3462  0.2598  0.1821
  158OSM    H3F17717   2.302   6.659   3.277 -0.2380  0.9555 -1.1985
  158OSM    H3G17718   2.363   6.501   3.222 -0.3035 -0.5555 -0.5386
  158OSM    C4F17719   2.176   6.494   3.349 -1.0371 -0.5345  0.7075
  158OSM    H4F17720   2.094   6.567   3.361 -0.2351  0.7117 -0.9755
  158OSM    H4G17721   2.230   6.497   3.446  0.2582  3.0971  0.0160
  158OSM    C5F17722   2.138   6.358   3.310  0.7025  0.0523 -0.1023
  158OSM    H5F17723   2.224   6.293   3.285 -0.6585 -1.9899  0.2342
  158OSM    H5G17724   2.071   6.364   3.221  0.7713  0.0630 -0.1529
  158OSM    C6F17725   2.050   6.277   3.414  0.2940 -0.2498  0.0216
  158OSM    H6F17726   2.017   6.185   3.360  0.8277 -0.4275 -0.0146
  158OSM    H6G17727   1.959   6.337   3.433  0.1399 -0.8059  1.0925
  158OSM    C7F17728   2.127   6.239   3.544  0.0193 -1.1001  0.4505
  158OSM    H7F17729   2.175   6.330   3.586 -0.8989 -0.4705  0.1679
  158OSM    H7G17730   2.208   6.170   3.511 -0.2651 -0.4580 -1.7227
  158OSM    C8F17731   2.046   6.174   3.657  0.1565 -0.0007 -0.6066
  158OSM    H8F17732   1.993   6.083   3.620 -0.5158 -0.1024  0.5607
  158OSM    H8G17733   1.967   6.245   3.689  0.7303  0.6476 -0.6278
  158OSM    C9F17734   2.135   6.133   3.775 -0.6830  0.3829 -0.0697
  158OSM    H9F17735   2.216   6.069   3.736 -2.8911 -2.1785 -0.7387
  158OSM   C10F17736   2.120   6.169   3.906 -0.2208  0.3372  0.2338
  158OSM   H10F17737   2.172   6.107   3.980 -0.2157 -1.4337 -1.1843
  158OSM   C11F17738   2.021   6.272   3.961  0.9063 -0.0479  0.1070
  158OSM   H11F17739   1.928   6.216   3.985  1.3359 -0.2646  1.3115
  158OSM   H11G17740   1.996   6.353   3.889  2.2167  2.2491  2.1093
  158OSM   C12F17741   2.074   6.360   4.080  0.1918  0.3868 -0.2366
  158OSM   H12F17742   2.018   6.456   4.083  0.9101  0.8003  0.2502
  158OSM   H12G17743   2.180   6.388   4.065 -0.1516  2.4196  0.7072
  158OSM   C13F17744   2.059   6.295   4.224  0.4429  0.2891 -0.7764
  158OSM   H13F17745   2.117   6.200   4.215 -0.1072 -0.0214 -1.0596
  158OSM   H13G17746   1.956   6.255   4.230  0.1829  0.8567 -1.3904
  158OSM   C14F17747   2.120   6.380   4.342  0.2975  0.7277 -0.0803
  158OSM   H14F17748   2.230   6.383   4.322  0.8788  1.6540  2.7835
  158OSM   H14G17749   2.116   6.332   4.442 -1.2527  1.1946  0.0976
  158OSM   C15F17750   2.062   6.523   4.367 -0.3036  0.0259  0.2660
  158OSM   H15F17751   2.077   6.586   4.277  2.1207  1.0463  1.3001
  158OSM   H15G17752   2.122   6.569   4.448 -3.5199  1.1524  2.1887
  158OSM   C16F17753   1.914   6.509   4.425 -0.0600 -0.9054  0.2894
  158OSM   H16F17754   1.909   6.446   4.516  0.6670  0.8428  1.5931
  158OSM   H16G17755   1.847   6.474   4.344  0.2439 -0.5322 -0.1258
  158OSM   C17F17756   1.859   6.649   4.461  0.0159 -0.2555 -0.1623
  158OSM   H17F17757   1.896   6.723   4.387  0.7300  0.0275  0.4728
  158OSM   H17G17758   1.897   6.685   4.559 -0.0848  1.5235 -0.7359
  158OSM   C18F17759   1.712   6.648   4.456  0.2949  0.0967 -0.5951
  158OSM   H18F17760   1.670   6.584   4.537  1.2844 -0.1551 -0.2736
  158OSM   H18G17761   1.674   6.609   4.358  0.6640  0.2557 -0.8018
  158OSM   H18H17762   1.672   6.751   4.462 -2.2012 -0.8415  0.2879
  159OSM      N17763   4.496   5.300   2.103  0.6726 -0.5293  0.3101
  159OSM    C1517764   4.578   5.176   2.121  0.5765 -0.3346  0.2829
  159OSM   H15A17765   4.508   5.096   2.144 -1.4627  1.8618  2.2977
  159OSM   H15B17766   4.630   5.199   2.212 -1.0598 -0.1263  1.2096
  159OSM   H15C17767   4.643   5.152   2.038  1.8995 -0.0302  1.2131
  159OSM    C1417768   4.581   5.420   2.096  0.8089  1.0454  0.1310
  159OSM   H14A17769   4.649   5.414   2.180  1.5227 -2.5759 -0.5298
  159OSM   H14B17770   4.525   5.513   2.096 -1.1280  0.0149 -2.4407
  159OSM   H14C17771   4.646   5.406   2.011  1.2871 -0.6668  0.7287
  159OSM    C1317772   4.418   5.293   1.981 -0.8009 -0.2491  0.3579
  159OSM   H13A17773   4.467   5.271   1.887  0.7772 -2.3019  1.5857
  159OSM   H13B17774   4.374   5.390   1.967  0.1342  0.4239  1.8461
  159OSM   H13C17775   4.333   5.226   1.991 -0.2727 -1.5097 -2.5439
  159OSM    C1217776   4.402   5.313   2.220  0.1570  0.3733 -0.1680
  159OSM   H12A17777   4.355   5.410   2.223  0.6400  0.7139 -2.1825
  159OSM   H12B17778   4.457   5.309   2.313 -0.5749  1.4485  0.3265
  159OSM    C1117779   4.294   5.204   2.228  0.5214  0.4002 -0.2660
  159OSM   H11A17780   4.230   5.202   2.138 -0.7816 -1.6529  0.6185
  159OSM   H11B17781   4.221   5.237   2.304  0.6547 -0.8593  0.4363
  159OSM      P17782   4.391   5.048   2.409  0.1920 -0.0513 -0.1759
  159OSM    O1317783   4.260   5.042   2.490 -0.3074 -0.2099 -0.0487
  159OSM    O1417784   4.471   4.926   2.419 -0.3113 -0.0924 -0.3885
  159OSM    O1117785   4.479   5.166   2.461  0.5766 -0.0800 -0.1835
  159OSM    O1217786   4.346   5.075   2.254 -0.6197  0.0170 -0.6951
  159OSM    C1S17787   4.457   5.238   2.583  0.4527  0.0937 -0.2049
  159OSM    H1S17788   4.425   5.171   2.666 -0.2313  2.2763  1.3859
  159OSM    H1T17789   4.386   5.321   2.569  0.1040 -0.2615 -0.5703
  159OSM     NF17790   4.554   5.384   2.761 -0.0613 -0.1643 -0.0663
  159OSM    HNF17791   4.552   5.484   2.759  1.3194 -0.1200 -0.0823
  159OSM    C2S17792   4.584   5.311   2.637  0.4236 -0.3551 -0.5561
  159OSM    H2S17793   4.654   5.230   2.669 -0.9059 -0.3573  2.7011
  159OSM    C3S17794   4.653   5.398   2.529  0.8015 -0.0855  0.2381
  159OSM    H3S17795   4.584   5.476   2.489  2.2806  1.0308 -0.2240
  159OSM     O317796   4.691   5.327   2.417 -0.1791 -0.0331  0.1471
  159OSM    HO317797   4.639   5.247   2.428  3.4974 -2.7099  0.3192
  159OSM    C4S17798   4.764   5.475   2.584  0.6073  1.1193 -0.6098
  159OSM    H4S17799   4.848   5.415   2.621 -0.5518  0.2081  0.6465
  159OSM    C5S17800   4.773   5.607   2.602  0.2030 -0.8678 -0.4105
  159OSM    H5S17801   4.688   5.671   2.572 -0.5843 -2.3636 -1.5106
  159OSM    C6S17802   4.896   5.693   2.645  0.4396  0.2148  0.0346
  159OSM    H6S17803   4.866   5.763   2.726  0.6637  2.6131 -1.8525
  159OSM    H6T17804   4.918   5.761   2.561 -3.8415  1.0603 -0.5955
  159OSM    C7S17805   5.020   5.614   2.694  0.3760 -0.4493 -0.5653
  159OSM    H7S17806   5.063   5.565   2.604  3.4452  0.2310  0.4123
  159OSM    H7T17807   4.988   5.539   2.769  0.8582  1.7058  1.9251
  159OSM    C8S17808   5.130   5.695   2.772 -0.0356 -0.8311 -0.0969
  159OSM    H8S17809   5.109   5.803   2.759  0.0935 -0.8414 -0.4260
  159OSM    H8T17810   5.226   5.671   2.721  0.5130 -1.3185  1.1218
  159OSM    C9S17811   5.149   5.660   2.926  0.3374  0.1797  0.2685
  159OSM    H9S17812   5.202   5.564   2.941 -0.7677 -0.1560  2.3221
  159OSM    H9T17813   5.044   5.651   2.961 -0.0250 -1.2036 -1.0639
  159OSM   C10S17814   5.228   5.772   3.003  0.6354 -0.3087 -0.4066
  159OSM   H10S17815   5.308   5.813   2.937 -0.8772  2.6625 -0.5439
  159OSM   H10T17816   5.269   5.733   3.099  0.8956  2.0259  0.4870
  159OSM   C11S17817   5.135   5.895   3.032  0.1335  0.0740 -0.8106
  159OSM   H11S17818   5.076   5.873   3.123  0.2608 -0.1076 -0.7724
  159OSM   H11T17819   5.062   5.917   2.951 -2.6009 -0.4428  1.3604
  159OSM   C12S17820   5.226   6.017   3.068 -0.1331 -1.1170 -0.5864
  159OSM   H12S17821   5.161   6.099   3.104  1.0658 -0.5384  0.3294
  159OSM   H12T17822   5.281   6.049   2.976  0.8341  2.1050  0.9722
  159OSM   C13S17823   5.332   5.984   3.174  0.3053  0.5231 -0.2205
  159OSM   H13S17824   5.410   6.063   3.169 -0.2195  1.2089  1.7542
  159OSM   H13T17825   5.377   5.884   3.157  1.2640  0.5102  2.0569
  159OSM   C14S17826   5.265   5.968   3.315  0.3586 -0.5803 -0.3291
  159OSM   H14S17827   5.191   5.885   3.311 -1.5302  0.9068  1.6337
  159OSM   H14T17828   5.211   6.062   3.339  1.7482  0.4851 -1.2028
  159OSM   C15S17829   5.372   5.949   3.423 -0.1091  0.2393 -0.4419
  159OSM   H15S17830   5.462   6.007   3.394 -0.7950  1.1865 -0.7136
  159OSM   H15T17831   5.410   5.844   3.420  0.9022  0.4821  1.8483
  159OSM   C16S17832   5.340   5.987   3.569  0.8869  0.2988  0.2834
  159OSM   H16S17833   5.299   6.090   3.564 -1.6538 -0.5564  1.8205
  159OSM   H16T17834   5.437   6.003   3.621  1.1977  1.6096 -0.6251
  159OSM   C17S17835   5.236   5.905   3.637 -0.0738  1.0112 -1.0205
  159OSM   H17S17836   5.245   5.795   3.626 -1.6190  0.8992 -1.5022
  159OSM   H17T17837   5.135   5.924   3.595 -0.4210  0.2243 -0.5695
  159OSM   C18S17838   5.230   5.938   3.789  0.3023 -0.7409  0.3134
  159OSM   H18S17839   5.239   6.048   3.807 -1.5666 -0.7026  1.2385
  159OSM   H18T17840   5.307   5.873   3.836  0.5594 -0.9750 -0.4317
  159OSM   H18U17841   5.127   5.923   3.828 -0.7150  0.2892 -1.8297
  159OSM    C1F17842   4.522   5.311   2.872 -0.3671 -0.0681 -0.0315
  159OSM     OF17843   4.544   5.190   2.874 -0.3633  0.0613  0.3941
  159OSM    C2F17844   4.470   5.382   2.994  0.2312 -0.9479  1.1540
  159OSM    H2F17845   4.359   5.381   2.987  0.3065  0.1748 -1.1903
  159OSM    H2G17846   4.498   5.489   2.978 -1.6360 -0.5665  0.2127
  159OSM    C3F17847   4.515   5.343   3.133  0.1684 -0.0531  0.7871
  159OSM    H3F17848   4.620   5.375   3.149  0.0481 -0.2261  2.0307
  159OSM    H3G17849   4.494   5.235   3.149 -0.1779 -0.1082  0.0414
  159OSM    C4F17850   4.435   5.412   3.244  0.1276  0.0521  0.3786
  159OSM    H4F17851   4.326   5.396   3.226 -0.0671 -0.1423  1.6485
  159OSM    H4G17852   4.456   5.520   3.234  2.8155 -0.5600 -2.0549
  159OSM    C5F17853   4.466   5.349   3.379 -0.0020  0.0263  0.3458
  159OSM    H5F17854   4.441   5.242   3.387  0.9820 -0.0892  3.0564
  159OSM    H5G17855   4.387   5.389   3.446  1.4267  1.2203  1.4103
  159OSM    C6F17856   4.603   5.392   3.426 -0.3534 -0.3033  0.6157
  159OSM    H6F17857   4.618   5.502   3.421 -1.0217 -0.2254  0.2741
  159OSM    H6G17858   4.681   5.342   3.365 -1.1044 -0.2347 -0.4293
  159OSM    C7F17859   4.644   5.375   3.578  0.0482  0.3316 -0.2687
  159OSM    H7F17860   4.751   5.346   3.591 -0.4793 -2.4970 -1.4557
  159OSM    H7G17861   4.588   5.286   3.614 -0.4854  0.8455  0.1772
  159OSM    C8F17862   4.582   5.490   3.660 -0.7369  0.3923 -0.0359
  159OSM    H8F17863   4.480   5.513   3.623 -2.3905 -0.1170  3.7680
  159OSM    H8G17864   4.641   5.580   3.633 -1.8057  0.7421 -1.3512
  159OSM    C9F17865   4.568   5.459   3.812  0.3525 -0.1272 -0.3249
  159OSM    H9F17866   4.500   5.374   3.827  0.8695 -0.5627 -0.4135
  159OSM   C10F17867   4.610   5.521   3.917 -0.2718 -0.3912  0.0136
  159OSM   H10F17868   4.615   5.479   4.018  2.4781  2.3573  1.1851
  159OSM   C11F17869   4.698   5.647   3.900  0.0767  0.6536 -0.4847
  159OSM   H11F17870   4.645   5.745   3.905  0.1209  0.6634 -0.1645
  159OSM   H11G17871   4.765   5.650   3.811  1.3387  2.3115  0.4472
  159OSM   C12F17872   4.788   5.653   4.031 -0.6463  0.3618  0.2527
  159OSM   H12F17873   4.740   5.625   4.127  0.3712 -0.4363  0.5452
  159OSM   H12G17874   4.823   5.758   4.035 -1.9442  0.8480 -0.5895
  159OSM   C13F17875   4.915   5.558   4.022  0.1931  0.7526  0.4481
  159OSM   H13F17876   4.974   5.584   3.931 -0.8323  0.4182 -0.3388
  159OSM   H13G17877   4.880   5.455   3.999  1.2762  0.1398  1.4427
  159OSM   C14F17878   5.003   5.553   4.150 -0.0469  0.4215  0.1389
  159OSM   H14F17879   5.068   5.463   4.151  0.4602  0.7413  2.5415
  159OSM   H14G17880   4.944   5.534   4.242  0.6738  1.2168  0.7919
  159OSM   C15F17881   5.077   5.680   4.171  0.1745  0.1124 -0.3100
  159OSM   H15F17882   5.136   5.674   4.264 -2.8458 -0.3984  1.7278
  159OSM   H15G17883   5.001   5.761   4.176 -0.2800 -0.3657  0.8946
  159OSM   C16F17884   5.162   5.730   4.059 -0.1450  0.3191  0.3400
  159OSM   H16F17885   5.179   5.840   4.069 -0.2118  0.6180 -2.1432
  159OSM   H16G17886   5.120   5.718   3.957 -0.7896  0.1949  0.6148
  159OSM   C17F17887   5.303   5.654   4.036 -0.1959 -0.4127 -0.3044
  159OSM   H17F17888   5.352   5.644   4.135  1.2728  1.6300 -0.7697
  159OSM   H17G17889   5.369   5.712   3.968  0.3060  0.4126  0.8588
  159OSM   C18F17890   5.282   5.512   3.970 -0.2076 -0.0791 -0.8162
  159OSM   H18F17891   5.211   5.531   3.886  0.5468  1.5950 -1.1086
  159OSM   H18G17892   5.245   5.434   4.041  1.0006 -0.9342 -1.0944
  159OSM   H18H17893   5.376   5.485   3.918 -1.7670 -1.9522 -2.8731
  160OSM      N17894   2.830   5.916   2.081 -0.4427  0.0388  0.5521
  160OSM    C1517895   2.775   5.849   1.964 -0.1232  0.0083  0.5487
  160OSM   H15A17896   2.701   5.908   1.913 -0.4283 -1.5932 -0.9732
  160OSM   H15B17897   2.723   5.756   1.982 -0.4059 -0.2776 -1.4466
  160OSM   H15C17898   2.846   5.816   1.889 -1.5054 -0.5710 -0.5573
  160OSM    C1417899   2.919   6.035   2.033 -0.3799  0.5589 -0.1996
  160OSM   H14A17900   2.992   6.012   1.956  0.0043  0.2337  0.2569
  160OSM   H14B17901   2.953   6.099   2.113  0.6930  1.5605 -1.4096
  160OSM   H14C17902   2.853   6.106   1.986 -1.7587 -1.1590 -0.9825
  160OSM    C1317903   2.713   5.965   2.151  0.0775  0.4155  0.1694
  160OSM   H13A17904   2.644   5.883   2.166 -0.5718  1.5271  4.3255
  160OSM   H13B17905   2.664   6.048   2.103 -0.3338  0.2796  0.3492
  160OSM   H13C17906   2.737   5.997   2.251  0.5943 -1.9729  0.8919
  160OSM    C1217907   2.911   5.817   2.158 -0.8467 -0.6146 -0.6788
  160OSM   H12A17908   2.974   5.767   2.086  1.0267  0.1210  0.3679
  160OSM   H12B17909   2.842   5.746   2.201  0.0210 -1.2857 -0.3538
  160OSM    C1117910   2.996   5.876   2.277  0.4438  0.6397  0.0763
  160OSM   H11A17911   2.922   5.939   2.332 -0.5794  0.8429 -1.4725
  160OSM   H11B17912   3.077   5.948   2.252 -0.6593  1.8443 -0.1376
  160OSM      P17913   2.978   5.705   2.476 -0.3575 -0.7795 -0.5074
  160OSM    O1317914   2.828   5.738   2.472 -0.1736  0.1635  0.4599
  160OSM    O1417915   3.026   5.567   2.478  0.5699  0.0566 -0.2590
  160OSM    O1117916   3.052   5.775   2.611  0.3625 -0.1605  0.3791
  160OSM    O1217917   3.055   5.778   2.360  0.0761 -0.4934 -0.5679
  160OSM    C1S17918   3.074   5.913   2.623  0.2131  0.2550  0.3285
  160OSM    H1S17919   2.982   5.971   2.605 -0.5833 -1.0186  0.1830
  160OSM    H1T17920   3.152   5.941   2.549  1.2405 -0.5461  1.0629
  160OSM     NF17921   3.115   6.071   2.809 -0.1187  0.7202 -0.7874
  160OSM    HNF17922   3.184   6.142   2.810 -0.6415  1.2353 -0.4201
  160OSM    C2S17923   3.138   5.934   2.763  0.1985  0.1135  0.1337
  160OSM    H2S17924   3.086   5.865   2.833  0.4402  0.3352  0.5335
  160OSM    C3S17925   3.287   5.892   2.771 -0.2644  0.6845  0.3426
  160OSM    H3S17926   3.356   5.963   2.719  0.4631  0.7132  1.3193
  160OSM     O317927   3.311   5.765   2.711 -0.7099 -0.2935 -0.5891
  160OSM    HO317928   3.231   5.754   2.658 -0.8665  1.8865 -0.9131
  160OSM    C4S17929   3.320   5.889   2.922  0.9794  0.5582  0.8591
  160OSM    H4S17930   3.258   5.812   2.971 -0.5147  0.9670 -0.3194
  160OSM    C5S17931   3.399   5.985   2.968 -0.3871 -0.7011 -0.0323
  160OSM    H5S17932   3.451   6.058   2.904  1.2034 -1.1976  0.6538
  160OSM    C6S17933   3.424   5.992   3.118 -0.2021  0.0578 -0.5794
  160OSM    H6S17934   3.383   6.085   3.162 -0.9215 -1.0648  1.2229
  160OSM    H6T17935   3.533   5.981   3.134 -0.3034  1.6927  1.7263
  160OSM    C7S17936   3.371   5.876   3.212  0.0668  0.3574 -0.5287
  160OSM    H7S17937   3.446   5.795   3.204  1.0249  1.0599  0.8176
  160OSM    H7T17938   3.276   5.837   3.169 -0.3277 -0.9486  1.3854
  160OSM    C8S17939   3.346   5.942   3.355  0.5056 -0.3792 -0.1379
  160OSM    H8S17940   3.284   6.032   3.336  0.6050 -0.0910  0.8584
  160OSM    H8T17941   3.444   5.973   3.398  0.0828  1.9977 -0.7781
  160OSM    C9S17942   3.279   5.859   3.456 -0.5182 -0.1919  0.0775
  160OSM    H9S17943   3.189   5.809   3.415 -0.4460 -1.0806  0.9658
  160OSM    H9T17944   3.253   5.913   3.550  1.5212 -2.2167  1.9215
  160OSM   C10S17945   3.363   5.742   3.497  0.2137 -0.0969 -0.5344
  160OSM   H10S17946   3.461   5.777   3.535 -0.0917 -1.6083  1.8372
  160OSM   H10T17947   3.381   5.683   3.404 -0.7663 -2.4729  0.6908
  160OSM   C11S17948   3.304   5.647   3.601  0.5423 -0.3698 -0.8594
  160OSM   H11S17949   3.363   5.554   3.605  2.6084  0.9031  2.1619
  160OSM   H11T17950   3.199   5.636   3.567 -0.3922  0.0940  1.6577
  160OSM   C12S17951   3.307   5.705   3.746 -0.1676  0.3661 -0.0362
  160OSM   H12S17952   3.258   5.801   3.770  0.3558  0.1920  1.8475
  160OSM   H12T17953   3.411   5.712   3.785 -1.0835  0.2531  2.6228
  160OSM   C13S17954   3.238   5.599   3.837  0.3561  0.1176 -0.2435
  160OSM   H13S17955   3.286   5.500   3.824  1.1654  0.7064 -1.9964
  160OSM   H13T17956   3.131   5.595   3.808 -0.6265  0.1128  2.9807
  160OSM   C14S17957   3.249   5.624   3.989  0.0166  0.1843 -0.5960
  160OSM   H14S17958   3.357   5.632   4.017 -0.3498  0.4424  0.8517
  160OSM   H14T17959   3.201   5.541   4.045  0.0213  1.1128  0.8470
  160OSM   C15S17960   3.153   5.731   4.032 -0.2096  0.6221 -0.3135
  160OSM   H15S17961   3.055   5.722   3.980  0.3172 -1.8379 -1.0100
  160OSM   H15T17962   3.204   5.823   3.997  0.3050 -0.3735 -2.2909
  160OSM   C16S17963   3.139   5.738   4.190  0.3460  0.4737 -0.1571
  160OSM   H16S17964   3.242   5.723   4.229 -0.4473 -0.8451  1.5939
  160OSM   H16T17965   3.071   5.660   4.230  1.0542 -0.0110  0.1308
  160OSM   C17S17966   3.087   5.878   4.224  0.4448  0.5082  0.1302
  160OSM   H17S17967   2.987   5.887   4.176  0.9970  2.2282 -0.7912
  160OSM   H17T17968   3.156   5.956   4.186 -0.7779  1.2798 -0.5620
  160OSM   C18S17969   3.079   5.900   4.372  0.5435  0.2580 -0.3964
  160OSM   H18S17970   3.164   5.849   4.422  2.0292 -0.6868 -3.5967
  160OSM   H18T17971   2.985   5.855   4.413  0.9139  0.5323  0.7890
  160OSM   H18U17972   3.078   6.007   4.399 -1.7769  0.5112 -1.2235
  160OSM    C1F17973   2.990   6.112   2.840  1.0915 -0.2032  0.4919
  160OSM     OF17974   2.897   6.032   2.834  0.0053 -0.0295 -0.1618
  160OSM    C2F17975   2.969   6.259   2.866 -0.4551 -0.0516  0.5203
  160OSM    H2F17976   2.893   6.288   2.790 -1.2707  0.1508  1.3885
  160OSM    H2G17977   3.057   6.319   2.837 -2.0835  1.7076 -1.0961
  160OSM    C3F17978   2.915   6.291   3.008 -0.4423 -0.1266 -0.4893
  160OSM    H3F17979   2.818   6.240   3.030 -0.4086  1.1808  3.4315
  160OSM    H3G17980   2.880   6.397   3.016 -1.2443 -0.3971 -0.2837
  160OSM    C4F17981   3.005   6.255   3.121 -0.3240  0.1576  0.6892
  160OSM    H4F17982   3.094   6.321   3.130  0.2706 -0.4706 -0.4839
  160OSM    H4G17983   3.040   6.151   3.107 -0.2877  0.2946 -0.2839
  160OSM    C5F17984   2.930   6.265   3.256  0.6524 -0.5655 -0.2425
  160OSM    H5F17985   2.851   6.187   3.256  1.5166 -1.5332 -2.8488
  160OSM    H5G17986   2.885   6.366   3.265  2.5291  0.1432  2.5723
  160OSM    C6F17987   3.017   6.235   3.379  0.4498 -0.5955  0.0646
  160OSM    H6F17988   3.113   6.289   3.366  0.6641 -1.3716 -1.8369
  160OSM    H6G17989   3.047   6.128   3.390 -2.0600 -1.3998 -0.3111
  160OSM    C7F17990   2.959   6.292   3.512  0.0946  0.2416 -0.8733
  160OSM    H7F17991   2.856   6.253   3.524  0.5033 -0.6084  0.0723
  160OSM    H7G17992   2.952   6.402   3.506  0.3754  0.2392 -1.2959
  160OSM    C8F17993   3.044   6.254   3.639  0.3251 -0.1000 -0.5066
  160OSM    H8F17994   3.053   6.143   3.634  0.2552 -0.3670  3.0137
  160OSM    H8G17995   2.987   6.273   3.732  0.7291 -1.3583  0.0256
  160OSM    C9F17996   3.176   6.324   3.644 -0.5096  0.1893 -0.2009
  160OSM    H9F17997   3.231   6.311   3.550  0.0840 -1.2719  0.3137
  160OSM   C10F17998   3.209   6.406   3.742  0.2796  0.9497  0.2204
  160OSM   H10F17999   3.309   6.449   3.728  0.4508  0.4476 -0.0848
  160OSM   C11F18000   3.140   6.434   3.872 -0.1035 -0.0659  0.2454
  160OSM   H11F18001   3.167   6.355   3.945 -0.8208  1.1765  1.8932
  160OSM   H11G18002   3.030   6.425   3.863 -0.0084 -0.2785 -0.8420
  160OSM   C12F18003   3.175   6.575   3.932 -0.0913  0.2089  0.6281
  160OSM   H12F18004   3.154   6.643   3.847  1.3535 -0.0425  0.0381
  160OSM   H12G18005   3.286   6.583   3.942  0.2246  1.0399 -2.4480
  160OSM   C13F18006   3.087   6.598   4.050 -0.8964  0.4618  0.0009
  160OSM   H13F18007   3.127   6.549   4.142  0.6987  0.1057 -0.8439
  160OSM   H13G18008   2.984   6.565   4.023 -0.7565  1.0314 -1.2855
  160OSM   C14F18009   3.071   6.749   4.086 -0.3018 -0.5184 -0.1495
  160OSM   H14F18010   3.024   6.785   3.993 -2.1288  0.4238  1.0879
  160OSM   H14G18011   3.166   6.798   4.115 -2.2184  2.4974  1.5883
  160OSM   C15F18012   2.970   6.771   4.202 -0.3368 -0.4009  0.2340
  160OSM   H15F18013   3.000   6.697   4.279  1.1749 -1.2533 -1.0847
  160OSM   H15G18014   2.866   6.748   4.171 -0.2443 -2.6491  1.3912
  160OSM   C16F18015   2.976   6.909   4.274 -0.3048 -0.0059  0.0333
  160OSM   H16F18016   2.974   6.976   4.186  0.4951 -1.7101 -1.3507
  160OSM   H16G18017   3.076   6.920   4.323 -0.1774  1.9317 -0.5744
  160OSM   C17F18018   2.860   6.953   4.366 -0.4001 -0.2355 -0.3625
  160OSM   H17F18019   2.865   6.883   4.452  0.8443  0.2103 -0.0461
  160OSM   H17G18020   2.767   6.922   4.314 -1.6109  0.8993  1.0786
  160OSM   C18F18021   2.874   7.095   4.409  0.3579 -0.0133 -0.0808
  160OSM   H18F18022   2.956   7.123   4.478 -0.7010  2.0917  0.4237
  160OSM   H18G18023   2.781   7.116   4.466  0.7275 -1.7599  1.2549
  160OSM   H18H18024   2.882   7.170   4.327  0.2378 -1.1378 -1.1426
  161OSM      N18025   4.144   3.964   2.493 -0.0264  0.2288  0.4715
  161OSM    C1518026   4.031   4.012   2.576 -0.3159 -0.3382 -0.2103
  161OSM   H15A18027   3.942   3.987   2.520  1.1055 -0.9328 -2.3537
  161OSM   H15B18028   4.041   4.119   2.577  1.0665 -0.4250 -0.9665
  161OSM   H15C18029   4.039   3.980   2.679  0.7554  2.5242  0.7061
  161OSM    C1418030   4.124   3.812   2.463 -0.3189  0.4464 -0.8617
  161OSM   H14A18031   4.182   3.782   2.378  1.4608  0.9435  0.1341
  161OSM   H14B18032   4.020   3.786   2.451 -0.9096  1.1101  2.0387
  161OSM   H14C18033   4.148   3.753   2.550  0.8957  1.6116 -0.3807
  161OSM    C1318034   4.148   4.042   2.366 -0.0269 -0.5775  0.0553
  161OSM   H13A18035   4.184   4.140   2.394 -1.0617 -0.1353 -0.1131
  161OSM   H13B18036   4.050   4.043   2.320 -0.8028  1.2367  1.5940
  161OSM   H13C18037   4.216   4.014   2.288 -0.3936  1.7818 -1.1806
  161OSM    C1218038   4.281   3.985   2.565  0.2931  0.5424  0.3348
  161OSM   H12A18039   4.358   3.957   2.494  0.1759 -2.3679  1.2299
  161OSM   H12B18040   4.289   3.909   2.641  1.0431 -0.3272 -0.5849
  161OSM    C1118041   4.320   4.111   2.632  0.3278  0.6274 -0.2767
  161OSM   H11A18042   4.425   4.106   2.668 -0.4929  1.6770  2.5736
  161OSM   H11B18043   4.252   4.127   2.718  0.0313 -0.8632 -0.2127
  161OSM      P18044   4.220   4.346   2.577 -0.1003 -0.0435  0.2319
  161OSM    O1318045   4.272   4.467   2.506  0.4991  0.0700 -0.4729
  161OSM    O1418046   4.080   4.304   2.550  0.0442 -0.1080  0.1331
  161OSM    O1118047   4.243   4.371   2.735  0.5324 -0.0289  0.5776
  161OSM    O1218048   4.315   4.226   2.544 -0.0875  0.1329  0.0703
  161OSM    C1S18049   4.132   4.399   2.828 -0.6675 -0.2668  0.6333
  161OSM    H1S18050   4.039   4.343   2.804 -0.3688 -0.1552 -0.8931
  161OSM    H1T18051   4.089   4.500   2.809 -0.1835 -0.0870  0.4806
  161OSM     NF18052   4.044   4.425   3.050 -0.3850 -0.2414  0.1538
  161OSM    HNF18053   4.050   4.515   3.093  0.0941 -0.7418  1.1684
  161OSM    C2S18054   4.164   4.383   2.980  0.2190 -0.2231 -0.2057
  161OSM    H2S18055   4.186   4.275   2.997  0.7136 -0.0776  0.1251
  161OSM    C3S18056   4.288   4.461   3.029 -0.4969 -0.5245  0.3257
  161OSM    H3S18057   4.276   4.571   3.026 -0.6389 -0.5534 -0.6918
  161OSM     O318058   4.401   4.436   2.946 -0.7064 -0.6793 -0.2493
  161OSM    HO318059   4.357   4.432   2.861  0.1264 -0.7115 -0.6902
  161OSM    C4S18060   4.319   4.415   3.171 -0.3303  0.0619 -0.1392
  161OSM    H4S18061   4.403   4.345   3.177 -1.5835 -1.4279  0.7850
  161OSM    C5S18062   4.284   4.475   3.285 -0.1392  0.9644  0.2520
  161OSM    H5S18063   4.208   4.554   3.274 -2.3754 -1.3547 -3.0230
  161OSM    C6S18064   4.343   4.452   3.417 -0.3377  0.0156  0.2650
  161OSM    H6S18065   4.410   4.538   3.436 -0.5802 -0.2991  2.9639
  161OSM    H6T18066   4.405   4.360   3.421  0.2342  0.3015 -1.3332
  161OSM    C7S18067   4.244   4.453   3.533  0.0597  0.2578 -0.6652
  161OSM    H7S18068   4.199   4.352   3.528  2.2778 -0.8141 -0.0318
  161OSM    H7T18069   4.153   4.517   3.529 -0.5010 -0.4020  0.8258
  161OSM    C8S18070   4.313   4.478   3.667  0.3650 -0.4875 -0.2562
  161OSM    H8S18071   4.358   4.580   3.672  0.9895 -0.8104  1.5134
  161OSM    H8T18072   4.398   4.413   3.697 -0.0674 -0.3460  1.3607
  161OSM    C9S18073   4.204   4.460   3.777  0.6372 -0.2548 -0.9018
  161OSM    H9S18074   4.171   4.354   3.780 -1.2314  0.3004  0.2097
  161OSM    H9T18075   4.116   4.524   3.752  0.6843 -0.4247 -1.5053
  161OSM   C10S18076   4.243   4.511   3.918  0.0677  0.5578 -0.6813
  161OSM   H10S18077   4.295   4.609   3.919 -0.2924  0.7473 -0.6689
  161OSM   H10T18078   4.319   4.433   3.938  1.3086  0.9484 -3.3267
  161OSM   C11S18079   4.119   4.533   4.003 -0.4156  0.2082 -0.5851
  161OSM   H11S18080   4.066   4.436   4.016  0.8558 -0.3179  0.9727
  161OSM   H11T18081   4.036   4.602   3.977 -1.4960 -0.3799  1.0665
  161OSM   C12S18082   4.156   4.569   4.152 -0.0731 -0.9024  0.3923
  161OSM   H12S18083   4.062   4.570   4.210  1.1073  2.3052  2.5441
  161OSM   H12T18084   4.166   4.680   4.150 -1.4520 -0.7549  0.5920
  161OSM   C13S18085   4.285   4.496   4.208  0.1780  0.4824  0.3182
  161OSM   H13S18086   4.382   4.543   4.180  0.9561 -1.2294 -0.0132
  161OSM   H13T18087   4.281   4.396   4.160 -0.0833 -0.0601  1.4356
  161OSM   C14S18088   4.261   4.472   4.360  0.4348 -0.4103 -0.3098
  161OSM   H14S18089   4.353   4.420   4.394  0.5051 -0.3655 -0.4298
  161OSM   H14T18090   4.174   4.404   4.363  0.1391 -0.0085  0.5323
  161OSM   C15S18091   4.241   4.591   4.448  0.2170 -0.2379  0.6990
  161OSM   H15S18092   4.157   4.652   4.408 -0.7305 -1.5059  0.6655
  161OSM   H15T18093   4.336   4.648   4.451  1.6058 -2.0863 -2.6087
  161OSM   C16S18094   4.203   4.533   4.586  0.2113  0.7047 -0.1221
  161OSM   H16S18095   4.292   4.492   4.638 -0.9003  0.8172  2.0020
  161OSM   H16T18096   4.121   4.458   4.580  1.5246 -0.6604 -2.6061
  161OSM   C17S18097   4.147   4.643   4.681  0.4252 -0.6386  0.5776
  161OSM   H17S18098   4.050   4.667   4.633  1.0378  1.9081  0.4407
  161OSM   H17T18099   4.205   4.738   4.682 -0.1123 -0.3005  0.2577
  161OSM   C18S18100   4.131   4.588   4.823 -0.0434 -0.3307 -0.7645
  161OSM   H18S18101   4.061   4.639   4.893 -1.4315 -1.4200 -1.3286
  161OSM   H18T18102   4.229   4.581   4.875 -0.5101  1.4871  0.4520
  161OSM   H18U18103   4.090   4.487   4.807 -0.8910 -0.6792  2.8349
  161OSM    C1F18104   3.933   4.363   3.038  0.7130 -0.1854 -0.4698
  161OSM     OF18105   3.927   4.239   3.024  0.5394 -0.2072 -0.3931
  161OSM    C2F18106   3.806   4.438   3.059 -0.1705  0.1062  0.7399
  161OSM    H2F18107   3.746   4.439   2.966  2.2388 -0.9315 -0.9337
  161OSM    H2G18108   3.834   4.543   3.084  0.3399  0.8853 -2.5782
  161OSM    C3F18109   3.722   4.371   3.165 -0.3238  0.5454  0.2308
  161OSM    H3F18110   3.697   4.264   3.152 -3.3355  1.2089 -0.1192
  161OSM    H3G18111   3.621   4.417   3.165  0.1931  2.1736 -3.9830
  161OSM    C4F18112   3.795   4.397   3.296 -0.5961 -0.4414 -0.3647
  161OSM    H4F18113   3.799   4.507   3.313 -1.6108 -0.4877  0.2758
  161OSM    H4G18114   3.892   4.343   3.302  0.0783  0.8878  1.9638
  161OSM    C5F18115   3.715   4.342   3.423 -0.0031 -0.0780 -0.7250
  161OSM    H5F18116   3.712   4.232   3.409 -1.1124 -0.0786 -0.5366
  161OSM    H5G18117   3.613   4.387   3.428 -0.2241 -0.7120  1.1907
  161OSM    C6F18118   3.778   4.375   3.559 -0.2655 -1.2757 -0.2205
  161OSM    H6F18119   3.796   4.485   3.560 -0.5008 -1.2255 -0.7504
  161OSM    H6G18120   3.872   4.318   3.572  1.2498  1.0526 -0.3609
  161OSM    C7F18121   3.674   4.347   3.672 -0.4412  0.2659  0.4380
  161OSM    H7F18122   3.653   4.238   3.669 -1.0272  0.2358 -5.2827
  161OSM    H7G18123   3.582   4.402   3.641 -0.2726  0.8062  0.8729
  161OSM    C8F18124   3.723   4.366   3.813  0.2255  0.8460 -0.1855
  161OSM    H8F18125   3.759   4.469   3.834 -0.6693  1.4924 -1.6702
  161OSM    H8G18126   3.811   4.300   3.829  1.7390  2.9404  0.6452
  161OSM    C9F18127   3.606   4.338   3.906 -0.7350  0.5570  0.7246
  161OSM    H9F18128   3.507   4.343   3.859 -0.7150  2.6162  0.8257
  161OSM   C10F18129   3.629   4.282   4.025 -0.8873  0.0633  0.6739
  161OSM   H10F18130   3.541   4.246   4.080 -0.3816 -1.7542  0.3635
  161OSM   C11F18131   3.770   4.261   4.081 -0.7335 -0.3008  0.5868
  161OSM   H11F18132   3.837   4.346   4.056  1.4387 -1.8539  0.7504
  161OSM   H11G18133   3.820   4.169   4.042 -1.4747  0.3138 -2.0154
  161OSM   C12F18134   3.772   4.270   4.236  1.0731 -0.0656 -0.0792
  161OSM   H12F18135   3.693   4.198   4.265 -0.2933  1.3777 -0.0741
  161OSM   H12G18136   3.754   4.373   4.273  1.5363 -0.1481  0.3845
  161OSM   C13F18137   3.897   4.219   4.314  0.0976 -0.3759 -0.3329
  161OSM   H13F18138   3.984   4.284   4.292  0.0296  0.1165  0.7690
  161OSM   H13G18139   3.925   4.117   4.280 -0.0868 -0.2639 -0.8189
  161OSM   C14F18140   3.878   4.222   4.466 -0.0170 -0.5432 -0.1167
  161OSM   H14F18141   3.979   4.201   4.508  0.7665 -1.5328 -2.3683
  161OSM   H14G18142   3.814   4.139   4.502 -0.5862  0.2362  0.7291
  161OSM   C15F18143   3.826   4.363   4.522 -0.2455  0.5776  0.6356
  161OSM   H15F18144   3.726   4.383   4.478  0.2805  1.7739 -0.0974
  161OSM   H15G18145   3.903   4.432   4.480  0.2489 -1.5009 -2.1603
  161OSM   C16F18146   3.816   4.371   4.679  0.3157 -0.3040  0.8936
  161OSM   H16F18147   3.915   4.348   4.724  0.3340  0.4254  1.2399
  161OSM   H16G18148   3.730   4.309   4.713 -2.7012  1.9167 -1.9276
  161OSM   C17F18149   3.767   4.502   4.719  0.0165 -0.3832 -0.2433
  161OSM   H17F18150   3.671   4.520   4.666 -0.2631 -0.0147  0.3796
  161OSM   H17G18151   3.838   4.574   4.673 -0.6048  0.6256  0.3394
  161OSM   C18F18152   3.760   4.529   4.869 -0.8040  0.2730 -0.0237
  161OSM   H18F18153   3.754   4.638   4.890  1.2375  1.0166 -2.8372
  161OSM   H18G18154   3.850   4.490   4.921 -1.4732 -1.5732 -0.1593
  161OSM   H18H18155   3.684   4.467   4.922  0.4090 -0.2543  1.1599
  162OSM      N18156   0.250   3.049   2.538  0.5538 -0.6692  0.3074
  162OSM    C1518157   0.146   3.075   2.640 -0.1164 -0.2191 -0.5281
  162OSM   H15A18158   0.103   2.981   2.673  1.8774 -0.9628  0.0591
  162OSM   H15B18159   0.074   3.145   2.599  1.0947  0.8684 -0.8532
  162OSM   H15C18160   0.200   3.108   2.727 -1.2031 -1.3131  0.6062
  162OSM    C1418161   0.191   3.030   2.403 -0.5771  0.0941  0.5227
  162OSM   H14A18162   0.269   3.015   2.330  1.2551  2.1073  1.9418
  162OSM   H14B18163   0.131   3.106   2.355  0.6625  1.1857  0.6404
  162OSM   H14C18164   0.122   2.947   2.396 -0.7290  0.3177 -0.9057
  162OSM    C1318165   0.326   3.180   2.530 -0.2314  0.8000  0.3262
  162OSM   H13A18166   0.388   3.169   2.443 -0.9163  0.1037 -0.0818
  162OSM   H13B18167   0.382   3.198   2.621  0.4233 -1.6577  0.4722
  162OSM   H13C18168   0.255   3.261   2.517 -1.2139  0.0979  1.0953
  162OSM    C1218169   0.344   2.943   2.577  0.5201  0.0101 -0.4739
  162OSM   H12A18170   0.289   2.851   2.561 -1.0691  0.8962 -0.3225
  162OSM   H12B18171   0.376   2.949   2.680 -0.9155  1.1960 -0.0621
  162OSM    C1118172   0.468   2.937   2.490 -0.4587  0.1424 -0.2632
  162OSM   H11A18173   0.555   2.924   2.558  0.1110  0.2189 -0.9615
  162OSM   H11B18174   0.496   3.023   2.426  1.8084  0.9359  1.6265
  162OSM      P18175   0.547   2.683   2.420  0.1461  0.2414  0.3415
  162OSM    O1318176   0.555   2.627   2.281  0.4505  0.0351 -0.3668
  162OSM    O1418177   0.680   2.705   2.487  0.5438  0.0099  0.3956
  162OSM    O1118178   0.453   2.595   2.500 -0.4405 -0.1322 -0.1524
  162OSM    O1218179   0.458   2.815   2.416  0.2263  0.8363 -0.1466
  162OSM    C1S18180   0.508   2.521   2.615  0.1975  0.3615  0.1047
  162OSM    H1S18181   0.619   2.522   2.615  0.2276 -1.1144  0.7490
  162OSM    H1T18182   0.470   2.417   2.617 -0.6985  0.6740  0.1978
  162OSM     NF18183   0.517   2.513   2.865 -0.0230  0.3912  0.1354
  162OSM    HNF18184   0.475   2.431   2.904 -2.4573  1.7774  0.6285
  162OSM    C2S18185   0.448   2.582   2.747 -0.0365  0.3050 -0.2447
  162OSM    H2S18186   0.482   2.688   2.757 -1.2571  0.5225  2.9018
  162OSM    C3S18187   0.288   2.573   2.747 -0.1074 -0.3506 -0.5969
  162OSM    H3S18188   0.261   2.472   2.709  0.7321  0.3740 -3.2871
  162OSM     O318189   0.233   2.661   2.650  0.2446  0.4202 -0.6903
  162OSM    HO318190   0.287   2.648   2.572 -0.5632 -1.4201 -0.9706
  162OSM    C4S18191   0.238   2.612   2.884 -0.6673  0.5003  0.3081
  162OSM    H4S18192   0.261   2.711   2.927  1.2660 -0.3246  1.3199
  162OSM    C5S18193   0.181   2.520   2.964 -0.2453 -0.2935 -0.1353
  162OSM    H5S18194   0.166   2.416   2.934  1.4542 -0.3984 -0.6870
  162OSM    C6S18195   0.122   2.567   3.104 -0.1894  0.5599 -0.3074
  162OSM    H6S18196   0.171   2.517   3.191  0.1934 -0.5585 -1.1402
  162OSM    H6T18197   0.022   2.518   3.102  0.0967 -0.0449 -0.2459
  162OSM    C7S18198   0.107   2.714   3.135  0.6255  0.1717  0.2950
  162OSM    H7S18199   0.067   2.762   3.043  1.9433 -2.0266 -1.4928
  162OSM    H7T18200   0.205   2.755   3.167  1.8993 -2.5934  0.1938
  162OSM    C8S18201   0.008   2.742   3.243  0.1202  0.1122 -0.4326
  162OSM    H8S18202  -0.092   2.707   3.212  0.6396 -2.0195  0.1272
  162OSM    H8T18203  -0.004   2.848   3.276 -1.8703  0.1738 -1.2207
  162OSM    C9S18204   0.034   2.657   3.368 -0.5036 -0.2959 -0.3191
  162OSM    H9S18205   0.140   2.625   3.359 -0.0097  0.9327  0.7902
  162OSM    H9T18206  -0.021   2.561   3.363  0.8519 -1.0316 -2.5914
  162OSM   C10S18207   0.008   2.732   3.498  0.5063  0.2854  0.1648
  162OSM   H10S18208  -0.095   2.775   3.494  0.7790  1.2079  1.8318
  162OSM   H10T18209   0.080   2.812   3.526  0.9027 -0.4725  1.4129
  162OSM   C11S18210   0.019   2.636   3.617 -0.1820 -0.1146 -0.0961
  162OSM   H11S18211   0.126   2.608   3.623 -0.3198 -0.7248 -0.4126
  162OSM   H11T18212  -0.041   2.544   3.599 -0.9159 -0.1996  2.3990
  162OSM   C12S18213  -0.022   2.710   3.744  0.9238  0.3896 -0.3094
  162OSM   H12S18214  -0.132   2.727   3.753  0.6366 -1.5886  0.6035
  162OSM   H12T18215   0.038   2.802   3.758  0.7989  0.6377 -1.3716
  162OSM   C13S18216   0.008   2.614   3.857 -0.4654 -0.0313  0.6837
  162OSM   H13S18217   0.116   2.590   3.848 -0.3022  1.1788 -1.1015
  162OSM   H13T18218  -0.067   2.533   3.847 -1.9301  1.4026 -0.4938
  162OSM   C14S18219  -0.018   2.677   3.995  0.2122  0.5436  0.2025
  162OSM   H14S18220  -0.012   2.594   4.069  3.3696  0.8340  0.4072
  162OSM   H14T18221  -0.112   2.736   4.005  0.8213  1.5366  0.1511
  162OSM   C15S18222   0.095   2.774   4.053  0.0447 -0.6556 -0.7998
  162OSM   H15S18223   0.097   2.857   3.979  0.3059  0.4554  0.3970
  162OSM   H15T18224   0.196   2.728   4.061  0.7450  0.8853 -0.2478
  162OSM   C16S18225   0.057   2.837   4.188  0.1107  0.2528 -0.0999
  162OSM   H16S18226   0.053   2.765   4.272 -0.4422  2.4803  1.8971
  162OSM   H16T18227  -0.051   2.866   4.193  0.3647  1.0129  1.7098
  162OSM   C17S18228   0.131   2.970   4.232  0.5906 -0.9681  0.6249
  162OSM   H17S18229   0.150   3.033   4.143  1.5184  0.1842  1.6125
  162OSM   H17T18230   0.232   2.943   4.269  0.8440 -1.8559 -0.6145
  162OSM   C18S18231   0.059   3.050   4.344 -0.7918 -0.6217 -0.0287
  162OSM   H18S18232  -0.041   3.086   4.312 -1.1145  0.2749  1.8336
  162OSM   H18T18233   0.122   3.141   4.353 -0.4956 -0.9125  1.0266
  162OSM   H18U18234   0.060   2.989   4.437  0.6852 -0.9126 -0.2072
  162OSM    C1F18235   0.650   2.536   2.912  0.5300  0.7164 -0.0723
  162OSM     OF18236   0.708   2.633   2.867  0.0153  0.4938  0.2615
  162OSM    C2F18237   0.710   2.439   3.016  0.1620  0.4212  0.3770
  162OSM    H2F18238   0.810   2.484   3.035 -0.8051  2.0183  1.9552
  162OSM    H2G18239   0.716   2.336   2.974 -1.2022  0.3469  0.3225
  162OSM    C3F18240   0.638   2.436   3.149  0.5232 -0.7441 -0.8989
  162OSM    H3F18241   0.695   2.375   3.223 -0.6463 -0.9136 -0.0920
  162OSM    H3G18242   0.546   2.377   3.128 -0.3710  0.4130 -0.3458
  162OSM    C4F18243   0.592   2.569   3.208  1.0665 -0.4804  0.1368
  162OSM    H4F18244   0.499   2.605   3.158  1.1344  0.5419  0.6977
  162OSM    H4G18245   0.675   2.642   3.198 -0.2280  1.0037 -0.1690
  162OSM    C5F18246   0.533   2.564   3.347  0.0217  0.0179 -0.7058
  162OSM    H5F18247   0.607   2.541   3.426 -2.4932  1.7742  2.4275
  162OSM    H5G18248   0.459   2.481   3.357  0.0121 -0.2018 -2.3390
  162OSM    C6F18249   0.465   2.701   3.368 -0.1463 -0.2014 -0.4558
  162OSM    H6F18250   0.386   2.709   3.291  1.0302  0.9365 -1.6151
  162OSM    H6G18251   0.536   2.783   3.342 -1.3176  0.9820  0.0071
  162OSM    C7F18252   0.406   2.737   3.507  0.5645 -0.1843  0.1286
  162OSM    H7F18253   0.320   2.673   3.537 -0.8196  2.1677  1.4333
  162OSM    H7G18254   0.369   2.840   3.492  1.6689  0.0851 -0.8812
  162OSM    C8F18255   0.505   2.729   3.625  0.1753 -0.2261  0.7210
  162OSM    H8F18256   0.579   2.809   3.602  0.3433 -0.8494 -1.0307
  162OSM    H8G18257   0.554   2.630   3.622  1.6556  0.4875  0.6711
  162OSM    C9F18258   0.440   2.766   3.749 -0.4162  0.3800 -0.1172
  162OSM    H9F18259   0.404   2.870   3.752  2.1906  1.3553  1.1930
  162OSM   C10F18260   0.421   2.683   3.853  0.0654  0.7370  0.0735
  162OSM   H10F18261   0.369   2.715   3.944 -3.3739 -0.8899 -1.1513
  162OSM   C11F18262   0.458   2.534   3.852 -0.3143 -0.2225  0.6503
  162OSM   H11F18263   0.526   2.498   3.770 -0.1646 -0.0286  0.6894
  162OSM   H11G18264   0.374   2.463   3.834  1.3782 -1.9965 -0.7991
  162OSM   C12F18265   0.529   2.485   3.979  0.4957 -0.2473  0.1444
  162OSM   H12F18266   0.599   2.569   4.002 -0.3792  0.7382 -0.6860
  162OSM   H12G18267   0.586   2.391   3.961  2.7287  1.1728 -0.6711
  162OSM   C13F18268   0.435   2.477   4.097  1.0486  0.7302  0.2451
  162OSM   H13F18269   0.363   2.398   4.065  1.4613  0.7544 -0.7679
  162OSM   H13G18270   0.371   2.567   4.103 -0.4585 -0.1039 -1.9355
  162OSM   C14F18271   0.514   2.433   4.224 -0.1576 -0.5397 -0.0463
  162OSM   H14F18272   0.495   2.519   4.293 -0.4768  0.5775 -1.4844
  162OSM   H14G18273   0.623   2.425   4.206 -0.2683 -1.4554 -0.3556
  162OSM   C15F18274   0.460   2.306   4.294  0.0183 -0.8524 -0.1880
  162OSM   H15F18275   0.431   2.245   4.205  3.4337  3.0310 -4.4780
  162OSM   H15G18276   0.382   2.307   4.373  0.7213 -1.4285  0.5253
  162OSM   C16F18277   0.574   2.233   4.350  0.1026  0.7161 -0.1097
  162OSM   H16F18278   0.657   2.233   4.276 -0.3597  0.4729 -0.6402
  162OSM   H16G18279   0.552   2.125   4.355 -2.5758  1.2150  0.7898
  162OSM   C17F18280   0.610   2.284   4.486 -0.3658  0.2888  0.6958
  162OSM   H17F18281   0.526   2.286   4.559 -0.6056 -1.2422  0.5024
  162OSM   H17G18282   0.640   2.390   4.476 -0.3065  0.4171  2.0607
  162OSM   C18F18283   0.738   2.214   4.537 -0.3586 -0.0763 -0.6967
  162OSM   H18F18284   0.787   2.274   4.617 -0.9590  1.5515 -1.5011
  162OSM   H18G18285   0.823   2.200   4.466  2.0935  0.5635  1.9350
  162OSM   H18H18286   0.710   2.108   4.556  0.7234 -0.3776 -0.7282
  163OSM      N18287   6.017   4.910   2.246  0.1522 -0.3458  0.4059
  163OSM    C1518288   6.015   4.763   2.236 -0.6592  0.0760 -0.3423
  163OSM   H15A18289   5.925   4.723   2.190  0.6823 -4.0602  0.1984
  163OSM   H15B18290   6.023   4.712   2.331 -2.0836 -0.8220 -0.6607
  163OSM   H15C18291   6.092   4.736   2.165 -2.1106 -0.8783 -1.6498
  163OSM    C1418292   6.160   4.956   2.246 -0.3193  0.6059 -0.0074
  163OSM   H14A18293   6.211   4.944   2.151  0.2790 -3.5368  0.6515
  163OSM   H14B18294   6.215   4.896   2.317  2.9890  2.4179 -0.8388
  163OSM   H14C18295   6.167   5.058   2.282  0.0583  0.6718 -0.2576
  163OSM    C1318296   5.943   4.966   2.123  0.8359  0.3356 -0.5219
  163OSM   H13A18297   5.835   4.961   2.131  0.5800  2.7453 -1.7832
  163OSM   H13B18298   5.974   4.903   2.041  2.4566  0.0995  0.2314
  163OSM   H13C18299   5.969   5.070   2.116  0.2293  0.4776 -0.7657
  163OSM    C1218300   5.952   4.956   2.377  0.2779  0.9476  0.0625
  163OSM   H12A18301   5.979   5.059   2.398  1.4384  1.3106 -2.7278
  163OSM   H12B18302   5.994   4.901   2.460  1.0164  0.0552 -0.8689
  163OSM    C1118303   5.800   4.938   2.385 -0.0614 -0.7196  0.9301
  163OSM   H11A18304   5.749   5.001   2.309 -1.4296 -1.9973  0.7396
  163OSM   H11B18305   5.775   4.991   2.479  1.1946  1.3256  0.1808
  163OSM      P18306   5.723   4.702   2.484  0.0459 -0.0825  0.3721
  163OSM    O1318307   5.598   4.623   2.465  0.4369 -0.4920  0.2931
  163OSM    O1418308   5.848   4.621   2.490  0.5455 -0.0488  1.0543
  163OSM    O1118309   5.697   4.793   2.617 -0.0303 -0.2880  0.3181
  163OSM    O1218310   5.751   4.806   2.363  0.4705 -0.2412 -0.5183
  163OSM    C1S18311   5.805   4.811   2.700 -0.8992  0.3578 -0.8433
  163OSM    H1S18312   5.879   4.884   2.660 -0.7309  0.3810 -0.4900
  163OSM    H1T18313   5.854   4.714   2.721 -0.7723  0.7158  0.5903
  163OSM     NF18314   5.886   4.914   2.909 -0.1460  0.0436  0.0092
  163OSM    HNF18315   5.915   4.859   2.987  1.1107  0.6564 -0.0003
  163OSM    C2S18316   5.771   4.877   2.839 -0.6158  0.3135 -0.0295
  163OSM    H2S18317   5.720   4.972   2.812 -1.8929 -0.5367 -0.7888
  163OSM    C3S18318   5.679   4.782   2.924  0.0985  0.1427 -0.1933
  163OSM    H3S18319   5.739   4.698   2.965 -2.4015 -1.9862 -0.6563
  163OSM     O318320   5.587   4.715   2.847 -0.4379  0.3096 -0.4770
  163OSM    HO318321   5.609   4.736   2.756 -3.3132 -0.4541 -1.4699
  163OSM    C4S18322   5.609   4.851   3.047 -0.0021 -0.3966 -0.3000
  163OSM    H4S18323   5.688   4.884   3.116  2.0793 -1.8543 -1.8605
  163OSM    C5S18324   5.473   4.871   3.066 -0.2477  0.4660 -0.3479
  163OSM    H5S18325   5.407   4.836   2.985 -0.8751 -2.7072  1.3737
  163OSM    C6S18326   5.405   4.929   3.189 -0.3060  0.3015  0.4985
  163OSM    H6S18327   5.348   4.848   3.241  1.9394 -2.8321 -1.5091
  163OSM    H6T18328   5.341   5.016   3.164  1.7169  1.4949 -0.7442
  163OSM    C7S18329   5.507   4.980   3.289 -0.7772  0.7563 -0.7070
  163OSM    H7S18330   5.565   5.072   3.265  0.4005  0.5447  1.1226
  163OSM    H7T18331   5.570   4.889   3.298 -1.2315  0.3318 -1.6513
  163OSM    C8S18332   5.441   5.016   3.423 -0.7305 -0.0678 -0.9384
  163OSM    H8S18333   5.383   4.929   3.459 -1.0729 -0.3558 -2.1185
  163OSM    H8T18334   5.367   5.097   3.405  0.1869  2.1776  3.8153
  163OSM    C9S18335   5.543   5.066   3.525 -0.6489  0.2261  0.7614
  163OSM    H9S18336   5.586   5.158   3.481 -0.8143 -0.0721 -0.0371
  163OSM    H9T18337   5.622   4.989   3.532 -0.6278  0.0136 -1.2231
  163OSM   C10S18338   5.488   5.088   3.666  0.5444 -0.1878 -0.1887
  163OSM   H10S18339   5.463   4.989   3.708 -1.0959  0.5427  0.6191
  163OSM   H10T18340   5.405   5.162   3.672  2.8847  2.5944  0.2381
  163OSM   C11S18341   5.601   5.130   3.764 -0.1176  0.1072  0.0523
  163OSM   H11S18342   5.642   5.229   3.735  1.1249 -0.3024  0.3035
  163OSM   H11T18343   5.679   5.050   3.763 -2.2045 -2.0707  1.4378
  163OSM   C12S18344   5.557   5.148   3.913 -0.2864  0.4209  0.7785
  163OSM   H12S18345   5.510   5.053   3.946 -0.9716  0.2660 -0.5694
  163OSM   H12T18346   5.483   5.229   3.924  1.2483  1.4875  5.7613
  163OSM   C13S18347   5.674   5.198   4.000  0.1887  0.5223  0.8814
  163OSM   H13S18348   5.694   5.296   3.951  0.9900 -0.1935 -0.2547
  163OSM   H13T18349   5.763   5.131   3.998  0.4676  0.7576  2.7687
  163OSM   C14S18350   5.636   5.200   4.145  0.0181  0.4588  0.0285
  163OSM   H14S18351   5.726   5.203   4.210 -1.8777 -0.4712  2.9038
  163OSM   H14T18352   5.587   5.100   4.156 -0.3084  0.4420 -1.3960
  163OSM   C15S18353   5.531   5.305   4.184 -1.1109 -0.1097 -0.1261
  163OSM   H15S18354   5.433   5.278   4.139 -0.8348 -1.0246 -0.2027
  163OSM   H15T18355   5.569   5.398   4.137  1.0292 -1.0222 -0.3118
  163OSM   C16S18356   5.497   5.305   4.334  0.7515 -0.2373  1.0274
  163OSM   H16S18357   5.590   5.322   4.392  0.6103  1.4975  0.8055
  163OSM   H16T18358   5.445   5.212   4.365 -1.3170 -0.1859 -1.8345
  163OSM   C17S18359   5.418   5.436   4.358  0.4150  0.0294  0.4894
  163OSM   H17S18360   5.328   5.425   4.293  1.6091  0.9443 -1.4131
  163OSM   H17T18361   5.490   5.506   4.310  3.7397 -3.4091 -0.0198
  163OSM   C18S18362   5.401   5.468   4.503 -0.1139 -0.5833  0.4629
  163OSM   H18S18363   5.500   5.452   4.552  0.5180 -1.9066 -1.1416
  163OSM   H18T18364   5.338   5.394   4.556 -1.8715  1.0418  0.7327
  163OSM   H18U18365   5.365   5.572   4.506  0.9288 -0.1709 -0.4829
  163OSM    C1F18366   5.960   5.024   2.876  0.0631 -0.1813  0.0880
  163OSM     OF18367   5.923   5.091   2.777  0.2015  0.0126 -0.2369
  163OSM    C2F18368   6.083   5.062   2.964  0.0263  0.3851  0.1614
  163OSM    H2F18369   6.164   5.099   2.897  1.3466 -1.5322  0.6367
  163OSM    H2G18370   6.114   4.969   3.016 -1.3899 -0.9769 -1.3402
  163OSM    C3F18371   6.047   5.176   3.058  0.5422  0.1229 -0.8921
  163OSM    H3F18372   5.982   5.141   3.141  0.9156  0.8265 -0.3007
  163OSM    H3G18373   5.999   5.261   3.005  1.2040 -0.0979 -1.8930
  163OSM    C4F18374   6.176   5.237   3.117  0.0977 -0.2899 -0.1921
  163OSM    H4F18375   6.222   5.280   3.025 -0.5714  0.9459  0.0285
  163OSM    H4G18376   6.237   5.159   3.166 -0.0504 -0.4073 -0.1959
  163OSM    C5F18377   6.150   5.356   3.215 -0.3965 -0.2916  0.0959
  163OSM    H5F18378   6.081   5.430   3.169 -0.1856  1.1237  1.9525
  163OSM    H5G18379   6.251   5.400   3.227 -0.4148 -0.4979  1.0265
  163OSM    C6F18380   6.090   5.306   3.344  0.6570  0.1753 -0.2471
  163OSM    H6F18381   6.151   5.223   3.385 -0.9465 -0.8152  0.1962
  163OSM    H6G18382   5.989   5.263   3.329  0.6482 -0.2043  0.8062
  163OSM    C7F18383   6.079   5.410   3.452 -0.8962 -0.3137 -0.2629
  163OSM    H7F18384   6.006   5.488   3.424 -0.3416  0.2531 -0.1483
  163OSM    H7G18385   6.179   5.456   3.464 -0.4733 -1.3268  0.2008
  163OSM    C8F18386   6.043   5.351   3.595  0.3531  0.2296  0.5257
  163OSM    H8F18387   6.095   5.256   3.618  0.0609 -0.5670 -1.8957
  163OSM    H8G18388   5.936   5.326   3.578  0.8080 -0.9027 -0.8578
  163OSM    C9F18389   6.054   5.451   3.706  0.8070  0.4078  0.6496
  163OSM    H9F18390   6.043   5.556   3.674  0.0872  0.3559  0.7173
  163OSM   C10F18391   6.037   5.423   3.835 -0.6943  0.2345  0.7357
  163OSM   H10F18392   6.022   5.508   3.903 -0.2674  1.8286 -1.0671
  163OSM   C11F18393   6.026   5.285   3.892  0.2469  0.2405 -0.0389
  163OSM   H11F18394   6.046   5.208   3.814 -1.0933  0.7729 -0.9593
  163OSM   H11G18395   5.920   5.260   3.915  0.0357  2.2888  1.5804
  163OSM   C12F18396   6.106   5.245   4.021  0.1287 -0.1974 -0.2151
  163OSM   H12F18397   6.210   5.283   4.015  0.5611 -1.2966  0.0562
  163OSM   H12G18398   6.110   5.134   4.020  0.4286 -0.1960 -1.5276
  163OSM   C13F18399   6.046   5.280   4.159 -0.1773  0.1479  0.4632
  163OSM   H13F18400   5.938   5.254   4.161 -0.9322  2.8377 -0.2897
  163OSM   H13G18401   6.051   5.390   4.176  1.4871 -0.2764  3.5587
  163OSM   C14F18402   6.118   5.198   4.267 -0.5917  0.3492 -0.1035
  163OSM   H14F18403   6.227   5.212   4.255 -0.7081  1.4045 -0.0354
  163OSM   H14G18404   6.088   5.092   4.254 -4.6151  1.1736  0.9777
  163OSM   C15F18405   6.075   5.244   4.405  0.0743 -0.0245 -0.7972
  163OSM   H15F18406   6.088   5.353   4.421 -1.2553 -0.2536  2.6275
  163OSM   H15G18407   6.142   5.205   4.485  0.9519 -0.4517 -1.7150
  163OSM   C16F18408   5.931   5.187   4.436  0.5139 -0.2051  0.2752
  163OSM   H16F18409   5.927   5.086   4.388  2.2135 -0.9004  1.4777
  163OSM   H16G18410   5.857   5.256   4.392  2.2027  0.8404 -1.0679
  163OSM   C17F18411   5.901   5.162   4.580  0.5277  0.0034 -0.1799
  163OSM   H17F18412   5.904   5.259   4.633  1.1138  1.2096 -2.2843
  163OSM   H17G18413   5.980   5.103   4.631  0.0144 -4.4415 -3.7906
  163OSM   C18F18414   5.763   5.092   4.601 -0.2708 -0.0904  0.0150
  163OSM   H18F18415   5.754   5.009   4.528  0.3533 -0.1788  0.0340
  163OSM   H18G18416   5.680   5.162   4.582 -0.0369  0.0992 -0.3157
  163OSM   H18H18417   5.748   5.053   4.704  1.2356  1.5556  0.9176
  164OSM      N18418   6.535   6.596   2.069 -0.6781  0.3942  0.0358
  164OSM    C1518419   6.547   6.748   2.073 -0.1768 -0.1702 -0.2460
  164OSM   H15A18420   6.636   6.785   2.121  0.6344 -0.1341 -1.7257
  164OSM   H15B18421   6.457   6.794   2.113 -0.3927 -1.8172  1.2740
  164OSM   H15C18422   6.557   6.785   1.972  1.3226 -0.0144 -0.0630
  164OSM    C1418423   6.432   6.562   1.966  1.0676  0.3913 -0.4021
  164OSM   H14A18424   6.337   6.609   1.984  0.0845 -2.0168  1.3040
  164OSM   H14B18425   6.423   6.454   1.956  1.2030  0.4775 -1.6222
  164OSM   H14C18426   6.475   6.611   1.880 -0.7093  0.7194 -1.1482
  164OSM    C1318427   6.668   6.534   2.033 -0.1613 -0.1070 -0.1615
  164OSM   H13A18428   6.661   6.431   2.003  1.3560  0.2320 -1.8631
  164OSM   H13B18429   6.731   6.539   2.121 -0.5498 -3.1298  0.3767
  164OSM   H13C18430   6.711   6.596   1.956  0.5478 -0.9926 -0.4885
  164OSM    C1218431   6.494   6.544   2.207  0.3845  0.3502 -0.2407
  164OSM   H12A18432   6.522   6.440   2.215  0.1759  0.3217  0.1109
  164OSM   H12B18433   6.387   6.549   2.214  0.2717 -1.2584 -0.3342
  164OSM    C1118434   6.571   6.617   2.325 -0.3894  0.2860 -0.7010
  164OSM   H11A18435   6.539   6.569   2.421  0.4577  0.5044 -0.3024
  164OSM   H11B18436   6.540   6.724   2.328 -2.3105 -0.2431 -0.3691
  164OSM      P18437   6.789   6.471   2.377  0.1385  0.2222 -0.2085
  164OSM    O1318438   6.709   6.352   2.332 -0.3748  0.2839  0.6428
  164OSM    O1418439   6.931   6.481   2.336 -0.1737 -0.0821  0.2259
  164OSM    O1118440   6.788   6.498   2.531  0.6000 -0.3311 -0.1955
  164OSM    O1218441   6.717   6.601   2.317  0.7549  0.3349 -0.1752
  164OSM    C1S18442   6.677   6.468   2.621 -0.3545 -0.0016  0.4041
  164OSM    H1S18443   6.605   6.400   2.570 -0.9279  2.0151 -1.6461
  164OSM    H1T18444   6.612   6.553   2.651 -1.3020  0.1889 -1.9930
  164OSM     NF18445   6.626   6.356   2.847  0.8455  0.0435  0.2068
  164OSM    HNF18446   6.586   6.410   2.921  1.2502  0.3796  0.1830
  164OSM    C2S18447   6.731   6.408   2.760 -0.8052 -0.4833  0.2475
  164OSM    H2S18448   6.805   6.330   2.730  0.2097 -0.1792  1.7997
  164OSM    C3S18449   6.813   6.517   2.839  1.0040  0.1555 -0.1945
  164OSM    H3S18450   6.744   6.598   2.870  0.5654  0.6413 -2.2418
  164OSM     O318451   6.918   6.579   2.771 -0.5162  0.6528  0.0990
  164OSM    HO318452   6.913   6.563   2.676  1.4526  1.2407 -0.1659
  164OSM    C4S18453   6.869   6.464   2.969 -0.3218 -0.0025 -0.0162
  164OSM    H4S18454   6.899   6.358   2.968 -1.5745 -0.3902  0.6021
  164OSM    C5S18455   6.887   6.528   3.086 -0.6758  0.0587  0.0807
  164OSM    H5S18456   6.862   6.635   3.097  2.4245  0.8425  0.3839
  164OSM    C6S18457   6.940   6.462   3.210 -0.3012  0.6180 -0.2416
  164OSM    H6S18458   6.953   6.354   3.190  1.3033  1.1506 -2.4002
  164OSM    H6T18459   6.864   6.476   3.290 -0.4382  0.2045 -0.2961
  164OSM    C7S18460   7.073   6.520   3.254  0.4545  0.2545 -0.4763
  164OSM    H7S18461   7.051   6.617   3.304  0.3061 -0.2880  0.5435
  164OSM    H7T18462   7.143   6.544   3.172  0.1249 -0.4130 -0.9628
  164OSM    C8S18463   7.154   6.433   3.355  0.0430  0.0868 -0.5669
  164OSM    H8S18464   7.240   6.494   3.391  2.7150 -2.3160 -2.5056
  164OSM    H8T18465   7.194   6.345   3.302  0.7274  1.8882 -3.2601
  164OSM    C9S18466   7.076   6.392   3.482 -0.6026  0.2201 -0.3670
  164OSM    H9S18467   6.990   6.325   3.463  0.8416 -1.4881 -1.1800
  164OSM    H9T18468   7.047   6.481   3.541 -0.0358  0.9063 -1.1022
  164OSM   C10S18469   7.166   6.322   3.584  0.1037 -0.3330 -0.4356
  164OSM   H10S18470   7.265   6.372   3.589  0.6497 -1.3055 -1.1519
  164OSM   H10T18471   7.194   6.224   3.539  0.3932 -0.5355  0.1809
  164OSM   C11S18472   7.103   6.297   3.725 -0.0700  0.5477  0.7283
  164OSM   H11S18473   7.014   6.233   3.709  0.1068  0.3335  0.6020
  164OSM   H11T18474   7.061   6.390   3.770 -1.0980  0.5908 -0.2793
  164OSM   C12S18475   7.195   6.217   3.817  0.2053 -0.0596  0.1759
  164OSM   H12S18476   7.288   6.269   3.846  0.1553 -0.9344  2.0721
  164OSM   H12T18477   7.238   6.129   3.764  1.4421  0.2989  0.5700
  164OSM   C13S18478   7.126   6.164   3.945  0.3871 -0.3700 -0.0120
  164OSM   H13S18479   7.055   6.088   3.906 -1.0608  1.7848 -1.8030
  164OSM   H13T18480   7.059   6.239   3.993 -1.8799 -2.8355  0.9043
  164OSM   C14S18481   7.218   6.097   4.045 -0.6544  0.4931  0.5745
  164OSM   H14S18482   7.302   6.166   4.071  0.4076 -0.5405  0.0162
  164OSM   H14T18483   7.269   6.017   3.987 -0.0731  1.0976  0.2389
  164OSM   C15S18484   7.159   6.042   4.173 -0.2416 -0.1062 -0.3364
  164OSM   H15S18485   7.056   6.007   4.152  0.0873 -0.1951 -1.9038
  164OSM   H15T18486   7.149   6.125   4.246 -0.9723 -0.2817 -0.2311
  164OSM   C16S18487   7.257   5.944   4.229  0.0721 -0.2822  0.5275
  164OSM   H16S18488   7.354   5.991   4.259 -1.2978  1.4488  2.5198
  164OSM   H16T18489   7.280   5.871   4.149  0.9984 -0.0147  0.5355
  164OSM   C17S18490   7.198   5.887   4.359  0.0497 -0.1701  0.3444
  164OSM   H17S18491   7.090   5.872   4.341 -0.0349  0.6716  0.0835
  164OSM   H17T18492   7.194   5.965   4.439 -2.1400 -1.0314  1.1222
  164OSM   C18S18493   7.257   5.756   4.414  0.4620 -0.8164  0.4703
  164OSM   H18S18494   7.204   5.724   4.506  0.9149 -3.0925  0.0152
  164OSM   H18T18495   7.364   5.766   4.441  0.2283  0.7942  0.8842
  164OSM   H18U18496   7.244   5.673   4.341 -2.1946 -0.6310  0.6547
  164OSM    C1F18497   6.564   6.240   2.815 -0.5028  0.3528  0.0406
  164OSM     OF18498   6.603   6.167   2.723  0.5450  0.6564 -0.7221
  164OSM    C2F18499   6.444   6.215   2.896  0.1896  0.1810 -0.0513
  164OSM    H2F18500   6.361   6.182   2.831 -0.1592  1.1604 -0.1303
  164OSM    H2G18501   6.405   6.301   2.955  0.6885  0.6359 -0.3667
  164OSM    C3F18502   6.488   6.092   2.987 -0.3139  0.9801  0.5339
  164OSM    H3F18503   6.532   6.018   2.917 -1.0513  0.0706  1.0119
  164OSM    H3G18504   6.395   6.043   3.022 -0.7968  0.9473 -0.7572
  164OSM    C4F18505   6.571   6.131   3.113  0.0343 -0.1644  0.2435
  164OSM    H4F18506   6.663   6.182   3.077  0.0618 -0.5587 -0.2529
  164OSM    H4G18507   6.590   6.032   3.160 -0.2936 -0.9921 -1.2866
  164OSM    C5F18508   6.493   6.204   3.216  0.6739 -0.1392 -0.2964
  164OSM    H5F18509   6.409   6.139   3.249 -0.9864  0.7810 -2.4897
  164OSM    H5G18510   6.450   6.301   3.181  0.0013 -0.3554 -0.0739
  164OSM    C6F18511   6.569   6.250   3.347  0.4925 -0.1911  0.0281
  164OSM    H6F18512   6.652   6.312   3.307  0.3229  1.0586  1.4900
  164OSM    H6G18513   6.614   6.159   3.393  0.0553 -1.2123 -1.4997
  164OSM    C7F18514   6.491   6.349   3.438  0.6374  0.2365  0.2050
  164OSM    H7F18515   6.403   6.292   3.475  0.7961 -0.9259 -1.1074
  164OSM    H7G18516   6.445   6.430   3.378  0.1538 -0.3706 -0.2684
  164OSM    C8F18517   6.579   6.405   3.555  0.0154 -0.5554 -0.7340
  164OSM    H8F18518   6.527   6.490   3.605 -0.3096 -0.4268 -1.2751
  164OSM    H8G18519   6.673   6.444   3.510 -1.2123  1.2457 -1.9070
  164OSM    C9F18520   6.601   6.296   3.655 -0.0675 -0.3836 -0.3813
  164OSM    H9F18521   6.626   6.198   3.611 -1.1337 -0.5865 -0.5590
  164OSM   C10F18522   6.610   6.319   3.785 -0.1962  0.0209  0.2612
  164OSM   H10F18523   6.625   6.231   3.849  2.2471  0.4960  0.4420
  164OSM   C11F18524   6.601   6.449   3.864 -0.4454 -0.4200  0.2252
  164OSM   H11F18525   6.500   6.494   3.862  0.2157  1.1372  0.3823
  164OSM   H11G18526   6.675   6.527   3.834  0.7165 -1.5583  0.0426
  164OSM   C12F18527   6.642   6.431   4.016 -0.7612  0.9140  0.1806
  164OSM   H12F18528   6.579   6.346   4.051  1.7433 -0.5803  1.2732
  164OSM   H12G18529   6.622   6.519   4.082  0.8102  1.2960  0.1764
  164OSM   C13F18530   6.786   6.378   4.027 -0.5064 -0.0814  0.2468
  164OSM   H13F18531   6.860   6.458   4.004  1.4763 -2.2664 -1.5483
  164OSM   H13G18532   6.815   6.298   3.955  0.7430 -0.2549  0.9259
  164OSM   C14F18533   6.829   6.317   4.159 -0.1389 -0.9299 -0.3797
  164OSM   H14F18534   6.937   6.291   4.154 -0.5264 -2.7947  0.1829
  164OSM   H14G18535   6.772   6.223   4.176 -0.6459 -0.7094 -0.8334
  164OSM   C15F18536   6.813   6.417   4.273 -0.0022 -0.2781 -0.5156
  164OSM   H15F18537   6.704   6.435   4.283  0.0915 -0.3975  0.8765
  164OSM   H15G18538   6.856   6.517   4.253 -2.0448  0.7710  0.0622
  164OSM   C16F18539   6.872   6.356   4.400 -0.5962 -0.1746  0.6507
  164OSM   H16F18540   6.982   6.370   4.395 -0.8705  1.8697 -0.7311
  164OSM   H16G18541   6.846   6.248   4.394  0.6159 -0.4077 -1.0159
  164OSM   C17F18542   6.794   6.411   4.523 -0.5361 -0.0467  0.3853
  164OSM   H17F18543   6.685   6.411   4.503 -0.6932 -0.9070  1.1553
  164OSM   H17G18544   6.824   6.517   4.525  0.8793 -0.4211 -0.0499
  164OSM   C18F18545   6.834   6.347   4.658  0.2012 -0.1146  0.9079
  164OSM   H18F18546   6.827   6.237   4.656 -1.4993 -0.0600  1.6980
  164OSM   H18G18547   6.765   6.388   4.735  0.6520  0.7289  0.8777
  164OSM   H18H18548   6.929   6.386   4.701  1.1009  0.0659 -1.1172
  165SAPS     N18549   1.013   5.069   6.928 -0.4283  0.0318  0.1417
  165SAPS   HN118550   0.977   5.085   7.024  1.5939  1.1172  0.7779
  165SAPS   HN218551   1.116   5.081   6.940 -0.2365 -0.4823 -0.8487
  165SAPS   HN318552   0.968   5.149   6.879 -4.7846 -1.1119  1.8130
  165SAPS   C1218553   0.979   4.937   6.869  0.0074  0.1735  0.1151
  165SAPS  H12A18554   0.991   4.863   6.947  1.7898 -2.4287 -2.4218
  165SAPS   C1318555   0.839   4.909   6.806 -0.2805  1.1515  0.1002
  165SAPS  O13A18556   0.742   4.993   6.807  0.3377 -0.2902  0.0873
  165SAPS  O13B18557   0.798   4.789   6.797 -0.0907 -0.2009  1.0790
  165SAPS   C1118558   1.088   4.914   6.769 -0.0923  1.1531  0.3373
  165SAPS  H11A18559   1.084   4.984   6.683  0.0188  0.6603 -0.0784
  165SAPS  H11B18560   1.071   4.810   6.733  1.9645  1.5180 -1.9278
  165SAPS     P18561   1.345   4.924   6.748 -0.0492  0.0138 -0.1146
  165SAPS   O1318562   1.458   4.911   6.836 -0.3406  0.0810 -0.1645
  165SAPS   O1418563   1.334   4.818   6.650 -0.3150 -0.1366 -0.2699
  165SAPS   O1218564   1.212   4.921   6.832 -1.0798 -0.1479 -0.2063
  165SAPS   O1118565   1.353   5.066   6.680 -0.1126  0.4375  0.0487
  165SAPS    C118566   1.374   5.190   6.757  0.0560  0.2460  0.2438
  165SAPS    HA18567   1.273   5.233   6.776 -0.0961 -0.0200  0.0511
  165SAPS    HB18568   1.428   5.178   6.853 -0.6585 -2.2743  0.4141
  165SAPS    C218569   1.456   5.297   6.678  0.1095  0.2321 -0.3350
  165SAPS    HS18570   1.462   5.390   6.738 -0.8033 -0.3814  0.7484
  165SAPS   O2118571   1.394   5.331   6.553 -0.3928  0.2993 -0.3579
  165SAPS   C2118572   1.275   5.383   6.547  0.3940  0.1240 -0.3668
  165SAPS   O2218573   1.202   5.405   6.643  1.0379  0.0837 -0.4530
  165SAPS   C2218574   1.230   5.413   6.399 -0.2214  0.6804  0.6501
  165SAPS   H2R18575   1.317   5.392   6.333 -0.7502  2.7492 -0.7970
  165SAPS   H2S18576   1.143   5.351   6.372  0.3804  0.0365  0.1702
  165SAPS    C318577   1.606   5.252   6.657 -0.2261 -0.4410  0.2631
  165SAPS    HX18578   1.598   5.155   6.603  0.0687 -0.6336  0.5620
  165SAPS    HY18579   1.660   5.237   6.753  2.8679  2.4035 -0.8585
  165SAPS   O3118580   1.687   5.340   6.583  0.6891  0.3251 -0.0322
  165SAPS   C3118581   1.722   5.456   6.647 -0.1829 -0.2293 -0.3709
  165SAPS   O3218582   1.703   5.474   6.767 -0.5942  0.0791 -0.2466
  165SAPS   C3218583   1.785   5.558   6.550  0.4366  0.4904 -0.5175
  165SAPS   H2X18584   1.767   5.506   6.453  0.6417 -1.5430  0.4923
  165SAPS   H2Y18585   1.894   5.563   6.571  0.5515 -1.7754 -0.4176
  165SAPS   C2318586   1.206   5.561   6.370 -0.3798  0.4036 -0.2554
  165SAPS   H3R18587   1.295   5.620   6.401  0.0801 -1.7918  3.1329
  165SAPS   H3S18588   1.117   5.596   6.426  0.6303 -2.2110  3.3548
  165SAPS   C2418589   1.173   5.591   6.225  0.4393 -0.1058  0.7389
  165SAPS   H4R18590   1.141   5.696   6.210  1.6513 -0.0766 -2.1086
  165SAPS   H4S18591   1.088   5.527   6.194 -1.0685  1.9026  0.4734
  165SAPS   C2518592   1.291   5.562   6.136 -0.4680 -0.1573 -0.2665
  165SAPS   H5R18593   1.389   5.560   6.187 -0.9878 -3.3068  0.8308
  165SAPS   C2618594   1.292   5.589   6.004  0.0062  0.7932 -0.3624
  165SAPS   H6R18595   1.386   5.562   5.954  2.8849  3.4305  3.0866
  165SAPS   C2718596   1.166   5.613   5.920 -0.0382  0.1068  0.2650
  165SAPS   H7R18597   1.065   5.608   5.967  0.4926 -1.0671  1.3453
  165SAPS   H7S18598   1.155   5.523   5.856 -2.6498 -1.1094  2.2054
  165SAPS   C2818599   1.170   5.738   5.838 -0.5303 -0.3980 -0.7442
  165SAPS   H8R18600   1.223   5.824   5.884 -3.2184  0.4856  0.9095
  165SAPS   C2918601   1.128   5.762   5.717 -0.2873  0.0340  0.3084
  165SAPS   H9R18602   1.160   5.855   5.668 -1.7862  0.2312 -0.3757
  165SAPS  C21018603   1.049   5.677   5.619 -0.6335  1.1258  0.2222
  165SAPS  H10R18604   0.994   5.730   5.539 -0.7616 -1.2086 -1.3506
  165SAPS  H10S18605   0.976   5.618   5.679  0.8497 -0.0513  0.9395
  165SAPS  C21118606   1.139   5.578   5.552  0.1273 -0.5154 -0.3487
  165SAPS  H11R18607   1.196   5.517   5.624 -1.9573 -0.7658  1.1972
  165SAPS  C21218608   1.138   5.533   5.426  0.3442 -0.3070 -0.1701
  165SAPS  H12R18609   1.204   5.449   5.398 -0.1744 -0.7829  0.0139
  165SAPS  C21318610   1.055   5.585   5.309  0.0709 -0.5881  0.2184
  165SAPS  H13R18611   1.069   5.517   5.223 -0.7705 -3.1453  2.0099
  165SAPS  H13S18612   1.101   5.680   5.272 -1.2438 -0.1110 -0.2664
  165SAPS  C21418613   0.910   5.614   5.334 -0.1977 -0.0536  0.8227
  165SAPS  H14R18614   0.851   5.534   5.382  0.3255 -0.5155  0.7076
  165SAPS  C21518615   0.841   5.718   5.293 -0.2473  0.4641  0.5119
  165SAPS  H15R18616   0.733   5.719   5.314 -0.0899 -1.5658  1.6903
  165SAPS  C21618617   0.890   5.843   5.226 -0.3525 -0.4222 -0.3775
  165SAPS  H16R18618   1.001   5.847   5.211 -0.4930 -0.4198 -1.5184
  165SAPS  H16S18619   0.858   5.934   5.282  2.3751  1.0729 -1.0384
  165SAPS  C21718620   0.837   5.866   5.087  0.0822 -0.5294 -0.3136
  165SAPS  H17R18621   0.876   5.966   5.056  2.4970 -0.0277  3.5858
  165SAPS  H17S18622   0.729   5.886   5.100  0.4368  1.3003  0.1630
  165SAPS  C21818623   0.884   5.760   4.986  0.7243  1.0732 -0.4266
  165SAPS  H18R18624   0.832   5.669   5.022 -0.7171  0.8987 -2.6962
  165SAPS  H18S18625   0.995   5.748   4.989  0.7040 -0.0856 -2.2998
  165SAPS  C21918626   0.841   5.782   4.842 -0.1344  0.0138 -0.1653
  165SAPS  H19R18627   0.730   5.788   4.833 -0.3641 -2.2558  0.4864
  165SAPS  H19S18628   0.866   5.685   4.795  1.6226  0.2960  0.1254
  165SAPS  C22018629   0.910   5.902   4.772  0.1192  0.3252  0.1857
  165SAPS  H20R18630   1.020   5.885   4.769  0.1399 -0.2466  2.2929
  165SAPS  H20S18631   0.874   5.996   4.820 -1.1621  0.9732 -1.9432
  165SAPS  H20T18632   0.862   5.893   4.672 -0.7577 -1.0641  0.6998
  165SAPS   C3318633   1.714   5.699   6.560 -0.0612  0.4287  0.1138
  165SAPS   H3X18634   1.743   5.751   6.654 -1.5402  0.1292  0.7577
  165SAPS   H3Y18635   1.606   5.678   6.570  0.0472 -0.0651  0.2841
  165SAPS   C3418636   1.753   5.782   6.434  0.0268 -0.1397  0.1425
  165SAPS   H4X18637   1.861   5.766   6.411 -0.3606 -1.3283 -0.9660
  165SAPS   H4Y18638   1.740   5.885   6.475 -0.6434 -0.4791  0.7922
  165SAPS   C3518639   1.674   5.748   6.310 -0.0618  0.3055  0.9620
  165SAPS   H5X18640   1.568   5.760   6.342 -0.8228  0.1931 -1.3804
  165SAPS   H5Y18641   1.688   5.639   6.295  0.5231  0.4637  0.2997
  165SAPS   C3618642   1.708   5.829   6.182 -0.1849  0.3873 -0.1176
  165SAPS   H6X18643   1.802   5.785   6.140 -1.3688 -2.6419  0.1351
  165SAPS   H6Y18644   1.718   5.939   6.184 -2.4291  0.6554 -0.6375
  165SAPS   C3718645   1.596   5.799   6.082 -0.6489  0.3707  0.4712
  165SAPS   H7X18646   1.495   5.845   6.095 -1.5587 -0.8113 -1.8829
  165SAPS   H7Y18647   1.583   5.689   6.084 -0.3204  0.3372  0.9790
  165SAPS   C3818648   1.647   5.841   5.941 -0.0854 -0.4175 -0.7913
  165SAPS   H8X18649   1.743   5.790   5.918  1.4797  2.7496 -1.9644
  165SAPS   H8Y18650   1.657   5.952   5.939 -0.8723 -0.2272  2.0031
  165SAPS   C3918651   1.539   5.816   5.840  0.0304 -0.2088 -0.1023
  165SAPS   H9X18652   1.445   5.864   5.877  1.0073  2.0802 -0.4098
  165SAPS   H9Y18653   1.501   5.712   5.833  0.7327 -0.4605 -0.1966
  165SAPS  C31018654   1.558   5.887   5.708  0.5772 -0.2599  0.8925
  165SAPS  H10X18655   1.637   5.847   5.640  1.3337  1.3979  0.7435
  165SAPS  H10Y18656   1.593   5.991   5.720  1.9119 -0.4410 -0.9261
  165SAPS  C31118657   1.424   5.897   5.630 -0.2979 -0.9058 -0.5743
  165SAPS  H11X18658   1.359   5.968   5.685 -0.0286 -0.8079 -0.3875
  165SAPS  H11Y18659   1.390   5.793   5.609 -0.1235 -0.9278 -0.7472
  165SAPS  C31218660   1.459   5.973   5.505 -0.6700 -0.1953  0.1262
  165SAPS  H12X18661   1.530   5.907   5.450  0.0144  1.4212 -1.0234
  165SAPS  H12Y18662   1.513   6.068   5.528 -2.6915  0.4429  2.6400
  165SAPS  C31318663   1.336   6.004   5.418 -0.1399  0.7038 -0.5155
  165SAPS  H13X18664   1.262   6.061   5.478 -0.5976 -1.2661  0.8740
  165SAPS  H13Y18665   1.292   5.905   5.392 -0.6210  1.3600 -2.3747
  165SAPS  C31418666   1.370   6.061   5.286  0.3588 -0.1143  0.3156
  165SAPS  H14X18667   1.422   5.982   5.228  0.5244 -0.1597  0.5260
  165SAPS  H14Y18668   1.435   6.150   5.296 -0.6888  1.2015 -3.0732
  165SAPS  C31518669   1.246   6.092   5.204  1.2698 -0.4038 -0.2486
  165SAPS  H15X18670   1.168   6.143   5.265  2.3512 -2.1405  2.7851
  165SAPS  H15Y18671   1.204   5.991   5.184 -1.4854  0.9372 -1.8880
  165SAPS  C31618672   1.280   6.153   5.062 -0.2140  0.3751 -0.0029
  165SAPS  H16X18673   1.340   6.246   5.073 -0.1225  0.4246 -0.8538
  165SAPS  H16Y18674   1.179   6.164   5.018  0.1036 -1.0125 -1.1373
  165SAPS  C31718675   1.360   6.061   4.968 -0.8947 -0.5193  0.1946
  165SAPS  H17X18676   1.458   6.044   5.019 -0.4334  1.4276  0.0243
  165SAPS  H17Y18677   1.368   6.099   4.864  1.2824 -2.3063 -0.3804
  165SAPS  C31818678   1.294   5.924   4.950  0.3738 -0.2475 -0.2929
  165SAPS  H18X18679   1.185   5.929   4.931 -0.1233 -2.8769  1.3615
  165SAPS  H18Y18680   1.316   5.849   5.029 -2.1083  0.9727  1.6615
  165SAPS  H18Z18681   1.319   5.879   4.851  0.8556  0.6973 -0.6181
  166SAPS     N18682   0.891   4.504   7.256  0.1901 -0.3156  0.0398
  166SAPS   HN118683   0.806   4.532   7.309  1.3882  1.2317  1.2377
  166SAPS   HN218684   0.871   4.465   7.162  1.9674 -1.3746  0.0500
  166SAPS   HN318685   0.942   4.431   7.311 -1.5077 -1.7628 -0.2267
  166SAPS   C1218686   0.970   4.628   7.234 -0.4764  0.2988  0.6906
  166SAPS  H12A18687   0.912   4.701   7.179 -0.4881 -1.3849 -1.6664
  166SAPS   C1318688   1.019   4.701   7.366 -0.2309  0.0826  0.5202
  166SAPS  O13A18689   0.996   4.653   7.480  0.3613  0.1462 -0.2218
  166SAPS  O13B18690   1.052   4.819   7.350 -0.1146 -0.1800  0.7585
  166SAPS   C1118691   1.098   4.596   7.150  0.3423 -0.6615 -0.1262
  166SAPS  H11A18692   1.148   4.516   7.208 -1.1995 -0.1116  2.0987
  166SAPS  H11B18693   1.158   4.689   7.143 -0.2251 -0.3732 -1.3971
  166SAPS     P18694   1.159   4.454   6.937 -0.1381 -0.5929 -0.2204
  166SAPS   O1318695   1.296   4.514   6.944  0.1065  0.2256  0.3143
  166SAPS   O1418696   1.141   4.316   6.989  0.0154  0.0424  0.4407
  166SAPS   O1218697   1.066   4.551   7.019  0.5462 -0.4209  1.0041
  166SAPS   O1118698   1.091   4.464   6.790  0.2401  0.3441  0.8156
  166SAPS    C118699   1.164   4.525   6.683 -0.3896  0.6124  0.8817
  166SAPS    HA18700   1.196   4.626   6.717  1.9989  1.0633 -2.2480
  166SAPS    HB18701   1.251   4.460   6.660  1.4273  2.2689  2.6798
  166SAPS    C218702   1.091   4.533   6.543  0.4684  0.0385 -0.4098
  166SAPS    HS18703   0.988   4.558   6.575 -0.2162 -3.1053  0.2343
  166SAPS   O2118704   1.090   4.396   6.486  0.2395  0.3361 -0.3747
  166SAPS   C2118705   0.974   4.347   6.440  0.0377  0.8846  0.3079
  166SAPS   O2218706   0.866   4.399   6.442  0.1445 -0.5045  0.1087
  166SAPS   C2218707   1.000   4.226   6.356  0.6098  0.8861  0.4269
  166SAPS   H2R18708   0.911   4.209   6.291  2.2604 -0.4537 -1.6349
  166SAPS   H2S18709   1.089   4.242   6.291  1.5826 -2.1314  0.8682
  166SAPS    C318710   1.149   4.638   6.447  0.7222  0.5467  0.4649
  166SAPS    HX18711   1.258   4.616   6.438  0.2785 -1.7350  0.2507
  166SAPS    HY18712   1.157   4.746   6.471  3.8140  0.9158 -1.5526
  166SAPS   O3118713   1.092   4.620   6.312 -0.2420 -0.3628  0.0201
  166SAPS   C3118714   0.967   4.663   6.289 -0.4176  0.1805  0.1373
  166SAPS   O3218715   0.897   4.715   6.370  0.0195 -0.9815  0.1539
  166SAPS   C3218716   0.918   4.619   6.149  1.0288  0.7403  0.2595
  166SAPS   H2X18717   0.934   4.699   6.074 -3.2810  0.6694 -0.9967
  166SAPS   H2Y18718   0.807   4.617   6.153  0.9542 -1.0433 -1.3678
  166SAPS   C2318719   1.018   4.108   6.456 -0.8196  1.0398  0.2553
  166SAPS   H3R18720   0.941   4.087   6.533 -3.4724  1.2859 -2.1777
  166SAPS   H3S18721   1.110   4.130   6.513  0.6301  0.6337 -1.7883
  166SAPS   C2418722   1.047   3.967   6.381  0.1264 -0.2490 -0.5555
  166SAPS   H4R18723   1.051   3.892   6.463  0.9726 -0.5333 -0.8361
  166SAPS   H4S18724   1.149   3.971   6.336  2.0181 -3.4945  2.9019
  166SAPS   C2518725   0.936   3.931   6.281  0.6878  0.1553  0.4545
  166SAPS   H5R18726   0.836   3.912   6.324  0.5355 -0.3838 -0.1266
  166SAPS   C2618727   0.946   3.926   6.147  0.4931 -0.7297 -0.6972
  166SAPS   H6R18728   0.855   3.899   6.092  0.0744  0.3831 -0.5656
  166SAPS   C2718729   1.069   3.955   6.065  0.6198 -0.0307 -0.0942
  166SAPS   H7R18730   1.156   3.981   6.127 -0.7317 -0.7129  2.2058
  166SAPS   H7S18731   1.040   4.045   6.006  0.2695 -1.5859 -2.4038
  166SAPS   C2818732   1.106   3.843   5.974 -0.2321 -0.2171  0.1846
  166SAPS   H8R18733   1.141   3.750   6.022  0.3279  0.9378  2.1299
  166SAPS   C2918734   1.108   3.849   5.839 -0.5283 -0.5448  0.2846
  166SAPS   H9R18735   1.121   3.757   5.781 -0.3224  1.6868 -3.5503
  166SAPS  C21018736   1.082   3.972   5.760  0.4941  0.2400 -0.1381
  166SAPS  H10R18737   1.162   4.046   5.783  0.6841 -0.0885  0.2701
  166SAPS  H10S18738   0.984   4.018   5.786 -0.3641 -1.8597  0.5887
  166SAPS  C21118739   1.073   3.948   5.607 -1.4793 -0.5820 -0.4645
  166SAPS  H11R18740   1.002   3.869   5.579 -2.6122  0.5926 -1.0064
  166SAPS  C21218741   1.144   4.014   5.510 -0.1197 -0.9708 -0.5865
  166SAPS  H12R18742   1.124   3.980   5.407  0.6033 -1.8572 -0.4374
  166SAPS  C21318743   1.235   4.131   5.528  0.7636 -0.2473 -0.3098
  166SAPS  H13R18744   1.261   4.141   5.635 -0.3650  1.4155 -0.1546
  166SAPS  H13S18745   1.183   4.229   5.515  0.0695 -0.6945 -0.9958
  166SAPS  C21418746   1.362   4.145   5.449 -0.5404  0.5451 -0.1025
  166SAPS  H14R18747   1.451   4.100   5.495 -3.3314 -1.7264  3.6292
  166SAPS  C21518748   1.374   4.184   5.322 -0.0121  0.7157 -0.3276
  166SAPS  H15R18749   1.472   4.168   5.275  0.7932 -0.1420  1.5160
  166SAPS  C21618750   1.263   4.243   5.236  0.9517  0.2940  0.1610
  166SAPS  H16R18751   1.289   4.348   5.212  1.3852 -0.0737 -1.0861
  166SAPS  H16S18752   1.175   4.258   5.302  1.5167 -0.8032  1.1882
  166SAPS  C21718753   1.235   4.165   5.107 -0.3816 -0.2010 -0.8671
  166SAPS  H17R18754   1.141   4.199   5.058 -0.3685  1.2862  0.0862
  166SAPS  H17S18755   1.230   4.057   5.130 -0.7921 -0.1706 -0.8021
  166SAPS  C21818756   1.342   4.190   4.995 -0.0796 -0.1883 -0.0721
  166SAPS  H18R18757   1.444   4.177   5.037  0.4907 -2.8417 -2.0839
  166SAPS  H18S18758   1.329   4.297   4.968  0.0908 -0.2211 -0.2896
  166SAPS  C21918759   1.323   4.095   4.878 -0.1813  0.0238 -0.2388
  166SAPS  H19R18760   1.347   3.993   4.913  0.8563 -0.4101 -2.1001
  166SAPS  H19S18761   1.395   4.114   4.796  1.1164 -1.8581  0.4067
  166SAPS  C22018762   1.181   4.091   4.820  0.2978  0.2729  0.1308
  166SAPS  H20R18763   1.207   4.063   4.716  1.8544 -0.4123  0.6809
  166SAPS  H20S18764   1.134   4.192   4.828 -0.6310  0.0295 -1.6491
  166SAPS  H20T18765   1.128   4.010   4.875  0.0229 -0.4057 -1.0935
  166SAPS   C3318766   0.980   4.487   6.100  0.1570 -0.5174 -0.2228
  166SAPS   H3X18767   0.920   4.405   6.144  1.2089 -0.6853  0.9572
  166SAPS   H3Y18768   1.083   4.464   6.134  0.4544  0.2467 -0.5871
  166SAPS   C3418769   0.961   4.475   5.948  0.6553 -0.2219 -0.2512
  166SAPS   H4X18770   0.996   4.570   5.903  0.5850  1.4312  2.8542
  166SAPS   H4Y18771   0.853   4.470   5.926  0.2357  0.8743  1.4002
  166SAPS   C3518772   1.014   4.341   5.889  0.4021 -0.3145  0.4923
  166SAPS   H5X18773   0.965   4.247   5.922 -1.1148  0.0004 -0.7458
  166SAPS   H5Y18774   1.122   4.333   5.916  0.2734 -0.9885  0.8296
  166SAPS   C3618775   0.984   4.347   5.732 -0.1718 -0.0937  0.4607
  166SAPS   H6X18776   0.880   4.385   5.724 -0.3255 -0.6320 -0.2727
  166SAPS   H6Y18777   0.973   4.248   5.683 -0.4053  1.0217 -1.9031
  166SAPS   C3718778   1.069   4.439   5.651  0.1219  0.2998  0.0961
  166SAPS   H7X18779   1.179   4.422   5.652  0.1922  0.3214 -2.1523
  166SAPS   H7Y18780   1.060   4.540   5.697  1.0592  0.3787  0.1421
  166SAPS   C3818781   1.017   4.463   5.507 -0.0737 -0.1983 -0.3057
  166SAPS   H8X18782   0.906   4.452   5.499 -0.3152  1.3037  0.5944
  166SAPS   H8Y18783   1.070   4.396   5.436  0.6246 -0.9294  0.8798
  166SAPS   C3918784   1.043   4.601   5.454 -1.0453 -0.6903 -0.1520
  166SAPS   H9X18785   1.145   4.636   5.477 -0.5712 -1.4064 -1.0796
  166SAPS   H9Y18786   0.981   4.679   5.503 -0.1558 -1.2500  1.9432
  166SAPS  C31018787   1.032   4.593   5.301 -0.2426 -0.1340 -0.3051
  166SAPS  H10X18788   0.930   4.560   5.270 -0.3387  1.8849 -2.3903
  166SAPS  H10Y18789   1.112   4.527   5.262  0.6537  1.0358 -0.4766
  166SAPS  C31118790   1.044   4.731   5.248 -0.5494 -0.1523  0.4132
  166SAPS  H11X18791   1.123   4.792   5.298  2.0257 -1.2741 -1.9810
  166SAPS  H11Y18792   0.948   4.786   5.250  0.6158  2.0639 -0.6979
  166SAPS  C31218793   1.083   4.739   5.102 -0.1596 -0.4872 -0.0063
  166SAPS  H12X18794   1.183   4.691   5.097 -0.6493 -1.5849  0.3241
  166SAPS  H12Y18795   1.088   4.845   5.069 -1.7683 -0.3610  0.0586
  166SAPS  C31318796   0.988   4.672   5.007 -0.9253 -0.4948  0.2905
  166SAPS  H13X18797   0.907   4.745   4.987  0.2820  0.7837 -0.0516
  166SAPS  H13Y18798   0.957   4.576   5.054 -0.2802 -0.6726  0.3668
  166SAPS  C31418799   1.057   4.640   4.869  0.4104  0.5618  0.0162
  166SAPS  H14X18800   1.066   4.529   4.869  0.6729  0.5822 -0.1057
  166SAPS  H14Y18801   1.161   4.676   4.856  0.8878 -0.7735 -0.0766
  166SAPS  C31518802   0.986   4.698   4.740  0.6619  0.8153 -0.2748
  166SAPS  H15X18803   1.036   4.640   4.659 -1.0874  0.1470 -0.9403
  166SAPS  H15Y18804   0.987   4.809   4.738  0.3008  0.9491  2.5722
  166SAPS  C31618805   0.838   4.667   4.722  0.0859  0.3279  0.4682
  166SAPS  H16X18806   0.774   4.702   4.805 -1.8424 -0.8675 -0.4389
  166SAPS  H16Y18807   0.834   4.555   4.720  1.6203  0.2546  0.3768
  166SAPS  C31718808   0.788   4.714   4.587  1.0285 -0.1702 -0.1127
  166SAPS  H17X18809   0.870   4.688   4.516  0.1935 -0.4902 -0.9797
  166SAPS  H17Y18810   0.768   4.823   4.582 -1.2813 -0.5634 -0.4984
  166SAPS  C31818811   0.653   4.649   4.555  0.1953  0.9353 -0.2448
  166SAPS  H18X18812   0.633   4.653   4.446  1.5062  2.4544 -0.4651
  166SAPS  H18Y18813   0.565   4.689   4.610 -1.5708 -0.7393 -1.7030
  166SAPS  H18Z18814   0.658   4.539   4.571 -0.8011  0.9628  0.4026
  167SAPS     N18815   3.308   0.188   6.963 -0.7180  0.2251  0.2449
  167SAPS   HN118816   3.230   0.119   6.962 -1.6199  1.1857 -2.1867
  167SAPS   HN218817   3.288   0.271   6.904 -0.7957  1.8834  2.4594
  167SAPS   HN318818   3.385   0.141   6.911 -0.4446 -0.1062  0.9334
  167SAPS   C1218819   3.340   0.233   7.101  0.5620 -0.4310 -0.2841
  167SAPS  H12A18820   3.251   0.264   7.154  0.4819 -3.1077  1.3448
  167SAPS   C1318821   3.410   0.115   7.180 -0.1914 -0.0102 -0.4616
  167SAPS  O13A18822   3.438   0.010   7.119 -0.0321  0.4169  0.2165
  167SAPS  O13B18823   3.433   0.129   7.304  0.2043  0.0399 -0.0980
  167SAPS   C1118824   3.444   0.347   7.091 -0.2989  0.0723  0.1061
  167SAPS  H11A18825   3.531   0.316   7.030  1.3030 -0.0053  2.3119
  167SAPS  H11B18826   3.485   0.366   7.193  0.9440  1.5593 -0.6276
  167SAPS     P18827   3.474   0.593   7.035  0.1875 -0.1551 -0.0241
  167SAPS   O1318828   3.457   0.658   7.166 -0.3549  0.3552  0.1147
  167SAPS   O1418829   3.614   0.557   7.001 -0.5463  0.0067  0.2200
  167SAPS   O1218830   3.385   0.466   7.038 -0.1762 -0.4323  0.3525
  167SAPS   O1118831   3.415   0.679   6.918  0.1042 -0.0099 -0.2086
  167SAPS    C118832   3.382   0.625   6.790 -0.2583 -0.2796 -0.1669
  167SAPS    HA18833   3.448   0.681   6.720 -0.3610  1.5121  1.0784
  167SAPS    HB18834   3.394   0.515   6.788  0.0728 -0.2712  0.7178
  167SAPS    C218835   3.241   0.657   6.733 -0.7011  0.0018 -0.0686
  167SAPS    HS18836   3.167   0.598   6.792 -1.9213  0.4361 -1.1197
  167SAPS   O2118837   3.237   0.619   6.596 -0.3157 -0.0382  0.4195
  167SAPS   C2118838   3.119   0.625   6.540  0.2388  0.1649  0.8468
  167SAPS   O2218839   3.013   0.658   6.587  0.4088  0.3656  0.3102
  167SAPS   C2218840   3.142   0.606   6.388 -0.4307  0.0306 -0.1868
  167SAPS   H2R18841   3.238   0.556   6.365 -0.6973  0.3017 -1.9668
  167SAPS   H2S18842   3.062   0.534   6.361 -0.9879  0.1794  0.9772
  167SAPS    C318843   3.205   0.804   6.740  0.1541 -0.2503  0.0115
  167SAPS    HX18844   3.220   0.842   6.843  1.7080  1.9008 -0.9466
  167SAPS    HY18845   3.098   0.819   6.714  0.9086  3.7959 -1.5188
  167SAPS   O3118846   3.281   0.884   6.646 -0.1507 -0.1144 -0.1075
  167SAPS   C3118847   3.258   1.006   6.669  0.4723 -0.1259 -0.1142
  167SAPS   O3218848   3.199   1.056   6.763  0.8011 -0.1773  0.1326
  167SAPS   C3218849   3.323   1.092   6.562 -0.3562 -1.1325 -0.3769
  167SAPS   H2X18850   3.429   1.064   6.544 -0.1667 -0.1865 -0.8542
  167SAPS   H2Y18851   3.313   1.193   6.607 -4.1860 -1.3238 -0.5251
  167SAPS   C2318852   3.125   0.738   6.308 -0.1810 -0.0908 -0.4482
  167SAPS   H3R18853   3.200   0.813   6.338 -0.5476 -0.4721  1.5265
  167SAPS   H3S18854   3.023   0.778   6.325  1.1330  2.2925  2.6797
  167SAPS   C2418855   3.139   0.704   6.155  0.4897 -0.0545 -0.3280
  167SAPS   H4R18856   3.058   0.633   6.130  0.0114  0.7481 -1.0986
  167SAPS   H4S18857   3.240   0.661   6.136  0.8228  1.3101 -1.8376
  167SAPS   C2518858   3.155   0.832   6.072  0.3145 -0.0318  0.0667
  167SAPS   H5R18859   3.099   0.917   6.114 -0.5060 -0.3089 -0.4369
  167SAPS   C2618860   3.196   0.847   5.948  1.1769  0.1385 -0.0062
  167SAPS   H6R18861   3.194   0.947   5.902 -0.0211  0.4637  0.7166
  167SAPS   C2718862   3.238   0.734   5.855  0.1283  0.3411  0.1682
  167SAPS   H7R18863   3.158   0.693   5.790  1.5323 -1.7064 -0.3726
  167SAPS   H7S18864   3.273   0.641   5.906 -0.6897 -0.8675 -1.3788
  167SAPS   C2818865   3.350   0.771   5.763  1.2046 -0.0978  0.3157
  167SAPS   H8R18866   3.440   0.797   5.819  1.3394 -2.0113  1.0591
  167SAPS   C2918867   3.355   0.776   5.628 -0.7312 -0.5877 -0.6591
  167SAPS   H9R18868   3.452   0.802   5.584 -0.5249 -2.4560 -1.3891
  167SAPS  C21018869   3.244   0.753   5.526  0.3792 -0.3431 -0.2003
  167SAPS  H10R18870   3.148   0.805   5.545  0.4942 -0.2022 -0.0076
  167SAPS  H10S18871   3.215   0.646   5.515 -1.7063  0.1579 -0.1088
  167SAPS  C21118872   3.277   0.798   5.386  0.5333  0.5377 -0.3959
  167SAPS  H11R18873   3.223   0.888   5.352  0.0089  0.7094  0.8182
  167SAPS  C21218874   3.365   0.739   5.305 -0.1753  0.0560 -0.6102
  167SAPS  H12R18875   3.382   0.785   5.206 -0.2248 -0.1919 -0.7353
  167SAPS  C21318876   3.458   0.631   5.337 -0.4441  0.6702 -0.7826
  167SAPS  H13R18877   3.419   0.559   5.413 -0.1257 -2.2637 -3.1737
  167SAPS  H13S18878   3.545   0.664   5.397  1.5810 -2.1513 -1.9203
  167SAPS  C21418879   3.497   0.560   5.204  1.2475  0.5810 -0.4272
  167SAPS  H14R18880   3.460   0.456   5.196  0.8584  0.7593 -0.9458
  167SAPS  C21518881   3.578   0.594   5.105  0.0114  0.4087  0.2280
  167SAPS  H15R18882   3.567   0.533   5.014 -2.0189  2.6648 -1.1439
  167SAPS  C21618883   3.653   0.724   5.101 -0.0178 -0.6934  0.1761
  167SAPS  H16R18884   3.683   0.764   5.200  2.7352 -3.8420  0.7809
  167SAPS  H16S18885   3.591   0.803   5.053 -0.2785  0.4989  2.3447
  167SAPS  C21718886   3.792   0.712   5.027  0.5621  0.3080  0.3552
  167SAPS  H17R18887   3.835   0.614   5.055  1.1836  0.4000 -0.2429
  167SAPS  H17S18888   3.864   0.790   5.062 -0.1616  1.0812  0.1582
  167SAPS  C21818889   3.782   0.723   4.877 -0.2490  0.5447 -0.4544
  167SAPS  H18R18890   3.732   0.819   4.853 -2.3882 -0.4260 -0.1258
  167SAPS  H18S18891   3.708   0.650   4.836 -0.4829  0.5570 -0.0581
  167SAPS  C21918892   3.906   0.689   4.804 -0.1416 -0.0477  0.2667
  167SAPS  H19R18893   3.977   0.774   4.810 -0.7211  0.3810  1.1587
  167SAPS  H19S18894   3.890   0.687   4.694  0.3650 -1.4893  0.1893
  167SAPS  C22018895   3.979   0.563   4.838 -0.4143 -0.0181  0.2667
  167SAPS  H20R18896   4.068   0.543   4.773 -0.7418  1.4536 -0.6964
  167SAPS  H20S18897   3.908   0.479   4.824  0.7049 -0.8385 -0.7258
  167SAPS  H20T18898   4.012   0.555   4.943 -1.6514 -1.6966  0.5677
  167SAPS   C3318899   3.260   1.095   6.422  0.1487  0.1242 -0.8558
  167SAPS   H3X18900   3.155   1.131   6.414 -0.5960 -1.9656 -0.9957
  167SAPS   H3Y18901   3.253   0.992   6.383  0.9401  0.4240 -1.8546
  167SAPS   C3418902   3.346   1.186   6.325 -0.2794 -0.3213  0.0702
  167SAPS   H4X18903   3.447   1.197   6.368 -2.1797  0.7083  4.8800
  167SAPS   H4Y18904   3.307   1.290   6.327 -1.3872 -0.7246  1.8715
  167SAPS   C3518905   3.352   1.129   6.186 -0.4880 -0.1484  0.1575
  167SAPS   H5X18906   3.246   1.111   6.158 -0.6777 -1.5071  1.5974
  167SAPS   H5Y18907   3.409   1.034   6.191  0.9775  0.7235  0.4536
  167SAPS   C3618908   3.439   1.203   6.084  0.5292 -0.2442  0.3056
  167SAPS   H6X18909   3.540   1.219   6.128  1.5246 -3.0315 -0.7204
  167SAPS   H6Y18910   3.393   1.301   6.061  0.2677 -0.4142  0.0943
  167SAPS   C3718911   3.450   1.127   5.955  0.0284 -0.4164  0.5900
  167SAPS   H7X18912   3.342   1.104   5.941 -0.6297 -0.0406  3.9788
  167SAPS   H7Y18913   3.517   1.040   5.968  3.2218  1.1636 -3.3974
  167SAPS   C3818914   3.492   1.212   5.839  0.4379  0.1180 -0.4830
  167SAPS   H8X18915   3.596   1.247   5.851  1.5576 -3.1445  0.5280
  167SAPS   H8Y18916   3.424   1.300   5.838 -0.5501 -0.6338 -0.9652
  167SAPS   C3918917   3.488   1.122   5.710 -0.3074 -0.1169 -1.4107
  167SAPS   H9X18918   3.386   1.076   5.707  1.3120 -4.2250 -0.0632
  167SAPS   H9Y18919   3.560   1.039   5.720  0.9862  0.9589 -1.5719
  167SAPS  C31018920   3.521   1.196   5.581 -0.2304  0.0494 -0.2921
  167SAPS  H10X18921   3.622   1.244   5.581  1.2901 -2.9272  0.0791
  167SAPS  H10Y18922   3.433   1.263   5.568 -1.6879 -1.4889  1.0926
  167SAPS  C31118923   3.517   1.104   5.448 -0.8331  0.4313 -1.5677
  167SAPS  H11X18924   3.424   1.042   5.451 -2.3879  2.6732  1.4816
  167SAPS  H11Y18925   3.603   1.034   5.446  0.4085  1.9217 -1.7305
  167SAPS  C31218926   3.529   1.190   5.318  1.0113  0.6603 -0.3090
  167SAPS  H12X18927   3.620   1.254   5.325  0.2572  1.5543  2.5186
  167SAPS  H12Y18928   3.439   1.254   5.306 -2.7425 -4.1774 -1.2228
  167SAPS  C31318929   3.536   1.108   5.187 -0.5222  0.3567 -0.6679
  167SAPS  H13X18930   3.463   1.023   5.189  1.0384 -1.0563 -1.1665
  167SAPS  H13Y18931   3.635   1.060   5.177 -0.7067 -0.9156  2.4345
  167SAPS  C31418932   3.520   1.214   5.070  0.7190 -0.1426  0.1265
  167SAPS  H14X18933   3.584   1.300   5.098 -0.8235  1.0403  0.1539
  167SAPS  H14Y18934   3.416   1.253   5.073  0.8533  0.1487  1.1022
  167SAPS  C31518935   3.555   1.147   4.935  0.2112 -0.6215 -0.0519
  167SAPS  H15X18936   3.526   1.217   4.854  0.9574  0.6434  0.7343
  167SAPS  H15Y18937   3.487   1.059   4.933  2.0743 -2.1233 -0.1250
  167SAPS  C31618938   3.706   1.117   4.920 -0.0311  0.1271  0.4235
  167SAPS  H16X18939   3.740   1.038   4.989 -1.5330  0.4391  1.5771
  167SAPS  H16Y18940   3.759   1.209   4.953 -1.3392  1.0004  0.1664
  167SAPS  C31718941   3.755   1.087   4.776 -0.4935  0.2477 -0.3726
  167SAPS  H17X18942   3.712   1.166   4.711  0.7443  1.2986  0.0360
  167SAPS  H17Y18943   3.713   0.993   4.734 -0.6065 -0.0313  0.3521
  167SAPS  C31818944   3.903   1.083   4.769 -0.0124  0.0216  1.0573
  167SAPS  H18X18945   3.941   1.109   4.667 -0.3207  0.3834  1.0332
  167SAPS  H18Y18946   3.936   0.980   4.794 -1.2832 -0.3071  1.4635
  167SAPS  H18Z18947   3.954   1.151   4.840 -0.5082 -0.1138  1.5538
  168SAPS     N18948   3.691   6.096   7.292 -0.2347 -0.4378 -0.8056
  168SAPS   HN118949   3.712   6.146   7.381  2.1224 -0.4760 -1.2717
  168SAPS   HN218950   3.769   6.028   7.278  0.3178 -1.2729  4.4077
  168SAPS   HN318951   3.698   6.159   7.210 -0.1424 -1.7795 -1.8695
  168SAPS   C1218952   3.558   6.026   7.303  0.1606 -0.0185  0.1204
  168SAPS  H12A18953   3.543   5.973   7.210 -2.0438  0.3341  0.2194
  168SAPS   C1318954   3.548   5.941   7.432 -0.0104  0.2231 -0.2452
  168SAPS  O13A18955   3.651   5.930   7.502  0.3151  0.1953 -0.1346
  168SAPS  O13B18956   3.438   5.900   7.479 -0.3057  0.0778 -0.3442
  168SAPS   C1118957   3.444   6.136   7.301 -0.6884  0.1749 -0.2981
  168SAPS  H11A18958   3.463   6.207   7.384  0.2352 -0.9848  0.5308
  168SAPS  H11B18959   3.342   6.094   7.318 -0.1632 -1.4705 -1.0145
  168SAPS     P18960   3.342   6.305   7.126 -0.5850 -0.2084 -0.1484
  168SAPS   O1318961   3.205   6.269   7.172 -0.9239  0.3070 -0.3204
  168SAPS   O1418962   3.393   6.438   7.167  0.0392  0.2880 -0.8365
  168SAPS   O1218963   3.444   6.194   7.172  0.5760 -0.5481 -0.2998
  168SAPS   O1118964   3.343   6.298   6.965 -0.4345  0.1743 -0.2510
  168SAPS    C118965   3.367   6.185   6.883 -0.4204  0.6224 -0.7347
  168SAPS    HA18966   3.474   6.178   6.853  0.6378 -2.1764  2.9971
  168SAPS    HB18967   3.346   6.094   6.943 -0.1254  1.6274  0.9591
  168SAPS    C218968   3.268   6.179   6.763  0.2306  0.3366  0.0915
  168SAPS    HS18969   3.173   6.208   6.814 -0.3862  0.9339 -1.3445
  168SAPS   O2118970   3.263   6.044   6.710  0.2696 -0.6013  0.1876
  168SAPS   C2118971   3.201   5.961   6.787 -0.1616 -0.0850 -0.0768
  168SAPS   O2218972   3.119   5.978   6.874 -0.2673 -0.0673 -0.0380
  168SAPS   C2218973   3.239   5.818   6.740 -0.0757 -0.9391  0.0483
  168SAPS   H2R18974   3.337   5.820   6.688  0.9950 -2.2414  1.8787
  168SAPS   H2S18975   3.246   5.758   6.834 -0.2731 -0.3104  0.4744
  168SAPS    C318976   3.285   6.285   6.655 -0.4180  0.3349  0.5339
  168SAPS    HX18977   3.379   6.298   6.598 -1.2729  0.5567 -0.8874
  168SAPS    HY18978   3.282   6.383   6.706  2.0612  1.0616 -0.5871
  168SAPS   O3118979   3.178   6.271   6.558  0.0435 -0.3791 -0.1794
  168SAPS   C3118980   3.207   6.208   6.447 -0.5689 -0.1802  0.4604
  168SAPS   O3218981   3.318   6.157   6.420  0.1088 -0.5587 -0.4291
  168SAPS   C3218982   3.090   6.211   6.354  0.2283  0.0211  0.0278
  168SAPS   H2X18983   3.051   6.315   6.344  0.3434 -0.0418 -1.2338
  168SAPS   H2Y18984   3.005   6.145   6.379 -0.5639  0.2669 -1.8353
  168SAPS   C2318985   3.122   5.768   6.660  0.6120  0.1723 -0.2618
  168SAPS   H3R18986   3.023   5.804   6.695  0.3418 -1.7348  1.0978
  168SAPS   H3S18987   3.134   5.658   6.652  2.9974  0.4102 -0.5321
  168SAPS   C2418988   3.110   5.822   6.509 -0.2493  0.1145  0.5387
  168SAPS   H4R18989   3.058   5.920   6.518 -0.8900 -0.2368  0.7598
  168SAPS   H4S18990   3.039   5.756   6.455  1.2066 -1.0604  0.0044
  168SAPS   C2518991   3.225   5.842   6.419 -0.5752 -0.3605  0.2487
  168SAPS   H5R18992   3.291   5.925   6.450 -1.5319  0.9364 -1.0272
  168SAPS   C2618993   3.250   5.768   6.304  0.6339 -0.1790  0.1631
  168SAPS   H6R18994   3.346   5.780   6.251  2.1633 -2.5547  2.1634
  168SAPS   C2718995   3.167   5.660   6.236  0.5302 -0.2271 -0.0687
  168SAPS   H7R18996   3.142   5.595   6.322 -1.5425 -0.1895 -0.5933
  168SAPS   H7S18997   3.229   5.604   6.163  0.5544 -0.1014 -0.1451
  168SAPS   C2818998   3.042   5.715   6.166 -0.7164 -0.2793  0.4059
  168SAPS   H8R18999   2.969   5.754   6.239 -2.0177 -1.6218 -0.1079
  168SAPS   C2919000   3.014   5.705   6.035 -0.5132 -0.6950 -0.3214
  168SAPS   H9R19001   2.916   5.744   6.004 -0.7697  1.7753  3.0344
  168SAPS  C21019002   3.098   5.663   5.920 -0.2567  0.5406  0.3666
  168SAPS  H10R19003   3.197   5.707   5.948  0.1181 -0.8081  1.2661
  168SAPS  H10S19004   3.070   5.704   5.821 -1.3714 -1.3719 -0.1565
  168SAPS  C21119005   3.128   5.519   5.916  0.0755  0.1047 -0.1155
  168SAPS  H11R19006   3.211   5.487   5.980  1.0817 -1.5412 -2.1350
  168SAPS  C21219007   3.082   5.437   5.821  0.1520  0.1436  0.1570
  168SAPS  H12R19008   3.098   5.328   5.831 -0.0717  0.2856  2.3906
  168SAPS  C21319009   2.973   5.460   5.717  0.5513 -1.1590 -0.6422
  168SAPS  H13R19010   2.978   5.374   5.646  1.3397 -0.8845 -0.9289
  168SAPS  H13S19011   3.004   5.554   5.668 -0.9606 -0.8793 -1.1256
  168SAPS  C21419012   2.831   5.464   5.770  0.0420  0.2900 -0.0594
  168SAPS  H14R19013   2.816   5.489   5.876  0.5118 -4.5062  1.4194
  168SAPS  C21519014   2.718   5.430   5.703  0.0520 -0.2652 -0.3943
  168SAPS  H15R19015   2.622   5.434   5.757  0.2279  2.6535 -0.0940
  168SAPS  C21619016   2.697   5.378   5.562 -0.5016  0.9772 -0.2175
  168SAPS  H16R19017   2.791   5.402   5.506  1.1871  0.2932  2.1604
  168SAPS  H16S19018   2.610   5.422   5.510 -1.9451  0.1427  1.3885
  168SAPS  C21719019   2.694   5.228   5.574  0.1257  0.2700  0.3562
  168SAPS  H17R19020   2.603   5.198   5.631  1.0339  0.5997  2.0435
  168SAPS  H17S19021   2.786   5.197   5.628  0.4661  1.9660  0.7983
  168SAPS  C21819022   2.685   5.156   5.435  0.1678  0.4326  0.5814
  168SAPS  H18R19023   2.715   5.053   5.459 -0.6688  0.2594  0.9354
  168SAPS  H18S19024   2.745   5.210   5.359  1.1152  0.5865  1.4251
  168SAPS  C21919025   2.536   5.153   5.388 -1.1712 -0.0793 -0.0140
  168SAPS  H19R19026   2.499   5.256   5.369  1.1940  0.8050 -0.1821
  168SAPS  H19S19027   2.471   5.112   5.468 -1.0995 -1.0245 -0.4299
  168SAPS  C22019028   2.508   5.072   5.269  0.0551 -0.2318  0.0819
  168SAPS  H20R19029   2.587   5.088   5.193 -2.0080 -1.7515 -2.5454
  168SAPS  H20S19030   2.415   5.095   5.212 -0.1879  1.2796  1.0180
  168SAPS  H20T19031   2.499   4.966   5.298 -2.3633 -0.8475 -2.4452
  168SAPS   C3319032   3.144   6.169   6.215 -0.6155 -0.0283 -0.4287
  168SAPS   H3X19033   3.187   6.067   6.222  0.0592  0.2481 -0.5144
  168SAPS   H3Y19034   3.222   6.239   6.178  0.3279 -1.2465 -0.8095
  168SAPS   C3419035   3.039   6.166   6.102  0.5900  0.1309 -0.2203
  168SAPS   H4X19036   2.970   6.252   6.097  1.8518  1.1981  0.0100
  168SAPS   H4Y19037   2.967   6.094   6.147 -0.9106  1.3812 -0.5970
  168SAPS   C3519038   3.091   6.125   5.969 -0.6102  0.5230  0.4178
  168SAPS   H5X19039   3.169   6.045   5.972  0.8298  1.5941 -3.2645
  168SAPS   H5Y19040   3.134   6.213   5.917 -1.1172 -0.1631 -1.2101
  168SAPS   C3619041   2.972   6.076   5.879 -0.0037  0.0540  0.6019
  168SAPS   H6X19042   2.888   6.149   5.879  0.1082  0.1889  0.2111
  168SAPS   H6Y19043   2.936   5.976   5.909  0.8498 -1.3436 -2.6218
  168SAPS   C3719044   3.032   6.067   5.739 -0.8733  0.8616 -0.4015
  168SAPS   H7X19045   3.118   5.996   5.733 -0.2608  1.5829 -0.3424
  168SAPS   H7Y19046   3.077   6.158   5.694  1.4660  0.0910  0.1866
  168SAPS   C3819047   2.943   6.000   5.633  0.2801  0.3383 -0.6095
  168SAPS   H8X19048   2.849   6.058   5.626  0.7216  0.9105 -2.2339
  168SAPS   H8Y19049   2.916   5.904   5.681 -1.8540  1.2852  0.2468
  168SAPS   C3919050   2.999   5.974   5.492 -0.2085  0.2616  0.1474
  168SAPS   H9X19051   3.087   5.906   5.490  0.6826  1.3001  1.7478
  168SAPS   H9Y19052   3.032   6.075   5.459  1.0164 -0.8593 -2.3001
  168SAPS  C31019053   2.906   5.911   5.390  0.6969 -0.1383  0.1920
  168SAPS  H10X19054   2.811   5.967   5.402 -0.1091 -0.8321 -2.3363
  168SAPS  H10Y19055   2.889   5.806   5.422  0.4876 -0.4992 -1.0582
  168SAPS  C31119056   2.960   5.910   5.245  0.0700  0.2896 -0.3315
  168SAPS  H11X19057   3.062   5.867   5.250  0.0070 -0.3631 -3.1789
  168SAPS  H11Y19058   2.986   6.017   5.230  1.9372  0.3092  2.2681
  168SAPS  C31219059   2.861   5.863   5.143  0.3902 -0.0915 -0.2714
  168SAPS  H12X19060   2.768   5.924   5.143  1.3382  1.4444 -1.6346
  168SAPS  H12Y19061   2.846   5.755   5.164  1.7377 -0.5487 -1.5025
  168SAPS  C31319062   2.928   5.863   5.006  0.0947  0.9950 -0.5094
  168SAPS  H13X19063   3.019   5.799   5.009 -0.4055  0.2600  2.0266
  168SAPS  H13Y19064   2.960   5.967   4.985 -0.2333  1.1173 -0.4150
  168SAPS  C31419065   2.846   5.806   4.889 -0.5741 -0.0616 -0.8427
  168SAPS  H14X19066   2.741   5.843   4.896  0.3307  2.6199 -0.0277
  168SAPS  H14Y19067   2.844   5.697   4.907 -0.7169 -0.1118 -1.1614
  168SAPS  C31519068   2.909   5.815   4.753  0.0517 -0.2122 -0.3650
  168SAPS  H15X19069   2.995   5.746   4.744 -0.9950 -1.8581  1.4264
  168SAPS  H15Y19070   2.945   5.920   4.746  1.0997 -0.6261 -1.6978
  168SAPS  C31619071   2.817   5.785   4.641  0.0241 -0.4352  0.3154
  168SAPS  H16X19072   2.768   5.685   4.652 -1.7574  0.3473 -0.1581
  168SAPS  H16Y19073   2.880   5.771   4.551 -1.3703 -1.4311 -0.5635
  168SAPS  C31719074   2.705   5.882   4.610  0.1309 -0.2827  0.0159
  168SAPS  H17X19075   2.752   5.979   4.581 -0.6014 -0.1613 -0.8061
  168SAPS  H17Y19076   2.645   5.900   4.702  1.4276  0.6069  0.7243
  168SAPS  C31819077   2.616   5.843   4.496  0.2407  0.1686  0.3780
  168SAPS  H18X19078   2.675   5.823   4.404  0.5259  1.6749  0.2117
  168SAPS  H18Y19079   2.539   5.922   4.481 -0.8315 -0.6702  1.2558
  168SAPS  H18Z19080   2.557   5.751   4.520 -0.3648  0.5820  0.4906
  169SAPS     N19081   3.373   6.699   7.381  0.1853  0.7173  0.2377
  169SAPS   HN119082   3.464   6.649   7.386 -1.5758 -2.6046  3.5282
  169SAPS   HN219083   3.358   6.749   7.291 -0.4860 -3.2010 -2.0788
  169SAPS   HN319084   3.373   6.778   7.448 -1.0211 -0.0406  1.1752
  169SAPS   C1219085   3.256   6.605   7.402 -0.8206 -0.4564 -0.8959
  169SAPS  H12A19086   3.280   6.527   7.331 -1.3488  0.7910 -2.5217
  169SAPS   C1319087   3.231   6.550   7.553  0.0132  0.2811  0.0897
  169SAPS  O13A19088   3.300   6.596   7.647  0.0756 -1.3313  0.1130
  169SAPS  O13B19089   3.149   6.452   7.561 -0.2177  0.2101  0.2253
  169SAPS   C1119090   3.131   6.691   7.368 -0.5470  0.8091 -0.3479
  169SAPS  H11A19091   3.111   6.766   7.447 -0.0679  0.1506  0.4189
  169SAPS  H11B19092   3.044   6.622   7.357 -0.0034  0.2736 -1.4024
  169SAPS     P19093   3.038   6.785   7.137  0.3519 -0.4365 -0.0799
  169SAPS   O1319094   2.939   6.869   7.213  0.1611  0.2730 -0.0651
  169SAPS   O1419095   3.096   6.848   7.011 -0.2377  0.2252 -0.0297
  169SAPS   O1219096   3.155   6.747   7.241 -0.1234 -0.4360  0.6769
  169SAPS   O1119097   2.982   6.646   7.102 -0.0685  0.4852  0.1216
  169SAPS    C119098   3.069   6.527   7.078 -0.5817 -0.3822 -0.5888
  169SAPS    HA19099   3.176   6.556   7.079 -0.6579 -0.0880 -0.7209
  169SAPS    HB19100   3.046   6.455   7.159 -0.7590  0.1509 -0.1585
  169SAPS    C219101   3.040   6.466   6.940 -0.6920 -0.3879 -0.0435
  169SAPS    HS19102   3.133   6.412   6.913  0.5065  1.5826 -0.0330
  169SAPS   O2119103   3.012   6.568   6.848  0.5509 -0.4147 -0.4123
  169SAPS   C2119104   3.108   6.627   6.788 -0.5289 -0.6010  0.4452
  169SAPS   O2219105   3.230   6.614   6.811  0.1979 -0.0038  0.8925
  169SAPS   C2219106   3.047   6.715   6.673 -0.9450 -0.2416  0.8302
  169SAPS   H2R19107   2.952   6.664   6.647 -0.1507 -1.3992  0.1166
  169SAPS   H2S19108   3.037   6.817   6.717  1.2935  0.4877 -0.1984
  169SAPS    C319109   2.924   6.360   6.941 -0.1442  0.3846  0.5022
  169SAPS    HX19110   2.839   6.432   6.941  0.0586  0.6653 -0.8929
  169SAPS    HY19111   2.936   6.293   7.029 -0.4846  0.5144  0.6491
  169SAPS   O3119112   2.912   6.282   6.819  0.0015  0.6669  0.6683
  169SAPS   C3119113   2.853   6.162   6.839  0.2069  0.2619  1.1247
  169SAPS   O3219114   2.797   6.125   6.939  0.4397 -0.4308 -0.5414
  169SAPS   C3219115   2.836   6.090   6.700  0.4546  0.2991 -0.0345
  169SAPS   H2X19116   2.934   6.039   6.685 -0.1612 -0.8397 -0.3326
  169SAPS   H2Y19117   2.811   6.161   6.618  0.7544 -1.0249 -1.3357
  169SAPS   C2319118   3.150   6.728   6.556 -0.1068  0.7041  0.3048
  169SAPS   H3R19119   3.249   6.749   6.601  0.0172 -1.4631  1.1252
  169SAPS   H3S19120   3.109   6.814   6.499  1.3388  1.1605 -0.1079
  169SAPS   C2419121   3.145   6.598   6.468 -0.3727 -0.1129  0.3985
  169SAPS   H4R19122   3.049   6.595   6.413  0.3290 -1.3098 -0.8382
  169SAPS   H4S19123   3.133   6.518   6.544 -1.5915 -0.5957 -0.2754
  169SAPS   C2519124   3.271   6.580   6.383  0.2087 -0.3264 -0.5186
  169SAPS   H5R19125   3.362   6.552   6.439 -1.1775 -0.1350  1.9821
  169SAPS   C2619126   3.275   6.602   6.253  0.0303 -0.5734 -0.1069
  169SAPS   H6R19127   3.371   6.592   6.200 -0.2500 -0.9730 -0.5462
  169SAPS   C2719128   3.156   6.637   6.163 -0.4575 -0.3287  0.2407
  169SAPS   H7R19129   3.100   6.718   6.215  0.0818  0.2598 -0.0751
  169SAPS   H7S19130   3.083   6.556   6.143  0.6717 -1.3204  0.0437
  169SAPS   C2819131   3.197   6.704   6.026  0.2169 -0.2109  0.7250
  169SAPS   H8R19132   3.266   6.790   6.032 -0.0362  0.1269 -0.6490
  169SAPS   C2919133   3.170   6.660   5.898  0.2912 -0.3079  0.0600
  169SAPS   H9R19134   3.214   6.725   5.822  0.6943 -1.5967 -0.8391
  169SAPS  C21019135   3.094   6.533   5.866 -0.1663  0.6562  0.8994
  169SAPS  H10R19136   3.089   6.452   5.942 -0.4177 -0.8584 -0.6592
  169SAPS  H10S19137   3.149   6.487   5.781 -1.4590  0.3825  0.1790
  169SAPS  C21119138   2.958   6.560   5.819 -0.3651  0.1087 -0.1883
  169SAPS  H11R19139   2.887   6.598   5.894  1.7042  1.5479  1.1341
  169SAPS  C21219140   2.899   6.530   5.700 -0.2076 -0.5009  0.7564
  169SAPS  H12R19141   2.794   6.562   5.683 -0.0044  0.2684  0.8949
  169SAPS  C21319142   2.962   6.451   5.587  0.0155 -0.0971  0.1073
  169SAPS  H13R19143   3.053   6.397   5.621  0.4064 -0.1715 -1.0262
  169SAPS  H13S19144   2.994   6.521   5.507  2.6407  1.1062  2.0723
  169SAPS  C21419145   2.875   6.339   5.531  0.1597 -0.1060  0.0316
  169SAPS  H14R19146   2.832   6.275   5.609 -1.9003 -0.0909 -1.0206
  169SAPS  C21519147   2.825   6.322   5.406 -0.7469  0.3358 -0.0953
  169SAPS  H15R19148   2.777   6.224   5.387 -1.0323  0.3440  0.5321
  169SAPS  C21619149   2.870   6.407   5.296  0.6810  0.1329  0.1031
  169SAPS  H16R19150   2.927   6.495   5.332  1.8157 -0.9772  1.1553
  169SAPS  H16S19151   2.777   6.449   5.255  0.4422 -0.1303  0.3635
  169SAPS  C21719152   2.922   6.323   5.178  0.0593  0.4781 -0.1654
  169SAPS  H17R19153   2.856   6.237   5.151 -0.1484  1.3608 -2.7820
  169SAPS  H17S19154   3.017   6.274   5.207  0.1941  0.4381 -0.6693
  169SAPS  C21819155   2.941   6.408   5.052  0.1708 -0.0913 -0.4361
  169SAPS  H18R19156   2.998   6.500   5.078  1.9836 -0.9473 -1.2140
  169SAPS  H18S19157   2.840   6.428   5.009  0.5095  1.6472 -0.4928
  169SAPS  C21919158   3.028   6.342   4.942  0.5676  0.8257 -0.1980
  169SAPS  H19R19159   3.106   6.286   4.998 -1.6351 -1.5474  0.7042
  169SAPS  H19S19160   3.069   6.422   4.877  2.4670  0.3172  0.3148
  169SAPS  C22019161   2.948   6.235   4.855 -0.3201 -0.2111  0.3213
  169SAPS  H20R19162   2.894   6.165   4.924 -1.0417  0.7757  0.7792
  169SAPS  H20S19163   3.016   6.176   4.790 -1.6927 -1.4368 -0.0493
  169SAPS  H20T19164   2.872   6.281   4.789  1.4534  1.5616 -0.5601
  169SAPS   C3319165   2.721   5.985   6.701  0.6217 -0.5248  0.0180
  169SAPS   H3X19166   2.624   6.039   6.702  0.5385 -0.6685 -0.2578
  169SAPS   H3Y19167   2.737   5.924   6.792 -0.9925  0.2511  0.8780
  169SAPS   C3419168   2.733   5.892   6.576 -0.1600  0.7879  0.6036
  169SAPS   H4X19169   2.655   5.816   6.595  0.0391  0.4687  0.1555
  169SAPS   H4Y19170   2.831   5.843   6.559 -0.4414  1.2964 -3.9065
  169SAPS   C3519171   2.696   5.968   6.448  0.1133  0.3843  0.2773
  169SAPS   H5X19172   2.780   6.036   6.423  0.2947 -0.4235 -1.4458
  169SAPS   H5Y19173   2.609   6.033   6.474 -0.6496 -0.5996  0.2687
  169SAPS   C3619174   2.672   5.872   6.331 -0.7179  0.4497  0.7318
  169SAPS   H6X19175   2.600   5.800   6.375 -1.1316  0.6022  0.3084
  169SAPS   H6Y19176   2.765   5.811   6.320 -1.5472 -0.8931  0.9464
  169SAPS   C3719177   2.626   5.939   6.202  0.2613  0.4174  0.1337
  169SAPS   H7X19178   2.698   6.017   6.168 -0.5869  0.6861 -1.1121
  169SAPS   H7Y19179   2.528   5.989   6.220  0.4860  0.6472  0.7474
  169SAPS   C3819180   2.617   5.846   6.075  0.6557  0.1363 -0.3612
  169SAPS   H8X19181   2.545   5.763   6.095  0.7798  0.1984  0.3844
  169SAPS   H8Y19182   2.713   5.793   6.056 -0.9250 -2.1752 -2.6117
  169SAPS   C3919183   2.583   5.929   5.953  0.0733 -0.3234  0.2605
  169SAPS   H9X19184   2.665   6.003   5.937 -0.5754 -0.0250 -2.1173
  169SAPS   H9Y19185   2.484   5.979   5.954  0.8719  1.4711 -1.7716
  169SAPS  C31019186   2.589   5.835   5.830  0.9981 -0.6853 -0.9004
  169SAPS  H10X19187   2.526   5.743   5.833  0.9579 -0.6389  1.1528
  169SAPS  H10Y19188   2.694   5.799   5.822  0.8000 -1.5090 -0.0549
  169SAPS  C31119189   2.542   5.910   5.706  0.3103  0.1497  0.1430
  169SAPS  H11X19190   2.610   5.995   5.685 -0.6808  0.9498  0.1570
  169SAPS  H11Y19191   2.440   5.952   5.708 -1.0426 -2.8123 -1.1993
  169SAPS  C31219192   2.532   5.816   5.581 -0.3998 -0.2874  0.1085
  169SAPS  H12X19193   2.460   5.734   5.601 -0.6785 -0.8326 -2.7026
  169SAPS  H12Y19194   2.631   5.770   5.559 -0.7182 -1.8663  1.7922
  169SAPS  C31319195   2.494   5.897   5.449  0.3381 -0.2093 -0.0285
  169SAPS  H13X19196   2.504   5.829   5.362 -0.0665  1.4893 -1.4552
  169SAPS  H13Y19197   2.564   5.982   5.433 -0.4872  0.3209 -0.9045
  169SAPS  C31419198   2.354   5.962   5.447  0.3446 -0.4355 -0.1198
  169SAPS  H14X19199   2.356   6.058   5.503  1.6827  0.2947 -1.3402
  169SAPS  H14Y19200   2.294   5.901   5.518  0.6942  2.1759  2.6253
  169SAPS  C31519201   2.281   5.991   5.314 -0.0243 -0.0900 -0.3608
  169SAPS  H15X19202   2.178   6.022   5.341  0.0539  0.3206 -0.5305
  169SAPS  H15Y19203   2.263   5.906   5.244  1.8583 -1.3452  0.5779
  169SAPS  C31619204   2.348   6.106   5.240  0.4559  0.2175  0.0710
  169SAPS  H16X19205   2.344   6.190   5.312 -3.3192 -0.5436  0.9710
  169SAPS  H16Y19206   2.277   6.139   5.161 -0.6432 -0.4166  0.7625
  169SAPS  C31719207   2.481   6.087   5.168  0.4350  0.8852  0.3160
  169SAPS  H17X19208   2.475   5.995   5.106  0.7408  0.2097  1.2723
  169SAPS  H17Y19209   2.570   6.094   5.235 -0.3359 -0.3182  1.4993
  169SAPS  C31819210   2.498   6.200   5.063 -0.4769 -0.2349  0.4221
  169SAPS  H18X19211   2.605   6.217   5.039 -0.4285  1.1587  1.4691
  169SAPS  H18Y19212   2.472   6.299   5.105  1.0719 -0.7546  2.7748
  169SAPS  H18Z19213   2.446   6.164   4.972 -1.7647  0.4403  0.8636
  170SAPS     N19214   3.963   5.624   7.465  0.4450  0.7877 -0.0971
  170SAPS   HN119215   4.046   5.671   7.505 -0.2215  1.4381  0.5449
  170SAPS   HN219216   3.889   5.628   7.537  0.2550  0.0487 -0.2498
  170SAPS   HN319217   3.983   5.527   7.434 -1.3491  0.6698 -1.0192
  170SAPS   C1219218   3.922   5.706   7.351 -0.2335 -0.3425  0.1625
  170SAPS  H12A19219   3.815   5.695   7.351 -0.0986 -1.9023 -0.8674
  170SAPS   C1319220   3.955   5.858   7.365  0.3719  0.6003  0.6020
  170SAPS  O13A19221   4.019   5.897   7.465  0.1886  0.2373  0.0039
  170SAPS  O13B19222   3.903   5.934   7.277  0.1002 -0.4163 -0.3306
  170SAPS   C1119223   3.969   5.656   7.212 -0.1950  0.0244 -0.3658
  170SAPS  H11A19224   4.075   5.673   7.182 -0.5870  0.3788 -1.6016
  170SAPS  H11B19225   3.916   5.701   7.126 -0.4871  2.6770  1.1179
  170SAPS     P19226   3.994   5.422   7.090  0.0209 -0.3491  0.1585
  170SAPS   O1319227   4.130   5.471   7.067  0.3081  0.8457  0.1724
  170SAPS   O1419228   3.980   5.283   7.143  0.3849 -0.0391  0.0988
  170SAPS   O1219229   3.944   5.514   7.207  0.6170 -0.1779  0.4773
  170SAPS   O1119230   3.897   5.456   6.967  0.3526  0.2384  0.4685
  170SAPS    C119231   3.900   5.577   6.884 -0.4036 -0.3775 -0.1024
  170SAPS    HA19232   3.807   5.636   6.898  1.4001  2.2908  1.6580
  170SAPS    HB19233   3.979   5.648   6.917 -0.1427  1.7395 -4.5811
  170SAPS    C219234   3.929   5.547   6.740  0.0331  0.5730 -0.3273
  170SAPS    HS19235   4.030   5.586   6.715  0.8581 -1.8389 -1.1026
  170SAPS   O2119236   3.833   5.589   6.643  0.3419 -0.2106 -0.3046
  170SAPS   C2119237   3.807   5.723   6.630  0.2631  0.6834 -1.1773
  170SAPS   O2219238   3.869   5.810   6.686  0.3457 -0.3298 -0.5214
  170SAPS   C2219239   3.675   5.733   6.554  0.0159  0.1561 -0.1443
  170SAPS   H2R19240   3.651   5.640   6.497 -0.5214 -0.7453  1.5040
  170SAPS   H2S19241   3.593   5.743   6.628 -1.6302 -2.3291 -1.4775
  170SAPS    C319242   3.935   5.391   6.727  0.3416 -0.1419 -0.6783
  170SAPS    HX19243   3.845   5.343   6.769  0.1202 -1.9588 -3.0107
  170SAPS    HY19244   4.022   5.351   6.784  1.1326  0.6000 -1.3211
  170SAPS   O3119245   3.959   5.356   6.590 -0.0631  0.2916 -0.3381
  170SAPS   C3119246   3.861   5.311   6.527 -0.4334  0.2065  0.5427
  170SAPS   O3219247   3.744   5.287   6.559 -0.4958 -0.1739 -0.8536
  170SAPS   C3219248   3.902   5.291   6.382 -0.2605 -0.3097 -0.2927
  170SAPS   H2X19249   3.980   5.212   6.376  1.9393  1.7334  0.0107
  170SAPS   H2Y19250   3.940   5.388   6.343 -3.2104  1.6599  1.3532
  170SAPS   C2319251   3.649   5.861   6.459 -0.9510 -0.1467 -0.9717
  170SAPS   H3R19252   3.661   5.954   6.519  2.1089  0.0436 -1.6877
  170SAPS   H3S19253   3.550   5.844   6.412 -2.0823  0.4500  1.0921
  170SAPS   C2419254   3.767   5.878   6.365 -0.0863  0.0264  0.2262
  170SAPS   H4R19255   3.851   5.903   6.433 -0.3675 -2.7477  1.7437
  170SAPS   H4S19256   3.745   5.968   6.304 -3.8256 -0.2951  0.8586
  170SAPS   C2519257   3.780   5.751   6.284  0.7779  0.1875  0.4612
  170SAPS   H5R19258   3.859   5.684   6.319 -0.2054  0.0574  2.6169
  170SAPS   C2619259   3.705   5.720   6.171 -0.5624  0.3193 -0.2817
  170SAPS   H6R19260   3.723   5.620   6.129  0.3424 -0.8327  2.5780
  170SAPS   C2719261   3.608   5.813   6.108  0.2805 -0.1937  1.1579
  170SAPS   H7R19262   3.606   5.906   6.167  0.6409  1.6029 -1.4880
  170SAPS   H7S19263   3.505   5.773   6.098  0.0905  0.4802  0.2326
  170SAPS   C2819264   3.667   5.863   5.978  0.1828 -0.6131 -0.5054
  170SAPS   H8R19265   3.763   5.915   5.985  0.3954 -0.8476 -1.6367
  170SAPS   C2919266   3.614   5.841   5.858  0.1164 -0.4317  0.0570
  170SAPS   H9R19267   3.659   5.888   5.769  1.3961  3.0696  2.3090
  170SAPS  C21019268   3.486   5.778   5.816 -0.1344 -0.0047 -0.1087
  170SAPS  H10R19269   3.453   5.824   5.721 -0.8015 -1.5055 -0.6426
  170SAPS  H10S19270   3.413   5.804   5.896 -0.0565  2.0295 -0.6652
  170SAPS  C21119271   3.509   5.622   5.803 -0.3190  0.1875 -0.2339
  170SAPS  H11R19272   3.533   5.563   5.893 -0.4444 -2.8104 -2.0589
  170SAPS  C21219273   3.481   5.546   5.697  0.0492  0.0932 -0.2249
  170SAPS  H12R19274   3.510   5.440   5.703  0.1516  0.0965 -0.6362
  170SAPS  C21319275   3.432   5.587   5.562  0.1283 -0.4885  0.1718
  170SAPS  H13R19276   3.468   5.506   5.495  0.3863 -0.3562  0.1494
  170SAPS  H13S19277   3.493   5.676   5.533 -1.4850  0.3194 -0.9220
  170SAPS  C21419278   3.285   5.614   5.554  0.6174  0.0375  0.0626
  170SAPS  H14R19279   3.239   5.654   5.646 -0.7763  0.7659 -0.9126
  170SAPS  C21519280   3.210   5.586   5.446  0.2250  0.1362 -0.9729
  170SAPS  H15R19281   3.100   5.586   5.453  0.1563 -1.2523 -1.7686
  170SAPS  C21619282   3.258   5.527   5.317 -0.1063 -0.4644 -0.3263
  170SAPS  H16R19283   3.276   5.420   5.343  1.5133 -0.5251 -1.5363
  170SAPS  H16S19284   3.354   5.573   5.287  0.9160 -2.7183 -0.7228
  170SAPS  C21719285   3.161   5.558   5.208  0.4814  0.0548  0.0428
  170SAPS  H17R19286   3.169   5.667   5.189 -2.9439  0.3185 -0.5003
  170SAPS  H17S19287   3.053   5.539   5.221  0.4255  0.1074 -0.3364
  170SAPS  C21819288   3.192   5.483   5.074  0.3656 -0.1981  0.4160
  170SAPS  H18R19289   3.295   5.513   5.046  1.3866 -2.8720  1.0117
  170SAPS  H18S19290   3.125   5.519   4.992  0.6209 -3.0270 -1.1756
  170SAPS  C21919291   3.175   5.335   5.090 -0.2475  0.4003  0.2151
  170SAPS  H19R19292   3.067   5.311   5.087 -0.0079 -0.7083 -1.8292
  170SAPS  H19S19293   3.216   5.301   5.187 -0.3272 -0.2645  0.0233
  170SAPS  C22019294   3.254   5.255   4.977  0.1793 -0.2954  0.7340
  170SAPS  H20R19295   3.261   5.144   4.983  0.3537 -0.3561 -0.4287
  170SAPS  H20S19296   3.358   5.293   4.984 -0.5052  2.0029 -0.5204
  170SAPS  H20T19297   3.217   5.288   4.878  2.3863  2.1575  0.6240
  170SAPS   C3319298   3.781   5.235   6.305 -0.3479  0.0331  0.0462
  170SAPS   H3X19299   3.680   5.278   6.318 -1.3478 -1.7662 -1.3735
  170SAPS   H3Y19300   3.766   5.130   6.337  1.9110  0.2270  2.0314
  170SAPS   C3419301   3.812   5.245   6.151  0.0760  0.6817 -0.6401
  170SAPS   H4X19302   3.841   5.351   6.135 -0.2270  1.4301  3.0253
  170SAPS   H4Y19303   3.720   5.230   6.091  0.1621  0.8659 -0.8196
  170SAPS   C3519304   3.920   5.150   6.092 -0.3941 -0.4080 -0.1407
  170SAPS   H5X19305   4.017   5.185   6.133 -0.5375 -1.7631  1.5162
  170SAPS   H5Y19306   3.933   5.165   5.983  2.1179  1.2561  0.2963
  170SAPS   C3619307   3.909   4.999   6.123 -0.7349  0.1488 -0.5142
  170SAPS   H6X19308   3.812   4.956   6.091 -1.1597  2.3774 -2.4713
  170SAPS   H6Y19309   3.911   5.002   6.234  0.9272 -0.0985 -0.5240
  170SAPS   C3719310   4.032   4.924   6.082  0.4123 -0.1458  0.3805
  170SAPS   H7X19311   4.122   4.961   6.135 -0.0133  0.6945  0.5418
  170SAPS   H7Y19312   4.046   4.932   5.972  0.2355  0.4732  0.3997
  170SAPS   C3819313   4.024   4.773   6.123  0.1286  0.1092  0.6442
  170SAPS   H8X19314   3.998   4.767   6.231  1.0063  0.7547  0.9050
  170SAPS   H8Y19315   4.124   4.733   6.097  0.3555 -1.2528  3.2931
  170SAPS   C3919316   3.924   4.689   6.049 -0.2644  0.7678 -0.0977
  170SAPS   H9X19317   3.818   4.717   6.067 -0.7826 -1.0320 -0.2330
  170SAPS   H9Y19318   3.933   4.591   6.100 -0.9592  0.5766 -0.3393
  170SAPS  C31019319   3.943   4.659   5.896 -0.2463 -0.2924 -0.6457
  170SAPS  H10X19320   4.031   4.592   5.891  1.8318  2.1041  1.0466
  170SAPS  H10Y19321   3.963   4.754   5.842 -0.1466 -1.4409 -2.7130
  170SAPS  C31119322   3.812   4.614   5.838 -0.4790  0.6417 -0.2294
  170SAPS  H11X19323   3.736   4.689   5.869  1.1242  0.7477  4.1806
  170SAPS  H11Y19324   3.773   4.522   5.888 -1.2268  1.0487 -0.0435
  170SAPS  C31219325   3.807   4.595   5.691  0.6458  0.3476  0.1114
  170SAPS  H12X19326   3.903   4.628   5.645  1.7401  1.8963  3.2872
  170SAPS  H12Y19327   3.721   4.639   5.636  0.6566  1.3802  0.8924
  170SAPS  C31319328   3.805   4.447   5.646 -0.1975 -0.0774 -0.9214
  170SAPS  H13X19329   3.707   4.407   5.678 -0.1524  0.3417 -0.2361
  170SAPS  H13Y19330   3.884   4.388   5.697  0.8820 -1.1421 -3.6277
  170SAPS  C31419331   3.824   4.418   5.498  0.8287 -0.4166 -0.4857
  170SAPS  H14X19332   3.923   4.466   5.480  1.2051 -0.6987  0.7371
  170SAPS  H14Y19333   3.741   4.464   5.440 -0.0164 -0.6540  0.5078
  170SAPS  C31519334   3.841   4.268   5.467 -0.2113  0.2637  0.3747
  170SAPS  H15X19335   3.902   4.231   5.552  0.0282 -0.0765  0.0531
  170SAPS  H15Y19336   3.892   4.261   5.368  0.1414 -1.2979  0.6456
  170SAPS  C31619337   3.707   4.198   5.469  0.0252 -0.1698  0.0660
  170SAPS  H16X19338   3.665   4.215   5.571  0.6219 -2.8136  0.8432
  170SAPS  H16Y19339   3.727   4.089   5.458  1.3971 -0.2996  2.9169
  170SAPS  C31719340   3.608   4.246   5.361 -1.2117 -0.1739  0.0195
  170SAPS  H17X19341   3.557   4.336   5.402 -1.3061  0.7471 -2.0104
  170SAPS  H17Y19342   3.528   4.172   5.340 -2.3287  0.1442  2.7875
  170SAPS  C31819343   3.672   4.289   5.227 -0.5645 -0.2509  0.5118
  170SAPS  H18X19344   3.734   4.204   5.192  0.9214  0.5675  1.0583
  170SAPS  H18Y19345   3.729   4.384   5.237 -0.2508 -0.2794 -0.8019
  170SAPS  H18Z19346   3.598   4.310   5.146  1.3211  0.4508 -1.1251
  171SAPS     N19347   4.841   5.958   7.118  0.2962 -0.0842 -0.5494
  171SAPS   HN119348   4.925   5.954   7.057 -0.6418 -1.2909 -1.8055
  171SAPS   HN219349   4.856   5.884   7.190 -0.8878  1.5309  1.4959
  171SAPS   HN319350   4.764   5.917   7.062  0.2468 -0.7030 -0.0442
  171SAPS   C1219351   4.804   6.075   7.193 -0.2344  0.3574 -0.3369
  171SAPS  H12A19352   4.704   6.053   7.226  0.5501 -1.7798  0.7841
  171SAPS   C1319353   4.892   6.100   7.326 -0.4961  0.2159 -0.1560
  171SAPS  O13A19354   5.004   6.044   7.333  0.5819 -0.2133 -0.1681
  171SAPS  O13B19355   4.866   6.210   7.383  0.8942 -0.6018  0.0082
  171SAPS   C1119356   4.800   6.190   7.092 -0.8782  1.0207  0.2414
  171SAPS  H11A19357   4.905   6.204   7.061  0.2893 -0.8532  2.9648
  171SAPS  H11B19358   4.772   6.281   7.150 -3.6331  1.5201 -1.6929
  171SAPS     P19359   4.696   6.294   6.880  0.0612 -0.6127  0.1140
  171SAPS   O1319360   4.565   6.289   6.813  0.1862  0.0368 -0.0120
  171SAPS   O1419361   4.726   6.421   6.949  0.0926  0.3757  0.1939
  171SAPS   O1219362   4.714   6.169   6.977  0.4499 -0.4962  0.2562
  171SAPS   O1119363   4.822   6.274   6.778  0.2476 -0.0323 -0.1689
  171SAPS    C119364   4.874   6.145   6.757 -0.0973  0.2975 -0.2373
  171SAPS    HA19365   4.981   6.146   6.787 -0.4781 -2.4328  1.5838
  171SAPS    HB19366   4.833   6.059   6.814  1.0163 -0.9299 -1.2229
  171SAPS    C219367   4.863   6.109   6.604 -0.5861 -0.0057 -1.2486
  171SAPS    HS19368   4.881   5.999   6.601  1.6939  0.2217  1.0706
  171SAPS   O2119369   4.958   6.175   6.518  0.0231  0.0576  0.3542
  171SAPS   C2119370   5.092   6.162   6.540  0.0225 -0.3230  0.4734
  171SAPS   O2219371   5.150   6.089   6.619  0.6080  0.1877 -0.4005
  171SAPS   C2219372   5.165   6.254   6.445  0.5209 -0.0067 -0.3031
  171SAPS   H2R19373   5.099   6.296   6.367  0.4661 -0.8411 -0.7093
  171SAPS   H2S19374   5.180   6.340   6.515 -1.9499 -0.8132  1.3799
  171SAPS    C319375   4.715   6.133   6.556  0.6996 -0.6705  0.5390
  171SAPS    HX19376   4.696   6.243   6.561  2.8557 -0.2897  1.5731
  171SAPS    HY19377   4.646   6.086   6.630 -0.7076  0.9358  0.3139
  171SAPS   O3119378   4.690   6.088   6.422 -0.2073  0.0093  0.7653
  171SAPS   C3119379   4.577   6.125   6.378  0.3049 -0.0727  0.2615
  171SAPS   O3219380   4.489   6.182   6.443  0.1386  0.5944  0.2463
  171SAPS   C3219381   4.550   6.088   6.238  0.2072  0.1681  0.3503
  171SAPS   H2X19382   4.514   5.983   6.235  3.1943 -0.9462  0.7630
  171SAPS   H2Y19383   4.648   6.072   6.188  0.1578  2.1248 -0.4711
  171SAPS   C2319384   5.305   6.211   6.408 -0.0332  0.0035 -0.3325
  171SAPS   H3R19385   5.303   6.128   6.334 -2.9043  0.6024 -1.0581
  171SAPS   H3S19386   5.349   6.180   6.505 -2.3913 -1.3510  0.3663
  171SAPS   C2419387   5.382   6.325   6.331 -0.4683  0.2555 -0.0785
  171SAPS   H4R19388   5.490   6.312   6.310 -0.0102  2.8640  0.3128
  171SAPS   H4S19389   5.387   6.419   6.391  1.3938 -0.3183  0.7116
  171SAPS   C2519390   5.319   6.375   6.208 -0.0794  0.1833 -0.0413
  171SAPS   H5R19391   5.243   6.453   6.226  1.6883  1.6740  1.3082
  171SAPS   C2619392   5.360   6.353   6.081 -0.1277 -0.2840 -0.5407
  171SAPS   H6R19393   5.302   6.411   6.007 -1.8024 -0.3742  0.6488
  171SAPS   C2719394   5.460   6.258   6.028  0.1476  0.0593 -0.3144
  171SAPS   H7R19395   5.422   6.162   5.989 -2.1510  0.3841  0.9880
  171SAPS   H7S19396   5.533   6.234   6.108  0.6808  3.0861  0.2400
  171SAPS   C2819397   5.536   6.342   5.927 -0.3591  0.8169  0.4307
  171SAPS   H8R19398   5.620   6.400   5.968  0.0272  1.0422 -0.6546
  171SAPS   C2919399   5.507   6.336   5.792  1.1685  0.7242 -0.0944
  171SAPS   H9R19400   5.559   6.397   5.717 -0.1554  0.1272 -1.5443
  171SAPS  C21019401   5.386   6.251   5.740 -0.9731 -0.1351 -0.7435
  171SAPS  H10R19402   5.289   6.296   5.771 -0.7501 -1.4103  2.1320
  171SAPS  H10S19403   5.385   6.151   5.787  2.4834 -0.0874 -0.3163
  171SAPS  C21119404   5.415   6.237   5.593  0.3276 -0.3745  0.4868
  171SAPS  H11R19405   5.490   6.159   5.574  1.2237  0.0570  2.0393
  171SAPS  C21219406   5.350   6.303   5.493  0.2243  0.8062  0.0632
  171SAPS  H12R19407   5.384   6.284   5.391  0.1871  3.2575 -0.4473
  171SAPS  C21319408   5.233   6.399   5.521 -0.0500  0.0137 -0.1175
  171SAPS  H13R19409   5.234   6.473   5.438 -0.5003 -1.1028 -1.1544
  171SAPS  H13S19410   5.239   6.473   5.604  1.3823  2.4262 -2.2352
  171SAPS  C21419411   5.103   6.322   5.527 -0.2196  0.5924 -0.0544
  171SAPS  H14R19412   5.096   6.247   5.608  3.9646 -0.9405 -0.8293
  171SAPS  C21519413   5.012   6.313   5.429 -0.4060 -0.0675 -0.0166
  171SAPS  H15R19414   4.927   6.246   5.449  0.7197 -1.4495  0.3706
  171SAPS  C21619415   4.998   6.399   5.310  0.1048  0.7311  0.6343
  171SAPS  H16R19416   5.075   6.479   5.310 -3.0284  4.0213  1.6384
  171SAPS  H16S19417   4.903   6.458   5.309 -1.3830 -1.5279 -1.2113
  171SAPS  C21719418   5.000   6.302   5.186 -0.1638 -0.2433  0.4923
  171SAPS  H17R19419   4.922   6.224   5.200 -1.2746  0.6185 -0.5913
  171SAPS  H17S19420   5.092   6.240   5.177 -0.6982 -0.9987  0.0951
  171SAPS  C21819421   4.992   6.383   5.056 -0.1896 -0.3197  0.3489
  171SAPS  H18R19422   5.081   6.449   5.063 -0.8506  0.5368  0.8969
  171SAPS  H18S19423   4.907   6.454   5.057 -0.4218 -0.5721 -0.4863
  171SAPS  C21919424   4.998   6.302   4.930  0.2850 -0.4781  0.5668
  171SAPS  H19R19425   4.896   6.267   4.905 -0.0815  0.9519 -0.0595
  171SAPS  H19S19426   5.072   6.221   4.943 -1.5024 -2.0113  1.6477
  171SAPS  C22019427   5.037   6.388   4.813  0.3030 -0.4998 -0.1793
  171SAPS  H20R19428   5.027   6.335   4.716 -0.5625  3.0438 -2.2153
  171SAPS  H20S19429   5.132   6.445   4.822 -0.3838  0.5636  0.5154
  171SAPS  H20T19430   4.967   6.473   4.798  2.8214  1.6571 -0.4508
  171SAPS   C3319431   4.446   6.178   6.159 -0.0029 -0.2349 -0.1663
  171SAPS   H3X19432   4.463   6.285   6.186  0.3027 -0.5688  0.9804
  171SAPS   H3Y19433   4.345   6.160   6.200  0.4873  1.5361  1.9996
  171SAPS   C3419434   4.452   6.152   6.005  0.4310 -0.1607 -0.2733
  171SAPS   H4X19435   4.471   6.044   5.987  3.0799  0.1190  0.3562
  171SAPS   H4Y19436   4.539   6.192   5.948 -0.6723  0.3188 -1.6949
  171SAPS   C3519437   4.322   6.185   5.931 -0.3323  0.0312 -0.6745
  171SAPS   H5X19438   4.309   6.295   5.941  0.3200  0.0892 -0.3850
  171SAPS   H5Y19439   4.234   6.136   5.977 -0.6980 -0.7101 -2.1129
  171SAPS   C3619440   4.332   6.140   5.790  0.2122  0.1315  0.1778
  171SAPS   H6X19441   4.431   6.173   5.753  0.9021  0.6759  2.3935
  171SAPS   H6Y19442   4.253   6.183   5.723  0.6181  0.9721  0.2281
  171SAPS   C3719443   4.320   5.992   5.760 -0.6102 -0.2841 -0.7663
  171SAPS   H7X19444   4.229   5.949   5.807 -0.7454  0.1664 -0.6100
  171SAPS   H7Y19445   4.411   5.940   5.798 -0.3355  0.2883 -0.6264
  171SAPS   C3819446   4.316   5.954   5.609 -0.0038  0.4459  0.0563
  171SAPS   H8X19447   4.401   5.987   5.545  1.7897 -3.6653 -0.0250
  171SAPS   H8Y19448   4.225   5.991   5.558  0.7575  1.3367 -0.7043
  171SAPS   C3919449   4.327   5.802   5.606 -0.2590 -0.4572 -0.0142
  171SAPS   H9X19450   4.250   5.742   5.660  0.2393 -0.7871  0.3456
  171SAPS   H9Y19451   4.414   5.768   5.667 -0.8611 -1.5288  0.2683
  171SAPS  C31019452   4.343   5.755   5.457 -0.4768 -0.0475  0.0919
  171SAPS  H10X19453   4.410   5.812   5.390  0.9056  0.4472  1.8291
  171SAPS  H10Y19454   4.242   5.777   5.415 -1.3397 -1.9315  1.0250
  171SAPS  C31119455   4.364   5.607   5.456 -0.1078  0.7508  0.9050
  171SAPS  H11X19456   4.280   5.567   5.517 -1.9725  0.0763 -1.8787
  171SAPS  H11Y19457   4.460   5.566   5.494  2.9918  3.0865 -3.4046
  171SAPS  C31219458   4.367   5.540   5.318 -0.6190 -0.3289 -0.2956
  171SAPS  H12X19459   4.276   5.568   5.260 -0.6485 -0.7786 -0.4665
  171SAPS  H12Y19460   4.364   5.430   5.325 -1.9162 -0.4723 -2.2683
  171SAPS  C31319461   4.499   5.580   5.247  0.3094 -0.0408  0.2654
  171SAPS  H13X19462   4.583   5.555   5.316  0.5898  0.3782  0.0851
  171SAPS  H13Y19463   4.523   5.687   5.228  0.5163  0.0206  0.8389
  171SAPS  C31419464   4.522   5.499   5.118  0.6931  0.0949 -0.2033
  171SAPS  H14X19465   4.440   5.519   5.046 -0.9887  2.1767  2.1151
  171SAPS  H14Y19466   4.515   5.389   5.133 -1.0671  0.0876 -0.8000
  171SAPS  C31519467   4.651   5.527   5.037 -0.3280  0.2948  0.1263
  171SAPS  H15X19468   4.732   5.495   5.107  0.8943  0.5503 -1.1316
  171SAPS  H15Y19469   4.669   5.636   5.031  2.2208 -0.1373 -2.4077
  171SAPS  C31619470   4.654   5.464   4.903 -0.3355 -0.0172  0.5977
  171SAPS  H16X19471   4.742   5.501   4.846 -0.6043 -0.8818 -0.4126
  171SAPS  H16Y19472   4.564   5.496   4.845 -0.6823 -0.3287  0.9587
  171SAPS  C31719473   4.683   5.309   4.903 -0.1407 -0.5829 -0.0030
  171SAPS  H17X19474   4.705   5.273   5.005  1.2188  0.7932  0.2192
  171SAPS  H17Y19475   4.765   5.289   4.830 -2.2611 -1.5862 -2.2651
  171SAPS  C31819476   4.566   5.224   4.845  0.3163  0.1243 -0.4387
  171SAPS  H18X19477   4.470   5.232   4.901  1.1031 -0.1404  0.9839
  171SAPS  H18Y19478   4.614   5.124   4.851  1.9646  0.9702  1.6504
  171SAPS  H18Z19479   4.553   5.245   4.737  0.2660 -1.0615 -0.6792
  172SAPS     N19480   4.777   4.857   6.696 -0.6431 -0.3244 -0.7615
  172SAPS   HN119481   4.770   4.931   6.624  0.4062 -1.2776 -1.8747
  172SAPS   HN219482   4.813   4.767   6.660  0.3811 -1.1908  2.0959
  172SAPS   HN319483   4.680   4.825   6.716  0.0328 -1.2233  1.4277
  172SAPS   C1219484   4.830   4.888   6.828  0.0498 -0.2121 -0.3533
  172SAPS  H12A19485   4.937   4.901   6.820  0.0886  0.0460  0.4718
  172SAPS   C1319486   4.769   5.022   6.892  0.0463 -0.1026  0.4043
  172SAPS  O13A19487   4.679   5.082   6.834  0.0952 -0.3404  0.7494
  172SAPS  O13B19488   4.829   5.072   6.988 -0.4449  0.4470 -0.1484
  172SAPS   C1119489   4.800   4.760   6.913 -0.1416 -0.5281 -0.3075
  172SAPS  H11A19490   4.689   4.757   6.916 -0.1641  0.4889  1.2230
  172SAPS  H11B19491   4.836   4.778   7.017 -1.8760 -1.1491  0.4294
  172SAPS     P19492   4.900   4.511   6.929  0.1217 -0.1932 -0.0650
  172SAPS   O1319493   5.043   4.489   6.899 -0.0795 -0.2327  0.1168
  172SAPS   O1419494   4.863   4.519   7.073 -0.4438 -0.5418  0.0361
  172SAPS   O1219495   4.862   4.646   6.855  0.1574 -0.0597  0.1342
  172SAPS   O1119496   4.806   4.396   6.860  0.4631  0.1885 -0.1844
  172SAPS    C119497   4.759   4.412   6.723  0.4497 -0.4156 -0.8706
  172SAPS    HA19498   4.694   4.327   6.693  0.1677 -0.0358 -1.3576
  172SAPS    HB19499   4.705   4.508   6.707 -1.9347 -1.7063 -1.0573
  172SAPS    C219500   4.876   4.397   6.625  0.6820  0.9544  0.0945
  172SAPS    HS19501   4.966   4.454   6.655  1.6513 -0.7652  0.5733
  172SAPS   O2119502   4.831   4.428   6.487 -0.1487 -0.0332 -0.0998
  172SAPS   C2119503   4.808   4.553   6.455  0.4785 -0.8824  0.5203
  172SAPS   O2219504   4.802   4.651   6.525  0.1935  0.5312  0.5857
  172SAPS   C2219505   4.789   4.569   6.300  0.2305  1.2766 -0.2698
  172SAPS   H2R19506   4.700   4.507   6.275  2.5187 -1.2716 -2.7744
  172SAPS   H2S19507   4.765   4.676   6.281 -0.0603  1.0435 -1.2307
  172SAPS    C319508   4.926   4.252   6.631  0.3802  0.1007  0.5046
  172SAPS    HX19509   4.840   4.181   6.631  1.3245 -1.0918  0.4959
  172SAPS    HY19510   4.953   4.227   6.736  1.7307  0.8482  0.3454
  172SAPS   O3119511   5.032   4.225   6.539  0.2516 -0.1761  0.1244
  172SAPS   C3119512   4.992   4.166   6.425 -0.5649 -0.8543  0.8294
  172SAPS   O3219513   4.876   4.136   6.404 -0.3295 -0.1019 -0.1603
  172SAPS   C3219514   5.111   4.137   6.336  0.2589  0.5456  0.2646
  172SAPS   H2X19515   5.155   4.039   6.361  1.8989  1.0766 -0.3767
  172SAPS   H2Y19516   5.192   4.207   6.367  0.9184 -0.1324  0.0849
  172SAPS   C2319517   4.911   4.523   6.215  0.2065 -0.8230 -0.5345
  172SAPS   H3R19518   4.913   4.412   6.211  1.0353 -0.7990 -1.0308
  172SAPS   H3S19519   5.009   4.569   6.242 -0.0355 -0.0966 -0.8747
  172SAPS   C2419520   4.897   4.579   6.073  0.3079  0.1224 -0.2980
  172SAPS   H4R19521   5.004   4.587   6.043  0.6442  2.8262  1.3109
  172SAPS   H4S19522   4.874   4.688   6.081 -0.8677  0.0365 -1.9721
  172SAPS   C2519523   4.812   4.508   5.973 -0.2115 -0.4664 -0.3699
  172SAPS   H5R19524   4.711   4.483   6.008 -0.3534  0.3471 -0.1991
  172SAPS   C2619525   4.862   4.443   5.862  0.3385 -0.1080 -0.3634
  172SAPS   H6R19526   4.814   4.380   5.786  2.2025 -0.2949 -1.4563
  172SAPS   C2719527   5.008   4.449   5.825 -0.3915 -1.4221  0.3327
  172SAPS   H7R19528   5.070   4.403   5.905 -0.0524 -1.6626 -0.0668
  172SAPS   H7S19529   5.054   4.550   5.827  2.8628 -2.7785  0.6448
  172SAPS   C2819530   5.045   4.370   5.701 -0.6040  0.2101  0.5601
  172SAPS   H8R19531   5.121   4.291   5.712 -0.9693 -0.2999 -0.3944
  172SAPS   C2919532   5.020   4.410   5.572 -0.2120 -0.7173  0.0180
  172SAPS   H9R19533   5.064   4.362   5.484 -0.8349 -3.0726  0.9173
  172SAPS  C21019534   4.928   4.528   5.537  0.3540 -0.2222  0.0235
  172SAPS  H10R19535   4.963   4.595   5.455 -0.7071  0.6538  0.2579
  172SAPS  H10S19536   4.910   4.596   5.623  2.0735 -1.5107  1.4634
  172SAPS  C21119537   4.788   4.491   5.489  0.1366 -0.6156 -0.1799
  172SAPS  H11R19538   4.750   4.393   5.519  0.7724 -1.0735 -0.8326
  172SAPS  C21219539   4.703   4.568   5.416  1.0194  0.2761  0.1964
  172SAPS  H12R19540   4.606   4.522   5.395 -0.2103  2.5022  0.6219
  172SAPS  C21319541   4.723   4.709   5.370  0.0229 -0.7441 -0.8938
  172SAPS  H13R19542   4.715   4.718   5.259 -1.6759 -1.6262 -0.8792
  172SAPS  H13S19543   4.823   4.747   5.398 -0.8055 -0.6421  2.3510
  172SAPS  C21419544   4.640   4.812   5.439  0.8295 -0.2304 -0.2435
  172SAPS  H14R19545   4.649   4.813   5.549 -2.0374 -0.4527  0.0650
  172SAPS  C21519546   4.558   4.900   5.378  0.2790 -0.7706  0.5027
  172SAPS  H15R19547   4.494   4.972   5.432 -1.0637 -0.1845 -1.7168
  172SAPS  C21619548   4.523   4.905   5.228  0.7212  0.4636 -0.1710
  172SAPS  H16R19549   4.495   4.802   5.197 -0.8377  1.3542 -1.9267
  172SAPS  H16S19550   4.612   4.936   5.169  2.5371 -0.5124  1.9361
  172SAPS  C21719551   4.401   4.994   5.181  0.1084 -0.1536  0.1435
  172SAPS  H17R19552   4.432   5.101   5.179  0.1746 -0.1697 -2.0036
  172SAPS  H17S19553   4.320   4.989   5.257  0.8904 -1.3474  0.9287
  172SAPS  C21819554   4.342   4.957   5.036 -0.1311  0.2414 -0.7797
  172SAPS  H18R19555   4.308   4.852   5.048  0.3712  0.1400 -0.1874
  172SAPS  H18S19556   4.425   4.956   4.962 -1.0867 -2.8946 -2.0187
  172SAPS  C21919557   4.227   5.050   4.987 -0.4834  0.4163 -0.3790
  172SAPS  H19R19558   4.265   5.154   5.002  0.6856 -0.1691  1.0067
  172SAPS  H19S19559   4.145   5.035   5.061 -0.6420  2.2546 -0.1335
  172SAPS  C22019560   4.181   5.012   4.846 -0.2208  0.5583  0.6968
  172SAPS  H20R19561   4.256   5.031   4.767 -0.9949  0.2656 -0.1317
  172SAPS  H20S19562   4.087   5.070   4.830  0.6399  1.7346 -0.2635
  172SAPS  H20T19563   4.151   4.905   4.842  0.3476  0.3636 -3.9602
  172SAPS   C3319564   5.088   4.166   6.191 -0.3961 -0.1124 -0.0180
  172SAPS   H3X19565   5.099   4.276   6.182 -1.6399 -0.0677 -1.2372
  172SAPS   H3Y19566   4.982   4.138   6.173 -0.2418  0.2954 -1.7262
  172SAPS   C3419567   5.185   4.099   6.099  1.0028 -0.4484 -0.7642
  172SAPS   H4X19568   5.166   3.991   6.114 -0.0264  0.0601  2.2990
  172SAPS   H4Y19569   5.283   4.131   6.141 -0.2906  0.8434  1.4834
  172SAPS   C3519570   5.175   4.132   5.943  0.4813 -0.4576  0.7985
  172SAPS   H5X19571   5.231   4.221   5.909  1.1049 -1.4429 -0.9209
  172SAPS   H5Y19572   5.067   4.142   5.917  1.1808 -2.5143 -4.0701
  172SAPS   C3619573   5.226   4.013   5.858  0.0340 -0.2568  0.4872
  172SAPS   H6X19574   5.168   3.920   5.874  0.5738 -0.7678 -0.4324
  172SAPS   H6Y19575   5.329   3.989   5.890  1.0397  1.4219 -1.2490
  172SAPS   C3719576   5.213   4.034   5.705  0.1534  0.3273  0.6380
  172SAPS   H7X19577   5.292   4.099   5.662  0.0233 -0.2973 -0.5761
  172SAPS   H7Y19578   5.114   4.081   5.683 -0.3803 -1.1194 -0.1797
  172SAPS   C3819579   5.241   3.906   5.626  0.1174 -0.0449 -0.3238
  172SAPS   H8X19580   5.152   3.839   5.627  0.4350 -0.4827 -1.1084
  172SAPS   H8Y19581   5.327   3.849   5.669 -0.4116 -1.1582 -0.7054
  172SAPS   C3919582   5.278   3.919   5.481 -0.0498 -0.4311 -0.3264
  172SAPS   H9X19583   5.382   3.958   5.477 -0.4717  0.7196 -0.3907
  172SAPS   H9Y19584   5.218   3.997   5.430  1.4328 -0.0318 -1.5303
  172SAPS  C31019585   5.277   3.790   5.397  0.1195 -0.5905  0.1599
  172SAPS  H10X19586   5.168   3.769   5.398 -0.3581  1.3205 -1.8251
  172SAPS  H10Y19587   5.332   3.706   5.442  1.1735 -0.9213 -1.6483
  172SAPS  C31119588   5.307   3.817   5.247  0.2226  0.8109 -0.5803
  172SAPS  H11X19589   5.410   3.855   5.234  0.1484  1.7743  1.2818
  172SAPS  H11Y19590   5.241   3.903   5.223 -0.9705  0.3425  0.8104
  172SAPS  C31219591   5.283   3.700   5.152 -0.2738 -0.0500  0.1459
  172SAPS  H12X19592   5.211   3.629   5.198 -0.3503  1.3197  2.2865
  172SAPS  H12Y19593   5.373   3.635   5.146  1.1086  1.8819 -0.9684
  172SAPS  C31319594   5.272   3.744   5.012  0.3995 -0.2121 -0.7511
  172SAPS  H13X19595   5.376   3.771   4.988 -0.2026  0.5901 -2.5752
  172SAPS  H13Y19596   5.204   3.831   4.998  0.1818 -0.6703 -2.7969
  172SAPS  C31419597   5.215   3.631   4.932 -0.4748 -0.1946  0.0291
  172SAPS  H14X19598   5.114   3.607   4.972  0.5248 -2.0518  1.5772
  172SAPS  H14Y19599   5.273   3.542   4.963 -0.9635 -0.5910 -0.1906
  172SAPS  C31519600   5.203   3.640   4.785 -0.4586 -0.4215  0.4541
  172SAPS  H15X19601   5.156   3.738   4.766  0.3866 -0.2797 -1.0688
  172SAPS  H15Y19602   5.125   3.570   4.747 -1.0295  0.6252 -0.3683
  172SAPS  C31619603   5.329   3.625   4.710  0.0555  0.1761 -0.2539
  172SAPS  H16X19604   5.398   3.711   4.719 -0.7152  0.6638  1.6219
  172SAPS  H16Y19605   5.380   3.531   4.741 -0.9866 -0.7948 -1.3788
  172SAPS  C31719606   5.290   3.599   4.561  0.8891 -0.0391  0.5279
  172SAPS  H17X19607   5.221   3.684   4.541 -0.6336 -1.0729  1.1947
  172SAPS  H17Y19608   5.232   3.505   4.550  0.3782 -0.1049  3.2317
  172SAPS  C31819609   5.407   3.595   4.473  0.5451 -0.0742 -0.4763
  172SAPS  H18X19610   5.472   3.686   4.468  0.2829  0.1377 -0.0573
  172SAPS  H18Y19611   5.377   3.559   4.372 -1.3513  0.3746 -0.1096
  172SAPS  H18Z19612   5.471   3.516   4.517  0.5523 -1.4541 -2.7861
  173SAPS     N19613   5.036   3.696   2.440  1.0810  0.3234  0.1966
  173SAPS   HN119614   4.990   3.754   2.512  0.4281  1.8071 -1.3324
  173SAPS   HN219615   5.013   3.596   2.458  1.2105  0.0726 -0.9422
  173SAPS   HN319616   5.139   3.712   2.442  1.0007  0.9422 -0.2236
  173SAPS   C1219617   4.984   3.721   2.299 -0.7277 -0.1390 -0.1887
  173SAPS  H12A19618   4.895   3.781   2.308  1.2387  2.8532  0.8183
  173SAPS   C1319619   5.073   3.819   2.216 -0.8416 -0.3441  0.0989
  173SAPS  O13A19620   5.173   3.873   2.268  0.1233  0.1704 -0.2690
  173SAPS  O13B19621   5.034   3.852   2.100 -0.8775 -0.3363 -0.4236
  173SAPS   C1119622   4.975   3.585   2.225  0.5423 -0.5907 -0.1827
  173SAPS  H11A19623   5.082   3.561   2.205  1.3130  0.0893  2.6574
  173SAPS  H11B19624   4.921   3.607   2.130 -1.7498  1.2402  1.4321
  173SAPS     P19625   4.861   3.362   2.249  0.3233  0.3744  0.4010
  173SAPS   O1319626   4.742   3.386   2.166  0.2532  0.2403  0.1235
  173SAPS   O1419627   4.972   3.300   2.178 -0.3500 -0.0485  0.5375
  173SAPS   O1219628   4.904   3.498   2.314  0.3962 -0.0692  0.3070
  173SAPS   O1119629   4.818   3.268   2.364 -0.0979  0.2157 -0.8488
  173SAPS    C119630   4.709   3.307   2.456  0.0478 -0.3095  0.4069
  173SAPS    HA19631   4.633   3.367   2.402  1.1126 -0.2271 -1.0215
  173SAPS    HB19632   4.641   3.224   2.485 -2.0223  1.1354 -0.0808
  173SAPS    C219633   4.744   3.375   2.586 -0.4708 -0.1102 -0.2510
  173SAPS    HS19634   4.790   3.474   2.564  1.0281 -0.3059  1.7056
  173SAPS   O2119635   4.847   3.298   2.657 -0.4023 -0.4759 -0.1155
  173SAPS   C2119636   4.971   3.322   2.639  0.0605  0.0122  0.4927
  173SAPS   O2219637   5.017   3.416   2.576  0.6018 -0.4179  0.0144
  173SAPS   C2219638   5.053   3.211   2.699  0.2518 -0.8142 -0.6130
  173SAPS   H2R19639   4.989   3.130   2.740 -1.8059  0.7682 -0.5928
  173SAPS   H2S19640   5.121   3.167   2.623  1.4655  1.0211 -0.6570
  173SAPS    C319641   4.624   3.392   2.680  0.2635 -0.2736 -0.9445
  173SAPS    HX19642   4.575   3.294   2.701 -1.0459  0.5860  0.2388
  173SAPS    HY19643   4.548   3.450   2.624  1.6562  3.1726  0.4537
  173SAPS   O3119644   4.656   3.453   2.811 -0.3732  0.6562  0.0170
  173SAPS   C3119645   4.664   3.585   2.816 -0.1830  0.4165  0.4578
  173SAPS   O3219646   4.638   3.655   2.719 -0.6187 -0.6709 -0.3381
  173SAPS   C3219647   4.726   3.625   2.948  0.0886 -0.8995 -0.2420
  173SAPS   H2X19648   4.726   3.735   2.964  2.0613 -1.2514  2.8531
  173SAPS   H2Y19649   4.833   3.599   2.937 -0.0578 -1.1972 -1.0507
  173SAPS   C2319650   5.136   3.269   2.814  0.7913  0.4375  0.1721
  173SAPS   H3R19651   5.187   3.357   2.770  0.3062 -0.7381 -3.0436
  173SAPS   H3S19652   5.210   3.192   2.844  1.9615  0.0545 -3.2716
  173SAPS   C2419653   5.054   3.312   2.936  0.3474  0.0705 -0.2591
  173SAPS   H4R19654   4.962   3.365   2.905  0.5676  0.0637 -0.9379
  173SAPS   H4S19655   5.116   3.383   2.995 -0.9804  0.7639  0.3283
  173SAPS   C2519656   5.000   3.187   3.013 -0.2826  0.3950  0.7772
  173SAPS   H5R19657   4.947   3.111   2.952  1.3776 -1.0785  1.0918
  173SAPS   C2619658   4.986   3.179   3.143 -0.3829  0.1873 -0.1209
  173SAPS   H6R19659   4.954   3.083   3.185  1.0003 -0.1052  0.3141
  173SAPS   C2719660   5.056   3.269   3.239  0.0756  0.1945  0.4749
  173SAPS   H7R19661   5.135   3.328   3.187 -0.3524 -0.9296 -1.5683
  173SAPS   H7S19662   5.105   3.222   3.327 -0.5653  1.1387  1.3651
  173SAPS   C2819663   4.947   3.364   3.281 -0.8415 -0.2253  0.1864
  173SAPS   H8R19664   4.908   3.436   3.208  0.7397  1.8621  1.2778
  173SAPS   C2919665   4.917   3.386   3.409  0.4560 -0.4944  0.3917
  173SAPS   H9R19666   4.837   3.461   3.425 -0.9344 -1.4390 -1.7031
  173SAPS  C21019667   4.956   3.317   3.539 -0.6786 -0.3091 -0.0639
  173SAPS  H10R19668   5.002   3.222   3.505 -1.2294 -0.6347  0.0805
  173SAPS  H10S19669   4.867   3.289   3.600 -0.9655 -0.0886 -0.3720
  173SAPS  C21119670   5.034   3.395   3.638 -0.2415 -0.4491  0.1830
  173SAPS  H11R19671   4.976   3.469   3.695 -2.3731 -1.4210 -0.6382
  173SAPS  C21219672   5.167   3.361   3.667  0.9657 -0.2003 -0.7023
  173SAPS  H12R19673   5.210   3.422   3.748  2.1129 -0.2123 -1.2911
  173SAPS  C21319674   5.254   3.243   3.627 -0.6420 -0.1511 -0.0348
  173SAPS  H13R19675   5.234   3.227   3.519  1.2865  0.6397 -0.5465
  173SAPS  H13S19676   5.223   3.152   3.683  0.5879  0.4058  1.6105
  173SAPS  C21419677   5.404   3.261   3.642 -0.3668  0.5309  0.2289
  173SAPS  H14R19678   5.460   3.262   3.547  0.7295  1.8348  0.8512
  173SAPS  C21519679   5.478   3.276   3.752 -0.1286  0.2784 -0.0142
  173SAPS  H15R19680   5.587   3.290   3.740 -0.1880 -0.6423 -1.9436
  173SAPS  C21619681   5.437   3.291   3.897 -0.0882  0.1383 -0.2068
  173SAPS  H16R19682   5.329   3.265   3.901 -0.1907  0.7106  1.2658
  173SAPS  H16S19683   5.447   3.399   3.921  0.5528  0.4760 -1.8402
  173SAPS  C21719684   5.509   3.212   4.001  0.2279  0.3060  0.0202
  173SAPS  H17R19685   5.617   3.221   3.976 -0.0515  1.0703 -1.0152
  173SAPS  H17S19686   5.488   3.103   3.991 -0.3428  0.3983  0.1311
  173SAPS  C21819687   5.480   3.250   4.146  0.2010  0.5470  1.3055
  173SAPS  H18R19688   5.372   3.239   4.170 -0.0503  0.8303  0.3696
  173SAPS  H18S19689   5.501   3.359   4.159  0.8108  0.2190  3.3850
  173SAPS  C21919690   5.559   3.173   4.247  0.5521  0.2639  0.1169
  173SAPS  H19R19691   5.661   3.216   4.237  0.0682  1.1859 -1.0627
  173SAPS  H19S19692   5.564   3.064   4.226  0.5155  0.3271 -0.2277
  173SAPS  C22019693   5.536   3.193   4.395  0.0021  0.0661  0.4642
  173SAPS  H20R19694   5.610   3.136   4.454 -1.0548 -2.9027 -0.8721
  173SAPS  H20S19695   5.432   3.165   4.422  0.1418 -0.9552  0.0086
  173SAPS  H20T19696   5.538   3.301   4.422 -1.6366 -0.1442  1.5721
  173SAPS   C3319697   4.646   3.565   3.065  0.2790  0.0623  0.4726
  173SAPS   H3X19698   4.683   3.464   3.094 -1.6833 -0.5393  1.0915
  173SAPS   H3Y19699   4.538   3.549   3.043  0.4130  0.4283 -0.4874
  173SAPS   C3419700   4.643   3.655   3.190 -0.0385  0.2282  0.1530
  173SAPS   H4X19701   4.599   3.753   3.162 -1.5220 -1.2002 -2.9938
  173SAPS   H4Y19702   4.747   3.679   3.219  0.0140 -0.6583  0.7604
  173SAPS   C3519703   4.562   3.584   3.305 -0.4133  0.4608 -0.6869
  173SAPS   H5X19704   4.592   3.477   3.318 -0.7508  0.5602  1.2840
  173SAPS   H5Y19705   4.453   3.595   3.288 -0.5761  0.6104  0.3708
  173SAPS   C3619706   4.599   3.651   3.437 -0.6289 -0.2890 -0.0166
  173SAPS   H6X19707   4.579   3.758   3.414 -0.9014 -0.0287  1.3143
  173SAPS   H6Y19708   4.707   3.643   3.462 -0.2764  0.7404 -1.1612
  173SAPS   C3719709   4.511   3.612   3.553 -0.1238  0.0287 -1.3062
  173SAPS   H7X19710   4.512   3.501   3.550 -0.3670  0.0236 -1.2360
  173SAPS   H7Y19711   4.405   3.643   3.540 -1.2944 -2.3681  1.4250
  173SAPS   C3819712   4.567   3.660   3.686 -0.0990 -0.3805  0.1957
  173SAPS   H8X19713   4.538   3.763   3.716 -0.2899 -0.6441  0.9449
  173SAPS   H8Y19714   4.677   3.676   3.680 -0.1692  1.1405  2.0549
  173SAPS   C3919715   4.530   3.573   3.807  0.4332  0.1920  0.0880
  173SAPS   H9X19716   4.563   3.469   3.787  1.6794  1.0223 -2.8542
  173SAPS   H9Y19717   4.420   3.576   3.818  0.4506  1.7451  0.0420
  173SAPS  C31019718   4.596   3.634   3.928 -0.1534  0.0597  0.1248
  173SAPS  H10X19719   4.556   3.734   3.955 -1.9024 -0.9836  1.6435
  173SAPS  H10Y19720   4.703   3.635   3.898 -0.7812 -0.4032 -2.3231
  173SAPS  C31119721   4.592   3.547   4.063  0.1863  0.2508  0.7258
  173SAPS  H11X19722   4.629   3.446   4.039 -1.9881 -0.2309 -0.9494
  173SAPS  H11Y19723   4.481   3.540   4.070 -0.1236  2.7996 -0.3929
  173SAPS  C31219724   4.652   3.613   4.190  0.0739 -0.2908  0.5633
  173SAPS  H12X19725   4.602   3.712   4.198 -0.2958 -0.3924 -0.3550
  173SAPS  H12Y19726   4.762   3.618   4.174 -0.3038  0.6792 -2.3210
  173SAPS  C31319727   4.626   3.539   4.320  0.0319  0.1331 -0.2783
  173SAPS  H13X19728   4.637   3.429   4.308 -1.0395 -0.2344  1.7460
  173SAPS  H13Y19729   4.519   3.557   4.343 -0.0221 -1.2724  0.6586
  173SAPS  C31419730   4.702   3.584   4.447 -0.1895 -0.2902 -0.0113
  173SAPS  H14X19731   4.688   3.691   4.473 -1.0729 -0.2148 -0.7494
  173SAPS  H14Y19732   4.809   3.560   4.427 -0.2710  1.1930 -2.6669
  173SAPS  C31519733   4.665   3.490   4.563 -0.0035  0.3252 -0.1505
  173SAPS  H15X19734   4.693   3.387   4.533 -2.4166 -0.2914 -0.4657
  173SAPS  H15Y19735   4.556   3.478   4.580  0.4707 -3.3387  1.2236
  173SAPS  C31619736   4.729   3.543   4.696 -0.0838  0.4063  1.0680
  173SAPS  H16X19737   4.728   3.654   4.699  1.2464  0.5305 -0.9957
  173SAPS  H16Y19738   4.834   3.510   4.686 -0.6989 -1.1123 -1.5787
  173SAPS  C31719739   4.662   3.494   4.819  0.5467  0.6163 -0.6538
  173SAPS  H17X19740   4.639   3.385   4.815  1.2125  0.2816  2.5301
  173SAPS  H17Y19741   4.561   3.538   4.829  0.0750 -0.3740 -0.8408
  173SAPS  C31819742   4.728   3.527   4.952  0.0343  0.2724  0.1165
  173SAPS  H18X19743   4.819   3.466   4.963 -1.6113 -1.9207  3.0032
  173SAPS  H18Y19744   4.657   3.493   5.030  0.2936  0.0104  0.2387
  173SAPS  H18Z19745   4.763   3.632   4.962  0.0606  0.2661  0.0906
  174SAPS     N19746   2.230   5.644   2.254 -0.0873 -0.2842  0.1033
  174SAPS   HN119747   2.230   5.588   2.342 -0.8388 -0.7144 -0.1641
  174SAPS   HN219748   2.139   5.638   2.204  0.2572  0.7271 -0.6754
  174SAPS   HN319749   2.306   5.615   2.189 -0.7128  0.6812 -1.0915
  174SAPS   C1219750   2.258   5.784   2.294 -0.2443 -0.2816  0.3064
  174SAPS  H12A19751   2.350   5.778   2.350  0.3032 -1.0937 -0.6518
  174SAPS   C1319752   2.279   5.873   2.171 -0.1806 -0.9002 -0.0189
  174SAPS  O13A19753   2.250   5.823   2.054 -0.2197 -0.2448  0.0614
  174SAPS  O13B19754   2.302   5.994   2.186  0.0270 -0.2782  0.5709
  174SAPS   C1119755   2.143   5.841   2.384  0.2152  0.4364  0.1413
  174SAPS  H11A19756   2.184   5.941   2.411  0.8549  0.7776 -1.9116
  174SAPS  H11B19757   2.121   5.783   2.476 -0.4918  0.9323  0.2985
  174SAPS     P19758   1.894   5.770   2.318  0.2976 -0.3098 -0.1038
  174SAPS   O1319759   1.778   5.821   2.240  0.3119  0.2487 -0.4770
  174SAPS   O1419760   1.946   5.636   2.287 -0.2037 -0.5970 -0.2791
  174SAPS   O1219761   2.030   5.860   2.301  0.6955 -0.1370 -0.0376
  174SAPS   O1119762   1.856   5.786   2.470  0.3797  0.3330 -0.3268
  174SAPS    C119763   1.868   5.904   2.544 -0.4472 -0.2620  0.2203
  174SAPS    HA19764   1.929   5.989   2.507  0.5345 -0.6514  0.8884
  174SAPS    HB19765   1.763   5.940   2.540 -1.3262 -2.5981  0.6051
  174SAPS    C219766   1.906   5.878   2.690 -1.4086  0.1632  0.2067
  174SAPS    HS19767   1.990   5.805   2.689 -1.4815  0.0653 -1.5799
  174SAPS   O2119768   1.793   5.807   2.743  0.0398  0.6370 -0.5232
  174SAPS   C2119769   1.820   5.739   2.856  0.0151 -0.1967  0.1682
  174SAPS   O2219770   1.916   5.745   2.926 -0.1072  0.3487  0.1857
  174SAPS   C2219771   1.699   5.658   2.891 -0.1618 -0.4660 -0.2054
  174SAPS   H2R19772   1.610   5.719   2.865 -0.8647 -1.9310 -1.3962
  174SAPS   H2S19773   1.707   5.565   2.830  0.3761  0.6349 -1.8878
  174SAPS    C319774   1.939   6.007   2.775  0.0845 -0.0035  0.4326
  174SAPS    HX19775   1.965   6.096   2.714 -0.9090  0.7201  1.0318
  174SAPS    HY19776   2.025   5.986   2.843  0.4856 -0.4846 -0.2175
  174SAPS   O3119777   1.821   6.047   2.851  0.5164 -0.2716 -0.2919
  174SAPS   C3119778   1.849   6.121   2.960 -0.4687 -0.2744  0.1914
  174SAPS   O3219779   1.965   6.164   2.987 -0.3415  0.4589  0.3895
  174SAPS   C3219780   1.721   6.141   3.037 -0.0797  0.5844  0.0317
  174SAPS   H2X19781   1.637   6.081   2.995 -0.6644  1.6075 -0.2782
  174SAPS   H2Y19782   1.686   6.240   3.000 -0.5600  0.7711  0.9607
  174SAPS   C2319783   1.691   5.634   3.051  0.0024  0.4950 -0.3381
  174SAPS   H3R19784   1.780   5.575   3.082 -1.2661 -1.8784 -0.9491
  174SAPS   H3S19785   1.602   5.571   3.078 -1.8488  2.6869 -1.0447
  174SAPS   C2419786   1.672   5.768   3.126  0.1182 -0.2098 -0.9009
  174SAPS   H4R19787   1.572   5.803   3.093 -0.1477 -1.7395 -1.7750
  174SAPS   H4S19788   1.760   5.834   3.106  0.0232  0.4688  0.7481
  174SAPS   C2519789   1.667   5.738   3.274 -0.4444 -0.4311  0.1735
  174SAPS   H5R19790   1.757   5.734   3.338 -0.2520  1.9687  0.1352
  174SAPS   C2619791   1.553   5.738   3.346 -0.1656  0.5570 -0.3974
  174SAPS   H6R19792   1.567   5.722   3.454  2.6568 -0.0894 -0.8015
  174SAPS   C2719793   1.410   5.744   3.308  0.5496 -0.0612  0.0796
  174SAPS   H7R19794   1.405   5.763   3.199  0.5291  1.2796  0.2923
  174SAPS   H7S19795   1.341   5.818   3.353  0.9589 -0.1176  0.8213
  174SAPS   C2819796   1.348   5.611   3.332 -0.2942  0.0537 -0.3051
  174SAPS   H8R19797   1.329   5.549   3.243  0.0175 -1.9895  1.0174
  174SAPS   C2919798   1.294   5.557   3.444 -0.1541  0.0495 -0.1490
  174SAPS   H9R19799   1.260   5.453   3.448 -0.7187  0.1011 -2.2893
  174SAPS  C21019800   1.301   5.634   3.569 -0.5256 -0.9420 -0.6342
  174SAPS  H10R19801   1.295   5.743   3.554  0.7343 -0.9903 -1.5863
  174SAPS  H10S19802   1.393   5.607   3.624  1.1679  0.2432 -2.7560
  174SAPS  C21119803   1.178   5.604   3.647  0.3863 -0.3307 -0.3732
  174SAPS  H11R19804   1.112   5.691   3.655  0.1316 -0.7451  3.8186
  174SAPS  C21219805   1.167   5.490   3.717  0.1576  0.6363 -0.4275
  174SAPS  H12R19806   1.079   5.469   3.780  0.7092  1.7791  0.7734
  174SAPS  C21319807   1.258   5.364   3.732 -0.0182 -0.1609 -0.3461
  174SAPS  H13R19808   1.334   5.351   3.652  1.9629 -0.9949  1.5705
  174SAPS  H13S19809   1.199   5.270   3.731 -1.4707  0.7108 -0.1771
  174SAPS  C21419810   1.341   5.366   3.869  0.0750  0.3241 -0.0124
  174SAPS  H14R19811   1.444   5.402   3.852 -0.6375  2.3677 -0.1737
  174SAPS  C21519812   1.298   5.327   3.984  0.1452  0.4710  0.1645
  174SAPS  H15R19813   1.367   5.338   4.069  0.5299 -1.7843  0.2153
  174SAPS  C21619814   1.159   5.274   4.017 -0.2399 -0.3159  0.7800
  174SAPS  H16R19815   1.134   5.179   3.966 -2.1784  0.7733 -0.4034
  174SAPS  H16S19816   1.087   5.348   3.977  0.9879  1.3001  1.4565
  174SAPS  C21719817   1.125   5.253   4.169 -0.3731  0.6299 -0.1021
  174SAPS  H17R19818   1.170   5.157   4.201 -2.8388 -0.4611  0.3720
  174SAPS  H17S19819   1.015   5.237   4.176 -0.5815  0.6373 -2.3796
  174SAPS  C21819820   1.158   5.357   4.272 -0.3824 -0.4164 -0.0220
  174SAPS  H18R19821   1.100   5.450   4.252  0.4660  0.9238  3.1130
  174SAPS  H18S19822   1.268   5.373   4.268 -0.5917  1.2345  0.0227
  174SAPS  C21919823   1.132   5.303   4.411 -0.0003  0.2621 -0.4687
  174SAPS  H19R19824   1.187   5.207   4.421 -0.5243  0.0219  0.2417
  174SAPS  H19S19825   1.027   5.270   4.428  0.0762 -0.1056 -0.7103
  174SAPS  C22019826   1.174   5.407   4.520 -0.8698  0.3069  0.5320
  174SAPS  H20R19827   1.179   5.347   4.613  1.9842  0.0166  0.3092
  174SAPS  H20S19828   1.097   5.486   4.530 -0.0044  1.0253  1.9406
  174SAPS  H20T19829   1.277   5.448   4.505 -0.4770 -0.2899  1.4999
  174SAPS   C3319830   1.735   6.146   3.189 -0.4105  0.0332 -0.5100
  174SAPS   H3X19831   1.817   6.218   3.210 -0.6715  0.2648 -0.2788
  174SAPS   H3Y19832   1.768   6.049   3.232 -0.2414  0.5753  0.5999
  174SAPS   C3419833   1.612   6.186   3.267  0.9992  0.5961  0.7247
  174SAPS   H4X19834   1.539   6.103   3.256  2.6047 -0.8557  0.6028
  174SAPS   H4Y19835   1.571   6.277   3.218 -0.4504 -0.5870 -0.3582
  174SAPS   C3519836   1.640   6.202   3.421  0.0931 -0.0098  0.1514
  174SAPS   H5X19837   1.535   6.228   3.446 -0.9721 -1.1917 -2.5876
  174SAPS   H5Y19838   1.717   6.278   3.444  0.3966 -0.7349  1.6433
  174SAPS   C3619839   1.674   6.064   3.489 -0.3606 -0.4033  0.1030
  174SAPS   H6X19840   1.784   6.058   3.476 -0.0914  2.2964  0.5173
  174SAPS   H6Y19841   1.626   5.983   3.430  1.1665  0.2626 -2.1755
  174SAPS   C3719842   1.634   6.035   3.639 -0.1832 -0.2276  0.3355
  174SAPS   H7X19843   1.526   6.056   3.650 -1.5620 -4.4506 -2.6275
  174SAPS   H7Y19844   1.689   6.093   3.717 -1.1333  2.1086 -0.6336
  174SAPS   C3819845   1.640   5.887   3.689  0.2477 -0.7398  0.0211
  174SAPS   H8X19846   1.576   5.819   3.629  1.4014 -0.3902 -1.6570
  174SAPS   H8Y19847   1.597   5.881   3.791  3.3044 -1.1933  1.4049
  174SAPS   C3919848   1.781   5.834   3.694 -0.1904 -0.4088 -0.2306
  174SAPS   H9X19849   1.831   5.884   3.780 -1.6852  0.5074  0.1524
  174SAPS   H9Y19850   1.842   5.849   3.602  0.1214 -2.1801 -0.3411
  174SAPS  C31019851   1.775   5.682   3.712 -1.1441 -0.2606 -0.2543
  174SAPS  H10X19852   1.865   5.637   3.666 -1.0952  0.0301 -0.4450
  174SAPS  H10Y19853   1.692   5.652   3.644 -0.7886 -1.0319 -0.3539
  174SAPS  C31119854   1.741   5.614   3.851 -0.4763  0.1677  0.4034
  174SAPS  H11X19855   1.723   5.506   3.834 -3.2207  0.4508  1.1050
  174SAPS  H11Y19856   1.648   5.657   3.893 -0.4434 -2.2862  3.2841
  174SAPS  C31219857   1.864   5.621   3.938  0.2441 -0.0118  0.1219
  174SAPS  H12X19858   1.876   5.729   3.960  1.0514 -0.5902  2.9347
  174SAPS  H12Y19859   1.947   5.586   3.874  0.2203  1.0581 -0.5244
  174SAPS  C31319860   1.844   5.539   4.062  0.0544 -0.4764 -0.0186
  174SAPS  H13X19861   1.927   5.563   4.131 -2.4053  3.0370  2.1061
  174SAPS  H13Y19862   1.865   5.432   4.044 -0.7161 -1.3463  3.4596
  174SAPS  C31419863   1.710   5.557   4.138 -1.2254  0.0706  0.1096
  174SAPS  H14X19864   1.630   5.536   4.063  0.6284 -0.5070 -1.8038
  174SAPS  H14Y19865   1.706   5.666   4.159 -3.6750 -0.2236  1.5174
  174SAPS  C31519866   1.679   5.461   4.253  1.1102 -0.2743 -0.0974
  174SAPS  H15X19867   1.652   5.366   4.202 -0.9967 -0.5888  1.4640
  174SAPS  H15Y19868   1.592   5.494   4.314  0.5923 -0.4237 -0.7503
  174SAPS  C31619869   1.793   5.431   4.354 -0.5159 -0.4576  0.3887
  174SAPS  H16X19870   1.887   5.420   4.295  0.0362  0.1936  1.1104
  174SAPS  H16Y19871   1.782   5.328   4.393  2.4398 -0.8602  0.4095
  174SAPS  C31719872   1.803   5.545   4.459  0.1602  0.0884  0.0541
  174SAPS  H17X19873   1.699   5.560   4.494  0.3442  0.4577  0.4500
  174SAPS  H17Y19874   1.831   5.633   4.396 -0.2851 -1.0454 -1.8091
  174SAPS  C31819875   1.906   5.520   4.565  0.1900  0.2123 -0.4111
  174SAPS  H18X19876   1.999   5.482   4.516 -0.3159 -0.5344 -0.8155
  174SAPS  H18Y19877   1.863   5.442   4.632  0.7267  0.5538  0.3571
  174SAPS  H18Z19878   1.932   5.604   4.633 -0.8589 -1.0342  1.6360
  175SAPS     N19879   4.654   0.815   2.454  0.3688 -0.0815 -0.3897
  175SAPS   HN119880   4.630   0.910   2.419 -2.0550 -1.5703 -3.3023
  175SAPS   HN219881   4.569   0.761   2.427 -1.1008  0.1901  3.0856
  175SAPS   HN319882   4.661   0.805   2.557  0.1241  0.6762 -0.2904
  175SAPS   C1219883   4.774   0.759   2.389 -0.6223  0.2909 -0.4847
  175SAPS  H12A19884   4.744   0.742   2.287  0.1250 -2.2500 -0.3557
  175SAPS   C1319885   4.892   0.858   2.361 -0.7330  0.3064 -0.0156
  175SAPS  O13A19886   4.856   0.977   2.360 -0.1689 -0.7001  0.0438
  175SAPS  O13B19887   5.002   0.822   2.309  0.3596 -0.1213  0.0362
  175SAPS   C1119888   4.817   0.629   2.457 -0.1871  0.4172 -0.3749
  175SAPS  H11A19889   4.849   0.646   2.563 -1.1584  0.6079 -0.1048
  175SAPS  H11B19890   4.908   0.592   2.405  0.1675  0.6467  0.0767
  175SAPS     P19891   4.748   0.377   2.466  0.1791 -0.1075  0.0681
  175SAPS   O1319892   4.652   0.301   2.380 -0.1851  0.0725 -0.1198
  175SAPS   O1419893   4.893   0.344   2.441 -0.1771 -0.3409 -0.4013
  175SAPS   O1219894   4.720   0.525   2.447  0.6036 -0.3938 -0.2174
  175SAPS   O1119895   4.704   0.341   2.614  0.3366  0.3161 -0.1719
  175SAPS    C119896   4.706   0.416   2.731  0.0884 -1.2930  0.0464
  175SAPS    HA19897   4.691   0.523   2.706 -0.0117 -1.0037  1.2765
  175SAPS    HB19898   4.631   0.385   2.807 -0.8987 -0.6012 -0.6157
  175SAPS    C219899   4.845   0.411   2.796  0.6354 -0.1717 -0.4550
  175SAPS    HS19900   4.913   0.458   2.722 -0.3419 -0.2298 -1.4141
  175SAPS   O2119901   4.870   0.273   2.809 -0.0751  0.8119 -0.0165
  175SAPS   C2119902   4.991   0.249   2.858 -0.7261 -0.3214  0.1934
  175SAPS   O2219903   5.076   0.326   2.886 -0.0837 -0.2404 -0.5310
  175SAPS   C2219904   5.009   0.101   2.854  0.0813  0.1540 -0.7351
  175SAPS   H2R19905   4.941   0.058   2.931 -0.8528  1.3348 -0.8589
  175SAPS   H2S19906   4.982   0.055   2.756 -0.8202  2.2260 -1.5309
  175SAPS    C319907   4.841   0.492   2.930  0.1133  0.1198  0.1395
  175SAPS    HX19908   4.816   0.596   2.901  0.1041  0.3456  0.9447
  175SAPS    HY19909   4.940   0.504   2.979  0.1794  4.1112 -0.6987
  175SAPS   O3119910   4.748   0.445   3.028  0.0088  0.2010  0.0725
  175SAPS   C3119911   4.727   0.521   3.144 -0.1660  0.0711  0.0294
  175SAPS   O3219912   4.788   0.626   3.164 -0.2242  0.6885 -0.0706
  175SAPS   C3219913   4.615   0.461   3.228 -0.3095  0.3761 -0.2923
  175SAPS   H2X19914   4.603   0.352   3.210 -2.2169  0.2187  1.5283
  175SAPS   H2Y19915   4.515   0.501   3.200 -0.9766 -0.0136  1.4303
  175SAPS   C2319916   5.156   0.058   2.885  0.5511 -0.1592 -0.4469
  175SAPS   H3R19917   5.185   0.110   2.978  0.8634 -0.0691 -0.5931
  175SAPS   H3S19918   5.221   0.100   2.805  0.2614 -0.1595 -0.6866
  175SAPS   C2419919   5.175  -0.091   2.895  0.1807 -0.4571 -0.4884
  175SAPS   H4R19920   5.144  -0.118   2.792 -2.3757  0.3527  0.0103
  175SAPS   H4S19921   5.100  -0.149   2.952  1.0035 -0.8706  0.1962
  175SAPS   C2519922   5.316  -0.144   2.926  0.2666 -0.6968  0.1763
  175SAPS   H5R19923   5.373  -0.140   2.832  0.5970  0.0260  0.4002
  175SAPS   C2619924   5.372  -0.185   3.038  0.4138  0.0414 -0.0496
  175SAPS   H6R19925   5.475  -0.223   3.031  0.3168 -0.1411 -0.5345
  175SAPS   C2719926   5.298  -0.187   3.176 -0.1987  0.2962  0.0878
  175SAPS   H7R19927   5.203  -0.129   3.172 -0.0946  0.5132  0.7385
  175SAPS   H7S19928   5.353  -0.135   3.257  0.1879  2.1213 -1.2655
  175SAPS   C2819929   5.261  -0.331   3.217 -0.0150 -0.7110  0.0327
  175SAPS   H8R19930   5.235  -0.394   3.131 -0.7490  1.4844 -1.4679
  175SAPS   C2919931   5.270  -0.383   3.344  0.4196 -0.6784  0.2343
  175SAPS   H9R19932   5.224  -0.482   3.358 -1.4347 -0.1246 -1.4932
  175SAPS  C21019933   5.302  -0.296   3.466  0.1385  0.4032  0.0565
  175SAPS  H10R19934   5.219  -0.222   3.472  0.2934  0.5473  0.4474
  175SAPS  H10S19935   5.405  -0.256   3.451  0.2086  0.5143  0.7662
  175SAPS  C21119936   5.301  -0.359   3.603 -0.0304 -0.2679  0.4954
  175SAPS  H11R19937   5.395  -0.357   3.660  0.5144  2.2438 -0.3839
  175SAPS  C21219938   5.191  -0.384   3.677 -0.3321  0.2404 -0.4789
  175SAPS  H12R19939   5.205  -0.418   3.781  0.8125 -0.5019 -0.8586
  175SAPS  C21319940   5.046  -0.376   3.629 -0.0070  0.6430  0.5226
  175SAPS  H13R19941   4.992  -0.473   3.618 -1.6137  1.4681  0.8869
  175SAPS  H13S19942   5.056  -0.323   3.532  1.9040  0.1383  0.4031
  175SAPS  C21419943   4.946  -0.292   3.712  0.4863  0.7145  0.3300
  175SAPS  H14R19944   4.932  -0.348   3.806  1.1146 -0.4103 -0.2282
  175SAPS  C21519945   4.867  -0.190   3.673  0.1807  0.7250 -0.6449
  175SAPS  H15R19946   4.800  -0.145   3.747  3.1914  1.2264  1.9828
  175SAPS  C21619947   4.869  -0.121   3.540  0.0050 -1.0638 -0.7110
  175SAPS  H16R19948   4.786  -0.153   3.474  0.1441  0.1963 -1.5450
  175SAPS  H16S19949   4.955  -0.154   3.480 -0.7875 -0.9129 -1.9741
  175SAPS  C21719950   4.864   0.041   3.553 -0.4174  0.6834 -0.0012
  175SAPS  H17R19951   4.941   0.075   3.626  0.8758  1.5968 -1.7134
  175SAPS  H17S19952   4.758   0.050   3.584 -0.0353  0.2642  1.5222
  175SAPS  C21819953   4.877   0.112   3.416  0.1968  0.0034 -0.0185
  175SAPS  H18R19954   4.972   0.082   3.366  1.1000 -1.1960  2.2679
  175SAPS  H18S19955   4.888   0.221   3.435 -2.1850  0.1091  1.1561
  175SAPS  C21919956   4.764   0.087   3.313 -0.0700 -0.4437  0.3364
  175SAPS  H19R19957   4.670   0.130   3.355 -0.6934 -1.7467  0.3464
  175SAPS  H19S19958   4.743  -0.022   3.305 -1.2143 -0.3219  1.3520
  175SAPS  C22019959   4.797   0.145   3.172  0.0666  0.0552  0.2629
  175SAPS  H20R19960   4.815   0.254   3.185  0.5618 -0.0039  0.1075
  175SAPS  H20S19961   4.711   0.131   3.104 -2.5692  0.0692  3.3572
  175SAPS  H20T19962   4.893   0.101   3.137  1.6479  2.7190  0.9356
  175SAPS   C3319963   4.662   0.464   3.376  0.8427  0.5423 -0.1214
  175SAPS   H3X19964   4.682   0.567   3.412 -1.6510  0.3977  1.9550
  175SAPS   H3Y19965   4.766   0.425   3.375  2.0574  3.4731 -0.3292
  175SAPS   C3419966   4.563   0.404   3.470 -0.2325 -0.1473  0.4864
  175SAPS   H4X19967   4.564   0.295   3.452 -0.8209 -0.2369  0.9512
  175SAPS   H4Y19968   4.456   0.423   3.448 -1.3457 -2.0084  3.7101
  175SAPS   C3519969   4.581   0.433   3.615  0.4039 -0.1057 -0.8069
  175SAPS   H5X19970   4.498   0.403   3.683  0.5601  1.5758  0.1864
  175SAPS   H5Y19971   4.576   0.543   3.630 -0.5188 -0.1403 -0.8320
  175SAPS   C3619972   4.718   0.371   3.662  0.0163  0.2992 -0.5635
  175SAPS   H6X19973   4.792   0.422   3.597  0.9850 -0.4918 -0.1097
  175SAPS   H6Y19974   4.719   0.264   3.633 -1.6750  0.6301 -2.0219
  175SAPS   C3719975   4.740   0.390   3.812  0.0222 -0.6185 -0.1031
  175SAPS   H7X19976   4.648   0.361   3.867 -1.1498 -0.7895 -2.0574
  175SAPS   H7Y19977   4.751   0.499   3.830  0.3484 -0.8597  1.2684
  175SAPS   C3819978   4.846   0.322   3.887  0.4947 -0.3719 -0.4907
  175SAPS   H8X19979   4.951   0.348   3.860  0.7702  1.7801  2.2669
  175SAPS   H8Y19980   4.839   0.211   3.879  2.4103 -0.7990  2.1621
  175SAPS   C3919981   4.839   0.360   4.036  0.0344  0.1906 -0.5533
  175SAPS   H9X19982   4.739   0.331   4.076 -0.1665  0.7482 -0.6374
  175SAPS   H9Y19983   4.825   0.470   4.045 -1.2964 -0.0350  0.5190
  175SAPS  C31019984   4.946   0.300   4.131 -0.0178  0.0759 -1.3158
  175SAPS  H10X19985   5.045   0.351   4.128  1.6047 -2.8636 -1.8510
  175SAPS  H10Y19986   4.983   0.203   4.091  0.5984  0.0242 -0.6519
  175SAPS  C31119987   4.896   0.293   4.275  0.9220 -0.0544 -0.3206
  175SAPS  H11X19988   4.810   0.223   4.276  1.4134 -0.6814  1.3020
  175SAPS  H11Y19989   4.858   0.395   4.300  0.5353 -0.1908 -0.3384
  175SAPS  C31219990   5.000   0.245   4.379 -0.6318 -0.4203 -0.5375
  175SAPS  H12X19991   5.064   0.333   4.405 -1.6628  0.2349 -0.1543
  175SAPS  H12Y19992   5.059   0.169   4.324  1.2641  2.0599 -2.2187
  175SAPS  C31319993   4.939   0.188   4.502  0.0262  0.1923 -0.3358
  175SAPS  H13X19994   4.871   0.261   4.551  1.1354  0.5008  0.8133
  175SAPS  H13Y19995   5.031   0.178   4.564  0.9632 -2.0221 -1.9513
  175SAPS  C31419996   4.885   0.046   4.490  0.2119 -0.1801  0.5533
  175SAPS  H14X19997   4.969  -0.018   4.454  0.7313 -0.8732  2.8076
  175SAPS  H14Y19998   4.821   0.046   4.399  3.1079  0.2249 -1.6221
  175SAPS  C31519999   4.830  -0.007   4.620  0.3140 -0.3077 -0.1704
  175SAPS  H15X20000   4.771   0.079   4.658  0.0699 -1.2034  1.5562
  175SAPS  H15Y20001   4.911  -0.026   4.692 -1.0468 -1.1060  1.2193
  175SAPS  C31620002   4.747  -0.134   4.584 -0.2060  0.8663  0.0682
  175SAPS  H16X20003   4.816  -0.221   4.578 -2.0156 -0.5599 -1.6116
  175SAPS  H16Y20004   4.704  -0.118   4.483  1.1932  1.6022 -0.4298
  175SAPS  C31720005   4.639  -0.163   4.686 -0.1285 -0.0691 -1.0398
  175SAPS  H17X20006   4.576  -0.242   4.641  0.0250 -0.6912 -0.1876
  175SAPS  H17Y20007   4.573  -0.077   4.710  2.3324  1.9488 -1.0727
  175SAPS  C31820008   4.703  -0.213   4.822  0.3406 -0.0281  0.4024
  175SAPS  H18X20009   4.731  -0.129   4.889  1.1644 -3.0853  4.3288
  175SAPS  H18Y20010   4.786  -0.280   4.789  1.1902  1.7482 -1.2313
  175SAPS  H18Z20011   4.618  -0.271   4.865 -1.2664  0.0612 -2.4078
  176SAPS     N20012   5.658   1.301   2.627 -0.1279  0.0469  0.2906
  176SAPS   HN120013   5.728   1.270   2.697  0.5466  0.4235 -0.1982
  176SAPS   HN220014   5.654   1.405   2.614  1.6720  0.2193  0.7800
  176SAPS   HN320015   5.566   1.269   2.661 -0.1334 -0.4327 -0.1564
  176SAPS   C1220016   5.683   1.225   2.508  0.5065  0.0049  0.1783
  176SAPS  H12A20017   5.591   1.220   2.451  0.2396 -1.7875  0.7205
  176SAPS   C1320018   5.789   1.281   2.410  0.3510 -0.2410 -0.0137
  176SAPS  O13A20019   5.841   1.395   2.434 -0.0073 -0.0114 -0.0871
  176SAPS  O13B20020   5.809   1.211   2.306  0.2528 -0.5229 -0.4153
  176SAPS   C1120021   5.720   1.073   2.539 -0.3312 -0.8651 -0.0516
  176SAPS  H11A20022   5.815   1.090   2.594 -0.3671 -0.2636 -0.1638
  176SAPS  H11B20023   5.717   1.021   2.441 -0.7492 -2.9246  0.9990
  176SAPS     P20024   5.624   0.862   2.661  0.5659  0.0945  0.1003
  176SAPS   O1320025   5.588   0.784   2.540  0.1241 -0.2637  0.2095
  176SAPS   O1420026   5.752   0.827   2.729  0.5808  0.5123 -0.1956
  176SAPS   O1220027   5.617   1.016   2.628  0.2189  0.0779 -0.1287
  176SAPS   O1120028   5.500   0.847   2.763  0.5081 -0.2481  0.0684
  176SAPS    C120029   5.443   0.961   2.828  0.2690 -0.1441  0.3252
  176SAPS    HA20030   5.513   1.048   2.826 -2.0205  1.8717 -3.4058
  176SAPS    HB20031   5.356   1.001   2.772 -0.4230 -0.6244  1.0267
  176SAPS    C220032   5.402   0.928   2.977 -0.4004 -0.7901 -0.3256
  176SAPS    HS20033   5.499   0.897   3.021  0.9221  1.7321 -1.2429
  176SAPS   O2120034   5.297   0.828   2.981  0.7889  0.9818 -0.0279
  176SAPS   C2120035   5.291   0.766   3.098  0.2886 -0.2573  0.1965
  176SAPS   O2220036   5.365   0.782   3.192 -0.2263 -0.1450  0.5075
  176SAPS   C2220037   5.195   0.644   3.076 -0.4863  0.9497 -0.0846
  176SAPS   H2R20038   5.097   0.673   3.033 -0.2515 -1.6853 -2.7601
  176SAPS   H2S20039   5.241   0.591   2.990  0.6793  1.5789  0.1466
  176SAPS    C320040   5.359   1.066   3.043 -0.2393 -0.0863 -0.5484
  176SAPS    HX20041   5.267   1.107   2.996  0.6673  2.7779 -0.0382
  176SAPS    HY20042   5.439   1.140   3.020 -1.7663  1.6834 -0.3646
  176SAPS   O3120043   5.337   1.057   3.186 -0.5203  0.5333  0.5727
  176SAPS   C3120044   5.293   1.170   3.247 -0.6470  0.4780  0.4539
  176SAPS   O3220045   5.272   1.272   3.191  0.6964 -0.5725 -0.1206
  176SAPS   C3220046   5.267   1.138   3.392  0.1675  0.1087  0.0874
  176SAPS   H2X20047   5.368   1.110   3.431  0.8309  1.3139 -0.6908
  176SAPS   H2Y20048   5.222   1.036   3.391  0.6047 -0.0860 -0.0745
  176SAPS   C2320049   5.164   0.560   3.199  0.1353 -0.2285  0.3526
  176SAPS   H3R20050   5.263   0.521   3.228 -0.1870 -0.8080  0.6997
  176SAPS   H3S20051   5.100   0.473   3.171 -2.5766  1.0959  2.0427
  176SAPS   C2420052   5.081   0.632   3.316  0.3516  0.7476 -0.1350
  176SAPS   H4R20053   5.025   0.547   3.361  1.7384 -0.8119 -1.2596
  176SAPS   H4S20054   5.020   0.709   3.264 -1.5584 -0.0592  0.7899
  176SAPS   C2520055   5.176   0.695   3.408  0.6459 -0.4975  0.3645
  176SAPS   H5R20056   5.211   0.797   3.384  1.8464 -0.7120  1.1439
  176SAPS   C2620057   5.209   0.644   3.525  0.1664  0.0210 -0.0942
  176SAPS   H6R20058   5.281   0.694   3.591 -0.8010  1.7840 -0.3115
  176SAPS   C2720059   5.163   0.512   3.595 -0.6026  0.0052  0.2424
  176SAPS   H7R20060   5.257   0.453   3.608 -0.6157  0.3841  2.3522
  176SAPS   H7S20061   5.100   0.451   3.528 -1.4847 -0.9168  1.8544
  176SAPS   C2820062   5.098   0.549   3.730 -0.7589  0.3866 -0.5330
  176SAPS   H8R20063   5.001   0.600   3.725 -1.2489 -0.5977 -1.2430
  176SAPS   C2920064   5.142   0.518   3.853 -0.1664 -0.4325  0.4154
  176SAPS   H9R20065   5.090   0.561   3.940  0.6261  2.5588 -0.4723
  176SAPS  C21020066   5.275   0.447   3.879  0.2758  0.3500 -0.0149
  176SAPS  H10R20067   5.350   0.528   3.862  0.6666  0.1680  0.7896
  176SAPS  H10S20068   5.300   0.370   3.803 -1.5127  0.6647 -0.9764
  176SAPS  C21120069   5.308   0.413   4.021 -0.3198  0.4899  0.0562
  176SAPS  H11R20070   5.286   0.493   4.093  1.5836  2.0749 -1.0052
  176SAPS  C21220071   5.343   0.291   4.066 -0.0638 -0.1265  0.1177
  176SAPS  H12R20072   5.348   0.280   4.176 -0.6278 -0.7671  0.0828
  176SAPS  C21320073   5.370   0.158   3.992  0.4311  0.7655  0.5585
  176SAPS  H13R20074   5.435   0.097   4.059 -1.1305 -1.9889 -0.2319
  176SAPS  H13S20075   5.434   0.162   3.902 -0.3798 -2.3679 -0.2950
  176SAPS  C21420076   5.243   0.075   3.964  0.1009  0.1761 -1.3179
  176SAPS  H14R20077   5.187   0.060   4.058  1.0253  0.2724 -0.7336
  176SAPS  C21520078   5.195   0.023   3.852 -0.5007  0.9487  0.2442
  176SAPS  H15R20079   5.094  -0.020   3.858  0.0059 -0.3915 -0.3317
  176SAPS  C21620080   5.257   0.008   3.715 -0.3413  0.1087  0.1188
  176SAPS  H16R20081   5.208  -0.075   3.660 -0.3655  1.1773 -1.5520
  176SAPS  H16S20082   5.363  -0.019   3.732 -0.7550 -1.5825  0.1982
  176SAPS  C21720083   5.229   0.135   3.629  0.1905 -0.7511  0.2339
  176SAPS  H17R20084   5.287   0.217   3.676  0.0478 -1.9947  2.7955
  176SAPS  H17S20085   5.120   0.155   3.641  0.4322  0.1804  1.0233
  176SAPS  C21820086   5.255   0.112   3.482 -0.2060 -0.2054  0.5411
  176SAPS  H18R20087   5.196   0.025   3.446 -0.7598  0.1400  0.5915
  176SAPS  H18S20088   5.364   0.101   3.463  0.0746  1.6449  0.8527
  176SAPS  C21920089   5.218   0.235   3.380  0.1847 -0.5260 -0.3439
  176SAPS  H19R20090   5.293   0.311   3.410  1.2162 -0.8637 -1.9027
  176SAPS  H19S20091   5.116   0.276   3.394  0.2497 -0.5943  0.3433
  176SAPS  C22020092   5.246   0.199   3.236 -0.2411  0.2153 -0.4383
  176SAPS  H20R20093   5.354   0.178   3.217 -0.4017 -0.9021 -0.1648
  176SAPS  H20S20094   5.211   0.278   3.166  1.4365 -0.0828 -1.6905
  176SAPS  H20T20095   5.200   0.100   3.217 -0.3745  0.4687 -1.5199
  176SAPS   C3320096   5.192   1.254   3.472  0.3131 -0.7011 -0.8668
  176SAPS   H3X20097   5.102   1.290   3.417  0.8402 -1.9245 -2.6095
  176SAPS   H3Y20098   5.251   1.346   3.493 -0.2417 -0.5790  0.2759
  176SAPS   C3420099   5.147   1.201   3.607 -0.5283 -0.1023 -0.2732
  176SAPS   H4X20100   5.240   1.167   3.658 -2.1790 -4.8554  0.1087
  176SAPS   H4Y20101   5.080   1.112   3.605  0.7463 -1.1117  0.4621
  176SAPS   C3520102   5.084   1.304   3.697 -0.2688  0.1700  0.4945
  176SAPS   H5X20103   5.010   1.347   3.625  1.3825 -0.0740 -1.4284
  176SAPS   H5Y20104   5.153   1.383   3.733 -1.2343  0.0850  2.7239
  176SAPS   C3620105   5.014   1.246   3.824 -0.3024  0.3362  0.3228
  176SAPS   H6X20106   4.931   1.174   3.813  0.4509 -0.4900 -0.0976
  176SAPS   H6Y20107   4.982   1.330   3.889  1.8092  0.5975  1.1113
  176SAPS   C3720108   5.116   1.166   3.904  0.6698  0.1558  0.0488
  176SAPS   H7X20109   5.185   1.242   3.947  1.1367  0.1462 -0.6766
  176SAPS   H7Y20110   5.166   1.087   3.844 -2.4951 -0.9591 -1.3234
  176SAPS   C3820111   5.046   1.098   4.022  0.3111 -0.3100  0.3272
  176SAPS   H8X20112   4.965   1.038   3.974 -0.3289  1.6577 -1.1433
  176SAPS   H8Y20113   4.989   1.170   4.085 -0.9882 -1.5549  0.6461
  176SAPS   C3920114   5.155   1.006   4.096 -0.4087  0.3324 -0.3547
  176SAPS   H9X20115   5.237   1.076   4.125 -1.4196  2.5265 -2.4715
  176SAPS   H9Y20116   5.196   0.930   4.027  2.1158  0.4550  0.8795
  176SAPS  C31020117   5.093   0.942   4.220  0.0813 -0.7816 -0.1080
  176SAPS  H10X20118   5.004   0.884   4.188 -2.3501  1.0621  2.7584
  176SAPS  H10Y20119   5.045   1.013   4.290 -1.5394 -3.1721  1.3727
  176SAPS  C31120120   5.179   0.850   4.299 -0.0274 -0.8079 -0.0776
  176SAPS  H11X20121   5.249   0.905   4.365 -1.1709 -1.7897  2.0553
  176SAPS  H11Y20122   5.238   0.799   4.219  0.1814  0.2818 -0.6444
  176SAPS  C31220123   5.103   0.757   4.392  0.3822 -0.0474 -0.5058
  176SAPS  H12X20124   5.037   0.689   4.334  0.9711  0.0785 -1.3421
  176SAPS  H12Y20125   5.045   0.825   4.459  2.3527  2.9039 -1.6166
  176SAPS  C31320126   5.179   0.654   4.477 -0.4592  0.2051 -0.3999
  176SAPS  H13X20127   5.123   0.564   4.508  0.2807 -0.4500 -0.9201
  176SAPS  H13Y20128   5.209   0.705   4.572  4.1235  1.4226 -2.2369
  176SAPS  C31420129   5.303   0.614   4.405 -1.0693 -0.0166  0.6634
  176SAPS  H14X20130   5.379   0.696   4.408  0.1003 -1.0099 -0.6508
  176SAPS  H14Y20131   5.288   0.569   4.304  0.9704  1.1296 -0.2275
  176SAPS  C31520132   5.373   0.488   4.470 -0.7895 -0.8655  0.4193
  176SAPS  H15X20133   5.305   0.400   4.471 -0.5280 -1.0688  0.3127
  176SAPS  H15Y20134   5.402   0.510   4.575 -3.2603 -2.0633  1.4338
  176SAPS  C31620135   5.489   0.436   4.380  0.2111 -0.2266 -0.0803
  176SAPS  H16X20136   5.461   0.465   4.277 -0.5523 -1.0405 -0.1203
  176SAPS  H16Y20137   5.494   0.325   4.380  1.5519 -0.2460 -2.7631
  176SAPS  C31720138   5.628   0.489   4.412 -0.0528 -0.6347 -0.2583
  176SAPS  H17X20139   5.658   0.448   4.511  4.5234 -0.3053 -1.2813
  176SAPS  H17Y20140   5.609   0.597   4.428 -2.5315 -0.6283 -2.5689
  176SAPS  C31820141   5.730   0.472   4.309 -0.7592  1.0910  0.6027
  176SAPS  H18X20142   5.813   0.544   4.326 -2.0284  2.8311 -0.2488
  176SAPS  H18Y20143   5.693   0.489   4.205 -0.0966  1.3367  0.3976
  176SAPS  H18Z20144   5.779   0.373   4.313 -0.7986  1.1086  1.8503
  177SAPS     N20145   0.157   4.102   2.545  0.2175 -0.0992 -0.3856
  177SAPS   HN120146   0.160   4.194   2.498 -0.9978 -1.1739 -2.7134
  177SAPS   HN220147   0.188   4.115   2.644 -0.6826 -0.5995 -0.0227
  177SAPS   HN320148   0.222   4.043   2.491  1.5579  1.6373 -0.7364
  177SAPS   C1220149   0.024   4.045   2.537  0.0601  0.2994  0.3164
  177SAPS  H12A20150  -0.045   4.113   2.585  1.8100  0.4425  2.8484
  177SAPS   C1320151  -0.028   4.022   2.393 -0.2140 -0.3561  0.2005
  177SAPS  O13A20152   0.055   4.037   2.298 -0.4882 -0.4153 -0.1988
  177SAPS  O13B20153  -0.144   3.975   2.382 -0.4472 -0.4792 -0.2929
  177SAPS   C1120154   0.012   3.910   2.619  0.7801  0.0308  0.4053
  177SAPS  H11A20155  -0.095   3.880   2.610  0.4417  1.6533 -1.5577
  177SAPS  H11B20156   0.023   3.930   2.727  2.6328  0.6056  0.1474
  177SAPS     P20157   0.221   3.759   2.655 -0.0973  0.1685  0.1682
  177SAPS   O1320158   0.304   3.662   2.577  0.3652 -0.5868  0.3297
  177SAPS   O1420159   0.292   3.867   2.731 -0.8735 -0.2561  0.0224
  177SAPS   O1220160   0.098   3.806   2.567 -0.1287 -0.4060  0.2995
  177SAPS   O1120161   0.141   3.670   2.755  0.0529  0.3194 -0.0187
  177SAPS    C120162   0.057   3.563   2.716 -0.0707  0.1309 -0.2284
  177SAPS    HA20163  -0.041   3.611   2.695 -0.9825 -1.2226  0.7811
  177SAPS    HB20164   0.098   3.515   2.625 -1.5415  0.1534 -0.9134
  177SAPS    C220165   0.035   3.446   2.819  0.3902  0.3169 -0.0280
  177SAPS    HS20166  -0.003   3.360   2.760  1.1027  1.7279 -2.7265
  177SAPS   O2120167  -0.048   3.489   2.930 -0.9056 -0.0119  0.0666
  177SAPS   C2120168  -0.176   3.495   2.892 -0.8238  0.0775 -0.8681
  177SAPS   O2220169  -0.224   3.444   2.791  0.1961 -0.2080  0.4332
  177SAPS   C2220170  -0.267   3.545   3.015 -0.0675  0.2549 -0.6628
  177SAPS   H2R20171  -0.306   3.453   3.064  1.2926 -0.3555 -0.6868
  177SAPS   H2S20172  -0.206   3.609   3.083 -0.6287  1.7415 -1.5162
  177SAPS    C320173   0.167   3.391   2.862 -0.5324 -0.0724 -0.2000
  177SAPS    HX20174   0.214   3.470   2.926  2.8056 -2.3805  0.4477
  177SAPS    HY20175   0.232   3.376   2.773 -1.0542 -1.0449 -0.4318
  177SAPS   O3120176   0.150   3.264   2.929  0.6081 -0.3480  0.5875
  177SAPS   C3120177   0.133   3.273   3.060  0.1161  0.1267  0.3391
  177SAPS   O3220178   0.134   3.378   3.123 -0.2293 -0.4264 -0.9148
  177SAPS   C3220179   0.081   3.142   3.115 -0.9531 -0.0946  0.0844
  177SAPS   H2X20180   0.149   3.062   3.077  0.8036  1.7421 -0.8812
  177SAPS   H2Y20181  -0.019   3.127   3.070 -1.0453  1.3385 -0.2400
  177SAPS   C2320182  -0.382   3.634   2.945 -0.4529  0.6253 -0.5517
  177SAPS   H3R20183  -0.455   3.574   2.887  0.5939 -1.3496  0.0634
  177SAPS   H3S20184  -0.332   3.709   2.880  1.6340 -0.0250  0.2310
  177SAPS   C2420185  -0.459   3.715   3.054  0.2478 -0.0786 -0.6962
  177SAPS   H4R20186  -0.518   3.794   3.002  1.7213  2.0261  0.6366
  177SAPS   H4S20187  -0.390   3.769   3.123  0.8261 -0.7296 -0.7552
  177SAPS   C2520188  -0.551   3.626   3.130  0.3310  0.0153  0.1681
  177SAPS   H5R20189  -0.637   3.601   3.065 -2.1400  1.6432  2.5897
  177SAPS   C2620190  -0.560   3.594   3.257 -0.1642 -0.1046  0.2546
  177SAPS   H6R20191  -0.641   3.527   3.291  1.6363 -1.9950  1.0689
  177SAPS   C2720192  -0.462   3.627   3.367  0.3690  0.4213 -0.1357
  177SAPS   H7R20193  -0.506   3.686   3.451  2.4987  1.1528  0.5309
  177SAPS   H7S20194  -0.385   3.698   3.331 -1.3100  1.7677 -1.2807
  177SAPS   C2820195  -0.407   3.497   3.423 -0.5492 -0.3879  0.2009
  177SAPS   H8R20196  -0.308   3.488   3.377  0.7797 -0.8344  2.9304
  177SAPS   C2920197  -0.448   3.416   3.522 -0.4322  0.2846 -0.0188
  177SAPS   H9R20198  -0.386   3.332   3.558 -0.8533  0.2803  0.7293
  177SAPS  C21020199  -0.575   3.435   3.593  0.5918 -0.0810 -0.4352
  177SAPS  H10R20200  -0.643   3.347   3.583  0.3918  0.1246 -0.8838
  177SAPS  H10S20201  -0.628   3.517   3.541  1.0539  1.8379  1.9453
  177SAPS  C21120202  -0.556   3.483   3.735  0.3054  0.4230 -0.5414
  177SAPS  H11R20203  -0.509   3.410   3.802 -0.4530  1.0272  0.6792
  177SAPS  C21220204  -0.611   3.591   3.794 -0.4774 -0.2695  0.1689
  177SAPS  H12R20205  -0.594   3.596   3.902  0.5601  0.5128 -0.0184
  177SAPS  C21320206  -0.694   3.695   3.731 -0.4681  0.1757  0.0460
  177SAPS  H13R20207  -0.800   3.664   3.729 -0.9524  1.1240  3.4236
  177SAPS  H13S20208  -0.650   3.701   3.629  1.0100 -0.6253  0.5964
  177SAPS  C21420209  -0.680   3.826   3.797 -0.6018 -0.3644 -0.0625
  177SAPS  H14R20210  -0.578   3.864   3.813 -1.2303  0.6378  1.9522
  177SAPS  C21520211  -0.772   3.906   3.851  0.0454  0.4674 -0.2112
  177SAPS  H15R20212  -0.739   4.003   3.890  1.8888  0.3236 -1.2919
  177SAPS  C21620213  -0.916   3.883   3.859 -0.7579 -0.5310 -0.3391
  177SAPS  H16R20214  -0.943   3.794   3.799 -2.2745  0.3005 -0.9519
  177SAPS  H16S20215  -0.972   3.963   3.806 -0.9647 -1.4219 -1.4977
  177SAPS  C21720216  -0.946   3.871   4.011 -0.9782  0.1135 -0.6816
  177SAPS  H17R20217  -0.877   3.794   4.053 -0.6956 -0.1967 -1.6963
  177SAPS  H17S20218  -1.045   3.822   4.018 -0.1585 -1.5215  0.0329
  177SAPS  C21820219  -0.933   4.008   4.097  0.3326  0.5319  0.5243
  177SAPS  H18R20220  -0.996   4.079   4.040 -0.3885  0.6166  1.4088
  177SAPS  H18S20221  -0.830   4.050   4.106  0.5107  1.0982 -2.8953
  177SAPS  C21920222  -0.986   4.001   4.242  0.1624 -0.0908 -0.0067
  177SAPS  H19R20223  -0.917   3.932   4.294 -1.9527 -2.7273 -0.5104
  177SAPS  H19S20224  -1.083   3.948   4.241  0.6571 -1.0271 -1.0994
  177SAPS  C22020225  -0.983   4.137   4.306  0.3207 -0.5759 -0.7718
  177SAPS  H20R20226  -1.028   4.121   4.406  0.6331 -1.7552 -0.8122
  177SAPS  H20S20227  -1.043   4.209   4.247  0.1647 -0.1942 -0.1652
  177SAPS  H20T20228  -0.880   4.179   4.304 -0.6193  1.8829 -2.0950
  177SAPS   C3320229   0.081   3.147   3.273 -0.1265 -0.1230  0.3164
  177SAPS   H3X20230   0.027   3.060   3.315 -0.4805 -1.5424 -2.7861
  177SAPS   H3Y20231   0.028   3.243   3.295  3.2165  1.9515  0.0300
  177SAPS   C3420232   0.226   3.137   3.330  0.3402 -0.5814 -0.0667
  177SAPS   H4X20233   0.282   3.197   3.255 -1.2028 -0.5163 -1.1870
  177SAPS   H4Y20234   0.269   3.034   3.329  0.6653 -0.4436 -0.9018
  177SAPS   C3520235   0.240   3.194   3.473  0.7162  0.0163  0.1982
  177SAPS   H5X20236   0.203   3.298   3.469 -0.5573 -0.3876  0.8331
  177SAPS   H5Y20237   0.350   3.194   3.495  1.2302 -1.0756 -2.1011
  177SAPS   C3620238   0.167   3.116   3.583 -0.3276 -0.0039  0.4351
  177SAPS   H6X20239   0.228   3.027   3.610  2.3769  0.7790 -2.5336
  177SAPS   H6Y20240   0.063   3.092   3.552 -0.5567  0.3194  0.9378
  177SAPS   C3720241   0.162   3.200   3.707 -0.0478 -0.2151  0.2682
  177SAPS   H7X20242   0.101   3.289   3.681  0.5456  0.1987  0.2742
  177SAPS   H7Y20243   0.265   3.240   3.723 -0.1868  0.4917 -0.5157
  177SAPS   C3820244   0.108   3.134   3.842  0.1962 -0.0110  0.5585
  177SAPS   H8X20245   0.112   3.202   3.929  1.7851  0.5397  0.0874
  177SAPS   H8Y20246   0.173   3.047   3.867  1.0082  0.7517  1.1760
  177SAPS   C3920247  -0.028   3.073   3.829  0.6677 -0.1148  0.0006
  177SAPS   H9X20248  -0.053   3.010   3.917  1.3209 -0.9357 -0.3893
  177SAPS   H9Y20249  -0.040   3.001   3.745  0.4027  0.5827 -0.5784
  177SAPS  C31020250  -0.131   3.189   3.822 -0.0001  0.1733 -0.0613
  177SAPS  H10X20251  -0.227   3.152   3.782 -0.1117 -0.4026  0.7202
  177SAPS  H10Y20252  -0.098   3.254   3.738 -1.3952 -0.8048 -1.4146
  177SAPS  C31120253  -0.138   3.273   3.955  0.1480 -0.3624 -0.3157
  177SAPS  H11X20254  -0.106   3.375   3.928 -0.5579  0.0997  0.5268
  177SAPS  H11Y20255  -0.064   3.240   4.030  1.1153 -1.0675 -1.5489
  177SAPS  C31220256  -0.278   3.269   4.019  0.6746 -0.5096  0.5948
  177SAPS  H12X20257  -0.349   3.262   3.934  1.1859  1.4120 -0.0443
  177SAPS  H12Y20258  -0.297   3.358   4.082  1.0333 -1.7413  2.5403
  177SAPS  C31320259  -0.306   3.159   4.113  0.1982 -0.3208  0.4416
  177SAPS  H13X20260  -0.223   3.148   4.186  1.0108 -1.7225 -0.6431
  177SAPS  H13Y20261  -0.319   3.064   4.056 -2.4052  0.7710 -0.9804
  177SAPS  C31420262  -0.436   3.162   4.196  0.4247 -0.6190  0.4880
  177SAPS  H14X20263  -0.464   3.062   4.235 -0.1400 -0.6062  0.1212
  177SAPS  H14Y20264  -0.520   3.193   4.131  0.8254  1.0373  0.7095
  177SAPS  C31520265  -0.433   3.273   4.312 -0.5558 -0.2407 -0.0591
  177SAPS  H15X20266  -0.454   3.374   4.269 -0.2237  0.4929  1.4314
  177SAPS  H15Y20267  -0.330   3.276   4.352 -0.3831  2.2727 -0.5248
  177SAPS  C31620268  -0.540   3.252   4.421  0.0258  0.0604 -0.0705
  177SAPS  H16X20269  -0.515   3.323   4.503  0.9808 -1.6025  1.1236
  177SAPS  H16Y20270  -0.536   3.147   4.455  2.2755 -0.2611 -1.0993
  177SAPS  C31720271  -0.683   3.269   4.367  0.5072  0.2746  0.0100
  177SAPS  H17X20272  -0.706   3.198   4.285  1.4942 -1.2130  0.9760
  177SAPS  H17Y20273  -0.691   3.371   4.322 -1.7828 -0.2555 -0.9274
  177SAPS  C31820274  -0.786   3.258   4.474  0.2387 -0.4306  0.3098
  177SAPS  H18X20275  -0.763   3.170   4.536  1.0888  1.4480  2.8282
  177SAPS  H18Y20276  -0.889   3.251   4.434 -0.4533 -1.9123  2.2250
  177SAPS  H18Z20277  -0.784   3.344   4.544 -0.2905  0.9405 -1.2861
  178SAPS     N20278   2.452   5.606   2.846  0.2762  0.2955  0.0176
  178SAPS   HN120279   2.551   5.583   2.869  0.1221  0.5756  1.0121
  178SAPS   HN220280   2.406   5.676   2.908  1.4366  0.5850  0.5750
  178SAPS   HN320281   2.396   5.518   2.839  0.7470  0.1022 -2.2097
  178SAPS   C1220282   2.436   5.658   2.709 -0.0859  0.1665  0.3097
  178SAPS  H12A20283   2.524   5.718   2.689 -0.5060  0.2621 -1.3737
  178SAPS   C1320284   2.436   5.544   2.612  0.1197 -0.4658  0.2947
  178SAPS  O13A20285   2.433   5.429   2.651  1.0813 -0.2833  0.2135
  178SAPS  O13B20286   2.442   5.563   2.485  0.5783  0.7455 -0.1328
  178SAPS   C1120287   2.304   5.727   2.689 -0.2677 -0.3937 -0.2580
  178SAPS  H11A20288   2.223   5.669   2.738  0.1284  0.0012  0.8799
  178SAPS  H11B20289   2.277   5.750   2.583  2.3408 -2.1356 -1.4205
  178SAPS     P20290   2.349   5.981   2.709  0.4574 -0.0546  0.0374
  178SAPS   O1320291   2.458   5.966   2.612  0.4903 -0.7383  0.2207
  178SAPS   O1420292   2.225   6.044   2.661 -0.3406 -0.1439  0.8910
  178SAPS   O1220293   2.298   5.844   2.774  0.4401 -0.0858  0.4152
  178SAPS   O1120294   2.410   6.051   2.834  0.2683 -0.1696 -0.0729
  178SAPS    C120295   2.499   5.974   2.925  0.0443 -0.5103  0.4228
  178SAPS    HA20296   2.494   5.866   2.903  0.8996 -0.2272 -1.3310
  178SAPS    HB20297   2.604   5.998   2.900  0.6088  0.2517  3.1276
  178SAPS    C220298   2.465   5.999   3.073 -0.7957  0.0793 -0.3453
  178SAPS    HS20299   2.523   5.919   3.125 -0.1577 -0.6204 -2.0503
  178SAPS   O2120300   2.329   5.963   3.101 -0.1330  0.0209 -0.5185
  178SAPS   C2120301   2.304   5.838   3.102  0.4590 -0.2071  0.0383
  178SAPS   O2220302   2.381   5.744   3.086  0.0954  0.2203 -0.0868
  178SAPS   C2220303   2.151   5.823   3.115 -1.2756 -0.7311 -0.4120
  178SAPS   H2R20304   2.115   5.886   3.030  0.9321  3.3260  1.3689
  178SAPS   H2S20305   2.128   5.714   3.118  2.7531 -1.7698  2.8796
  178SAPS    C320306   2.503   6.142   3.126  0.3549  0.0758  0.6243
  178SAPS    HX20307   2.417   6.203   3.089 -0.4305 -2.1222 -1.4447
  178SAPS    HY20308   2.600   6.173   3.082 -0.0089  1.7904  0.9475
  178SAPS   O3120309   2.502   6.146   3.274 -0.0440 -0.1510  0.5848
  178SAPS   C3120310   2.546   6.258   3.328  0.1708  0.1803 -0.5543
  178SAPS   O3220311   2.598   6.348   3.261 -0.1059  0.7213  0.3269
  178SAPS   C3220312   2.518   6.251   3.481  0.0116  0.0024 -0.3346
  178SAPS   H2X20313   2.586   6.178   3.529  2.2374  2.2612  0.1542
  178SAPS   H2Y20314   2.415   6.217   3.506  0.4947 -0.3703  1.2820
  178SAPS   C2320315   2.095   5.904   3.245  0.4093  0.9923  0.4362
  178SAPS   H3R20316   1.985   5.903   3.231  0.5169  2.5814 -0.8746
  178SAPS   H3S20317   2.129   6.009   3.231  0.4120  0.7350 -1.7037
  178SAPS   C2420318   2.132   5.835   3.377 -0.7220  0.0148  0.3645
  178SAPS   H4R20319   2.131   5.724   3.372  0.8384 -0.0044 -0.2233
  178SAPS   H4S20320   2.045   5.867   3.438 -2.4079 -2.2724 -0.6935
  178SAPS   C2520321   2.262   5.889   3.435 -0.5002 -0.2079  0.1646
  178SAPS   H5R20322   2.286   5.988   3.392 -1.5501  0.1976  0.4739
  178SAPS   C2620323   2.341   5.845   3.534  0.6111  0.5701 -0.5863
  178SAPS   H6R20324   2.411   5.917   3.579 -0.7178  1.9289 -0.5818
  178SAPS   C2720325   2.306   5.710   3.594  0.4739 -0.2296  0.7852
  178SAPS   H7R20326   2.402   5.673   3.635  1.2657  0.8979  0.0089
  178SAPS   H7S20327   2.286   5.631   3.518 -0.9628 -1.0954  2.0168
  178SAPS   C2820328   2.205   5.705   3.701  0.1494 -0.3925  0.6242
  178SAPS   H8R20329   2.108   5.666   3.665  0.1172 -0.5997  0.9259
  178SAPS   C2920330   2.229   5.720   3.836  0.1902  0.3521  0.3020
  178SAPS   H9R20331   2.141   5.706   3.901  0.3441 -3.1954 -0.0484
  178SAPS  C21020332   2.357   5.767   3.898  0.7025 -0.4899  0.8031
  178SAPS  H10R20333   2.375   5.874   3.873  1.3446 -0.9398 -0.7465
  178SAPS  H10S20334   2.449   5.724   3.855  0.8814 -0.4453  1.1387
  178SAPS  C21120335   2.363   5.741   4.045 -0.2060 -0.1532  1.3469
  178SAPS  H11R20336   2.428   5.654   4.064 -0.2195 -0.5132 -0.1456
  178SAPS  C21220337   2.294   5.786   4.149  1.1226 -0.2632 -0.1078
  178SAPS  H12R20338   2.314   5.757   4.253 -3.2000 -2.5665  0.3262
  178SAPS  C21320339   2.180   5.882   4.137  0.0647 -0.0313 -0.9929
  178SAPS  H13R20340   2.156   5.904   4.031  0.6774 -0.5614 -1.2525
  178SAPS  H13S20341   2.215   5.975   4.185 -0.8674 -0.3056  0.2726
  178SAPS  C21420342   2.055   5.838   4.201 -0.6482 -0.0259 -0.7493
  178SAPS  H14R20343   1.983   5.781   4.140 -2.2904 -1.0681  1.9579
  178SAPS  C21520344   2.028   5.858   4.332 -0.2203 -0.2870  0.0196
  178SAPS  H15R20345   1.934   5.814   4.367  0.6461 -0.7386  1.9476
  178SAPS  C21620346   2.109   5.916   4.441  0.5206 -0.2522 -0.2333
  178SAPS  H16R20347   2.067   6.019   4.449  0.3296 -0.4411  1.9145
  178SAPS  H16S20348   2.217   5.920   4.415  0.4886 -0.6730 -0.4267
  178SAPS  C21720349   2.099   5.841   4.578  0.3927 -0.1201 -0.5640
  178SAPS  H17R20350   2.128   5.736   4.558 -1.6331 -1.1241  1.4097
  178SAPS  H17S20351   1.995   5.842   4.616  1.6428  0.4660  3.3027
  178SAPS  C21820352   2.188   5.906   4.686  0.9079  0.5488 -0.4965
  178SAPS  H18R20353   2.184   6.017   4.694  0.8683  0.4646  0.8944
  178SAPS  H18S20354   2.294   5.878   4.673  0.3935 -2.2586  0.5764
  178SAPS  C21920355   2.157   5.840   4.821  0.3059  0.1921  0.4311
  178SAPS  H19R20356   2.198   5.737   4.818 -1.2240 -0.8595  5.6160
  178SAPS  H19S20357   2.050   5.831   4.850 -0.4038  1.5931 -1.5130
  178SAPS  C22020358   2.241   5.909   4.928  0.1965 -0.9845 -0.2541
  178SAPS  H20R20359   2.204   6.010   4.959 -3.5029 -1.2417 -3.0212
  178SAPS  H20S20360   2.349   5.917   4.906  0.3067  2.2384  0.9068
  178SAPS  H20T20361   2.242   5.847   5.020 -1.4580  1.5183  1.5961
  178SAPS   C3320362   2.546   6.384   3.556  0.3460 -0.1619  0.2254
  178SAPS   H3X20363   2.467   6.455   3.525  0.4125 -0.0440  0.3279
  178SAPS   H3Y20364   2.641   6.430   3.523  0.5107 -0.7433 -0.1371
  178SAPS   C3420365   2.557   6.353   3.705 -0.3458  0.3315 -0.4347
  178SAPS   H4X20366   2.649   6.295   3.727 -0.6652 -0.2662 -0.6311
  178SAPS   H4Y20367   2.476   6.289   3.748  1.3025 -0.4523  1.6215
  178SAPS   C3520368   2.556   6.486   3.796  0.2005 -0.4747 -0.0678
  178SAPS   H5X20369   2.467   6.549   3.776  0.3662 -0.2630 -0.1347
  178SAPS   H5Y20370   2.637   6.556   3.767 -1.7610  2.2191  0.5528
  178SAPS   C3620371   2.537   6.449   3.947 -0.1215 -0.4633  0.2578
  178SAPS   H6X20372   2.601   6.368   3.989  1.3748 -0.2832 -1.5212
  178SAPS   H6Y20373   2.429   6.430   3.959 -0.7060  0.8589 -2.2733
  178SAPS   C3720374   2.579   6.578   4.025 -0.5421  0.4013 -0.4428
  178SAPS   H7X20375   2.587   6.663   3.954  0.0737  0.6352 -0.1005
  178SAPS   H7Y20376   2.678   6.564   4.074 -0.4003  1.3401 -0.4425
  178SAPS   C3820377   2.481   6.605   4.139 -0.1836  0.1257 -0.1000
  178SAPS   H8X20378   2.443   6.515   4.192 -0.9009 -1.4281 -3.0199
  178SAPS   H8Y20379   2.392   6.634   4.079  0.8616 -0.3692 -1.9926
  178SAPS   C3920380   2.532   6.718   4.228  0.0095 -0.4146  0.1508
  178SAPS   H9X20381   2.576   6.798   4.163 -1.1709  0.1661  0.0352
  178SAPS   H9Y20382   2.605   6.674   4.299  3.0015  3.7021  0.0333
  178SAPS  C31020383   2.421   6.792   4.308  0.5550 -0.4661 -0.2894
  178SAPS  H10X20384   2.460   6.857   4.390 -2.7769  0.7362  0.4964
  178SAPS  H10Y20385   2.364   6.714   4.362 -0.3555  0.9250  0.8169
  178SAPS  C31120386   2.336   6.887   4.221  0.2253  0.2473  0.1161
  178SAPS  H11X20387   2.287   6.837   4.135 -0.6907  4.0493 -1.7805
  178SAPS  H11Y20388   2.401   6.965   4.176  0.4394 -1.0598 -1.9908
  178SAPS  C31220389   2.217   6.946   4.301 -0.3483 -0.0755 -0.6752
  178SAPS  H12X20390   2.255   6.986   4.397 -3.5605 -3.7075  2.4739
  178SAPS  H12Y20391   2.148   6.867   4.339  1.1281  0.0141  2.5189
  178SAPS  C31320392   2.126   7.043   4.228 -0.0323 -0.7448  0.4792
  178SAPS  H13X20393   2.078   6.991   4.142 -3.7324 -0.6907  2.3122
  178SAPS  H13Y20394   2.181   7.132   4.190 -0.1517 -0.8709  0.0016
  178SAPS  C31420395   2.018   7.118   4.311 -0.4293 -0.6242 -0.7430
  178SAPS  H14X20396   1.981   7.200   4.246 -1.3156  0.3985  0.9744
  178SAPS  H14Y20397   2.064   7.176   4.395  0.7773  0.4701 -2.1103
  178SAPS  C31520398   1.904   7.027   4.343 -0.6990 -0.6660  1.0747
  178SAPS  H15X20399   1.926   6.950   4.420 -1.0346 -0.3708  1.4706
  178SAPS  H15Y20400   1.866   6.977   4.252 -2.2352  2.5765 -0.1795
  178SAPS  C31620401   1.784   7.097   4.401 -0.3523 -0.3883 -0.2268
  178SAPS  H16X20402   1.818   7.147   4.494 -0.3609  1.3865 -1.1449
  178SAPS  H16Y20403   1.702   7.028   4.431  0.7710 -1.6040  0.1684
  178SAPS  C31720404   1.726   7.206   4.304 -0.2153 -0.0953  0.1649
  178SAPS  H17X20405   1.728   7.163   4.202  0.7732 -0.5642  0.3682
  178SAPS  H17Y20406   1.778   7.303   4.323  0.5173 -0.6581  1.1551
  178SAPS  C31820407   1.579   7.235   4.326 -0.4107  0.1370 -0.2920
  178SAPS  H18X20408   1.515   7.149   4.296 -1.9541  0.8251  0.8902
  178SAPS  H18Y20409   1.563   7.321   4.258 -0.9011 -0.0964 -0.4717
  178SAPS  H18Z20410   1.547   7.275   4.425  0.2904 -0.4689  0.1923
  179SAPS     N20411   3.456   0.879   2.298  0.1121  0.1445  0.8291
  179SAPS   HN120412   3.553   0.851   2.274 -0.0806 -0.4510  0.7184
  179SAPS   HN220413   3.469   0.889   2.400  0.1389  0.3094  0.8094
  179SAPS   HN320414   3.388   0.805   2.271 -1.2264  1.5082  0.2783
  179SAPS   C1220415   3.399   1.012   2.235 -0.0191  0.3205 -0.9611
  179SAPS  H12A20416   3.403   1.004   2.128  1.6651 -1.9687 -0.7973
  179SAPS   C1320417   3.248   1.029   2.266 -0.0794 -0.6659  0.1161
  179SAPS  O13A20418   3.177   0.930   2.275  0.2980 -0.8210 -0.1592
  179SAPS  O13B20419   3.200   1.141   2.235  0.0826  0.5411  0.1019
  179SAPS   C1120420   3.491   1.127   2.284 -0.3619  0.3910 -0.2932
  179SAPS  H11A20421   3.482   1.154   2.392  1.8158 -1.1945  0.3560
  179SAPS  H11B20422   3.457   1.208   2.215 -0.1877  0.7688  0.0619
  179SAPS     P20423   3.742   1.181   2.307  0.2366 -0.2734 -0.3296
  179SAPS   O1320424   3.868   1.136   2.248 -0.2583  0.0049 -0.1203
  179SAPS   O1420425   3.702   1.325   2.297 -0.5302  0.0069 -0.0617
  179SAPS   O1220426   3.626   1.094   2.253  0.3645  0.1362 -0.3330
  179SAPS   O1120427   3.742   1.144   2.463  0.2953 -0.0044  0.4448
  179SAPS    C120428   3.774   1.011   2.513 -1.0491  0.0480  0.9024
  179SAPS    HA20429   3.679   0.954   2.527 -1.5642 -0.0137 -2.0807
  179SAPS    HB20430   3.830   0.948   2.441  1.4059  1.2575  1.6648
  179SAPS    C220431   3.866   1.015   2.635 -0.2829 -0.4084 -0.1657
  179SAPS    HS20432   3.909   0.916   2.661  1.1823  0.2987  0.2100
  179SAPS   O2120433   3.796   1.061   2.751  0.1251  0.1394 -0.2403
  179SAPS   C2120434   3.740   0.963   2.821 -0.2956 -0.7329 -0.8055
  179SAPS   O2220435   3.749   0.849   2.801  0.0968  0.6173 -0.5701
  179SAPS   C2220436   3.667   1.027   2.936 -0.3455  0.5740 -0.6173
  179SAPS   H2R20437   3.744   1.091   2.985 -0.5872  0.8452 -0.5869
  179SAPS   H2S20438   3.586   1.081   2.881 -1.0741 -1.7419 -1.9391
  179SAPS    C320439   3.986   1.108   2.613  0.1274  0.5192 -0.6590
  179SAPS    HX20440   3.947   1.211   2.597 -1.9628  0.4437  2.9218
  179SAPS    HY20441   4.043   1.080   2.522 -1.3371  2.0139 -2.1061
  179SAPS   O3120442   4.072   1.107   2.727  0.3689  0.1969 -0.0701
  179SAPS   C3120443   4.155   1.206   2.744 -0.0116 -0.6026 -0.2643
  179SAPS   O3220444   4.182   1.294   2.661 -0.2260 -0.0461 -0.2212
  179SAPS   C3220445   4.220   1.202   2.887  0.3234  0.7967 -0.1451
  179SAPS   H2X20446   4.327   1.222   2.866  0.9301  1.7329  3.2514
  179SAPS   H2Y20447   4.223   1.100   2.932  0.1918  2.2628  3.5197
  179SAPS   C2320448   3.606   0.936   3.044 -0.1030  0.5377 -0.4345
  179SAPS   H3R20449   3.664   0.844   3.066 -0.2352  0.7688  0.9947
  179SAPS   H3S20450   3.511   0.905   2.995  0.7989 -1.6397 -0.9101
  179SAPS   C2420451   3.589   0.999   3.188  0.1493 -0.4339  0.3771
  179SAPS   H4R20452   3.655   1.088   3.192 -0.7514  0.2378  0.5639
  179SAPS   H4S20453   3.635   0.922   3.254  2.3809 -0.7498 -1.4240
  179SAPS   C2520454   3.443   1.022   3.231  0.2333  0.1325  0.0480
  179SAPS   H5R20455   3.384   1.082   3.160 -0.2765 -3.9251 -3.3141
  179SAPS   C2620456   3.385   0.992   3.357  0.1368  0.6636  0.6896
  179SAPS   H6R20457   3.279   1.008   3.380  0.1916  0.0412  1.4020
  179SAPS   C2720458   3.455   0.898   3.460 -0.0161 -0.1560 -0.2720
  179SAPS   H7R20459   3.535   0.955   3.513  1.0040 -0.5127 -1.3584
  179SAPS   H7S20460   3.506   0.817   3.404  2.0557  0.5508  0.5026
  179SAPS   C2820461   3.359   0.833   3.561 -0.2227 -0.4198 -0.0161
  179SAPS   H8R20462   3.343   0.729   3.532 -0.4268 -0.0179 -1.3805
  179SAPS   C2920463   3.290   0.882   3.666 -0.1845  0.6755 -0.1533
  179SAPS   H9R20464   3.229   0.829   3.741  1.0920 -0.4456  0.1353
  179SAPS  C21020465   3.298   1.025   3.701 -0.2521  0.1432  0.8221
  179SAPS  H10R20466   3.304   1.080   3.604  2.1156 -2.1759 -0.4810
  179SAPS  H10S20467   3.396   1.051   3.746  0.0906 -0.6904  0.5666
  179SAPS  C21120468   3.176   1.091   3.769  0.0984 -0.9767  0.1090
  179SAPS  H11R20469   3.102   1.129   3.697 -0.6667 -0.8170  0.9619
  179SAPS  C21220470   3.180   1.127   3.901 -0.3445 -0.1795 -0.3907
  179SAPS  H12R20471   3.103   1.187   3.952  1.2580 -0.3035  2.3355
  179SAPS  C21320472   3.294   1.069   3.989  0.0878  0.0544  0.0452
  179SAPS  H13R20473   3.390   1.081   3.934 -0.7420  1.6572 -1.1771
  179SAPS  H13S20474   3.275   0.961   4.006 -0.7417 -0.0287 -1.2391
  179SAPS  C21420475   3.295   1.140   4.119 -0.4100 -0.7063  0.3661
  179SAPS  H14R20476   3.284   1.249   4.110  0.8691 -0.6722 -1.5574
  179SAPS  C21520477   3.306   1.084   4.243  0.3573 -0.1209  0.1151
  179SAPS  H15R20478   3.286   1.149   4.329 -0.4156 -0.7724  0.4450
  179SAPS  C21620479   3.326   0.937   4.272  0.1302  0.3082 -0.3408
  179SAPS  H16R20480   3.251   0.877   4.217  1.3133 -0.7152 -0.8720
  179SAPS  H16S20481   3.300   0.918   4.379  1.1290 -2.5165 -0.5081
  179SAPS  C21720482   3.467   0.884   4.244  0.0762 -0.5988  0.0395
  179SAPS  H17R20483   3.511   0.902   4.143  1.3241 -1.3244  0.4345
  179SAPS  H17S20484   3.465   0.774   4.261  2.3153 -0.2529  3.6545
  179SAPS  C21820485   3.569   0.939   4.350  0.4821  0.1652  0.3523
  179SAPS  H18R20486   3.535   0.902   4.449  1.0537  2.2666  1.3953
  179SAPS  H18S20487   3.568   1.050   4.354 -0.7437  0.1104  2.4289
  179SAPS  C21920488   3.711   0.887   4.315 -0.2259 -0.4941  0.4296
  179SAPS  H19R20489   3.766   0.971   4.267 -0.9749 -0.4419 -0.3634
  179SAPS  H19S20490   3.711   0.806   4.238 -0.6283 -0.2532  0.1716
  179SAPS  C22020491   3.795   0.850   4.441 -0.1423  0.0981 -1.0230
  179SAPS  H20R20492   3.890   0.806   4.402 -0.4894  0.5845 -2.4817
  179SAPS  H20S20493   3.731   0.787   4.506  1.4748  0.1298  0.6630
  179SAPS  H20T20494   3.819   0.944   4.494  2.1532 -0.4262 -1.0273
  179SAPS   C3320495   4.166   1.303   2.994  0.2825 -0.2428 -0.3037
  179SAPS   H3X20496   4.057   1.288   3.010  0.6186  0.0439  2.7998
  179SAPS   H3Y20497   4.186   1.404   2.952  2.2112  0.7528  2.6646
  179SAPS   C3420498   4.223   1.287   3.136  0.0688 -0.1282 -0.5880
  179SAPS   H4X20499   4.332   1.305   3.140  0.1982 -0.8497 -0.8344
  179SAPS   H4Y20500   4.211   1.184   3.175  1.6056 -0.5305 -1.1340
  179SAPS   C3520501   4.157   1.396   3.233 -0.2429  0.3647 -1.3473
  179SAPS   H5X20502   4.047   1.411   3.239 -0.0553  1.1637  0.7143
  179SAPS   H5Y20503   4.207   1.489   3.201  2.6706 -0.0520  1.5746
  179SAPS   C3620504   4.203   1.370   3.379  0.9205 -0.4379 -0.7671
  179SAPS   H6X20505   4.311   1.347   3.379  0.9922 -0.1041 -0.9407
  179SAPS   H6Y20506   4.149   1.277   3.409 -1.2059  0.0467 -2.7687
  179SAPS   C3720507   4.157   1.492   3.469 -0.7548  0.2788 -0.0663
  179SAPS   H7X20508   4.053   1.513   3.437 -0.0869  0.3628 -2.4487
  179SAPS   H7Y20509   4.227   1.576   3.447 -1.2671  1.2008  1.6983
  179SAPS   C3820510   4.176   1.476   3.620  0.3250 -0.4139 -0.1796
  179SAPS   H8X20511   4.141   1.561   3.682 -1.4433 -1.9736  1.1094
  179SAPS   H8Y20512   4.286   1.480   3.628  0.3166 -1.1751  0.3909
  179SAPS   C3920513   4.137   1.338   3.673 -0.0451 -0.2884  0.2765
  179SAPS   H9X20514   4.208   1.260   3.639  0.4685  0.1697  0.2772
  179SAPS   H9Y20515   4.033   1.314   3.640 -0.7548  2.1865  0.5070
  179SAPS  C31020516   4.123   1.332   3.825  0.4196  0.2888 -0.3268
  179SAPS  H10X20517   4.203   1.390   3.874 -1.1963  2.2699  0.0820
  179SAPS  H10Y20518   4.146   1.225   3.844 -0.7236 -0.2629 -1.7992
  179SAPS  C31120519   3.983   1.370   3.872 -0.1250  0.2122  0.1048
  179SAPS  H11X20520   3.910   1.332   3.797 -0.5232  0.9013  0.1351
  179SAPS  H11Y20521   3.975   1.481   3.871 -0.7551  0.1922  1.0819
  179SAPS  C31220522   3.964   1.317   4.014 -0.0271  0.3476  0.3067
  179SAPS  H12X20523   4.035   1.365   4.085 -2.3629  1.4580  2.0112
  179SAPS  H12Y20524   3.987   1.209   4.028  1.2097  0.7813  1.8154
  179SAPS  C31320525   3.820   1.338   4.057 -0.0184  0.4767  0.2829
  179SAPS  H13X20526   3.751   1.327   3.971 -0.1972 -1.2314  0.6094
  179SAPS  H13Y20527   3.803   1.445   4.082  1.2600  0.5785  0.8315
  179SAPS  C31420528   3.776   1.244   4.172 -0.3414  0.3418  0.0110
  179SAPS  H14X20529   3.802   1.144   4.130  0.1700  0.2428  0.5438
  179SAPS  H14Y20530   3.665   1.247   4.179 -0.3631  0.2708 -0.2841
  179SAPS  C31520531   3.853   1.287   4.309  0.3201  0.9207 -0.3340
  179SAPS  H15X20532   3.783   1.279   4.395  1.3879  3.3632  0.8729
  179SAPS  H15Y20533   3.861   1.398   4.298  1.3908  0.7638 -1.3676
  179SAPS  C31620534   3.988   1.216   4.329  1.0745 -0.1020 -0.3395
  179SAPS  H16X20535   4.042   1.215   4.232 -1.0957 -0.2430 -1.6170
  179SAPS  H16Y20536   3.975   1.108   4.352  0.2293  0.0025 -0.2978
  179SAPS  C31720537   4.079   1.278   4.444  0.0317 -0.0678  0.3395
  179SAPS  H17X20538   4.047   1.234   4.541  1.1639 -0.1601  0.6812
  179SAPS  H17Y20539   4.059   1.385   4.465  2.7091  0.8421 -1.2947
  179SAPS  C31820540   4.226   1.245   4.442 -0.5335  0.4422 -0.1620
  179SAPS  H18X20541   4.271   1.279   4.538 -2.7461  2.5512  0.2571
  179SAPS  H18Y20542   4.276   1.297   4.358 -0.6755 -1.6301 -1.5686
  179SAPS  H18Z20543   4.243   1.136   4.433 -0.8521  0.5862 -3.6508
  180SAPS     N20544   0.923   0.555   2.410 -0.4135 -0.1096  0.2290
  180SAPS   HN120545   0.830   0.510   2.421 -1.6017  2.1821  0.1845
  180SAPS   HN220546   0.929   0.647   2.459  0.5959 -0.5481  0.9551
  180SAPS   HN320547   0.931   0.563   2.307 -5.6136  0.5062 -0.3782
  180SAPS   C1220548   1.040   0.472   2.471 -0.0883  0.8935 -0.1292
  180SAPS  H12A20549   1.055   0.375   2.427 -1.7681 -0.6439  2.4116
  180SAPS   C1320550   1.180   0.548   2.463 -0.2314 -0.0116 -0.2760
  180SAPS  O13A20551   1.201   0.659   2.401  0.2100  0.0847  0.4444
  180SAPS  O13B20552   1.272   0.487   2.513 -0.3065  0.6426  0.3112
  180SAPS   C1120553   0.998   0.454   2.620  0.2490 -0.4297 -0.8333
  180SAPS  H11A20554   1.001   0.555   2.668  0.6452 -0.3930 -0.9356
  180SAPS  H11B20555   1.078   0.392   2.666 -2.0565 -0.2365  4.1467
  180SAPS     P20556   0.758   0.446   2.737 -0.1604  0.0730 -0.0333
  180SAPS   O1320557   0.761   0.594   2.744  0.7930 -0.0104 -0.0458
  180SAPS   O1420558   0.626   0.379   2.714 -0.2831  0.0825  0.3896
  180SAPS   O1220559   0.873   0.386   2.636  0.0428  0.6693 -0.5481
  180SAPS   O1120560   0.809   0.403   2.884  0.5798 -0.0864  0.1040
  180SAPS    C120561   0.883   0.287   2.904 -0.1435 -0.5324 -0.5001
  180SAPS    HA20562   0.957   0.262   2.825 -1.2624 -0.4464 -1.6057
  180SAPS    HB20563   0.943   0.290   2.997 -1.8614 -0.8871  0.6671
  180SAPS    C220564   0.797   0.159   2.932  0.0402  0.1239  0.1849
  180SAPS    HS20565   0.778   0.121   2.829 -0.1000  3.2334 -1.0433
  180SAPS   O2120566   0.676   0.197   2.989  0.1094 -0.0378  0.2301
  180SAPS   C2120567   0.566   0.111   2.984 -0.2008 -0.7649 -0.0419
  180SAPS   O2220568   0.567   0.009   2.911  0.3684 -0.6654 -0.0794
  180SAPS   C2220569   0.452   0.166   3.068 -0.3770 -0.9751  0.2329
  180SAPS   H2R20570   0.483   0.261   3.117  1.7831 -0.6981 -1.5258
  180SAPS   H2S20571   0.377   0.185   2.987 -0.0449 -1.1001 -0.1073
  180SAPS    C320572   0.874   0.046   3.018  0.2403  0.1635 -0.3447
  180SAPS    HX20573   0.958   0.018   2.951 -1.2337 -0.1126 -2.1749
  180SAPS    HY20574   0.806  -0.039   3.038  1.2083 -0.3405  0.9127
  180SAPS   O3120575   0.930   0.102   3.139  0.0433  0.1446  0.3458
  180SAPS   C3120576   0.848   0.100   3.240  0.4417 -0.5247 -0.2089
  180SAPS   O3220577   0.743   0.043   3.255  0.1778  0.4077  0.5497
  180SAPS   C3220578   0.918   0.170   3.357  0.1661  0.2552  0.1620
  180SAPS   H2X20579   0.908   0.275   3.322 -2.1568 -0.8029 -2.8460
  180SAPS   H2Y20580   1.027   0.152   3.366  0.1498 -0.8129 -1.4387
  180SAPS   C2320581   0.397   0.063   3.167  0.6400 -0.5219 -0.3693
  180SAPS   H3R20582   0.472   0.011   3.229  1.1204 -1.3929 -1.6380
  180SAPS   H3S20583   0.327  -0.017   3.134  0.0350 -0.7348  1.3410
  180SAPS   C2420584   0.296   0.136   3.266 -0.3050 -0.5263  0.0851
  180SAPS   H4R20585   0.230   0.056   3.305 -0.1585  0.2174  1.9632
  180SAPS   H4S20586   0.230   0.202   3.206 -0.6393 -0.6999  0.2599
  180SAPS   C2520587   0.359   0.215   3.381  0.4679 -0.4839  0.5325
  180SAPS   H5R20588   0.417   0.303   3.351  0.8809 -1.0272 -0.3256
  180SAPS   C2620589   0.334   0.199   3.510 -0.4624 -0.2580  0.1522
  180SAPS   H6R20590   0.377   0.277   3.574 -1.4076  1.2715 -0.9962
  180SAPS   C2720591   0.246   0.099   3.580 -0.4130 -0.2886 -0.4632
  180SAPS   H7R20592   0.140   0.108   3.548 -1.1210  3.5904  2.2229
  180SAPS   H7S20593   0.241   0.124   3.688 -1.5726  1.2458 -0.8340
  180SAPS   C2820594   0.264  -0.054   3.580 -0.2362 -1.1245 -0.6849
  180SAPS   H8R20595   0.216  -0.110   3.498 -1.6479  0.9598 -1.3634
  180SAPS   C2920596   0.350  -0.119   3.663 -0.0448  0.4721  0.5743
  180SAPS   H9R20597   0.358  -0.227   3.646  1.0201  0.8539 -1.6868
  180SAPS  C21020598   0.423  -0.069   3.786  0.1032  0.2772 -0.4781
  180SAPS  H10R20599   0.453   0.038   3.776  2.0265  0.1083  2.2936
  180SAPS  H10S20600   0.515  -0.132   3.789  0.6112  0.7273 -3.5880
  180SAPS  C21120601   0.323  -0.067   3.909 -0.2642 -0.9784  0.5052
  180SAPS  H11R20602   0.237   0.001   3.905  1.2735  1.0937  1.1120
  180SAPS  C21220603   0.336  -0.148   4.010  0.2023 -0.2776  0.3338
  180SAPS  H12R20604   0.256  -0.140   4.084 -0.8957  3.6561 -1.0363
  180SAPS  C21320605   0.448  -0.250   4.040  0.4180 -0.3965  0.5692
  180SAPS  H13R20606   0.534  -0.188   4.074  1.1086 -1.2896  0.4877
  180SAPS  H13S20607   0.473  -0.302   3.945  0.6279 -0.6899  0.7823
  180SAPS  C21420608   0.416  -0.346   4.150 -0.0685  0.4125 -0.3552
  180SAPS  H14R20609   0.348  -0.419   4.105  0.7412  1.4056 -3.4438
  180SAPS  C21520610   0.434  -0.329   4.282  0.2472 -0.3200  0.1588
  180SAPS  H15R20611   0.408  -0.413   4.348  1.2308 -0.7443  0.0294
  180SAPS  C21620612   0.497  -0.211   4.359 -0.1300  0.3093 -0.2267
  180SAPS  H16R20613   0.553  -0.144   4.291  1.1465  0.6869  1.1734
  180SAPS  H16S20614   0.565  -0.241   4.441 -1.6621  0.8048  1.3003
  180SAPS  C21720615   0.404  -0.120   4.437  0.1299 -0.8225 -0.4474
  180SAPS  H17R20616   0.329  -0.075   4.368  0.3195 -2.1384 -1.5590
  180SAPS  H17S20617   0.475  -0.041   4.468 -1.8223  1.3192 -1.1648
  180SAPS  C21820618   0.335  -0.187   4.560 -0.3126 -0.3214  0.3180
  180SAPS  H18R20619   0.407  -0.236   4.629  0.5294  1.2492  0.6023
  180SAPS  H18S20620   0.269  -0.267   4.520  0.7162 -0.6078 -0.8669
  180SAPS  C21920621   0.254  -0.084   4.645  0.5852  0.9581  0.2981
  180SAPS  H19R20622   0.186  -0.033   4.574  0.8693 -0.5867 -1.1453
  180SAPS  H19S20623   0.310   0.004   4.685 -0.5584  2.1093 -0.5589
  180SAPS  C22020624   0.174  -0.144   4.766 -0.8366  0.0055 -0.2024
  180SAPS  H20R20625   0.104  -0.069   4.809 -0.6508 -0.3527  0.7543
  180SAPS  H20S20626   0.121  -0.237   4.739  0.6235 -0.7444 -0.5885
  180SAPS  H20T20627   0.250  -0.173   4.842  0.4525  0.7535 -1.1598
  180SAPS   C3320628   0.854   0.139   3.495  0.2518  0.5953  0.6624
  180SAPS   H3X20629   0.852   0.028   3.501 -0.2468  0.6286  1.2493
  180SAPS   H3Y20630   0.747   0.169   3.491 -0.3986 -1.6181 -0.5921
  180SAPS   C3420631   0.919   0.203   3.609 -0.3823  0.8344 -0.0402
  180SAPS   H4X20632   0.927   0.314   3.602  2.2458  0.7636  0.8022
  180SAPS   H4Y20633   1.024   0.166   3.612 -0.7445 -0.2920 -0.7470
  180SAPS   C3520634   0.853   0.183   3.747 -0.4484 -0.0615  0.0481
  180SAPS   H5X20635   0.753   0.228   3.730 -0.5908 -1.3261 -3.1647
  180SAPS   H5Y20636   0.912   0.250   3.813  0.1255  0.2361 -0.7394
  180SAPS   C3620637   0.839   0.038   3.796 -0.3126 -0.0317 -0.6092
  180SAPS   H6X20638   0.940  -0.008   3.804 -0.9676 -1.2319  1.5930
  180SAPS   H6Y20639   0.779  -0.021   3.723 -3.7012 -0.0755  1.9375
  180SAPS   C3720640   0.759   0.027   3.922  0.2469 -0.3987 -0.4075
  180SAPS   H7X20641   0.719  -0.074   3.947 -1.5991  0.6444  1.1730
  180SAPS   H7Y20642   0.666   0.086   3.907  0.8842  0.3696 -1.4695
  180SAPS   C3820643   0.832   0.088   4.047  0.2977  0.4785  0.8502
  180SAPS   H8X20644   0.833   0.199   4.042  0.7074  0.4478  0.2174
  180SAPS   H8Y20645   0.939   0.058   4.048  0.6737  1.7620  0.0775
  180SAPS   C3920646   0.771   0.041   4.182 -0.9689  0.3899 -1.2024
  180SAPS   H9X20647   0.789  -0.069   4.182  1.4550  0.6967  0.4535
  180SAPS   H9Y20648   0.660   0.040   4.179 -1.0732 -2.4179  0.1048
  180SAPS  C31020649   0.833   0.105   4.304  0.2238  0.0908 -0.0998
  180SAPS  H10X20650   0.799   0.211   4.302  1.4549  0.5509 -3.0704
  180SAPS  H10Y20651   0.944   0.102   4.316  0.1534 -1.5784  0.2656
  180SAPS  C31120652   0.775   0.044   4.432  0.7140 -0.1197  0.0750
  180SAPS  H11X20653   0.780  -0.066   4.416 -0.7440 -0.1309 -0.5329
  180SAPS  H11Y20654   0.666   0.063   4.447 -0.0339 -1.7940 -2.4022
  180SAPS  C31220655   0.840   0.073   4.571  0.0718  0.0515  0.1111
  180SAPS  H12X20656   0.811   0.175   4.605  1.4425 -0.3185  2.6417
  180SAPS  H12Y20657   0.951   0.084   4.574 -0.0828  1.9551  0.1684
  180SAPS  C31320658   0.796  -0.023   4.679 -0.2458 -0.2370 -0.9752
  180SAPS  H13X20659   0.842  -0.122   4.661  3.3950  1.4831 -2.0662
  180SAPS  H13Y20660   0.685  -0.028   4.690 -0.2008  0.7104  0.2515
  180SAPS  C31420661   0.841   0.029   4.816 -0.5254  0.0876  0.1271
  180SAPS  H14X20662   0.781   0.117   4.847 -2.4784 -1.6480  1.6351
  180SAPS  H14Y20663   0.946   0.064   4.809 -0.7854  0.7573 -0.4812
  180SAPS  C31520664   0.821  -0.075   4.927 -0.0416 -0.0936 -0.4924
  180SAPS  H15X20665   0.887  -0.164   4.913  0.1051 -0.1778  0.6377
  180SAPS  H15Y20666   0.717  -0.114   4.929  0.3060 -1.0566 -0.5320
  180SAPS  C31620667   0.861  -0.022   5.070  0.5494 -0.6440  1.5665
  180SAPS  H16X20668   0.785   0.054   5.098  1.4690  1.2105 -0.5594
  180SAPS  H16Y20669   0.959   0.029   5.058 -0.0103  0.2041  0.3743
  180SAPS  C31720670   0.872  -0.137   5.172  0.1129 -0.4491 -0.0369
  180SAPS  H17X20671   0.960  -0.199   5.144  3.0780  1.8697  3.2013
  180SAPS  H17Y20672   0.775  -0.189   5.182 -1.1673  1.9821  1.0179
  180SAPS  C31820673   0.903  -0.089   5.314 -0.9347  0.0203  0.0902
  180SAPS  H18X20674   0.925  -0.172   5.385 -0.8137 -0.5362 -0.5884
  180SAPS  H18Y20675   0.811  -0.043   5.356  0.0909  2.4818 -0.1772
  180SAPS  H18Z20676   0.979  -0.008   5.311 -2.6654  1.6890 -0.8720
  181POPC     N20677   1.593   2.837   7.382 -0.5329 -0.2215 -0.1157
  181POPC   C1220678   1.594   2.869   7.225 -0.7712  0.6839 -0.6458
  181POPC  H12A20679   1.614   2.777   7.171 -0.1248  1.2256 -1.3443
  181POPC  H12B20680   1.659   2.954   7.215 -0.6213  1.6282  5.0729
  181POPC   C1320681   1.709   2.755   7.419  0.2185 -0.3699 -0.2753
  181POPC  H13A20682   1.703   2.710   7.517 -0.0594  1.4318  0.5848
  181POPC  H13B20683   1.717   2.672   7.351  0.3985 -1.0306  0.5328
  181POPC  H13C20684   1.804   2.807   7.411  1.2406 -1.9868  0.7220
  181POPC   C1420685   1.589   2.962   7.467 -0.2320 -0.5069  0.3147
  181POPC  H14A20686   1.681   3.017   7.448 -0.5249 -0.1477 -0.0809
  181POPC  H14B20687   1.503   3.024   7.448  1.4490  1.9614  0.1616
  181POPC  H14C20688   1.585   2.938   7.572  0.9997 -0.0513  0.4913
  181POPC   C1520689   1.471   2.757   7.412 -0.0573 -0.1026  0.2250
  181POPC  H15A20690   1.387   2.807   7.366  0.1984 -1.5217 -1.9779
  181POPC  H15B20691   1.468   2.737   7.518 -0.6637 -0.6360  0.1127
  181POPC  H15C20692   1.472   2.669   7.349  3.0292  0.6491 -0.9728
  181POPC   C1120693   1.452   2.921   7.165 -0.3079  0.4386  0.2135
  181POPC  H11A20694   1.476   2.960   7.064  0.4422 -0.9666 -0.1648
  181POPC  H11B20695   1.422   3.003   7.234  1.2073  0.6232  0.6934
  181POPC     P20696   1.369   2.708   7.041 -0.4608  0.0870  0.7214
  181POPC   O1320697   1.246   2.625   7.035  0.7012  0.4205 -0.0913
  181POPC   O1420698   1.498   2.637   7.070  0.1337 -0.3917 -0.3584
  181POPC   O1220699   1.356   2.815   7.155  0.6358 -0.4940 -0.0740
  181POPC   O1120700   1.391   2.797   6.908 -0.0784  0.1784 -0.4743
  181POPC    C120701   1.280   2.869   6.852 -0.1555 -0.3500 -0.5432
  181POPC    HA20702   1.289   2.977   6.876 -0.0751 -0.5566  0.4001
  181POPC    HB20703   1.178   2.838   6.884 -1.4687  1.0532 -3.0488
  181POPC    C220704   1.279   2.841   6.700  0.2282 -0.2355 -0.7476
  181POPC    HS20705   1.210   2.915   6.655 -0.2156 -1.4758 -2.1984
  181POPC   O2120706   1.229   2.710   6.688  0.1924 -0.2537  0.0127
  181POPC   C2120707   1.163   2.692   6.574 -0.5067 -0.2903  0.1573
  181POPC   O2220708   1.130   2.782   6.495  0.4554  0.2176 -0.1870
  181POPC   C2220709   1.125   2.542   6.560  0.3033  0.4349  0.7707
  181POPC   H2R20710   1.017   2.535   6.537  0.4211  1.0653 -0.0058
  181POPC   H2S20711   1.141   2.484   6.653 -2.3378  1.2581  1.8414
  181POPC    C320712   1.425   2.849   6.652 -0.2963  0.0890  0.2031
  181POPC    HX20713   1.482   2.762   6.691 -0.5504 -0.3922 -0.4757
  181POPC    HY20714   1.460   2.946   6.694 -0.2083  0.5568 -0.9114
  181POPC   O3120715   1.440   2.851   6.509  0.2127 -0.1471  0.6409
  181POPC   C3120716   1.397   2.949   6.450 -0.9739  0.2830 -0.1725
  181POPC   O3220717   1.355   3.055   6.498  0.0020 -0.4337  0.1970
  181POPC   C3220718   1.379   2.934   6.307 -0.4070  0.6099  0.5841
  181POPC   H2X20719   1.288   2.988   6.274  0.0112  3.1517  3.1805
  181POPC   H2Y20720   1.378   2.824   6.293  0.5190  0.6597  0.0197
  181POPC   C2320721   1.210   2.466   6.448  0.0852 -0.2543 -0.2363
  181POPC   H3R20722   1.191   2.357   6.448  2.2902 -0.7093 -1.5229
  181POPC   H3S20723   1.317   2.481   6.476  0.3256  0.4583 -1.4821
  181POPC   C2420724   1.196   2.521   6.305  0.3159  0.2153 -0.1261
  181POPC   H4R20725   1.249   2.619   6.303  1.1555 -0.1380  2.1289
  181POPC   H4S20726   1.086   2.528   6.295  0.2908 -0.6005 -0.5020
  181POPC   C2520727   1.253   2.433   6.190  0.1304  0.4100  0.5721
  181POPC   H5R20728   1.196   2.339   6.202 -2.5250  1.8176 -0.1621
  181POPC   H5S20729   1.361   2.408   6.193 -0.2510 -2.5553 -3.0136
  181POPC   C2620730   1.227   2.490   6.053 -0.2296 -0.5890  0.1227
  181POPC   H6R20731   1.287   2.581   6.034 -0.6310 -0.2923  0.2652
  181POPC   H6S20732   1.119   2.516   6.049 -0.3018 -0.9747 -0.4789
  181POPC   C2720733   1.255   2.401   5.930  0.1748 -0.3859 -0.4640
  181POPC   H7R20734   1.196   2.439   5.844  1.8459  0.4609 -1.2920
  181POPC   H7S20735   1.229   2.297   5.960 -0.2289  0.2418  1.4593
  181POPC   C2820736   1.400   2.403   5.882  0.4533  0.0676 -0.3455
  181POPC   H8R20737   1.469   2.361   5.957  1.3608 -0.1374 -1.2659
  181POPC   H8S20738   1.439   2.503   5.852  0.6125  0.1408  0.1076
  181POPC   C2920739   1.406   2.310   5.760 -0.2839 -0.9277 -0.3873
  181POPC   H9120740   1.373   2.206   5.776  0.9998 -1.3466 -0.3788
  181POPC  C21020741   1.437   2.347   5.634 -1.5675  0.1202 -0.0668
  181POPC  H10120742   1.435   2.272   5.554 -0.3610 -1.3654  1.2540
  181POPC  C21120743   1.477   2.487   5.588 -0.1081  0.6652  0.2349
  181POPC  H11R20744   1.404   2.551   5.642 -1.1721 -0.3015 -0.0189
  181POPC  H11S20745   1.456   2.504   5.480 -3.4353  2.2731  0.9722
  181POPC  C21220746   1.620   2.536   5.613  0.1401  0.5412  0.5869
  181POPC  H12R20747   1.653   2.482   5.704  0.7513  0.7316  0.4785
  181POPC  H12S20748   1.621   2.644   5.639  0.7845  0.0616  2.7761
  181POPC  C21320749   1.718   2.509   5.504  0.7373 -0.6098 -0.4560
  181POPC  H13R20750   1.743   2.400   5.510  0.6817 -0.6413 -0.7860
  181POPC  H13S20751   1.811   2.567   5.523  1.8407 -1.8959 -1.6618
  181POPC  C21420752   1.684   2.552   5.357  0.1473  0.2233 -0.4773
  181POPC  H14R20753   1.676   2.663   5.358  0.9153  0.3013  1.0758
  181POPC  H14S20754   1.589   2.506   5.323  0.4024 -1.4439  0.9036
  181POPC  C21520755   1.799   2.504   5.264  0.6501 -0.5206  0.5951
  181POPC  H15R20756   1.794   2.393   5.261  0.4763 -0.5087  0.3566
  181POPC  H15S20757   1.899   2.530   5.305  1.1864  1.0922 -1.5357
  181POPC  C21620758   1.769   2.554   5.125  1.0602 -0.3701  0.2722
  181POPC  H16R20759   1.812   2.657   5.130 -1.4679  0.7993 -0.4369
  181POPC  H16S20760   1.661   2.568   5.104  0.5969 -0.4696  2.3418
  181POPC  C21720761   1.839   2.486   5.013 -0.1030  0.6918 -0.2486
  181POPC  H17R20762   1.948   2.497   5.036  0.3649 -0.4721 -1.7395
  181POPC  H17S20763   1.829   2.544   4.919  2.3529 -0.3719 -1.2552
  181POPC  C21820764   1.804   2.336   4.987  0.3594  0.2752  0.2745
  181POPC  H18R20765   1.833   2.312   4.882  1.6767 -1.5870  1.0285
  181POPC  H18S20766   1.695   2.316   4.996  0.8011 -1.6140  1.8842
  181POPC  H18T20767   1.853   2.265   5.056  1.7756 -0.0477 -1.0094
  181POPC   C3320768   1.505   2.984   6.232 -0.1189  0.2217  0.6940
  181POPC   H3X20769   1.597   2.939   6.275 -1.4061 -3.1754  0.2415
  181POPC   H3Y20770   1.517   3.094   6.240  0.7377  0.6595 -3.9676
  181POPC   C3420771   1.501   2.943   6.078  0.0457 -0.4138 -0.2333
  181POPC   H4X20772   1.431   3.021   6.041  0.0692 -0.1138  0.3355
  181POPC   H4Y20773   1.448   2.846   6.063 -0.0671 -0.4609  0.4003
  181POPC   C3520774   1.634   2.957   5.995  0.3811  0.2303 -1.0649
  181POPC   H5X20775   1.713   2.889   6.034 -0.6420 -0.3072  0.1251
  181POPC   H5Y20776   1.660   3.063   6.018 -4.7143  1.5586 -0.0708
  181POPC   C3620777   1.626   2.947   5.846  0.2613 -0.4885  0.3174
  181POPC   H6X20778   1.561   3.032   5.818  1.2198  0.2583  0.3220
  181POPC   H6Y20779   1.589   2.845   5.820  1.0397 -0.9770  1.0682
  181POPC   C3720780   1.766   2.958   5.785  0.0981 -0.2093  0.1389
  181POPC   H7X20781   1.837   2.877   5.814 -0.6259 -0.6620  0.6592
  181POPC   H7Y20782   1.820   3.049   5.820 -0.3419 -0.8916  2.8343
  181POPC   C3820783   1.776   2.958   5.630 -0.1308  0.6370 -1.0392
  181POPC   H8X20784   1.706   3.037   5.597 -1.7703 -1.1076 -1.9680
  181POPC   H8Y20785   1.749   2.855   5.599  2.1825  0.0263 -1.2261
  181POPC   C3920786   1.924   2.995   5.577 -0.0076  0.5287  0.1727
  181POPC   H9X20787   1.990   2.918   5.621 -2.0373 -1.2140  0.2845
  181POPC   H9Y20788   1.942   3.091   5.630  0.3852 -0.7839  2.5488
  181POPC  C31020789   1.916   3.001   5.425 -0.8358  0.3468 -0.1529
  181POPC  H10X20790   1.868   3.096   5.395  0.7136  0.6078 -1.9463
  181POPC  H10Y20791   1.866   2.908   5.390  0.1161  0.2499 -1.2835
  181POPC  C31120792   2.063   3.002   5.374  0.6638 -0.8643 -0.3066
  181POPC  H11X20793   2.119   3.085   5.422  0.6574  0.4614 -2.4479
  181POPC  H11Y20794   2.048   3.019   5.265 -2.1231  0.5892  0.2318
  181POPC  C31220795   2.119   2.856   5.387 -0.6920 -0.5490  0.2213
  181POPC  H12X20796   2.045   2.779   5.358 -1.5124  0.8133 -1.4703
  181POPC  H12Y20797   2.138   2.845   5.496  0.4673 -1.1542 -0.0224
  181POPC  C31320798   2.262   2.827   5.334 -0.8971  0.4328  0.4205
  181POPC  H13X20799   2.307   2.732   5.371 -1.3878 -0.4552 -1.1880
  181POPC  H13Y20800   2.326   2.912   5.367 -1.1281  0.6984  0.1844
  181POPC  C31420801   2.261   2.818   5.184 -0.1544  0.0704 -0.5180
  181POPC  H14X20802   2.211   2.908   5.141 -1.9064 -0.5971  0.0406
  181POPC  H14Y20803   2.196   2.736   5.147  2.4950 -2.5409  0.2424
  181POPC  C31520804   2.405   2.787   5.123  0.0947 -0.5259  0.1235
  181POPC  H15X20805   2.425   2.680   5.105 -0.0788 -0.4790 -0.3654
  181POPC  H15Y20806   2.477   2.814   5.203 -0.9388  1.2039  0.5287
  181POPC  C31620807   2.429   2.862   4.990  0.6118 -0.3166  0.0301
  181POPC  H16X20808   2.528   2.836   4.948 -1.0851 -1.4077 -3.6952
  181POPC  H16Y20809   2.421   2.971   5.008  1.2411 -0.0768 -1.0978
  181POPC  H16Z20810   2.350   2.832   4.918  0.3193 -1.0907  0.6647
  182POPC     N20811   5.029   3.976   7.107 -0.4413 -0.6991 -0.0188
  182POPC   C1220812   4.937   3.886   7.021 -0.0570 -0.6389 -0.0127
  182POPC  H12A20813   4.834   3.918   7.034 -0.5057 -1.8969 -0.2696
  182POPC  H12B20814   4.943   3.788   7.067  1.6680 -1.1126 -1.1419
  182POPC   C1320815   4.963   3.999   7.235  0.3326  0.2254 -0.4222
  182POPC  H13A20816   4.952   3.900   7.277  0.4209 -0.2406 -1.4724
  182POPC  H13B20817   5.021   4.061   7.302  0.0723 -0.6389  0.6516
  182POPC  H13C20818   4.869   4.050   7.222  0.5024 -0.1268 -3.9469
  182POPC   C1420819   5.163   3.904   7.121  0.0996  0.6627  0.3704
  182POPC  H14A20820   5.217   3.946   7.205  1.6022  0.4171 -0.4501
  182POPC  H14B20821   5.157   3.798   7.138  1.1757  0.9169  2.8641
  182POPC  H14C20822   5.215   3.924   7.029 -0.4550  0.4031 -0.0042
  182POPC   C1520823   5.048   4.115   7.048  0.6588  0.7302 -0.4695
  182POPC  H15A20824   5.105   4.177   7.115 -1.0232 -0.6199  2.4410
  182POPC  H15B20825   4.951   4.158   7.024  0.0677 -1.4365 -2.3416
  182POPC  H15C20826   5.097   4.114   6.952  0.3703 -1.4915 -0.6488
  182POPC   C1120827   4.975   3.862   6.870 -0.5402 -0.6083  0.1965
  182POPC  H11A20828   4.990   3.961   6.821 -0.9960  0.9026  2.8917
  182POPC  H11B20829   4.886   3.805   6.837 -1.0813 -0.0625  0.6814
  182POPC     P20830   5.095   3.633   6.882 -0.1322 -0.2082  0.0263
  182POPC   O1320831   5.042   3.615   7.017  0.2452  0.3683  0.5927
  182POPC   O1420832   5.237   3.588   6.858  0.2769 -0.2136  0.7851
  182POPC   O1220833   5.095   3.785   6.847  0.1865 -0.4684 -0.3917
  182POPC   O1120834   5.002   3.572   6.770  0.2486 -0.0019 -0.0815
  182POPC    C120835   5.010   3.627   6.633 -0.2696  0.2595 -0.8351
  182POPC    HA20836   5.093   3.698   6.615  0.2695 -0.2940 -0.5581
  182POPC    HB20837   4.919   3.687   6.611 -0.3382  0.0411 -1.1614
  182POPC    C220838   5.017   3.511   6.540  0.6305 -0.3961 -0.1551
  182POPC    HS20839   5.046   3.553   6.441 -0.6162 -0.7981 -0.6987
  182POPC   O2120840   4.892   3.448   6.541  0.2177 -0.0496  0.4688
  182POPC   C2120841   4.861   3.398   6.418  0.4648 -0.0647  0.4422
  182POPC   O2220842   4.923   3.419   6.315  0.4500 -0.0046  0.1384
  182POPC   C2220843   4.739   3.309   6.431  0.2072 -0.3723  0.6882
  182POPC   H2R20844   4.656   3.367   6.475 -0.9924 -0.1879 -1.6471
  182POPC   H2S20845   4.764   3.225   6.500  0.5385 -1.0240 -0.1986
  182POPC    C320846   5.123   3.407   6.581 -0.9038 -0.3464 -0.6220
  182POPC    HX20847   5.100   3.370   6.683 -0.7315  1.5863  0.1538
  182POPC    HY20848   5.219   3.462   6.586 -1.2190  0.2096 -0.5429
  182POPC   O3120849   5.122   3.293   6.493  0.3852  0.4193  0.1639
  182POPC   C3120850   5.215   3.301   6.398  0.4060  0.1896 -0.3302
  182POPC   O3220851   5.294   3.388   6.388 -0.2066 -0.3174 -0.0236
  182POPC   C3220852   5.209   3.180   6.308  0.0361 -0.1514 -0.5198
  182POPC   H2X20853   5.152   3.195   6.214  0.8143  2.4252 -0.6479
  182POPC   H2Y20854   5.150   3.107   6.368  2.2435 -1.8778 -0.3190
  182POPC   C2320855   4.700   3.230   6.304 -0.2350 -0.0697  0.7137
  182POPC   H3R20856   4.628   3.149   6.325 -0.5022 -0.3715 -1.1681
  182POPC   H3S20857   4.789   3.181   6.259 -2.4771 -2.4098 -1.4088
  182POPC   C2420858   4.635   3.326   6.210  0.3593  0.1169  0.3834
  182POPC   H4R20859   4.708   3.405   6.180 -2.7133  2.9264 -0.2237
  182POPC   H4S20860   4.557   3.378   6.269 -1.0611 -1.2365 -0.2380
  182POPC   C2520861   4.580   3.256   6.082 -0.3752 -0.1486 -0.6258
  182POPC   H5R20862   4.496   3.195   6.123  0.5624  0.7045  2.8913
  182POPC   H5S20863   4.656   3.185   6.042 -0.1245 -0.4115  0.2791
  182POPC   C2620864   4.530   3.351   5.977 -0.0574  0.2520  0.7404
  182POPC   H6R20865   4.606   3.419   5.933 -0.5797  1.5457  1.7906
  182POPC   H6S20866   4.450   3.417   6.017  0.2889  0.8172  0.5106
  182POPC   C2720867   4.460   3.279   5.852  0.8529 -0.2798  0.0401
  182POPC   H7R20868   4.403   3.363   5.806 -0.3010 -1.4381 -0.7213
  182POPC   H7S20869   4.378   3.212   5.887  1.2328 -0.4763  0.5610
  182POPC   C2820870   4.550   3.202   5.759  0.6066 -0.0594 -0.1859
  182POPC   H8R20871   4.482   3.140   5.697  0.6831  0.3097 -0.6465
  182POPC   H8S20872   4.623   3.140   5.815  0.2775  0.7761  1.2106
  182POPC   C2920873   4.629   3.298   5.676  0.4936  0.1793 -0.2413
  182POPC   H9120874   4.691   3.370   5.731 -0.7126  0.3532  0.9153
  182POPC  C21020875   4.610   3.337   5.546 -0.7762 -0.6355 -0.2434
  182POPC  H10120876   4.682   3.410   5.504  0.3258 -1.5872 -0.0781
  182POPC  C21120877   4.514   3.289   5.444 -0.1953 -0.4008  0.1430
  182POPC  H11R20878   4.440   3.368   5.421 -0.2864  0.0428  1.8591
  182POPC  H11S20879   4.456   3.204   5.486 -1.9574  0.4897 -0.3783
  182POPC  C21220880   4.573   3.229   5.315 -0.0981 -0.7248 -0.5889
  182POPC  H12R20881   4.645   3.149   5.343  3.3120  2.5171  0.7364
  182POPC  H12S20882   4.624   3.309   5.258 -1.3767  0.2220 -0.4574
  182POPC  C21320883   4.463   3.173   5.223 -0.4516  0.7955 -0.2052
  182POPC  H13R20884   4.381   3.244   5.199  0.0125  1.4356  0.0389
  182POPC  H13S20885   4.423   3.090   5.285 -0.7207  0.9619 -0.1559
  182POPC  C21420886   4.517   3.121   5.087  0.3887  0.9020 -0.2021
  182POPC  H14R20887   4.599   3.052   5.116  1.0008  2.0952  1.0108
  182POPC  H14S20888   4.545   3.204   5.019 -2.4372  2.4557  0.3669
  182POPC  C21520889   4.418   3.044   4.997  1.0115 -0.3362 -0.2698
  182POPC  H15R20890   4.396   2.949   5.050  0.6391  1.4892  3.1679
  182POPC  H15S20891   4.477   3.032   4.903 -0.0254  0.3994 -1.0389
  182POPC  C21620892   4.285   3.124   4.970 -0.1854 -0.9713  0.5887
  182POPC  H16R20893   4.322   3.219   4.926 -3.0045 -0.0013  0.0979
  182POPC  H16S20894   4.244   3.141   5.071 -0.1839 -2.4374  0.8648
  182POPC  C21720895   4.180   3.056   4.878  0.0159 -0.1584 -0.1227
  182POPC  H17R20896   4.170   2.952   4.915  0.3941 -0.5931 -1.1884
  182POPC  H17S20897   4.218   3.048   4.773  0.2408  3.1407 -0.3996
  182POPC  C21820898   4.054   3.138   4.877  0.0926  0.0625 -0.5548
  182POPC  H18R20899   3.976   3.084   4.819  0.3215 -1.3549  0.4185
  182POPC  H18S20900   4.075   3.239   4.835 -0.4396 -0.4295 -2.0861
  182POPC  H18T20901   4.019   3.151   4.982  0.2937 -0.6047 -0.4036
  182POPC   C3320902   5.347   3.111   6.273  0.4655  0.2060 -0.5461
  182POPC   H3X20903   5.395   3.072   6.365  0.5100  1.4956 -0.0027
  182POPC   H3Y20904   5.403   3.196   6.229  0.9265  0.9953  1.4616
  182POPC   C3420905   5.332   2.993   6.172 -0.3971  0.0446 -1.0587
  182POPC   H4X20906   5.246   2.931   6.206  0.6861  0.1669  2.1887
  182POPC   H4Y20907   5.423   2.931   6.185 -2.0801 -2.3034  0.3835
  182POPC   C3520908   5.326   3.027   6.023  0.1633 -0.1699 -0.0647
  182POPC   H5X20909   5.415   3.088   5.994 -1.0747  2.3279  1.1375
  182POPC   H5Y20910   5.245   3.099   5.998  0.8901  0.7064  0.0426
  182POPC   C3620911   5.312   2.902   5.938 -0.1408 -0.9413  0.1242
  182POPC   H6X20912   5.208   2.864   5.937 -1.1224  1.5128  0.9467
  182POPC   H6Y20913   5.384   2.826   5.976 -0.8306 -1.1594  1.0513
  182POPC   C3720914   5.353   2.932   5.789 -0.5708  0.2151  0.1776
  182POPC   H7X20915   5.460   2.961   5.787 -0.5994  0.4882 -2.7675
  182POPC   H7Y20916   5.289   3.021   5.767  1.0122  1.0422 -1.3455
  182POPC   C3820917   5.336   2.819   5.685  0.3157 -0.5628  0.3445
  182POPC   H8X20918   5.226   2.811   5.670  0.4550  0.3612 -1.3187
  182POPC   H8Y20919   5.368   2.719   5.721 -1.1735 -1.5023 -0.8006
  182POPC   C3920920   5.398   2.862   5.550 -0.1721 -0.0687 -0.9135
  182POPC   H9X20921   5.507   2.843   5.543 -0.4886 -2.4172 -0.3665
  182POPC   H9Y20922   5.393   2.973   5.556  1.4148 -0.0038 -0.1490
  182POPC  C31020923   5.320   2.824   5.431 -0.6897  0.3561  0.4566
  182POPC  H10X20924   5.221   2.870   5.448 -0.5833  0.6565  0.2912
  182POPC  H10Y20925   5.313   2.714   5.425  1.1861  0.1384  1.5678
  182POPC  C31120926   5.365   2.894   5.305 -0.1984  0.1515  0.1852
  182POPC  H11X20927   5.373   3.005   5.311 -0.5797  0.3819 -2.3337
  182POPC  H11Y20928   5.281   2.868   5.236 -0.7677 -1.6489  1.4872
  182POPC  C31220929   5.495   2.845   5.241 -0.1371  0.0727  0.1110
  182POPC  H12X20930   5.477   2.736   5.227 -0.6879  0.1518  0.1931
  182POPC  H12Y20931   5.576   2.862   5.315  0.7737  0.2987 -0.9105
  182POPC  C31320932   5.522   2.908   5.102  0.0865  0.8431  0.8850
  182POPC  H13X20933   5.627   2.886   5.072 -0.4732  3.0414 -3.4313
  182POPC  H13Y20934   5.508   3.017   5.119  1.6012  0.7029  3.7374
  182POPC  C31420935   5.431   2.863   4.981 -0.0519 -0.0571 -0.1831
  182POPC  H14X20936   5.323   2.871   5.007  0.0698  3.5262 -0.1917
  182POPC  H14Y20937   5.460   2.762   4.946 -0.2780  0.5533 -2.2523
  182POPC  C31520938   5.451   2.955   4.856  0.0569 -0.0908 -0.0204
  182POPC  H15X20939   5.546   2.936   4.802 -0.1897  0.6204 -0.7261
  182POPC  H15Y20940   5.436   3.062   4.880 -1.5268  0.0872 -1.5717
  182POPC  C31620941   5.346   2.920   4.746  0.3449  0.6621 -0.1389
  182POPC  H16X20942   5.248   2.950   4.787 -0.0595 -0.4349 -0.2654
  182POPC  H16Y20943   5.336   2.811   4.726  2.4607  0.6680 -1.5710
  182POPC  H16Z20944   5.367   2.982   4.656 -1.8276  0.9233 -0.5222
  183POPC     N20945   1.241   5.875   7.249 -0.1723 -0.5944  0.1944
  183POPC   C1220946   1.347   5.868   7.142 -0.2587  0.5861  0.2405
  183POPC  H12A20947   1.391   5.769   7.137 -1.3875  0.1233 -1.9541
  183POPC  H12B20948   1.429   5.936   7.158  1.9149 -1.3757 -1.6778
  183POPC   C1320949   1.116   5.797   7.210  0.3499  0.1676 -0.7201
  183POPC  H13A20950   1.050   5.848   7.142 -1.0271 -0.0245  0.4316
  183POPC  H13B20951   1.131   5.707   7.152 -0.0777 -0.3911  0.0223
  183POPC  H13C20952   1.074   5.774   7.307  3.7729  0.7645  1.0577
  183POPC   C1420953   1.297   5.810   7.374 -0.9087  0.9910 -0.0276
  183POPC  H14A20954   1.393   5.855   7.397 -1.4476  1.9078  0.4619
  183POPC  H14B20955   1.228   5.821   7.456  0.4559 -1.1174  1.5233
  183POPC  H14C20956   1.312   5.705   7.353  1.0884  1.1052  0.6029
  183POPC   C1520957   1.207   6.019   7.283  1.0167  0.6551  0.3028
  183POPC  H15A20958   1.123   6.035   7.349  1.0801  1.1461  0.2734
  183POPC  H15B20959   1.189   6.061   7.186  1.4693 -3.7335 -1.8863
  183POPC  H15C20960   1.289   6.080   7.321 -0.6310  2.8654  0.4978
  183POPC   C1120961   1.303   5.912   7.001  0.5616 -0.2009  0.2559
  183POPC  H11A20962   1.217   5.853   6.964  1.4928 -0.1443 -2.1945
  183POPC  H11B20963   1.390   5.890   6.935 -1.0667 -2.4546 -1.2551
  183POPC     P20964   1.370   6.162   6.972  0.0123 -0.1109 -0.4370
  183POPC   O1320965   1.506   6.108   6.978  0.3436 -0.7954 -0.1539
  183POPC   O1420966   1.346   6.264   7.077  0.3062  0.1758 -0.2104
  183POPC   O1220967   1.263   6.051   6.996  0.0096 -0.2157  0.7203
  183POPC   O1120968   1.342   6.234   6.836 -0.6471 -0.7279  0.1095
  183POPC    C120969   1.212   6.239   6.783 -0.7312  0.2837  0.5400
  183POPC    HA20970   1.141   6.307   6.833 -0.1199  1.1959  0.1808
  183POPC    HB20971   1.173   6.135   6.786  0.5304 -0.1918  1.2247
  183POPC    C220972   1.218   6.282   6.633 -0.2037 -0.2704 -0.6370
  183POPC    HS20973   1.118   6.290   6.586 -1.5228  0.9776  2.1954
  183POPC   O2120974   1.314   6.208   6.547  0.2969  0.0392 -0.4395
  183POPC   C2120975   1.265   6.088   6.521  0.5658  0.0513 -0.4378
  183POPC   O2220976   1.156   6.047   6.560 -0.4648  0.7736  0.0290
  183POPC   C2220977   1.360   6.015   6.434 -0.3250 -0.1038 -0.3004
  183POPC   H2R20978   1.424   5.960   6.506 -0.4030 -1.6997 -1.3906
  183POPC   H2S20979   1.420   6.079   6.366 -0.8885 -0.6314 -1.3190
  183POPC    C320980   1.260   6.428   6.618  0.2453  0.3749 -0.5494
  183POPC    HX20981   1.363   6.439   6.658  0.1496 -1.5968  0.3573
  183POPC    HY20982   1.193   6.485   6.685 -0.8877 -0.6647 -0.7520
  183POPC   O3120983   1.241   6.465   6.474 -0.1105  0.1801 -0.5715
  183POPC   C3120984   1.345   6.510   6.411 -0.2233 -0.1238  0.8470
  183POPC   O3220985   1.458   6.535   6.455  0.3817 -0.1194  0.0883
  183POPC   C3220986   1.305   6.526   6.268 -1.6545  0.2282  0.0037
  183POPC   H2X20987   1.283   6.423   6.232 -2.2992  0.3482  0.0441
  183POPC   H2Y20988   1.391   6.574   6.215  0.3854 -0.8373  2.1635
  183POPC   C2320989   1.288   5.913   6.346 -0.2185 -0.4129 -0.9603
  183POPC   H3R20990   1.217   5.866   6.417  0.1768  0.1773 -0.1654
  183POPC   H3S20991   1.365   5.846   6.302  0.7172 -0.6443  0.9366
  183POPC   C2420992   1.197   5.974   6.237 -0.0592 -0.1916  0.2440
  183POPC   H4R20993   1.121   6.029   6.297 -0.5769  0.0980 -0.6618
  183POPC   H4S20994   1.141   5.897   6.180 -0.7796  0.6036 -0.1547
  183POPC   C2520995   1.265   6.060   6.138 -0.7376  0.0005  0.6599
  183POPC   H5R20996   1.341   5.992   6.093 -0.4817  0.1141  0.9116
  183POPC   H5S20997   1.316   6.146   6.186 -0.5085  0.6745 -0.7192
  183POPC   C2620998   1.156   6.104   6.039  0.1598  0.5599  0.5142
  183POPC   H6R20999   1.083   6.175   6.084  0.0098  0.8999 -0.2431
  183POPC   H6S21000   1.100   6.015   6.003  1.9770  0.0452 -1.1988
  183POPC   C2721001   1.212   6.191   5.921  0.2611  0.5262 -0.2110
  183POPC   H7R21002   1.293   6.130   5.877  0.9418  2.1516 -1.3105
  183POPC   H7S21003   1.262   6.280   5.965  1.8136  0.2931 -1.4067
  183POPC   C2821004   1.102   6.243   5.818 -0.1747  0.2565 -0.3830
  183POPC   H8R21005   1.146   6.317   5.748 -3.0636  1.3614 -1.1579
  183POPC   H8S21006   1.021   6.292   5.875  0.2239  0.3196  0.1429
  183POPC   C2921007   1.033   6.127   5.747 -0.8252  0.5020 -0.2937
  183POPC   H9121008   1.011   6.037   5.806 -0.8924  0.3829 -0.4985
  183POPC  C21021009   0.991   6.110   5.617 -0.1161 -0.5647 -0.4887
  183POPC  H10121010   0.947   6.012   5.591  1.7801 -1.2242 -1.4283
  183POPC  C21121011   0.995   6.225   5.516  0.2569 -0.0802  0.3916
  183POPC  H11R21012   1.095   6.230   5.467  0.8325 -1.8736  1.2929
  183POPC  H11S21013   0.948   6.320   5.548 -1.4239 -0.2375 -1.4321
  183POPC  C21221014   0.898   6.183   5.394 -0.1421  0.6979 -0.5621
  183POPC  H12R21015   0.804   6.136   5.429 -0.5149  1.0078 -1.1474
  183POPC  H12S21016   0.944   6.110   5.324  0.5095 -0.3409  0.8774
  183POPC  C21321017   0.864   6.295   5.296 -0.3569  0.1765  0.0539
  183POPC  H13R21018   0.958   6.341   5.259 -1.0799  0.6122 -1.2958
  183POPC  H13S21019   0.819   6.371   5.363  0.3274  1.3067 -0.7496
  183POPC  C21421020   0.789   6.244   5.169 -0.1938  0.9501 -0.9597
  183POPC  H14R21021   0.739   6.146   5.184 -0.6803  1.3914  0.4769
  183POPC  H14S21022   0.867   6.234   5.090 -1.2450  0.0735 -1.9244
  183POPC  C21521023   0.681   6.340   5.123 -0.0280 -0.4764  0.4743
  183POPC  H15R21024   0.640   6.317   5.022 -2.0936  0.7374  0.9835
  183POPC  H15S21025   0.727   6.441   5.120 -0.2741 -0.3812 -0.3429
  183POPC  C21621026   0.562   6.346   5.220 -0.0376  0.1901 -0.4309
  183POPC  H16R21027   0.606   6.336   5.322 -0.4812 -2.7380 -0.4338
  183POPC  H16S21028   0.504   6.251   5.220  1.5738 -0.8547  0.4885
  183POPC  C21721029   0.479   6.468   5.214 -0.0815  0.1643  0.4241
  183POPC  H17R21030   0.542   6.556   5.238  1.1532 -0.9744  1.5475
  183POPC  H17S21031   0.406   6.461   5.297 -1.5247  0.7343 -0.7422
  183POPC  C21821032   0.411   6.499   5.082  0.3758 -0.2774 -0.1412
  183POPC  H18R21033   0.318   6.439   5.074  1.3926 -1.6022 -3.8641
  183POPC  H18S21034   0.474   6.468   4.996 -0.7788 -0.6149 -0.8788
  183POPC  H18T21035   0.396   6.608   5.063  1.4361 -0.1562 -0.3851
  183POPC   C3321036   1.179   6.601   6.231 -0.3192 -0.1300 -0.6129
  183POPC   H3X21037   1.189   6.707   6.262 -1.6872 -0.5421  1.4662
  183POPC   H3Y21038   1.112   6.558   6.308 -0.4711  2.1105  0.6035
  183POPC   C3421039   1.129   6.583   6.089 -0.3227  0.2874 -0.4842
  183POPC   H4X21040   1.018   6.575   6.099 -0.1452 -0.4808  1.3773
  183POPC   H4Y21041   1.161   6.482   6.054 -3.3640 -1.3954  1.1408
  183POPC   C3521042   1.158   6.691   5.992  0.1020 -0.8616 -0.4762
  183POPC   H5X21043   1.269   6.695   5.984  0.1777 -1.9616 -0.1984
  183POPC   H5Y21044   1.125   6.789   6.031  2.1480 -1.0742  2.0731
  183POPC   C3621045   1.108   6.673   5.846  0.4955 -0.9143 -0.0966
  183POPC   H6X21046   1.006   6.628   5.852  1.0426 -2.5615 -2.1879
  183POPC   H6Y21047   1.175   6.610   5.784  2.7717  1.1805  0.0859
  183POPC   C3721048   1.083   6.797   5.763  0.0526  0.2175 -0.5177
  183POPC   H7X21049   1.024   6.870   5.823  0.4737  2.2057 -2.3790
  183POPC   H7Y21050   1.013   6.769   5.681 -0.9398 -0.7653  0.6347
  183POPC   C3821051   1.211   6.855   5.710  0.5433 -0.0154  0.0636
  183POPC   H8X21052   1.254   6.782   5.637 -0.7999  0.1735 -0.9646
  183POPC   H8Y21053   1.278   6.874   5.796  1.0093  1.2092 -0.5474
  183POPC   C3921054   1.176   6.985   5.639  0.1549 -0.0659  1.0150
  183POPC   H9X21055   1.131   7.043   5.722 -1.2747 -0.9577  0.8885
  183POPC   H9Y21056   1.096   6.968   5.564  0.6448  1.0294  0.2235
  183POPC  C31021057   1.295   7.059   5.575 -0.0310  0.5014 -0.7471
  183POPC  H10X21058   1.352   6.994   5.506  1.2322 -1.5038  2.0258
  183POPC  H10Y21059   1.353   7.103   5.659  1.5182  2.4394 -2.7062
  183POPC  C31121060   1.231   7.180   5.504 -0.4745 -0.3126 -0.0754
  183POPC  H11X21061   1.174   7.242   5.576 -1.5258 -0.3524 -0.8606
  183POPC  H11Y21062   1.159   7.134   5.433 -0.3909  0.0067 -0.3698
  183POPC  C31221063   1.327   7.265   5.419  0.7620  0.0868  0.5369
  183POPC  H12X21064   1.391   7.190   5.366  0.0764 -0.0033 -0.1914
  183POPC  H12Y21065   1.391   7.330   5.483  0.0440  4.0565 -2.3943
  183POPC  C31321066   1.266   7.343   5.303 -0.0155  0.9844 -0.1278
  183POPC  H13X21067   1.205   7.430   5.337 -2.2365 -0.9136  1.0607
  183POPC  H13Y21068   1.205   7.274   5.241  1.6381 -0.4695 -0.2082
  183POPC  C31421069   1.373   7.398   5.200 -0.0963  0.1592  0.4785
  183POPC  H14X21070   1.443   7.313   5.187  0.3686  0.3962  1.3816
  183POPC  H14Y21071   1.428   7.483   5.245  2.3999 -2.2793  2.3418
  183POPC  C31521072   1.316   7.439   5.061  0.0809  0.0886 -0.3670
  183POPC  H15X21073   1.274   7.351   5.008 -1.3388  0.4635  0.0845
  183POPC  H15Y21074   1.395   7.485   4.998 -0.0293 -0.7922 -1.1655
  183POPC  C31621075   1.211   7.545   5.076 -0.3976  0.6283  0.3823
  183POPC  H16X21076   1.127   7.492   5.126 -0.7590 -0.0329 -0.9025
  183POPC  H16Y21077   1.177   7.592   4.981  2.4200 -1.4052 -1.7877
  183POPC  H16Z21078   1.247   7.620   5.150  1.9384 -2.5636  2.7662
  184POPC     N21079   2.663   0.069   6.914  0.3685  0.3823 -0.5618
  184POPC   C1221080   2.544   0.150   6.869 -0.3776  0.1344 -0.2492
  184POPC  H12A21081   2.459   0.084   6.863  0.1849 -0.7363  0.9463
  184POPC  H12B21082   2.566   0.173   6.766 -1.9454 -0.2803 -0.6919
  184POPC   C1321083   2.794   0.144   6.894 -0.6260 -0.6341  0.0176
  184POPC  H13A21084   2.880   0.086   6.926  0.8553  1.0042 -0.8595
  184POPC  H13B21085   2.817   0.172   6.793  1.8978  0.2178  0.7492
  184POPC  H13C21086   2.797   0.226   6.964  2.1151 -1.4746  0.9996
  184POPC   C1421087   2.639   0.030   7.054  0.5707 -0.1125 -0.3134
  184POPC  H14A21088   2.718  -0.025   7.103 -0.6582 -0.8152  0.9881
  184POPC  H14B21089   2.624   0.117   7.116  0.9402  0.3263 -0.8319
  184POPC  H14C21090   2.555  -0.038   7.061  1.6229 -1.3294  0.9830
  184POPC   C1521091   2.672  -0.046   6.829 -0.0622  0.2964  0.1654
  184POPC  H15A21092   2.776  -0.075   6.819 -0.2834 -0.0482 -1.3766
  184POPC  H15B21093   2.637  -0.020   6.730 -1.6118  1.3763  0.9580
  184POPC  H15C21094   2.625  -0.141   6.854  2.1173 -0.3809  2.0283
  184POPC   C1121095   2.518   0.282   6.940 -0.2365 -0.2391 -0.3587
  184POPC  H11A21096   2.489   0.264   7.046 -4.8797  1.2356 -1.1650
  184POPC  H11B21097   2.426   0.331   6.901 -0.1756 -0.2024 -0.4560
  184POPC     P21098   2.680   0.461   6.820  0.0009 -0.2763 -0.7825
  184POPC   O1321099   2.826   0.452   6.803 -0.2439  0.0660 -0.1214
  184POPC   O1421100   2.624   0.599   6.846 -0.3511  0.1070  0.3087
  184POPC   O1221101   2.633   0.363   6.937  0.2849  0.0828  0.0513
  184POPC   O1121102   2.621   0.398   6.690  0.5402  0.5326 -0.1434
  184POPC    C121103   2.520   0.450   6.606 -0.5615 -0.0604 -0.3383
  184POPC    HA21104   2.492   0.554   6.634  0.9547  0.8577 -1.9451
  184POPC    HB21105   2.422   0.399   6.617 -0.7687  0.6341  1.2049
  184POPC    C221106   2.558   0.449   6.453  0.0910 -0.6127 -0.3006
  184POPC    HS21107   2.491   0.522   6.404  0.4465 -0.5060 -0.6363
  184POPC   O2121108   2.538   0.318   6.400 -0.5399  0.2837  0.1922
  184POPC   C2121109   2.547   0.312   6.276 -0.0457 -0.2703  0.2174
  184POPC   O2221110   2.548   0.404   6.193 -0.1283  0.4065 -0.2716
  184POPC   C2221111   2.551   0.166   6.238 -0.2338  0.8808 -0.3400
  184POPC   H2R21112   2.473   0.115   6.298  2.0348 -1.6689  0.6940
  184POPC   H2S21113   2.646   0.113   6.260 -0.0406  1.1913 -0.4275
  184POPC    C321114   2.714   0.493   6.449 -0.0730  0.0360  0.5454
  184POPC    HX21115   2.767   0.406   6.492 -0.8166 -0.3986  0.6023
  184POPC    HY21116   2.737   0.582   6.511 -0.9735  0.6627 -0.0009
  184POPC   O3121117   2.763   0.497   6.308  0.1603  0.3260 -0.4636
  184POPC   C3121118   2.738   0.608   6.248  0.6949  0.2080  0.0833
  184POPC   O3221119   2.682   0.705   6.294 -0.3331  0.1898 -0.2579
  184POPC   C3221120   2.783   0.603   6.103 -0.4244 -0.2151 -0.6925
  184POPC   H2X21121   2.700   0.563   6.042 -1.2499 -0.1354  0.3382
  184POPC   H2Y21122   2.871   0.536   6.102  0.2955  0.5980  1.7309
  184POPC   C2321123   2.523   0.129   6.092  0.1343  0.4937 -0.1768
  184POPC   H3R21124   2.612   0.163   6.034  0.1779 -1.0995 -1.0945
  184POPC   H3S21125   2.443   0.197   6.056 -0.0456  2.5488  3.5740
  184POPC   C2421126   2.510  -0.021   6.064  0.5440  0.2871  0.5310
  184POPC   H4R21127   2.445  -0.064   6.144  0.7332 -1.0809 -0.0313
  184POPC   H4S21128   2.606  -0.076   6.068  0.9493  1.0042  1.0550
  184POPC   C2521129   2.440  -0.048   5.932 -0.0926 -0.3172  0.4974
  184POPC   H5R21130   2.337  -0.006   5.926  0.5140  1.0205 -3.0759
  184POPC   H5S21131   2.434  -0.156   5.905 -1.0374  0.0513 -0.9041
  184POPC   C2621132   2.516   0.014   5.812 -0.2020 -0.3366  0.0245
  184POPC   H6R21133   2.603  -0.053   5.797 -0.1243 -0.6339  1.6140
  184POPC   H6S21134   2.558   0.116   5.825  1.0495  0.1305 -5.2536
  184POPC   C2721135   2.430   0.027   5.689 -0.6957 -0.7299  0.0595
  184POPC   H7R21136   2.333   0.079   5.703 -0.4732  0.0115 -0.9883
  184POPC   H7S21137   2.405  -0.075   5.653 -1.3236 -0.7913  0.6600
  184POPC   C2821138   2.503   0.106   5.566  0.2768 -0.5176  0.4412
  184POPC   H8R21139   2.448   0.073   5.475 -0.5656 -0.7227  1.0178
  184POPC   H8S21140   2.608   0.068   5.569  0.4486 -0.0372  0.5985
  184POPC   C2921141   2.497   0.251   5.600 -0.6922  0.1251 -0.1546
  184POPC   H9121142   2.551   0.285   5.689  0.8633  2.2813 -1.8142
  184POPC  C21021143   2.464   0.347   5.515 -0.7247  0.0088 -0.0880
  184POPC  H10121144   2.470   0.449   5.556 -1.8197  0.0896 -0.1253
  184POPC  C21121145   2.428   0.334   5.364 -0.1121 -0.8985 -0.1612
  184POPC  H11R21146   2.344   0.405   5.350 -0.5773 -1.1060  1.4209
  184POPC  H11S21147   2.376   0.236   5.359 -1.1160 -0.7443  3.8226
  184POPC  C21221148   2.548   0.339   5.270 -0.4168  0.7981  0.6358
  184POPC  H12R21149   2.611   0.249   5.286 -2.4560 -0.9609 -0.7777
  184POPC  H12S21150   2.608   0.428   5.301  0.0084  2.1754 -3.4975
  184POPC  C21321151   2.506   0.354   5.126 -0.4206  0.1833 -0.0140
  184POPC  H13R21152   2.439   0.441   5.113 -1.4087 -0.3791  1.1266
  184POPC  H13S21153   2.449   0.262   5.101 -0.4691  0.0417  0.5913
  184POPC  C21421154   2.629   0.361   5.034  0.0469  0.1116 -0.5097
  184POPC  H14R21155   2.691   0.270   5.051  1.1335  1.0925  1.0332
  184POPC  H14S21156   2.700   0.443   5.056  0.3337 -0.2451 -0.0904
  184POPC  C21521157   2.589   0.363   4.886  0.2451  0.0238 -0.2799
  184POPC  H15R21158   2.511   0.439   4.862 -2.3356 -1.9066  1.4196
  184POPC  H15S21159   2.553   0.261   4.860 -1.8994  0.6732 -0.0817
  184POPC  C21621160   2.711   0.391   4.794  0.2465 -0.1164  0.0821
  184POPC  H16R21161   2.753   0.485   4.836  1.7186 -0.3855 -0.7508
  184POPC  H16S21162   2.675   0.414   4.691  1.0287  2.0809  0.2582
  184POPC  C21721163   2.817   0.283   4.792  0.4169 -0.8160  0.5547
  184POPC  H17R21164   2.801   0.235   4.693  1.5190 -0.6508  0.2896
  184POPC  H17S21165   2.799   0.211   4.874  1.4236 -1.3910  0.2859
  184POPC  C21821166   2.967   0.317   4.800 -0.7741  0.1286  0.1420
  184POPC  H18R21167   3.027   0.231   4.762 -1.0579  0.4529 -1.1079
  184POPC  H18S21168   2.979   0.349   4.906 -2.9932 -0.4235  0.6046
  184POPC  H18T21169   2.999   0.400   4.732 -0.4513 -0.1442 -0.0420
  184POPC   C3321170   2.805   0.740   6.042  0.1577  0.3010 -0.4585
  184POPC   H3X21171   2.875   0.805   6.099  1.1563 -1.1102 -0.0500
  184POPC   H3Y21172   2.705   0.790   6.038  0.3345  0.7312  0.3281
  184POPC   C3421173   2.861   0.716   5.900 -0.3102 -0.1032 -0.7289
  184POPC   H4X21174   2.954   0.655   5.909  0.5820  0.9999 -2.1048
  184POPC   H4Y21175   2.897   0.812   5.859  0.3756 -0.9298 -2.1123
  184POPC   C3521176   2.762   0.643   5.801 -0.1590 -0.4512  0.3968
  184POPC   H5X21177   2.740   0.542   5.841  0.0336  0.4128  2.8498
  184POPC   H5Y21178   2.816   0.632   5.705  1.6782 -0.6709  1.3977
  184POPC   C3621179   2.622   0.705   5.776  0.1080  0.4908  0.1291
  184POPC   H6X21180   2.571   0.702   5.874  0.5178 -1.9875  0.3391
  184POPC   H6Y21181   2.564   0.629   5.719  0.9224 -0.2584  0.2913
  184POPC   C3721182   2.610   0.844   5.712 -0.1494 -0.4186 -0.6456
  184POPC   H7X21183   2.683   0.905   5.769 -0.4292 -0.2091 -0.5063
  184POPC   H7Y21184   2.519   0.902   5.739  0.6051  0.2325  0.5919
  184POPC   C3821185   2.644   0.850   5.567  0.8199  0.1502  0.3992
  184POPC   H8X21186   2.550   0.852   5.507  2.1116  2.3489 -1.7170
  184POPC   H8Y21187   2.706   0.763   5.539 -2.5291 -1.7028 -1.9916
  184POPC   C3921188   2.732   0.967   5.528 -0.1578  0.3012  0.0563
  184POPC   H9X21189   2.825   0.969   5.588 -1.1247  0.2479  1.6052
  184POPC   H9Y21190   2.668   1.056   5.547 -1.3911 -0.5837  0.1725
  184POPC  C31021191   2.758   0.985   5.374  0.2779 -0.0775  0.9119
  184POPC  H10X21192   2.668   1.008   5.312  1.2562  1.4334 -0.0067
  184POPC  H10Y21193   2.797   0.887   5.339  1.0043  0.8297 -0.9774
  184POPC  C31121194   2.867   1.101   5.348  0.6804 -0.2494 -0.6602
  184POPC  H11X21195   2.956   1.081   5.412  1.3359  1.4215 -1.0123
  184POPC  H11Y21196   2.829   1.197   5.389  0.3337 -1.5837  2.4418
  184POPC  C31221197   2.915   1.099   5.202  0.5567  0.6391  0.5148
  184POPC  H12X21198   2.837   1.127   5.129 -1.9596  2.5963  3.6491
  184POPC  H12Y21199   2.963   1.002   5.180 -2.4628 -0.6618 -0.7568
  184POPC  C31321200   3.020   1.218   5.187  0.6709  0.6299  0.4684
  184POPC  H13X21201   3.105   1.200   5.256  0.5114 -1.0553  0.2679
  184POPC  H13Y21202   2.970   1.317   5.203  0.7943  0.9016 -0.7199
  184POPC  C31421203   3.090   1.246   5.047 -0.0905  0.4033 -0.2823
  184POPC  H14X21204   3.010   1.245   4.970  0.4456  0.0577 -0.8399
  184POPC  H14Y21205   3.140   1.147   5.036  0.1042  0.2049  1.9816
  184POPC  C31521206   3.171   1.373   5.043 -0.3371  0.7271  0.1440
  184POPC  H15X21207   3.243   1.378   5.127  0.6861 -1.9344 -0.4695
  184POPC  H15Y21208   3.112   1.464   5.064 -0.1326  0.4062  2.3627
  184POPC  C31621209   3.231   1.390   4.906 -0.0455 -1.0070  0.1639
  184POPC  H16X21210   3.155   1.389   4.824  1.5207 -2.0341 -1.3354
  184POPC  H16Y21211   3.307   1.316   4.874  0.7464 -0.1108 -0.0516
  184POPC  H16Z21212   3.282   1.489   4.903 -1.1881 -0.3621  1.0379
  185POPC     N21213   4.677   1.463   2.163  0.9398  0.9680 -0.0203
  185POPC   C1221214   4.769   1.522   2.268 -0.1914  0.4172  0.2742
  185POPC  H12A21215   4.782   1.625   2.240 -1.2154  0.4210 -0.2457
  185POPC  H12B21216   4.865   1.474   2.267 -0.5823 -0.3860  0.7085
  185POPC   C1321217   4.541   1.518   2.177 -0.5768  0.4340  0.3957
  185POPC  H13A21218   4.553   1.626   2.175 -3.7078  0.8566 -1.2407
  185POPC  H13B21219   4.471   1.493   2.099 -0.9885  1.3649  0.4510
  185POPC  H13C21220   4.497   1.484   2.269 -1.3319 -1.0728 -0.4983
  185POPC   C1421221   4.727   1.516   2.029  0.8516 -0.2724  0.0799
  185POPC  H14A21222   4.714   1.622   2.014 -0.5911 -0.7166 -2.2212
  185POPC  H14B21223   4.834   1.501   2.018  1.0148  0.9356 -0.1384
  185POPC  H14C21224   4.684   1.457   1.950 -1.0238 -0.7793  1.4039
  185POPC   C1521225   4.671   1.311   2.182 -0.6340  0.0155  0.3595
  185POPC  H15A21226   4.769   1.265   2.181 -0.0892  1.1290 -0.8760
  185POPC  H15B21227   4.607   1.268   2.106 -0.2301 -1.5586  0.8756
  185POPC  H15C21228   4.638   1.299   2.284 -0.4493  0.7134  0.5078
  185POPC   C1121229   4.717   1.504   2.407  0.6883 -0.6419  0.5450
  185POPC  H11A21230   4.680   1.402   2.434  1.4070 -0.3024  3.0660
  185POPC  H11B21231   4.624   1.559   2.431  0.5590 -1.0268  0.9478
  185POPC     P21232   4.907   1.451   2.572  0.2933 -0.1706  0.2128
  185POPC   O1321233   4.977   1.526   2.679 -0.4858 -0.4975 -0.0705
  185POPC   O1421234   4.990   1.393   2.467  0.4107  0.6219  0.1928
  185POPC   O1221235   4.810   1.550   2.500 -0.7404  0.5094  0.0083
  185POPC   O1121236   4.816   1.335   2.633 -0.1671 -0.6554 -0.0096
  185POPC    C121237   4.709   1.360   2.721  0.6277  0.2236 -0.3616
  185POPC    HA21238   4.625   1.289   2.703 -1.4819  2.1167  1.3645
  185POPC    HB21239   4.650   1.451   2.700 -2.3598 -0.8874  2.3808
  185POPC    C221240   4.738   1.349   2.872 -0.0857 -0.1084 -0.1628
  185POPC    HS21241   4.813   1.425   2.904 -1.6727  0.6902  1.8272
  185POPC   O2121242   4.770   1.213   2.910 -0.2778 -0.3346  0.4104
  185POPC   C2121243   4.875   1.196   2.978 -0.1801  0.6853  0.1353
  185POPC   O2221244   4.940   1.278   3.032  0.3245  0.1163 -0.6119
  185POPC   C2221245   4.921   1.052   2.972 -0.5123  0.3474  0.3216
  185POPC   H2R21246   5.001   1.068   2.896 -0.3831 -2.1303 -0.1554
  185POPC   H2S21247   4.845   0.980   2.936 -1.6037  1.6412 -0.0090
  185POPC    C321248   4.610   1.396   2.955  0.0760  0.6549  0.4728
  185POPC    HX21249   4.523   1.348   2.905  0.1953  1.2852 -0.3606
  185POPC    HY21250   4.586   1.503   2.936 -0.8574  0.3804  0.0116
  185POPC   O3121251   4.616   1.356   3.098 -0.0902 -0.1480 -0.0978
  185POPC   C3121252   4.686   1.438   3.176 -0.0584 -0.3018  0.4944
  185POPC   O3221253   4.718   1.551   3.138  0.3270 -0.1990  0.0325
  185POPC   C3221254   4.720   1.374   3.316 -0.4881 -0.1464 -0.6562
  185POPC   H2X21255   4.815   1.427   3.338 -1.8504  2.0151  0.3419
  185POPC   H2Y21256   4.735   1.269   3.282  1.7032 -0.7190  1.7176
  185POPC   C2321257   4.970   0.999   3.106 -0.1218 -0.3841 -0.0482
  185POPC   H3R21258   5.046   1.069   3.148  2.4356 -3.5344  0.9246
  185POPC   H3S21259   5.023   0.903   3.096  0.7045 -0.1935  1.9571
  185POPC   C2421260   4.855   0.971   3.204  0.4686  0.1850 -0.1470
  185POPC   H4R21261   4.822   0.868   3.178 -3.5134  1.0890  0.6492
  185POPC   H4S21262   4.770   1.043   3.201  0.6198  0.8606  4.3710
  185POPC   C2521263   4.913   0.979   3.345 -0.1985  0.6193  0.0351
  185POPC   H5R21264   4.953   1.076   3.382 -1.4390  0.5996  1.5471
  185POPC   H5S21265   4.999   0.910   3.357 -1.3016 -0.4498  2.7699
  185POPC   C2621266   4.815   0.911   3.447 -0.2625  0.0275  0.1827
  185POPC   H6R21267   4.792   0.807   3.415  0.1517 -0.0503  0.1370
  185POPC   H6S21268   4.712   0.953   3.454 -2.0791 -3.7607 -0.8571
  185POPC   C2721269   4.888   0.885   3.583  0.2023  0.3924 -0.1113
  185POPC   H7R21270   4.987   0.934   3.593  1.9113 -3.2219  3.7159
  185POPC   H7S21271   4.904   0.776   3.596 -0.2372  0.3324 -0.0441
  185POPC   C2821272   4.811   0.959   3.696  0.1041 -0.4216 -0.2710
  185POPC   H8R21273   4.776   1.058   3.660 -2.0042  0.8094  4.3476
  185POPC   H8S21274   4.879   0.971   3.783 -0.7711  1.0828  0.2353
  185POPC   C2921275   4.693   0.882   3.727  0.4997  1.0876 -0.0576
  185POPC   H9121276   4.618   0.878   3.646 -0.1317 -3.2024  0.4568
  185POPC  C21021277   4.658   0.821   3.842 -0.1544  0.9858 -0.5100
  185POPC  H10121278   4.556   0.779   3.840  0.3891 -0.3981 -2.5721
  185POPC  C21121279   4.733   0.810   3.968  0.2650  0.5309 -0.1054
  185POPC  H11R21280   4.768   0.907   4.009  0.7361 -0.3592  1.7382
  185POPC  H11S21281   4.816   0.739   3.948  0.1343  0.7506 -1.4914
  185POPC  C21221282   4.635   0.745   4.074 -0.1908 -0.7745 -0.3009
  185POPC  H12R21283   4.610   0.645   4.032 -0.5322 -0.2063 -1.5113
  185POPC  H12S21284   4.542   0.803   4.089  0.3657 -0.0471  0.4382
  185POPC  C21321285   4.709   0.730   4.205  0.5054 -0.0247 -0.8124
  185POPC  H13R21286   4.726   0.832   4.247 -2.1212 -0.3308  1.2065
  185POPC  H13S21287   4.807   0.684   4.180  1.3931  1.2789  0.1613
  185POPC  C21421288   4.627   0.650   4.307  0.6902  0.0599 -0.0603
  185POPC  H14R21289   4.608   0.550   4.260  0.3184 -0.8864  1.9958
  185POPC  H14S21290   4.529   0.700   4.319  0.2306 -0.5232 -1.1923
  185POPC  C21521291   4.696   0.636   4.440  0.3931 -0.4197  0.0858
  185POPC  H15R21292   4.682   0.730   4.498  0.3583 -1.3134  1.5733
  185POPC  H15S21293   4.807   0.631   4.443  0.3530 -0.9830  1.0850
  185POPC  C21621294   4.652   0.517   4.525 -0.4044  0.3263  0.6967
  185POPC  H16R21295   4.679   0.426   4.469 -2.0547 -0.0774  0.5048
  185POPC  H16S21296   4.542   0.499   4.530 -0.1239 -1.3590  1.4418
  185POPC  C21721297   4.704   0.513   4.669  0.2877  0.1640  0.1678
  185POPC  H17R21298   4.683   0.611   4.716  1.8664  0.7704 -0.3283
  185POPC  H17S21299   4.813   0.497   4.656  0.3891  1.2687 -0.4158
  185POPC  C21821300   4.660   0.393   4.759 -0.3456  0.0687 -0.3693
  185POPC  H18R21301   4.689   0.414   4.864  1.4259  1.0762 -1.0163
  185POPC  H18S21302   4.708   0.301   4.719  2.6281  1.8438 -1.1598
  185POPC  H18T21303   4.549   0.392   4.753 -0.4366  0.6280  0.9795
  185POPC   C3321304   4.616   1.407   3.427  0.0712 -0.5925  0.3557
  185POPC   H3X21305   4.517   1.372   3.390  0.4283 -0.3853 -0.8221
  185POPC   H3Y21306   4.603   1.515   3.446  0.6131 -0.3065 -0.8272
  185POPC   C3421307   4.652   1.330   3.553 -0.4879  0.2435 -0.4491
  185POPC   H4X21308   4.750   1.369   3.588 -0.1879 -0.6153 -0.3045
  185POPC   H4Y21309   4.668   1.225   3.519 -0.0293  0.0269  0.4120
  185POPC   C3521310   4.552   1.346   3.662  0.0323  0.0870 -0.6875
  185POPC   H5X21311   4.455   1.316   3.617 -1.5986  2.5083  0.9540
  185POPC   H5Y21312   4.549   1.452   3.696 -0.6366 -0.4567  1.0379
  185POPC   C3621313   4.578   1.252   3.777  1.1131 -0.3777 -0.0069
  185POPC   H6X21314   4.681   1.257   3.820  1.7173  0.1256 -1.4673
  185POPC   H6Y21315   4.566   1.145   3.750  0.5579  0.3165 -2.7187
  185POPC   C3721316   4.484   1.281   3.895  0.3720  0.1683 -0.2266
  185POPC   H7X21317   4.379   1.255   3.866 -0.3434  1.5792  0.9413
  185POPC   H7Y21318   4.501   1.386   3.925 -0.1281  0.1317  0.2091
  185POPC   C3821319   4.510   1.193   4.020  0.5139  0.5859  0.0296
  185POPC   H8X21320   4.523   1.088   3.985  0.0714  0.3297  0.6198
  185POPC   H8Y21321   4.424   1.196   4.090  0.8564 -0.2251  0.5031
  185POPC   C3921322   4.637   1.235   4.097  0.2348  0.5078  0.6958
  185POPC   H9X21323   4.625   1.340   4.130 -1.7487  0.3734  0.5301
  185POPC   H9Y21324   4.717   1.233   4.019 -0.2147  0.4624  0.2332
  185POPC  C31021325   4.674   1.148   4.217  0.1307 -0.3421 -0.0618
  185POPC  H10X21326   4.778   1.174   4.247  0.8098 -2.2456 -0.6444
  185POPC  H10Y21327   4.670   1.038   4.206 -0.5561 -0.4444  1.0307
  185POPC  C31121328   4.584   1.178   4.336  0.3456  0.0474 -0.3963
  185POPC  H11X21329   4.475   1.158   4.326 -0.0323  1.8980 -0.3354
  185POPC  H11Y21330   4.593   1.286   4.361 -0.4624  0.7693 -3.0007
  185POPC  C31221331   4.632   1.099   4.451  0.6251 -0.0651 -0.2577
  185POPC  H12X21332   4.742   1.111   4.458  0.4388  1.4875  0.4239
  185POPC  H12Y21333   4.594   0.995   4.439 -0.1483 -0.0419  1.6159
  185POPC  C31321334   4.582   1.154   4.591  0.0583 -0.8770 -0.2376
  185POPC  H13X21335   4.477   1.117   4.595 -0.7845  1.3684  0.0735
  185POPC  H13Y21336   4.588   1.265   4.590 -1.4535 -0.7634  0.4851
  185POPC  C31421337   4.670   1.098   4.704 -0.2339  0.4793 -0.2077
  185POPC  H14X21338   4.618   1.137   4.794 -0.3867  2.2047 -1.0010
  185POPC  H14Y21339   4.775   1.130   4.689 -0.2247  0.0819 -1.0520
  185POPC  C31521340   4.665   0.949   4.714 -0.0803  0.0102 -0.4050
  185POPC  H15X21341   4.727   0.910   4.631  1.7886  0.1505  0.8782
  185POPC  H15Y21342   4.561   0.910   4.709  0.1707 -1.1661  1.9903
  185POPC  C31621343   4.736   0.911   4.842  0.6007  0.0911  0.6577
  185POPC  H16X21344   4.671   0.936   4.928  0.5044  2.9185 -0.1416
  185POPC  H16Y21345   4.837   0.957   4.844  0.7961 -0.3267  0.6314
  185POPC  H16Z21346   4.758   0.802   4.836  2.5080  0.5081 -2.3704
  186POPC     N21347   0.144   4.844   2.168  0.1258 -0.3777 -0.0449
  186POPC   C1221348   0.150   4.697   2.127 -0.4525  0.0463  0.2053
  186POPC  H12A21349   0.248   4.677   2.087 -0.0981  1.0398  0.5604
  186POPC  H12B21350   0.085   4.687   2.041  0.3607 -0.8122 -0.3344
  186POPC   C1321351  -0.003   4.880   2.199 -0.2438  0.0091  0.4398
  186POPC  H13A21352  -0.034   4.819   2.282 -3.3138  0.0970 -0.5299
  186POPC  H13B21353  -0.016   4.985   2.220 -1.4126  0.6153 -2.7807
  186POPC  H13C21354  -0.067   4.856   2.116 -0.2411  1.4905 -0.0249
  186POPC   C1421355   0.228   4.887   2.279 -0.5118  0.3340 -0.1652
  186POPC  H14A21356   0.331   4.890   2.248 -0.3957  0.7213  0.2482
  186POPC  H14B21357   0.207   4.989   2.310  0.9123  1.1721 -1.8420
  186POPC  H14C21358   0.215   4.830   2.370 -2.3611  2.1605  0.8079
  186POPC   C1521359   0.172   4.930   2.043 -0.1693 -0.2464 -0.9661
  186POPC  H15A21360   0.271   4.915   2.003 -0.8356  0.2983 -2.9413
  186POPC  H15B21361   0.171   5.032   2.077 -1.9985 -0.4783 -0.2310
  186POPC  H15C21362   0.090   4.921   1.973 -1.4786 -0.2802  0.5146
  186POPC   C1121363   0.109   4.581   2.231 -0.7555  0.4814  0.9048
  186POPC  H11A21364   0.124   4.480   2.189 -1.1530 -1.3576  4.7530
  186POPC  H11B21365  -0.002   4.596   2.233 -1.0409 -1.2467 -0.0310
  186POPC     P21366   0.132   4.510   2.476 -0.2621 -0.3420  0.5133
  186POPC   O1321367   0.194   4.568   2.595 -0.8781  0.2205 -0.4433
  186POPC   O1421368   0.169   4.372   2.460 -0.4752  0.1955  0.7406
  186POPC   O1221369   0.185   4.590   2.352  0.4087 -0.8286 -0.3435
  186POPC   O1121370  -0.021   4.529   2.482  0.6321 -0.0277  0.3179
  186POPC    C121371  -0.074   4.661   2.504  0.3195  0.1565 -0.5236
  186POPC    HA21372  -0.158   4.677   2.432 -0.4222  0.7679  0.4558
  186POPC    HB21373  -0.002   4.742   2.480  0.1600  0.0591 -1.3946
  186POPC    C221374  -0.125   4.688   2.655  0.4880 -0.0176  0.0501
  186POPC    HS21375  -0.154   4.795   2.657 -0.7989 -0.3026 -1.8029
  186POPC   O2121376  -0.013   4.656   2.740 -0.2061 -0.7242 -0.7807
  186POPC   C2121377   0.013   4.746   2.836  0.4144 -0.4354  0.3415
  186POPC   O2221378  -0.063   4.837   2.858  0.5944 -0.5241 -0.6041
  186POPC   C2221379   0.133   4.696   2.924  0.2733 -0.3314  0.0450
  186POPC   H2R21380   0.201   4.782   2.946  0.5123 -0.9033  1.7019
  186POPC   H2S21381   0.181   4.619   2.860  1.3400  1.9216 -1.9932
  186POPC    C321382  -0.237   4.591   2.701  0.7427 -0.4476 -0.7202
  186POPC    HX21383  -0.212   4.482   2.707 -0.8415 -0.8028 -0.2223
  186POPC    HY21384  -0.316   4.596   2.623 -0.3839 -1.3459  0.3387
  186POPC   O3121385  -0.301   4.645   2.822 -0.0729  0.4983 -0.4649
  186POPC   C3121386  -0.284   4.578   2.934 -0.3526  0.2707 -0.2715
  186POPC   O3221387  -0.231   4.468   2.939  0.0025  0.1369  0.5297
  186POPC   C3221388  -0.345   4.642   3.055  0.5201  0.4262  0.0209
  186POPC   H2X21389  -0.394   4.737   3.025 -0.7172 -0.0174  0.6046
  186POPC   H2Y21390  -0.266   4.680   3.124 -0.5445  0.9940  0.9592
  186POPC   C2321391   0.081   4.635   3.064 -0.5307 -0.0286 -0.1887
  186POPC   H3R21392   0.171   4.582   3.100 -0.2984  0.9003  0.6354
  186POPC   H3S21393  -0.007   4.568   3.052 -0.4515 -0.7387  2.5395
  186POPC   C2421394   0.045   4.759   3.152 -0.0461  0.4560 -0.1732
  186POPC   H4R21395  -0.044   4.801   3.100 -0.3793 -1.9129 -1.6514
  186POPC   H4S21396   0.125   4.834   3.171  0.0827  0.3291 -0.2172
  186POPC   C2521397  -0.004   4.713   3.286  0.6786 -0.5580 -0.2718
  186POPC   H5R21398   0.076   4.649   3.329  0.9771  0.1460  0.2440
  186POPC   H5S21399  -0.088   4.640   3.280  1.5200 -1.8330  2.0363
  186POPC   C2621400  -0.018   4.830   3.386  0.7618  0.3765  0.3194
  186POPC   H6R21401  -0.108   4.891   3.365  0.3201 -1.0558 -2.2984
  186POPC   H6S21402   0.070   4.898   3.383  1.8046 -0.9089  0.6635
  186POPC   C2721403  -0.020   4.783   3.532  0.4091 -0.0373  0.5562
  186POPC   H7R21404   0.077   4.732   3.550 -0.4795 -2.0249  0.0528
  186POPC   H7S21405  -0.094   4.701   3.546  0.4216 -0.2225 -0.3855
  186POPC   C2821406  -0.078   4.888   3.634 -0.5358  0.3681  0.4355
  186POPC   H8R21407  -0.111   4.837   3.727 -0.5709  0.4930  0.4914
  186POPC   H8S21408  -0.167   4.936   3.587 -0.2737  1.5023  1.0606
  186POPC   C2921409   0.023   4.987   3.681  0.2593  0.2569 -0.4048
  186POPC   H9121410   0.062   5.045   3.597  0.3175 -1.4605 -1.6220
  186POPC  C21021411   0.086   4.993   3.801  0.0692  0.7180  0.5921
  186POPC  H10121412   0.153   5.079   3.815  0.8299 -0.1188  2.3950
  186POPC  C21121413   0.079   4.896   3.921  0.2647  0.6262  0.7784
  186POPC  H11R21414   0.184   4.861   3.925  0.0860  0.1558  1.4301
  186POPC  H11S21415   0.025   4.801   3.902 -0.4690  1.0647  0.5959
  186POPC  C21221416   0.020   4.959   4.039 -0.2059  0.2807 -0.2272
  186POPC  H12R21417  -0.085   4.977   4.008 -0.2471 -0.4078 -0.4917
  186POPC  H12S21418   0.071   5.052   4.073 -0.0160 -0.3590  1.3351
  186POPC  C21321419   0.022   4.863   4.161  0.1232 -0.7060 -0.0182
  186POPC  H13R21420  -0.010   4.762   4.129 -0.8051 -1.9495  4.1925
  186POPC  H13S21421  -0.043   4.896   4.245  0.1795  1.4408 -0.7573
  186POPC  C21421422   0.167   4.834   4.203 -0.5775  0.2603 -0.1158
  186POPC  H14R21423   0.219   4.925   4.240 -1.0404  0.5732 -0.2276
  186POPC  H14S21424   0.235   4.803   4.121 -0.0504 -1.2809  0.8503
  186POPC  C21521425   0.175   4.721   4.302  0.5662 -0.8173  0.7814
  186POPC  H15R21426   0.122   4.637   4.254 -0.9613 -0.0950  1.1331
  186POPC  H15S21427   0.116   4.743   4.394 -1.2879 -1.4956 -0.1947
  186POPC  C21621428   0.317   4.672   4.333  0.2182 -0.4871 -0.6141
  186POPC  H16R21429   0.383   4.748   4.379  1.3677 -0.4238 -2.2927
  186POPC  H16S21430   0.375   4.655   4.240  1.7429  1.4081 -0.0526
  186POPC  C21721431   0.327   4.547   4.437  0.0223  0.0425 -0.4179
  186POPC  H17R21432   0.432   4.510   4.432 -0.1454 -0.3095 -2.8291
  186POPC  H17S21433   0.267   4.461   4.400  1.1238 -1.1416  0.4655
  186POPC  C21821434   0.264   4.573   4.575 -0.4842  0.0599 -0.4064
  186POPC  H18R21435   0.153   4.577   4.571 -0.4769  0.9484 -0.0018
  186POPC  H18S21436   0.286   4.485   4.639  0.4285 -0.1159 -0.9571
  186POPC  H18T21437   0.304   4.666   4.621 -2.1435  1.3590 -1.4802
  186POPC   C3321438  -0.444   4.551   3.131  0.1285  0.6255  0.3897
  186POPC   H3X21439  -0.387   4.460   3.159 -0.2196  0.7307  1.4983
  186POPC   H3Y21440  -0.528   4.522   3.064  0.2710  0.2280  0.3793
  186POPC   C3421441  -0.510   4.621   3.264  0.7829 -0.1560 -0.1652
  186POPC   H4X21442  -0.597   4.555   3.284  2.2604 -1.6241  1.7408
  186POPC   H4Y21443  -0.552   4.720   3.238 -0.2828 -0.2550  1.1082
  186POPC   C3521444  -0.418   4.629   3.383  0.4875 -0.4533  0.7968
  186POPC   H5X21445  -0.335   4.702   3.372  2.8117 -2.8949  1.2317
  186POPC   H5Y21446  -0.371   4.530   3.400 -1.3154 -1.0461  2.9058
  186POPC   C3621447  -0.497   4.676   3.496  0.3086 -0.3509 -0.3431
  186POPC   H6X21448  -0.588   4.615   3.512 -1.3092  2.1387  0.5720
  186POPC   H6Y21449  -0.534   4.779   3.479 -3.2608 -1.0600  2.0799
  186POPC   C3721450  -0.423   4.689   3.628 -0.4754 -0.0413  0.6774
  186POPC   H7X21451  -0.332   4.750   3.609  1.2894 -2.8437 -0.6318
  186POPC   H7Y21452  -0.386   4.593   3.670 -0.0103 -0.1058  0.1334
  186POPC   C3821453  -0.508   4.735   3.750  0.0834  0.1692  0.1253
  186POPC   H8X21454  -0.591   4.667   3.777 -0.5139 -0.9857 -3.9154
  186POPC   H8Y21455  -0.548   4.834   3.722 -1.3408 -0.6371 -0.8066
  186POPC   C3921456  -0.415   4.762   3.873 -0.7405 -0.0139  0.5396
  186POPC   H9X21457  -0.338   4.841   3.857  2.1253 -2.2065  2.5973
  186POPC   H9Y21458  -0.353   4.674   3.900  0.6090  1.1351  1.3707
  186POPC  C31021459  -0.503   4.786   3.993  0.0459 -1.1439  0.6115
  186POPC  H10X21460  -0.583   4.710   3.983 -1.6108  0.8479 -4.1552
  186POPC  H10Y21461  -0.553   4.884   3.975 -3.9399 -3.2848 -1.4077
  186POPC  C31121462  -0.440   4.766   4.128 -0.4840 -0.3071  0.9240
  186POPC  H11X21463  -0.341   4.817   4.128 -0.6945  0.1082  0.1344
  186POPC  H11Y21464  -0.412   4.659   4.141 -0.8894 -0.4342  0.7686
  186POPC  C31221465  -0.526   4.821   4.247  0.5494  0.0823  0.3150
  186POPC  H12X21466  -0.581   4.913   4.218  3.8710  1.9529 -0.5999
  186POPC  H12Y21467  -0.451   4.849   4.325 -1.3415  3.4011  1.1175
  186POPC  C31321468  -0.625   4.722   4.305  0.3873  0.0629  0.0919
  186POPC  H13X21469  -0.575   4.629   4.339 -1.9805 -1.9188 -1.4935
  186POPC  H13Y21470  -0.702   4.687   4.233 -0.6150 -0.0503  1.1774
  186POPC  C31421471  -0.704   4.788   4.427 -0.8749 -0.0667 -0.0406
  186POPC  H14X21472  -0.798   4.735   4.454  0.1892 -2.8221 -1.3992
  186POPC  H14Y21473  -0.733   4.888   4.388 -0.2077 -0.3685 -1.3740
  186POPC  C31521474  -0.622   4.789   4.556  0.2140  0.7209  0.2586
  186POPC  H15X21475  -0.549   4.873   4.548 -0.8265  1.5036 -1.8237
  186POPC  H15Y21476  -0.565   4.694   4.566  0.5328  0.7644 -0.9467
  186POPC  C31621477  -0.716   4.799   4.677 -0.3093 -0.6266 -0.2659
  186POPC  H16X21478  -0.789   4.882   4.664  0.6716  0.3264  0.1249
  186POPC  H16Y21479  -0.661   4.816   4.772  0.7694  1.1732 -1.1611
  186POPC  H16Z21480  -0.775   4.707   4.696  0.3494 -0.4193  3.4334
  187POPC     N21481   3.606   0.514   2.558 -0.5798 -0.0034  0.2795
  187POPC   C1221482   3.732   0.438   2.521  1.4478  0.7529 -0.4844
  187POPC  H12A21483   3.705   0.333   2.514  0.1398  0.8065  2.3844
  187POPC  H12B21484   3.798   0.438   2.606  2.5633  0.0266 -1.3171
  187POPC   C1321485   3.645   0.653   2.600 -0.1398  0.0796 -0.3846
  187POPC  H13A21486   3.561   0.714   2.630  0.1387  0.1753  0.2270
  187POPC  H13B21487   3.706   0.651   2.689 -0.3450  0.0277 -0.2456
  187POPC  H13C21488   3.703   0.706   2.525  0.8340 -0.8215 -0.2982
  187POPC   C1421489   3.519   0.523   2.440  0.2120 -0.8453 -0.5545
  187POPC  H14A21490   3.415   0.544   2.457  0.0524 -0.6786 -1.6213
  187POPC  H14B21491   3.555   0.596   2.369 -1.9654 -0.9246 -1.8328
  187POPC  H14C21492   3.518   0.428   2.389 -1.6432 -0.9406 -0.4051
  187POPC   C1521493   3.540   0.452   2.672  0.6017 -0.2408  0.3085
  187POPC  H15A21494   3.455   0.510   2.704  0.5508  0.1476 -0.4997
  187POPC  H15B21495   3.604   0.450   2.758  1.1022  0.8937 -0.0071
  187POPC  H15C21496   3.499   0.356   2.645  0.5719 -0.1284 -0.0517
  187POPC   C1121497   3.802   0.485   2.390 -0.0387 -0.0501  0.3343
  187POPC  H11A21498   3.745   0.470   2.295 -2.3917 -0.2110  1.6854
  187POPC  H11B21499   3.885   0.414   2.371  0.4824  0.8150 -0.7269
  187POPC     P21500   4.015   0.650   2.400 -0.1876  0.2635 -0.1613
  187POPC   O1321501   4.031   0.797   2.395 -0.2133  0.2255  0.2271
  187POPC   O1421502   4.088   0.584   2.288  0.0832 -0.1898 -0.1589
  187POPC   O1221503   3.867   0.612   2.398 -0.0557  0.0606  0.0519
  187POPC   O1121504   4.075   0.594   2.541 -0.5605  0.3212 -0.5150
  187POPC    C121505   4.027   0.619   2.672 -0.6779  0.1959 -0.2418
  187POPC    HA21506   3.971   0.532   2.713  0.9543 -0.4260  0.7718
  187POPC    HB21507   3.951   0.699   2.660  0.3437  0.9219 -2.6258
  187POPC    C221508   4.127   0.671   2.774 -0.7045  0.1086  0.3159
  187POPC    HS21509   4.183   0.582   2.812 -0.2366 -0.3492 -1.3636
  187POPC   O2121510   4.055   0.745   2.872 -0.9626  0.1719 -0.8713
  187POPC   C2121511   4.088   0.713   2.992 -0.2802  0.0142  0.4813
  187POPC   O2221512   4.154   0.614   3.025  0.2237  0.5462  0.9758
  187POPC   C2221513   4.061   0.832   3.082  0.1000 -0.5187 -0.0473
  187POPC   H2R21514   3.961   0.871   3.055  1.1406  3.0782  0.8369
  187POPC   H2S21515   4.121   0.922   3.056  0.3554 -0.7310 -0.2053
  187POPC    C321516   4.225   0.770   2.703 -0.2289 -0.1096 -0.1753
  187POPC    HX21517   4.165   0.843   2.646  3.2681  0.6499 -3.3069
  187POPC    HY21518   4.277   0.707   2.628 -0.9690 -1.4082  0.3576
  187POPC   O3121519   4.318   0.841   2.792  0.4673 -0.0117  0.4928
  187POPC   C3121520   4.424   0.768   2.828  0.5419 -0.2791  0.1295
  187POPC   O3221521   4.440   0.651   2.813  0.5118 -0.3757  0.0645
  187POPC   C3221522   4.516   0.863   2.906 -0.5894 -1.2983 -0.4794
  187POPC   H2X21523   4.540   0.951   2.842 -0.3820 -1.0157 -0.0209
  187POPC   H2Y21524   4.609   0.810   2.937 -0.5968 -0.1393  1.7364
  187POPC   C2321525   4.063   0.803   3.233  0.1445  0.1755 -0.1235
  187POPC   H3R21526   4.095   0.896   3.285 -1.7435  1.0296 -0.3910
  187POPC   H3S21527   4.144   0.728   3.248 -0.2792 -0.5642 -1.3970
  187POPC   C2421528   3.937   0.764   3.307  0.0794  0.1976  0.5441
  187POPC   H4R21529   3.904   0.676   3.247 -0.8857  0.9931 -0.1192
  187POPC   H4S21530   3.861   0.845   3.309 -0.8440 -0.6701  1.7557
  187POPC   C2521531   3.961   0.707   3.456  1.2249  0.0683 -0.1527
  187POPC   H5R21532   3.862   0.686   3.502  0.9802 -0.8120 -1.0445
  187POPC   H5S21533   4.013   0.777   3.524  2.5410  0.4657 -1.5327
  187POPC   C2621534   4.041   0.572   3.453  0.0448  0.0040 -0.7476
  187POPC   H6R21535   4.150   0.593   3.447  0.8147 -1.8740  3.3426
  187POPC   H6S21536   4.002   0.511   3.368 -0.6349  1.5331 -1.5807
  187POPC   C2721537   4.018   0.485   3.576 -0.3851 -0.5291 -0.4256
  187POPC   H7R21538   4.090   0.401   3.561 -0.6950 -0.4761 -2.3974
  187POPC   H7S21539   3.922   0.428   3.578  1.2273 -3.4698  2.2133
  187POPC   C2821540   4.015   0.556   3.712 -0.0133  0.3384 -0.3795
  187POPC   H8R21541   3.918   0.610   3.719  1.0949  2.4455 -0.6404
  187POPC   H8S21542   4.107   0.618   3.714  0.2270 -0.0242  1.0058
  187POPC   C2921543   4.021   0.461   3.832 -0.1050 -0.8245 -0.2241
  187POPC   H9121544   3.927   0.419   3.870 -0.0977 -0.9891 -0.3863
  187POPC  C21021545   4.128   0.401   3.885  0.2201 -0.1725  0.5103
  187POPC  H10121546   4.123   0.331   3.970 -3.2441 -1.3454 -0.5074
  187POPC  C21121547   4.267   0.417   3.836 -0.3361  0.0446  0.0787
  187POPC  H11R21548   4.285   0.499   3.764 -2.4854 -0.3612 -1.0059
  187POPC  H11S21549   4.291   0.314   3.800 -0.2623 -0.1491  0.6624
  187POPC  C21221550   4.367   0.439   3.952  0.0587  0.7877  0.5486
  187POPC  H12R21551   4.331   0.520   4.020 -1.0791  0.6899  0.0736
  187POPC  H12S21552   4.469   0.466   3.915 -0.5547  1.1760 -0.9300
  187POPC  C21321553   4.395   0.309   4.031  0.0398  0.0948 -0.2075
  187POPC  H13R21554   4.466   0.243   3.976 -0.9707  0.2083 -1.7066
  187POPC  H13S21555   4.307   0.244   4.052  0.6599 -0.4963  0.6676
  187POPC  C21421556   4.438   0.349   4.168  0.0117 -0.0141 -0.1818
  187POPC  H14R21557   4.350   0.391   4.220  1.4490  2.2622  0.5588
  187POPC  H14S21558   4.507   0.436   4.164 -1.9220  1.6183  0.5266
  187POPC  C21521559   4.507   0.235   4.241 -0.3266  1.0616 -0.3727
  187POPC  H15R21560   4.540   0.271   4.341  0.3545 -0.1711 -0.1407
  187POPC  H15S21561   4.592   0.198   4.180 -2.4257 -3.6430 -0.9066
  187POPC  C21621562   4.408   0.118   4.269 -0.2288 -0.2508 -0.6692
  187POPC  H16R21563   4.378   0.071   4.173 -1.3489 -0.1406 -0.3978
  187POPC  H16S21564   4.316   0.157   4.319 -1.7687 -1.5673 -2.3501
  187POPC  C21721565   4.476  -0.001   4.344  0.2660 -0.3087 -0.4138
  187POPC  H17R21566   4.506   0.063   4.429 -1.4238  1.3542 -1.0083
  187POPC  H17S21567   4.567  -0.040   4.292  1.2406 -1.1263  1.7704
  187POPC  C21821568   4.379  -0.121   4.375 -0.3045  0.0061  0.2195
  187POPC  H18R21569   4.277  -0.093   4.409 -0.5831 -0.9618  0.2024
  187POPC  H18S21570   4.428  -0.173   4.460  1.5310 -2.7032 -2.3444
  187POPC  H18T21571   4.374  -0.187   4.286 -0.8111  1.1777 -0.6509
  187POPC   C3321572   4.453   0.924   3.037  0.6464 -0.0075 -0.4679
  187POPC   H3X21573   4.345   0.948   3.025  0.4720 -1.1055 -1.2209
  187POPC   H3Y21574   4.495   1.026   3.052 -0.3413  0.1937  1.1479
  187POPC   C3421575   4.467   0.831   3.152  0.8050 -0.2171 -0.6424
  187POPC   H4X21576   4.570   0.791   3.161  2.0853  3.0285  0.8067
  187POPC   H4Y21577   4.386   0.755   3.150 -0.0187  0.6534 -0.7561
  187POPC   C3521578   4.424   0.902   3.284 -1.0136  0.2472  0.4670
  187POPC   H5X21579   4.325   0.951   3.266 -1.0580 -0.6671 -2.3354
  187POPC   H5Y21580   4.503   0.978   3.298  1.6919 -2.3192  0.0005
  187POPC   C3621581   4.424   0.812   3.402  0.2320  0.3289 -0.3299
  187POPC   H6X21582   4.527   0.774   3.420  0.3647  0.6328 -0.4396
  187POPC   H6Y21583   4.347   0.735   3.377  0.9946 -0.4725 -0.2848
  187POPC   C3721584   4.371   0.893   3.520 -0.4842 -0.7480  0.2443
  187POPC   H7X21585   4.280   0.940   3.478 -0.8565 -1.7241 -0.0629
  187POPC   H7Y21586   4.447   0.970   3.546 -2.3324  0.3300  3.0496
  187POPC   C3821587   4.338   0.811   3.640 -0.2826  0.0954  0.1621
  187POPC   H8X21588   4.424   0.749   3.671  0.7325  1.0460 -0.6836
  187POPC   H8Y21589   4.257   0.736   3.631  1.7805 -2.5547  2.0911
  187POPC   C3921590   4.305   0.897   3.760  0.2472  0.1868 -0.5140
  187POPC   H9X21591   4.216   0.960   3.737 -0.0249 -0.2380 -0.6477
  187POPC   H9Y21592   4.391   0.964   3.783 -0.0494  0.3911  0.0262
  187POPC  C31021593   4.255   0.817   3.883  0.8994 -0.1270 -0.2642
  187POPC  H10X21594   4.320   0.728   3.901  1.1443  0.0016 -0.5080
  187POPC  H10Y21595   4.155   0.774   3.861  0.7656 -0.5352  1.0336
  187POPC  C31121596   4.256   0.895   4.015  0.3008  0.7050  0.9759
  187POPC  H11X21597   4.165   0.959   4.014  0.4508  0.9431 -0.6362
  187POPC  H11Y21598   4.350   0.953   4.014  1.0199 -0.3688 -1.3296
  187POPC  C31221599   4.257   0.805   4.147  0.3051 -0.0552  0.1294
  187POPC  H12X21600   4.314   0.715   4.117 -0.4400 -0.7943  0.9033
  187POPC  H12Y21601   4.149   0.781   4.152 -0.5316  2.7954 -1.5466
  187POPC  C31321602   4.302   0.876   4.285  0.4097  0.1252 -0.9173
  187POPC  H13X21603   4.261   0.978   4.273  0.5714  0.1871 -0.9441
  187POPC  H13Y21604   4.411   0.896   4.288  0.4138  0.2277 -1.6029
  187POPC  C31421605   4.250   0.810   4.417  0.0158  0.4651  0.4906
  187POPC  H14X21606   4.260   0.701   4.398  0.6601  0.3275  1.4973
  187POPC  H14Y21607   4.140   0.821   4.428 -0.5677 -2.2949 -1.5942
  187POPC  C31521608   4.328   0.837   4.542  0.1166 -0.0966  0.2019
  187POPC  H15X21609   4.322   0.945   4.565  1.0206 -0.6988  4.1298
  187POPC  H15Y21610   4.437   0.827   4.526 -0.2029 -1.5980 -1.3665
  187POPC  C31621611   4.283   0.755   4.660  0.7297 -0.2716 -0.1972
  187POPC  H16X21612   4.191   0.797   4.706 -0.4364 -0.7167 -2.0137
  187POPC  H16Y21613   4.359   0.741   4.740  1.2689  1.0433 -0.4394
  187POPC  H16Z21614   4.247   0.657   4.623  1.0503 -0.8045  0.8389
  188POPC     N21615   4.325   6.025   2.197 -0.3042 -0.1789  0.2730
  188POPC   C1221616   4.349   5.962   2.334  0.1926  0.6281  0.0122
  188POPC  H12A21617   4.391   6.035   2.401 -1.1367  1.1697  0.2869
  188POPC  H12B21618   4.411   5.875   2.319  0.8204  0.8410  1.2550
  188POPC   C1321619   4.448   6.035   2.118 -0.5544 -0.9102 -0.0234
  188POPC  H13A21620   4.517   6.102   2.167 -0.6144  0.2676 -1.4531
  188POPC  H13B21621   4.491   5.938   2.099  0.3284 -0.4962 -0.2250
  188POPC  H13C21622   4.442   6.078   2.019  0.6011  0.8353  0.6166
  188POPC   C1421623   4.226   5.960   2.105  0.0855 -0.0804 -1.1534
  188POPC  H14A21624   4.254   5.856   2.096  1.8531  0.1512  1.0214
  188POPC  H14B21625   4.126   5.962   2.146  0.5944 -1.0999  0.1855
  188POPC  H14C21626   4.228   6.015   2.012  0.5612  2.9435  0.5236
  188POPC   C1521627   4.270   6.172   2.214 -0.1362  0.0084  0.2988
  188POPC  H15A21628   4.333   6.237   2.273  1.3002 -1.1374  0.1154
  188POPC  H15B21629   4.171   6.160   2.253 -0.2975 -1.7033 -0.5327
  188POPC  H15C21630   4.251   6.205   2.113  0.9272  0.1860  0.1356
  188POPC   C1121631   4.221   5.904   2.402 -0.7339 -0.0216  0.0326
  188POPC  H11A21632   4.141   5.979   2.384 -0.5090  0.2417  0.1185
  188POPC  H11B21633   4.237   5.911   2.512 -0.5343  1.0445 -0.0604
  188POPC     P21634   4.281   5.651   2.359  0.0818  0.1774  0.0648
  188POPC   O1321635   4.420   5.683   2.316  0.3489 -0.6130 -0.2933
  188POPC   O1421636   4.221   5.540   2.279  0.5318 -0.2281  0.0079
  188POPC   O1221637   4.185   5.776   2.345 -0.3993  0.2316  0.2083
  188POPC   O1121638   4.277   5.603   2.514  0.2698  0.0144 -0.2282
  188POPC    C121639   4.163   5.520   2.555  0.7242 -0.9275  0.2076
  188POPC    HA21640   4.201   5.441   2.622  2.8275 -1.0973 -1.0811
  188POPC    HB21641   4.105   5.481   2.469  1.0806 -0.1162 -0.4189
  188POPC    C221642   4.061   5.603   2.648 -0.6331  0.1645  0.8112
  188POPC    HS21643   4.032   5.695   2.592  0.6454  0.6550  0.9166
  188POPC   O2121644   4.135   5.640   2.764 -0.2820 -0.6514  0.3976
  188POPC   C2121645   4.143   5.772   2.787  0.6314 -0.3974  0.0952
  188POPC   O2221646   4.086   5.858   2.730  0.1013  0.4416  0.2596
  188POPC   C2221647   4.239   5.799   2.904  0.7726 -0.4905 -0.2409
  188POPC   H2R21648   4.262   5.908   2.897 -1.1953 -0.0140  0.1799
  188POPC   H2S21649   4.334   5.742   2.902  0.8090 -0.7925  3.3284
  188POPC    C321650   3.940   5.524   2.689  0.0779 -0.2440  0.2834
  188POPC    HX21651   3.972   5.424   2.725 -1.7082 -1.4819 -1.3752
  188POPC    HY21652   3.882   5.506   2.596 -0.9155  5.0225 -0.4537
  188POPC   O3121653   3.859   5.583   2.796  0.1514  0.5173 -0.8132
  188POPC   C3121654   3.771   5.681   2.761  0.0724 -0.7285 -0.2326
  188POPC   O3221655   3.761   5.725   2.647 -0.6276 -0.4892 -0.3427
  188POPC   C3221656   3.699   5.736   2.883 -0.2572  1.0357  0.8066
  188POPC   H2X21657   3.591   5.717   2.864  0.5940 -1.9776 -1.8367
  188POPC   H2Y21658   3.720   5.845   2.885  0.5275  0.9705  4.3433
  188POPC   C2321659   4.172   5.772   3.041 -0.3374 -0.1814  0.0424
  188POPC   H3R21660   4.141   5.669   3.068  0.8734 -0.5661  0.0198
  188POPC   H3S21661   4.076   5.829   3.036 -0.1958 -0.0370 -2.6728
  188POPC   C2421662   4.251   5.820   3.159 -0.0864 -0.4963  0.4872
  188POPC   H4R21663   4.277   5.927   3.171  0.7372 -0.8294  1.8739
  188POPC   H4S21664   4.353   5.778   3.143 -0.7818 -1.5389 -1.7018
  188POPC   C2521665   4.217   5.759   3.292  0.4624  0.1520 -0.1269
  188POPC   H5R21666   4.203   5.651   3.272  2.8156 -0.4817  1.1878
  188POPC   H5S21667   4.114   5.794   3.313 -0.2253 -2.0201  0.2731
  188POPC   C2621668   4.326   5.783   3.404 -0.7812 -1.5394 -0.5293
  188POPC   H6R21669   4.318   5.894   3.406  0.0817 -1.4748  1.9121
  188POPC   H6S21670   4.425   5.749   3.367 -0.4011 -0.5627 -0.4575
  188POPC   C2721671   4.283   5.722   3.536 -0.3731  0.2422  0.2650
  188POPC   H7R21672   4.307   5.613   3.534 -3.0464 -0.4024 -0.7669
  188POPC   H7S21673   4.177   5.734   3.566 -0.9921  0.9859 -1.9955
  188POPC   C2821674   4.377   5.776   3.648 -0.1810  0.3141  0.8822
  188POPC   H8R21675   4.479   5.766   3.604 -0.5518  0.1477  0.0425
  188POPC   H8S21676   4.380   5.711   3.738  0.1481  1.0406  1.4073
  188POPC   C2921677   4.349   5.913   3.707  0.4373  0.2841  0.0393
  188POPC   H9121678   4.342   5.993   3.632  1.7248 -0.1484 -0.5676
  188POPC  C21021679   4.338   5.943   3.842 -0.2535 -0.2541  0.1591
  188POPC  H10121680   4.299   6.043   3.863  0.7554 -0.1072  1.4256
  188POPC  C21121681   4.355   5.867   3.972 -0.8439 -0.0860 -0.8045
  188POPC  H11R21682   4.382   5.759   3.964  0.9197 -0.0602  2.9186
  188POPC  H11S21683   4.255   5.865   4.019  0.2500 -1.9213  1.7016
  188POPC  C21221684   4.443   5.939   4.069  0.1579 -0.2857 -1.0607
  188POPC  H12R21685   4.400   6.039   4.089  0.2686 -0.2601 -0.9462
  188POPC  H12S21686   4.544   5.951   4.024  0.3944  4.2850  0.2307
  188POPC  C21321687   4.456   5.868   4.200 -0.1066 -0.1753 -0.1099
  188POPC  H13R21688   4.483   5.764   4.175  0.0114 -0.4616  1.1165
  188POPC  H13S21689   4.362   5.861   4.258 -0.6313 -1.0094 -1.0441
  188POPC  C21421690   4.553   5.930   4.304 -0.3481  0.1158  0.4457
  188POPC  H14R21691   4.636   5.979   4.249 -0.8065  0.1216 -0.2535
  188POPC  H14S21692   4.595   5.853   4.372  1.2832 -0.4554 -1.1384
  188POPC  C21521693   4.485   6.025   4.396  0.2311  0.1674  0.4202
  188POPC  H15R21694   4.398   5.964   4.429 -0.4948  1.7217  1.5323
  188POPC  H15S21695   4.448   6.114   4.342 -3.4953 -2.6570 -2.2541
  188POPC  C21621696   4.559   6.078   4.516 -1.3626 -0.3985 -0.5518
  188POPC  H16R21697   4.664   6.099   4.485 -1.7948  2.2905 -0.4033
  188POPC  H16S21698   4.565   6.005   4.600 -0.0641  0.5060  0.1739
  188POPC  C21721699   4.495   6.200   4.580 -1.2181 -0.1193 -0.1005
  188POPC  H17R21700   4.395   6.159   4.607 -1.0238  0.3001  1.3616
  188POPC  H17S21701   4.479   6.280   4.505 -2.0557  0.9765  1.1804
  188POPC  C21821702   4.562   6.266   4.699 -0.0269 -0.2175  0.1308
  188POPC  H18R21703   4.669   6.270   4.668 -0.2508  1.2629 -0.5347
  188POPC  H18S21704   4.556   6.199   4.787  1.9625  0.1157  0.5762
  188POPC  H18T21705   4.526   6.365   4.735  0.2008 -0.6447  1.6023
  188POPC   C3321706   3.732   5.664   3.019 -0.1314 -0.3162  0.0951
  188POPC   H3X21707   3.815   5.590   3.013 -0.1354 -0.2758 -0.5415
  188POPC   H3Y21708   3.638   5.614   3.052  0.4477 -0.1149  2.1375
  188POPC   C3421709   3.772   5.771   3.122  1.3224  1.0071  0.5053
  188POPC   H4X21710   3.691   5.842   3.146  0.4463  0.6120 -1.1138
  188POPC   H4Y21711   3.851   5.835   3.077  2.6528 -0.5626  0.4991
  188POPC   C3521712   3.811   5.727   3.262 -0.4342  0.2093  0.2537
  188POPC   H5X21713   3.881   5.795   3.314  1.9979 -1.5232 -0.5496
  188POPC   H5Y21714   3.855   5.626   3.242  0.3818  1.1115 -3.1416
  188POPC   C3621715   3.695   5.696   3.351 -0.5374  0.0013 -0.3487
  188POPC   H6X21716   3.624   5.622   3.308 -0.1154 -0.9673  0.5799
  188POPC   H6Y21717   3.640   5.793   3.359  3.1406  2.1569  2.7246
  188POPC   C3721718   3.747   5.645   3.485 -0.2586  0.4897 -0.1844
  188POPC   H7X21719   3.795   5.545   3.491  0.1803  0.7570  1.2769
  188POPC   H7Y21720   3.666   5.623   3.558  0.4541 -0.4772  0.3339
  188POPC   C3821721   3.840   5.740   3.564 -0.3328  0.3870 -0.5151
  188POPC   H8X21722   3.821   5.847   3.538 -1.6625  0.7289  1.6512
  188POPC   H8Y21723   3.948   5.721   3.546 -0.3359 -0.2119  0.0859
  188POPC   C3921724   3.823   5.730   3.716  0.1620 -0.5329 -0.1385
  188POPC   H9X21725   3.824   5.626   3.757 -2.1011 -0.7222 -0.4584
  188POPC   H9Y21726   3.723   5.771   3.739  0.5515  0.0876  0.4798
  188POPC  C31021727   3.924   5.812   3.802 -0.2848  0.2891 -0.5424
  188POPC  H10X21728   3.924   5.916   3.762 -0.2360 -0.1877 -1.8184
  188POPC  H10Y21729   4.026   5.776   3.780  1.4675  2.8884  2.4603
  188POPC  C31121730   3.902   5.806   3.960  0.4996 -0.0555  0.0289
  188POPC  H11X21731   3.988   5.864   4.001  0.8674 -0.8326  0.3900
  188POPC  H11Y21732   3.913   5.703   4.001 -1.0045 -0.5292 -0.7094
  188POPC  C31221733   3.757   5.862   4.000 -0.5059 -0.5904 -0.2258
  188POPC  H12X21734   3.674   5.793   3.973 -2.0002  1.0469 -0.0038
  188POPC  H12Y21735   3.729   5.960   3.955 -1.0821 -0.6615 -0.0329
  188POPC  C31321736   3.748   5.874   4.162  0.6413  0.0366 -0.1637
  188POPC  H13X21737   3.649   5.910   4.198 -0.1479 -2.9514  0.8763
  188POPC  H13Y21738   3.823   5.943   4.206 -0.9189  1.8280 -0.2051
  188POPC  C31421739   3.764   5.742   4.240 -0.1602 -0.0782  0.3302
  188POPC  H14X21740   3.865   5.697   4.230  0.1747  1.1651 -3.6589
  188POPC  H14Y21741   3.693   5.668   4.199 -1.3719  0.9019  0.5999
  188POPC  C31521742   3.723   5.755   4.386  0.6246 -0.1090  0.3967
  188POPC  H15X21743   3.621   5.797   4.394  0.9252  0.5829  0.6646
  188POPC  H15Y21744   3.779   5.838   4.434 -0.1793  0.4981  0.2967
  188POPC  C31621745   3.752   5.632   4.475 -0.3235  0.1962  0.2516
  188POPC  H16X21746   3.714   5.542   4.421 -0.4078  1.7253 -2.4267
  188POPC  H16Y21747   3.718   5.634   4.580  2.1705  0.5347  1.1173
  188POPC  H16Z21748   3.862   5.622   4.484 -0.1890  1.6329  0.3284
  189SAPI   C1221749   6.534   2.623   7.142 -0.6400  0.5452  0.2290
  189SAPI    H221750   6.481   2.527   7.128  0.3762  0.2103 -1.6548
  189SAPI    O221751   6.533   2.645   7.286 -0.0497  0.0445 -0.8428
  189SAPI   HO221752   6.484   2.575   7.330 -0.0312  1.3784  1.4601
  189SAPI   C1321753   6.679   2.605   7.094 -0.4418 -0.4547  0.1384
  189SAPI    H321754   6.676   2.573   6.987  1.6567  0.0593 -0.1181
  189SAPI    O321755   6.746   2.492   7.156  0.2305 -0.2151 -0.3055
  189SAPI   HO321756   6.780   2.517   7.242 -1.5289 -2.1220  1.0385
  189SAPI   C1421757   6.760   2.734   7.099 -0.6103  0.2835  0.3194
  189SAPI    H421758   6.805   2.738   7.201  2.7943  1.2284 -1.1054
  189SAPI    O421759   6.869   2.731   7.005 -0.1522  0.4454  0.3064
  189SAPI   HO421760   6.954   2.716   7.048  0.6528 -1.0031 -1.6311
  189SAPI   C1521761   6.683   2.868   7.093  0.3125 -0.2559 -0.5108
  189SAPI    H521762   6.711   2.905   6.992 -0.9952  0.2784 -0.6977
  189SAPI    O521763   6.743   2.968   7.186  0.0759  0.2141 -0.0437
  189SAPI   HO521764   6.814   3.016   7.144  2.2946 -0.5833  2.5680
  189SAPI   C1621765   6.529   2.857   7.100 -0.5356  0.0173 -0.2958
  189SAPI    H621766   6.491   2.876   7.203 -2.7966 -1.5828 -0.7609
  189SAPI    O621767   6.464   2.961   7.022 -0.8838  0.4380  0.1650
  189SAPI   HO621768   6.414   3.018   7.080  0.5760  2.5693 -0.5658
  189SAPI   C1121769   6.458   2.728   7.070  0.1153 -0.1844 -0.4475
  189SAPI    H121770   6.482   2.704   6.964 -1.4395 -0.0011 -0.8614
  189SAPI     P21771   6.213   2.625   7.039  0.6666 -0.3379  0.0890
  189SAPI   O1321772   6.075   2.653   7.074  0.1369  0.3447 -0.2470
  189SAPI   O1421773   6.255   2.492   7.077 -0.7269  0.0407  0.1211
  189SAPI   O1221774   6.314   2.734   7.105  0.0366 -0.1728 -0.1571
  189SAPI   O1121775   6.233   2.633   6.886  0.1278 -0.1914 -0.2451
  189SAPI    C121776   6.174   2.743   6.818 -0.5484 -0.0414  0.2681
  189SAPI    HA21777   6.167   2.837   6.877 -3.5919 -0.9062  1.5004
  189SAPI    HB21778   6.235   2.770   6.729 -0.5569 -1.9114 -0.3397
  189SAPI    C221779   6.029   2.718   6.772 -0.6707  0.5829  0.3750
  189SAPI    HS21780   5.969   2.685   6.859  2.0740 -3.4166  1.0259
  189SAPI   O2121781   6.044   2.603   6.683  0.4924 -0.1212 -0.0263
  189SAPI   C2121782   5.927   2.541   6.653  0.7352 -0.3420 -0.1052
  189SAPI   O2221783   5.816   2.580   6.688 -0.3020  0.5639  0.3289
  189SAPI   C2221784   5.947   2.424   6.557  0.5568  0.7728 -0.1597
  189SAPI   H2R21785   6.014   2.466   6.479 -0.1777 -1.5145 -2.1198
  189SAPI   H2S21786   6.013   2.351   6.608  0.2271  0.2725 -0.4543
  189SAPI    C321787   5.969   2.839   6.700 -0.1698 -1.2621 -0.3827
  189SAPI    HX21788   5.962   2.925   6.771 -0.1415 -2.5269  1.2109
  189SAPI    HY21789   5.866   2.809   6.673  0.8510 -2.9412 -2.7351
  189SAPI   O3121790   6.034   2.881   6.582  0.5015  0.1461 -0.2527
  189SAPI   C3121791   5.972   2.918   6.475  0.3542 -0.5414  0.1555
  189SAPI   O3221792   5.853   2.939   6.466  0.3172 -0.6783 -0.2757
  189SAPI   C3221793   6.063   2.940   6.365 -0.3934 -0.5448  0.6905
  189SAPI   H2X21794   6.073   2.835   6.329 -1.0983  0.0661 -1.4848
  189SAPI   H2Y21795   6.165   2.967   6.399 -0.4173 -0.9836  1.1167
  189SAPI   C2321796   5.824   2.344   6.507 -0.0968  0.2245  0.0872
  189SAPI   H3R21797   5.764   2.314   6.595  0.2337  0.9147  0.5508
  189SAPI   H3S21798   5.858   2.249   6.460 -0.3863  0.3230 -0.3285
  189SAPI   C2421799   5.737   2.420   6.410  0.5227 -0.1211 -0.2005
  189SAPI   H4R21800   5.707   2.521   6.446 -2.2082 -0.1307 -2.1520
  189SAPI   H4S21801   5.637   2.372   6.408  0.6268 -0.3008 -1.7509
  189SAPI   C2521802   5.803   2.417   6.276 -0.4532  0.2267 -0.2773
  189SAPI   H5R21803   5.813   2.320   6.227  0.7410  1.1668 -1.9825
  189SAPI   C2621804   5.849   2.519   6.196 -0.4320  1.0265 -0.1778
  189SAPI   H6R21805   5.883   2.485   6.096 -2.1378  2.2959 -1.2349
  189SAPI   C2721806   5.833   2.664   6.222 -0.0684 -0.2891  0.6982
  189SAPI   H7R21807   5.927   2.708   6.183 -0.5549  0.4240  0.3165
  189SAPI   H7S21808   5.837   2.680   6.332 -1.9438  1.9523  0.5323
  189SAPI   C2821809   5.717   2.741   6.160 -0.2909 -0.3784  0.5067
  189SAPI   H8R21810   5.647   2.792   6.228  2.1021  1.0132  2.1027
  189SAPI   C2921811   5.706   2.780   6.033 -0.2847  0.3652  0.0107
  189SAPI   H9R21812   5.622   2.846   6.009  0.4887  1.4907  0.3316
  189SAPI  C21021813   5.787   2.719   5.922 -0.5859  0.0157 -0.3362
  189SAPI  H10R21814   5.708   2.712   5.844 -1.6163 -0.6759  0.7464
  189SAPI  H10S21815   5.827   2.621   5.953 -1.5385 -0.3312 -0.1797
  189SAPI  C21121816   5.900   2.810   5.881  0.1678 -0.1236 -0.0933
  189SAPI  H11R21817   5.936   2.878   5.959 -0.3381  1.8307 -1.4838
  189SAPI  C21221818   5.941   2.830   5.754  0.0844 -0.5669  0.0504
  189SAPI  H12R21819   6.031   2.894   5.757 -1.1441  1.3485 -1.7354
  189SAPI  C21321820   5.902   2.769   5.620  0.7217  1.0295  0.2196
  189SAPI  H13R21821   5.811   2.824   5.589 -0.4471 -0.8239  0.2360
  189SAPI  H13S21822   5.874   2.664   5.641 -1.3287  1.6402  0.7172
  189SAPI  C21421823   6.011   2.772   5.514 -0.3228 -0.7060 -0.0580
  189SAPI  H14R21824   6.098   2.730   5.565  0.9749  1.0280 -0.7431
  189SAPI  C21521825   6.012   2.811   5.385  0.3555 -0.6610 -0.2262
  189SAPI  H15R21826   6.103   2.801   5.325  0.4565 -0.9329 -0.0336
  189SAPI  C21621827   5.894   2.879   5.318 -0.4157  0.3231 -0.3208
  189SAPI  H16R21828   5.858   2.960   5.385  0.7385  0.4475  0.1687
  189SAPI  H16S21829   5.808   2.813   5.293 -0.2934  0.5383 -1.3569
  189SAPI  C21721830   5.926   2.944   5.183 -0.1996 -0.2896  0.0916
  189SAPI  H17R21831   6.021   3.000   5.194 -0.7075  0.8814 -1.1799
  189SAPI  H17S21832   5.851   3.023   5.161  0.7662  0.4969 -0.4377
  189SAPI  C21821833   5.944   2.842   5.072  0.1877  0.3834 -1.2915
  189SAPI  H18R21834   5.849   2.785   5.074 -1.2695  2.6816 -1.0697
  189SAPI  H18S21835   6.036   2.782   5.091  0.7198  1.7962  1.2092
  189SAPI  C21921836   5.973   2.906   4.934 -0.0942 -0.2686 -0.6543
  189SAPI  H19R21837   5.990   2.824   4.861 -2.5506 -0.4374 -1.1002
  189SAPI  H19S21838   6.061   2.974   4.927 -0.1737  0.4499  3.0431
  189SAPI  C22021839   5.853   2.997   4.880 -0.6153  0.0957 -0.3079
  189SAPI  H20R21840   5.789   2.921   4.830  1.0963 -0.0129 -2.4714
  189SAPI  H20S21841   5.887   3.067   4.801  1.0894 -0.4746 -0.1270
  189SAPI  H20T21842   5.798   3.046   4.963  2.2105 -0.8670  2.3358
  189SAPI   C3321843   6.014   3.028   6.246  0.2367  0.0450  0.2544
  189SAPI   H3X21844   6.012   3.132   6.285  1.4498  0.7618 -1.4412
  189SAPI   H3Y21845   5.908   2.999   6.225  0.1587  0.6837 -0.2776
  189SAPI   C3421846   6.111   3.033   6.124 -0.4015  0.3189  0.3701
  189SAPI   H4X21847   6.103   2.941   6.062  0.0465  0.9044 -0.5750
  189SAPI   H4Y21848   6.214   3.042   6.163 -1.1222  0.9952  2.2178
  189SAPI   C3521849   6.080   3.158   6.037 -0.0414 -0.2631  0.2171
  189SAPI   H5X21850   6.125   3.245   6.089 -0.6519  0.2212 -0.0494
  189SAPI   H5Y21851   5.971   3.174   6.029  0.3025  1.7870 -1.2668
  189SAPI   C3621852   6.165   3.150   5.904  0.1832 -0.0751  0.7861
  189SAPI   H6X21853   6.144   3.052   5.855  0.7879  0.6139 -0.9346
  189SAPI   H6Y21854   6.275   3.158   5.918  0.3019  1.5081 -0.7804
  189SAPI   C3721855   6.132   3.249   5.793  0.4032 -0.7290  0.3210
  189SAPI   H7X21856   6.167   3.353   5.815  0.0560 -1.1643  3.1906
  189SAPI   H7Y21857   6.023   3.237   5.775  0.3342  1.4335 -1.2339
  189SAPI   C3821858   6.211   3.219   5.666  0.1504 -0.2431 -0.4633
  189SAPI   H8X21859   6.227   3.111   5.645 -0.2643 -0.2566 -0.7273
  189SAPI   H8Y21860   6.316   3.255   5.675  0.2786 -1.0528  2.3287
  189SAPI   C3921861   6.143   3.283   5.546  0.0349  0.6890  0.0543
  189SAPI   H9X21862   6.132   3.393   5.556  0.2077  0.9713 -2.2489
  189SAPI   H9Y21863   6.041   3.239   5.543  0.0570  0.6734 -0.6370
  189SAPI  C31021864   6.192   3.234   5.407  0.0468 -0.1548  0.0040
  189SAPI  H10X21865   6.177   3.126   5.391  0.1608 -0.1232 -0.3167
  189SAPI  H10Y21866   6.303   3.244   5.403  0.2006 -1.8470 -0.8358
  189SAPI  C31121867   6.119   3.308   5.299  1.1378 -0.2362  0.4792
  189SAPI  H11X21868   6.010   3.286   5.309  0.8048  1.3837  0.6084
  189SAPI  H11Y21869   6.146   3.274   5.196 -2.1346 -0.4401 -0.4496
  189SAPI  C31221870   6.134   3.458   5.289  0.3511  0.4334 -0.4006
  189SAPI  H12X21871   6.241   3.474   5.315  0.7895  0.7573 -2.2701
  189SAPI  H12Y21872   6.067   3.505   5.365 -0.5473 -2.2289  0.5585
  189SAPI  C31321873   6.115   3.521   5.151  1.6381 -0.3611  1.3866
  189SAPI  H13X21874   6.096   3.628   5.173 -0.4048 -0.5125  0.5577
  189SAPI  H13Y21875   6.018   3.479   5.118  0.0939  1.0860  3.8255
  189SAPI  C31421876   6.227   3.496   5.048  0.2629  0.1838 -0.5690
  189SAPI  H14X21877   6.243   3.386   5.039  2.4754  0.4851 -0.6990
  189SAPI  H14Y21878   6.317   3.537   5.097 -1.1622  1.2041  1.3099
  189SAPI  C31521879   6.215   3.546   4.904  0.1629  0.3984 -0.6209
  189SAPI  H15X21880   6.150   3.635   4.892 -0.1854 -0.0314 -2.1860
  189SAPI  H15Y21881   6.154   3.465   4.859  1.1179 -1.8758  1.8978
  189SAPI  C31621882   6.348   3.566   4.838 -0.1931 -0.4032 -0.0113
  189SAPI  H16X21883   6.404   3.472   4.854  0.8032  0.5522  2.7893
  189SAPI  H16Y21884   6.408   3.650   4.881 -1.8867  0.6985  0.3039
  189SAPI  C31721885   6.343   3.588   4.679  0.1514  0.0154 -0.0429
  189SAPI  H17X21886   6.330   3.697   4.664 -0.3948  0.0056  0.3436
  189SAPI  H17Y21887   6.248   3.537   4.655  0.5135 -0.0074 -1.5060
  189SAPI  C31821888   6.462   3.537   4.594 -0.3671  0.0631  0.6153
  189SAPI  H18X21889   6.465   3.426   4.603 -0.0074 -0.0503 -0.7846
  189SAPI  H18Y21890   6.559   3.577   4.630  0.0818 -2.1685  2.0626
  189SAPI  H18Z21891   6.448   3.567   4.488  1.0634  2.2758  0.9985
  190SAPI   C1221892   0.309   0.515   7.201  0.6854  0.1330 -0.0484
  190SAPI    H221893   0.339   0.446   7.120 -0.7536 -0.8758  0.2220
  190SAPI    O221894   0.404   0.496   7.308  0.5668 -0.3476 -0.4344
  190SAPI   HO221895   0.373   0.418   7.354  0.3295 -0.8429 -1.4052
  190SAPI   C1321896   0.317   0.658   7.152  0.1671  0.3071 -0.5619
  190SAPI    H321897   0.241   0.658   7.071 -2.0360 -3.1249  1.2535
  190SAPI    O321898   0.438   0.687   7.085  0.5664  0.2737 -0.3763
  190SAPI   HO321899   0.511   0.670   7.146 -0.7416 -0.0529  1.1939
  190SAPI   C1421900   0.273   0.760   7.256  0.0793 -0.1106 -0.4254
  190SAPI    H421901   0.348   0.768   7.337 -0.0926  0.0979 -0.2830
  190SAPI    O421902   0.258   0.885   7.196 -0.1828  0.3541  0.2179
  190SAPI   HO421903   0.195   0.873   7.124  1.2450 -1.8400 -0.7851
  190SAPI   C1521904   0.144   0.727   7.326 -0.6687 -0.1565  0.5662
  190SAPI    H521905   0.067   0.744   7.247 -0.5800 -0.9514  0.3004
  190SAPI    O521906   0.103   0.825   7.423 -0.2335  0.6176  0.0150
  190SAPI   HO521907   0.143   0.805   7.508 -2.0845 -1.8396  0.4090
  190SAPI   C1621908   0.122   0.575   7.362 -0.9783 -0.1525 -0.0384
  190SAPI    H621909   0.182   0.548   7.452 -0.6706 -1.8707 -0.7310
  190SAPI    O621910  -0.008   0.544   7.401 -0.5115  0.2373  0.0600
  190SAPI   HO621911  -0.002   0.452   7.425  3.5376  0.7716  2.0127
  190SAPI   C1121912   0.171   0.485   7.252 -0.1454  0.0790 -0.3944
  190SAPI    H121913   0.094   0.501   7.174 -1.3217 -1.8766  0.2834
  190SAPI     P21914   0.115   0.235   7.191 -0.0489 -0.3284  0.0123
  190SAPI   O1321915  -0.018   0.275   7.145  0.6851 -0.2630 -0.3309
  190SAPI   O1421916   0.129   0.102   7.257  0.0837 -0.4971  0.2633
  190SAPI   O1221917   0.178   0.350   7.290  0.2327 -0.4161  0.2043
  190SAPI   O1121918   0.203   0.239   7.063  0.8066  0.2150 -0.0242
  190SAPI    C121919   0.336   0.172   7.061  0.2657 -0.0750  0.0638
  190SAPI    HA21920   0.416   0.236   7.103 -1.7068  1.5262  1.5454
  190SAPI    HB21921   0.336   0.080   7.123  2.3516 -0.0749  0.1214
  190SAPI    C221922   0.373   0.122   6.911 -0.4582  0.5970 -0.4086
  190SAPI    HS21923   0.470   0.071   6.928 -1.1267 -0.1215  1.5616
  190SAPI   O2121924   0.385   0.232   6.816  0.1372  0.2568  0.1650
  190SAPI   C2121925   0.477   0.317   6.844  0.3342 -0.1198  0.4467
  190SAPI   O2221926   0.560   0.305   6.931  0.9572  0.3207  0.1050
  190SAPI   C2221927   0.461   0.437   6.748 -0.9953  0.2116 -0.4389
  190SAPI   H2R21928   0.440   0.400   6.646  0.5002 -0.0678 -0.6707
  190SAPI   H2S21929   0.382   0.507   6.782 -2.0981 -1.3455  0.2772
  190SAPI    C321930   0.275   0.014   6.854 -0.8118  0.9219 -0.3139
  190SAPI    HX21931   0.185   0.080   6.858 -1.6814  0.0233 -2.8268
  190SAPI    HY21932   0.269  -0.066   6.931  0.8306  2.4321  1.4935
  190SAPI   O3121933   0.310  -0.027   6.721 -0.4895  0.3683 -0.9286
  190SAPI   C3121934   0.216  -0.087   6.657  0.5473 -0.3134 -0.1162
  190SAPI   O3221935   0.103  -0.107   6.694  1.1325 -0.4635  0.0528
  190SAPI   C3221936   0.278  -0.157   6.542  0.2813  0.8137  0.3742
  190SAPI   H2X21937   0.282  -0.268   6.548  0.1931  0.7813 -0.0832
  190SAPI   H2Y21938   0.386  -0.132   6.527  0.3749  0.9457  1.2089
  190SAPI   C2321939   0.590   0.513   6.741 -0.4373  0.1216  0.2715
  190SAPI   H3R21940   0.669   0.456   6.687 -1.2242 -2.0678  1.3232
  190SAPI   H3S21941   0.627   0.537   6.843 -0.5272 -1.8149  0.8167
  190SAPI   C2421942   0.565   0.634   6.647  0.3204 -0.4496 -0.1674
  190SAPI   H4R21943   0.534   0.598   6.547  1.6685  1.3511 -1.2968
  190SAPI   H4S21944   0.668   0.672   6.632  0.5301  0.0253  2.1086
  190SAPI   C2521945   0.482   0.741   6.707  0.7809 -0.5260  0.3016
  190SAPI   H5R21946   0.503   0.774   6.810 -0.3784  1.4663 -0.0418
  190SAPI   C2621947   0.392   0.815   6.639  0.7171  0.5508  0.0180
  190SAPI   H6R21948   0.326   0.876   6.703 -0.9021 -1.7430  0.6803
  190SAPI   C2721949   0.347   0.811   6.497  0.3989 -0.6999  0.4471
  190SAPI   H7R21950   0.392   0.724   6.444  1.0788 -0.2032  0.2088
  190SAPI   H7S21951   0.371   0.901   6.437  0.1398 -1.1250 -0.3214
  190SAPI   C2821952   0.197   0.805   6.482 -0.0345  0.6543 -0.1654
  190SAPI   H8R21953   0.139   0.818   6.575 -0.0608  1.7384 -0.3224
  190SAPI   C2921954   0.137   0.782   6.368  0.3389 -0.0475  0.5086
  190SAPI   H9R21955   0.028   0.775   6.371  0.3515 -1.4501 -1.0571
  190SAPI  C21021956   0.209   0.754   6.236 -0.4764 -0.5394  0.0796
  190SAPI  H10R21957   0.162   0.667   6.186 -1.5942  0.3227 -0.4073
  190SAPI  H10S21958   0.316   0.726   6.247 -0.5645 -1.1484 -0.5879
  190SAPI  C21121959   0.204   0.885   6.150  1.2473 -0.2173  0.2804
  190SAPI  H11R21960   0.172   0.980   6.196  0.4308 -0.5595  0.4399
  190SAPI  C21221961   0.243   0.894   6.023 -0.4418 -0.0002 -0.3049
  190SAPI  H12R21962   0.227   0.993   5.978  0.3912 -0.4668 -1.6965
  190SAPI  C21321963   0.297   0.779   5.945  0.3015 -0.2216 -0.8188
  190SAPI  H13R21964   0.213   0.722   5.900 -1.9490  2.0809  0.2105
  190SAPI  H13S21965   0.337   0.714   6.026 -0.0831  0.6343  0.0716
  190SAPI  C21421966   0.423   0.808   5.867 -0.7360  0.3070 -0.3667
  190SAPI  H14R21967   0.518   0.810   5.923  0.0218  0.1169 -1.6167
  190SAPI  C21521968   0.436   0.832   5.737  0.4859 -0.4156  0.3422
  190SAPI  H15R21969   0.534   0.862   5.697  1.1585 -1.5968  1.0253
  190SAPI  C21621970   0.320   0.838   5.643  0.1976 -0.8167  0.2055
  190SAPI  H16R21971   0.317   0.926   5.574  1.6012  0.8171  2.1201
  190SAPI  H16S21972   0.225   0.833   5.701  0.9712 -2.9886  1.3956
  190SAPI  C21721973   0.319   0.722   5.547 -0.5512  0.2660  0.2361
  190SAPI  H17R21974   0.217   0.715   5.503 -0.2710  3.0666 -1.0885
  190SAPI  H17S21975   0.350   0.625   5.591 -2.0822 -1.3603 -2.0551
  190SAPI  C21821976   0.401   0.751   5.422  0.6653  0.5558 -0.2922
  190SAPI  H18R21977   0.478   0.828   5.447  1.0299 -0.1360  0.7661
  190SAPI  H18S21978   0.354   0.795   5.332  0.7603  0.7538 -0.2480
  190SAPI  C21921979   0.487   0.632   5.379 -0.4550 -0.0409  0.1522
  190SAPI  H19R21980   0.435   0.593   5.289  0.3116 -2.1186  0.5481
  190SAPI  H19S21981   0.506   0.546   5.448 -0.9530  0.1214  0.5041
  190SAPI  C22021982   0.627   0.683   5.334 -0.2130 -0.8780  0.4590
  190SAPI  H20R21983   0.690   0.713   5.421  1.0273 -2.0502 -0.0031
  190SAPI  H20S21984   0.619   0.769   5.263  1.7153 -0.6344  0.4888
  190SAPI  H20T21985   0.685   0.601   5.286 -0.8520 -1.1128  0.0844
  190SAPI   C3321986   0.201  -0.142   6.412  0.2547  0.3811 -0.0938
  190SAPI   H3X21987   0.199  -0.039   6.372 -0.9708  0.6394  0.6053
  190SAPI   H3Y21988   0.095  -0.174   6.420  0.0147  1.2597  0.3399
  190SAPI   C3421989   0.258  -0.237   6.314  0.2804 -0.1409  0.0929
  190SAPI   H4X21990   0.252  -0.345   6.337  1.1613 -0.0012  1.0494
  190SAPI   H4Y21991   0.365  -0.206   6.307 -0.0061  0.8195 -0.2020
  190SAPI   C3521992   0.203  -0.211   6.172 -0.0860 -0.2382  0.2239
  190SAPI   H5X21993   0.236  -0.111   6.136 -0.3669 -0.1681  0.1601
  190SAPI   H5Y21994   0.092  -0.218   6.174 -0.2327  1.6751  0.8615
  190SAPI   C3621995   0.251  -0.317   6.071 -0.2449 -0.3882  0.0186
  190SAPI   H6X21996   0.213  -0.413   6.110 -1.9841  0.8956  1.6577
  190SAPI   H6Y21997   0.362  -0.309   6.061 -0.2513  0.1705  0.3177
  190SAPI   C3721998   0.189  -0.306   5.929 -0.5070  0.7268 -0.3139
  190SAPI   H7X21999   0.215  -0.208   5.883  0.6277  1.3918  1.6509
  190SAPI   H7Y22000   0.078  -0.314   5.929 -0.3989 -1.8151  1.3576
  190SAPI   C3822001   0.242  -0.414   5.834  0.2421  0.4514  0.1512
  190SAPI   H8X22002   0.207  -0.513   5.870  2.0885 -0.1097  0.4886
  190SAPI   H8Y22003   0.353  -0.411   5.832  0.2386  0.9946  0.5532
  190SAPI   C3922004   0.185  -0.396   5.695  0.3151  0.0421 -0.4127
  190SAPI   H9X22005   0.220  -0.302   5.646  0.4824  0.7800  1.0622
  190SAPI   H9Y22006   0.074  -0.390   5.699  0.2113 -0.3495 -1.9180
  190SAPI  C31022007   0.220  -0.510   5.609  0.3444  0.9894  0.4452
  190SAPI  H10X22008   0.163  -0.602   5.633  0.7561  0.5359 -0.2964
  190SAPI  H10Y22009   0.328  -0.530   5.629  0.4080  1.9382  1.0985
  190SAPI  C31122010   0.201  -0.490   5.463  0.5951  0.2687  0.3499
  190SAPI  H11X22011   0.257  -0.562   5.400 -1.8592 -0.6437 -0.9297
  190SAPI  H11Y22012   0.238  -0.388   5.440 -0.7918  1.1289  1.7036
  190SAPI  C31222013   0.051  -0.491   5.420 -0.5834 -0.7098  0.3345
  190SAPI  H12X22014  -0.000  -0.410   5.476  1.4492  2.7694 -2.3733
  190SAPI  H12Y22015   0.008  -0.592   5.436 -0.3790 -0.8997 -0.2831
  190SAPI  C31322016   0.033  -0.460   5.270  0.1823  0.1112 -0.6150
  190SAPI  H13X22017  -0.074  -0.484   5.253  0.0863 -2.3430  2.4331
  190SAPI  H13Y22018   0.102  -0.525   5.213  0.7015  0.8869 -0.8841
  190SAPI  C31422019   0.078  -0.313   5.224 -0.0422  0.3173 -0.5447
  190SAPI  H14X22020   0.187  -0.299   5.239  0.8786 -3.1234 -2.8371
  190SAPI  H14Y22021   0.022  -0.241   5.288  1.2541 -0.5767  1.7056
  190SAPI  C31522022   0.029  -0.289   5.080 -1.1000  0.0473  0.0810
  190SAPI  H15X22023   0.065  -0.369   5.011  0.0213 -0.0417  0.7457
  190SAPI  H15Y22024   0.067  -0.193   5.039  1.4680 -1.2595 -0.8615
  190SAPI  C31622025  -0.128  -0.296   5.060 -0.3574 -0.2077  0.0780
  190SAPI  H16X22026  -0.181  -0.228   5.129  1.5639 -0.3640  1.8059
  190SAPI  H16Y22027  -0.162  -0.402   5.069 -0.1771 -0.1911  1.0539
  190SAPI  C31722028  -0.171  -0.243   4.915  0.2959  0.0588 -0.0767
  190SAPI  H17X22029  -0.101  -0.272   4.834 -1.0881 -0.6773 -1.0536
  190SAPI  H17Y22030  -0.166  -0.132   4.911 -0.7520  0.2752  2.4781
  190SAPI  C31822031  -0.316  -0.291   4.875 -0.4437  0.2387 -0.3019
  190SAPI  H18X22032  -0.362  -0.228   4.796 -0.8362  0.4312  0.0776
  190SAPI  H18Y22033  -0.386  -0.284   4.960  1.5251  4.0148  1.2633
  190SAPI  H18Z22034  -0.317  -0.395   4.836 -0.9786  1.0423 -2.6317
  191SAPI   C1222035   0.888   5.791   1.911  0.3650 -0.0120 -0.0196
  191SAPI    H222036   0.929   5.688   1.906 -1.9188 -0.9842  0.0564
  191SAPI    O222037   0.997   5.873   1.947  0.0941 -0.3170  0.0015
  191SAPI   HO222038   1.012   5.867   2.042  0.4738  1.0723  0.0508
  191SAPI   C1322039   0.829   5.814   1.774 -0.0631 -0.4740 -0.0335
  191SAPI    H322040   0.734   5.758   1.760 -0.3754 -0.1334  0.6605
  191SAPI    O322041   0.925   5.776   1.665 -0.1123  0.2358 -0.2175
  191SAPI   HO322042   1.010   5.803   1.700  0.2938  0.5038 -1.3434
  191SAPI   C1422043   0.801   5.967   1.771  0.7046 -0.0298  0.7681
  191SAPI    H422044   0.896   6.025   1.782  1.0142  0.3259 -2.7609
  191SAPI    O422045   0.748   5.998   1.644  0.2655 -0.1577  0.2253
  191SAPI   HO422046   0.793   5.951   1.573 -2.7602 -0.7842 -1.4263
  191SAPI   C1522047   0.698   6.003   1.877  0.8359  0.1589 -0.0159
  191SAPI    H522048   0.605   5.968   1.826  1.5040  1.5847 -2.4015
  191SAPI    O522049   0.670   6.142   1.884 -0.6475  0.5869  0.3697
  191SAPI   HO522050   0.749   6.193   1.860 -0.4285  0.2827  0.4381
  191SAPI   C1622051   0.707   5.936   2.015 -1.3003  0.0929  0.1371
  191SAPI    H622052   0.783   5.998   2.067 -0.0202 -0.7736 -0.6523
  191SAPI    O622053   0.583   5.948   2.090  0.1808 -0.2543  0.4410
  191SAPI   HO622054   0.600   5.988   2.175  0.0395  0.7510  0.0124
  191SAPI   C1122055   0.776   5.796   2.017 -0.0632  0.6287  0.4250
  191SAPI    H122056   0.697   5.721   1.995  0.9526 -0.3369 -0.0335
  191SAPI     P22057   0.876   5.624   2.198 -0.1902 -0.3476 -0.0794
  191SAPI   O1322058   1.019   5.641   2.205 -0.1496 -0.0666 -0.4487
  191SAPI   O1422059   0.827   5.521   2.105  0.8185 -0.7821 -0.0341
  191SAPI   O1222060   0.812   5.771   2.156  0.4492  0.2538  0.5443
  191SAPI   O1122061   0.825   5.610   2.344  0.0881  0.8469 -0.2386
  191SAPI    C122062   0.726   5.676   2.422 -0.1229 -0.2248  0.0303
  191SAPI    HA22063   0.663   5.742   2.358 -0.7520 -2.1281 -1.4289
  191SAPI    HB22064   0.659   5.594   2.456  0.9442 -1.2816 -0.3639
  191SAPI    C222065   0.799   5.771   2.524  0.3460  0.1986  0.4838
  191SAPI    HS22066   0.849   5.849   2.462  1.7700  0.2419  1.6309
  191SAPI   O2122067   0.893   5.699   2.598 -0.2521  0.3577 -0.0168
  191SAPI   C2122068   0.968   5.773   2.679  0.7219  0.1963 -0.0753
  191SAPI   O2222069   0.971   5.895   2.669 -0.3240  0.6050  0.4373
  191SAPI   C2222070   1.030   5.690   2.786 -0.1432 -0.4876 -0.2045
  191SAPI   H2R22071   0.952   5.633   2.842  0.1310  0.1780  0.8919
  191SAPI   H2S22072   1.109   5.621   2.750 -1.5237 -3.0987  1.4333
  191SAPI    C322073   0.694   5.849   2.616  0.7448  0.1745  0.7756
  191SAPI    HX22074   0.627   5.898   2.542  1.0800  0.0704  0.4019
  191SAPI    HY22075   0.751   5.934   2.659 -0.0945  0.7155  0.8401
  191SAPI   O3122076   0.637   5.773   2.725  0.1228 -0.7724  0.0472
  191SAPI   C3122077   0.522   5.720   2.702 -0.3399  0.2717  0.1053
  191SAPI   O3222078   0.461   5.723   2.593  0.1556  0.4289 -0.4993
  191SAPI   C3222079   0.485   5.650   2.833 -0.8829 -0.1377  0.6344
  191SAPI   H2X22080   0.445   5.726   2.904 -3.1627  0.8561 -1.5649
  191SAPI   H2Y22081   0.571   5.599   2.881 -1.0649 -0.6174  0.4574
  191SAPI   C2322082   1.102   5.777   2.895 -0.2754  0.4511  0.5040
  191SAPI   H3R22083   1.039   5.845   2.955 -0.1972  2.5204 -1.6131
  191SAPI   H3S22084   1.174   5.849   2.852 -0.4519  0.5240  0.3260
  191SAPI   C2422085   1.163   5.686   3.010  0.2024  0.0820  0.8828
  191SAPI   H4R22086   1.089   5.620   3.059  0.2248 -1.0831 -0.5737
  191SAPI   H4S22087   1.205   5.761   3.080 -0.3051  3.5110 -2.2095
  191SAPI   C2522088   1.280   5.602   2.951  0.8401  0.3999 -0.2714
  191SAPI   H5R22089   1.376   5.655   2.958  0.3708  1.3246 -0.7859
  191SAPI   C2622090   1.282   5.469   2.917  0.1995 -0.7423 -0.1727
  191SAPI   H6R22091   1.378   5.427   2.884 -0.6293 -2.0375 -1.0144
  191SAPI   C2722092   1.164   5.377   2.931 -0.3312  0.4046 -0.1809
  191SAPI   H7R22093   1.062   5.421   2.927 -0.1215  0.8068 -1.6217
  191SAPI   H7S22094   1.173   5.331   3.032 -0.3196 -0.0394 -0.3826
  191SAPI   C2822095   1.177   5.261   2.840  0.1756 -0.1730  0.4371
  191SAPI   H8R22096   1.281   5.228   2.831  0.5832  1.5774 -2.9936
  191SAPI   C2922097   1.081   5.174   2.797 -0.3381  0.1287  0.3424
  191SAPI   H9R22098   1.113   5.097   2.725  0.1943  0.2179  0.4830
  191SAPI  C21022099   0.925   5.179   2.807 -0.7353  0.6887 -0.5886
  191SAPI  H10R22100   0.873   5.128   2.723 -0.1099 -1.4889  0.2741
  191SAPI  H10S22101   0.892   5.284   2.793 -0.0289  1.0747  0.5202
  191SAPI  C21122102   0.890   5.114   2.936  0.2844  0.3215 -0.2921
  191SAPI  H11R22103   0.944   5.020   2.954 -0.2185  0.1913  0.5695
  191SAPI  C21222104   0.813   5.174   3.037 -0.3175  0.4405  1.1495
  191SAPI  H12R22105   0.793   5.113   3.126 -0.3740  0.3276  1.0586
  191SAPI  C21322106   0.736   5.312   3.049  0.0036  1.3210 -0.1144
  191SAPI  H13R22107   0.637   5.292   3.095  0.9167 -2.5304  0.4853
  191SAPI  H13S22108   0.721   5.349   2.945 -0.5353  0.5735 -0.3109
  191SAPI  C21422109   0.823   5.414   3.111  0.1865 -0.1655  0.3841
  191SAPI  H14R22110   0.928   5.410   3.078 -0.6867 -0.7390 -2.6318
  191SAPI  C21522111   0.785   5.515   3.193 -1.1712  0.5389  0.6624
  191SAPI  H15R22112   0.873   5.576   3.219  1.4279 -0.6570 -4.1032
  191SAPI  C21622113   0.645   5.546   3.239  0.0734  0.1677  0.0100
  191SAPI  H16R22114   0.565   5.480   3.198  1.1940 -0.8812 -0.5653
  191SAPI  H16S22115   0.620   5.645   3.196 -1.2836 -0.3640 -0.4890
  191SAPI  C21722116   0.611   5.534   3.388 -0.2392 -0.4869 -0.2285
  191SAPI  H17R22117   0.517   5.588   3.416 -1.1938 -2.4402  0.5224
  191SAPI  H17S22118   0.697   5.566   3.451  0.6013 -0.5171 -1.3301
  191SAPI  C21822119   0.595   5.390   3.431 -0.7744 -0.3753 -0.5514
  191SAPI  H18R22120   0.692   5.336   3.424 -0.8415 -0.8316  1.4692
  191SAPI  H18S22121   0.534   5.333   3.358 -2.4865 -1.6654  1.7368
  191SAPI  C21922122   0.550   5.365   3.575 -0.1985 -0.1867 -0.3635
  191SAPI  H19R22123   0.469   5.438   3.593 -1.0030 -1.0467 -0.4200
  191SAPI  H19S22124   0.632   5.393   3.645 -0.8086  0.3595  0.1431
  191SAPI  C22022125   0.475   5.237   3.593  0.0540  0.9930 -0.3544
  191SAPI  H20R22126   0.405   5.210   3.512  0.8350 -0.0257 -0.7170
  191SAPI  H20S22127   0.401   5.238   3.676  0.2655  0.2422 -0.1452
  191SAPI  H20T22128   0.553   5.160   3.610 -0.3733  0.8117  0.8694
  191SAPI   C3322129   0.360   5.557   2.812 -0.9676 -0.4019  0.0252
  191SAPI   H3X22130   0.389   5.482   2.736 -1.8248 -2.1618  1.3751
  191SAPI   H3Y22131   0.268   5.613   2.783 -0.7291 -0.7368 -1.4329
  191SAPI   C3422132   0.335   5.480   2.942  0.2632  0.2309  0.3318
  191SAPI   H4X22133   0.430   5.438   2.981 -0.5667 -1.1461  0.9303
  191SAPI   H4Y22134   0.266   5.397   2.916  2.4784 -1.5597 -0.2131
  191SAPI   C3522135   0.276   5.567   3.048 -0.7812 -0.6007  0.5266
  191SAPI   H5X22136   0.194   5.628   3.003  1.2198  2.0115  0.1744
  191SAPI   H5Y22137   0.354   5.643   3.071  0.8999 -2.3181  0.7431
  191SAPI   C3622138   0.231   5.480   3.170  0.1337 -0.3067  0.9377
  191SAPI   H6X22139   0.328   5.434   3.202 -0.2797 -2.1287 -0.2802
  191SAPI   H6Y22140   0.170   5.398   3.128 -0.0908 -0.1850  1.0264
  191SAPI   C3722141   0.162   5.551   3.281  0.2184  0.5580 -0.6962
  191SAPI   H7X22142   0.066   5.602   3.257 -0.3715  0.7260  1.7450
  191SAPI   H7Y22143   0.234   5.633   3.301  0.8029  0.4863 -2.3819
  191SAPI   C3822144   0.152   5.456   3.400 -0.6342  0.6843 -0.8041
  191SAPI   H8X22145   0.253   5.427   3.434 -1.2514  1.1392  1.5822
  191SAPI   H8Y22146   0.097   5.364   3.370 -1.2353  0.5784  0.5642
  191SAPI   C3922147   0.074   5.512   3.522 -0.3806 -0.0495  0.0537
  191SAPI   H9X22148  -0.034   5.513   3.494  0.0510  0.5654 -1.6777
  191SAPI   H9Y22149   0.106   5.616   3.544 -2.5353  0.5844  0.4482
  191SAPI  C31022150   0.084   5.432   3.645 -0.4436  0.7414  0.4255
  191SAPI  H10X22151   0.192   5.433   3.671  0.9856  2.8164 -4.4276
  191SAPI  H10Y22152   0.051   5.326   3.635 -0.2625  0.5770  1.4333
  191SAPI  C31122153   0.006   5.510   3.756 -0.2656  0.0984 -0.9249
  191SAPI  H11X22154  -0.099   5.513   3.722 -0.7125 -0.2168  0.3824
  191SAPI  H11Y22155   0.034   5.617   3.761  0.0664  0.0059 -0.7461
  191SAPI  C31222156   0.018   5.444   3.902  0.3361 -0.0856  0.1241
  191SAPI  H12X22157   0.009   5.334   3.894 -0.7960 -0.0739  1.0145
  191SAPI  H12Y22158  -0.066   5.497   3.952  0.7286 -0.3704  1.1023
  191SAPI  C31322159   0.161   5.468   3.956 -0.3086  0.0194 -0.3858
  191SAPI  H13X22160   0.206   5.566   3.928 -2.9913  1.7723  0.9595
  191SAPI  H13Y22161   0.218   5.379   3.923  1.4565  0.7139  0.6453
  191SAPI  C31422162   0.158   5.470   4.112  0.6003  0.4688  0.3395
  191SAPI  H14X22163   0.068   5.522   4.150 -0.1932  0.0938 -0.9682
  191SAPI  H14Y22164   0.239   5.541   4.136  1.2709 -0.7053  1.6997
  191SAPI  C31522165   0.188   5.333   4.179  0.2900  0.0426 -0.3887
  191SAPI  H15X22166   0.291   5.298   4.154  0.5523  0.8907 -0.5396
  191SAPI  H15Y22167   0.125   5.256   4.131  1.7281 -0.7210 -1.1198
  191SAPI  C31622168   0.162   5.348   4.332  0.5548  0.8025 -0.8905
  191SAPI  H16X22169   0.059   5.388   4.342 -0.1257 -0.9655 -0.4152
  191SAPI  H16Y22170   0.219   5.434   4.373  0.5589  1.0625 -1.4277
  191SAPI  C31722171   0.190   5.225   4.408  0.0262 -0.1117  0.5666
  191SAPI  H17X22172   0.299   5.208   4.415 -0.1013 -1.7196 -0.7179
  191SAPI  H17Y22173   0.147   5.139   4.353  0.5992 -1.4624  2.1472
  191SAPI  C31822174   0.121   5.223   4.545 -0.4223  0.3869  0.4016
  191SAPI  H18X22175   0.011   5.221   4.533 -0.2272  1.7260 -2.2607
  191SAPI  H18Y22176   0.145   5.323   4.588  1.0318  0.6125 -0.8424
  191SAPI  H18Z22177   0.163   5.143   4.611  1.4233  0.1587 -0.9619
  192SAPI   C1222178   2.132   4.879   2.644  0.5588  0.2246  0.0868
  192SAPI    H222179   2.077   4.951   2.708 -1.2921 -1.0237 -0.0324
  192SAPI    O222180   2.269   4.898   2.660  0.3340  0.1379 -0.1018
  192SAPI   HO222181   2.280   4.991   2.681 -2.0952  0.4234  0.1220
  192SAPI   C1322182   2.110   4.735   2.684 -0.4220  0.3858 -0.4731
  192SAPI    H322183   2.004   4.707   2.666 -0.3057 -0.6355  0.3467
  192SAPI    O322184   2.125   4.720   2.827  0.4878 -0.1164  0.0812
  192SAPI   HO322185   2.213   4.752   2.848  0.4227  1.6585 -1.9147
  192SAPI   C1422186   2.191   4.638   2.595  0.0664  0.3379 -0.0756
  192SAPI    H422187   2.297   4.656   2.624 -0.8040  2.1580  2.3258
  192SAPI    O422188   2.154   4.502   2.626  0.1656 -0.1994 -0.1323
  192SAPI   HO422189   2.209   4.466   2.696 -1.0948  0.1905  1.1005
  192SAPI   C1522190   2.190   4.667   2.442  0.0518 -0.9222 -0.0451
  192SAPI    H522191   2.098   4.616   2.408  0.4796 -2.0751  0.4815
  192SAPI    O522192   2.289   4.594   2.376 -0.1047 -0.2446  0.5403
  192SAPI   HO522193   2.362   4.657   2.370 -2.0534  2.0940  0.0796
  192SAPI   C1622194   2.161   4.814   2.392  0.4358  1.0863  0.2794
  192SAPI    H622195   2.265   4.851   2.384  0.7369  0.1304 -0.3176
  192SAPI    O622196   2.092   4.828   2.268 -0.2167  0.2572  0.0452
  192SAPI   HO622197   2.097   4.921   2.243  1.8972 -0.3592 -2.2559
  192SAPI   C1122198   2.091   4.900   2.499  0.4476  0.2188 -0.0930
  192SAPI    H122199   1.985   4.867   2.498  0.4815 -0.3252  3.1087
  192SAPI     P22200   1.975   5.142   2.482  0.3723 -0.0002 -0.0492
  192SAPI   O1322201   1.867   5.090   2.390  0.3687  0.5814  0.7461
  192SAPI   O1422202   2.026   5.281   2.454 -0.0461  0.0213 -0.1998
  192SAPI   O1222203   2.098   5.037   2.468 -0.1272 -0.4584  0.1325
  192SAPI   O1122204   1.928   5.123   2.635 -0.4798  0.2320 -0.7923
  192SAPI    C122205   1.905   5.230   2.731 -0.1063  0.0343  0.7983
  192SAPI    HA22206   1.928   5.328   2.685  0.8030 -0.6285 -0.2241
  192SAPI    HB22207   1.799   5.225   2.764 -0.2162  0.8237  0.5805
  192SAPI    C222208   1.994   5.225   2.855  0.7332  0.2661  0.2956
  192SAPI    HS22209   2.094   5.210   2.810 -0.3041 -0.5033 -1.9006
  192SAPI   O2122210   1.960   5.111   2.939  0.2559  0.2929  0.7410
  192SAPI   C2122211   2.065   5.053   2.992 -0.2010 -0.1124  0.7593
  192SAPI   O2222212   2.181   5.073   2.961 -0.3746 -0.1525 -0.6955
  192SAPI   C2222213   2.019   4.945   3.088  0.8664  0.1654  0.3853
  192SAPI   H2R22214   1.916   4.903   3.081  2.0180 -2.8761  0.1287
  192SAPI   H2S22215   2.077   4.859   3.047  0.2567  0.6620 -1.6167
  192SAPI    C322216   1.992   5.358   2.929 -0.1539 -0.4719 -0.4730
  192SAPI    HX22217   1.895   5.369   2.983  0.3676 -0.8490  0.5754
  192SAPI    HY22218   1.992   5.443   2.858  0.3279  1.1117  1.3100
  192SAPI   O3122219   2.089   5.377   3.046  0.2295 -0.0029  0.5951
  192SAPI   C3122220   2.213   5.395   3.012  0.2843 -0.2528  0.6414
  192SAPI   O3222221   2.259   5.407   2.899 -0.0311  0.0565 -0.4300
  192SAPI   C3222222   2.301   5.393   3.137 -0.1114 -0.3713  0.4187
  192SAPI   H2X22223   2.320   5.496   3.173 -1.3382 -0.4549  1.3294
  192SAPI   H2Y22224   2.401   5.360   3.100 -0.6896 -1.4765 -0.2104
  192SAPI   C2322225   2.052   4.980   3.236 -0.3116 -0.1121 -0.3621
  192SAPI   H3R22226   1.992   5.070   3.261 -0.3468 -0.0614 -0.6300
  192SAPI   H3S22227   2.156   5.000   3.268  0.1676  0.8325 -2.3575
  192SAPI   C2422228   2.011   4.863   3.323  0.6973  0.3059 -1.3664
  192SAPI   H4R22229   2.083   4.780   3.312  0.0651 -0.3439 -0.6771
  192SAPI   H4S22230   1.917   4.822   3.280 -0.6336 -0.1883  1.7699
  192SAPI   C2522231   1.994   4.876   3.470  0.3209 -0.6885  0.1040
  192SAPI   H5R22232   2.047   4.956   3.524 -0.4295  1.2067 -1.8064
  192SAPI   C2622233   1.915   4.812   3.555 -0.1233 -0.4975  0.3439
  192SAPI   H6R22234   1.929   4.829   3.663 -1.8350 -1.8273  0.8215
  192SAPI   C2722235   1.815   4.708   3.523  0.3505 -0.0860 -0.3910
  192SAPI   H7R22236   1.787   4.667   3.622 -0.9641  2.6485  0.4735
  192SAPI   H7S22237   1.851   4.617   3.470 -0.2488 -0.4382 -0.1966
  192SAPI   C2822238   1.686   4.772   3.472 -0.0066  0.5662  1.1800
  192SAPI   H8R22239   1.674   4.743   3.366  0.5994 -0.8214  1.4705
  192SAPI   C2922240   1.591   4.832   3.542  0.9682  0.5063 -0.4869
  192SAPI   H9R22241   1.503   4.876   3.492 -1.1923 -2.0154  0.8313
  192SAPI  C21022242   1.590   4.853   3.689  1.0594 -0.2613  0.0390
  192SAPI  H10R22243   1.694   4.873   3.723  0.6363  0.0259  1.2297
  192SAPI  H10S22244   1.554   4.763   3.743  0.0948  1.4828  2.4821
  192SAPI  C21122245   1.496   4.965   3.721 -0.0630 -0.0257  0.1387
  192SAPI  H11R22246   1.404   4.969   3.660 -1.5082 -3.4677  1.7996
  192SAPI  C21222247   1.514   5.050   3.823  0.2002 -0.1215  0.9042
  192SAPI  H12R22248   1.424   5.107   3.851 -0.8745 -1.7969  0.9915
  192SAPI  C21322249   1.632   5.074   3.923 -0.4535 -0.5510 -0.0208
  192SAPI  H13R22250   1.619   5.169   3.980 -2.9529 -1.0489  0.3263
  192SAPI  H13S22251   1.726   5.082   3.864 -0.3021  2.2627  0.4278
  192SAPI  C21422252   1.648   4.965   4.021 -0.0146 -0.0025 -0.4083
  192SAPI  H14R22253   1.716   4.886   3.988  1.2945  1.3130 -0.9375
  192SAPI  C21522254   1.573   4.933   4.128  0.2447  0.5528 -0.1061
  192SAPI  H15R22255   1.595   4.841   4.184 -0.7748 -0.5591 -1.4534
  192SAPI  C21622256   1.457   5.012   4.188 -0.3567 -0.2959  0.3851
  192SAPI  H16R22257   1.360   4.978   4.146 -0.1147  0.6564 -1.0022
  192SAPI  H16S22258   1.464   5.118   4.157  2.3520 -0.4712  0.1548
  192SAPI  C21722259   1.448   5.010   4.347  0.6956 -0.0707  0.2167
  192SAPI  H17R22260   1.425   4.904   4.374 -3.7453  0.6836  0.1162
  192SAPI  H17S22261   1.352   5.057   4.380  0.2546 -2.2741  2.3780
  192SAPI  C21822262   1.564   5.086   4.408 -0.4537 -0.4567  0.8164
  192SAPI  H18R22263   1.542   5.194   4.393 -2.0216 -1.0745 -2.1049
  192SAPI  H18S22264   1.659   5.058   4.359  0.4492  2.8309  0.4223
  192SAPI  C21922265   1.590   5.061   4.558  0.0265  0.1935  0.5543
  192SAPI  H19R22266   1.698   5.069   4.583  0.1605  1.0274 -0.2137
  192SAPI  H19S22267   1.559   4.957   4.578  0.1383 -0.0934 -0.6655
  192SAPI  C22022268   1.530   5.157   4.664  0.3406  0.3535  0.2406
  192SAPI  H20R22269   1.575   5.151   4.766 -1.7631  0.8683  1.2396
  192SAPI  H20S22270   1.421   5.146   4.680  0.4029  1.7204  1.9550
  192SAPI  H20T22271   1.541   5.259   4.622 -2.2315  0.2779 -0.7764
  192SAPI   C3322272   2.242   5.298   3.250 -0.0999 -0.6101 -0.4674
  192SAPI   H3X22273   2.264   5.192   3.224 -0.7005 -0.9996  0.5599
  192SAPI   H3Y22274   2.132   5.309   3.258  0.2079  2.2127  1.6867
  192SAPI   C3422275   2.295   5.345   3.384  0.7847  0.0725 -0.2010
  192SAPI   H4X22276   2.238   5.275   3.450 -0.2233  1.0372 -0.0023
  192SAPI   H4Y22277   2.263   5.440   3.431  0.8688 -0.9187  2.0445
  192SAPI   C3522278   2.439   5.321   3.412 -0.2930  0.4981  0.4226
  192SAPI   H5X22279   2.503   5.375   3.338 -1.1916  0.5069 -0.3603
  192SAPI   H5Y22280   2.452   5.211   3.411 -0.2477  0.4845  1.7593
  192SAPI   C3622281   2.476   5.374   3.554 -0.2869 -0.4256 -0.5480
  192SAPI   H6X22282   2.403   5.337   3.629 -0.5463 -0.0849 -0.6273
  192SAPI   H6Y22283   2.476   5.485   3.551 -0.1805 -0.3477  1.3915
  192SAPI   C3722284   2.607   5.312   3.600 -0.2718  0.2951  0.1831
  192SAPI   H7X22285   2.694   5.325   3.532 -0.1119 -1.2011  0.0790
  192SAPI   H7Y22286   2.586   5.203   3.599  0.4211  0.1530  0.5321
  192SAPI   C3822287   2.658   5.365   3.737  0.9035 -1.0895 -0.1239
  192SAPI   H8X22288   2.691   5.469   3.714 -0.6324 -0.5291  0.0620
  192SAPI   H8Y22289   2.745   5.301   3.764  1.7018  0.3255  0.7771
  192SAPI   C3922290   2.558   5.356   3.848  0.0614 -0.0581 -0.1299
  192SAPI   H9X22291   2.503   5.261   3.830 -0.9068  0.9112 -2.7780
  192SAPI   H9Y22292   2.487   5.442   3.845  1.8628  1.5381 -3.9887
  192SAPI  C31022293   2.626   5.372   3.987 -0.2472  0.1689 -0.2358
  192SAPI  H10X22294   2.704   5.293   3.993  0.3008  0.7813  1.0975
  192SAPI  H10Y22295   2.553   5.344   4.066  0.5752  0.2761  0.5785
  192SAPI  C31122296   2.681   5.513   4.008 -0.1427 -0.1004 -0.2272
  192SAPI  H11X22297   2.610   5.587   3.965 -0.3912 -1.2361 -1.8665
  192SAPI  H11Y22298   2.769   5.527   3.942  3.4544 -1.8428  3.6870
  192SAPI  C31222299   2.726   5.540   4.150 -0.2047 -0.0153  0.6157
  192SAPI  H12X22300   2.634   5.559   4.209 -0.3814 -3.4959  1.6897
  192SAPI  H12Y22301   2.787   5.633   4.151 -1.6560  1.0357 -1.2401
  192SAPI  C31322302   2.799   5.435   4.231  0.1178  0.2058  1.1094
  192SAPI  H13X22303   2.885   5.404   4.167 -1.3979 -1.2136 -0.3211
  192SAPI  H13Y22304   2.737   5.345   4.248  0.7481 -0.3580  0.4780
  192SAPI  C31422305   2.848   5.488   4.363  0.5639  0.3428  0.0834
  192SAPI  H14X22306   2.757   5.536   4.404 -0.9625  0.5728 -3.2476
  192SAPI  H14Y22307   2.911   5.578   4.345  0.2474  0.5594  0.0486
  192SAPI  C31522308   2.893   5.378   4.458 -0.0485  0.4310  0.1660
  192SAPI  H15X22309   2.996   5.347   4.432 -0.6945 -1.8077  0.0729
  192SAPI  H15Y22310   2.831   5.285   4.459 -0.7416  0.8663  2.2846
  192SAPI  C31622311   2.893   5.415   4.606  0.0009 -0.7168  0.2992
  192SAPI  H16X22312   2.790   5.445   4.635 -0.0920 -1.4385  0.7507
  192SAPI  H16Y22313   2.961   5.502   4.621 -0.9105  0.7638 -3.1308
  192SAPI  C31722314   2.920   5.284   4.681  0.2807 -0.4409 -0.8949
  192SAPI  H17X22315   3.024   5.251   4.659  0.5891  0.2942 -0.5674
  192SAPI  H17Y22316   2.848   5.206   4.647  2.4687 -2.4480 -1.1834
  192SAPI  C31822317   2.898   5.294   4.837 -0.7127  0.1931 -0.0102
  192SAPI  H18X22318   2.933   5.200   4.884  0.9210  0.0717 -1.3893
  192SAPI  H18Y22319   2.788   5.288   4.853 -0.5828 -2.2875  0.3645
  192SAPI  H18Z22320   2.945   5.389   4.873  0.7926  0.6205 -2.8369
  193SOD    SOD22321   5.770   3.110   1.640 -0.3487 -0.2548  0.6838
  194SOD    SOD22322   3.910   3.159   8.066  0.6296  0.3499  0.4983
  195SOD    SOD22323   2.247   0.539   8.270 -0.4862 -0.5497  0.3644
  196SOD    SOD22324   0.594   0.985   8.067 -0.2559 -0.1498  0.1678
  197SOD    SOD22325   1.713   6.225   8.256 -0.2015  0.1510  0.1297
  198SOD    SOD22326   5.508   3.364   6.672  0.1778  0.1228  0.3150
  199SOD    SOD22327   6.606   5.757   1.192  0.1986  0.4883  0.3612
  200SOD    SOD22328   5.791   6.150   6.674 -0.0662  0.4217 -0.4445
  201SOD    SOD22329   1.795   1.394   0.506  0.0520 -0.0713 -0.4757
  202SOD    SOD22330   2.958   0.934   2.628 -0.0985  0.2227  0.5010
  203SOD    SOD22331   0.507   4.007   7.917 -0.1417  0.0095 -0.0717
  204SOD    SOD22332   6.438   3.759   8.723 -0.2405 -0.3027 -0.0301
  205SOD    SOD22333   1.356   1.567   1.540  0.4693 -0.0218 -0.6449
  206SOD    SOD22334   3.082   2.880   1.308 -0.0213 -0.1132 -0.1260
  207SOD    SOD22335   5.798   3.910   2.610 -0.3603  0.6619  0.3279
  208SOD    SOD22336   3.840   6.002   1.268  0.4953 -0.1081 -0.4223
  209SOD    SOD22337   0.497   1.965   1.053 -0.2140  0.0473  0.7797
  210SOD    SOD22338   5.483   4.256   2.189 -0.0810  0.2258 -0.0311
  211SOD    SOD22339   0.910   5.737   1.428 -0.1006 -0.3138 -0.1388
  212SOD    SOD22340   2.180   6.022   1.963  0.1444  0.1447 -0.0161
  213SOD    SOD22341   4.268   0.257   8.152  0.4681 -0.1461  0.1512
  214SOD    SOD22342   5.154   2.311   0.450 -0.2068  0.4103  0.6172
  215SOD    SOD22343   3.506   0.204   8.196  0.3766  0.0699 -0.0142
  216SOD    SOD22344   0.480   6.751   2.708 -0.3771  0.1859 -0.1471
  217SOD    SOD22345   6.115   0.981   2.622 -0.2978  0.0247 -0.3442
  218SOD    SOD22346   5.275   2.201   3.026  0.0131 -0.1642 -0.2563
  219SOD    SOD22347   6.501   3.244   7.499 -0.5557  0.1584  0.3109
  220SOD    SOD22348   4.526   3.398   1.464  0.1040 -0.2904 -0.0106
  221SOD    SOD22349   0.613   2.574   8.561 -0.0704  0.0849 -0.5061
  222SOD    SOD22350   0.718   6.478   7.820  0.2025 -0.0689 -0.0183
  223SOD    SOD22351   6.629   2.957   1.156  0.1561 -0.4326 -0.0490
  224SOD    SOD22352   5.856   0.367   0.204 -0.1626 -0.1835  0.0775
  225SOD    SOD22353   3.169   2.779   7.665 -0.1181 -0.0390 -0.5015
  226SOD    SOD22354   0.756   1.184   1.989  0.1270  0.1411  0.0875
  227SOD    SOD22355   4.312   6.220   0.357  0.3716  0.4257 -0.2551
  228SOD    SOD22356   3.177   5.111   0.101  0.3426  0.1635  0.1683
  229SOD    SOD22357   1.819   1.236   7.020 -0.0737 -0.5004 -0.3493
  230CLA    CLA22358   1.470   4.125   8.666  0.1326 -0.0472 -0.1632
  231CLA    CLA22359   0.246   0.767   7.723 -0.3012  0.2088  0.1943
  232CLA    CLA22360   1.277   0.827   1.077  0.3022 -0.0721 -0.2976
  233CLA    CLA22361   6.345   5.899   1.599  0.3692 -0.3049  0.5073
  234CLA    CLA22362   3.915   4.695   8.617  0.2623 -0.2820 -0.0557
  235CLA    CLA22363   3.679   5.658   1.678 -0.1757  0.0133 -0.0647
  236CLA    CLA22364   0.700   2.558   8.822 -0.0491 -0.3834  0.2386
  237CLA    CLA22365   3.044   1.390   0.515  0.4259  0.2710  0.1614
  238CLA    CLA22366   4.278   2.824   1.784 -0.0140  0.1441  0.0108
  239CLA    CLA22367   0.310   3.456   7.808 -0.1251  0.2860  0.0003
  240CLA    CLA22368   3.354   3.090   8.825  0.0438 -0.0854  0.0393
  241CLA    CLA22369   1.129   0.436   7.809 -0.1886 -0.3325  0.0555
  242CLA    CLA22370   1.477   6.705   1.081 -0.0268  0.0146  0.3127
  243CLA    CLA22371   0.493   1.966   1.573 -0.1141 -0.3021 -0.0178
  244CLA    CLA22372   3.194   4.634   2.233  0.3927  0.3902 -0.3929
  245CLA    CLA22373   3.391   3.256   8.146 -0.5581  0.2801 -0.0104
  246CLA    CLA22374   5.706   2.743   7.958 -0.2208  0.0018  0.3041
  247TIP3   OH222375   6.168   2.497   7.896 -0.3401 -0.1914  0.0586
  247TIP3    H122376   6.238   2.561   7.904 -0.1836 -0.4230  0.5441
  247TIP3    H222377   6.178   2.461   7.808 -1.4341  1.6103 -0.8719
  248TIP3   OH222378   4.464   4.476   0.321  0.6861 -0.9440  0.2543
  248TIP3    H122379   4.559   4.489   0.316  0.8607 -2.0573  0.3095
  248TIP3    H222380   4.453   4.418   0.397 -0.1019 -0.3000  0.6406
  249TIP3   OH222381   4.177   5.706   0.233 -0.1596  0.1519  0.3257
  249TIP3    H122382   4.155   5.776   0.171 -1.2890  0.7633  1.3759
  249TIP3    H222383   4.197   5.631   0.177 -1.9043  0.4573 -0.8135
  250TIP3   OH222384   0.100   2.382   1.066 -0.4583  0.3949  0.4475
  250TIP3    H122385   0.120   2.388   0.973 -0.7043 -2.7242  0.0758
  250TIP3    H222386   0.145   2.457   1.105  1.4914  0.5876 -1.8965
  251TIP3   OH222387   0.263   1.053   6.924  0.0644 -0.2211  0.4654
  251TIP3    H122388   0.168   1.049   6.928 -0.1551  0.8590 -1.7547
  251TIP3    H222389   0.291   0.961   6.918 -1.0042 -0.4953 -0.7603
  252TIP3   OH222390   2.106   0.089   1.872  0.4109 -0.3234 -0.0282
  252TIP3    H122391   2.201   0.084   1.886  0.2098 -2.1498  0.9895
  252TIP3    H222392   2.071   0.127   1.952  0.0922 -2.2465  0.8210
  253TIP3   OH222393   6.473   6.069   1.234 -0.1140 -0.3396  0.5125
  253TIP3    H122394   6.518   6.056   1.317 -2.9316 -0.6586  2.0990
  253TIP3    H222395   6.498   5.993   1.181  0.2623 -1.1142  1.7556
  254TIP3   OH222396   2.221   4.223   8.167 -1.1786  0.1049 -0.1387
  254TIP3    H122397   2.265   4.145   8.201 -0.8971 -0.0779 -0.8989
  254TIP3    H222398   2.127   4.202   8.170 -1.1721  0.1706  0.6937
  255TIP3   OH222399   4.335   1.486   2.401 -0.0601 -0.3877  0.1501
  255TIP3    H122400   4.344   1.577   2.430 -0.1729 -0.4392  0.3509
  255TIP3    H222401   4.245   1.481   2.369  0.4768  0.0448 -1.5558
  256TIP3   OH222402   5.437   0.936   8.499 -0.1138  0.1815 -0.1430
  256TIP3    H122403   5.383   0.870   8.455  0.2961 -0.2555 -0.0034
  256TIP3    H222404   5.521   0.931   8.454  0.0510  0.3119  0.1514
  257TIP3   OH222405   4.922   4.367   0.476 -0.7105  0.0076 -0.0862
  257TIP3    H122406   4.856   4.307   0.512  0.3418  0.0977  2.1632
  257TIP3    H222407   4.978   4.312   0.423 -1.9000 -0.2801 -1.0961
  258TIP3   OH222408   4.954   1.104   8.542 -0.0404  0.1345  0.7152
  258TIP3    H122409   5.048   1.102   8.559 -0.2968 -0.6876  2.2297
  258TIP3    H222410   4.936   1.019   8.501  0.4133  1.7172 -3.2643
  259TIP3   OH222411   0.505   1.170   1.908  0.1996 -0.4442  0.0804
  259TIP3    H122412   0.492   1.142   1.817 -0.0923  0.6484 -0.2341
  259TIP3    H222413   0.450   1.247   1.917  2.5280  1.2965  0.2697
  260TIP3   OH222414   4.852   3.066   8.677  1.1882  0.3084 -0.3215
  260TIP3    H122415   4.787   3.026   8.620  1.8374  1.6054 -2.0411
  260TIP3    H222416   4.928   3.008   8.672  0.6836 -0.4623  0.5876
  261TIP3   OH222417   5.104   0.035   8.506  0.0906 -0.8909 -0.7190
  261TIP3    H122418   5.130   0.125   8.485 -1.3796 -0.2792 -0.0296
  261TIP3    H222419   5.136  -0.017   8.432 -1.2425  0.5650 -2.3981
  262TIP3   OH222420   2.611   3.670   0.243  0.5067  0.0256  0.1877
  262TIP3    H122421   2.572   3.633   0.164 -2.1351 -1.9749  2.2641
  262TIP3    H222422   2.633   3.595   0.297  2.2438  1.3465  1.4362
  263TIP3   OH222423   6.608   1.006   1.267 -0.6884  0.0180  0.2614
  263TIP3    H122424   6.604   0.929   1.209 -0.3013 -0.5701  0.9910
  263TIP3    H222425   6.516   1.028   1.283 -0.8201 -0.8593  0.7653
  264TIP3   OH222426   3.820   4.665   1.218 -0.2681  0.3535 -0.3099
  264TIP3    H122427   3.813   4.727   1.291 -0.3535 -0.8684  0.7638
  264TIP3    H222428   3.868   4.591   1.255  0.0247 -0.1290 -1.6255
  265TIP3   OH222429   2.286   3.792   8.680  0.1729  0.1260 -0.0081
  265TIP3    H122430   2.257   3.884   8.678 -1.1842 -0.2424  0.8278
  265TIP3    H222431   2.216   3.744   8.635  1.1361 -0.4537 -0.9236
  266TIP3   OH222432   5.994   4.486   2.764 -0.2599  0.0878 -0.7063
  266TIP3    H122433   5.903   4.468   2.784  0.1125 -2.2655 -0.8114
  266TIP3    H222434   6.025   4.408   2.717  1.7085  0.9581 -0.9930
  267TIP3   OH222435   5.752   3.945   7.047 -0.7224 -0.4559 -0.1696
  267TIP3    H122436   5.840   3.975   7.024  0.3926 -0.4939  3.4295
  267TIP3    H222437   5.698   4.023   7.037  0.0791  0.0572 -0.6869
  268TIP3   OH222438   3.005   1.548   1.983  0.2635  0.2385 -0.4742
  268TIP3    H122439   2.911   1.560   1.990  0.3320  0.4156  0.2408
  268TIP3    H222440   3.017   1.454   1.966  0.0789 -0.5352  3.0151
  269TIP3   OH222441   1.444   5.970   8.516  0.4355 -0.4077  0.3011
  269TIP3    H122442   1.479   5.994   8.430 -0.6223 -1.0466 -0.3226
  269TIP3    H222443   1.440   6.053   8.563 -1.0772  0.3389 -1.0502
  270TIP3   OH222444   3.917   5.912   8.233 -0.6631  0.0960 -0.4972
  270TIP3    H122445   3.899   5.997   8.192 -2.2718 -0.0346 -0.1275
  270TIP3    H222446   3.909   5.849   8.162 -2.0892  0.0076 -0.2800
  271TIP3   OH222447   3.274   5.352   7.506 -0.4703 -0.2873 -0.4616
  271TIP3    H122448   3.207   5.389   7.449 -0.8550 -0.2093  0.0295
  271TIP3    H222449   3.229   5.280   7.552 -0.5776  0.5179  0.7435
  272TIP3   OH222450   4.400   1.143   2.205  0.5924 -0.1196 -0.0178
  272TIP3    H122451   4.389   1.053   2.175 -0.5728  0.5019 -1.6559
  272TIP3    H222452   4.310   1.176   2.213  0.9685  0.5706  1.6650
  273TIP3   OH222453   4.203   5.215   1.454  0.3786  0.3587 -0.1816
  273TIP3    H122454   4.234   5.292   1.406 -0.7729 -0.2852 -2.0721
  273TIP3    H222455   4.118   5.242   1.490  0.2988  0.1961 -0.2473
  274TIP3   OH222456   1.552   2.945   0.321  0.2411  0.2403  0.4991
  274TIP3    H122457   1.568   2.982   0.234  0.3432 -0.4425  0.2226
  274TIP3    H222458   1.467   2.903   0.314 -0.1107  0.8658  0.9654
  275TIP3   OH222459   4.140   6.548   1.237  0.2637  0.3107 -0.8308
  275TIP3    H122460   4.166   6.458   1.260  1.6595  0.4703 -1.6524
  275TIP3    H222461   4.074   6.571   1.302  0.5669 -0.9818 -0.0207
  276TIP3   OH222462   5.041   0.658   7.779 -0.5175 -0.4229  0.3214
  276TIP3    H122463   5.019   0.569   7.751 -0.9515  0.3065 -1.8254
  276TIP3    H222464   4.956   0.702   7.787 -0.3467 -0.3154  1.9776
  277TIP3   OH222465   0.848   5.434   1.306  0.4693 -0.8742  0.1388
  277TIP3    H122466   0.811   5.431   1.218 -0.4618  2.4143  0.2688
  277TIP3    H222467   0.937   5.400   1.297  1.3332  1.7137 -2.7163
  278TIP3   OH222468   2.142   4.110   1.148  0.1738 -0.1189 -0.6874
  278TIP3    H122469   2.113   4.059   1.224 -0.8040  1.5154  0.0770
  278TIP3    H222470   2.135   4.048   1.075 -1.0837 -1.0684  0.1819
  279TIP3   OH222471   3.563   1.933   1.472  0.1175  0.4040  0.1397
  279TIP3    H122472   3.632   1.867   1.478 -1.1014 -0.7677  3.4623
  279TIP3    H222473   3.598   2.010   1.517 -0.1407  0.3712  0.4026
  280TIP3   OH222474   3.808   5.471   8.725 -0.0232  0.7475 -0.5355
  280TIP3    H122475   3.847   5.446   8.641 -0.2966 -0.2774 -0.3603
  280TIP3    H222476   3.756   5.396   8.752  1.2779  0.4119  1.2985
  281TIP3   OH222477   2.898   3.708   1.173  0.4820  0.0009 -0.1364
  281TIP3    H122478   2.860   3.766   1.239 -1.1868 -1.1492 -0.0126
  281TIP3    H222479   2.986   3.689   1.205  0.3398  0.8712  0.8341
  282TIP3   OH222480   1.468   2.865   8.677  0.0443  0.2675 -0.3855
  282TIP3    H122481   1.557   2.830   8.683  1.1924  2.5998 -2.1957
  282TIP3    H222482   1.428   2.818   8.605  0.4398  0.4143 -0.7036
  283TIP3   OH222483   6.449   5.324   8.472  0.5134 -0.4768  0.0913
  283TIP3    H122484   6.508   5.397   8.490  1.2556 -0.7845 -0.9710
  283TIP3    H222485   6.386   5.358   8.409  1.1791 -0.8655 -0.8178
  284TIP3   OH222486   0.298   4.660   1.196 -0.3093  0.0557  0.4399
  284TIP3    H122487   0.349   4.582   1.216  0.9522  0.4817 -0.9449
  284TIP3    H222488   0.230   4.630   1.136 -0.4681 -0.1592  0.7254
  285TIP3   OH222489   2.905   4.826   0.741  0.0322 -0.3839  0.1624
  285TIP3    H122490   2.914   4.748   0.796 -1.0534 -0.6593 -0.0263
  285TIP3    H222491   2.972   4.885   0.773  0.1904 -0.9986  1.0108
  286TIP3   OH222492   1.766   0.768   1.672  0.3796  0.3309 -0.3562
  286TIP3    H122493   1.815   0.771   1.755  1.8977  0.3957 -1.2220
  286TIP3    H222494   1.711   0.690   1.680  2.0181 -0.8629 -0.0614
  287TIP3   OH222495   0.973   0.516   8.649 -0.1418 -0.0062  0.3172
  287TIP3    H122496   1.049   0.476   8.606 -0.1790 -1.3371  1.4294
  287TIP3    H222497   1.006   0.601   8.680  0.6457 -0.2025  0.0540
  288TIP3   OH222498   0.783   4.760   1.141  0.0461  0.3587  0.2663
  288TIP3    H122499   0.749   4.707   1.069  1.2814 -0.8436  0.5304
  288TIP3    H222500   0.854   4.811   1.102 -0.4259  1.0403  0.2658
  289TIP3   OH222501   6.460   3.948   1.570  0.2676 -0.3634  0.0821
  289TIP3    H122502   6.550   3.921   1.592 -0.3548 -1.2055  1.8115
  289TIP3    H222503   6.410   3.930   1.650 -1.6001 -0.6508 -1.1041
  290TIP3   OH222504   0.941   0.663   7.913 -0.6645  0.2928  0.3249
  290TIP3    H122505   1.004   0.592   7.904 -0.5990  0.0434  2.3253
  290TIP3    H222506   0.925   0.693   7.823  1.0167 -0.7351 -0.3553
  291TIP3   OH222507   5.102   3.064   1.789 -0.3331  0.0298 -0.2716
  291TIP3    H122508   5.084   2.991   1.730  0.4916 -0.0632 -0.4189
  291TIP3    H222509   5.062   3.039   1.872 -2.9534  0.8534 -1.1754
  292TIP3   OH222510   4.165   5.996   8.481 -0.0839 -0.7275 -0.2344
  292TIP3    H122511   4.198   6.076   8.522  0.9258 -1.2394 -0.0345
  292TIP3    H222512   4.078   5.984   8.519  0.0093 -0.0731  0.2071
  293TIP3   OH222513   4.847   1.118   8.089  0.0870  0.0230 -0.3095
  293TIP3    H122514   4.795   1.042   8.114 -0.3550  0.9884  2.0489
  293TIP3    H222515   4.931   1.082   8.062 -0.6349 -1.3677 -0.8104
  294TIP3   OH222516   6.009   3.856   1.345 -0.8660 -0.2995 -0.4397
  294TIP3    H122517   5.963   3.884   1.265 -1.2609 -1.8786 -0.8069
  294TIP3    H222518   5.942   3.863   1.414 -0.5960  0.8295 -0.2769
  295TIP3   OH222519   1.618   1.119   6.605 -0.0415  0.0437 -0.5131
  295TIP3    H122520   1.564   1.047   6.639  1.0762 -0.6078 -0.0381
  295TIP3    H222521   1.674   1.077   6.539 -0.2896  0.7547 -1.1900
  296TIP3   OH222522   4.130   1.849   1.854 -0.2185 -0.0306 -0.0810
  296TIP3    H122523   4.085   1.931   1.871 -1.1357 -0.3735 -0.7786
  296TIP3    H222524   4.172   1.827   1.937 -1.1664  0.4094  0.5326
  297TIP3   OH222525   1.694   4.716   8.002 -0.3311  0.5172  0.1616
  297TIP3    H122526   1.697   4.623   8.026 -1.3495  0.3352 -0.3938
  297TIP3    H222527   1.623   4.752   8.055  1.1156  1.3828  1.6427
  298TIP3   OH222528   0.639   2.902   2.888 -0.7214 -0.6103  0.0903
  298TIP3    H122529   0.650   2.807   2.876  0.8370 -0.4691  0.2460
  298TIP3    H222530   0.723   2.932   2.922 -0.8239  1.0039 -0.9574
  299TIP3   OH222531   6.586   2.472   0.908  0.2851  0.8731  0.5184
  299TIP3    H122532   6.578   2.488   0.814  0.9142  0.0159  0.3006
  299TIP3    H222533   6.638   2.392   0.914 -1.1741 -0.0538  1.5534
  300TIP3   OH222534   3.130   2.346   8.238 -0.5694 -0.3319 -0.5441
  300TIP3    H122535   3.204   2.385   8.192  0.2556 -0.5203  0.5783
  300TIP3    H222536   3.053   2.375   8.189  0.2521 -0.3474 -1.8885
  301TIP3   OH222537   2.120   5.562   6.640 -0.6439  0.4236 -0.0757
  301TIP3    H122538   2.116   5.472   6.674  0.0096  0.5032  0.2117
  301TIP3    H222539   2.206   5.569   6.599 -0.8533  0.7944 -0.4634
  302TIP3   OH222540   4.728   6.184   7.667 -0.1459  0.0165  0.0241
  302TIP3    H122541   4.709   6.092   7.647 -4.0408  0.5708  0.5048
  302TIP3    H222542   4.780   6.214   7.593  0.7700 -2.3929 -0.4146
  303TIP3   OH222543   2.772   5.930   8.634  0.3755 -0.1689 -0.1255
  303TIP3    H122544   2.794   6.005   8.689  1.8260  0.4372 -1.4429
  303TIP3    H222545   2.713   5.877   8.687  1.8561  0.2709  2.0976
  304TIP3   OH222546   1.538   3.665   0.012  0.0872 -0.1888  0.1587
  304TIP3    H122547   1.458   3.710  -0.014  1.4966  1.8851 -0.9263
  304TIP3    H222548   1.591   3.732   0.055  1.0538 -1.6386  1.3504
  305TIP3   OH222549   2.336   5.193   2.702  0.1975  0.1150 -0.1303
  305TIP3    H122550   2.311   5.217   2.791 -1.1297 -1.2839 -0.0843
  305TIP3    H222551   2.366   5.275   2.662 -0.4462  1.0189  1.1867
  306TIP3   OH222552   4.511   2.369   7.727 -0.3881  0.1599 -0.8781
  306TIP3    H122553   4.419   2.367   7.699 -0.7700  0.9812  0.2567
  306TIP3    H222554   4.536   2.276   7.732 -1.6258 -0.1568  0.2220
  307TIP3   OH222555   3.062   1.217   7.637 -0.4018 -0.1831  0.2166
  307TIP3    H122556   3.063   1.311   7.656  0.0214 -0.3631  1.1903
  307TIP3    H222557   2.974   1.188   7.660 -0.6153  0.0224 -0.3421
  308TIP3   OH222558   6.762   6.496   1.737 -0.4416  0.4576  0.1383
  308TIP3    H122559   6.827   6.437   1.699  1.2400  0.7494  2.3737
  308TIP3    H222560   6.684   6.442   1.750  0.5500 -0.8808  0.7013
  309TIP3   OH222561   5.031   2.036   7.035 -0.1546  0.3656  0.3712
  309TIP3    H122562   4.949   2.086   7.039 -0.2918  0.1554  0.1771
  309TIP3    H222563   5.012   1.955   7.083 -0.3713 -0.1254 -0.5278
  310TIP3   OH222564   4.671   1.353   0.787  0.1240 -0.1115  0.0674
  310TIP3    H122565   4.667   1.361   0.691 -0.1094  1.5949  0.1840
  310TIP3    H222566   4.614   1.279   0.807 -1.8173  1.0058 -0.9723
  311TIP3   OH222567   1.057   3.136   7.574  0.3167 -0.0543 -0.2394
  311TIP3    H122568   1.060   3.080   7.652  0.7544 -2.5822 -1.9745
  311TIP3    H222569   1.149   3.148   7.549  0.2768  1.9661  0.3731
  312TIP3   OH222570   4.208   1.190   1.181 -0.0508  0.0045 -0.5008
  312TIP3    H122571   4.243   1.161   1.265 -2.2460 -1.5854 -0.0469
  312TIP3    H222572   4.268   1.259   1.152  0.7099  0.6983  2.4170
  313TIP3   OH222573   6.623   0.235   7.728 -0.1448 -0.3431  0.3067
  313TIP3    H122574   6.637   0.286   7.808  0.5154  0.6642 -0.4209
  313TIP3    H222575   6.677   0.279   7.662 -0.0692 -1.6192 -0.5101
  314TIP3   OH222576   0.724   5.339   8.180  0.3350 -0.6327 -0.4712
  314TIP3    H122577   0.791   5.298   8.125  0.6696 -1.5187  0.5489
  314TIP3    H222578   0.762   5.340   8.268  0.0474  1.2851 -0.3251
  315TIP3   OH222579   4.747   6.442   7.362  0.1483  0.0792  0.4561
  315TIP3    H122580   4.793   6.359   7.377  1.8232  1.3705  3.3164
  315TIP3    H222581   4.797   6.506   7.411 -0.9775  2.9067 -1.8166
  316TIP3   OH222582   4.626   1.076   1.690 -0.0222  0.9789 -0.0532
  316TIP3    H122583   4.648   1.075   1.783 -1.4911 -0.5505  0.3275
  316TIP3    H222584   4.710   1.073   1.645  0.6838  0.7026  1.2452
  317TIP3   OH222585   2.080   3.205   1.766  0.6820 -0.0870  0.2350
  317TIP3    H122586   2.097   3.130   1.822  0.0761  0.0606  0.6267
  317TIP3    H222587   2.017   3.258   1.815  0.6502  0.3748 -0.2930
  318TIP3   OH222588   3.144   3.003   1.823  0.1864  0.4074  0.2540
  318TIP3    H122589   3.092   3.038   1.751  2.5835  1.8986 -0.8579
  318TIP3    H222590   3.136   3.070   1.892 -1.0773 -0.4213  0.9595
  319TIP3   OH222591   4.033   1.375   1.344  0.0672 -0.3951  0.1717
  319TIP3    H122592   4.003   1.303   1.400 -1.8285 -0.3650 -0.7133
  319TIP3    H222593   4.070   1.332   1.267  2.5567 -0.4344  1.3241
  320TIP3   OH222594   2.582   1.740   2.243 -0.0736 -0.6987 -0.5085
  320TIP3    H122595   2.550   1.770   2.158 -0.0026  1.5685  0.1877
  320TIP3    H222596   2.506   1.700   2.285 -0.8339  0.6087 -0.6063
  321TIP3   OH222597   0.880   3.313   0.860  0.2355  0.0789  0.0340
  321TIP3    H122598   0.960   3.306   0.808 -0.2810  1.3084 -0.9622
  321TIP3    H222599   0.902   3.271   0.943  1.7793  0.0446 -0.3655
  322TIP3   OH222600   1.514   6.241   1.256  0.1733 -0.1718 -0.2024
  322TIP3    H122601   1.546   6.210   1.341 -0.5383  0.7161  0.4019
  322TIP3    H222602   1.419   6.236   1.262  0.0960  0.6096 -0.6709
  323TIP3   OH222603   3.528   6.398   8.405  0.5149  0.3540  0.4602
  323TIP3    H122604   3.529   6.400   8.309  1.5441  0.0723  0.4517
  323TIP3    H222605   3.616   6.427   8.430 -0.5613  3.1844  1.3995
  324TIP3   OH222606   4.065   2.445   8.548  0.1086 -0.0098 -1.1726
  324TIP3    H122607   4.080   2.362   8.502  0.6406 -1.0874  0.8288
  324TIP3    H222608   3.970   2.448   8.562  0.2769 -1.4384  0.6612
  325TIP3   OH222609   2.250   5.321   1.962  0.2336  0.4154  0.0090
  325TIP3    H122610   2.188   5.313   1.890 -1.5901  0.4402  1.4890
  325TIP3    H222611   2.195   5.341   2.038  1.4128 -4.0233  2.3893
  326TIP3   OH222612   1.931   6.803   1.372 -0.1152 -0.5748  0.7363
  326TIP3    H122613   1.990   6.730   1.358  0.5826  0.0616  0.2394
  326TIP3    H222614   1.916   6.806   1.466  3.3698  1.2621  1.3967
  327TIP3   OH222615   6.661   3.800   2.164 -0.4714 -0.2932 -0.2871
  327TIP3    H122616   6.593   3.734   2.181 -0.1225 -1.2977 -2.4116
  327TIP3    H222617   6.653   3.862   2.236 -1.5848 -2.0434  1.1889
  328TIP3   OH222618   0.596   5.112   8.818 -0.5187  0.2347  0.2173
  328TIP3    H122619   0.576   5.205   8.831 -1.4508 -0.0295  0.8015
  328TIP3    H222620   0.524   5.079   8.764 -0.3016 -0.1920  0.1833
  329TIP3   OH222621   4.775   1.072   0.178  0.3197 -0.0999 -1.2567
  329TIP3    H122622   4.713   1.000   0.185  1.5481 -1.1043  0.0343
  329TIP3    H222623   4.853   1.033   0.137  1.6371 -0.0299  1.0031
  330TIP3   OH222624   3.642   4.509   8.307 -0.9759 -0.6753  0.4675
  330TIP3    H122625   3.550   4.530   8.291 -1.2455  1.3916  3.8739
  330TIP3    H222626   3.642   4.453   8.385  0.6372 -2.0144 -0.4053
  331TIP3   OH222627   6.532   4.326   0.367 -0.3428 -0.1882 -0.5288
  331TIP3    H122628   6.569   4.290   0.448 -0.2099 -0.6431 -0.7874
  331TIP3    H222629   6.449   4.366   0.394  0.2999  0.8035  0.0552
  332TIP3   OH222630   6.682   0.482   6.998 -0.0040  0.3870 -0.2296
  332TIP3    H122631   6.599   0.476   7.045 -0.3889  1.5423 -0.7139
  332TIP3    H222632   6.738   0.417   7.039 -0.8485  0.2406  0.7277
  333TIP3   OH222633   5.079   5.457   8.397 -0.3260 -0.1278 -0.8713
  333TIP3    H122634   5.086   5.375   8.348 -1.6590 -0.0051 -1.3057
  333TIP3    H222635   5.041   5.432   8.481  0.2259 -0.0921 -0.6109
  334TIP3   OH222636   0.958   0.682   1.314  0.1493 -0.1511  0.8998
  334TIP3    H122637   0.897   0.609   1.298  2.3002 -2.0705  1.0004
  334TIP3    H222638   1.034   0.663   1.260  1.1578  1.5658  1.6311
  335TIP3   OH222639   1.314   5.918   7.948 -0.3216 -0.2518  0.3659
  335TIP3    H122640   1.345   5.856   8.014  0.2979 -0.2462  0.0786
  335TIP3    H222641   1.289   5.863   7.873 -0.5345 -0.2143  0.4073
  336TIP3   OH222642   1.989   2.994   7.122 -0.2838  0.0143 -0.2610
  336TIP3    H122643   1.998   3.088   7.134  0.1759  0.1792 -1.7303
  336TIP3    H222644   1.934   2.985   7.044 -2.6509 -0.9664  1.3991
  337TIP3   OH222645   4.200   4.432   1.281  0.3959  0.1887 -0.5111
  337TIP3    H122646   4.171   4.523   1.277 -2.9119 -0.6293  1.3671
  337TIP3    H222647   4.255   4.428   1.360  0.1487  0.4699 -0.3218
  338TIP3   OH222648   5.656   3.710   2.655  0.0558 -0.1235  0.0092
  338TIP3    H122649   5.673   3.683   2.564  0.5335 -0.2261  0.1306
  338TIP3    H222650   5.614   3.634   2.695  1.5676 -0.7814  0.4025
  339TIP3   OH222651   5.112   3.871   1.538 -0.1082  0.2764 -0.3791
  339TIP3    H122652   5.143   3.945   1.589  0.9874  0.2496 -0.9748
  339TIP3    H222653   5.017   3.880   1.538 -0.0788  0.7818  0.8798
  340TIP3   OH222654   0.285   1.460   8.707  0.3186 -0.1931 -0.8701
  340TIP3    H122655   0.250   1.478   8.794 -0.1110  1.8357 -1.4135
  340TIP3    H222656   0.257   1.534   8.653  0.6414 -1.3476 -2.7323
  341TIP3   OH222657   5.115   3.506   1.271  0.3802  0.4969  0.3376
  341TIP3    H122658   5.087   3.418   1.298  1.3770  0.1364  0.2266
  341TIP3    H222659   5.046   3.536   1.211  0.8208 -0.8646 -0.8965
  342TIP3   OH222660   6.483   5.772   2.690 -0.0385  0.6465  0.5061
  342TIP3    H122661   6.454   5.721   2.614  0.9077  1.7170 -0.6170
  342TIP3    H222662   6.438   5.856   2.681  2.0868  1.7554 -0.4034
  343TIP3   OH222663   1.528   1.970   1.108 -0.1862  0.8086 -0.1340
  343TIP3    H122664   1.599   2.026   1.140 -1.0290  1.9047 -0.1058
  343TIP3    H222665   1.555   1.881   1.130  1.1655  1.2048 -0.1188
  344TIP3   OH222666   5.714   1.944   7.476 -0.2322 -0.3788 -0.0953
  344TIP3    H122667   5.685   1.967   7.388 -1.8132 -1.2004  0.1556
  344TIP3    H222668   5.695   2.022   7.529  0.1050 -0.1158 -0.3663
  345TIP3   OH222669   6.439   3.220   0.340  0.1958 -0.0382  0.0504
  345TIP3    H122670   6.527   3.259   0.341  0.0281  0.3409  0.9793
  345TIP3    H222671   6.398   3.257   0.261  0.1355  1.4940  0.7597
  346TIP3   OH222672   6.168   0.792   2.075 -0.0271  0.3038  0.4212
  346TIP3    H122673   6.233   0.845   2.121  2.3447 -0.7468 -1.5095
  346TIP3    H222674   6.121   0.855   2.019  1.4633  0.6688 -0.4574
  347TIP3   OH222675   6.705   5.310   1.867 -0.0293 -0.7581 -0.5555
  347TIP3    H122676   6.652   5.233   1.884  1.3174 -2.1618 -2.3094
  347TIP3    H222677   6.743   5.333   1.952 -2.3519 -0.4890  0.4702
  348TIP3   OH222678   5.995   6.643   8.118 -0.0801  0.4990  0.6491
  348TIP3    H122679   5.909   6.662   8.154 -1.0297  0.4223 -1.4310
  348TIP3    H222680   5.981   6.635   8.023  2.1055 -0.1189  0.3044
  349TIP3   OH222681   2.306   1.143   0.279  0.8346  0.3215  0.0256
  349TIP3    H122682   2.275   1.055   0.303  0.1533  0.6246  0.2595
  349TIP3    H222683   2.334   1.134   0.188 -0.5282  0.1881 -0.4038
  350TIP3   OH222684   1.353   5.721   2.218 -0.4699  1.2243 -0.2922
  350TIP3    H122685   1.428   5.664   2.234 -1.1107  0.5972  0.6075
  350TIP3    H222686   1.335   5.761   2.303 -1.3792  1.0685 -0.4006
  351TIP3   OH222687   6.747   6.799   8.200 -0.1474 -0.2534  0.5908
  351TIP3    H122688   6.841   6.816   8.195  0.1001 -0.9556  2.1393
  351TIP3    H222689   6.721   6.833   8.285 -1.6996  1.5686 -0.5302
  352TIP3   OH222690   3.159   4.815   2.778 -0.8054 -0.0171  0.0882
  352TIP3    H122691   3.156   4.805   2.683 -0.8921  1.2191 -0.0530
  352TIP3    H222692   3.070   4.840   2.803 -0.7939 -0.3730  0.5083
  353TIP3   OH222693   3.165   5.229   1.625 -0.7293 -0.0349 -0.1832
  353TIP3    H122694   3.209   5.303   1.583 -0.5988  0.4295  0.7460
  353TIP3    H222695   3.097   5.269   1.679 -1.7340 -0.7005 -0.9252
  354TIP3   OH222696   1.081   5.997   7.607 -0.4772  0.5158 -0.6940
  354TIP3    H122697   1.066   6.030   7.695 -0.3868  0.8141 -0.7914
  354TIP3    H222698   0.993   5.983   7.571 -0.5134  0.3954 -0.5570
  355TIP3   OH222699   3.297   5.229   2.516 -0.4095 -0.7047 -0.5224
  355TIP3    H122700   3.243   5.209   2.593 -0.2477  0.7524  0.0106
  355TIP3    H222701   3.381   5.186   2.533  0.0202  0.5464  0.6944
  356TIP3   OH222702   4.772   1.265   8.711 -0.4012  0.5114  0.1503
  356TIP3    H122703   4.823   1.203   8.659 -1.1028 -0.5649  0.7187
  356TIP3    H222704   4.812   1.262   8.798 -0.6850  0.5481  0.2840
  357TIP3   OH222705   2.058   1.309   6.651  0.4324  0.0347 -0.0662
  357TIP3    H122706   2.101   1.320   6.736 -1.0697  1.1620  0.5971
  357TIP3    H222707   2.062   1.396   6.611 -0.2619 -0.0990 -0.4436
  358TIP3   OH222708   0.383   5.145   8.646  0.5665 -0.1127 -0.6446
  358TIP3    H122709   0.306   5.181   8.690 -0.1574  1.0372 -2.7013
  358TIP3    H222710   0.347   5.099   8.570  1.8386 -0.7223 -0.9038
  359TIP3   OH222711   3.177   5.678   0.900  0.0626  0.2480  0.1926
  359TIP3    H122712   3.196   5.592   0.863  0.0003  0.6125 -0.7337
  359TIP3    H222713   3.235   5.686   0.975  0.1525 -0.5546  0.2097
  360TIP3   OH222714   2.440   1.210   0.925 -0.2804 -0.2729  0.1198
  360TIP3    H122715   2.463   1.162   1.004  0.9493  0.9981  0.5594
  360TIP3    H222716   2.383   1.281   0.955  0.0192  0.0923 -0.1668
  361TIP3   OH222717   5.114   5.747   8.420 -0.1046  0.3096 -0.6284
  361TIP3    H122718   5.036   5.763   8.367 -1.0854 -0.3600  0.5395
  361TIP3    H222719   5.145   5.660   8.392 -1.5898 -0.8015  0.9358
  362TIP3   OH222720   3.002   4.695   0.380 -0.2721 -0.1257  0.4219
  362TIP3    H122721   2.987   4.627   0.314 -0.3299  0.5776 -0.3170
  362TIP3    H222722   2.990   4.651   0.464 -2.1378 -0.6267 -0.0542
  363TIP3   OH222723   4.513   1.375   1.690 -0.3952  0.6693 -0.1297
  363TIP3    H122724   4.572   1.307   1.723  0.5404  1.0037 -1.0448
  363TIP3    H222725   4.434   1.367   1.743 -0.7703 -1.9012 -0.9222
  364TIP3   OH222726   3.875   5.136   7.325  0.3554 -0.0434  0.2005
  364TIP3    H122727   3.908   5.167   7.240 -1.1384 -2.8991 -1.5812
  364TIP3    H222728   3.951   5.098   7.368  0.7902 -0.2227 -0.7015
  365TIP3   OH222729   4.057   2.092   7.751  0.1222  0.0995 -0.3802
  365TIP3    H122730   4.081   2.176   7.712 -0.2345  0.5710  0.3936
  365TIP3    H222731   3.982   2.112   7.806  0.1234 -0.7054 -0.0789
  366TIP3   OH222732   5.929   3.766   8.576 -0.8434  0.2096 -0.3226
  366TIP3    H122733   5.987   3.819   8.630 -1.6034  1.4006 -0.6304
  366TIP3    H222734   5.975   3.683   8.565  0.4484  0.8475  0.0763
  367TIP3   OH222735   3.808   5.650   0.778  0.6257  0.1440  0.6428
  367TIP3    H122736   3.763   5.731   0.756  0.1408 -0.3424 -0.2222
  367TIP3    H222737   3.834   5.613   0.694 -1.5846 -1.9556  0.7606
  368TIP3   OH222738   6.803   1.314   8.111  0.0349  0.2510  0.5745
  368TIP3    H122739   6.731   1.259   8.078  1.5882 -1.9513  0.5966
  368TIP3    H222740   6.815   1.380   8.043 -0.1308 -1.1395 -0.8860
  369TIP3   OH222741   3.446   3.637   8.324  0.0625  0.6221  0.0894
  369TIP3    H122742   3.406   3.551   8.310  0.0478 -0.0449  3.3869
  369TIP3    H222743   3.405   3.694   8.259  0.0245 -1.8048 -2.1401
  370TIP3   OH222744   5.939   6.681   7.473 -0.0700 -0.5223 -0.1800
  370TIP3    H122745   5.956   6.612   7.410  3.0858 -0.8235  0.8290
  370TIP3    H222746   6.024   6.698   7.514 -1.7995  0.0050  3.6371
  371TIP3   OH222747   4.971   0.016   1.160  0.0933  0.1413  0.3767
  371TIP3    H122748   4.999   0.099   1.120  0.2103 -0.2209 -0.2937
  371TIP3    H222749   5.052  -0.027   1.187  0.1351 -0.4255 -0.6140
  372TIP3   OH222750   6.317   1.003   0.471  0.3853  0.0298 -0.4576
  372TIP3    H122751   6.392   0.958   0.432 -0.3910 -1.0468 -0.7541
  372TIP3    H222752   6.269   0.934   0.516 -0.5079  0.6755 -0.4038
  373TIP3   OH222753   6.091   2.006   8.788  0.4550 -0.0341  0.2908
  373TIP3    H122754   6.092   2.083   8.731 -0.2527 -0.4927 -0.3652
  373TIP3    H222755   6.162   2.021   8.850  0.5366  0.9919 -0.0333
  374TIP3   OH222756   2.409   3.892   1.709 -0.3170  0.0160  0.2770
  374TIP3    H122757   2.399   3.952   1.782 -1.7770  0.7505 -0.4760
  374TIP3    H222758   2.322   3.853   1.698 -0.6603  1.2473 -2.1325
  375TIP3   OH222759   5.411   2.004   1.879  0.2559 -0.0307  0.1214
  375TIP3    H122760   5.501   2.028   1.902  0.9139  0.1509 -2.3416
  375TIP3    H222761   5.394   1.924   1.928  2.3691 -0.9697 -0.5689
  376TIP3   OH222762   0.167   4.672   1.801  0.2396  0.2929 -0.0831
  376TIP3    H122763   0.079   4.641   1.780  0.0807  0.1703  0.7285
  376TIP3    H222764   0.225   4.619   1.747 -0.2326  1.1051 -1.4382
  377TIP3   OH222765   1.598   5.744   8.362 -0.1164  0.6754  0.0204
  377TIP3    H122766   1.655   5.689   8.415 -2.8057 -1.2578  1.0958
  377TIP3    H222767   1.545   5.792   8.426 -0.2212  1.8934 -0.9451
  378TIP3   OH222768   5.500   3.568   1.461 -0.5533  0.2988 -0.6147
  378TIP3    H122769   5.474   3.477   1.447 -0.2757 -0.1538  1.4575
  378TIP3    H222770   5.438   3.600   1.526  0.6035  0.9447  0.1931
  379TIP3   OH222771   2.934   1.964   1.541  0.4198  0.7186 -0.4779
  379TIP3    H122772   3.004   2.029   1.532 -0.5314  1.6893 -1.0080
  379TIP3    H222773   2.873   1.984   1.471 -0.6423  0.1766  0.2657
  380TIP3   OH222774   0.885   6.015   0.235 -0.1081  0.1262  0.1549
  380TIP3    H122775   0.943   6.091   0.233 -1.4007  1.1208 -0.8675
  380TIP3    H222776   0.812   6.042   0.290  0.4454 -1.1969  1.6145
  381TIP3   OH222777   3.096   1.490   8.529 -0.2211 -0.1732  0.5352
  381TIP3    H122778   3.167   1.538   8.486 -1.4126  2.2719  1.1095
  381TIP3    H222779   3.046   1.452   8.457  0.4399 -0.1024  0.0264
  382TIP3   OH222780   3.789   4.275   1.243  0.0825 -0.4990 -0.1717
  382TIP3    H122781   3.803   4.279   1.149  0.0721  0.2939 -0.1402
  382TIP3    H222782   3.694   4.286   1.253  0.2120  0.5437 -0.0089
  383TIP3   OH222783   0.350   1.723   2.288  0.0085 -0.2648  0.9163
  383TIP3    H122784   0.369   1.804   2.336  1.3037  0.1525 -0.2180
  383TIP3    H222785   0.367   1.746   2.196 -0.4957 -1.5752  0.4852
  384TIP3   OH222786   6.766   2.986   0.949 -0.1433 -0.0037  0.3064
  384TIP3    H122787   6.821   2.962   0.875  2.1438  0.5311  1.7444
  384TIP3    H222788   6.760   3.082   0.945 -1.3482 -0.0703 -0.0393
  385TIP3   OH222789   2.863   2.464   2.790  0.1493 -0.3006 -0.2382
  385TIP3    H122790   2.919   2.387   2.776 -1.3033 -1.2925 -0.7954
  385TIP3    H222791   2.901   2.532   2.734  1.9961 -0.2911  0.9500
  386TIP3   OH222792   6.362   6.294   7.775 -0.1089 -0.2471 -0.2090
  386TIP3    H122793   6.282   6.307   7.826  0.4918  0.5874  0.5634
  386TIP3    H222794   6.432   6.300   7.840  0.7619  1.9871 -1.2653
  387TIP3   OH222795   0.121   4.391   0.073  0.0484 -0.3883 -0.0343
  387TIP3    H122796   0.056   4.453   0.040 -0.2457 -0.2653  0.7421
  387TIP3    H222797   0.194   4.397   0.011 -0.4724 -0.1607 -0.6363
  388TIP3   OH222798   6.593   5.775   0.841  0.1165 -0.3460  0.7955
  388TIP3    H122799   6.543   5.732   0.771  1.1188  2.1787 -1.6795
  388TIP3    H222800   6.684   5.763   0.816  0.4519  2.3282  0.4231
  389TIP3   OH222801   0.535   0.888   7.420  0.0243 -0.6527  0.0847
  389TIP3    H122802   0.518   0.811   7.474 -0.2344 -0.4535  0.2933
  389TIP3    H222803   0.456   0.941   7.430 -0.7544 -1.3607 -1.7928
  390TIP3   OH222804   3.779   4.683   8.143  0.2037  0.2418  0.2936
  390TIP3    H122805   3.746   4.612   8.199  3.7074 -1.1687  0.8185
  390TIP3    H222806   3.810   4.749   8.205  0.1758  0.6300 -0.1042
  391TIP3   OH222807   3.610   3.379   7.255  0.0934 -0.3424  0.6819
  391TIP3    H122808   3.563   3.296   7.251  0.0437 -0.2773 -0.2762
  391TIP3    H222809   3.571   3.426   7.329  1.1081 -1.7433  2.1786
  392TIP3   OH222810   4.541   4.734   8.501  0.3227 -0.2977 -0.0287
  392TIP3    H122811   4.513   4.705   8.588 -1.7491  0.3794 -0.4108
  392TIP3    H222812   4.478   4.693   8.441  0.6176  0.6907 -1.0384
  393TIP3   OH222813   6.083   2.514   0.289  0.2940  0.2464 -0.0685
  393TIP3    H122814   6.041   2.441   0.335  1.0782 -0.3617 -0.2902
  393TIP3    H222815   6.029   2.529   0.212 -0.3751  0.5025  0.4411
  394TIP3   OH222816   1.614   4.933   2.436 -0.9499  0.4531 -0.3889
  394TIP3    H122817   1.696   4.981   2.427 -0.6937  0.8030  2.7707
  394TIP3    H222818   1.607   4.913   2.529 -3.3803 -1.5587 -0.8727
  395TIP3   OH222819   2.499   5.323   8.510 -0.5430 -0.4938  0.3159
  395TIP3    H122820   2.421   5.278   8.543 -0.1060 -0.3412  1.6239
  395TIP3    H222821   2.472   5.414   8.500 -1.1099 -0.8080 -1.2601
  396TIP3   OH222822   2.066   5.481   0.007 -0.3593  0.6587 -0.2440
  396TIP3    H122823   1.989   5.538   0.001 -0.9962 -0.2023 -0.5320
  396TIP3    H222824   2.107   5.504   0.090 -1.9418 -0.0712  0.8000
  397TIP3   OH222825   6.363   4.081   1.294 -0.0051  0.5077  0.5656
  397TIP3    H122826   6.384   4.018   1.363  1.5793  1.3115  0.8772
  397TIP3    H222827   6.448   4.106   1.258 -0.4531  3.1512  1.1046
  398TIP3   OH222828   2.969   5.061   7.528  0.3748 -0.5893 -0.4357
  398TIP3    H122829   3.046   5.097   7.571 -0.0879  0.8741 -0.7983
  398TIP3    H222830   2.895   5.111   7.562 -0.1412 -0.3043 -1.8892
  399TIP3   OH222831   5.141   4.590   7.525  0.1118  0.6383  0.4569
  399TIP3    H122832   5.228   4.629   7.521  0.5392 -0.3964 -0.9332
  399TIP3    H222833   5.149   4.507   7.477 -0.7841 -1.1269  3.0974
  400TIP3   OH222834   4.109   4.207   7.528  0.1298 -0.0749 -0.2356
  400TIP3    H122835   4.157   4.284   7.498 -2.4651  1.2388 -1.3737
  400TIP3    H222836   4.093   4.224   7.621 -0.1805  0.6646 -0.4113
  401TIP3   OH222837   6.228   1.359   0.695 -0.5433 -0.3394  0.0413
  401TIP3    H122838   6.323   1.351   0.689 -0.6513 -0.8538 -1.4860
  401TIP3    H222839   6.202   1.292   0.758  0.1380  0.1197  0.8284
  402TIP3   OH222840   3.685   0.309   0.768 -0.3795 -0.3114  0.0034
  402TIP3    H122841   3.590   0.305   0.777 -0.2777 -1.3592  0.8059
  402TIP3    H222842   3.708   0.237   0.710 -0.5061  3.2811 -5.2651
  403TIP3   OH222843   6.154   0.779   0.568 -0.7697 -0.1662 -0.1688
  403TIP3    H122844   6.060   0.798   0.569 -0.7086  0.2073 -1.0452
  403TIP3    H222845   6.162   0.699   0.620 -1.0501  1.9485  3.5059
  404TIP3   OH222846   0.216   0.988   0.016 -0.1494 -0.3781  0.3826
  404TIP3    H122847   0.188   1.050  -0.052 -0.7161 -1.1893 -0.1418
  404TIP3    H222848   0.308   1.010   0.031  0.2660 -0.8001 -1.3514
  405TIP3   OH222849   1.887   4.900   8.129  0.0077  0.0218  0.0965
  405TIP3    H122850   1.810   4.859   8.167 -0.1042  1.1994  1.1928
  405TIP3    H222851   1.958   4.878   8.189  0.7840 -1.9006 -1.4208
  406TIP3   OH222852   3.781   3.358   2.241  0.2615 -0.0043 -0.4092
  406TIP3    H122853   3.791   3.319   2.154  1.8447  2.2255 -1.2981
  406TIP3    H222854   3.768   3.451   2.225  4.0243  1.0976  1.7207
  407TIP3   OH222855   5.028   5.717   1.275 -0.1317 -0.1080 -0.0019
  407TIP3    H122856   5.041   5.778   1.202 -0.1071 -0.5363 -0.3603
  407TIP3    H222857   5.015   5.632   1.233 -1.2745 -0.1711  0.4401
  408TIP3   OH222858   1.934   4.954   8.444  0.1040  0.1497  0.1129
  408TIP3    H122859   1.845   4.935   8.415  1.3933 -0.1033 -4.4656
  408TIP3    H222860   1.966   4.871   8.478 -0.4034 -0.7118 -1.4127
  409TIP3   OH222861   5.219   2.960   7.866  0.2105 -0.0566  0.6227
  409TIP3    H122862   5.152   3.021   7.899  1.2120  1.1610  0.4678
  409TIP3    H222863   5.195   2.946   7.775  0.8722  1.4390  0.1780
  410TIP3   OH222864   0.490   3.602   7.366 -0.3005 -0.5003 -0.1858
  410TIP3    H122865   0.506   3.539   7.296  1.6978 -1.0378  0.6844
  410TIP3    H222866   0.533   3.564   7.443 -0.1362  1.3315  0.6841
  411TIP3   OH222867   2.119   0.226   0.198 -0.7324  0.4240  0.0590
  411TIP3    H122868   2.081   0.138   0.204  0.6382 -0.1294  1.4475
  411TIP3    H222869   2.078   0.274   0.270  0.1679  0.2061  0.7433
  412TIP3   OH222870   5.468   3.913   2.681 -0.3406  0.3042 -0.7247
  412TIP3    H122871   5.482   3.818   2.684  3.0936  0.6958  0.4753
  412TIP3    H222872   5.524   3.943   2.610 -0.6605  1.5299 -0.4819
  413TIP3   OH222873   6.079   3.610   0.028 -0.0735  0.2203 -0.4493
  413TIP3    H122874   6.044   3.523   0.047  0.1631  0.6353  2.2766
  413TIP3    H222875   6.002   3.666   0.018 -0.2979  0.4072  1.8045
  414TIP3   OH222876   0.881   5.399   2.511 -0.0515 -0.0753  0.0867
  414TIP3    H122877   0.867   5.489   2.479  1.9844 -0.1904 -1.3162
  414TIP3    H222878   0.926   5.411   2.594 -1.1882  0.1966  0.6787
  415TIP3   OH222879   3.709   3.366   0.692  0.3375 -0.2849  0.4768
  415TIP3    H122880   3.723   3.326   0.606  0.7124  1.6322 -0.4056
  415TIP3    H222881   3.741   3.300   0.754 -1.1367 -2.2636 -0.7257
  416TIP3   OH222882   3.868   4.869   1.403  0.0608 -0.4718 -0.5157
  416TIP3    H122883   3.902   4.808   1.469 -0.4932  0.7418  0.9699
  416TIP3    H222884   3.943   4.924   1.380 -0.2483  0.6794  1.0024
  417TIP3   OH222885   3.655   0.576   1.493 -0.2225  0.1886 -0.4347
  417TIP3    H122886   3.607   0.558   1.413  1.7074  0.6603 -1.7652
  417TIP3    H222887   3.685   0.490   1.523  0.9841  0.2060 -1.5214
  418TIP3   OH222888   6.788   0.923   0.462 -0.0114 -0.1753 -0.2198
  418TIP3    H122889   6.875   0.892   0.435 -0.6545 -1.1773 -1.2477
  418TIP3    H222890   6.742   0.940   0.380 -0.5593  1.0744  0.3193
  419TIP3   OH222891   6.442   5.776   2.356 -0.2828  0.5260 -0.1069
  419TIP3    H122892   6.461   5.695   2.310 -1.3887  0.6444 -0.8204
  419TIP3    H222893   6.368   5.755   2.414 -3.3525  1.8498 -3.1735
  420TIP3   OH222894   3.014   6.590   1.078  0.0859 -0.8640 -0.3733
  420TIP3    H122895   2.922   6.564   1.080 -0.2667  0.3603  0.7973
  420TIP3    H222896   3.023   6.652   1.150  1.8962 -1.1486 -0.3019
  421TIP3   OH222897   2.462   5.304   1.676 -0.3919  0.0515  0.0724
  421TIP3    H122898   2.450   5.397   1.658  0.1736  0.8327  3.1591
  421TIP3    H222899   2.551   5.285   1.647 -0.8160  0.2240 -1.3803
  422TIP3   OH222900   6.638   5.755   2.000 -0.7535  0.1876 -0.4155
  422TIP3    H122901   6.563   5.754   2.060 -0.3819  0.6731  0.0723
  422TIP3    H222902   6.713   5.776   2.056 -0.3751  0.4828 -1.0233
  423TIP3   OH222903   6.513   3.289   2.294  0.5629 -0.7161 -0.4842
  423TIP3    H122904   6.523   3.354   2.363  0.3294 -3.1835  2.0653
  423TIP3    H222905   6.583   3.308   2.232  0.3375  2.0478 -0.0023
  424TIP3   OH222906   5.571   4.403   8.263  0.4156  0.3988  0.6679
  424TIP3    H122907   5.479   4.422   8.245  0.2237  1.7624  2.6764
  424TIP3    H222908   5.617   4.485   8.244  0.7163  0.7169  2.5872
  425TIP3   OH222909   4.067   0.459   1.736 -0.9107 -0.4338 -0.0633
  425TIP3    H122910   4.122   0.536   1.717 -1.3683  0.0773  0.6674
  425TIP3    H222911   4.044   0.425   1.650 -0.7963  0.3159 -0.3976
  426TIP3   OH222912   0.079   5.473   1.216 -0.0748 -0.1985  0.5426
  426TIP3    H122913   0.021   5.403   1.188  1.4479 -1.0802 -0.5857
  426TIP3    H222914   0.132   5.435   1.286 -0.5092  0.4466  1.2389
  427TIP3   OH222915   0.479   4.418   1.106 -0.1453  0.0394 -0.2368
  427TIP3    H122916   0.566   4.451   1.083  0.2152 -0.5356  0.2764
  427TIP3    H222917   0.447   4.377   1.025 -1.1534  2.7056 -1.3035
  428TIP3   OH222918   1.806   1.178   2.497 -0.3583 -0.3058 -0.6245
  428TIP3    H122919   1.754   1.198   2.575  1.0571 -0.8889  0.4911
  428TIP3    H222920   1.831   1.086   2.507  2.5800  0.4545 -0.0539
  429TIP3   OH222921   1.835   2.455   1.777 -0.2025 -0.4912  0.3134
  429TIP3    H122922   1.778   2.406   1.837 -0.7702 -0.3613 -0.1162
  429TIP3    H222923   1.865   2.530   1.828  0.1716 -0.9465  0.7748
  430TIP3   OH222924   0.862   1.115   8.678  0.1353 -0.2668  0.5524
  430TIP3    H122925   0.797   1.181   8.654 -0.9018 -1.4759 -0.0802
  430TIP3    H222926   0.861   1.052   8.606  1.0362 -1.0166  1.1615
  431TIP3   OH222927   2.954   6.573   8.773 -0.2548 -0.2823  0.4200
  431TIP3    H122928   2.906   6.499   8.738  2.1516 -1.4586 -0.5887
  431TIP3    H222929   2.979   6.546   8.862 -0.9771  0.1311  0.7613
  432TIP3   OH222930   4.138   2.148   2.371  0.1784  0.1183  0.1739
  432TIP3    H122931   4.167   2.142   2.462  0.9661  1.7928  0.0607
  432TIP3    H222932   4.080   2.223   2.369  1.5297  1.1819 -1.0182
  433TIP3   OH222933   5.709   3.606   0.376  0.4737  0.1910  0.0159
  433TIP3    H122934   5.731   3.642   0.290  0.3361  2.0926  0.7280
  433TIP3    H222935   5.744   3.670   0.438  0.8663 -1.3089  1.3987
  434TIP3   OH222936   2.756   0.913   6.766  0.2182  0.0773 -0.1569
  434TIP3    H122937   2.721   0.882   6.683 -0.2113  1.1838 -0.4029
  434TIP3    H222938   2.813   0.987   6.742 -0.6884  1.0420  0.5993
  435TIP3   OH222939   2.020   5.880   0.332  0.1450 -0.3215 -0.0937
  435TIP3    H122940   1.933   5.902   0.367  1.2101  2.7878  0.9117
  435TIP3    H222941   2.041   5.795   0.371 -0.9467  0.5544  2.6232
  436TIP3   OH222942   1.407   2.373   2.432 -0.5369  0.1226  0.3330
  436TIP3    H122943   1.335   2.325   2.392 -0.2990  1.0332 -1.2777
  436TIP3    H222944   1.366   2.450   2.471 -0.2900  2.2431 -3.1212
  437TIP3   OH222945   0.136   5.560   1.528  0.6942  0.2025  0.7216
  437TIP3    H122946   0.101   5.607   1.604  0.9951  0.3308  0.7834
  437TIP3    H222947   0.192   5.492   1.566  1.1463  0.5082  0.6064
  438TIP3   OH222948   5.721   3.218   1.871  0.1505  0.4176 -0.7240
  438TIP3    H122949   5.762   3.303   1.856 -1.1582  1.4573  1.2332
  438TIP3    H222950   5.635   3.238   1.906 -0.5965 -1.7383 -1.1570
  439TIP3   OH222951   5.686   6.518   0.399 -0.6126 -0.2400  0.1440
  439TIP3    H122952   5.658   6.566   0.321  0.1930  0.2978  0.1879
  439TIP3    H222953   5.634   6.555   0.470  1.3433  1.9504  0.5268
  440TIP3   OH222954   6.665   6.386   6.717  0.5508 -0.0909 -0.1835
  440TIP3    H122955   6.675   6.476   6.748  1.4417 -0.4700  0.7031
  440TIP3    H222956   6.604   6.346   6.780  0.1576 -0.1145 -0.5753
  441TIP3   OH222957   1.242   1.619   2.319 -0.0657 -0.6440 -0.3897
  441TIP3    H122958   1.310   1.591   2.258  0.6069  0.2172 -0.0506
  441TIP3    H222959   1.260   1.568   2.399 -0.6664 -1.4282 -0.7377
  442TIP3   OH222960   0.461   2.827   2.085  0.2687  0.2021  0.1504
  442TIP3    H122961   0.465   2.784   1.999  0.0250 -0.1960  0.3398
  442TIP3    H222962   0.436   2.758   2.146  0.4385  0.4865  0.5458
  443TIP3   OH222963   6.272   6.207   1.495 -0.0402  0.2984 -0.0339
  443TIP3    H122964   6.218   6.239   1.568  0.5889 -0.7866  0.9523
  443TIP3    H222965   6.289   6.116   1.517  0.5811  0.0850 -1.3211
  444TIP3   OH222966   6.576   1.022   2.459  0.2676 -0.0922  0.4673
  444TIP3    H122967   6.671   1.013   2.454  0.0961 -1.3922 -0.7523
  444TIP3    H222968   6.558   1.024   2.553  1.4409 -0.4457  0.7167
  445TIP3   OH222969   2.330   4.054   1.968  0.2197  0.1097 -0.3520
  445TIP3    H122970   2.327   3.977   2.025  2.1904 -0.3921 -0.8260
  445TIP3    H222971   2.296   4.126   2.021 -0.2916 -0.8089  0.5907
  446TIP3   OH222972   1.428   3.687   1.254 -0.1418 -0.7347 -0.9061
  446TIP3    H122973   1.341   3.649   1.267  0.3758 -1.6620  0.1131
  446TIP3    H222974   1.436   3.698   1.159 -2.0766  1.1746 -0.9198
  447TIP3   OH222975   5.559   2.971   2.464 -0.1028 -0.0042 -0.4394
  447TIP3    H122976   5.482   3.008   2.509 -0.5832 -1.8030  0.2912
  447TIP3    H222977   5.537   2.879   2.450  1.4486 -0.2761 -1.3244
  448TIP3   OH222978   3.194   6.538   0.868  0.1111  0.9795  0.1276
  448TIP3    H122979   3.133   6.569   0.935  1.8039  0.4277  2.0379
  448TIP3    H222980   3.173   6.446   0.858  0.9922  0.6305  1.2696
  449TIP3   OH222981   3.988   4.004   0.911 -0.2933  0.1153 -0.3958
  449TIP3    H122982   3.946   3.926   0.873  1.0875 -1.4659  1.1298
  449TIP3    H222983   4.082   3.991   0.896 -0.0420  1.5606 -0.2222
  450TIP3   OH222984   4.182   4.464   8.129 -0.0396 -0.8277 -0.2811
  450TIP3    H122985   4.097   4.471   8.172  0.8973 -0.8233  1.6813
  450TIP3    H222986   4.213   4.377   8.151  1.3511 -0.0941  0.8310
  451TIP3   OH222987   1.478   6.758   0.686  0.0761 -0.7504 -0.2552
  451TIP3    H122988   1.478   6.804   0.770  1.6714 -1.9604  0.4567
  451TIP3    H222989   1.451   6.669   0.707  1.3218 -1.2910 -0.8577
  452TIP3   OH222990   2.130   2.586   0.881 -0.6380 -0.1474 -0.0688
  452TIP3    H122991   2.189   2.513   0.900  0.8756  0.6592 -1.4762
  452TIP3    H222992   2.184   2.664   0.890 -1.6728  0.6640 -0.6525
  453TIP3   OH222993   0.311   6.748   1.220 -0.0099  0.4606 -0.0390
  453TIP3    H122994   0.247   6.700   1.167  0.2562  0.4832 -0.3838
  453TIP3    H222995   0.391   6.697   1.213 -0.0939  0.2207  0.7166
  454TIP3   OH222996   5.928   2.564   1.970  0.3435 -0.0053 -0.3903
  454TIP3    H122997   6.017   2.577   2.004  0.7170 -0.8767 -0.9913
  454TIP3    H222998   5.897   2.485   2.015  0.1628 -0.1318 -0.7391
  455TIP3   OH222999   4.016   1.458   8.074 -0.4868  0.2395 -0.3424
  455TIP3    H123000   4.086   1.515   8.042  0.6342  0.8579  2.8538
  455TIP3    H223001   4.026   1.458   8.169 -3.1334 -1.9234  0.0750
  456TIP3   OH223002   2.332   2.642   8.208 -0.2136 -0.2191  0.0758
  456TIP3    H123003   2.268   2.611   8.143 -0.2189 -0.1949  0.0696
  456TIP3    H223004   2.289   2.626   8.292 -0.5474  0.5119  0.0501
  457TIP3   OH223005   1.891   1.785   0.744 -0.0156  0.4524  0.0561
  457TIP3    H123006   1.799   1.798   0.721 -0.1465 -0.5434 -0.0493
  457TIP3    H223007   1.940   1.835   0.679 -0.4778  1.1285  0.2132
  458TIP3   OH223008   4.019   4.750   2.470  0.0822  0.1043 -0.4143
  458TIP3    H123009   4.093   4.762   2.530  0.2396  1.0558 -0.7793
  458TIP3    H223010   3.942   4.775   2.522  0.2820  1.5710 -0.7758
  459TIP3   OH223011   0.429   6.200   7.807 -0.0932  0.0704 -0.0019
  459TIP3    H123012   0.430   6.172   7.716  0.3137  1.5640 -0.4818
  459TIP3    H223013   0.354   6.261   7.813  0.1803  0.3682  0.5311
  460TIP3   OH223014   6.399   2.269   1.428 -0.2456 -0.1278  0.2866
  460TIP3    H123015   6.366   2.218   1.354 -1.5306 -0.4418  1.0489
  460TIP3    H223016   6.374   2.359   1.409 -0.7507 -0.2369  0.4225
  461TIP3   OH223017   5.237   3.377   8.005 -0.2770 -0.0933  0.1353
  461TIP3    H123018   5.273   3.462   8.030  0.0305 -0.4361  0.9229
  461TIP3    H223019   5.296   3.313   8.046 -0.1784 -0.6891 -0.9165
  462TIP3   OH223020   0.211   3.141   1.268 -1.0091  0.0077 -0.1545
  462TIP3    H123021   0.295   3.185   1.260 -0.1007 -1.9529 -2.5666
  462TIP3    H223022   0.154   3.206   1.311  1.6510  1.3899  1.5532
  463TIP3   OH223023   2.553   4.729   1.408 -0.2601  0.2104 -0.7290
  463TIP3    H123024   2.575   4.809   1.360 -1.8253  0.5772 -0.8721
  463TIP3    H223025   2.494   4.681   1.349  0.7986 -1.1629 -0.7232
  464TIP3   OH223026   0.150   6.507   0.796 -0.1110  0.1426  0.5885
  464TIP3    H123027   0.126   6.475   0.709  1.2064  2.1339 -0.5955
  464TIP3    H223028   0.245   6.496   0.799  0.0240  1.3820  1.2097
  465TIP3   OH223029   2.990   4.590   1.145 -0.1851  0.2036 -0.3211
  465TIP3    H123030   2.901   4.617   1.165 -0.9026 -0.0476 -2.7721
  465TIP3    H223031   3.034   4.670   1.116 -0.7743 -0.2150 -2.6071
  466TIP3   OH223032   3.374   0.483   7.879 -0.0075  0.2426  0.3017
  466TIP3    H123033   3.393   0.395   7.847 -1.7730 -0.1230  0.1318
  466TIP3    H223034   3.410   0.541   7.812  0.7100 -0.3626  0.1508
  467TIP3   OH223035   1.070   5.397   0.196  0.1163  0.5802  0.0978
  467TIP3    H123036   1.003   5.329   0.191  0.0956  0.6532 -0.9149
  467TIP3    H223037   1.153   5.350   0.186  0.1149  0.6614 -0.3471
  468TIP3   OH223038   3.661   3.091   8.384  0.3607  0.3361 -0.1582
  468TIP3    H123039   3.704   3.138   8.312 -1.3627  1.3840 -0.5736
  468TIP3    H223040   3.732   3.071   8.446  1.5767  1.1026 -1.2482
  469TIP3   OH223041   4.590   3.139   1.166  0.4278  0.0700 -0.3022
  469TIP3    H123042   4.519   3.189   1.127 -0.4865 -0.5434  0.5177
  469TIP3    H223043   4.670   3.179   1.132 -0.3110  0.2783 -1.8542
  470TIP3   OH223044   2.258   3.642   7.812 -0.8312 -0.6049 -0.1392
  470TIP3    H123045   2.345   3.603   7.818 -0.1121  0.9784  0.4099
  470TIP3    H223046   2.199   3.577   7.849 -0.0451 -2.1312 -1.4459
  471TIP3   OH223047   2.044   6.320   7.451  0.3186  0.6300 -0.4990
  471TIP3    H123048   2.094   6.324   7.532 -1.6117  3.5846  0.7269
  471TIP3    H223049   2.108   6.339   7.382  1.7105 -0.4568  0.4562
  472TIP3   OH223050   3.182   3.423   1.463 -0.0635  0.0648  0.0678
  472TIP3    H123051   3.161   3.478   1.539  1.4267  0.2517  0.3876
  472TIP3    H223052   3.233   3.481   1.406  0.2978 -0.5824 -0.2701
  473TIP3   OH223053   4.052   0.108   1.192  0.7957 -0.1131 -0.4016
  473TIP3    H123054   4.044   0.114   1.287  2.5177 -1.6243 -0.1014
  473TIP3    H223055   3.982   0.163   1.158 -0.1449  0.0943  1.7378
  474TIP3   OH223056   5.796   2.190   8.213 -0.2798  0.2949  0.3316
  474TIP3    H123057   5.736   2.136   8.161  1.9595 -2.4731  0.4104
  474TIP3    H223058   5.830   2.254   8.150 -0.7008 -0.3427 -0.5732
  475TIP3   OH223059   5.482   1.801   3.008  0.6269  0.3064  0.1748
  475TIP3    H123060   5.485   1.752   3.090  3.5157  3.0129  1.8760
  475TIP3    H223061   5.558   1.770   2.959 -0.1073 -0.0426 -0.7890
  476TIP3   OH223062   5.164   2.496   8.314 -0.1558  0.0854 -0.0249
  476TIP3    H123063   5.100   2.432   8.285 -1.2922  0.0591  2.3131
  476TIP3    H223064   5.111   2.567   8.351  1.1281  0.4921  1.1041
  477TIP3   OH223065   1.520   4.264   0.242 -0.1070 -0.3387  0.1846
  477TIP3    H123066   1.484   4.212   0.171  1.9137  0.8244 -1.8131
  477TIP3    H223067   1.476   4.349   0.235  1.0923  0.2490 -0.6636
  478TIP3   OH223068   3.283   0.315   1.179  0.2599  0.1618 -0.1548
  478TIP3    H123069   3.226   0.368   1.124 -0.1899  0.5771  0.6989
  478TIP3    H223070   3.343   0.273   1.117 -0.3521  0.4649 -0.9753
  479TIP3   OH223071   1.061   3.268   1.940 -0.0379 -0.2877 -0.4382
  479TIP3    H123072   1.091   3.217   2.015 -2.0891 -1.3780 -0.2719
  479TIP3    H223073   1.119   3.344   1.937  0.6612 -0.6718  1.7093
  480TIP3   OH223074   2.109   5.358   0.501 -0.2593  0.4616  0.1740
  480TIP3    H123075   2.179   5.292   0.497 -0.0401  0.6087  1.1884
  480TIP3    H223076   2.030   5.311   0.476 -0.1020 -0.2005  0.8825
  481TIP3   OH223077   5.672   4.899   8.207 -0.4587  0.2749  0.0667
  481TIP3    H123078   5.711   4.982   8.234  1.7069 -1.1608  1.6632
  481TIP3    H223079   5.689   4.895   8.112  1.6194  0.6173  0.3713
  482TIP3   OH223080   0.443   2.868   7.832  0.7468  0.0021 -0.3651
  482TIP3    H123081   0.447   2.827   7.918  0.9416  0.5306 -0.1125
  482TIP3    H223082   0.524   2.920   7.827 -0.3966  1.9203  0.1445
  483TIP3   OH223083   5.432   2.852   7.401  0.0862  0.2849 -0.0259
  483TIP3    H123084   5.517   2.894   7.403 -0.4248  1.3261  0.5432
  483TIP3    H223085   5.392   2.882   7.319 -0.5221  1.4526  0.6689
  484TIP3   OH223086   3.717   2.371   7.428 -0.2778 -0.1931  0.1842
  484TIP3    H123087   3.675   2.285   7.422 -0.0010 -0.2720 -0.9164
  484TIP3    H223088   3.810   2.353   7.415 -0.0046  0.0994  1.5688
  485TIP3   OH223089   6.165   4.754   8.401 -0.2319  0.6293  0.1552
  485TIP3    H123090   6.194   4.808   8.474  1.0739  0.6139 -0.3384
  485TIP3    H223091   6.166   4.812   8.325  0.2991  0.1504 -0.2126
  486TIP3   OH223092   5.691   2.306   7.376  0.2937 -0.3484  0.2384
  486TIP3    H123093   5.756   2.326   7.443  1.5556 -1.3068 -0.6669
  486TIP3    H223094   5.714   2.219   7.344  0.1039  0.2947 -1.8503
  487TIP3   OH223095   3.518   5.478   7.490  0.5761 -0.1416  0.7723
  487TIP3    H123096   3.604   5.438   7.496  0.8179  0.3240  0.5033
  487TIP3    H223097   3.457   5.404   7.487  1.0771 -0.5410 -0.8699
  488TIP3   OH223098   0.705   4.115   1.587  0.5497  0.0832 -0.3525
  488TIP3    H123099   0.671   4.027   1.604  0.3394  0.2440  0.0972
  488TIP3    H223100   0.675   4.136   1.499  2.0397 -0.9623 -1.1702
  489TIP3   OH223101   2.357   4.644   0.122  0.0891 -0.4228 -0.4405
  489TIP3    H123102   2.450   4.660   0.135  0.2498 -1.5229 -0.0714
  489TIP3    H223103   2.354   4.572   0.059 -0.4314 -1.7221  1.0013
  490TIP3   OH223104   2.438   5.573   8.497  0.2815 -0.3584  0.4307
  490TIP3    H123105   2.353   5.614   8.480  0.0734 -1.3556 -1.1904
  490TIP3    H223106   2.493   5.644   8.528 -0.4858  0.8471 -0.8022
  491TIP3   OH223107   1.381   1.420   7.899  0.0630  0.5876  0.0765
  491TIP3    H123108   1.453   1.449   7.844  0.9659 -1.5879  0.0434
  491TIP3    H223109   1.326   1.367   7.841 -0.7117  0.9060  0.5015
  492TIP3   OH223110   2.749   3.302   7.517  0.1248 -0.2252 -0.3739
  492TIP3    H123111   2.834   3.343   7.503  0.6164 -0.5478  1.4265
  492TIP3    H223112   2.689   3.351   7.461  1.0594  1.5731  0.1294
  493TIP3   OH223113   4.074   3.864   8.320 -0.0555  0.7462  0.7709
  493TIP3    H123114   4.019   3.938   8.295 -0.2516  0.2958 -0.1474
  493TIP3    H223115   4.013   3.800   8.357  0.0944  0.9766  1.4284
  494TIP3   OH223116   0.559   3.173   7.885  0.0043  0.0300  0.3301
  494TIP3    H123117   0.543   3.188   7.791  2.0105  0.0937 -0.0355
  494TIP3    H223118   0.493   3.227   7.929 -1.6720 -0.8078 -1.0135
  495TIP3   OH223119   4.068   2.436   1.013 -0.9374 -0.4713  0.2052
  495TIP3    H123120   4.115   2.461   0.934 -0.0781  1.2011  1.1710
  495TIP3    H223121   4.068   2.341   1.013 -0.5828 -0.4957 -1.5723
  496TIP3   OH223122   1.647   3.726   2.866 -0.5014  0.5939 -0.7971
  496TIP3    H123123   1.564   3.692   2.900  0.4877  0.3480  1.6243
  496TIP3    H223124   1.714   3.687   2.923  1.0785  2.6478 -1.1119
  497TIP3   OH223125   5.627   2.127   2.067 -0.4059  0.3283 -0.0525
  497TIP3    H123126   5.619   2.202   2.125 -0.1965  1.6886 -1.7001
  497TIP3    H223127   5.633   2.052   2.126 -1.0833  1.5359  1.6403
  498TIP3   OH223128   2.571   5.690   0.479  0.4533  0.4276 -0.2445
  498TIP3    H123129   2.595   5.637   0.403  1.7319 -2.4826  1.9895
  498TIP3    H223130   2.499   5.642   0.521  3.4881 -1.5183  3.4255
  499TIP3   OH223131   2.528   1.835   7.171  0.4396  0.4410 -0.7561
  499TIP3    H123132   2.514   1.904   7.236  1.0968  1.8120 -2.0172
  499TIP3    H223133   2.623   1.824   7.168  0.3719 -0.0615 -1.0440
  500TIP3   OH223134   1.630   2.682   8.093  0.3375  0.4677  0.1469
  500TIP3    H123135   1.719   2.671   8.125  0.2402 -3.7525 -0.4145
  500TIP3    H223136   1.638   2.685   7.998 -0.0976  0.0212  0.0895
  501TIP3   OH223137   6.567   5.306   8.072  0.4136  0.1923 -0.0422
  501TIP3    H123138   6.521   5.355   8.004  1.0719  0.9547  0.0501
  501TIP3    H223139   6.537   5.215   8.059 -0.1105  0.4537 -0.8052
  502TIP3   OH223140   6.196   6.553   2.193  0.5561  0.1234  0.1985
  502TIP3    H123141   6.143   6.629   2.166  0.9310  0.0507 -0.8016
  502TIP3    H223142   6.133   6.481   2.198  0.2811  0.3928  0.6633
  503TIP3   OH223143   5.723   6.222   2.458  0.2655 -0.0300 -0.0047
  503TIP3    H123144   5.689   6.132   2.462  0.8421 -0.2213  0.8178
  503TIP3    H223145   5.645   6.276   2.467  0.1182 -0.4699  1.7205
  504TIP3   OH223146   1.833   1.714   7.924 -0.0515  0.1973  0.2810
  504TIP3    H123147   1.847   1.788   7.865  1.6284  1.4533  2.1155
  504TIP3    H223148   1.907   1.656   7.907 -1.1096 -0.8990 -0.8127
  505TIP3   OH223149   0.098   1.499   0.837 -0.1845 -0.3377 -0.2019
  505TIP3    H123150   0.115   1.406   0.820 -0.3071  0.2133 -4.6101
  505TIP3    H223151   0.010   1.502   0.874 -0.5061 -1.9610 -0.7631
  506TIP3   OH223152   4.449   5.314   8.343  0.9807  0.4465 -0.6937
  506TIP3    H123153   4.424   5.295   8.253  0.8016 -2.2182 -0.1488
  506TIP3    H223154   4.377   5.282   8.396  2.1235 -0.2667  0.4971
  507TIP3   OH223155   3.535   1.812   0.750  0.4306  0.5342 -0.2425
  507TIP3    H123156   3.565   1.867   0.823 -2.0166  0.0315  1.2464
  507TIP3    H223157   3.460   1.764   0.785  0.1477 -0.9378 -2.6479
  508TIP3   OH223158   4.889   1.074   2.094 -0.0732  0.4872  0.5606
  508TIP3    H123159   4.976   1.046   2.065 -0.8900  0.5267 -2.2560
  508TIP3    H223160   4.877   1.031   2.178  2.3388 -0.1811  0.6493
  509TIP3   OH223161   0.301   0.502   1.261  0.6552  0.1395  0.1414
  509TIP3    H123162   0.242   0.431   1.234 -0.4627  0.9386  0.3962
  509TIP3    H223163   0.269   0.579   1.214  2.0164  0.4330 -0.3396
  510TIP3   OH223164   2.271   0.765   8.258 -0.1068 -0.2953 -0.1770
  510TIP3    H123165   2.233   0.796   8.340  1.4984 -1.0346  0.9022
  510TIP3    H223166   2.226   0.815   8.190 -0.4922  1.3840  1.2355
  511TIP3   OH223167   5.809   3.758   7.630 -0.0253  0.0311 -0.0726
  511TIP3    H123168   5.733   3.747   7.573 -0.4805 -1.5381  0.7802
  511TIP3    H223169   5.811   3.851   7.651 -1.3184  0.1993 -0.6378
  512TIP3   OH223170   4.353   4.349   0.797  0.3735  0.0595 -0.5593
  512TIP3    H123171   4.388   4.384   0.879  2.1819 -0.2160 -1.1558
  512TIP3    H223172   4.260   4.335   0.814  0.6798  0.1447  1.3914
  513TIP3   OH223173   0.467   3.254   1.136  0.0798 -0.4908 -0.6006
  513TIP3    H123174   0.429   3.339   1.114 -1.3328 -1.0171 -0.2800
  513TIP3    H223175   0.485   3.214   1.051 -0.2228 -0.3033 -0.7547
  514TIP3   OH223176   5.492   0.751   1.985 -0.1272  0.1821  0.0573
  514TIP3    H123177   5.433   0.785   2.052 -0.5593 -0.5938  0.0737
  514TIP3    H223178   5.548   0.689   2.032 -0.7961 -0.7837 -0.3903
  515TIP3   OH223179   1.444   1.012   0.400 -0.1111  0.2036  0.1478
  515TIP3    H123180   1.487   0.964   0.471  0.7215  0.8633  0.0960
  515TIP3    H223181   1.366   1.049   0.441  0.5220  0.8370  0.8132
  516TIP3   OH223182   3.729   4.676   2.247  0.3413 -0.1037  0.4286
  516TIP3    H123183   3.642   4.647   2.276  0.0572  0.5954  0.2979
  516TIP3    H223184   3.714   4.714   2.161  0.6170  0.8063  0.7635
  517TIP3   OH223185   3.910   1.906   1.197  0.2870 -0.2045  0.5644
  517TIP3    H123186   3.859   1.956   1.261 -1.0630 -0.2795 -0.4071
  517TIP3    H223187   3.849   1.840   1.165 -0.2454  1.8898 -3.2481
  518TIP3   OH223188   4.407   0.749   1.235  0.1283 -0.0796  0.1603
  518TIP3    H123189   4.394   0.655   1.250  1.4886 -0.1066  1.3402
  518TIP3    H223190   4.332   0.790   1.279  0.1064 -0.5624  0.5885
  519TIP3   OH223191   6.453   3.585   1.265  0.6750  0.2360  0.0719
  519TIP3    H123192   6.475   3.501   1.304 -0.1620  0.0140  0.0910
  519TIP3    H223193   6.387   3.565   1.199 -1.4131  1.1299  1.7743
  520TIP3   OH223194   2.856   2.899   2.058 -0.6243 -0.0848 -0.0238
  520TIP3    H123195   2.906   2.867   1.983  0.7878  0.1047  0.7944
  520TIP3    H223196   2.840   2.991   2.039 -1.3787 -0.3437 -0.6609
  521TIP3   OH223197   0.629   4.186   8.445 -0.1387  0.0517 -0.2202
  521TIP3    H123198   0.708   4.189   8.390  0.1483  0.2691  0.2036
  521TIP3    H223199   0.600   4.095   8.439 -0.2871  0.1400 -0.9767
  522TIP3   OH223200   2.253   5.150   1.544  0.2389  0.1730  0.6326
  522TIP3    H123201   2.189   5.202   1.591 -1.0484 -0.0795 -0.7714
  522TIP3    H223202   2.336   5.169   1.588 -1.0651 -1.4537  4.1726
  523TIP3   OH223203   0.139   0.407   6.869 -0.0656 -0.2382 -0.0474
  523TIP3    H123204   0.099   0.354   6.799  0.4249  0.7703 -1.1382
  523TIP3    H223205   0.176   0.343   6.929  1.4279 -1.2002 -1.8604
  524TIP3   OH223206   2.711   2.198   1.703  0.2174 -0.6472  0.0187
  524TIP3    H123207   2.678   2.110   1.684 -1.4857  0.0828 -0.6278
  524TIP3    H223208   2.635   2.255   1.689  0.9671  0.8050  1.5519
  525TIP3   OH223209   1.267   6.477   1.096  0.1989  0.3605  0.3656
  525TIP3    H123210   1.192   6.487   1.037  0.5683  0.6843 -0.0598
  525TIP3    H223211   1.317   6.558   1.085  0.9535 -0.1197  0.1620
  526TIP3   OH223212   1.078   3.410   7.263  0.1120  0.0237 -0.1910
  526TIP3    H123213   1.160   3.359   7.270 -0.4997 -1.0171 -0.4191
  526TIP3    H223214   1.060   3.413   7.169  2.0628  3.8774 -0.6331
  527TIP3   OH223215   1.328   2.509   7.534  0.0903  0.0970 -0.4023
  527TIP3    H123216   1.289   2.535   7.451 -0.9162 -0.3279 -0.0743
  527TIP3    H223217   1.267   2.541   7.601 -0.5492 -1.9488  0.0612
  528TIP3   OH223218   4.718   0.238   6.518  0.3999  0.5551  0.0721
  528TIP3    H123219   4.688   0.162   6.567 -3.2930  0.0461 -2.5150
  528TIP3    H223220   4.775   0.203   6.450 -2.1456 -0.2541 -1.7894
  529TIP3   OH223221   5.562   3.632   1.188  0.0810 -0.4897  0.0094
  529TIP3    H123222   5.471   3.643   1.162  0.2430  0.7861 -0.1130
  529TIP3    H223223   5.559   3.627   1.284 -0.2530 -2.2558 -0.0591
  530TIP3   OH223224   1.356   1.850   0.009 -0.6652 -0.0910 -0.3037
  530TIP3    H123225   1.352   1.940  -0.024 -0.2497 -0.2435 -0.7815
  530TIP3    H223226   1.448   1.834   0.026 -0.4503 -1.0663 -2.0918
  531TIP3   OH223227   6.676   2.490   8.422  0.1682 -0.4279 -0.4812
  531TIP3    H123228   6.657   2.482   8.515 -0.8798  0.0542 -0.6422
  531TIP3    H223229   6.597   2.457   8.378  0.2971  0.1663 -1.1852
  532TIP3   OH223230   6.177   4.548   7.134 -0.0422 -0.3273  0.6177
  532TIP3    H123231   6.173   4.539   7.039 -1.1224  1.3827  0.4611
  532TIP3    H223232   6.262   4.588   7.151 -0.2392  0.2455  0.2782
  533TIP3   OH223233   1.980   6.188   7.870 -0.1026 -0.3070  0.0994
  533TIP3    H123234   1.907   6.231   7.825  1.0762 -0.3364 -1.9537
  533TIP3    H223235   1.939   6.147   7.946 -1.6684  2.3582  0.8237
  534TIP3   OH223236   6.774   5.196   6.658 -0.0784  0.2609 -0.0209
  534TIP3    H123237   6.752   5.248   6.735 -0.9044  0.2356 -0.2212
  534TIP3    H223238   6.820   5.257   6.600 -0.5924  0.6393 -0.0427
  535TIP3   OH223239   0.926   6.244   2.081 -0.4143 -0.5265 -0.3375
  535TIP3    H123240   0.887   6.188   2.147  0.7124  0.8415  1.6133
  535TIP3    H223241   1.009   6.202   2.059  1.2506  1.0533  2.3905
  536TIP3   OH223242   1.657   1.212   2.723  0.1795 -0.4482 -0.2047
  536TIP3    H123243   1.624   1.155   2.793 -1.0010 -0.7315 -0.9807
  536TIP3    H223244   1.633   1.300   2.751  1.2027 -0.3830  0.5482
  537TIP3   OH223245   1.730   5.528   0.367 -0.5215  0.5769  0.2717
  537TIP3    H123246   1.786   5.605   0.356  0.4560 -0.3075 -1.4797
  537TIP3    H223247   1.643   5.559   0.342 -0.1126  1.0920 -0.5855
  538TIP3   OH223248   4.632   6.152   8.834  0.6097 -0.6630  0.3828
  538TIP3    H123249   4.568   6.219   8.857  1.6938 -0.0769  1.8663
  538TIP3    H223250   4.599   6.113   8.753  0.2780  2.0911 -0.9230
  539TIP3   OH223251   1.932   3.667   1.126  0.0655 -0.5427 -0.1788
  539TIP3    H123252   1.912   3.607   1.198 -0.0296  0.9700  1.1110
  539TIP3    H223253   2.023   3.693   1.141 -0.4531  1.0554  0.4096
  540TIP3   OH223254   6.002   1.446   8.081 -0.0837  0.1836 -0.7135
  540TIP3    H123255   5.958   1.480   8.003 -0.2820  0.1124 -0.6342
  540TIP3    H223256   6.012   1.352   8.064 -1.3211 -0.0914 -0.1068
  541TIP3   OH223257   1.890   2.246   7.653  0.5554 -0.1000  0.3760
  541TIP3    H123258   1.947   2.204   7.588 -1.4693 -2.8291  0.1510
  541TIP3    H223259   1.823   2.290   7.601  1.2328  1.3099  0.6535
  542TIP3   OH223260   2.965   3.968   1.936 -0.2869  0.2094  0.2213
  542TIP3    H123261   3.039   4.016   1.900  0.7332 -0.9234  0.7391
  542TIP3    H223262   2.959   3.998   2.027  0.6250 -0.8996  0.6738
  543TIP3   OH223263   2.667   0.298   2.499 -0.0964 -0.1179  0.1461
  543TIP3    H123264   2.725   0.223   2.499 -0.0293 -0.2471 -3.3209
  543TIP3    H223265   2.584   0.264   2.465 -1.4857  0.5877  2.5838
  544TIP3   OH223266   2.664   5.666   6.877 -0.1596 -0.4857 -0.7696
  544TIP3    H123267   2.757   5.680   6.858 -0.1889 -0.1779 -0.6960
  544TIP3    H223268   2.661   5.647   6.971 -0.3909  1.8454 -0.2372
  545TIP3   OH223269   6.259   4.226   2.509 -0.1119  1.0619  0.2958
  545TIP3    H123270   6.249   4.153   2.571  0.2103  2.1795  1.7335
  545TIP3    H223271   6.349   4.217   2.476 -0.5234  0.0368 -0.6050
  546TIP3   OH223272   3.400   1.838   7.774  0.5403 -0.4627 -0.7547
  546TIP3    H123273   3.480   1.884   7.800 -0.3917  0.9312 -0.2111
  546TIP3    H223274   3.413   1.817   7.681  1.6063 -0.4348 -0.6208
  547TIP3   OH223275   6.023   0.698   1.042 -0.2624  0.3175  0.3149
  547TIP3    H123276   6.048   0.773   0.989  0.4751 -0.4024 -0.3877
  547TIP3    H223277   6.017   0.626   0.979  1.5371 -0.7612  1.3097
  548TIP3   OH223278   5.942   1.631   0.847  0.4101 -0.2793 -0.1959
  548TIP3    H123279   5.980   1.712   0.878 -1.1698  0.2370  0.4985
  548TIP3    H223280   5.999   1.562   0.881  1.5521  0.5070 -0.4881
  549TIP3   OH223281   1.201   6.065   0.552  0.4484  0.5101 -0.3621
  549TIP3    H123282   1.227   5.985   0.598 -1.4732 -0.7257 -1.2975
  549TIP3    H223283   1.204   6.133   0.619  2.5911 -0.2028  0.3514
  550TIP3   OH223284   1.575   3.708   2.590  0.0607  0.0849  0.3386
  550TIP3    H123285   1.525   3.726   2.669  2.8711  0.7257  2.1304
  550TIP3    H223286   1.637   3.639   2.615  1.1628  0.4408 -1.2087
  551TIP3   OH223287   5.733   2.666   0.639 -0.6787 -0.3368 -0.1246
  551TIP3    H123288   5.680   2.745   0.649  0.4318  0.2922  0.8719
  551TIP3    H223289   5.760   2.667   0.547  0.7383  1.3691  0.2697
  552TIP3   OH223290   2.250   6.595   0.597  0.0517 -0.1892  0.4001
  552TIP3    H123291   2.289   6.587   0.684 -1.1347  0.4286  1.0076
  552TIP3    H223292   2.265   6.686   0.571  1.2876 -0.6176 -0.5061
  553TIP3   OH223293   0.040   4.263   7.460  0.0291  0.0058 -0.3847
  553TIP3    H123294   0.115   4.266   7.401  0.8140  2.8774  0.5962
  553TIP3    H223295   0.060   4.328   7.528 -3.1430  0.5488  0.1743
  554TIP3   OH223296   0.195   3.038   0.055 -0.1067  0.6736  0.1410
  554TIP3    H123297   0.128   3.059  -0.009 -3.7846 -0.4303  3.2197
  554TIP3    H223298   0.218   3.122   0.095 -0.1925  0.9871 -0.4598
  555TIP3   OH223299   3.788   2.486   8.531  0.3047  0.0468  0.2025
  555TIP3    H123300   3.766   2.579   8.532 -1.2045 -0.2708 -0.7579
  555TIP3    H223301   3.704   2.441   8.534  1.0058 -1.2942  0.4320
  556TIP3   OH223302   5.889   3.724   2.469 -0.7387  0.0388  0.2672
  556TIP3    H123303   5.826   3.673   2.418 -1.3092  0.0987  0.9020
  556TIP3    H223304   5.965   3.732   2.411 -0.5263 -1.7244  0.2489
  557TIP3   OH223305   1.411   6.432   0.143 -0.6238 -0.0367 -0.5733
  557TIP3    H123306   1.371   6.393   0.220  1.1839 -0.1526  0.3589
  557TIP3    H223307   1.473   6.366   0.111  2.1227  1.6857  0.7464
  558TIP3   OH223308   3.086   4.689   7.217 -0.3028  0.2951 -0.0266
  558TIP3    H123309   3.015   4.670   7.279 -0.4701  0.0952 -0.2779
  558TIP3    H223310   3.162   4.643   7.253 -0.0702  1.2400  0.7236
  559TIP3   OH223311   0.658   0.469   2.346 -0.1146 -0.2976 -0.0493
  559TIP3    H123312   0.571   0.451   2.381  0.6127  0.1778  2.1368
  559TIP3    H223313   0.660   0.563   2.332 -0.5302 -0.5226 -1.8767
  560TIP3   OH223314   5.299   4.441   8.353  0.0819  0.2189 -0.6915
  560TIP3    H123315   5.227   4.493   8.387  0.3545  0.2447 -0.1467
  560TIP3    H223316   5.269   4.350   8.360  1.1744 -0.0264  2.2835
  561TIP3   OH223317   3.211   5.605   7.027 -0.3076 -0.0143 -0.6668
  561TIP3    H123318   3.179   5.517   7.046  0.0061 -0.1641 -0.8277
  561TIP3    H223319   3.138   5.663   7.050 -0.5967 -0.3320 -0.7817
  562TIP3   OH223320   2.921   5.313   0.103 -0.2240 -0.2643  0.2431
  562TIP3    H123321   2.949   5.258   0.176 -0.7514  0.7428  1.2173
  562TIP3    H223322   2.962   5.398   0.119  3.5765 -1.1287 -3.0624
  563TIP3   OH223323   1.364   6.785   1.806  0.0224 -0.0243  0.1460
  563TIP3    H123324   1.367   6.772   1.712  1.2083  1.0695 -0.0052
  563TIP3    H223325   1.452   6.761   1.836 -0.7748 -1.8201  1.2083
  564TIP3   OH223326   0.934   2.914   1.744 -0.6621  0.8030  0.4165
  564TIP3    H123327   0.878   2.865   1.684  0.3175  0.6530 -0.4140
  564TIP3    H223328   0.958   2.993   1.695 -0.2224  0.9022  0.7821
  565TIP3   OH223329   0.992   3.618   1.678 -0.7605 -0.1581  0.3861
  565TIP3    H123330   0.904   3.581   1.675 -0.2493 -1.3727 -1.5385
  565TIP3    H223331   0.980   3.710   1.655 -1.7913  0.3941  2.8794
  566TIP3   OH223332   5.524   1.592   7.020 -0.3223  0.2439 -0.1340
  566TIP3    H123333   5.578   1.635   7.086  0.2701  1.3486 -1.3001
  566TIP3    H223334   5.581   1.525   6.981  0.5264  1.8977 -1.8734
  567TIP3   OH223335   1.093   1.364   2.209  0.0225 -0.3400 -0.0020
  567TIP3    H123336   1.117   1.317   2.289  0.7389  0.4327  0.2435
  567TIP3    H223337   1.100   1.457   2.232 -1.3772 -0.0791 -0.4754
  568TIP3   OH223338   0.385   3.564   1.432  0.5285  0.3997 -0.6915
  568TIP3    H123339   0.403   3.535   1.522  1.1847  0.1858 -0.8861
  568TIP3    H223340   0.453   3.521   1.379  1.4796  2.1787 -1.0084
  569TIP3   OH223341   5.988   6.157   1.287  0.1454  0.1500  0.5431
  569TIP3    H123342   6.056   6.098   1.254 -0.5014 -0.1697 -0.2399
  569TIP3    H223343   6.008   6.242   1.247  0.7672  0.3539  1.2558
  570TIP3   OH223344   1.506   2.224   8.496 -0.4717 -0.0851  0.8318
  570TIP3    H123345   1.572   2.154   8.494 -1.1055 -0.7403  1.8118
  570TIP3    H223346   1.546   2.296   8.447  1.4709 -0.0357  2.3570
  571TIP3   OH223347   4.650   6.425   2.561  0.3441 -0.4356 -0.0273
  571TIP3    H123348   4.666   6.508   2.606 -1.3402 -0.8613  1.4641
  571TIP3    H223349   4.601   6.449   2.483  3.1545  0.2960 -1.7259
  572TIP3   OH223350   4.316   3.423   2.778  0.1119  0.5347 -0.4653
  572TIP3    H123351   4.240   3.371   2.754 -0.7874  1.3758  0.4530
  572TIP3    H223352   4.323   3.414   2.873  1.4106  0.1554 -0.5734
  573TIP3   OH223353   3.538   4.072   7.305  0.0062 -0.2575 -0.2827
  573TIP3    H123354   3.523   4.156   7.262 -1.2427 -1.2325 -1.8437
  573TIP3    H223355   3.464   4.062   7.365 -0.5180 -0.7852 -1.0066
  574TIP3   OH223356   4.849   6.492   8.466  0.3169  0.3024  0.2530
  574TIP3    H123357   4.767   6.501   8.514  0.6748  0.3781  0.8558
  574TIP3    H223358   4.823   6.462   8.379 -0.2794 -0.6915  0.7598
  575TIP3   OH223359   5.429   3.786   6.943 -0.0859 -0.2325  0.1716
  575TIP3    H123360   5.468   3.838   6.873 -0.3318 -1.1054 -0.6401
  575TIP3    H223361   5.366   3.730   6.898  0.9469 -2.0160  0.8438
  576TIP3   OH223362   4.409   0.424   8.228  0.3247 -0.6051  0.1097
  576TIP3    H123363   4.488   0.398   8.276 -0.6396 -3.0177  0.5658
  576TIP3    H223364   4.440   0.442   8.139  1.4467 -1.0913  0.3829
  577TIP3   OH223365   4.094   1.191   0.394 -0.3751  0.1863 -0.2737
  577TIP3    H123366   4.143   1.203   0.313 -0.6645  0.2245 -0.4452
  577TIP3    H223367   4.004   1.175   0.365 -0.4837  0.2260  0.0404
  578TIP3   OH223368   2.899   4.561   7.373 -0.4266  0.1747  0.2664
  578TIP3    H123369   2.885   4.617   7.450 -0.3890  0.7221 -0.1148
  578TIP3    H223370   2.812   4.551   7.335 -0.2887  0.8658 -0.2612
  579TIP3   OH223371   4.009   1.434   7.508 -0.0420 -0.0223 -0.8629
  579TIP3    H123372   3.970   1.487   7.577  0.4458  0.3391 -0.8666
  579TIP3    H223373   4.100   1.424   7.533 -0.4415 -2.1784 -0.0387
  580TIP3   OH223374   0.899   2.877   1.237  0.1453 -0.6126 -0.6294
  580TIP3    H123375   0.939   2.863   1.152  1.3008 -1.2429 -0.0111
  580TIP3    H223376   0.963   2.844   1.300 -1.1319 -1.1796  0.4410
  581TIP3   OH223377   2.202   2.149   2.314  1.0146 -0.4896 -0.3782
  581TIP3    H123378   2.248   2.223   2.275  1.7899 -0.5720  0.3456
  581TIP3    H223379   2.262   2.075   2.304  0.8483 -0.7057  0.1582
  582TIP3   OH223380   3.973   6.645   0.282  0.4685  1.0265 -0.4950
  582TIP3    H123381   3.992   6.577   0.346 -0.3890  0.3818 -0.9135
  582TIP3    H223382   3.963   6.725   0.335 -2.3915  0.1218  0.4647
  583TIP3   OH223383   2.482   0.620   7.158  0.6209  0.3540 -0.5396
  583TIP3    H123384   2.575   0.598   7.158  0.4579 -0.4258 -1.5462
  583TIP3    H223385   2.470   0.675   7.235  2.1040  1.2628 -0.9148
  584TIP3   OH223386   3.001   2.194   1.195  0.1546  0.5847 -0.4243
  584TIP3    H123387   2.973   2.140   1.121 -0.5698  1.9996 -1.2385
  584TIP3    H223388   2.961   2.154   1.272 -1.8750  0.9610 -1.2229
  585TIP3   OH223389   4.592   5.475   7.330  0.7335 -0.5862  0.0827
  585TIP3    H123390   4.505   5.440   7.311  0.6405  0.3986 -1.5241
  585TIP3    H223391   4.649   5.399   7.332  0.3047 -1.0318 -1.8753
  586TIP3   OH223392   0.256   0.368   8.728 -0.4503  0.0668  0.2671
  586TIP3    H123393   0.255   0.348   8.634 -0.5424  2.7348 -0.3836
  586TIP3    H223394   0.349   0.371   8.751 -0.4416 -2.2564  0.7191
  587TIP3   OH223395   2.874   0.067   1.071  0.8401  0.3205 -0.1208
  587TIP3    H123396   2.803   0.013   1.107  0.8686 -1.1112 -2.0450
  587TIP3    H223397   2.944   0.004   1.051  1.8246  1.4134 -0.2082
  588TIP3   OH223398   6.575   1.466   0.279 -0.7075 -0.4686 -0.2870
  588TIP3    H123399   6.633   1.539   0.304 -0.4449 -0.9494  0.5354
  588TIP3    H223400   6.487   1.498   0.299 -0.7173  0.1235 -1.1922
  589TIP3   OH223401   3.856   4.997   6.881 -0.0553  0.3268  0.2656
  589TIP3    H123402   3.845   4.902   6.876 -0.8202  0.4533 -0.8607
  589TIP3    H223403   3.768   5.031   6.895  0.2864  0.8500  1.2223
  590TIP3   OH223404   3.399   1.701   2.124  0.4589  0.1901 -0.0978
  590TIP3    H123405   3.325   1.692   2.064  0.1962  1.0899  0.0805
  590TIP3    H223406   3.412   1.613   2.159 -2.5161  0.4762  2.1771
  591TIP3   OH223407   4.665   3.056   0.315  0.1275 -0.6254 -0.6316
  591TIP3    H123408   4.635   3.126   0.373  1.3566 -0.2027 -0.4931
  591TIP3    H223409   4.691   3.100   0.235  0.0353 -1.0327 -0.8915
  592TIP3   OH223410   3.932   2.202   8.221  0.2675 -0.0663 -0.4619
  592TIP3    H123411   4.008   2.203   8.279  0.1701 -1.0515 -0.3001
  592TIP3    H223412   3.861   2.169   8.275  0.4411 -2.1457 -1.4178
  593TIP3   OH223413   0.840   3.137   7.123 -0.5145  0.3316 -0.1832
  593TIP3    H123414   0.801   3.202   7.181 -4.8621 -1.2769 -0.9424
  593TIP3    H223415   0.839   3.178   7.036  0.5912  0.6530 -0.0607
  594TIP3   OH223416   0.177   4.346   8.395 -0.6579 -0.2485 -0.3349
  594TIP3    H123417   0.206   4.265   8.436 -1.8506  0.3544  1.8884
  594TIP3    H223418   0.086   4.329   8.370 -1.0775  0.5432  0.6091
  595TIP3   OH223419   6.083   0.411   2.026 -0.0718  0.2693 -0.7971
  595TIP3    H123420   6.110   0.348   1.960  2.4251 -0.0062  0.3795
  595TIP3    H223421   6.055   0.488   1.976  0.9658 -0.2273 -2.2055
  596TIP3   OH223422   1.942   0.463   1.014 -0.0242  0.7439 -0.6373
  596TIP3    H123423   1.891   0.527   0.964  1.0286  0.9054 -1.5549
  596TIP3    H223424   1.913   0.378   0.981 -0.1966  0.8064 -0.6477
  597TIP3   OH223425   5.990   0.062   8.735 -0.0544  0.1258  0.8365
  597TIP3    H123426   6.054   0.120   8.777  1.1394  0.2465 -1.0207
  597TIP3    H223427   5.939   0.120   8.678 -0.2467 -0.3227  0.5469
  598TIP3   OH223428   5.353   4.923   8.105 -0.3095  0.1338 -0.2944
  598TIP3    H123429   5.358   4.988   8.176  1.5253 -0.2310 -0.0229
  598TIP3    H223430   5.328   4.842   8.149 -1.5514  0.4052 -0.4683
  599TIP3   OH223431   3.699   5.698   8.364 -0.2666  0.9734  0.1751
  599TIP3    H123432   3.631   5.720   8.301 -1.5562  0.2598  1.2860
  599TIP3    H223433   3.756   5.775   8.366  0.9488  0.3623 -3.2315
  600TIP3   OH223434   1.771   2.320   7.914  0.3003 -0.0775 -0.2114
  600TIP3    H123435   1.767   2.416   7.914 -0.6906 -0.0749  2.1363
  600TIP3    H223436   1.853   2.300   7.868  0.6120  1.8845 -0.5982
  601TIP3   OH223437   2.771   1.257   1.584  0.3237 -0.1134  0.3961
  601TIP3    H123438   2.745   1.346   1.608 -0.2556  0.5721 -2.3955
  601TIP3    H223439   2.862   1.250   1.613  0.2812  1.2703  0.9492
  602TIP3   OH223440   4.731   2.782   0.060  0.4989 -0.2184 -0.2461
  602TIP3    H123441   4.638   2.790   0.039 -0.1990 -1.0024  2.2223
  602TIP3    H223442   4.765   2.871   0.052 -0.5643  0.1649 -0.6970
  603TIP3   OH223443   1.933   5.819   0.643  0.1345  0.1180 -1.2103
  603TIP3    H123444   1.874   5.846   0.713 -0.5968  2.2858 -2.5658
  603TIP3    H223445   2.019   5.848   0.672  0.2914 -1.3142 -0.1076
  604TIP3   OH223446   0.948   1.829   2.504  0.5964  0.4155 -0.5131
  604TIP3    H123447   0.976   1.780   2.427  2.1989 -0.9236  0.8160
  604TIP3    H223448   0.978   1.918   2.489  1.3161  0.0609 -1.2594
  605TIP3   OH223449   4.940   0.650   2.113  0.1663  0.1766 -0.0792
  605TIP3    H123450   4.980   0.571   2.149 -1.0907  0.5540  2.3762
  605TIP3    H223451   4.965   0.719   2.175 -1.3931  1.0635 -0.3890
  606TIP3   OH223452   5.612   2.905   8.229  0.0864  0.5881  0.3333
  606TIP3    H123453   5.540   2.933   8.171 -0.3871 -0.0735  0.5841
  606TIP3    H223454   5.679   2.872   8.169 -0.0883  0.6111  0.1240
  607TIP3   OH223455   4.686   1.046   0.714 -0.3205 -0.1575  0.2190
  607TIP3    H123456   4.703   1.031   0.621 -1.0922  2.0561 -0.3686
  607TIP3    H223457   4.765   1.016   0.759  1.1906  1.1179 -1.4387
  608TIP3   OH223458   0.745   4.409   7.035 -0.2437 -0.2258  0.1429
  608TIP3    H123459   0.811   4.431   6.969 -0.6099 -0.7258 -0.4012
  608TIP3    H223460   0.663   4.445   7.001 -0.7165 -1.7661 -0.4295
  609TIP3   OH223461   3.995   0.545   8.566 -0.0662 -0.4376  0.1508
  609TIP3    H123462   4.048   0.560   8.644  0.0770 -1.7206  0.3120
  609TIP3    H223463   4.053   0.572   8.494  0.2934 -0.5219  0.4041
  610TIP3   OH223464   1.238   1.472   6.598 -0.0097 -0.2281  0.1090
  610TIP3    H123465   1.318   1.422   6.613  0.7766  1.3253  1.2486
  610TIP3    H223466   1.168   1.416   6.633  0.8378 -0.6087  1.2501
  611TIP3   OH223467   0.358   4.317   8.169  0.3196 -0.2096 -0.0945
  611TIP3    H123468   0.323   4.330   8.257 -0.0987  0.1271 -0.3087
  611TIP3    H223469   0.311   4.381   8.115 -1.7441 -2.4791 -1.1637
  612TIP3   OH223470   0.520   5.389   7.387 -0.1142  0.7209 -0.0513
  612TIP3    H123471   0.429   5.408   7.364 -0.3694  0.1300  0.4443
  612TIP3    H223472   0.522   5.294   7.399  0.6912  0.6614 -0.5841
  613TIP3   OH223473   5.070   2.832   8.079  0.1267  0.0915 -0.4240
  613TIP3    H123474   5.139   2.847   8.016  2.2316 -1.8265  1.2700
  613TIP3    H223475   5.080   2.903   8.143  1.8635 -1.2148  0.8359
  614TIP3   OH223476   3.749   6.545   8.510  0.0041  0.3251 -0.3963
  614TIP3    H123477   3.769   6.512   8.598  0.1106  0.7059 -0.2782
  614TIP3    H223478   3.823   6.516   8.456 -0.5998 -0.9043 -0.6174
  615TIP3   OH223479   3.700   2.585   8.798 -0.1561  0.1356  0.0437
  615TIP3    H123480   3.641   2.660   8.802  0.9445  0.9712  1.5574
  615TIP3    H223481   3.781   2.620   8.761 -0.8023 -1.1907 -2.8908
  616TIP3   OH223482   0.623   4.041   2.017 -0.4304  0.2944 -0.1660
  616TIP3    H123483   0.634   4.136   2.005 -0.9402  0.7080  2.2756
  616TIP3    H223484   0.583   4.032   2.103 -0.0938 -2.1797 -0.2112
  617TIP3   OH223485   6.457   4.607   8.564 -0.0989 -1.0170  0.0815
  617TIP3    H123486   6.492   4.623   8.651  1.3268 -1.0175 -0.4649
  617TIP3    H223487   6.385   4.545   8.577 -1.3395  0.6138  1.4854
  618TIP3   OH223488   0.729   1.062   1.579  0.1080  0.0080 -0.3564
  618TIP3    H123489   0.722   1.150   1.541  0.0859 -0.1726 -0.7795
  618TIP3    H223490   0.747   1.005   1.504 -1.1768 -0.5303 -0.2941
  619TIP3   OH223491   5.641   2.291   2.277  0.1076 -0.4812 -0.3106
  619TIP3    H123492   5.731   2.263   2.294  0.8166  1.7392 -0.0712
  619TIP3    H223493   5.589   2.243   2.342  1.2819 -0.8631  0.3931
  620TIP3   OH223494   1.103   4.369   1.743  0.7203 -0.4652 -0.3298
  620TIP3    H123495   1.081   4.461   1.727 -0.1653 -0.7391 -0.7822
  620TIP3    H223496   1.190   4.372   1.784  0.7692  0.5602 -0.4649
  621TIP3   OH223497   2.976   6.461   0.204  0.2387 -0.0116  0.2288
  621TIP3    H123498   3.007   6.550   0.221 -0.2763  0.8135 -2.6100
  621TIP3    H223499   3.055   6.412   0.181  0.4460 -0.1734  1.2314
  622TIP3   OH223500   0.586   0.219   8.020  0.1373  0.2221 -0.4031
  622TIP3    H123501   0.553   0.210   7.930 -2.8148 -0.9442  0.6594
  622TIP3    H223502   0.557   0.306   8.047  1.1326  0.6213 -0.6093
  623TIP3   OH223503   6.514   6.444   1.078  0.5511 -0.6674  0.3632
  623TIP3    H123504   6.590   6.390   1.060  1.4216  0.3466  0.8897
  623TIP3    H223505   6.462   6.393   1.141  0.9776 -1.1981  0.2861
  624TIP3   OH223506   1.140   3.792   7.594  0.1276 -0.3545  0.2315
  624TIP3    H123507   1.141   3.741   7.513 -1.5224 -0.9995  0.5662
  624TIP3    H223508   1.204   3.750   7.651  2.5127  1.0876 -1.2607
  625TIP3   OH223509   0.838   2.633   8.495 -0.1891 -0.0736 -0.8489
  625TIP3    H123510   0.860   2.568   8.428 -0.4265 -0.2273 -0.7811
  625TIP3    H223511   0.923   2.662   8.529 -0.0848 -1.0941 -0.1746
  626TIP3   OH223512   4.338   6.024   0.793 -0.4449  0.0073  0.3551
  626TIP3    H123513   4.407   6.058   0.736  2.0367 -1.8074  2.0411
  626TIP3    H223514   4.335   5.930   0.773 -2.4566  0.0212  0.3796
  627TIP3   OH223515   1.590   6.674   0.449 -0.5262 -0.4623  0.1887
  627TIP3    H123516   1.538   6.720   0.515  2.0858 -0.2998  2.3171
  627TIP3    H223517   1.556   6.584   0.450 -0.2531 -0.5918  2.1997
  628TIP3   OH223518   1.826   3.768   0.471 -0.3170 -0.1201  0.4740
  628TIP3    H123519   1.799   3.678   0.450 -2.3942  0.4340  0.6017
  628TIP3    H223520   1.868   3.800   0.391 -2.7032 -0.0665 -0.8325
  629TIP3   OH223521   3.761   2.827   1.355  0.3354  0.1021  0.6529
  629TIP3    H123522   3.717   2.907   1.385  1.7520  0.9964  0.4694
  629TIP3    H223523   3.835   2.859   1.304  1.5808 -1.3061  1.4814
  630TIP3   OH223524   3.047   3.202   8.852  0.0544 -0.4633 -0.4560
  630TIP3    H123525   3.017   3.120   8.891 -1.2186  0.9646  1.7973
  630TIP3    H223526   3.142   3.199   8.859 -0.0604 -0.6566  2.1830
  631TIP3   OH223527   1.165   5.529   0.813  0.1738  0.2890  0.0945
  631TIP3    H123528   1.244   5.554   0.861  0.7003 -0.0833 -0.5563
  631TIP3    H223529   1.169   5.434   0.807 -0.2045  0.2854 -0.1442
  632TIP3   OH223530   5.001   4.618   2.148  0.1288 -0.1259 -0.0243
  632TIP3    H123531   4.998   4.706   2.186  3.5034 -0.0487  0.3207
  632TIP3    H223532   4.993   4.559   2.223 -1.8198 -0.2016 -0.2262
  633TIP3   OH223533   1.059   1.357   8.825  0.0616 -0.2306 -0.3751
  633TIP3    H123534   0.987   1.416   8.800 -0.0314  0.1393  0.7303
  633TIP3    H223535   1.131   1.415   8.847 -0.1587 -0.4845  1.1311
  634TIP3   OH223536   5.030   5.702   0.952  0.2863  0.2429 -0.4328
  634TIP3    H123537   5.066   5.782   0.990  0.8623 -0.0257 -0.3903
  634TIP3    H223538   4.952   5.730   0.904  0.7280  0.8949 -0.7841
  635TIP3   OH223539   4.490   4.481   7.070 -0.4494 -0.0445 -0.5976
  635TIP3    H123540   4.480   4.468   6.976 -0.2637  0.1899 -0.6514
  635TIP3    H223541   4.508   4.575   7.080  0.7418 -0.2800 -0.4290
  636TIP3   OH223542   0.637   3.557   0.581  0.1384 -1.0346  0.4642
  636TIP3    H123543   0.650   3.465   0.560  1.6497 -0.9511  0.9337
  636TIP3    H223544   0.722   3.598   0.566 -0.3167  0.1507  0.9577
  637TIP3   OH223545   6.091   4.716   2.537  0.3309  0.4146 -0.9799
  637TIP3    H123546   6.001   4.687   2.528  0.5275 -0.6165  0.0950
  637TIP3    H223547   6.143   4.638   2.518  0.8917  0.1275  1.4112
  638TIP3   OH223548   1.193   2.441   1.244  0.5749 -0.0788 -0.0933
  638TIP3    H123549   1.265   2.419   1.184  1.5191 -0.4217  1.1231
  638TIP3    H223550   1.232   2.434   1.331 -0.3681  1.8608  0.5364
  639TIP3   OH223551   5.564   6.082   1.000 -0.2664 -0.1620  0.0024
  639TIP3    H123552   5.546   6.013   1.063 -1.9683  0.1588 -0.0901
  639TIP3    H223553   5.613   6.148   1.049 -1.7813  0.1995  1.0896
  640TIP3   OH223554   1.424   6.456   0.496 -0.0407 -0.1917 -0.5134
  640TIP3    H123555   1.351   6.413   0.452 -0.0073 -0.6724 -0.1175
  640TIP3    H223556   1.387   6.484   0.581 -0.2091  1.0532 -0.9744
  641TIP3   OH223557   1.130   2.038   2.037  0.2804  0.3150 -0.0466
  641TIP3    H123558   1.141   2.062   1.946 -0.7775  1.0684 -0.0018
  641TIP3    H223559   1.062   1.970   2.036  0.7977 -0.2160  0.1258
  642TIP3   OH223560   6.429   5.711   7.564  0.3632  0.1728  0.5632
  642TIP3    H123561   6.346   5.744   7.530  0.2133  0.5072  1.2536
  642TIP3    H223562   6.425   5.616   7.549 -0.6136  0.0325  1.5715
  643TIP3   OH223563   0.997   1.499   7.629  0.4050 -0.0210  0.4693
  643TIP3    H123564   1.038   1.503   7.715  0.0865  1.0292  0.5905
  643TIP3    H223565   1.017   1.584   7.589 -0.4090 -0.0481 -0.0273
  644TIP3   OH223566   1.369   3.379   2.162  0.3548  0.0761 -0.4954
  644TIP3    H123567   1.289   3.413   2.203  0.4081 -0.7780  0.3428
  644TIP3    H223568   1.432   3.375   2.234  0.9580  0.1136 -1.0156
  645TIP3   OH223569   2.304   4.404   2.821 -0.2168  0.4994 -0.1473
  645TIP3    H123570   2.346   4.456   2.890 -1.0294  0.9329  0.0369
  645TIP3    H223571   2.212   4.400   2.847  0.0164 -2.1204  0.5213
  646TIP3   OH223572   4.078   4.319   0.127  0.1401 -0.3632 -0.6085
  646TIP3    H123573   4.056   4.398   0.177  2.7425 -0.9006  1.6751
  646TIP3    H223574   4.047   4.247   0.182 -0.0698 -0.9560 -1.4882
  647TIP3   OH223575   6.718   2.221   0.977  0.0212 -0.5956  0.3207
  647TIP3    H123576   6.801   2.261   1.003 -0.6309  0.9510  0.1427
  647TIP3    H223577   6.744   2.149   0.919  1.2425  1.6377 -2.1657
  648TIP3   OH223578   0.303   1.250   2.217 -0.0107 -0.3473  0.0901
  648TIP3    H123579   0.320   1.156   2.209  2.7859  0.0783  0.1742
  648TIP3    H223580   0.306   1.283   2.128 -1.0181 -0.3157  0.0576
  649TIP3   OH223581   6.561   0.063   1.241 -0.0177  0.4943 -0.5855
  649TIP3    H123582   6.501   0.010   1.294 -0.6484  2.0237  0.2913
  649TIP3    H223583   6.518   0.070   1.156 -0.5207  0.6152 -0.3248
  650TIP3   OH223584   4.848   6.102   0.715 -0.5482  0.2550  0.1174
  650TIP3    H123585   4.819   6.111   0.624 -0.4225 -0.0229  0.0483
  650TIP3    H223586   4.790   6.036   0.752 -1.0898  0.9094  0.4564
  651TIP3   OH223587   6.754   6.243   8.126 -0.2063 -0.3332  0.1209
  651TIP3    H123588   6.796   6.159   8.142  1.2485  0.4225  0.4559
  651TIP3    H223589   6.702   6.260   8.204 -1.3869 -1.3809 -0.3908
  652TIP3   OH223590   0.665   2.898   1.606 -0.8228  0.7081  0.3820
  652TIP3    H123591   0.703   2.959   1.543  1.1601  1.9563  2.6119
  652TIP3    H223592   0.576   2.931   1.620 -0.5331  1.7555 -0.1106
  653TIP3   OH223593   1.979   0.491   7.100  0.0613 -0.0674  0.7262
  653TIP3    H123594   1.960   0.398   7.104 -1.1812  0.1966  1.5603
  653TIP3    H223595   1.921   0.524   7.031  2.5439 -0.3220 -1.6491
  654TIP3   OH223596   2.460   0.948   7.807  1.3218  0.4891 -0.4741
  654TIP3    H123597   2.466   0.922   7.899 -0.7258  1.4878 -0.0060
  654TIP3    H223598   2.487   1.040   7.807 -0.0401  0.8970 -0.6230
  655TIP3   OH223599   6.504   1.811   1.376 -0.3609 -1.0823  0.5143
  655TIP3    H123600   6.553   1.731   1.394  0.9482 -0.7456 -1.2522
  655TIP3    H223601   6.562   1.881   1.404 -0.5721 -0.7144  0.0446
  656TIP3   OH223602   1.930   6.034   0.985  0.3201 -0.3338 -0.6950
  656TIP3    H123603   1.861   6.083   1.030 -0.2083 -2.3817  0.8733
  656TIP3    H223604   1.963   5.973   1.051  1.8260 -1.2093 -2.1893
  657TIP3   OH223605   3.356   2.853   7.352  0.4816  0.0508  0.6210
  657TIP3    H123606   3.289   2.852   7.421  1.0370 -0.3587  1.1638
  657TIP3    H223607   3.323   2.915   7.287 -0.5320 -0.3086  0.7796
  658TIP3   OH223608   5.083   2.018   2.054 -0.1065  0.1456 -0.1800
  658TIP3    H123609   5.074   1.931   2.093  0.0104 -0.0695 -0.6249
  658TIP3    H223610   5.141   2.004   1.979  1.7042  0.9790  0.9764
  659TIP3   OH223611   0.121   2.919   6.830  0.5326  0.1491  0.0152
  659TIP3    H123612   0.090   2.835   6.864 -1.8970  1.2685  0.7827
  659TIP3    H223613   0.213   2.922   6.855  0.1406 -1.3723  1.9177
  660TIP3   OH223614   0.402   1.436   1.095  0.1078  0.0675  0.3594
  660TIP3    H123615   0.439   1.348   1.094 -0.7867 -0.3116  0.0094
  660TIP3    H223616   0.312   1.424   1.126 -0.8266  0.5307 -1.9554
  661TIP3   OH223617   6.148   0.763   0.301  0.0649 -0.0827 -0.0778
  661TIP3    H123618   6.240   0.784   0.284 -0.0589  1.5605  1.0703
  661TIP3    H223619   6.144   0.749   0.395 -1.0143  0.7206  0.0058
  662TIP3   OH223620   0.897   0.232   7.395  0.3742  1.2227 -0.2389
  662TIP3    H123621   0.990   0.209   7.403 -0.1985 -1.3341  0.1924
  662TIP3    H223622   0.888   0.267   7.307  1.8250  2.0977 -0.0794
  663TIP3   OH223623   2.684   0.497   7.431  0.0253 -0.8782 -0.0420
  663TIP3    H123624   2.687   0.471   7.339 -0.4849 -0.4959 -0.1738
  663TIP3    H223625   2.640   0.582   7.431  0.4139 -0.6679  0.5154
  664TIP3   OH223626   5.721   3.569   7.119  0.3501 -0.3074 -0.2039
  664TIP3    H123627   5.774   3.638   7.159  0.3509 -0.9886  1.0014
  664TIP3    H223628   5.756   3.487   7.155 -1.8080 -0.7528  1.0568
  665TIP3   OH223629   1.525   5.554   0.718  0.1265 -0.7045  0.4045
  665TIP3    H123630   1.492   5.573   0.630  1.3986 -0.9870 -0.1578
  665TIP3    H223631   1.512   5.460   0.729  0.8558 -0.8384  0.1305
  666TIP3   OH223632   5.736   0.588   2.445  0.2450 -0.3411 -0.2748
  666TIP3    H123633   5.693   0.512   2.485 -1.0719  1.2470  1.4861
  666TIP3    H223634   5.688   0.663   2.479  0.2395  1.2565 -3.4891
  667TIP3   OH223635   1.976   4.715   0.513  0.2556 -0.9385  0.2458
  667TIP3    H123636   1.913   4.718   0.585  0.5950 -2.1435  0.6047
  667TIP3    H223637   1.922   4.707   0.435 -0.1470  0.9815  0.2781
  668TIP3   OH223638   0.312   3.549   6.340 -0.0693 -0.1584 -0.3423
  668TIP3    H123639   0.249   3.507   6.398  0.5942 -0.9728 -0.2025
  668TIP3    H223640   0.293   3.513   6.253  0.4188 -0.6625 -0.2434
  669TIP3   OH223641   6.120   1.168   8.780 -0.0030 -0.1972 -0.0556
  669TIP3    H123642   6.078   1.223   8.847 -1.1823  0.4622 -1.2951
  669TIP3    H223643   6.197   1.218   8.753 -0.3498  0.2320 -0.2551
  670TIP3   OH223644   4.149   5.097   8.185 -0.2802  0.6475  0.6933
  670TIP3    H123645   4.207   5.049   8.126  0.8319  2.1973  0.4444
  670TIP3    H223646   4.135   5.038   8.259 -1.6403 -1.3186 -1.0198
  671TIP3   OH223647   3.536   6.527   1.585  0.0971  0.1435  0.0526
  671TIP3    H123648   3.536   6.454   1.647 -4.2772 -0.8830 -0.8270
  671TIP3    H223649   3.580   6.491   1.507  0.7839 -0.4254  0.6820
  672TIP3   OH223650   4.863   6.771   8.084 -0.0471 -0.1778  0.0931
  672TIP3    H123651   4.843   6.680   8.064  0.1686  0.2715 -2.4229
  672TIP3    H223652   4.831   6.820   8.008 -0.5363  1.9127  1.5620
  673TIP3   OH223653   5.871   2.438   7.576 -0.3509  0.3893  0.9276
  673TIP3    H123654   5.910   2.368   7.628 -0.4613  2.2920  3.7905
  673TIP3    H223655   5.798   2.470   7.629 -1.9474  0.9812 -1.4875
  674TIP3   OH223656   5.566   6.631   0.172  0.4480 -0.1511  0.2531
  674TIP3    H123657   5.510   6.570   0.125  1.9682 -1.2920 -0.1536
  674TIP3    H223658   5.617   6.674   0.103  0.4717  0.4789  0.6537
  675TIP3   OH223659   4.078   5.049   6.681  0.2539  0.0366 -0.1772
  675TIP3    H123660   4.141   5.119   6.666  2.6470 -1.4673  2.0368
  675TIP3    H223661   4.028   5.077   6.758 -0.0980  0.0996 -0.4219
  676TIP3   OH223662   3.428   4.252   0.082 -0.4283 -0.1927 -0.1008
  676TIP3    H123663   3.475   4.207   0.152  0.7136  0.6332 -0.3078
  676TIP3    H223664   3.489   4.253   0.008 -1.5048 -0.7932 -1.0300
  677TIP3   OH223665   2.022   1.331   8.324  0.3354 -0.1402 -0.3482
  677TIP3    H123666   1.957   1.300   8.262  0.4953  2.1452 -1.7927
  677TIP3    H223667   1.971   1.362   8.400  0.0890 -2.2014  0.3783
  678TIP3   OH223668   0.652   1.793   2.428  0.1902 -0.2925 -0.1379
  678TIP3    H123669   0.616   1.861   2.485 -0.7000  0.8280 -1.9278
  678TIP3    H223670   0.747   1.800   2.439  0.0996  0.9711  0.0478
  679TIP3   OH223671   5.907   0.829   0.098  0.5109  0.2236 -0.1928
  679TIP3    H123672   5.950   0.871   0.172  1.1741  1.3964 -1.2107
  679TIP3    H223673   5.973   0.830   0.028  0.1668 -1.5328 -0.5972
  680TIP3   OH223674   6.388   5.140   8.666  0.1395 -0.6233  0.1933
  680TIP3    H123675   6.341   5.202   8.721 -1.4232 -0.9399 -0.7264
  680TIP3    H223676   6.427   5.193   8.597 -2.4806 -0.6977 -1.4967
  681TIP3   OH223677   3.548   3.204   1.123  0.7241 -0.2463  0.2767
  681TIP3    H123678   3.638   3.175   1.109  0.5397  0.0520 -1.9953
  681TIP3    H223679   3.538   3.280   1.065 -0.3140  1.2493  2.2783
  682TIP3   OH223680   5.833   1.471   8.315 -0.1209 -0.5063  0.3594
  682TIP3    H123681   5.870   1.550   8.353 -1.4691  0.8470 -0.9873
  682TIP3    H223682   5.903   1.436   8.260 -0.2197  1.0787 -0.8505
  683TIP3   OH223683   1.769   2.196   2.198  0.1226  0.4757  0.1051
  683TIP3    H123684   1.783   2.123   2.138  0.4671  1.2597 -0.7808
  683TIP3    H223685   1.690   2.172   2.246 -0.4689  0.0745 -1.0337
  684TIP3   OH223686   1.726   0.163   1.304  0.1393  0.9313  0.1648
  684TIP3    H123687   1.789   0.097   1.330 -0.7607 -0.2081 -0.4498
  684TIP3    H223688   1.765   0.246   1.331  0.4640  0.0407  2.6248
  685TIP3   OH223689   5.106   2.184   8.087 -0.4110  0.1035  0.0127
  685TIP3    H123690   5.084   2.272   8.118  0.1335  0.0048  0.6973
  685TIP3    H223691   5.042   2.127   8.129  0.5621 -0.0758  1.2856
  686TIP3   OH223692   2.913   4.826   2.944 -0.2098 -0.6268 -0.5647
  686TIP3    H123693   2.939   4.918   2.948  0.7828 -0.9542  1.8889
  686TIP3    H223694   2.818   4.827   2.957  0.1383 -0.0375  2.7879
  687TIP3   OH223695   6.743   5.590   7.002  0.7272  0.0943 -0.8361
  687TIP3    H123696   6.703   5.673   7.027  2.9047  0.3803  2.1633
  687TIP3    H223697   6.699   5.524   7.057  2.5712  0.0888  0.7207
  688TIP3   OH223698   2.487   1.655   8.501  0.2625 -0.1241 -0.0631
  688TIP3    H123699   2.524   1.596   8.566  0.1885  2.1963  2.2486
  688TIP3    H223700   2.395   1.662   8.525  0.5060  1.7617  0.4841
  689TIP3   OH223701   4.390   4.121   8.819  0.0213  0.3152  0.2739
  689TIP3    H123702   4.338   4.043   8.838  0.5412  0.1962  1.3589
  689TIP3    H223703   4.386   4.172   8.900 -0.4801  1.5285 -0.4916
  690TIP3   OH223704   2.987   0.777   8.708  0.4313 -0.6187 -0.1985
  690TIP3    H123705   3.018   0.740   8.625  3.1833  0.4112  0.2792
  690TIP3    H223706   2.978   0.702   8.766  0.9286 -1.1008 -0.7315
  691TIP3   OH223707   2.644   4.447   1.135 -0.3411 -0.4136 -0.3098
  691TIP3    H123708   2.628   4.373   1.076  0.6915 -0.3316 -0.7105
  691TIP3    H223709   2.631   4.524   1.080 -1.9207 -0.2528  0.2309
  692TIP3   OH223710   0.921   4.180   7.104 -0.1462 -0.0776  0.0270
  692TIP3    H123711   1.009   4.211   7.081 -0.6716  2.9096  1.5636
  692TIP3    H223712   0.863   4.221   7.039 -0.5340 -1.1843 -0.3483
  693TIP3   OH223713   6.443   1.040   7.982  0.4576  0.3772 -0.4022
  693TIP3    H123714   6.529   0.998   7.981  1.0347  1.3992  1.4136
  693TIP3    H223715   6.381   0.968   7.988  1.3951 -0.3175  1.9540
  694TIP3   OH223716   6.402   4.642   7.343 -0.2021  0.0043  0.3820
  694TIP3    H123717   6.463   4.597   7.401  0.2841  1.8311  1.3948
  694TIP3    H223718   6.458   4.694   7.285 -0.7312  1.1636  0.8660
  695TIP3   OH223719   3.602   6.755   8.649 -0.3284  0.4003  0.7093
  695TIP3    H123720   3.616   6.704   8.728 -2.2670 -0.8179  0.3258
  695TIP3    H223721   3.649   6.708   8.580 -1.3938 -0.4325  0.5263
  696TIP3   OH223722   4.836   2.186   7.363  0.7360  0.4310  0.0256
  696TIP3    H123723   4.753   2.210   7.405  1.2483  0.1314  1.2458
  696TIP3    H223724   4.819   2.101   7.324  0.7925 -0.2083  1.3270
  697TIP3   OH223725   2.596   2.585   2.592 -0.1330  0.0519 -0.4112
  697TIP3    H123726   2.509   2.546   2.592  0.1078 -0.5417  0.6210
  697TIP3    H223727   2.635   2.556   2.675  0.0083  2.6398  0.5239
  698TIP3   OH223728   0.875   5.311   7.947  0.7118  0.2716 -0.4046
  698TIP3    H123729   0.873   5.306   7.852  0.1839 -1.8939 -0.3452
  698TIP3    H223730   0.958   5.354   7.968  0.7560  0.9167 -1.8241
  699TIP3   OH223731   0.026   0.414   0.791 -0.3944  0.2926 -0.0739
  699TIP3    H123732  -0.062   0.389   0.820  0.0989 -3.4905 -1.2955
  699TIP3    H223733   0.084   0.353   0.836  1.4984  1.7114 -0.4742
  700TIP3   OH223734   1.899   4.307   8.637 -0.1495 -0.8100 -0.3946
  700TIP3    H123735   1.821   4.349   8.673  0.4596 -0.4929  0.5885
  700TIP3    H223736   1.910   4.228   8.689  0.3591 -0.7003 -0.3338
  701TIP3   OH223737   3.696   0.651   7.876 -0.7314 -0.3931 -0.2209
  701TIP3    H123738   3.667   0.701   7.952 -0.1583  0.7547 -0.7330
  701TIP3    H223739   3.721   0.565   7.911 -0.9657 -0.0459  0.8033
  702TIP3   OH223740   2.709   3.757   8.045 -0.3152 -0.2244  0.1557
  702TIP3    H123741   2.649   3.810   7.992  0.3342  0.8185  0.4420
  702TIP3    H223742   2.683   3.776   8.135  0.4131  0.1998  0.2794
  703TIP3   OH223743   3.426   2.760   0.903  0.2185  0.3019  0.3399
  703TIP3    H123744   3.396   2.846   0.875 -0.0810 -0.0118 -0.3311
  703TIP3    H223745   3.510   2.776   0.947 -2.5815  1.8005  6.1564
  704TIP3   OH223746   2.848   1.583   8.679 -0.1562  0.7108 -0.2538
  704TIP3    H123747   2.927   1.539   8.648  0.3115  1.3647 -0.0323
  704TIP3    H223748   2.822   1.534   8.757 -0.3296  0.1143 -0.6869
  705TIP3   OH223749   2.965   5.409   1.743  0.1482 -0.4568  0.8493
  705TIP3    H123750   2.875   5.399   1.712  0.4968 -2.8598  0.4245
  705TIP3    H223751   2.960   5.478   1.810 -1.9679 -0.4143  0.7130
  706TIP3   OH223752   6.464   4.916   2.502 -0.1486 -0.2963 -0.2419
  706TIP3    H123753   6.414   4.927   2.582  2.8822 -1.8812  2.1171
  706TIP3    H223754   6.427   4.838   2.460 -0.8538 -0.3255  0.4282
  707TIP3   OH223755   6.601   0.712   7.391  0.3534 -0.2553  0.0090
  707TIP3    H123756   6.689   0.675   7.394  0.9013  1.0552  1.5232
  707TIP3    H223757   6.600   0.777   7.462 -2.1078 -0.8786  0.6459
  708TIP3   OH223758   5.174   2.758   2.435 -0.0611  0.1501 -0.5228
  708TIP3    H123759   5.119   2.826   2.475  0.0009  0.5817 -1.1598
  708TIP3    H223760   5.249   2.750   2.494 -1.8511 -2.1104  1.6602
  709TIP3   OH223761   2.738   3.545   0.976 -0.0566 -0.0469 -0.3923
  709TIP3    H123762   2.691   3.617   0.933  1.1327  0.1594 -1.4217
  709TIP3    H223763   2.777   3.584   1.054 -0.8370 -0.0040 -0.0182
  710TIP3   OH223764   4.974   2.698   8.432  0.3726  0.3141 -0.3478
  710TIP3    H123765   4.900   2.662   8.480  0.6669  0.4486  0.2148
  710TIP3    H223766   4.981   2.789   8.463 -0.5643  0.9910 -1.9690
  711TIP3   OH223767   6.737   5.716   6.317 -0.1809  0.1612 -0.1672
  711TIP3    H123768   6.796   5.748   6.385  0.9590  1.5407 -1.7462
  711TIP3    H223769   6.650   5.742   6.347  0.2008 -0.0741  1.1960
  712TIP3   OH223770   2.306   0.729   1.812 -0.3387 -0.2554 -0.2204
  712TIP3    H123771   2.356   0.763   1.886 -0.1245 -1.1998  0.0886
  712TIP3    H223772   2.328   0.787   1.739 -1.6557  1.5719  0.7579
  713TIP3   OH223773   0.182   0.098   1.408  0.6183  0.0010  0.3889
  713TIP3    H123774   0.162   0.030   1.472  0.9161 -0.6055 -0.1481
  713TIP3    H223775   0.221   0.051   1.334  0.3579  0.6946 -0.2039
  714TIP3   OH223776   0.988   0.517   2.131  0.2773 -0.3626 -0.3590
  714TIP3    H123777   0.971   0.458   2.057  0.5281 -0.5681 -0.2538
  714TIP3    H223778   1.066   0.566   2.106  0.2896 -0.3439 -0.2852
  715TIP3   OH223779   5.602   1.698   2.142 -0.4669  0.1334  0.1552
  715TIP3    H123780   5.606   1.681   2.236 -0.5469 -0.6576  0.0272
  715TIP3    H223781   5.508   1.705   2.123 -0.4183  1.5260  0.3261
  716TIP3   OH223782   6.806   3.631   1.013 -0.1610 -0.6906  0.1149
  716TIP3    H123783   6.879   3.639   0.952 -0.4851 -3.8522 -0.8717
  716TIP3    H223784   6.762   3.716   1.010  0.1991 -0.4717 -3.6388
  717TIP3   OH223785   1.610   4.509   1.504 -0.1079 -0.1502 -0.1454
  717TIP3    H123786   1.664   4.522   1.426 -1.1066 -0.7435 -0.9557
  717TIP3    H223787   1.673   4.483   1.572  1.3833  4.0567  0.3949
  718TIP3   OH223788   6.598   1.778   0.781 -0.3999 -0.5827  0.0563
  718TIP3    H123789   6.532   1.834   0.822  0.3596  0.2263  0.2015
  718TIP3    H223790   6.663   1.838   0.745  0.3619 -1.3548  0.0837
  719TIP3   OH223791   6.601   6.602   7.932  0.7969  0.1747 -0.6879
  719TIP3    H123792   6.638   6.690   7.940 -1.1838  0.9068  1.3137
  719TIP3    H223793   6.532   6.611   7.866 -1.6388  1.0627  1.7897
  720TIP3   OH223794   1.685   3.478   8.041  0.1775 -0.0138  0.2632
  720TIP3    H123795   1.679   3.443   7.952 -1.4598  0.6158  0.0946
  720TIP3    H223796   1.777   3.501   8.051  0.2620  0.6565 -1.5788
  721TIP3   OH223797   2.736   0.879   7.894 -0.0012  0.5365 -0.3587
  721TIP3    H123798   2.754   0.963   7.851 -2.1222  1.1925 -0.0451
  721TIP3    H223799   2.730   0.816   7.822 -0.1544  0.9817 -0.7365
  722TIP3   OH223800   4.017   6.521   2.021  0.2598 -0.0046 -0.2177
  722TIP3    H123801   3.970   6.557   2.096  0.1561 -1.9031  0.6748
  722TIP3    H223802   4.077   6.592   1.995 -1.5743  1.6815 -0.0790
  723TIP3   OH223803   4.418   1.314   0.002  0.8180  0.2213 -0.1264
  723TIP3    H123804   4.430   1.234  -0.050  2.9973 -0.0790  0.7240
  723TIP3    H223805   4.484   1.375  -0.032 -0.0648  1.2671 -0.0090
  724TIP3   OH223806   4.906   4.450   1.737 -0.1474 -0.0152 -0.0907
  724TIP3    H123807   4.901   4.355   1.731 -2.6105  0.0421 -0.0575
  724TIP3    H223808   4.998   4.469   1.752  0.2041 -2.4669  1.3173
  725TIP3   OH223809   0.476   6.776   2.042  0.1829  0.0030  0.3974
  725TIP3    H123810   0.526   6.848   2.003  3.5325 -2.5302 -0.4819
  725TIP3    H223811   0.495   6.782   2.136  1.4172 -0.3212  0.1898
  726TIP3   OH223812   3.085   5.069   7.937  0.4743 -0.2048 -0.2024
  726TIP3    H123813   3.109   5.149   7.983 -1.1188 -0.4147  1.0962
  726TIP3    H223814   3.011   5.095   7.881  0.5540 -0.5604 -0.4776
  727TIP3   OH223815   1.297   6.548   7.858  0.1486 -0.0851 -0.2745
  727TIP3    H123816   1.346   6.524   7.937 -1.5545 -0.4607  0.7067
  727TIP3    H223817   1.356   6.607   7.810  0.2042  2.4201  2.6207
  728TIP3   OH223818   5.412   6.605   0.815 -0.4097 -1.3251  0.0873
  728TIP3    H123819   5.430   6.531   0.873 -1.3592 -1.8832 -0.2970
  728TIP3    H223820   5.320   6.626   0.833 -0.6952 -1.4516 -1.1316
  729TIP3   OH223821   6.737   2.136   8.721  0.1583  0.1915 -0.3677
  729TIP3    H123822   6.827   2.105   8.736  0.1986  0.4176 -0.1375
  729TIP3    H223823   6.688   2.057   8.698  0.2337 -0.0711  0.3460
  730TIP3   OH223824   2.301   3.793   0.297 -0.3455 -0.0497 -0.4665
  730TIP3    H123825   2.215   3.823   0.270 -0.3447  1.3007  0.8476
  730TIP3    H223826   2.321   3.719   0.240 -0.6406  2.0632 -3.5373
  731TIP3   OH223827   1.381   4.880   0.105 -0.4107 -0.5137  0.2248
  731TIP3    H123828   1.414   4.828   0.031 -0.1854 -0.4850  0.3051
  731TIP3    H223829   1.434   4.851   0.180  0.3384  0.4749  0.0955
  732TIP3   OH223830   5.976   4.675   7.771 -0.0877 -0.4931 -0.0530
  732TIP3    H123831   5.990   4.706   7.861  0.4982  1.0593 -0.6402
  732TIP3    H223832   5.888   4.704   7.749  0.1872  0.1320 -0.3526
  733TIP3   OH223833   6.205   4.228   8.583  0.5552  0.0135  0.3292
  733TIP3    H123834   6.227   4.194   8.497 -0.3952 -0.8775  0.4326
  733TIP3    H223835   6.290   4.250   8.622  1.0083  0.1653 -0.7107
  734TIP3   OH223836   4.058   2.428   2.667  0.1719 -0.2626 -0.1458
  734TIP3    H123837   4.010   2.431   2.584  0.9968 -0.3864 -0.6378
  734TIP3    H223838   4.002   2.376   2.725  0.2866 -1.4743 -1.0814
  735TIP3   OH223839   1.217   1.407   8.109  0.6471 -0.1218  0.1246
  735TIP3    H123840   1.283   1.439   8.046  0.1899 -1.1744 -0.9072
  735TIP3    H223841   1.235   1.458   8.189  2.5903 -0.2403 -0.1805
  736TIP3   OH223842   6.563   1.199   7.197  0.2377 -0.7042  0.6193
  736TIP3    H123843   6.534   1.170   7.111 -0.0800 -3.6925  1.6362
  736TIP3    H223844   6.659   1.191   7.194  0.2760 -0.1917  0.3633
  737TIP3   OH223845   3.703   4.682   7.020  0.0682  0.3405  0.0054
  737TIP3    H123846   3.617   4.642   7.015 -0.3258  0.8745  1.7520
  737TIP3    H223847   3.686   4.775   7.034  0.9364  0.5459 -0.2047
  738TIP3   OH223848   4.199   3.405   0.114 -0.4605  0.4361  0.0732
  738TIP3    H123849   4.258   3.349   0.164 -2.3985 -0.2469  1.7547
  738TIP3    H223850   4.226   3.394   0.023  1.2364 -0.7183  0.6747
  739TIP3   OH223851   6.189   0.289   0.048  0.3785  0.2904  0.0299
  739TIP3    H123852   6.254   0.244   0.103  2.3169  0.8639 -1.6641
  739TIP3    H223853   6.150   0.355   0.106  2.7528  1.2614  0.6562
  740TIP3   OH223854   0.005   2.461   7.420  0.4244  0.1781 -0.1396
  740TIP3    H123855  -0.090   2.457   7.430  0.3784  0.3784 -0.5126
  740TIP3    H223856   0.028   2.375   7.383  0.5991 -0.5846  1.6282
  741TIP3   OH223857   4.751   4.567   0.338 -0.0193 -0.2373 -0.1718
  741TIP3    H123858   4.814   4.505   0.374 -0.2044  0.1035  0.7675
  741TIP3    H223859   4.737   4.631   0.408 -1.3849 -0.2949 -0.3522
  742TIP3   OH223860   4.784   5.161   0.090 -0.0639  0.1144 -0.7399
  742TIP3    H123861   4.846   5.135   0.157 -1.1078  1.3611  0.7831
  742TIP3    H223862   4.771   5.083   0.036  0.6935 -0.9459  0.5804
  743TIP3   OH223863   3.498   2.638   8.537  0.2483  0.1515  0.6792
  743TIP3    H123864   3.474   2.591   8.617  0.0900 -0.4431  0.2944
  743TIP3    H223865   3.502   2.569   8.470 -2.7639  0.9921 -0.5485
  744TIP3   OH223866   6.274   1.308   7.885  0.1921 -0.4741 -0.1025
  744TIP3    H123867   6.215   1.260   7.942 -0.0873  1.3053  1.1983
  744TIP3    H223868   6.260   1.270   7.798 -1.4051 -1.4052  0.5247
  745TIP3   OH223869   1.346   5.579   8.251 -0.3021 -0.2157  0.1439
  745TIP3    H123870   1.410   5.509   8.263 -1.2997 -1.7315 -2.5624
  745TIP3    H223871   1.392   5.644   8.197 -0.7148 -0.8777 -1.0314
  746TIP3   OH223872   2.301   2.601   8.501  0.3949 -0.0705 -0.2354
  746TIP3    H123873   2.358   2.647   8.563  0.5268  0.3970 -0.6912
  746TIP3    H223874   2.328   2.509   8.506  1.4870  0.2004 -0.7497
  747TIP3   OH223875   0.407   2.660   0.563 -0.7375 -0.1314 -0.4713
  747TIP3    H123876   0.476   2.595   0.573  1.6478  2.2444 -0.2040
  747TIP3    H223877   0.384   2.685   0.652  0.6429  1.4905 -0.5004
  748TIP3   OH223878   5.913   0.421   8.194  0.1388 -0.2764 -0.0436
  748TIP3    H123879   5.878   0.502   8.231 -2.1331  0.0435 -2.5599
  748TIP3    H223880   5.891   0.353   8.257  0.9232  0.8427  1.4987
  749TIP3   OH223881   4.549   2.032   7.236 -0.1171  0.6173  0.3100
  749TIP3    H123882   4.634   1.993   7.255 -0.9443 -1.0738  0.7667
  749TIP3    H223883   4.552   2.119   7.276  1.3271  0.5170  0.4459
  750TIP3   OH223884   1.459   1.352   1.879  0.1386 -0.0993 -0.2448
  750TIP3    H123885   1.540   1.308   1.902 -0.8517 -2.6855 -1.3798
  750TIP3    H223886   1.487   1.426   1.825  1.8017  0.1274  0.8467
  751TIP3   OH223887   3.753   1.681   8.307  0.0830  0.1632  0.3168
  751TIP3    H123888   3.833   1.732   8.312  0.2010 -0.0491  0.6187
  751TIP3    H223889   3.703   1.705   8.385 -1.5045  2.5152 -1.2733
  752TIP3   OH223890   0.628   4.244   0.607  0.1997  0.7195  0.1191
  752TIP3    H123891   0.714   4.206   0.589  0.3242  0.5181  1.0906
  752TIP3    H223892   0.592   4.190   0.677 -0.2430  1.5007  0.5054
  753TIP3   OH223893   1.111   6.088   2.528  0.2475  0.3469  0.5909
  753TIP3    H123894   1.028   6.096   2.482  0.1373  1.0135  0.8865
  753TIP3    H223895   1.094   6.024   2.597 -0.1125  0.6991  0.8356
  754TIP3   OH223896   6.744   6.036   1.864 -0.2260 -0.0031  0.4619
  754TIP3    H123897   6.788   5.990   1.936 -0.0899 -0.3934  0.1312
  754TIP3    H223898   6.741   6.127   1.892  1.4420  0.1651  0.1705
  755TIP3   OH223899   6.474   1.520   7.624 -0.3771 -0.4996 -0.4288
  755TIP3    H123900   6.388   1.560   7.638 -0.1759 -0.0002 -0.6197
  755TIP3    H223901   6.465   1.472   7.542 -0.2097  0.2909 -0.9159
  756TIP3   OH223902   1.178   0.612   0.744 -0.3265  0.3581  0.5527
  756TIP3    H123903   1.085   0.592   0.745 -0.8629  2.5595  2.0018
  756TIP3    H223904   1.184   0.700   0.782  2.3268  0.3431  0.3451
  757TIP3   OH223905   0.747   5.762   7.192  0.2761 -0.2646 -0.3646
  757TIP3    H123906   0.681   5.803   7.136  1.0613  2.5896  0.6473
  757TIP3    H223907   0.697   5.722   7.263 -0.4564  1.2811  0.0374
  758TIP3   OH223908   0.437   0.955   7.892  0.1424  0.1120 -0.3013
  758TIP3    H123909   0.415   0.882   7.833 -0.2862  0.6949 -0.8761
  758TIP3    H223910   0.421   1.033   7.839  0.7369  0.6207  0.2668
  759TIP3   OH223911   6.487   3.822   0.470 -0.7141 -0.0572  0.1672
  759TIP3    H123912   6.449   3.735   0.463 -2.3098  0.4633  1.6093
  759TIP3    H223913   6.492   3.854   0.380  2.1100 -2.4329 -0.6923
  760TIP3   OH223914   0.976   1.181   7.624  0.2920  0.3406 -0.0621
  760TIP3    H123915   0.889   1.143   7.636  0.5274  0.1501  1.1829
  760TIP3    H223916   0.979   1.253   7.688  1.1735  0.1223  0.1492
  761TIP3   OH223917   3.259   4.512   1.951  0.5215 -0.0241 -0.1814
  761TIP3    H123918   3.219   4.561   2.023  1.5956  2.1588 -0.9670
  761TIP3    H223919   3.199   4.525   1.877  1.3742  1.1637 -0.7005
  762TIP3   OH223920   4.355   3.038   8.005 -0.4269  0.9267 -0.1809
  762TIP3    H123921   4.414   3.051   8.079  0.1902  1.1211 -0.6948
  762TIP3    H223922   4.384   2.956   7.966 -0.9534  0.6642 -0.0226
  763TIP3   OH223923   3.597   3.851   7.956  0.4761 -0.4689  0.3335
  763TIP3    H123924   3.574   3.759   7.965  1.1721 -0.7553 -0.6245
  763TIP3    H223925   3.524   3.890   7.909  0.6688 -0.7792 -0.2367
  764TIP3   OH223926   0.305   1.650   8.353  0.7415 -0.0891 -0.0965
  764TIP3    H123927   0.220   1.633   8.313  0.5072  1.2865 -0.2463
  764TIP3    H223928   0.284   1.670   8.445  1.0885 -1.4333  0.2861
  765TIP3   OH223929   0.953   6.747   0.413  0.3392 -0.5706  0.2516
  765TIP3    H123930   0.917   6.662   0.388  0.2087  0.3546 -3.2490
  765TIP3    H223931   0.876   6.802   0.427  0.3405 -0.1797 -1.0895
  766TIP3   OH223932   0.239   0.306   7.974 -0.3393 -0.6850 -0.4702
  766TIP3    H123933   0.201   0.344   7.894 -1.8381 -0.0632  0.4960
  766TIP3    H223934   0.183   0.337   8.045  2.4747  1.0125  1.2098
  767TIP3   OH223935   5.206   4.244   6.834 -0.3957  0.7694 -0.5389
  767TIP3    H123936   5.173   4.330   6.808 -0.3592  0.8090 -0.4570
  767TIP3    H223937   5.295   4.261   6.864 -0.2216  0.6282 -0.9684
  768TIP3   OH223938   3.070   3.035   0.305 -0.4738 -0.0698 -0.3211
  768TIP3    H123939   3.126   3.089   0.360 -0.0636 -2.5327  1.8962
  768TIP3    H223940   2.983   3.074   0.313 -0.5488 -0.6428  2.6411
  769TIP3   OH223941   6.806   3.430   1.633 -0.0196  0.4445 -0.0919
  769TIP3    H123942   6.828   3.376   1.708 -2.1483  0.0149  0.2945
  769TIP3    H223943   6.848   3.515   1.650  0.6637 -0.0788  0.8805
  770TIP3   OH223944   2.144   5.730   8.077 -0.1111  0.0519  0.2259
  770TIP3    H123945   2.231   5.703   8.050 -0.4482 -0.6855 -0.1394
  770TIP3    H223946   2.091   5.650   8.074 -0.7808  0.4718  0.5134
  771TIP3   OH223947   1.603   5.063   2.081  0.2679 -0.0212 -0.1634
  771TIP3    H123948   1.681   5.025   2.123 -0.0213 -0.8447 -0.3540
  771TIP3    H223949   1.532   5.003   2.103 -0.3959  0.9215  0.3090
  772TIP3   OH223950   2.371   4.633   1.196  0.2340  0.4755 -0.0426
  772TIP3    H123951   2.352   4.710   1.144 -0.1621  0.4562  0.0654
  772TIP3    H223952   2.351   4.559   1.138 -0.5941  0.4515  0.2574
  773TIP3   OH223953   1.330   2.803   0.227  0.1605  0.1107 -0.6916
  773TIP3    H123954   1.278   2.729   0.257  2.3780 -0.9382  0.8335
  773TIP3    H223955   1.285   2.833   0.148 -1.3084 -2.3018 -0.8797
  774TIP3   OH223956   4.635   2.896   1.494  0.1422  0.2933 -0.3627
  774TIP3    H123957   4.652   2.826   1.430 -0.5290  1.2086 -1.5757
  774TIP3    H223958   4.560   2.865   1.544  1.6152 -1.1391  1.1131
  775TIP3   OH223959   0.551   1.902   7.598 -0.6217 -0.1931  0.0238
  775TIP3    H123960   0.508   1.969   7.544 -0.9320  0.4813  1.0810
  775TIP3    H223961   0.623   1.870   7.543 -0.4398  1.0426 -0.4970
  776TIP3   OH223962   2.311   0.326   8.700  0.0850 -0.6434 -0.5374
  776TIP3    H123963   2.394   0.279   8.707  0.3857 -0.0573 -0.0050
  776TIP3    H223964   2.297   0.362   8.787 -0.5271 -0.4054 -0.7305
  777TIP3   OH223965   2.902   6.390   1.758  0.1582  0.1756  0.1631
  777TIP3    H123966   2.956   6.316   1.731  1.2774  1.3236 -0.8356
  777TIP3    H223967   2.935   6.413   1.845  1.8563  1.3269 -0.7282
  778TIP3   OH223968   6.028   6.081   7.927 -0.7482 -0.1741  0.2062
  778TIP3    H123969   6.092   6.011   7.934  0.3234  0.7195 -0.4911
  778TIP3    H223970   5.964   6.061   7.996  1.9080  0.5873  3.1516
  779TIP3   OH223971   4.531   2.820   8.055 -0.4563 -0.2222 -0.1923
  779TIP3    H123972   4.525   2.744   7.997  1.2979 -1.9901  1.7858
  779TIP3    H223973   4.616   2.859   8.033 -0.6508  0.2383 -0.1229
  780TIP3   OH223974   4.162   3.001   8.480 -0.0017  0.3930 -0.5121
  780TIP3    H123975   4.118   2.916   8.469 -1.6389  1.2400 -0.9255
  780TIP3    H223976   4.177   3.008   8.574  1.1213 -0.7826 -0.5691
  781TIP3   OH223977   6.809   5.915   1.627  0.2180 -0.5088 -0.3139
  781TIP3    H123978   6.895   5.956   1.625  0.7653 -1.6504 -0.9797
  781TIP3    H223979   6.777   5.932   1.716  0.7016  0.7638 -0.3672
  782TIP3   OH223980   5.471   4.076   7.596 -0.2804  0.3126 -0.2650
  782TIP3    H123981   5.503   4.120   7.517 -2.5898  2.0991 -0.3270
  782TIP3    H223982   5.419   4.003   7.563 -1.9891  1.5830 -0.5199
  783TIP3   OH223983   1.080   0.109   2.264  0.2900  0.2133  0.4225
  783TIP3    H123984   1.136   0.165   2.317  2.2008 -1.4496  0.2604
  783TIP3    H223985   1.139   0.065   2.204 -1.3501 -0.7807 -0.5449
  784TIP3   OH223986   0.441   1.814   0.881  0.2235  0.0356  0.3828
  784TIP3    H123987   0.422   1.863   0.800  0.1491 -0.4293  0.1170
  784TIP3    H223988   0.401   1.729   0.867 -1.1599  0.4654  1.5669
  785TIP3   OH223989   2.474   2.429   0.025  0.4474  0.1309 -0.0688
  785TIP3    H123990   2.471   2.440  -0.070  1.0965  0.6932 -0.0367
  785TIP3    H223991   2.526   2.504   0.056 -0.2291  0.2627  0.7779
  786TIP3   OH223992   5.053   1.745   1.088 -0.1619 -0.2148  0.1818
  786TIP3    H123993   5.025   1.701   1.168  0.5098 -0.9490  0.0249
  786TIP3    H223994   4.988   1.720   1.023  0.6805 -1.7560 -0.1312
  787TIP3   OH223995   2.178   1.052   6.654 -0.3847 -0.2600  0.2837
  787TIP3    H123996   2.119   0.981   6.680  0.5771 -0.8643  0.8853
  787TIP3    H223997   2.120   1.128   6.643 -1.6644 -1.4566 -1.9570
  788TIP3   OH223998   2.625   1.755   0.533  0.1417 -0.2763 -0.2692
  788TIP3    H123999   2.719   1.763   0.546  0.1116 -1.9928  1.6140
  788TIP3    H224000   2.592   1.723   0.617 -2.2585  1.0209 -0.6256
  789TIP3   OH224001   2.040   4.428   1.944  0.2961  0.1965 -0.2278
  789TIP3    H124002   2.099   4.367   1.900 -1.5919 -1.2924 -0.8138
  789TIP3    H224003   2.096   4.473   2.007  2.1912 -0.6522 -1.2099
  790TIP3   OH224004   1.955   5.736   7.250  0.0146 -0.5119 -0.4700
  790TIP3    H124005   2.015   5.661   7.253  0.7254  0.0322  2.2399
  790TIP3    H224006   1.997   5.801   7.306 -1.3777  1.3137 -1.4597
  791TIP3   OH224007   4.449   6.738   1.644  0.3040  0.1503  1.2654
  791TIP3    H124008   4.495   6.820   1.626 -0.1147  0.3585  1.1398
  791TIP3    H224009   4.460   6.687   1.564 -4.2133  2.2762 -1.1302
  792TIP3   OH224010   2.782   3.216   0.337 -0.6412  0.1222  0.1089
  792TIP3    H124011   2.788   3.142   0.397  1.4334 -0.0905 -0.2762
  792TIP3    H224012   2.720   3.187   0.270 -0.3854 -1.0084  0.3273
  793TIP3   OH224013   3.041   5.361   0.895 -0.6300 -0.5505  0.2831
  793TIP3    H124014   2.963   5.418   0.895 -0.3810 -0.2067  0.2974
  793TIP3    H224015   3.047   5.328   0.985 -0.1286  0.2987  0.5703
  794TIP3   OH224016   5.414   0.307   7.781  0.1941 -0.5607 -0.4978
  794TIP3    H124017   5.394   0.248   7.709 -3.3596 -1.5999  1.0992
  794TIP3    H224018   5.358   0.383   7.766  1.6119  0.5634 -0.3199
  795TIP3   OH224019   6.027   4.414   8.806 -0.1649  0.6443  0.2075
  795TIP3    H124020   6.079   4.379   8.733 -1.0973  0.0548 -0.1923
  795TIP3    H224021   5.993   4.497   8.773 -0.3621  0.5097  0.0720
  796TIP3   OH224022   2.896   0.954   1.971 -0.1198 -0.7742  0.6120
  796TIP3    H124023   2.873   0.883   1.911  1.3736  1.6282 -3.1889
  796TIP3    H224024   2.815   0.975   2.016 -1.1380 -3.2928  0.1169
  797TIP3   OH224025   2.915   0.746   7.524 -0.3314 -0.4715  0.1448
  797TIP3    H124026   2.933   0.687   7.451 -0.5744  0.2283 -0.4864
  797TIP3    H224027   2.992   0.802   7.528  0.4690 -1.5896  1.5339
  798TIP3   OH224028   2.033   2.164   0.683  0.2933  0.7794 -0.0176
  798TIP3    H124029   1.986   2.103   0.626 -0.0240  0.6906  0.3366
  798TIP3    H224030   1.970   2.187   0.751  1.4162 -1.1124  1.8026
  799TIP3   OH224031   5.672   6.464   0.795 -0.3673  0.1171 -0.6277
  799TIP3    H124032   5.594   6.518   0.811  0.5345  0.6695  2.9583
  799TIP3    H224033   5.674   6.402   0.868  2.3802 -0.0480 -0.7151
  800TIP3   OH224034   6.527   0.620   2.316  0.0443  0.0666  0.1387
  800TIP3    H124035   6.501   0.601   2.225  0.4496  2.2976 -0.5067
  800TIP3    H224036   6.606   0.674   2.307  1.8274 -2.0339  1.9195
  801TIP3   OH224037   0.439   4.820   0.797 -0.2361 -0.3117  0.0102
  801TIP3    H124038   0.464   4.797   0.707  0.1209  0.3711 -0.0771
  801TIP3    H224039   0.520   4.809   0.847 -0.5763 -1.2630  0.3719
  802TIP3   OH224040   1.708   4.046   8.833  0.1022  0.4964 -0.2629
  802TIP3    H124041   1.635   4.057   8.773 -0.1987 -1.9081 -0.4411
  802TIP3    H224042   1.785   4.036   8.775  0.0794 -0.0603 -0.2036
  803TIP3   OH224043   3.221   1.507   0.948 -0.2874 -0.0119 -0.6417
  803TIP3    H124044   3.296   1.563   0.968 -1.3792  1.3783 -0.2337
  803TIP3    H224045   3.259   1.429   0.908  1.5994 -0.5334  1.9059
  804TIP3   OH224046   5.915   2.178   7.730 -0.0562 -0.4710  0.7694
  804TIP3    H124047   5.832   2.134   7.714 -0.2334  0.0256  0.3022
  804TIP3    H224048   5.981   2.111   7.717 -0.2525 -0.3566 -1.0033
  805TIP3   OH224049   1.076   6.326   7.162 -0.1089  0.0119 -0.1709
  805TIP3    H124050   1.014   6.310   7.091 -1.5574 -1.4689  1.3609
  805TIP3    H224051   1.161   6.303   7.124 -0.5306  1.2949 -2.0544
  806TIP3   OH224052   0.933   1.708   6.912  0.4920 -0.1630  0.0496
  806TIP3    H124053   0.905   1.752   6.832  0.0683  1.5342  1.0895
  806TIP3    H224054   0.905   1.617   6.900  0.6993 -0.0313 -1.8284
  807TIP3   OH224055   3.819   4.414   7.410  0.2072  0.4087  0.0838
  807TIP3    H124056   3.835   4.476   7.482  0.8660  0.9665 -0.5313
  807TIP3    H224057   3.819   4.469   7.332 -1.6382 -0.0118 -0.2650
  808TIP3   OH224058   1.117   4.493   2.542  0.7107 -0.0521  0.4055
  808TIP3    H124059   1.076   4.571   2.580 -3.3304 -1.2981 -0.8062
  808TIP3    H224060   1.137   4.438   2.618 -3.7720 -0.9583  1.2639
  809TIP3   OH224061   5.051   6.326   8.650  0.1742 -0.1697 -0.1753
  809TIP3    H124062   5.022   6.344   8.561 -0.6597 -1.3875 -0.1878
  809TIP3    H224063   5.137   6.286   8.639 -0.3296 -1.2126 -0.5386
  810TIP3   OH224064   3.713   6.425   1.366  0.3883 -0.3063 -0.2881
  810TIP3    H124065   3.793   6.380   1.393 -0.2550 -1.2424  0.1146
  810TIP3    H224066   3.650   6.355   1.351 -0.7374  0.4742  0.6261
  811TIP3   OH224067   6.566   0.024   8.846  0.1520 -0.0212 -0.2634
  811TIP3    H124068   6.617   0.096   8.882 -2.0565  1.4623  0.0746
  811TIP3    H224069   6.543   0.051   8.757 -0.4370 -0.4313 -0.2497
  812TIP3   OH224070   2.688   0.992   1.620  0.5909  0.3637  0.8062
  812TIP3    H124071   2.729   1.076   1.601 -2.4972  1.9241  0.4410
  812TIP3    H224072   2.740   0.928   1.571  1.2542  2.4536 -1.4004
  813TIP3   OH224073   3.714   3.295   1.937  0.0800 -0.1405 -0.3541
  813TIP3    H124074   3.798   3.337   1.916  1.1264 -0.9071  1.9466
  813TIP3    H224075   3.723   3.205   1.904  0.9321 -0.7543  1.4353
  814TIP3   OH224076   1.483   3.261   1.910 -0.5178  0.0531  0.4748
  814TIP3    H124077   1.412   3.286   1.851  0.7969  1.2022 -0.6823
  814TIP3    H224078   1.473   3.320   1.985 -1.7532 -0.9181  1.1091
  815TIP3   OH224079   4.234   5.676   6.936 -0.0761 -0.4323 -0.2342
  815TIP3    H124080   4.216   5.589   6.973  0.1020 -0.0375  0.8081
  815TIP3    H224081   4.329   5.679   6.928  0.0885  0.3730  1.5767
  816TIP3   OH224082   0.272   6.797   2.805  0.8048  0.1014 -0.2956
  816TIP3    H124083   0.209   6.869   2.802  1.4066  0.6060 -1.3061
  816TIP3    H224084   0.221   6.720   2.783  0.3846  0.3909 -0.3450
  817TIP3   OH224085   4.472   2.565   0.245  0.2268  0.6679  0.5320
  817TIP3    H124086   4.426   2.636   0.289 -0.6992  0.6280 -0.3627
  817TIP3    H224087   4.406   2.496   0.234  0.8927 -0.0024  0.6170
  818TIP3   OH224088   4.081   1.564   0.401 -0.2116 -0.1599  0.5046
  818TIP3    H124089   4.172   1.559   0.371 -0.0995  0.7738  0.6354
  818TIP3    H224090   4.039   1.487   0.364  0.6682 -0.6752  0.5568
  819TIP3   OH224091   4.134   2.389   7.767 -0.0238  0.0784  0.2000
  819TIP3    H124092   4.083   2.462   7.733 -0.3939 -0.9359 -1.4960
  819TIP3    H224093   4.099   2.375   7.855 -1.5807  0.4125 -0.3423
  820TIP3   OH224094   4.467   0.647   7.589  0.2875  0.3000  1.1556
  820TIP3    H124095   4.474   0.646   7.493 -0.3263  0.6973  1.0996
  820TIP3    H224096   4.556   0.630   7.620  0.3499 -0.6285  0.5155
  821TIP3   OH224097   1.313   3.155   7.462 -0.3379  0.1095  0.2089
  821TIP3    H124098   1.362   3.223   7.509 -0.9656 -0.3961  1.6534
  821TIP3    H224099   1.309   3.186   7.372  0.3680  1.4332  0.6093
  822TIP3   OH224100   0.501   1.509   8.269  0.0101 -0.3522 -0.0883
  822TIP3    H124101   0.414   1.545   8.288  0.5671 -0.0505  2.1853
  822TIP3    H224102   0.557   1.586   8.259  0.0297 -0.5451 -1.6399
  823TIP3   OH224103   6.231   6.498   0.292 -0.1639 -0.1165  0.1242
  823TIP3    H124104   6.287   6.534   0.223  1.5001 -1.2714  0.8016
  823TIP3    H224105   6.278   6.516   0.373 -1.0738 -0.6150  0.7782
  824TIP3   OH224106   3.251   4.230   0.744 -0.1844 -0.3918 -0.6151
  824TIP3    H124107   3.169   4.275   0.725 -1.3846 -2.1957 -0.0227
  824TIP3    H224108   3.254   4.226   0.840 -0.6030 -2.3027 -0.6380
  825TIP3   OH224109   4.330   0.958   2.018  0.0690 -0.3895  0.2016
  825TIP3    H124110   4.413   0.926   1.981  0.7131 -0.2128  1.4468
  825TIP3    H224111   4.282   0.878   2.039 -0.3591 -0.4939 -1.0923
  826TIP3   OH224112   4.660   4.086   7.299  0.3809 -0.2929  0.3492
  826TIP3    H124113   4.626   4.030   7.369  0.4772 -1.9278 -0.8484
  826TIP3    H224114   4.606   4.064   7.223  2.0039 -0.5655 -0.7738
  827TIP3   OH224115   5.482   2.442   0.618 -0.0132  0.3014 -0.5440
  827TIP3    H124116   5.492   2.372   0.554 -0.5152  0.5938 -0.9534
  827TIP3    H224117   5.561   2.495   0.608  0.3982 -0.2332 -0.1872
  828TIP3   OH224118   6.362   1.191   8.210 -0.3820  0.2447 -0.7328
  828TIP3    H124119   6.360   1.128   8.282 -3.7721  0.4849 -0.4181
  828TIP3    H224120   6.374   1.137   8.131  2.7233 -0.0751 -0.1652
  829TIP3   OH224121   3.491   0.183   1.046  0.3087  0.5855  0.0715
  829TIP3    H124122   3.576   0.141   1.060  1.7551  1.7020 -3.9153
  829TIP3    H224123   3.434   0.112   1.016  1.2182  0.4822 -1.5459
  830TIP3   OH224124   5.829   2.051   0.567  0.1408  0.7817  0.1246
  830TIP3    H124125   5.849   2.073   0.658  0.5132  1.7298 -0.1780
  830TIP3    H224126   5.913   2.028   0.528  0.1470  1.4238 -0.2556
  831TIP3   OH224127   0.046   5.916   2.056  0.1037 -0.7438  0.0218
  831TIP3    H124128   0.129   5.868   2.058  1.5198  1.5819 -0.2844
  831TIP3    H224129   0.007   5.900   2.142  1.6759 -0.5506  0.8068
  832TIP3   OH224130   2.358   4.807   2.094 -0.1155 -1.0618  0.0614
  832TIP3    H124131   2.294   4.802   2.023  0.6872 -0.3598 -0.7409
  832TIP3    H224132   2.383   4.899   2.098 -0.3333 -1.0507  1.4367
  833TIP3   OH224133   4.113   5.320   8.041  0.3860 -0.3891  0.3316
  833TIP3    H124134   4.152   5.387   8.096 -0.1822 -0.7165  1.1681
  833TIP3    H224135   4.129   5.238   8.088 -1.0032 -0.5644  0.5521
  834TIP3   OH224136   2.026   2.695   8.513 -0.2613 -0.0442 -0.9335
  834TIP3    H124137   2.044   2.757   8.442  0.0874 -0.4588 -1.2088
  834TIP3    H224138   2.098   2.633   8.509 -0.4363 -0.2773 -0.4440
  835TIP3   OH224139   3.205   3.582   1.055  0.2374  0.2273 -0.4991
  835TIP3    H124140   3.158   3.517   1.109  1.3698 -0.6579 -0.5443
  835TIP3    H224141   3.193   3.552   0.965 -0.2707  0.7865 -0.6237
  836TIP3   OH224142   0.804   1.707   0.305 -0.3985  0.5858 -0.1935
  836TIP3    H124143   0.762   1.621   0.312  0.3694  0.3412  3.2249
  836TIP3    H224144   0.731   1.768   0.292 -1.5654 -0.1438  2.3638
  837TIP3   OH224145   2.954   1.091   0.565  0.5813  0.3485 -0.0524
  837TIP3    H124146   2.861   1.078   0.548  1.2607 -2.4795 -2.4348
  837TIP3    H224147   2.969   1.184   0.548 -1.5025  0.5040 -1.3962
  838TIP3   OH224148   5.206   4.389   7.073 -0.3900  0.6226 -0.3061
  838TIP3    H124149   5.161   4.424   6.996 -0.5380 -0.7537 -0.8723
  838TIP3    H224150   5.290   4.357   7.040 -0.9472 -1.1016 -0.1793
  839TIP3   OH224151   4.866   5.483   7.802 -0.6375 -0.2944 -0.0548
  839TIP3    H124152   4.820   5.462   7.721  1.1545 -0.5737 -1.0567
  839TIP3    H224153   4.872   5.399   7.849 -0.0969 -0.5159 -0.5065
  840TIP3   OH224154   5.023   3.945   7.920  1.1694 -0.4338  0.7698
  840TIP3    H124155   5.108   3.971   7.885  0.5974  0.7479  0.1820
  840TIP3    H224156   4.977   3.906   7.845  0.0977  1.7164  0.2333
  841TIP3   OH224157   0.797   6.594   1.125  0.7251 -0.0552 -0.4390
  841TIP3    H124158   0.866   6.575   1.187  0.4668  1.3393  0.3143
  841TIP3    H224159   0.842   6.601   1.040  1.4762  0.6556  0.0093
  842TIP3   OH224160   2.604   6.715   1.087  0.2589  0.0105 -0.3893
  842TIP3    H124161   2.665   6.642   1.100 -0.8335 -0.7321  0.7732
  842TIP3    H224162   2.602   6.760   1.172 -2.5368 -1.3894  0.4050
  843TIP3   OH224163   2.538   1.095   1.150  0.2460 -0.9130  0.1922
  843TIP3    H124164   2.587   1.177   1.161 -1.5503  0.5079 -1.5819
  843TIP3    H224165   2.508   1.074   1.239  0.5336  0.5170  0.6694
  844TIP3   OH224166   4.220   6.425   7.923 -0.6541 -0.1065 -0.0030
  844TIP3    H124167   4.250   6.338   7.897 -2.6812 -1.0695  0.6570
  844TIP3    H224168   4.194   6.467   7.841  0.0768 -0.2051 -0.2955
  845TIP3   OH224169   0.012   0.655   8.139 -0.3905  0.1280 -0.5509
  845TIP3    H124170   0.020   0.744   8.175  1.5256  0.3518 -1.3973
  845TIP3    H224171  -0.046   0.665   8.063  1.9033  1.2743 -2.2862
  846TIP3   OH224172   4.660   1.684   1.585 -0.1946  0.0189  0.1970
  846TIP3    H124173   4.629   1.594   1.587  1.1575 -0.5231 -1.1286
  846TIP3    H224174   4.613   1.724   1.512 -0.2448  0.1643  0.3089
  847TIP3   OH224175   0.833   5.208   0.883  0.4692  0.2067  0.3721
  847TIP3    H124176   0.803   5.134   0.830  1.1976  0.3785 -0.3084
  847TIP3    H224177   0.859   5.170   0.967 -1.5967  0.0523  0.9903
  848TIP3   OH224178   1.203   2.356   7.031  0.0149  0.2965  0.8074
  848TIP3    H124179   1.257   2.434   7.023  0.3962  0.0219  0.6940
  848TIP3    H224180   1.211   2.331   7.123  0.6793 -0.1713  0.6261
  849TIP3   OH224181   3.617   5.727   0.221  0.5161 -0.3042 -0.3229
  849TIP3    H124182   3.633   5.814   0.185  1.4629 -0.3445 -0.0463
  849TIP3    H224183   3.559   5.684   0.158 -0.1051  0.5805 -0.3679
  850TIP3   OH224184   1.204   6.371   0.375  0.3630 -0.4503  0.1955
  850TIP3    H124185   1.196   6.309   0.302  1.5691 -0.9879  0.4882
  850TIP3    H224186   1.115   6.385   0.405 -0.0906 -0.7051 -0.9914
  851TIP3   OH224187   3.572   5.047   7.535  0.2211  0.4945 -0.6921
  851TIP3    H124188   3.488   5.004   7.553 -0.6826  2.9886  1.5637
  851TIP3    H224189   3.588   5.027   7.442 -2.6726 -0.3553 -1.1386
  852TIP3   OH224190   3.295   5.549   8.030  0.5005 -0.4112 -0.1864
  852TIP3    H124191   3.256   5.626   8.072  1.1087  0.2970 -0.8713
  852TIP3    H224192   3.359   5.586   7.969 -0.3096 -1.3779 -1.6860
  853TIP3   OH224193   2.679   3.190   0.675 -0.8255 -0.1831  0.0235
  853TIP3    H124194   2.696   3.124   0.608 -2.8366 -0.6762 -0.0791
  853TIP3    H224195   2.722   3.269   0.643  1.4602 -1.3413  0.0478
  854TIP3   OH224196   3.024   1.522   7.613  0.3198  0.1939 -0.0424
  854TIP3    H124197   3.050   1.540   7.522  1.1315  2.5361  0.5809
  854TIP3    H224198   2.932   1.548   7.617  0.2730  0.0539 -0.1943
  855TIP3   OH224199   0.901   6.352   8.430 -0.5581 -0.2159 -0.3849
  855TIP3    H124200   0.868   6.366   8.342  0.8968 -2.2028 -1.3077
  855TIP3    H224201   0.993   6.379   8.427  0.1147 -2.2690 -0.1337
  856TIP3   OH224202   4.770   6.141   0.447  0.1147 -0.0562  0.0769
  856TIP3    H124203   4.828   6.185   0.385 -0.5428 -0.8576 -1.1453
  856TIP3    H224204   4.759   6.053   0.411 -1.5056 -0.0502  0.5020
  857TIP3   OH224205   2.677   1.069   0.569  0.5807 -0.6442  0.1560
  857TIP3    H124206   2.614   1.140   0.556  1.0776 -0.2221  0.0162
  857TIP3    H224207   2.677   1.055   0.664 -0.1389 -1.0388  0.1081
  858TIP3   OH224208   2.312   0.862   2.842  0.0439  0.3676 -0.0394
  858TIP3    H124209   2.234   0.894   2.797 -0.3585  0.4067  0.6798
  858TIP3    H224210   2.337   0.932   2.902  0.9054  0.5464 -0.5791
  859TIP3   OH224211   1.201   5.011   7.543  0.2807  0.0203 -0.4179
  859TIP3    H124212   1.277   5.009   7.485 -0.2381 -0.5902 -1.0891
  859TIP3    H224213   1.139   4.948   7.505 -0.6735  0.6995 -0.0429
  860TIP3   OH224214   2.407   0.335   1.740  0.0836 -0.2507 -0.3800
  860TIP3    H124215   2.393   0.262   1.801  0.5402 -0.1027 -0.0914
  860TIP3    H224216   2.336   0.396   1.760  0.3806 -0.0830  0.1934
  861TIP3   OH224217   3.616   1.325   0.000 -0.4507  0.6284  0.0406
  861TIP3    H124218   3.622   1.411   0.041 -3.0197  1.0328 -0.2586
  861TIP3    H224219   3.522   1.304   0.002  0.1552 -2.7002  1.1876
  862TIP3   OH224220   0.211   5.230   8.284  0.3486  0.6883  0.0795
  862TIP3    H124221   0.304   5.210   8.299  0.1861 -0.5588 -0.4604
  862TIP3    H224222   0.212   5.304   8.224  1.0008  0.7210  0.1173
  863TIP3   OH224223   1.407   0.845   7.836  0.0342  0.1819  0.3736
  863TIP3    H124224   1.411   0.749   7.832 -0.9100  0.1475  0.0685
  863TIP3    H224225   1.343   0.869   7.770  0.9545  1.0978 -0.2069
  864TIP3   OH224226   2.006   0.090   2.855 -0.2019  0.3103  0.0559
  864TIP3    H124227   1.974   0.093   2.765  0.0101  2.2108  0.0152
  864TIP3    H224228   1.943   0.034   2.901 -2.3811  2.1736 -0.5038
  865TIP3   OH224229   4.061   5.936   1.272  0.6014  0.0215 -0.0346
  865TIP3    H124230   4.121   5.955   1.344  0.9802 -1.9269  0.2395
  865TIP3    H224231   4.102   5.863   1.225 -0.9495 -0.5698 -0.5657
  866TIP3   OH224232   6.378   6.186   0.615 -0.1176 -0.0105 -0.0910
  866TIP3    H124233   6.389   6.116   0.679 -0.1678 -1.5431 -1.7015
  866TIP3    H224234   6.302   6.235   0.646 -1.2672 -1.8213  0.0827
  867TIP3   OH224235   3.963   2.903   1.797 -0.2245 -0.0432  0.4954
  867TIP3    H124236   3.919   2.831   1.752 -0.1548  0.3239 -0.1678
  867TIP3    H224237   4.055   2.894   1.774 -0.1019 -0.1998  1.0440
  868TIP3   OH224238   1.222   1.335   0.354  0.1842  0.5443 -0.1019
  868TIP3    H124239   1.150   1.391   0.323 -0.5868  0.5227  1.5391
  868TIP3    H224240   1.190   1.246   0.338 -0.2934  0.5291  0.8463
  869TIP3   OH224241   4.803   4.300   0.811  0.1245 -0.0568  1.3798
  869TIP3    H124242   4.860   4.285   0.887  0.8094  0.7094  1.0324
  869TIP3    H224243   4.808   4.394   0.796  0.3024 -0.2453  0.1461
  870TIP3   OH224244   3.028   3.234   0.668  0.1550  0.4420  0.3044
  870TIP3    H124245   2.951   3.251   0.614 -1.1491 -2.1851  1.1979
  870TIP3    H224246   3.012   3.283   0.748 -0.6278 -0.0854  0.4848
  871TIP3   OH224247   3.998   3.406   1.905 -0.6033  0.2007  0.3250
  871TIP3    H124248   3.973   3.497   1.888  0.1130  0.1948 -0.8606
  871TIP3    H224249   4.077   3.412   1.958  1.8308  0.4201 -3.0425
  872TIP3   OH224250   0.100   2.402   1.691 -0.1100  0.0748 -0.0610
  872TIP3    H124251   0.115   2.313   1.658 -0.1901 -1.0114  2.5941
  872TIP3    H224252   0.015   2.427   1.656 -0.0123 -0.8238 -0.9732
  873TIP3   OH224253   2.444   2.742   7.761 -0.3703  0.2326 -0.2887
  873TIP3    H124254   2.353   2.768   7.768 -0.0793  1.1577  0.1214
  873TIP3    H224255   2.446   2.679   7.688 -1.7314 -1.6643  1.2050
  874TIP3   OH224256   1.347   4.561   1.579 -0.0971  0.6568  0.1673
  874TIP3    H124257   1.439   4.556   1.554 -0.1245  0.5934  0.0784
  874TIP3    H224258   1.345   4.624   1.652  0.0543  0.4400  0.3586
  875TIP3   OH224259   5.986   0.188   0.252 -0.3754  0.4829 -0.0935
  875TIP3    H124260   6.075   0.153   0.255 -0.0723  1.0090 -1.9225
  875TIP3    H224261   5.933   0.121   0.296  0.8440 -0.0274  0.6632
  876TIP3   OH224262   3.273   4.564   0.826 -0.6042 -0.5095 -0.8174
  876TIP3    H124263   3.261   4.636   0.888 -1.9247 -0.9524 -0.5210
  876TIP3    H224264   3.194   4.567   0.771 -1.0639 -2.2215 -0.2816
  877TIP3   OH224265   3.203   5.113   7.661 -0.0661 -0.2799  0.3625
  877TIP3    H124266   3.253   5.032   7.651  1.2638  0.5654 -0.1745
  877TIP3    H224267   3.231   5.149   7.745  0.3207  0.2443  0.0204
  878TIP3   OH224268   4.066   1.485   2.469 -0.0660 -0.7111  0.1351
  878TIP3    H124269   3.974   1.477   2.494 -0.3120  1.3861  0.0584
  878TIP3    H224270   4.111   1.422   2.526 -1.0453  1.2981  3.4492
  879TIP3   OH224271   2.960   5.797   8.515 -0.0256 -0.0492 -0.0710
  879TIP3    H124272   2.885   5.738   8.521  0.4015 -0.4933  1.7474
  879TIP3    H224273   2.927   5.881   8.547  0.1282 -0.1253  0.2923
  880TIP3   OH224274   4.204   5.742   1.067  0.2301  0.8727 -0.2166
  880TIP3    H124275   4.132   5.679   1.069  0.1320  0.9882 -0.1083
  880TIP3    H224276   4.199   5.782   0.981  0.0825  0.9788 -0.1576
  881TIP3   OH224277   0.080   5.791   8.773 -0.4080  0.0181  0.1238
  881TIP3    H124278   0.020   5.751   8.837 -2.0434 -0.4268 -1.6127
  881TIP3    H224279   0.106   5.718   8.717 -1.1829  0.8594 -1.3682
  882TIP3   OH224280   3.954   1.406   1.682 -0.0777  0.0643 -0.1297
  882TIP3    H124281   3.907   1.397   1.764 -1.4042  0.1688 -0.8549
  882TIP3    H224282   3.903   1.354   1.619  0.7370  0.2425 -0.9605
  883TIP3   OH224283   3.189   1.882   8.455 -0.0910 -0.7515 -0.5864
  883TIP3    H124284   3.128   1.882   8.528 -1.3125  0.3018 -1.5472
  883TIP3    H224285   3.239   1.801   8.465 -1.6497 -1.6520  0.2419
  884TIP3   OH224286   6.100   0.879   8.756  0.7670 -0.7344  0.3499
  884TIP3    H124287   6.118   0.972   8.768 -1.3666 -0.4280  1.9170
  884TIP3    H224288   6.186   0.837   8.757  1.7113  1.1183  0.7638
  885TIP3   OH224289   1.554   3.590   6.884  0.0486 -0.3964 -0.1413
  885TIP3    H124290   1.546   3.544   6.967 -1.3331  0.0545  0.0113
  885TIP3    H224291   1.606   3.532   6.829  2.0654 -0.1573  1.3898
  886TIP3   OH224292   6.630   1.219   0.406  0.7205 -0.3390 -0.2648
  886TIP3    H124293   6.722   1.220   0.381  0.8210  0.7424  0.1018
  886TIP3    H224294   6.597   1.305   0.380  0.0654 -0.3328  0.5454
  887TIP3   OH224295   1.684   3.246   3.045  0.5738 -0.6488 -0.2045
  887TIP3    H124296   1.657   3.330   3.010  0.8369 -0.6855 -0.5033
  887TIP3    H224297   1.739   3.267   3.121  0.1695 -0.5660  0.0704
  888TIP3   OH224298   5.396   5.322   0.126  0.2812  0.4999  0.1801
  888TIP3    H124299   5.412   5.251   0.187  1.0039  0.7529  0.2938
  888TIP3    H224300   5.476   5.375   0.128  0.2964  0.5460 -0.9375
  889TIP3   OH224301   3.231   2.614   1.734 -0.5275  0.0800 -0.6521
  889TIP3    H124302   3.247   2.530   1.690  1.4477 -0.0748  0.2401
  889TIP3    H224303   3.266   2.680   1.675  1.5529 -0.0786  0.3450
  890TIP3   OH224304   5.398   0.797   0.409  0.1885  0.3249 -0.0350
  890TIP3    H124305   5.349   0.746   0.474 -0.3791 -0.0131 -0.7037
  890TIP3    H224306   5.424   0.876   0.455  1.7026 -0.8596  1.2455
  891TIP3   OH224307   3.268   6.686   0.429  0.1844 -0.0947 -0.8279
  891TIP3    H124308   3.241   6.597   0.407  0.8700  0.0184 -2.2427
  891TIP3    H224309   3.239   6.698   0.519 -0.5850 -1.4817 -0.8601
  892TIP3   OH224310   6.729   6.234   2.081  0.0545 -0.3968 -0.2331
  892TIP3    H124311   6.723   6.271   2.169 -1.1223 -2.6993  0.7227
  892TIP3    H224312   6.750   6.142   2.094 -1.4980 -1.1177 -2.2755
  893TIP3   OH224313   4.609   3.218   8.732  0.9788  1.0073 -0.0771
  893TIP3    H124314   4.674   3.247   8.668  2.4214 -0.1075  0.8118
  893TIP3    H224315   4.605   3.123   8.721 -0.6397  1.0608 -0.1990
  894TIP3   OH224316   2.665   1.005   8.210 -0.2291 -0.2151  0.1580
  894TIP3    H124317   2.649   0.929   8.153 -0.5415  0.9421 -1.3395
  894TIP3    H224318   2.598   1.068   8.185  1.0181  1.1785  0.2327
  895TIP3   OH224319   3.403   3.015   0.971 -0.2161  0.0387 -0.0228
  895TIP3    H124320   3.365   3.081   1.029 -0.7615  0.8473 -1.2689
  895TIP3    H224321   3.487   3.053   0.943 -1.0173  0.7403 -1.5998
  896TIP3   OH224322   6.804   2.635   1.567 -0.2729 -0.0244  1.0398
  896TIP3    H124323   6.863   2.702   1.600  0.9837 -1.9598  2.9560
  896TIP3    H224324   6.716   2.673   1.579  0.3835  1.2499  2.0825
  897TIP3   OH224325   5.094   4.476   0.937 -0.2586 -0.5100  0.2350
  897TIP3    H124326   5.150   4.403   0.914 -0.5754 -0.7452  0.2007
  897TIP3    H224327   5.070   4.461   1.028  0.1242 -0.1527  0.3963
  898TIP3   OH224328   2.936   2.685   2.666 -0.4815 -0.1103 -0.6000
  898TIP3    H124329   3.015   2.727   2.631 -0.3059  0.3407  0.3075
  898TIP3    H224330   2.873   2.756   2.674 -1.0845 -0.5142 -1.5582
  899TIP3   OH224331   1.907   5.157   0.269  0.4975  0.5472 -0.2384
  899TIP3    H124332   1.949   5.086   0.319 -0.8173  0.1595  0.3787
  899TIP3    H224333   1.849   5.199   0.332 -0.0883  1.0177 -1.0762
  900TIP3   OH224334   4.273   0.900   2.365  0.1316 -0.2541  0.4338
  900TIP3    H124335   4.245   0.987   2.396  0.0924 -0.4663  1.0055
  900TIP3    H224336   4.191   0.853   2.349  0.1506 -0.4867  0.9955
  901TIP3   OH224337   0.553   6.711   8.265  0.1082  0.3685  0.3220
  901TIP3    H124338   0.488   6.733   8.199 -0.2104 -0.6753  0.2762
  901TIP3    H224339   0.512   6.642   8.318  0.9171  0.1587  0.6979
  902TIP3   OH224340   1.554   0.885   0.186 -0.6070  0.3687 -0.3653
  902TIP3    H124341   1.502   0.903   0.109 -1.4176  1.1798  0.3587
  902TIP3    H224342   1.508   0.928   0.258  0.3854  0.0471  0.4980
  903TIP3   OH224343   5.966   6.103   0.409 -0.4663 -0.5469 -0.3383
  903TIP3    H124344   5.959   6.173   0.344 -0.1447 -0.9438 -0.8105
  903TIP3    H224345   5.918   6.136   0.485 -0.7992 -0.0526 -0.7556
  904TIP3   OH224346   4.718   4.932   2.319  0.0775  0.2455  0.6002
  904TIP3    H124347   4.724   4.892   2.233 -0.0427  1.6206 -0.0709
  904TIP3    H224348   4.629   4.914   2.349 -0.5541  1.4721 -0.4561
  905TIP3   OH224349   0.333   2.618   7.322 -0.4003  0.2127  0.1998
  905TIP3    H124350   0.330   2.622   7.227  0.0633 -1.7292  0.0719
  905TIP3    H224351   0.405   2.677   7.346 -1.0005  1.3036 -0.5546
  906TIP3   OH224352   4.815   6.355   8.229  0.1108 -0.1705 -0.0944
  906TIP3    H124353   4.889   6.295   8.234  1.2218  1.2575  2.8281
  906TIP3    H224354   4.845   6.425   8.170  0.9517  0.1587  0.6986
  907TIP3   OH224355   0.814   5.296   7.655  0.3446 -0.0106  0.0873
  907TIP3    H124356   0.875   5.281   7.582 -0.5962 -1.3400 -0.4763
  907TIP3    H224357   0.790   5.388   7.648  0.9779  0.1045 -0.7223
  908TIP3   OH224358   0.943   3.939   1.591 -0.4983 -0.6124 -0.2954
  908TIP3    H124359   1.014   3.990   1.552  0.4675 -1.0511  0.8238
  908TIP3    H224360   0.865   3.992   1.578 -0.2018 -0.6623 -2.6321
  909TIP3   OH224361   3.823   1.932   7.625 -0.0184 -0.5517  0.0736
  909TIP3    H124362   3.817   1.846   7.667  1.3997 -1.4605 -1.4823
  909TIP3    H224363   3.911   1.963   7.646 -0.9190  1.1579  1.6764
  910TIP3   OH224364   0.875   4.784   0.580 -0.2720  0.2283 -0.4039
  910TIP3    H124365   0.853   4.712   0.520 -1.5778  0.1399  0.1332
  910TIP3    H224366   0.937   4.745   0.642 -2.4490 -1.0962  1.0839
  911TIP3   OH224367   5.239   1.994   1.430  0.0568 -0.3876  0.5159
  911TIP3    H124368   5.266   1.906   1.404  1.8101 -0.0526  1.0354
  911TIP3    H224369   5.212   1.984   1.522  1.1208 -0.2547  0.8598
  912TIP3   OH224370   3.482   4.833   0.742 -0.5675 -0.5821 -0.2522
  912TIP3    H124371   3.462   4.756   0.796 -0.0173 -0.8874 -0.4813
  912TIP3    H224372   3.553   4.877   0.789  0.3271 -1.1722 -1.0190
  913TIP3   OH224373   5.779   3.498   7.703  0.5953  0.3030 -0.3393
  913TIP3    H124374   5.809   3.584   7.673 -2.1036  1.7539  0.7945
  913TIP3    H224375   5.710   3.474   7.640  0.4088 -0.3910  0.1278
  914TIP3   OH224376   2.395   3.192   6.959 -0.3803 -0.0187 -0.6841
  914TIP3    H124377   2.337   3.178   6.883  0.9132  1.5103 -2.0325
  914TIP3    H224378   2.380   3.283   6.984 -0.5339 -0.4079  0.7183
  915TIP3   OH224379   3.735   5.081   8.047 -0.1696  0.2873  0.1361
  915TIP3    H124380   3.756   5.023   7.973 -0.0132  1.0419 -0.4169
  915TIP3    H224381   3.659   5.131   8.017 -0.3611  0.3083  0.6513
  916TIP3   OH224382   4.419   2.601   7.395 -0.8477 -0.0083  0.2885
  916TIP3    H124383   4.341   2.638   7.354  0.6243  2.3139 -0.6649
  916TIP3    H224384   4.458   2.546   7.327 -1.5069 -0.9877  0.6884
  917TIP3   OH224385   0.025   5.843   6.545  0.6927 -0.6232 -0.0125
  917TIP3    H124386  -0.008   5.932   6.536  0.5777 -0.5612  0.9757
  917TIP3    H224387   0.092   5.848   6.613 -0.2278 -1.5126  1.0047
  918TIP3   OH224388   4.964   5.308   0.340  0.2701  0.0171 -0.1250
  918TIP3    H124389   4.962   5.331   0.247  0.6444  0.0069 -0.1372
  918TIP3    H224390   5.013   5.379   0.381 -0.2166  0.2132  0.1217
  919TIP3   OH224391   4.513   2.549   8.644 -0.3807 -0.2590 -0.2162
  919TIP3    H124392   4.463   2.467   8.646 -1.9899  0.6564 -0.8349
  919TIP3    H224393   4.556   2.554   8.729  0.9468 -2.4382 -0.6902
  920TIP3   OH224394   3.565   5.079   6.532  0.2043 -0.0989 -0.8608
  920TIP3    H124395   3.617   5.157   6.517  0.1178 -0.3049 -2.4364
  920TIP3    H224396   3.573   5.061   6.626 -0.5219  2.3070 -0.2873
  921TIP3   OH224397   4.703   2.695   0.480  0.0650  0.4495  0.3494
  921TIP3    H124398   4.646   2.626   0.448  0.6833 -0.1007  0.4046
  921TIP3    H224399   4.759   2.652   0.545  1.0466  0.7887 -0.2447
  922TIP3   OH224400   2.824   0.896   8.405  0.5901  0.0674  0.2320
  922TIP3    H124401   2.877   0.841   8.347  0.9639  0.9499 -0.2723
  922TIP3    H224402   2.765   0.942   8.346  0.6965  0.6663  0.5917
  923TIP3   OH224403   1.461   6.190   1.949  0.4198 -0.2368 -0.2779
  923TIP3    H124404   1.441   6.184   1.855  2.1695 -0.3766 -0.6756
  923TIP3    H224405   1.482   6.282   1.963  1.3244 -0.4302 -0.2985
  924TIP3   OH224406   4.065   0.191   0.034  0.2281 -0.3213  0.7708
  924TIP3    H124407   3.999   0.261   0.040  0.2830 -0.2970  1.1449
  924TIP3    H224408   4.131   0.215   0.098  0.2252 -0.7402  0.9355
  925TIP3   OH224409   6.538   0.071   8.038  0.4282  0.2076 -0.8171
  925TIP3    H124410   6.557   0.154   7.996  0.3486  0.3755 -0.5255
  925TIP3    H224411   6.620   0.045   8.080  0.8713 -0.5721 -2.0871
  926TIP3   OH224412   3.401   1.614   1.511  0.0153 -0.4448 -0.5127
  926TIP3    H124413   3.492   1.628   1.537  0.2265 -1.5350 -0.6553
  926TIP3    H224414   3.351   1.676   1.565  0.7374 -0.5417  0.2809
  927TIP3   OH224415   3.795   4.821   7.729  0.0129 -0.2543 -0.1921
  927TIP3    H124416   3.779   4.915   7.719 -1.6509 -0.4447  0.3778
  927TIP3    H224417   3.863   4.816   7.797 -0.6205  0.5203  0.5280
  928TIP3   OH224418   3.630   4.692   0.463 -0.5287  0.6093 -0.0325
  928TIP3    H124419   3.591   4.641   0.534 -2.9971  0.1082 -1.6332
  928TIP3    H224420   3.705   4.639   0.434 -1.8416 -1.1777 -0.3481
  929TIP3   OH224421   6.614   0.974   0.982  0.4039  0.0205  0.2456
  929TIP3    H124422   6.654   1.061   0.977  2.2803 -0.7156  1.4813
  929TIP3    H224423   6.640   0.931   0.900  0.8042  0.0913  0.3342
  930TIP3   OH224424   4.753   3.642   1.764 -0.1431  0.0488  0.4147
  930TIP3    H124425   4.828   3.697   1.787  0.6526 -0.4754 -0.8122
  930TIP3    H224426   4.777   3.554   1.794 -0.4853 -0.0256  0.4737
  931TIP3   OH224427   5.865   1.537   7.505 -0.1022  0.2640 -0.1727
  931TIP3    H124428   5.907   1.516   7.422  0.0754 -0.2299  0.0402
  931TIP3    H224429   5.889   1.629   7.521 -1.7003  0.9873 -1.5961
  932TIP3   OH224430   0.108   2.209   7.383 -0.3260  0.0640  0.4180
  932TIP3    H124431   0.191   2.257   7.377  0.6616 -1.6803 -0.8695
  932TIP3    H224432   0.122   2.147   7.455 -0.7579  0.1471  0.5785
  933TIP3   OH224433   2.498   4.311   7.304 -0.0849 -0.0383 -0.0775
  933TIP3    H124434   2.428   4.325   7.241 -1.4402 -2.4104  0.7882
  933TIP3    H224435   2.526   4.220   7.289  0.0418 -0.4403  2.2215
  934TIP3   OH224436   3.636   5.342   2.587 -0.6123 -0.4392 -0.4335
  934TIP3    H124437   3.651   5.292   2.667 -2.6960  1.0341  0.9501
  934TIP3    H224438   3.576   5.412   2.612  0.0557  1.1553 -2.9077
  935TIP3   OH224439   2.389   3.059   1.339 -0.3246  0.3547  0.2618
  935TIP3    H124440   2.418   3.112   1.413  1.8556  0.5055 -0.5970
  935TIP3    H224441   2.434   3.097   1.263 -1.2476 -0.7423 -0.8942
  936TIP3   OH224442   2.078   5.637   0.469  0.0428  0.1491  0.0593
  936TIP3    H124443   2.028   5.635   0.551 -0.4032 -1.0075 -0.2267
  936TIP3    H224444   2.087   5.545   0.444  1.0205  0.4368 -0.6908
  937TIP3   OH224445   3.196   4.802   8.723  0.3082  0.6624  0.1187
  937TIP3    H124446   3.255   4.782   8.650 -0.3171 -0.6711 -0.0549
  937TIP3    H224447   3.109   4.803   8.685 -0.4324 -3.1651  1.2017
  938TIP3   OH224448   2.689   4.147   1.053 -0.3599  0.3347 -0.0869
  938TIP3    H124449   2.682   4.056   1.024 -1.0325  0.5054 -0.4639
  938TIP3    H224450   2.630   4.152   1.128  0.3626  0.2375  0.5022
  939TIP3   OH224451   3.838   2.141   2.524 -0.2109  0.1523 -0.4711
  939TIP3    H124452   3.858   2.061   2.477 -2.4034 -0.9463  0.2962
  939TIP3    H224453   3.743   2.151   2.515  0.2456  4.7954 -3.7895
  940TIP3   OH224454   5.613   5.155   7.387  0.0450 -0.3185 -0.2231
  940TIP3    H124455   5.638   5.089   7.322  0.2495 -0.4840  0.0186
  940TIP3    H224456   5.693   5.207   7.399  0.6692 -1.5748  1.4235
  941TIP3   OH224457   2.566   6.051   0.132  0.2373 -0.3354 -0.1418
  941TIP3    H124458   2.555   6.020   0.222  3.5997  0.5370  0.7075
  941TIP3    H224459   2.492   6.110   0.119  1.3659  2.2771  3.4330
  942TIP3   OH224460   4.501   4.927   1.816  0.2207  0.3846 -0.2847
  942TIP3    H124461   4.465   4.981   1.746 -0.0964 -0.8034 -1.0542
  942TIP3    H224462   4.443   4.942   1.891 -0.2648  0.5838 -0.6998
  943TIP3   OH224463   3.237   2.148   0.488 -0.0153  0.1140 -0.0193
  943TIP3    H124464   3.314   2.198   0.464  0.3484  0.5806  1.9203
  943TIP3    H224465   3.163   2.204   0.462  0.2852  0.0060 -1.1701
  944TIP3   OH224466   4.475   3.332   7.664  0.0716 -0.4108 -0.1224
  944TIP3    H124467   4.511   3.395   7.726 -1.8254  0.2594  0.3694
  944TIP3    H224468   4.462   3.382   7.584  1.1634 -0.9099 -0.6260
  945TIP3   OH224469   3.132   2.418   6.975 -0.5222 -0.1753  0.0637
  945TIP3    H124470   3.224   2.420   6.949 -1.2157  2.0205 -2.7236
  945TIP3    H224471   3.100   2.334   6.942  0.1260 -0.2686 -0.3352
  946TIP3   OH224472   3.502   5.569   0.016  0.1977  0.4164  0.4407
  946TIP3    H124473   3.525   5.611  -0.066  0.7332 -0.3774  0.1681
  946TIP3    H224474   3.493   5.476  -0.006  1.1227  0.0626  1.4057
  947TIP3   OH224475   1.541   0.205   8.306 -0.3933 -0.1091 -0.4827
  947TIP3    H124476   1.588   0.235   8.383  1.0592 -0.0605 -1.3475
  947TIP3    H224477   1.465   0.263   8.300 -1.1116 -0.7715  1.4613
  948TIP3   OH224478   4.292   1.436   0.223 -0.0336  0.1857  0.1925
  948TIP3    H124479   4.349   1.373   0.178 -1.0763 -0.5110 -0.2097
  948TIP3    H224480   4.351   1.490   0.275  0.8691 -1.4112  0.8892
  949TIP3   OH224481   0.148   3.541   8.648 -0.3609 -0.2186  0.1213
  949TIP3    H124482   0.164   3.488   8.570  1.0017  0.8038 -0.3428
  949TIP3    H224483   0.226   3.529   8.702  0.5404  2.0947 -0.5094
  950TIP3   OH224484   2.081   3.189   0.626  0.2317 -0.1432 -0.8214
  950TIP3    H124485   2.051   3.137   0.551  1.0099 -0.0068 -1.2400
  950TIP3    H224486   2.175   3.173   0.629  0.0896 -0.8294  0.6665
  951TIP3   OH224487   5.782   1.549   7.829 -0.1275  0.4139 -0.7077
  951TIP3    H124488   5.718   1.616   7.808 -0.1845  0.3130 -0.8596
  951TIP3    H224489   5.839   1.545   7.752 -1.8647 -1.7657 -2.0065
  952TIP3   OH224490   4.540   5.489   0.215 -0.3358  0.7990 -0.2054
  952TIP3    H124491   4.573   5.433   0.144  0.2322  0.8190  0.0445
  952TIP3    H224492   4.445   5.482   0.208 -0.3089 -1.5993  0.8936
  953TIP3   OH224493   6.291   6.106   2.068  0.1958 -0.6225  0.1807
  953TIP3    H124494   6.363   6.104   2.005  0.6602 -0.6561  0.7065
  953TIP3    H224495   6.332   6.088   2.152 -0.1000  1.2640  0.7820
  954TIP3   OH224496   1.997   0.121   2.116  0.6551 -0.5013  0.3426
  954TIP3    H124497   1.943   0.190   2.153  1.8393  0.9831 -0.6102
  954TIP3    H224498   2.021   0.066   2.191 -1.3041 -0.6296  0.9322
  955TIP3   OH224499   6.661   3.161   0.699  0.6255  0.4355 -0.2707
  955TIP3    H124500   6.724   3.176   0.629  0.5542 -0.8664 -0.6338
  955TIP3    H224501   6.655   3.066   0.706 -1.1946  0.5350 -0.1435
  956TIP3   OH224502   2.620   1.262   7.505 -0.3663 -0.2879  0.2456
  956TIP3    H124503   2.558   1.189   7.501 -0.4467 -0.1792 -1.3129
  956TIP3    H224504   2.567   1.340   7.488 -0.0533 -0.0118  0.5066
  957TIP3   OH224505   4.455   1.110   7.590  0.8323 -0.2354  0.2369
  957TIP3    H124506   4.461   1.175   7.660  0.3054 -1.4742  1.4690
  957TIP3    H224507   4.371   1.127   7.549  1.1056  0.4429 -0.0591
  958TIP3   OH224508   5.102   0.993   8.160  0.3610  0.2043 -0.4307
  958TIP3    H124509   5.155   0.981   8.081 -0.2197 -1.6326 -0.5981
  958TIP3    H224510   5.027   0.935   8.147  0.7042 -0.8594  1.8480
  959TIP3   OH224511   3.296   1.437   7.810 -0.3471 -0.1992  0.3107
  959TIP3    H124512   3.365   1.497   7.839 -0.9687  0.4302  0.5488
  959TIP3    H224513   3.281   1.460   7.718 -0.2070 -0.3586  0.2498
  960TIP3   OH224514   6.213   4.485   1.350  0.3800  0.2950  0.5576
  960TIP3    H124515   6.168   4.401   1.343 -1.9008  1.4974 -0.0833
  960TIP3    H224516   6.265   4.478   1.430 -0.0827 -1.5519  0.7337
  961TIP3   OH224517   0.283   2.621   8.301  0.1599  0.0439 -0.4364
  961TIP3    H124518   0.286   2.532   8.268  0.1575  0.3856 -1.3814
  961TIP3    H224519   0.217   2.665   8.248 -1.2938  0.1179  1.3140
  962TIP3   OH224520   0.667   6.357   7.642 -0.3115 -0.1736 -0.1317
  962TIP3    H124521   0.724   6.304   7.587 -0.4450 -0.1530 -0.2917
  962TIP3    H224522   0.582   6.353   7.599 -0.7328 -1.1928  0.7581
  963TIP3   OH224523   5.212   6.504   2.235 -0.5067 -0.1390 -0.5485
  963TIP3    H124524   5.147   6.435   2.245 -0.0225 -0.3429  1.9359
  963TIP3    H224525   5.283   6.462   2.186 -2.4444  0.3434 -4.0953
  964TIP3   OH224526   5.712   6.740   2.155  0.6215 -0.3958 -0.3573
  964TIP3    H124527   5.805   6.736   2.134  0.6970 -0.9381  0.0528
  964TIP3    H224528   5.673   6.669   2.104  0.1267  0.9919 -1.9762
  965TIP3   OH224529   5.162   6.161   7.115  0.7121  0.4022  0.1493
  965TIP3    H124530   5.113   6.132   7.192 -0.0626 -0.3812 -0.6140
  965TIP3    H224531   5.155   6.257   7.118 -0.5686  0.3256  0.2649
  966TIP3   OH224532   2.542   2.990   1.617 -0.7217  0.0123  0.1169
  966TIP3    H124533   2.466   3.047   1.614 -0.6095  0.1731  0.3499
  966TIP3    H224534   2.512   2.913   1.665 -1.1184 -0.4947 -0.9071
  967TIP3   OH224535   6.281   5.652   2.527  0.0653  0.1138 -0.4273
  967TIP3    H124536   6.235   5.617   2.603  2.2161 -0.7054  0.5647
  967TIP3    H224537   6.312   5.575   2.479  0.0196  0.6413 -1.3313
  968TIP3   OH224538   2.825   4.003   0.486 -0.2843  0.3722  0.1356
  968TIP3    H124539   2.836   3.931   0.549  0.2846 -0.7700 -1.2148
  968TIP3    H224540   2.740   3.987   0.446 -0.1889  0.4791 -0.1101
  969TIP3   OH224541   1.689   4.552   8.454 -0.1833 -0.6240  0.3419
  969TIP3    H124542   1.762   4.517   8.402 -0.6255 -0.5954 -0.3097
  969TIP3    H224543   1.614   4.497   8.430 -0.7347  0.3492 -0.2017
  970TIP3   OH224544   4.248   5.251   6.692  0.3943 -0.2629 -0.0131
  970TIP3    H124545   4.311   5.180   6.704  1.1566  0.5292  0.8638
  970TIP3    H224546   4.294   5.329   6.724  0.0691  0.8688 -2.1550
  971TIP3   OH224547   0.245   5.774   1.389 -0.2293  0.0731  0.5058
  971TIP3    H124548   0.198   5.702   1.430 -1.0013  1.0000  1.3245
  971TIP3    H224549   0.251   5.840   1.458  1.1384  0.4954  0.0121
  972TIP3   OH224550   6.547   5.702   8.635  0.0903 -0.0235  0.5271
  972TIP3    H124551   6.589   5.621   8.606  0.7287 -0.4454  2.4640
  972TIP3    H224552   6.606   5.772   8.607 -0.2346 -0.2374 -0.7545
  973TIP3   OH224553   5.409   1.600   0.863 -0.1573 -0.5137 -0.0783
  973TIP3    H124554   5.454   1.683   0.874  0.4743 -0.8668  0.0274
  973TIP3    H224555   5.340   1.619   0.799  0.7753 -0.2062 -1.0283
  974TIP3   OH224556   4.376   3.621   8.004  0.2432 -0.3740  0.0113
  974TIP3    H124557   4.369   3.660   8.091  0.2919 -0.6110  0.1206
  974TIP3    H224558   4.384   3.527   8.020 -1.5325 -0.6195 -0.2897
  975TIP3   OH224559   3.096   3.727   1.865  0.4833  0.2710  0.0722
  975TIP3    H124560   3.114   3.710   1.773  1.2957 -0.6090  0.3759
  975TIP3    H224561   3.078   3.821   1.869  0.2562  0.2873 -0.9999
  976TIP3   OH224562   4.059   5.009   7.471 -0.1898 -0.0964 -0.2144
  976TIP3    H124563   4.088   4.982   7.558 -0.2330  1.2581  0.2472
  976TIP3    H224564   4.140   5.011   7.419 -0.0867 -0.4222 -0.0689
  977TIP3   OH224565   3.833   1.352   1.993  0.4013  0.7806 -0.2550
  977TIP3    H124566   3.778   1.409   2.046 -1.5553 -1.8838  0.7989
  977TIP3    H224567   3.908   1.332   2.049  0.6462  1.5698 -0.2923
  978TIP3   OH224568   1.521   4.058   1.332  0.5909 -0.3983  0.1782
  978TIP3    H124569   1.508   4.148   1.362  1.1917  0.0893 -0.9866
  978TIP3    H224570   1.599   4.029   1.379  0.0341 -0.5636  1.0465
  979TIP3   OH224571   3.843   4.583   6.777  0.2229  0.0482  0.1189
  979TIP3    H124572   3.843   4.489   6.758  0.5374 -0.1983  1.2793
  979TIP3    H224573   3.776   4.594   6.845  0.2094  0.6637  0.0143
  980TIP3   OH224574   6.091   5.516   0.597  0.2098 -0.5134 -0.1810
  980TIP3    H124575   6.113   5.594   0.546  2.1453  0.8629  2.4679
  980TIP3    H224576   6.168   5.460   0.591 -0.3614 -1.2846 -0.4275
  981TIP3   OH224577   1.612   2.720   0.812 -0.5503  0.2432 -0.4959
  981TIP3    H124578   1.578   2.798   0.857 -1.3678  0.0325 -0.7278
  981TIP3    H224579   1.706   2.735   0.805 -0.6891  1.1710 -0.4604
  982TIP3   OH224580   2.541   2.812   1.163 -0.1559  0.1787  0.1236
  982TIP3    H124581   2.522   2.906   1.152 -0.6994  0.2183  1.2610
  982TIP3    H224582   2.598   2.809   1.239  0.3735 -0.3807 -0.2875
  983TIP3   OH224583   5.733   5.951   1.872 -0.1233  0.0145 -0.0182
  983TIP3    H124584   5.720   5.876   1.930 -1.9280  0.8917  0.8026
  983TIP3    H224585   5.765   6.021   1.929 -1.1701  0.6672 -0.2050
  984TIP3   OH224586   3.909   4.859   0.639 -0.1149 -0.5209  0.5919
  984TIP3    H124587   3.849   4.785   0.644  0.8581 -1.3932 -0.2149
  984TIP3    H224588   3.852   4.934   0.619 -1.0787 -1.0681  1.1842
  985TIP3   OH224589   6.068   0.605   7.662  0.2839 -0.3762  0.3447
  985TIP3    H124590   6.042   0.513   7.651 -0.9761  0.0359 -0.3663
  985TIP3    H224591   5.988   0.649   7.691  0.1793  0.8980 -1.6428
  986TIP3   OH224592   2.586   6.255   7.145 -0.0432  0.1339 -0.2936
  986TIP3    H124593   2.668   6.207   7.153  0.3837  0.4918 -2.1269
  986TIP3    H224594   2.606   6.327   7.085 -1.8333 -0.1325 -1.2719
  987TIP3   OH224595   3.247   5.651   1.317  0.1788 -0.2158 -0.2519
  987TIP3    H124596   3.259   5.564   1.355 -0.3215  0.4247  1.4957
  987TIP3    H224597   3.153   5.658   1.301  0.2005  0.0410 -0.2753
  988TIP3   OH224598   3.777   2.637   0.414  0.4653  0.0457 -0.2527
  988TIP3    H124599   3.731   2.710   0.372  0.2020 -1.2870 -2.4533
  988TIP3    H224600   3.764   2.563   0.355  1.9426 -1.4406  1.1637
  989TIP3   OH224601   5.256   3.030   1.123 -0.0747 -0.7266 -0.3644
  989TIP3    H124602   5.278   3.121   1.103 -1.5514  0.2313  1.8575
  989TIP3    H224603   5.298   3.014   1.207  0.9550 -2.4637 -1.1748
  990TIP3   OH224604   5.062   0.209   8.286 -0.2436 -0.0886 -0.4775
  990TIP3    H124605   5.113   0.152   8.227 -1.6882 -1.2185 -0.6913
  990TIP3    H224606   4.994   0.246   8.230 -0.8003 -0.0938  0.1860
  991TIP3   OH224607   3.487   4.786   7.791  0.1109 -0.6545 -0.2016
  991TIP3    H124608   3.498   4.881   7.792 -0.1940 -0.6076 -0.8648
  991TIP3    H224609   3.395   4.773   7.816 -0.0106 -0.7457 -0.6953
  992TIP3   OH224610   6.612   6.807   1.567  0.3484 -0.5945  0.1171
  992TIP3    H124611   6.590   6.869   1.497  1.4494  1.3503  1.3791
  992TIP3    H224612   6.697   6.771   1.541  1.0968  0.6567  0.7191
  993TIP3   OH224613   1.141   4.960   2.518  0.2066 -0.4209 -0.1875
  993TIP3    H124614   1.109   4.965   2.428 -2.3096  1.2245  0.6863
  993TIP3    H224615   1.118   4.871   2.546 -2.0104  0.0675 -0.2456
  994TIP3   OH224616   0.138   4.890   1.175 -0.2602 -0.1905  0.4725
  994TIP3    H124617   0.202   4.830   1.214 -1.0597 -0.6531  1.1117
  994TIP3    H224618   0.191   4.954   1.128  0.6776 -0.4975  1.0718
  995TIP3   OH224619   1.951   3.862   0.728  0.3267  0.4407 -0.1666
  995TIP3    H124620   2.046   3.871   0.727  0.7049 -2.5513  0.5990
  995TIP3    H224621   1.931   3.809   0.651 -0.4825 -0.5319  0.6851
  996TIP3   OH224622   3.717   2.324   1.170 -0.2520 -0.2424 -0.3801
  996TIP3    H124623   3.778   2.314   1.098  0.3382 -0.4340  0.1453
  996TIP3    H224624   3.706   2.419   1.179 -0.6052 -0.2269 -0.9488
  997TIP3   OH224625   2.392   1.592   7.597 -0.0254  0.3418  0.3844
  997TIP3    H124626   2.414   1.595   7.690  1.0865 -1.2604  0.2142
  997TIP3    H224627   2.464   1.543   7.557 -2.4903 -2.7095 -0.6858
  998TIP3   OH224628   6.511   6.441   8.614  0.2985 -0.1837 -0.7068
  998TIP3    H124629   6.605   6.456   8.622 -0.0371  1.2324  1.5394
  998TIP3    H224630   6.489   6.388   8.690 -1.0315  1.3998  0.0760
  999TIP3   OH224631   2.095   4.935   1.435 -0.2324  0.5861 -0.2596
  999TIP3    H124632   2.153   5.002   1.473 -0.1438 -0.1489  0.9450
  999TIP3    H224633   2.052   4.980   1.362  0.8706  1.5374 -0.3679
 1000TIP3   OH224634   0.648   4.509   0.334 -0.6279  0.3819 -0.0320
 1000TIP3    H124635   0.638   4.529   0.428  2.1084  0.2034  0.3773
 1000TIP3    H224636   0.660   4.414   0.331 -1.2597  0.3139 -0.6546
 1001TIP3   OH224637   3.995   3.175   8.302  0.1671  0.0222  0.3246
 1001TIP3    H124638   4.016   3.107   8.365  0.2382 -1.8562 -1.6081
 1001TIP3    H224639   3.922   3.223   8.341 -0.3316 -1.5875  1.4568
 1002TIP3   OH224640   5.098   5.353   2.219  0.1197  0.6493 -0.3442
 1002TIP3    H124641   5.157   5.310   2.156  1.8581  0.3482  1.3875
 1002TIP3    H224642   5.083   5.286   2.286  0.6475  1.8322  1.0008
 1003TIP3   OH224643   6.717   4.816   1.218  0.1815 -0.2206 -0.0119
 1003TIP3    H124644   6.682   4.795   1.131  0.4446 -0.5141 -0.0472
 1003TIP3    H224645   6.794   4.870   1.201 -0.5842  0.9538  0.0820
 1004TIP3   OH224646   5.891   1.966   1.285  0.0782  0.1360 -0.1564
 1004TIP3    H124647   5.960   1.935   1.344 -0.5988  1.0209  1.1566
 1004TIP3    H224648   5.811   1.958   1.336 -0.2890  2.7927 -0.1820
 1005TIP3   OH224649   0.198   2.611   2.103  0.4844 -0.2002 -0.3668
 1005TIP3    H124650   0.118   2.657   2.129  0.9746  0.2885  0.3153
 1005TIP3    H224651   0.167   2.537   2.051 -0.4651 -0.4479  0.5101
 1006TIP3   OH224652   2.868   6.312   0.447 -0.2128  0.1347  1.0606
 1006TIP3    H124653   2.938   6.362   0.488  1.3160 -2.5834  2.0853
 1006TIP3    H224654   2.906   6.280   0.365 -1.5229  1.4647 -0.1069
 1007TIP3   OH224655   0.313   0.527   2.202 -0.0850  0.2702 -0.6627
 1007TIP3    H124656   0.346   0.482   2.124  0.7540  0.7369 -0.5926
 1007TIP3    H224657   0.329   0.467   2.274  1.3180  0.7626 -0.5234
 1008TIP3   OH224658   4.292   0.419   7.128 -0.4957 -0.2343  0.2097
 1008TIP3    H124659   4.288   0.331   7.091  0.5154 -0.1937 -0.0360
 1008TIP3    H224660   4.325   0.474   7.057  0.6208  0.0027  0.8834
 1009TIP3   OH224661   4.440   5.716   7.374  0.3579  0.1073  0.4785
 1009TIP3    H124662   4.394   5.651   7.321  0.0298  0.2966  0.5300
 1009TIP3    H224663   4.440   5.795   7.320  0.6105  0.1137  0.4858
 1010TIP3   OH224664   0.131   0.040   0.207 -0.0224 -0.7547  0.3395
 1010TIP3    H124665   0.194  -0.017   0.252  1.5258  0.5544 -0.0831
 1010TIP3    H224666   0.132   0.009   0.116  0.6595 -0.2294  0.1562
 1011TIP3   OH224667   5.233   4.094   1.640  0.9433  0.2995 -0.2973
 1011TIP3    H124668   5.240   4.140   1.723  0.1682 -0.1375  0.0185
 1011TIP3    H224669   5.319   4.107   1.598  1.5891 -0.0482  0.8611
 1012TIP3   OH224670   3.668   4.605   7.875  0.3141  0.2895  0.1853
 1012TIP3    H124671   3.752   4.649   7.859 -0.0580  0.6072 -0.9117
 1012TIP3    H224672   3.604   4.656   7.826 -0.7203  0.6954  1.8748
 1013TIP3   OH224673   4.939   3.383   0.247  0.7799 -0.0843  0.2500
 1013TIP3    H124674   4.927   3.330   0.168  1.6369  0.5569 -0.3244
 1013TIP3    H224675   4.946   3.319   0.317  0.0670 -0.6692 -0.1900
 1014TIP3   OH224676   1.055   1.933   3.056 -0.2328 -0.0874  0.1329
 1014TIP3    H124677   1.066   1.839   3.071  0.1842  0.0699  0.8819
 1014TIP3    H224678   1.007   1.939   2.973 -1.5030 -0.9910  0.7775
 1015TIP3   OH224679   0.017   0.791   8.684  0.7061 -0.3417  0.2773
 1015TIP3    H124680  -0.016   0.704   8.665  0.0929 -0.1252  0.3104
 1015TIP3    H224681   0.109   0.788   8.659  0.5511 -0.8276 -0.2651
 1016TIP3   OH224682   6.560   1.428   0.011 -0.4370 -0.3268 -0.5590
 1016TIP3    H124683   6.585   1.429   0.104 -1.2661 -1.0312 -0.3188
 1016TIP3    H224684   6.631   1.382  -0.033  0.0330  0.1395 -0.3016
 1017TIP3   OH224685   3.877   2.395   1.759 -0.4040 -0.1393  0.0363
 1017TIP3    H124686   3.833   2.454   1.821  0.6206 -1.2106  1.8827
 1017TIP3    H224687   3.968   2.424   1.760 -0.1544 -0.8951 -0.0594
 1018TIP3   OH224688   6.735   3.181   8.136  0.1855 -0.1257  0.1078
 1018TIP3    H124689   6.815   3.223   8.103  0.1569 -0.4970 -0.4490
 1018TIP3    H224690   6.766   3.109   8.191  0.2325 -0.1890 -0.0019
 1019TIP3   OH224691   0.065   2.124   7.681  0.1140  0.3054  0.2806
 1019TIP3    H124692   0.148   2.077   7.691  0.6973  0.9264 -1.3671
 1019TIP3    H224693   0.064   2.188   7.752  0.0941 -1.0143  1.5153
 1020TIP3   OH224694   1.605   5.244   2.497 -0.1118 -0.0754  0.7711
 1020TIP3    H124695   1.543   5.202   2.558  0.1483  0.0612  1.1333
 1020TIP3    H224696   1.640   5.172   2.445 -0.2917 -0.2017  0.8239
 1021TIP3   OH224697   3.093   3.472   8.699 -0.3873 -0.1473 -0.7907
 1021TIP3    H124698   3.144   3.536   8.749 -0.0250 -0.1587 -1.1449
 1021TIP3    H224699   3.119   3.387   8.734 -1.3945 -0.0862  0.1757
 1022TIP3   OH224700   0.001   0.920   8.227 -0.1945 -0.0481 -0.1706
 1022TIP3    H124701  -0.052   0.935   8.149 -1.2106  0.5946  0.6201
 1022TIP3    H224702   0.091   0.933   8.198 -0.6114  0.9506 -1.0591
 1023TIP3   OH224703   2.548   3.779   7.555 -0.1978 -0.3410 -0.3549
 1023TIP3    H124704   2.530   3.685   7.550 -1.1610 -0.1250 -1.6226
 1023TIP3    H224705   2.575   3.803   7.466 -0.0513  0.5933 -0.0688
 1024TIP3   OH224706   1.515   0.626   7.676 -0.4837 -0.6559 -0.1998
 1024TIP3    H124707   1.600   0.616   7.719 -2.0158  1.1864  3.7014
 1024TIP3    H224708   1.531   0.685   7.603  1.5093  0.1477  0.8273
 1025TIP3   OH224709   1.920   1.896   0.505 -0.4731 -0.1483 -0.1046
 1025TIP3    H124710   1.836   1.863   0.471  0.1040 -0.0512 -1.7451
 1025TIP3    H224711   1.959   1.941   0.430  1.6251 -1.2972  0.2368
 1026TIP3   OH224712   2.023   4.427   0.511 -0.5188  0.1429  0.1543
 1026TIP3    H124713   2.008   4.520   0.497 -1.9756 -0.0307  0.4272
 1026TIP3    H224714   1.936   4.390   0.525 -0.2599 -1.6812 -2.3692
 1027TIP3   OH224715   6.544   6.237   1.543  0.3486  0.4754 -0.5096
 1027TIP3    H124716   6.462   6.237   1.493 -0.9201  1.5028  1.4336
 1027TIP3    H224717   6.605   6.187   1.490 -1.6573 -0.6678 -1.8496
 1028TIP3   OH224718   0.909   4.429   2.348  0.9758 -0.1944  0.1502
 1028TIP3    H124719   0.975   4.454   2.412 -0.0149 -0.0200  1.1518
 1028TIP3    H224720   0.837   4.394   2.401  0.1256 -0.0485 -0.8702
 1029TIP3   OH224721   5.003   0.403   7.685 -0.0063  0.0670  0.0586
 1029TIP3    H124722   5.060   0.395   7.609  0.7026 -0.3987  0.6294
 1029TIP3    H224723   5.032   0.333   7.744  0.9905  1.8212  1.7423
 1030TIP3   OH224724   0.956   1.244   6.449  0.3358  0.1387 -0.5822
 1030TIP3    H124725   0.981   1.298   6.374  0.0452 -0.0100 -0.7921
 1030TIP3    H224726   0.860   1.245   6.448  0.2364 -2.1182 -1.9002
 1031TIP3   OH224727   2.014   5.150   7.524 -0.0812  0.2203 -0.3158
 1031TIP3    H124728   2.041   5.232   7.566  0.7743  0.8519 -2.0135
 1031TIP3    H224729   2.094   5.115   7.486 -0.4620 -1.3592  0.2584
 1032TIP3   OH224730   0.934   1.493   6.617  0.4072  0.0970  0.6734
 1032TIP3    H124731   0.890   1.414   6.583 -1.0073  0.5595  1.3736
 1032TIP3    H224732   0.921   1.489   6.712  1.5147  0.4883  0.8568
 1033TIP3   OH224733   3.973   2.395   0.266 -0.0198  0.3098 -0.1372
 1033TIP3    H124734   3.883   2.400   0.233 -0.4909  1.3162  1.2268
 1033TIP3    H224735   3.988   2.301   0.278 -0.9022  0.1302 -0.3383
 1034TIP3   OH224736   5.947   1.058   0.615 -0.0603 -0.3697 -0.1577
 1034TIP3    H124737   5.926   1.061   0.708 -0.7462 -0.9849 -0.2841
 1034TIP3    H224738   5.954   1.150   0.589  2.4906 -0.1470  0.9906
 1035TIP3   OH224739   6.341   2.628   8.377 -0.2309 -0.7643 -0.1784
 1035TIP3    H124740   6.294   2.663   8.301  0.9115  0.4912 -0.3353
 1035TIP3    H224741   6.399   2.561   8.340  0.3687 -0.1118 -0.4268
 1036TIP3   OH224742   2.844   0.736   2.670  0.2587 -0.1143  0.0012
 1036TIP3    H124743   2.752   0.760   2.663  0.2928 -0.2197 -0.9758
 1036TIP3    H224744   2.847   0.645   2.640  0.5668 -0.3846  0.8239
 1037TIP3   OH224745   1.114   2.767   2.705  0.1218 -0.1262  0.0246
 1037TIP3    H124746   1.029   2.730   2.731  0.2345 -0.9216 -0.7214
 1037TIP3    H224747   1.091   2.837   2.644  0.0337 -1.1345 -1.1291
 1038TIP3   OH224748   6.348   6.054   7.441 -0.6465 -0.2979  0.1273
 1038TIP3    H124749   6.420   6.027   7.496 -1.1476 -0.5666  0.6629
 1038TIP3    H224750   6.386   6.066   7.354 -0.2835 -2.0370  0.0305
 1039TIP3   OH224751   6.014   5.860   0.300 -0.0334  0.3051  0.1742
 1039TIP3    H124752   5.967   5.916   0.362  0.3922 -0.0635  0.8437
 1039TIP3    H224753   6.070   5.919   0.251  0.6718  0.4323  1.1136
 1040TIP3   OH224754   3.839   1.209   0.313 -0.0657  0.0217 -0.2217
 1040TIP3    H124755   3.864   1.278   0.251  0.3986  0.7625  0.7632
 1040TIP3    H224756   3.745   1.222   0.326  0.0953  0.7493  0.2750
 1041TIP3   OH224757   0.144   5.296   8.786 -0.4686  0.5842 -0.2700
 1041TIP3    H124758   0.054   5.269   8.804 -0.1337 -1.6852 -1.6888
 1041TIP3    H224759   0.139   5.347   8.705 -0.4176 -0.0388 -0.6688
 1042TIP3   OH224760   5.944   4.023   2.458 -0.0731  0.3090 -0.2545
 1042TIP3    H124761   6.005   4.094   2.438 -0.1707  0.1840 -1.0151
 1042TIP3    H224762   5.991   3.943   2.434 -0.4389  0.1988 -0.6232
 1043TIP3   OH224763   1.942   2.162   1.710 -0.0707 -0.4988 -0.3784
 1043TIP3    H124764   1.849   2.175   1.693 -0.1570  1.7223  1.3517
 1043TIP3    H224765   1.975   2.249   1.732  2.0558 -1.4880  0.6439
 1044TIP3   OH224766   4.604   3.234   2.961 -0.0650 -0.1178  0.2226
 1044TIP3    H124767   4.635   3.307   2.907 -0.3811  0.5446  0.9076
 1044TIP3    H224768   4.520   3.265   2.996 -0.9792 -1.4390 -0.7267
 1045TIP3   OH224769   1.855   2.553   7.630 -0.5742  0.4158 -0.4276
 1045TIP3    H124770   1.883   2.510   7.549  0.4030 -0.4599  0.3364
 1045TIP3    H224771   1.914   2.518   7.697 -2.3251 -0.0821  0.9421
 1046TIP3   OH224772   0.501   2.197   8.690 -0.1616  0.0982  0.2803
 1046TIP3    H124773   0.535   2.128   8.746 -1.5853 -0.4568  0.5016
 1046TIP3    H224774   0.578   2.233   8.645  0.6519 -1.3050  0.5194
 1047TIP3   OH224775   6.241   5.899   8.767 -0.0677 -0.2762  0.1099
 1047TIP3    H124776   6.239   5.941   8.681  0.8214  0.5695  0.4839
 1047TIP3    H224777   6.329   5.916   8.800 -0.8702  0.8553  1.8638
 1048TIP3   OH224778   6.245   2.208   2.207 -0.3393 -0.2151  0.9219
 1048TIP3    H124779   6.339   2.188   2.201  0.1983  2.0056  1.1879
 1048TIP3    H224780   6.224   2.248   2.123 -1.1082 -0.8128  0.8186
 1049TIP3   OH224781   2.290   3.721   6.863 -0.0282 -0.3386 -0.2308
 1049TIP3    H124782   2.348   3.789   6.829 -1.6120  0.1700 -2.1517
 1049TIP3    H224783   2.216   3.769   6.900  0.2059 -0.9952  1.1700
 1050TIP3   OH224784   0.931   4.546   1.000 -0.2590 -0.7696 -0.1299
 1050TIP3    H124785   0.878   4.468   1.017  2.4293 -2.8246 -0.4369
 1050TIP3    H224786   0.996   4.547   1.070  0.5712  0.4424 -0.8672
 1051TIP3   OH224787   2.623   2.163   0.847 -0.5306 -0.2357  0.3985
 1051TIP3    H124788   2.534   2.197   0.860 -0.7264 -0.4501 -0.3104
 1051TIP3    H224789   2.637   2.170   0.752  0.6719  0.9212  0.6235
 1052TIP3   OH224790   2.320   2.344   1.581 -0.2452  0.4406 -0.2757
 1052TIP3    H124791   2.329   2.437   1.600 -1.0384  0.3404  0.6488
 1052TIP3    H224792   2.357   2.299   1.657 -0.4790  0.0109 -0.4081
 1053TIP3   OH224793   0.483   1.026   0.044  0.7040  0.5004  0.1059
 1053TIP3    H124794   0.536   1.105   0.047  1.8827 -0.2971  2.2249
 1053TIP3    H224795   0.547   0.954   0.044 -0.3222 -0.5131 -2.0449
 1054TIP3   OH224796   2.605   4.149   0.153 -0.5122 -0.0826 -0.1741
 1054TIP3    H124797   2.512   4.166   0.168 -0.3814  0.6202 -0.1074
 1054TIP3    H224798   2.608   4.061   0.118 -1.1097 -0.5765  0.9518
 1055TIP3   OH224799   5.780   6.214   0.598  0.0826 -0.3262 -0.4771
 1055TIP3    H124800   5.788   6.290   0.657  3.0885 -0.4111 -0.6331
 1055TIP3    H224801   5.774   6.139   0.657 -0.2213 -0.1742 -0.3112
 1056TIP3   OH224802   3.456   2.206   0.960  0.1945  0.7845 -0.6825
 1056TIP3    H124803   3.452   2.286   1.013  0.0396  0.8758 -0.8313
 1056TIP3    H224804   3.369   2.198   0.922 -0.9701 -1.3616  2.1026
 1057TIP3   OH224805   4.238   0.708   2.080 -0.3628 -0.5366  0.3926
 1057TIP3    H124806   4.171   0.674   2.138 -1.5701 -1.0340 -1.2145
 1057TIP3    H224807   4.283   0.631   2.046 -0.6376 -0.3477 -0.4264
 1058TIP3   OH224808   5.518   5.915   1.202 -0.1732 -0.2814  0.2354
 1058TIP3    H124809   5.602   5.932   1.246 -1.4864  1.8080  2.1753
 1058TIP3    H224810   5.499   5.823   1.221  1.4463 -0.6656  0.1206
 1059TIP3   OH224811   5.643   2.543   7.739 -0.3624  0.0717 -0.2404
 1059TIP3    H124812   5.589   2.588   7.675 -0.2419  0.6956  0.0845
 1059TIP3    H224813   5.674   2.612   7.798 -0.5799 -0.4993  0.5706
 1060TIP3   OH224814   2.000   5.820   1.145 -0.3491  0.1945 -0.4700
 1060TIP3    H124815   2.001   5.726   1.130 -0.5208  0.1782 -0.3802
 1060TIP3    H224816   2.082   5.838   1.190  0.2191  0.2573 -1.4989
 1061TIP3   OH224817   4.765   2.670   1.981 -0.4759  0.2617 -0.3367
 1061TIP3    H124818   4.714   2.666   1.900 -1.1461 -2.5014  0.1249
 1061TIP3    H224819   4.712   2.621   2.045  0.6740  1.2023  1.4057
 1062TIP3   OH224820   2.673   4.512   1.563 -0.6578 -0.7649 -0.2905
 1062TIP3    H124821   2.714   4.461   1.492  0.5679  0.1924 -0.3133
 1062TIP3    H224822   2.648   4.594   1.521 -0.3151 -0.3630  0.2813
 1063TIP3   OH224823   4.963   0.302   1.764  0.0658  0.2166  0.2115
 1063TIP3    H124824   4.941   0.248   1.840 -0.7397  1.6339  1.0199
 1063TIP3    H224825   5.010   0.377   1.801  1.6121 -0.1321 -0.9431
 1064TIP3   OH224826   2.355   0.988   7.001  0.1983  0.5800  0.0837
 1064TIP3    H124827   2.272   0.944   7.019  1.1204 -0.4067  2.3230
 1064TIP3    H224828   2.416   0.917   6.982  1.1005  1.0646  1.0617
 1065TIP3   OH224829   6.210   3.165   2.278 -0.1803 -0.4320 -0.1700
 1065TIP3    H124830   6.152   3.174   2.353 -1.3964 -1.1616 -0.9910
 1065TIP3    H224831   6.293   3.203   2.307 -1.2029  1.1385  0.8546
 1066TIP3   OH224832   0.647   0.324   0.403 -0.1576  0.0539 -0.3740
 1066TIP3    H124833   0.684   0.249   0.357  0.3164  0.3665 -0.5086
 1066TIP3    H224834   0.666   0.399   0.346  0.9079  0.5239  0.5631
 1067TIP3   OH224835   6.812   6.405   7.926 -0.2652 -0.4362  0.3308
 1067TIP3    H124836   6.761   6.483   7.947  0.8485  0.2815  0.4316
 1067TIP3    H224837   6.805   6.350   8.005 -1.1937 -0.5337  0.1942
 1068TIP3   OH224838   0.359   5.437   7.729  0.5782 -0.0320  0.0020
 1068TIP3    H124839   0.293   5.447   7.798  1.0535 -0.0269  0.4565
 1068TIP3    H224840   0.309   5.407   7.653 -0.1109  0.9604  0.0466
 1069TIP3   OH224841   0.997   2.333   0.180 -0.0311  0.1058  0.2258
 1069TIP3    H124842   0.998   2.238   0.167  0.5141 -0.1042  1.5685
 1069TIP3    H224843   0.976   2.344   0.273 -0.9591  1.3442 -0.1070
 1070TIP3   OH224844   1.170   5.343   0.532  0.1393  0.2928 -0.2365
 1070TIP3    H124845   1.103   5.390   0.481  0.4671  0.5955 -0.3935
 1070TIP3    H224846   1.123   5.310   0.609 -0.0870  0.9283 -0.0964
 1071TIP3   OH224847   0.855   3.967   1.201 -0.9848 -0.1736  0.0939
 1071TIP3    H124848   0.840   3.972   1.107 -0.0426  1.3722 -0.0031
 1071TIP3    H224849   0.947   3.940   1.210 -1.2493 -0.9504  0.5907
 1072TIP3   OH224850   6.537   4.956   2.914 -0.2940 -0.3600 -0.1094
 1072TIP3    H124851   6.628   4.929   2.901 -0.6403 -1.5456 -0.1582
 1072TIP3    H224852   6.485   4.883   2.880 -1.2690  0.4057 -0.3041
 1073TIP3   OH224853   4.214   6.805   8.635  0.0722  0.3408 -0.0271
 1073TIP3    H124854   4.182   6.872   8.575 -0.2127 -0.1622 -0.4505
 1073TIP3    H224855   4.257   6.853   8.705 -2.1771  1.1178  0.9249
 1074TIP3   OH224856   5.004   3.849   0.539  0.5770 -0.0715  0.4815
 1074TIP3    H124857   4.932   3.820   0.483  0.2926  0.1003  0.7574
 1074TIP3    H224858   5.075   3.787   0.520  1.0878  1.0054 -1.3635
 1075TIP3   OH224859   5.667   3.948   8.028 -0.7102 -0.0458  0.8934
 1075TIP3    H124860   5.718   4.008   7.973 -1.1571 -0.8038 -0.3764
 1075TIP3    H224861   5.622   3.890   7.966 -0.9296 -1.1774  2.0726
 1076TIP3   OH224862   6.549   2.170   2.554  0.0227 -0.0190 -0.1905
 1076TIP3    H124863   6.456   2.186   2.571 -0.2399  1.9754 -2.7268
 1076TIP3    H224864   6.587   2.258   2.548  1.9920 -0.8001  0.3777
 1077TIP3   OH224865   0.980   0.816   8.201  0.1797  0.3952 -0.4499
 1077TIP3    H124866   0.914   0.842   8.137 -0.2251 -2.9693 -1.6456
 1077TIP3    H224867   1.062   0.813   8.150  0.5129  0.8952  0.0499
 1078TIP3   OH224868   6.255   0.093   7.435 -0.0135  0.2737  0.4872
 1078TIP3    H124869   6.345   0.094   7.468  0.5636 -1.9074 -0.7807
 1078TIP3    H224870   6.238   0.183   7.409  1.7748  0.7734  0.8775
 1079TIP3   OH224871   5.643   0.827   0.584 -0.6278  0.3111  0.6352
 1079TIP3    H124872   5.658   0.872   0.501  3.1090 -0.5476  0.6653
 1079TIP3    H224873   5.640   0.734   0.561  1.2291  0.0029  1.4317
 1080TIP3   OH224874   3.140   4.717   7.579 -0.2523  0.3465  0.2410
 1080TIP3    H124875   3.129   4.653   7.649 -0.7579 -0.0196 -0.1653
 1080TIP3    H224876   3.053   4.754   7.566  0.1312  1.4774  0.8029
 1081TIP3   OH224877   5.411   2.680   1.941  0.4349 -0.2887  0.2125
 1081TIP3    H124878   5.369   2.746   1.997 -0.1735  0.4338 -1.0477
 1081TIP3    H224879   5.411   2.600   1.993 -2.8080 -0.4138  0.2263
 1082TIP3   OH224880   6.600   2.803   7.792 -0.3034  0.5478  0.4988
 1082TIP3    H124881   6.539   2.877   7.798 -0.2574  0.5247  1.4239
 1082TIP3    H224882   6.685   2.840   7.814 -0.0866  0.4545 -0.1875
 1083TIP3   OH224883   1.700   2.451   0.933 -0.3335 -0.2333 -0.1205
 1083TIP3    H124884   1.710   2.541   0.899 -0.3701 -0.2641 -0.2127
 1083TIP3    H224885   1.780   2.436   0.983 -1.0872  0.4893  1.3668
 1084TIP3   OH224886   4.540   6.122   0.664  0.3524  0.8646  0.6484
 1084TIP3    H124887   4.585   6.206   0.655  1.5617  0.3318  1.3675
 1084TIP3    H224888   4.598   6.059   0.621 -1.2053  0.5566 -1.1308
 1085TIP3   OH224889   2.410   1.794   0.352 -0.7089  0.2273  0.2757
 1085TIP3    H124890   2.485   1.764   0.402 -2.0852 -0.3393  2.0894
 1085TIP3    H224891   2.446   1.859   0.291  1.4038 -0.9275  0.2204
 1086TIP3   OH224892   6.326   5.057   7.459  0.4496 -0.2001 -0.1139
 1086TIP3    H124893   6.292   4.979   7.415  0.2485  0.1184 -0.5292
 1086TIP3    H224894   6.250   5.091   7.508  0.5325 -0.2533  0.0538
 1087TIP3   OH224895   4.987   2.849   1.371  1.1263  0.5503 -0.0402
 1087TIP3    H124896   5.048   2.780   1.345  0.1145 -0.4545  0.2017
 1087TIP3    H224897   4.981   2.906   1.294 -0.6867 -1.5551 -1.5727
 1088TIP3   OH224898   3.687   0.011   1.147  0.0926  0.2508  0.0806
 1088TIP3    H124899   3.738  -0.066   1.172  1.6750  1.3932  0.5382
 1088TIP3    H224900   3.701   0.073   1.219 -2.0749  0.5940  0.2859
 1089TIP3   OH224901   3.448   5.162   1.755  0.2101 -0.3591  0.3089
 1089TIP3    H124902   3.467   5.255   1.769  0.0416 -0.3482  0.4576
 1089TIP3    H224903   3.411   5.132   1.838 -1.2607 -0.1710 -0.2430
 1090TIP3   OH224904   4.018   2.600   7.629 -0.7941 -0.5254 -0.1159
 1090TIP3    H124905   4.080   2.568   7.563 -0.9720 -1.6012  0.2217
 1090TIP3    H224906   3.938   2.619   7.580 -0.0883  1.3452 -0.6386
 1091TIP3   OH224907   4.221   1.736   0.575 -0.1238 -0.4347  0.3077
 1091TIP3    H124908   4.235   1.695   0.660 -0.8324 -4.0249 -1.1101
 1091TIP3    H224909   4.149   1.686   0.536  1.8491 -0.7913 -3.3652
 1092TIP3   OH224910   3.924   4.201   0.686  0.0448 -0.3848  0.2951
 1092TIP3    H124911   3.990   4.154   0.635  0.0984 -0.7671  0.7031
 1092TIP3    H224912   3.841   4.160   0.660  0.0036 -0.1435  0.0428
 1093TIP3   OH224913   6.375   4.007   7.903 -0.4440  0.1157  0.3111
 1093TIP3    H124914   6.301   3.996   7.845  0.9790 -0.2864 -1.5089
 1093TIP3    H224915   6.401   3.918   7.928 -0.7096  0.2617  1.1284
 1094TIP3   OH224916   5.662   6.638   1.056 -0.1173  0.0069 -0.2965
 1094TIP3    H124917   5.690   6.549   1.077 -0.7243  0.0021  0.5777
 1094TIP3    H224918   5.697   6.691   1.128 -0.4596  0.3390 -0.3722
 1095TIP3   OH224919   5.491   2.688   6.395  0.0075 -0.2669 -0.1353
 1095TIP3    H124920   5.503   2.595   6.414  0.9484  0.1005  1.1536
 1095TIP3    H224921   5.396   2.701   6.398 -0.0339 -0.8225  1.5561
 1096TIP3   OH224922   5.947   6.530   0.495  0.0694  0.0335 -0.4633
 1096TIP3    H124923   5.960   6.574   0.411 -0.4542 -1.5265 -1.4022
 1096TIP3    H224924   5.853   6.512   0.498  0.2589 -0.9317 -0.0602
 1097TIP3   OH224925   6.223   2.722   0.429  0.7189 -0.0629 -0.1305
 1097TIP3    H124926   6.178   2.652   0.383 -1.2743  0.6742  0.5786
 1097TIP3    H224927   6.207   2.800   0.376  0.5153  0.3502  0.5287
 1098TIP3   OH224928   1.156   3.099   8.252 -0.0897  0.0993 -0.0067
 1098TIP3    H124929   1.206   3.152   8.190  0.0531  0.4641  0.4097
 1098TIP3    H224930   1.176   3.138   8.338 -1.1953  0.3254  0.1557
 1099TIP3   OH224931   1.374   4.337   1.795 -0.3002 -0.4893  0.0919
 1099TIP3    H124932   1.409   4.293   1.872 -0.5373 -1.4468 -0.3251
 1099TIP3    H224933   1.419   4.421   1.792  0.6720 -0.9776  0.5367
 1100TIP3   OH224934   5.705   6.800   1.284  0.2210 -0.4319 -0.3450
 1100TIP3    H124935   5.614   6.816   1.307 -0.5474 -2.5751 -1.6563
 1100TIP3    H224936   5.744   6.764   1.364  0.0574  0.8946  0.3489
 1101TIP3   OH224937   4.036   4.487   0.736 -0.3336  0.2609 -0.7138
 1101TIP3    H124938   3.971   4.537   0.785  0.9099  0.4494  0.8482
 1101TIP3    H224939   4.042   4.404   0.782 -0.3534 -0.2336 -1.5932
 1102TIP3   OH224940   3.198   4.883   1.978 -0.1306  0.0765  0.4613
 1102TIP3    H124941   3.174   4.848   2.064  0.0195 -2.3353 -0.3767
 1102TIP3    H224942   3.118   4.872   1.926  0.3203 -0.2687 -0.1707
 1103TIP3   OH224943   5.444   3.073   8.575 -0.0668  0.1535  0.3310
 1103TIP3    H124944   5.378   3.053   8.641 -1.2444  0.0807 -0.8341
 1103TIP3    H224945   5.400   3.058   8.491  0.1952  3.6754 -0.6041
 1104TIP3   OH224946   1.702   0.907   0.551 -0.4575 -0.0246 -0.1591
 1104TIP3    H124947   1.668   0.818   0.557  2.9860 -1.5585 -0.7427
 1104TIP3    H224948   1.767   0.903   0.480  0.1595  2.8440  0.1129
 1105TIP3   OH224949   0.506   1.183   0.996 -0.3752 -0.6836 -0.5230
 1105TIP3    H124950   0.551   1.099   0.993 -0.7945 -0.9032 -0.7250
 1105TIP3    H224951   0.563   1.238   1.050 -0.1857 -1.1466 -0.2378
 1106TIP3   OH224952   4.272   5.261   7.348 -0.2840  0.0831 -0.1821
 1106TIP3    H124953   4.305   5.177   7.377  1.1847  0.6685 -0.0716
 1106TIP3    H224954   4.248   5.248   7.257 -0.5552 -0.5800 -0.0192
 1107TIP3   OH224955   2.420   6.826   8.537  0.0603  0.0508  0.4389
 1107TIP3    H124956   2.489   6.768   8.506 -1.2823 -0.7052 -1.3657
 1107TIP3    H224957   2.435   6.834   8.631  1.8587 -1.0455  0.2902
 1108TIP3   OH224958   3.799   4.870   8.368  0.0996 -0.4208 -0.3149
 1108TIP3    H124959   3.794   4.964   8.386 -0.7643 -0.7602  1.3720
 1108TIP3    H224960   3.840   4.833   8.446  1.2159 -1.3738 -1.3174
 1109TIP3   OH224961   2.201   5.200   1.041 -0.2204 -0.0692  0.0870
 1109TIP3    H124962   2.248   5.159   0.968  1.0818 -0.6803  1.2150
 1109TIP3    H224963   2.109   5.180   1.025  0.0314 -0.1220 -1.4195
 1110TIP3   OH224964   0.529   3.587   2.440  0.0447 -0.6905 -0.3865
 1110TIP3    H124965   0.528   3.664   2.382  1.5860 -1.3849 -1.4006
 1110TIP3    H224966   0.458   3.604   2.502 -1.0564  0.5473 -1.8714
 1111TIP3   OH224967   3.533   3.153   2.965  0.1460  0.0460 -0.2209
 1111TIP3    H124968   3.471   3.214   3.005  0.4711 -1.6679  3.2386
 1111TIP3    H224969   3.615   3.202   2.959 -0.2757  0.7735 -0.1342
 1112TIP3   OH224970   0.721   2.877   8.820 -0.7851 -0.2193 -0.1427
 1112TIP3    H124971   0.714   2.782   8.829 -0.8888 -0.1369  0.7225
 1112TIP3    H224972   0.630   2.907   8.817 -0.8630  0.0934  2.5813
 1113TIP3   OH224973   0.218   3.894   8.557 -0.0760 -0.0194 -0.6318
 1113TIP3    H124974   0.262   3.867   8.476 -0.8039  0.3279 -1.1532
 1113TIP3    H224975   0.245   3.985   8.569 -1.5518  0.5731 -1.5951
 1114TIP3   OH224976   1.264   1.509   0.075  0.0821  0.2552  0.0520
 1114TIP3    H124977   1.354   1.488   0.099 -0.5232 -0.9929  1.3714
 1114TIP3    H224978   1.232   1.563   0.147  0.0280  1.4446 -0.8392
 1115TIP3   OH224979   4.934   5.844   8.236  0.2628  0.1421  0.3205
 1115TIP3    H124980   4.852   5.855   8.187  0.3603 -0.6179 -0.0159
 1115TIP3    H224981   5.000   5.888   8.182 -0.0691  1.6315  1.0684
 1116TIP3   OH224982   4.999   6.710   0.340 -0.7919 -0.0108 -0.0325
 1116TIP3    H124983   5.093   6.691   0.336 -0.6189  0.6985  0.4956
 1116TIP3    H224984   4.971   6.713   0.249 -0.3170 -0.3080 -0.1900
 1117TIP3   OH224985   5.815   3.910   1.535 -0.1252 -0.4782 -0.3557
 1117TIP3    H124986   5.739   3.862   1.503 -1.1280 -0.0218  1.2818
 1117TIP3    H224987   5.809   3.995   1.493 -0.5232 -0.4399 -0.2187
 1118TIP3   OH224988   1.979   4.070   8.791  0.2670 -0.3059 -0.3941
 1118TIP3    H124989   2.000   4.093   8.881 -1.3324  0.3779 -0.1692
 1118TIP3    H224990   2.062   4.040   8.754  2.2106  3.8846 -0.0899
 1119TIP3   OH224991   4.227   4.675   0.857  0.1495  0.4346  0.0238
 1119TIP3    H124992   4.230   4.641   0.947  0.8697 -0.6208 -0.3835
 1119TIP3    H224993   4.185   4.606   0.807 -1.2558  1.4725 -0.2842
 1120TIP3   OH224994   1.225   3.645   1.507  0.6133 -0.1397 -0.1181
 1120TIP3    H124995   1.170   3.677   1.578  1.2435  2.0986 -0.5760
 1120TIP3    H224996   1.231   3.718   1.446 -0.2259 -2.1022 -2.7257
 1121TIP3   OH224997   3.633   2.590   0.655  0.1415  0.1771  0.1572
 1121TIP3    H124998   3.687   2.580   0.576  1.4854  0.5083  1.0070
 1121TIP3    H224999   3.626   2.685   0.666  2.0786  0.2034  1.7838
 1122TIP3   OH225000   1.737   5.285   0.483 -0.4780  0.0627 -0.0441
 1122TIP3    H125001   1.745   5.376   0.454  0.6570 -0.9014 -3.2575
 1122TIP3    H225002   1.644   5.264   0.473 -0.5126  0.4850 -0.6611
 1123TIP3   OH225003   5.214   4.776   0.092  0.4830 -0.0918 -0.8126
 1123TIP3    H125004   5.143   4.812   0.041  1.0740  2.6450  0.1415
 1123TIP3    H225005   5.240   4.697   0.045 -3.1952 -1.3045 -1.1016
 1124TIP3   OH225006   3.216   1.777   7.966 -0.1539  0.2076 -0.3481
 1124TIP3    H125007   3.287   1.772   7.902 -0.7019 -0.4966 -0.9253
 1124TIP3    H225008   3.259   1.802   8.048  0.7183  0.0351 -0.7418
 1125TIP3   OH225009   1.596   4.861   0.449  0.3838 -0.0437  0.4867
 1125TIP3    H125010   1.633   4.930   0.504 -0.6058  0.5418  0.4456
 1125TIP3    H225011   1.591   4.900   0.361  0.3052 -0.3507  0.3522
 1126TIP3   OH225012   1.826   3.669   2.187  0.0291  0.2596 -0.0204
 1126TIP3    H125013   1.808   3.759   2.215 -1.3396 -0.0256  0.0837
 1126TIP3    H225014   1.740   3.629   2.178  0.5887 -0.8022 -0.9038
 1127TIP3   OH225015   2.715   1.208   2.450 -0.3282 -0.5598 -0.5960
 1127TIP3    H125016   2.646   1.256   2.405  0.8120  1.9140  0.0850
 1127TIP3    H225017   2.772   1.176   2.380  0.3026  1.4506 -1.0762
 1128TIP3   OH225018   4.335   4.271   0.177 -0.0324 -0.0940 -0.4504
 1128TIP3    H125019   4.241   4.282   0.164 -0.6372 -1.9229  1.7257
 1128TIP3    H225020   4.364   4.355   0.211 -1.3173 -0.1279  0.8071
 1129TIP3   OH225021   3.140   2.515   0.838  0.5093  0.1046 -0.6436
 1129TIP3    H125022   3.140   2.556   0.925  0.2838  0.5530 -0.8511
 1129TIP3    H225023   3.214   2.555   0.793  1.3640 -0.9895 -0.2716
 1130TIP3   OH225024   2.097   5.382   7.677  0.0571 -0.2768 -0.4364
 1130TIP3    H125025   2.141   5.360   7.759  1.5181 -1.3874 -1.4837
 1130TIP3    H225026   2.162   5.433   7.628 -1.7242  2.8286  0.1280
 1131TIP3   OH225027   0.154   4.901   7.457  0.1715 -0.0718  0.0075
 1131TIP3    H125028   0.194   4.986   7.477  1.8705 -0.8686  0.1359
 1131TIP3    H225029   0.111   4.914   7.372  1.5636  0.5724 -0.6267
 1132TIP3   OH225030   5.185   1.248   8.204  0.2628  0.0361  0.6494
 1132TIP3    H125031   5.266   1.230   8.251  1.0607  0.9039 -0.3326
 1132TIP3    H225032   5.138   1.164   8.203  1.9320 -0.9424 -0.2298
 1133TIP3   OH225033   1.339   2.799   0.593  0.2005  0.0822  0.0045
 1133TIP3    H125034   1.296   2.857   0.655  2.4114 -0.3417  2.0716
 1133TIP3    H225035   1.364   2.722   0.644 -1.7350 -2.3576 -2.4048
 1134TIP3   OH225036   3.007   4.521   7.035  0.0542  0.0428  0.6652
 1134TIP3    H125037   3.089   4.477   7.013  0.0379  0.6201 -0.6744
 1134TIP3    H225038   3.032   4.586   7.101  1.0328  1.3355 -0.8922
 1135TIP3   OH225039   5.793   1.325   7.297  0.2066 -0.3616 -0.1475
 1135TIP3    H125040   5.706   1.343   7.332 -0.7127 -1.7519 -1.5380
 1135TIP3    H225041   5.821   1.408   7.258 -0.7223 -0.0220 -0.1182
 1136TIP3   OH225042   2.786   2.503   8.616  0.2775 -0.4464 -0.2171
 1136TIP3    H125043   2.865   2.554   8.634 -0.6980  1.2236 -0.4303
 1136TIP3    H225044   2.812   2.441   8.547  1.8845 -1.2960  1.0810
 1137TIP3   OH225045   6.368   4.318   6.957 -0.8277  0.4077 -0.3794
 1137TIP3    H125046   6.427   4.267   7.014  0.2399 -0.1653 -1.9350
 1137TIP3    H225047   6.381   4.409   6.984 -1.0351  0.0768  0.8973
 1138TIP3   OH225048   3.574   2.456   1.678 -0.1227  0.4688  0.1608
 1138TIP3    H125049   3.600   2.455   1.770 -1.9427  1.6618  0.7357
 1138TIP3    H225050   3.536   2.370   1.663 -0.6975  0.6044  0.8063
 1139TIP3   OH225051   1.579   5.326   8.018 -0.3334 -0.0926 -0.2835
 1139TIP3    H125052   1.485   5.342   8.030 -0.4593 -0.8525 -0.1973
 1139TIP3    H225053   1.587   5.231   8.021  0.3621 -0.0595 -0.8861
 1140TIP3   OH225054   1.915   1.231   1.737 -0.2361 -0.2449  0.0965
 1140TIP3    H125055   1.865   1.281   1.673 -0.3494 -1.6861 -1.0017
 1140TIP3    H225056   1.850   1.176   1.781  0.2205 -1.6327 -0.8671
 1141TIP3   OH225057   4.567   0.889   0.240  0.2060  0.1568 -0.5263
 1141TIP3    H125058   4.584   0.815   0.298 -2.6692 -0.0585  0.1938
 1141TIP3    H225059   4.567   0.851   0.152  1.5681 -0.0912 -0.4456
 1142TIP3   OH225060   2.179   6.670   7.890  0.4811  0.2868  0.0291
 1142TIP3    H125061   2.223   6.658   7.806 -0.0475  1.5904 -0.4647
 1142TIP3    H225062   2.241   6.639   7.955  1.1745 -0.0922 -0.7984
 1143TIP3   OH225063   4.464   1.001   8.370  0.4119 -0.9309  0.0872
 1143TIP3    H125064   4.445   1.083   8.416  0.0983 -0.8590 -0.1700
 1143TIP3    H225065   4.417   0.935   8.421 -1.5534 -0.6131 -1.1952
 1144TIP3   OH225066   4.491   5.920   7.184  0.0703 -0.0549  0.2058
 1144TIP3    H125067   4.407   5.926   7.140  0.8935  0.3973 -1.3778
 1144TIP3    H225068   4.556   5.925   7.114  1.5315  2.7719  1.5689
 1145TIP3   OH225069   4.593   3.480   1.234 -0.2686  0.4676  0.0404
 1145TIP3    H125070   4.517   3.476   1.176  0.2579  1.7324 -0.7567
 1145TIP3    H225071   4.624   3.570   1.228  2.0490 -0.3144 -0.6144
 1146TIP3   OH225072   4.576   0.447   1.810 -0.2091  0.4906  0.5444
 1146TIP3    H125073   4.592   0.471   1.719  0.0743  2.3258  1.0237
 1146TIP3    H225074   4.644   0.494   1.859 -0.9328  0.3073  1.7730
 1147TIP3   OH225075   1.277   0.252   2.381 -0.8155  0.2144  0.4006
 1147TIP3    H125076   1.346   0.273   2.318  1.5673 -0.0418  2.7805
 1147TIP3    H225077   1.272   0.329   2.438  0.6838 -1.3842  2.8873
 1148TIP3   OH225078   4.599   2.514   2.146 -0.1091 -0.6554  0.0606
 1148TIP3    H125079   4.510   2.525   2.111  0.0960 -0.5515 -0.4431
 1148TIP3    H225080   4.588   2.511   2.241 -0.2936  3.5112  0.3602
 1149TIP3   OH225081   1.749   0.591   0.810  0.0831 -0.5483 -0.2288
 1149TIP3    H125082   1.701   0.622   0.733  1.4429  0.0852 -0.8596
 1149TIP3    H225083   1.805   0.664   0.835  0.2681 -1.0405  0.8742
 1150TIP3   OH225084   6.752   0.516   1.808 -0.1809  0.3198  0.0435
 1150TIP3    H125085   6.677   0.575   1.797 -0.8468 -0.7772 -1.7528
 1150TIP3    H225086   6.784   0.535   1.896 -1.5946  1.9346  0.2738
 1151TIP3   OH225087   1.609   0.368   7.496 -0.6053 -0.0884  0.0811
 1151TIP3    H125088   1.614   0.335   7.586 -0.3924  2.4324  1.0671
 1151TIP3    H225089   1.533   0.426   7.496 -0.4421  0.1589 -1.3106
 1152TIP3   OH225090   6.528   6.351   7.982 -0.6382  0.0928  0.0139
 1152TIP3    H125091   6.602   6.331   8.039  1.0335  0.4337 -1.9278
 1152TIP3    H225092   6.527   6.446   7.975 -2.1797  0.2020  1.0952
 1153TIP3   OH225093   0.612   5.574   0.684 -0.5871 -0.0455  0.7872
 1153TIP3    H125094   0.537   5.572   0.743  1.3808  0.5114  3.4576
 1153TIP3    H225095   0.659   5.493   0.702  0.9999  0.9653  1.3401
 1154TIP3   OH225096   6.519   1.470   1.710  0.4241  0.4295  0.0850
 1154TIP3    H125097   6.469   1.521   1.774 -1.7749  0.9210 -1.9250
 1154TIP3    H225098   6.493   1.379   1.726  0.4193  0.4709  0.3176
 1155TIP3   OH225099   0.720   4.975   0.178  0.2432  0.0568  0.3487
 1155TIP3    H125100   0.684   4.891   0.206  0.6108 -0.0556  0.4874
 1155TIP3    H225101   0.717   4.972   0.082 -0.9571  0.4168  0.3572
 1156TIP3   OH225102   6.156   2.374   0.997 -0.3370  0.0740 -0.2093
 1156TIP3    H125103   6.148   2.287   1.037 -0.3116  0.4245  0.5833
 1156TIP3    H225104   6.067   2.408   0.995 -0.1015  0.9262  1.5965
 1157TIP3   OH225105   4.263   0.645   6.930  0.1427 -0.0089  0.0484
 1157TIP3    H125106   4.269   0.731   6.888  0.0822 -0.1641 -0.2825
 1157TIP3    H225107   4.351   0.630   6.966 -0.3144  0.9773  1.6892
 1158TIP3   OH225108   3.529   5.418   1.803 -0.0238 -0.0773  0.3982
 1158TIP3    H125109   3.592   5.382   1.865  0.2609 -0.9734 -0.3931
 1158TIP3    H225110   3.571   5.497   1.769 -0.3744  0.6651  1.6597
 1159TIP3   OH225111   0.457   5.135   8.356 -0.3394 -0.6926 -0.7469
 1159TIP3    H125112   0.496   5.153   8.442 -1.1916 -2.2688  0.0141
 1159TIP3    H225113   0.475   5.042   8.341 -0.2046 -0.4461 -2.3030
 1160TIP3   OH225114   6.135   5.121   8.526  0.6206  0.6000  0.2328
 1160TIP3    H125115   6.195   5.153   8.592 -1.8755  2.3521  1.8148
 1160TIP3    H225116   6.063   5.184   8.525 -1.2623 -1.3773 -1.4632
 1161TIP3   OH225117   6.350   2.594   1.039  0.0964  0.4236  0.0918
 1161TIP3    H125118   6.414   2.571   0.972  1.4885 -0.6872  1.7195
 1161TIP3    H225119   6.277   2.533   1.025  0.8383 -0.5146  0.1956
 1162TIP3   OH225120   3.286   4.250   1.704  0.2358  0.0998 -0.0944
 1162TIP3    H125121   3.335   4.330   1.721 -1.3747  0.9287  0.8532
 1162TIP3    H225122   3.206   4.279   1.660 -0.8716 -0.8188  1.2150
 1163TIP3   OH225123   1.483   2.201   0.323  0.2173 -0.2527 -0.4562
 1163TIP3    H125124   1.538   2.189   0.246  1.0165  1.1929 -0.1497
 1163TIP3    H225125   1.541   2.184   0.398  0.0026  0.3104 -0.1489
 1164TIP3   OH225126   4.214   6.111   1.081  0.0296  0.1330  0.3664
 1164TIP3    H125127   4.221   6.101   0.986 -0.8521 -1.6177  0.4446
 1164TIP3    H225128   4.224   6.022   1.116  0.6508  0.7862  1.9444
 1165TIP3   OH225129   6.072   6.289   1.851  0.3766  0.0879  0.3032
 1165TIP3    H125130   6.118   6.205   1.858  1.0564  0.4847  0.6311
 1165TIP3    H225131   6.119   6.347   1.910 -0.7440  0.4247  0.8977
 1166TIP3   OH225132   1.663   3.400   1.351 -0.0022 -0.0147  0.2866
 1166TIP3    H125133   1.620   3.399   1.265 -2.3111  0.0875  1.3570
 1166TIP3    H225134   1.679   3.493   1.369 -2.7287  0.3476  1.3621
 1167TIP3   OH225135   2.622   4.721   8.472  0.3921  0.1036  0.0666
 1167TIP3    H125136   2.528   4.724   8.490  0.4809  1.3567  0.4221
 1167TIP3    H225137   2.653   4.809   8.492  1.5348 -0.1085 -0.6845
 1168TIP3   OH225138   4.825   1.717   0.512  0.7084 -0.1764 -0.3270
 1168TIP3    H125139   4.787   1.739   0.597 -0.7212 -1.7391 -0.5132
 1168TIP3    H225140   4.897   1.780   0.501  0.6993  0.3004  1.8517
 1169TIP3   OH225141   6.805   5.086   1.370 -0.3671 -0.4494 -0.1574
 1169TIP3    H125142   6.717   5.119   1.349 -1.0257 -2.3256 -0.4952
 1169TIP3    H225143   6.812   5.099   1.465 -0.0127  1.8842 -0.4233
 1170TIP3   OH225144   6.442   5.758   1.344  0.1738 -0.2036  0.0896
 1170TIP3    H125145   6.412   5.809   1.420  1.1544 -0.2003  0.4865
 1170TIP3    H225146   6.362   5.738   1.296 -0.6123 -1.1449  1.7048
 1171TIP3   OH225147   2.142   6.004   1.515  0.0356  1.0237  0.4462
 1171TIP3    H125148   2.143   6.091   1.555 -1.0343  1.4003 -0.2958
 1171TIP3    H225149   2.129   6.021   1.422 -1.6298  0.0436  0.4511
 1172TIP3   OH225150   3.268   5.426   1.472  0.1260 -0.3385  0.2558
 1172TIP3    H125151   3.357   5.457   1.489 -0.1683  0.6055  0.1618
 1172TIP3    H225152   3.278   5.359   1.405  0.5691  1.4587 -1.6032
 1173TIP3   OH225153   0.664   4.741   6.558 -0.4640  0.2017  0.4703
 1173TIP3    H125154   0.742   4.739   6.503 -0.5111 -1.8344  0.3964
 1173TIP3    H225155   0.696   4.766   6.645  0.0647  0.5634  0.1759
 1174TIP3   OH225156   5.125   6.222   1.387  0.5095 -0.1165 -0.4540
 1174TIP3    H125157   5.174   6.180   1.316  0.8857  0.7323 -0.7176
 1174TIP3    H225158   5.078   6.151   1.430  2.6815 -1.1396  0.3740
 1175TIP3   OH225159   3.292   1.958   0.884  0.1981  0.2461  0.3968
 1175TIP3    H125160   3.349   2.035   0.885 -1.4208  1.4973  1.0191
 1175TIP3    H225161   3.217   1.985   0.831 -0.2379 -1.0460  0.3229
 1176TIP3   OH225162   0.798   3.561   2.367  0.4123  0.6023  0.1664
 1176TIP3    H125163   0.710   3.540   2.400  0.9802 -1.5729  0.4650
 1176TIP3    H225164   0.852   3.568   2.446  1.5277 -3.4339  0.0201
 1177TIP3   OH225165   4.240   2.681   2.696  0.3822  0.1136 -0.4755
 1177TIP3    H125166   4.319   2.626   2.694  0.0558 -0.3878  0.0271
 1177TIP3    H225167   4.168   2.619   2.693  0.0001  0.4601  0.9371
 1178TIP3   OH225168   4.581   0.434   6.841  0.2113  0.1095 -0.1328
 1178TIP3    H125169   4.605   0.344   6.864 -1.4838 -0.8325 -1.8404
 1178TIP3    H225170   4.575   0.434   6.745 -0.8892  1.7674 -0.1018
 1179TIP3   OH225171   1.145   1.262   7.411 -0.4249 -0.8480  0.6895
 1179TIP3    H125172   1.091   1.217   7.475  0.7184 -2.2488  0.7015
 1179TIP3    H225173   1.222   1.291   7.459  0.4226 -1.8673 -0.0047
 1180TIP3   OH225174   0.072   3.818   8.784  0.2351  0.2741 -0.2779
 1180TIP3    H125175   0.091   3.864   8.702 -2.1006 -1.2793 -1.8274
 1180TIP3    H225176   0.115   3.733   8.775 -0.5482 -0.1429 -0.2206
 1181TIP3   OH225177   1.459   1.086   7.219  0.0889 -0.6139 -0.9594
 1181TIP3    H125178   1.525   1.025   7.184  3.0695  1.8426 -0.0474
 1181TIP3    H225179   1.451   1.061   7.311  2.4863  1.1146 -0.1758
 1182TIP3   OH225180   0.361   0.167   2.265 -0.0799 -0.6832  0.3200
 1182TIP3    H125181   0.403   0.083   2.280  0.6393 -0.3809  0.0557
 1182TIP3    H225182   0.268   0.148   2.263  0.0040 -1.3008  1.4030
 1183TIP3   OH225183   3.508   3.455   1.970  0.1644  0.0600  0.0187
 1183TIP3    H125184   3.442   3.412   2.024 -0.2984  0.1780 -0.4510
 1183TIP3    H225185   3.583   3.395   1.972  1.0849  1.1658  2.7868
 1184TIP3   OH225186   6.677   6.659   6.779  0.1634 -0.7811  0.2364
 1184TIP3    H125187   6.766   6.650   6.745 -0.3614  0.6227 -1.6405
 1184TIP3    H225188   6.671   6.751   6.806 -0.3541 -1.1679  1.5054
 1185TIP3   OH225189   5.784   4.564   0.399 -0.6444 -0.6551  0.1788
 1185TIP3    H125190   5.804   4.526   0.313  0.5830 -0.9826  0.5844
 1185TIP3    H225191   5.729   4.639   0.379 -1.6600 -1.6175 -0.7723
 1186TIP3   OH225192   5.263   1.487   7.054 -0.4234  0.3871 -0.0263
 1186TIP3    H125193   5.354   1.516   7.047 -0.2321  0.3139  1.6336
 1186TIP3    H225194   5.236   1.470   6.964  1.0188  0.9608 -0.6007
 1187TIP3   OH225195   0.003   0.308   7.567  0.9177 -0.2001  0.0626
 1187TIP3    H125196   0.056   0.375   7.609  0.4696  0.6350 -0.6677
 1187TIP3    H225197   0.065   0.241   7.539  1.5091  0.4622 -0.2219
 1188TIP3   OH225198   6.266   4.874   7.755 -0.1446  0.1925 -0.4463
 1188TIP3    H125199   6.356   4.872   7.788 -1.2438 -0.7815  2.8563
 1188TIP3    H225200   6.229   4.955   7.790 -1.3000 -0.7562  0.6280
 1189TIP3   OH225201   4.408   1.449   0.598  0.4621 -0.4957 -0.2798
 1189TIP3    H125202   4.489   1.409   0.568 -0.1890 -0.9328 -1.5670
 1189TIP3    H225203   4.352   1.375   0.623  0.1520 -0.2499 -0.2352
 1190TIP3   OH225204   5.127   2.171   8.495  0.1796  0.1862 -0.3636
 1190TIP3    H125205   5.135   2.141   8.404 -1.0478 -3.3189  0.5352
 1190TIP3    H225206   5.046   2.131   8.526  0.4522  1.4693  2.2537
 1191TIP3   OH225207   1.465   6.509   1.326  0.0555 -0.4262 -0.1899
 1191TIP3    H125208   1.497   6.427   1.289  0.5230  0.6276 -2.2242
 1191TIP3    H225209   1.450   6.566   1.251  1.9320  2.1581  1.2502
 1192TIP3   OH225210   2.501   3.500   8.227  0.5358  0.1199  0.0363
 1192TIP3    H125211   2.509   3.405   8.231  0.1940  0.0954  0.1754
 1192TIP3    H225212   2.549   3.533   8.303 -0.6442 -0.0212  0.8590
 1193TIP3   OH225213   4.448   2.884   1.036  0.0587 -0.0002  0.4997
 1193TIP3    H125214   4.508   2.865   1.107 -0.6543  0.8844  1.3645
 1193TIP3    H225215   4.495   2.858   0.957  1.2675 -0.0297  1.2108
 1194TIP3   OH225216   0.170   4.573   8.557  0.0386 -0.3258 -0.3160
 1194TIP3    H125217   0.087   4.622   8.553 -0.3793 -0.5812  2.7663
 1194TIP3    H225218   0.149   4.488   8.520 -1.2651 -0.5345  0.8167
 1195TIP3   OH225219   5.565   6.087   2.156  0.0980 -0.2430 -0.3647
 1195TIP3    H125220   5.651   6.123   2.133 -0.0115  0.2850  0.0287
 1195TIP3    H225221   5.579   6.043   2.240  0.3481 -1.5898 -1.0918
 1196TIP3   OH225222   0.975   1.524   2.910  0.4006 -0.2456  0.3781
 1196TIP3    H125223   0.928   1.570   2.840 -1.5704 -1.2709  0.9647
 1196TIP3    H225224   0.917   1.452   2.935  2.8025 -2.2947  0.4019
 1197TIP3   OH225225   4.848   4.055   0.254  0.0800  0.0340  0.0378
 1197TIP3    H125226   4.889   4.030   0.336 -0.8639 -1.4916  0.0893
 1197TIP3    H225227   4.766   4.097   0.280  0.1539  0.2768 -0.1148
 1198TIP3   OH225228   6.151   3.304   1.885  0.4378  0.1303 -0.1429
 1198TIP3    H125229   6.239   3.272   1.906 -0.0355 -0.4055  1.1364
 1198TIP3    H225230   6.098   3.282   1.962 -0.6344  1.2054 -0.5343
 1199TIP3   OH225231   4.084   2.722   8.565 -0.0684  0.0703  0.1643
 1199TIP3    H125232   4.179   2.729   8.553  0.0214  0.0800  0.8511
 1199TIP3    H225233   4.069   2.629   8.579 -0.3284 -0.1256 -1.2411
 1200TIP3   OH225234   2.020   1.459   7.887  0.0643  0.4002 -0.0069
 1200TIP3    H125235   2.052   1.446   7.976 -1.4480 -0.2194  0.4888
 1200TIP3    H225236   1.966   1.381   7.870  1.7627 -0.4193 -2.1702
 1201TIP3   OH225237   1.461   6.473   8.058  0.1656  0.4206 -0.6210
 1201TIP3    H125238   1.430   6.529   8.129  0.9423 -2.2042  1.9628
 1201TIP3    H225239   1.554   6.461   8.076 -0.3938 -3.6029  0.5185
 1202TIP3   OH225240   4.590   5.502   8.509 -0.1279 -0.0684 -0.1542
 1202TIP3    H125241   4.533   5.436   8.469 -0.7331 -1.0844  2.1882
 1202TIP3    H225242   4.640   5.538   8.436 -1.3738 -1.5397 -1.8287
 1203TIP3   OH225243   2.424   5.139   1.250  0.3491  0.0172 -0.3194
 1203TIP3    H125244   2.345   5.158   1.301 -1.0258  0.4631 -2.4982
 1203TIP3    H225245   2.465   5.065   1.296 -0.7050  0.5140  1.4915
 1204TIP3   OH225246   3.212   5.943   0.652  0.1176  0.2571 -0.8949
 1204TIP3    H125247   3.133   5.917   0.700 -0.5847 -0.1024 -2.1867
 1204TIP3    H225248   3.232   5.867   0.597  2.1114 -0.1381  0.3049
 1205TIP3   OH225249   3.705   3.581   8.254  0.6916  0.4203 -0.0061
 1205TIP3    H125250   3.753   3.629   8.323  0.8725  0.0376  0.1374
 1205TIP3    H225251   3.614   3.606   8.267  0.7158  0.3026  0.4189
 1206TIP3   OH225252   4.997   2.793   2.047 -0.0659 -0.0100  0.0285
 1206TIP3    H125253   4.968   2.867   2.101 -0.7539 -2.3574  3.1903
 1206TIP3    H225254   4.916   2.749   2.022  0.2649  0.8222 -2.8429
 1207TIP3   OH225255   6.122   2.997   8.335 -0.5767 -0.2265  0.2030
 1207TIP3    H125256   6.178   2.981   8.411 -0.1811 -1.4438 -0.3131
 1207TIP3    H225257   6.150   3.081   8.301 -0.4513  0.1233  1.1340
 1208TIP3   OH225258   4.571   2.220   1.423  0.0352 -0.4111 -0.2841
 1208TIP3    H125259   4.581   2.284   1.493  0.5190 -0.5087 -0.2644
 1208TIP3    H225260   4.543   2.140   1.467  0.1767 -0.4270 -0.2264
 1209TIP3   OH225261   3.530   1.612   0.460  0.0256  0.3481 -0.1812
 1209TIP3    H125262   3.459   1.588   0.520  0.0336  0.8516  0.0356
 1209TIP3    H225263   3.489   1.673   0.398  0.3916  1.1024  0.2929
 1210TIP3   OH225264   0.338   5.979   7.096  0.1317  0.2946 -0.2200
 1210TIP3    H125265   0.332   5.922   7.019  0.6648  0.9277 -0.7411
 1210TIP3    H225266   0.255   6.026   7.098  0.0502  0.1547 -0.3136
 1211TIP3   OH225267   1.329   0.772   8.844  0.6279  0.6450  0.7440
 1211TIP3    H125268   1.400   0.729   8.892  0.6410  2.5718  2.6026
 1211TIP3    H225269   1.368   0.795   8.760  1.8451  0.6057  1.2803
 1212TIP3   OH225270   6.412   3.022   7.877  0.1247  0.8926 -0.3416
 1212TIP3    H125271   6.322   3.045   7.853 -0.9043 -1.7235  0.6498
 1212TIP3    H225272   6.426   3.066   7.961 -1.1371 -0.4557  0.6372
 1213TIP3   OH225273   6.553   1.260   2.898 -0.0068  0.9920 -0.4707
 1213TIP3    H125274   6.522   1.339   2.853  0.6790  2.4701  1.4790
 1213TIP3    H225275   6.519   1.269   2.987  0.3679 -0.7691 -0.1239
 1214TIP3   OH225276   2.707   0.097   0.436 -0.4469  0.2690  0.4109
 1214TIP3    H125277   2.615   0.076   0.452 -0.5435  1.2368  1.3078
 1214TIP3    H225278   2.708   0.137   0.349 -0.7536 -0.4297  0.0840
 1215TIP3   OH225279   5.226   3.623   1.529  0.2686 -0.2190  0.1490
 1215TIP3    H125280   5.192   3.710   1.507 -4.5724 -1.6889  0.6009
 1215TIP3    H225281   5.207   3.569   1.452 -0.1236 -1.5626  1.1335
 1216TIP3   OH225282   6.826   3.667   1.969  0.5554  0.4514  0.6204
 1216TIP3    H125283   6.910   3.713   1.970  1.0660 -0.3794 -0.8993
 1216TIP3    H225284   6.773   3.713   2.034  1.4900  2.3352  0.1226
 1217TIP3   OH225285   0.979   1.661   0.505  0.0240  0.0964 -0.1594
 1217TIP3    H125286   0.909   1.698   0.453 -0.3855  0.3922  0.5876
 1217TIP3    H225287   0.935   1.607   0.571  0.6267 -2.4331 -1.7118
 1218TIP3   OH225288   4.529   4.029   7.558  0.0442  0.5487 -0.2660
 1218TIP3    H125289   4.555   4.096   7.621 -0.7395 -0.0689  0.7638
 1218TIP3    H225290   4.556   3.946   7.599  0.5552  0.1994 -1.2860
 1219TIP3   OH225291   5.739   0.413   0.875  0.4871 -0.1458 -0.4690
 1219TIP3    H125292   5.722   0.458   0.957  0.6053 -0.5482 -0.2201
 1219TIP3    H225293   5.679   0.453   0.812 -0.7968 -0.9528  0.1855
 1220TIP3   OH225294   1.187   0.477   1.384  0.0834  0.2637  0.2944
 1220TIP3    H125295   1.198   0.382   1.383  0.3545  0.2654  1.3363
 1220TIP3    H225296   1.266   0.511   1.343  0.1325  0.0415  0.2027
 1221TIP3   OH225297   3.212   3.712   2.591  0.0222 -0.1584  0.5698
 1221TIP3    H125298   3.134   3.656   2.598 -0.4202  0.4124  0.2995
 1221TIP3    H225299   3.178   3.801   2.598  0.5235  0.1424 -0.5520
 1222TIP3   OH225300   1.299   1.194   2.033 -0.5627 -0.0995  0.0652
 1222TIP3    H125301   1.345   1.235   1.960 -0.2632 -0.0403  0.2871
 1222TIP3    H225302   1.293   1.263   2.099 -0.0014 -0.4319  0.4660
 1223TIP3   OH225303   4.476   3.561   6.555 -1.0249  0.0506 -0.4181
 1223TIP3    H125304   4.478   3.594   6.645 -2.3105  1.0289 -0.7275
 1223TIP3    H225305   4.562   3.585   6.519 -1.2144  1.3926 -0.0366
 1224TIP3   OH225306   1.220   3.135   2.120 -0.1617 -0.1888  0.0481
 1224TIP3    H125307   1.287   3.202   2.125 -0.1003 -0.2269 -0.2396
 1224TIP3    H225308   1.215   3.099   2.209 -1.9208  1.8545  0.8690
 1225TIP3   OH225309   1.059   3.144   1.681  0.0064 -0.1138  0.3269
 1225TIP3    H125310   1.130   3.187   1.634  0.6497 -1.5445 -0.0803
 1225TIP3    H225311   1.040   3.202   1.754  2.1553 -0.0523  0.9066
 1226TIP3   OH225312   3.869   3.304   7.328  0.0786 -0.1934 -0.2282
 1226TIP3    H125313   3.785   3.319   7.284  0.7907 -0.1949 -1.6257
 1226TIP3    H225314   3.920   3.251   7.267  0.1414 -2.6203  1.7242
 1227TIP3   OH225315   1.816   0.852   8.603  0.2395  0.9376  0.4403
 1227TIP3    H125316   1.813   0.947   8.605  2.9044  1.1426 -0.6679
 1227TIP3    H225317   1.881   0.831   8.536 -0.0600 -1.6695  0.8282
 1228TIP3   OH225318   6.394   5.984   7.760 -0.5614 -0.3956  0.3768
 1228TIP3    H125319   6.334   5.909   7.760 -1.0472 -0.0208  0.8774
 1228TIP3    H225320   6.336   6.060   7.754 -0.2774  0.0553  2.5668
 1229TIP3   OH225321   0.085   2.776   0.033  0.5379  0.1633 -0.4091
 1229TIP3    H125322   0.028   2.758   0.107  0.5842  0.8638 -0.1924
 1229TIP3    H225323   0.143   2.846   0.064 -1.4797  2.7797 -2.0671
 1230TIP3   OH225324   1.283   1.600   1.747 -0.2892 -0.3287  0.3595
 1230TIP3    H125325   1.320   1.666   1.805 -1.4785  0.2206  0.5266
 1230TIP3    H225326   1.204   1.570   1.793 -0.5987 -0.7392 -0.4237
 1231TIP3   OH225327   4.454   5.640   7.633 -0.0001  0.0349  0.3772
 1231TIP3    H125328   4.475   5.645   7.540  1.6040 -0.6909  0.6620
 1231TIP3    H225329   4.417   5.725   7.655  2.8121  1.5295 -0.2084
 1232TIP3   OH225330   0.557   3.287   0.860 -0.1375 -0.7341  0.2441
 1232TIP3    H125331   0.631   3.226   0.858 -0.3895 -1.1826  2.3914
 1232TIP3    H225332   0.582   3.354   0.924 -0.5391  0.5639 -0.9071
 1233TIP3   OH225333   1.863   5.632   8.786  0.6446  0.4025  0.2456
 1233TIP3    H125334   1.775   5.637   8.823  0.6456  1.0487  0.1651
 1233TIP3    H225335   1.852   5.660   8.695  0.8400 -0.0551  0.0777
 1234TIP3   OH225336   5.258   6.122   7.740  0.3585 -0.1960 -0.1402
 1234TIP3    H125337   5.168   6.151   7.732  0.4868  0.4480  0.6424
 1234TIP3    H225338   5.288   6.112   7.649 -0.2596  0.3154 -0.4067
 1235TIP3   OH225339   3.709   6.791   0.857 -0.9864  0.1544 -0.3013
 1235TIP3    H125340   3.646   6.777   0.928 -0.6095 -1.3683 -0.2280
 1235TIP3    H225341   3.792   6.763   0.894 -0.7042 -0.1982 -1.1952
 1236TIP3   OH225342   4.439   3.167   8.481  0.1955  0.0192  0.3294
 1236TIP3    H125343   4.533   3.151   8.483 -0.0703 -1.7479 -0.2683
 1236TIP3    H225344   4.403   3.096   8.429 -1.7680 -0.9646  2.8142
 1237TIP3   OH225345   3.777   0.980   0.450 -0.1618  0.1167 -1.0145
 1237TIP3    H125346   3.793   1.064   0.406  0.1862  1.2934  1.2418
 1237TIP3    H225347   3.786   0.999   0.543 -0.0541 -2.4564 -0.4233
 1238TIP3   OH225348   5.678   4.424   1.921 -0.0070  0.1204 -0.5927
 1238TIP3    H125349   5.606   4.486   1.926 -0.1701  0.1620 -2.5675
 1238TIP3    H225350   5.638   4.340   1.942  0.1002  0.5607  1.5526
 1239TIP3   OH225351   4.467   3.806   7.351  0.3547 -0.0503  0.1230
 1239TIP3    H125352   4.456   3.892   7.310 -0.8411  0.7167  1.9089
 1239TIP3    H225353   4.553   3.776   7.321  0.1145  1.0281 -1.8060
 1240TIP3   OH225354   3.467   3.900   1.865  0.0949 -1.1764  0.1972
 1240TIP3    H125355   3.518   3.900   1.784  0.5649  0.6741  0.4551
 1240TIP3    H225356   3.526   3.863   1.930  0.7226 -0.1190  0.2492
 1241TIP3   OH225357   2.891   0.114   0.174  0.1590 -0.2820  0.1417
 1241TIP3    H125358   2.814   0.058   0.173  1.5180 -2.2659 -1.2750
 1241TIP3    H225359   2.877   0.175   0.102 -0.9177  0.6904  1.1232
 1242TIP3   OH225360   5.244   6.395   8.048  0.3941 -0.0639  0.7070
 1242TIP3    H125361   5.317   6.457   8.041  0.9390 -0.8872 -2.0892
 1242TIP3    H225362   5.285   6.309   8.052 -0.4080 -0.4767  0.2752
 1243TIP3   OH225363   6.661   3.156   0.121  0.2172  0.3184 -0.3110
 1243TIP3    H125364   6.712   3.124   0.047  0.1534  0.6359 -0.4966
 1243TIP3    H225365   6.579   3.108   0.117  0.4854 -0.1656 -0.0347
 1244TIP3   OH225366   4.900   2.669   1.694  0.2801 -0.9085  0.1145
 1244TIP3    H125367   4.806   2.686   1.686  0.5408  1.6528  1.4201
 1244TIP3    H225368   4.912   2.645   1.786  0.9788 -0.3704  0.1746
 1245TIP3   OH225369   5.147   2.997   2.304 -0.4325  0.0121  0.5100
 1245TIP3    H125370   5.138   2.902   2.315 -2.3249  0.0224 -0.5251
 1245TIP3    H225371   5.061   3.032   2.328 -0.1039  1.3435 -0.2032
 1246TIP3   OH225372   5.718   0.555   8.018  0.2081 -0.1093 -0.0334
 1246TIP3    H125373   5.696   0.587   8.106  1.9102 -0.5955  0.6188
 1246TIP3    H225374   5.781   0.485   8.034 -0.6898 -1.3234 -1.6037
 1247TIP3   OH225375   5.898   3.354   0.997  0.4276  0.0214 -0.5245
 1247TIP3    H125376   5.852   3.346   0.914  1.3125 -1.0358 -0.9259
 1247TIP3    H225377   5.976   3.406   0.976  0.4108  0.1617 -0.2466
 1248TIP3   OH225378   3.415   4.743   0.299 -0.0455 -0.7101  0.4570
 1248TIP3    H125379   3.450   4.710   0.216  0.8251  1.4467 -0.0976
 1248TIP3    H225380   3.491   4.754   0.355 -0.1291  1.2278  0.2608
 1249TIP3   OH225381   1.355   2.254   2.036 -0.1103  0.3453 -0.4991
 1249TIP3    H125382   1.276   2.223   2.081  0.8421  0.0238  1.0323
 1249TIP3    H225383   1.351   2.213   1.950 -1.9157  0.8408 -0.6884
 1250TIP3   OH225384   0.146   3.522   2.174  0.1623  0.7945  0.6567
 1250TIP3    H125385   0.078   3.527   2.241 -0.9463  1.0169 -0.4519
 1250TIP3    H225386   0.109   3.566   2.098  0.9610 -0.4002 -0.4698
 1251TIP3   OH225387   0.982   0.917   1.671 -0.6034 -0.9336  0.3346
 1251TIP3    H125388   0.962   0.826   1.651  0.3377 -0.9260 -0.7708
 1251TIP3    H225389   0.956   0.929   1.762 -1.4049 -2.1021  0.2709
 1252TIP3   OH225390   0.762   4.576   1.377 -0.4318  0.4897 -0.2292
 1252TIP3    H125391   0.776   4.626   1.297  1.7635  1.3644  0.6211
 1252TIP3    H225392   0.778   4.485   1.351  1.8059  0.8979 -0.5539
 1253TIP3   OH225393   5.156   3.113   7.312 -0.3226 -0.7596 -0.2957
 1253TIP3    H125394   5.244   3.087   7.283 -0.5672 -0.8433 -0.9768
 1253TIP3    H225395   5.101   3.037   7.292 -0.3073 -1.2892  1.4678
 1254TIP3   OH225396   1.569   5.987   7.828 -0.5975 -0.8759 -0.8686
 1254TIP3    H125397   1.649   5.974   7.879 -0.4337 -2.2838 -1.4519
 1254TIP3    H225398   1.500   5.952   7.883 -0.4951 -1.8322 -1.3166
 1255TIP3   OH225399   4.202   3.523   1.567  0.3501 -1.0125 -0.4696
 1255TIP3    H125400   4.182   3.593   1.629  0.2763 -1.1682 -0.3186
 1255TIP3    H225401   4.119   3.506   1.523  0.7970  0.4515 -2.0120
 1256TIP3   OH225402   1.176   5.547   7.040  0.1499  0.6564 -0.0064
 1256TIP3    H125403   1.266   5.562   7.012 -0.1696 -0.3395 -1.6649
 1256TIP3    H225404   1.129   5.521   6.961 -0.7570 -2.5874  1.4255
 1257TIP3   OH225405   5.362   2.662   7.958  0.1228 -0.0260 -0.2333
 1257TIP3    H125406   5.455   2.649   7.937  0.9232  0.4063  2.6517
 1257TIP3    H225407   5.351   2.757   7.956 -0.0259 -0.0319  0.2790
 1258TIP3   OH225408   3.047   3.007   8.348 -0.7276 -0.2019 -0.3414
 1258TIP3    H125409   3.094   3.069   8.404  0.9592 -1.1881 -0.5715
 1258TIP3    H225410   2.999   2.951   8.409 -1.4266  0.6769 -0.0759
 1259TIP3   OH225411   3.836   1.382   0.956  0.1418 -0.0163 -0.1454
 1259TIP3    H125412   3.884   1.383   0.873  0.9234  0.5625  0.3021
 1259TIP3    H225413   3.853   1.295   0.992  0.9528  0.2233  0.0621
 1260TIP3   OH225414   4.257   5.294   8.538 -0.2201  0.3849 -0.3626
 1260TIP3    H125415   4.318   5.265   8.606 -1.1697  0.5445  0.5932
 1260TIP3    H225416   4.184   5.232   8.544 -0.8326  1.0813 -0.4438
 1261TIP3   OH225417   0.583   5.412   1.397  0.4626 -0.7172 -0.5272
 1261TIP3    H125418   0.667   5.411   1.352  0.9359  1.3143  0.1877
 1261TIP3    H225419   0.605   5.407   1.490 -0.2663 -1.0704 -0.3627
 1262TIP3   OH225420   2.281   6.295   2.189  0.0046 -0.0950 -0.1146
 1262TIP3    H125421   2.271   6.318   2.282 -1.7711  0.9120 -0.5131
 1262TIP3    H225422   2.262   6.201   2.186 -0.3584 -0.0483  0.4903
 1263TIP3   OH225423   3.417   1.555   7.127  0.0081  0.1936  0.0158
 1263TIP3    H125424   3.360   1.621   7.167  0.3683  0.7871 -0.4315
 1263TIP3    H225425   3.426   1.583   7.036 -2.1623 -2.0566 -1.0082
 1264TIP3   OH225426   6.699   2.979   2.118 -0.0121 -0.0407  0.5572
 1264TIP3    H125427   6.670   2.972   2.209  1.3316 -1.8969  0.9094
 1264TIP3    H225428   6.778   3.033   2.121 -0.3930  0.5403  0.3604
 1265TIP3   OH225429   0.327   3.574   8.384  0.4308 -0.1334  0.1540
 1265TIP3    H125430   0.296   3.662   8.361 -0.4918 -0.0718  1.4976
 1265TIP3    H225431   0.410   3.590   8.429  0.8862 -0.0601 -0.6886
 1266TIP3   OH225432   5.990   5.297   7.460 -0.6451 -0.4151 -0.0203
 1266TIP3    H125433   5.904   5.338   7.466 -0.0907  0.7159  0.4836
 1266TIP3    H225434   6.002   5.281   7.366 -1.8485 -1.6243  0.0006
 1267TIP3   OH225435   4.510   0.561   0.194 -0.2411 -0.6814  0.4364
 1267TIP3    H125436   4.453   0.598   0.128  0.1220  2.5974  1.7850
 1267TIP3    H225437   4.453   0.541   0.268 -0.0493 -0.0743  0.7545
 1268TIP3   OH225438   6.220   4.162   2.139 -0.1397 -0.3579  0.8153
 1268TIP3    H125439   6.239   4.090   2.200  1.7193 -1.5361 -0.9886
 1268TIP3    H225440   6.298   4.218   2.144 -0.5505  0.2460  0.4983
 1269TIP3   OH225441   5.448   1.415   2.947 -0.3163  0.1451 -0.0571
 1269TIP3    H125442   5.480   1.492   2.900  0.8401 -1.1968 -1.5510
 1269TIP3    H225443   5.381   1.378   2.889  0.6101 -1.1267 -0.3325
 1270TIP3   OH225444   2.267   1.945   0.771  0.4495 -0.1780 -0.6330
 1270TIP3    H125445   2.235   1.986   0.690  0.5561 -0.0849 -0.6275
 1270TIP3    H225446   2.315   2.014   0.815  1.9440 -0.7240 -1.3430
 1271TIP3   OH225447   2.178   3.720   1.237  0.1069 -0.5125  0.0011
 1271TIP3    H125448   2.222   3.644   1.275  0.3214 -0.4014 -0.0247
 1271TIP3    H225449   2.205   3.794   1.291 -1.1664 -0.6450  0.8598
 1272TIP3   OH225450   5.327   4.789   2.077  0.2416 -0.6487  0.2127
 1272TIP3    H125451   5.320   4.731   2.153  2.0349 -1.2164  0.0011
 1272TIP3    H225452   5.375   4.865   2.109 -1.1555  0.2548  0.2193
 1273TIP3   OH225453   3.165   5.095   0.555  0.2100  0.2295  0.5807
 1273TIP3    H125454   3.205   5.009   0.540  0.8014  0.8281 -1.5160
 1273TIP3    H225455   3.109   5.082   0.632  0.2824 -2.0190  0.3101
 1274TIP3   OH225456   1.950   4.128   7.730  0.6376  0.1323  0.4416
 1274TIP3    H125457   1.910   4.169   7.653  2.0676  1.0393  0.1337
 1274TIP3    H225458   1.918   4.179   7.804 -0.4235 -0.4917  0.4401
 1275TIP3   OH225459   4.902   4.269   1.089 -0.0096  0.9492  0.3392
 1275TIP3    H125460   4.917   4.272   1.183  0.6346 -0.6438  0.3122
 1275TIP3    H225461   4.977   4.221   1.054 -0.5041  1.0546 -0.9175
 1276TIP3   OH225462   0.524   1.508   1.660 -0.5644 -0.4450  0.2090
 1276TIP3    H125463   0.524   1.414   1.642  2.0691 -0.4290 -0.2970
 1276TIP3    H225464   0.552   1.515   1.751  0.5285 -0.1474 -0.1358
 1277TIP3   OH225465   0.758   3.696   8.518 -0.1005 -0.3461  0.3100
 1277TIP3    H125466   0.802   3.681   8.434 -1.9774  1.3670 -1.0769
 1277TIP3    H225467   0.798   3.776   8.552 -0.4013 -0.1816  0.2794
 1278TIP3   OH225468   1.352   6.520   0.775 -0.2995  0.1353  0.1003
 1278TIP3    H125469   1.408   6.493   0.848  0.2544 -1.1702 -0.7652
 1278TIP3    H225470   1.283   6.453   0.772  1.4498 -1.7635 -2.4738
 1279TIP3   OH225471   0.894   4.598   0.116  0.1544  0.3832  0.6266
 1279TIP3    H125472   0.811   4.591   0.070  0.7755  1.6083 -0.7449
 1279TIP3    H225473   0.916   4.508   0.141 -1.2872 -0.0176  0.5245
 1280TIP3   OH225474   5.570   1.797   7.978  0.2432 -0.4531 -0.3713
 1280TIP3    H125475   5.661   1.809   8.007 -0.0134  2.2705 -0.4660
 1280TIP3    H225476   5.517   1.816   8.055 -0.2960 -0.5284 -0.7178
 1281TIP3   OH225477   6.024   2.917   2.724 -0.0448  0.3962  0.1920
 1281TIP3    H125478   6.062   2.850   2.781 -0.9213 -0.5966 -0.3556
 1281TIP3    H225479   5.962   2.964   2.780 -2.4555 -1.8964 -0.3157
 1282TIP3   OH225480   4.559   4.634   2.278  0.2451  0.2312  0.1908
 1282TIP3    H125481   4.586   4.543   2.268 -1.5323 -0.3561  0.4553
 1282TIP3    H225482   4.590   4.677   2.199  1.1831 -0.5668  0.1027
 1283TIP3   OH225483   2.602   4.568   7.706 -0.0065 -0.5318 -0.0257
 1283TIP3    H125484   2.647   4.536   7.784 -1.1986 -1.0837  0.4584
 1283TIP3    H225485   2.511   4.540   7.717 -0.3743  0.1073 -1.2169
 1284TIP3   OH225486   5.991   6.047   8.370  0.2052 -0.2088 -0.6734
 1284TIP3    H125487   5.939   6.049   8.450 -0.4964 -0.9336 -1.0908
 1284TIP3    H225488   5.927   6.060   8.300  0.6035 -0.9143 -1.1847
 1285TIP3   OH225489   2.339   1.402   7.876 -0.7336 -0.1110 -0.3743
 1285TIP3    H125490   2.381   1.488   7.878 -2.2983  0.6988 -0.9040
 1285TIP3    H225491   2.273   1.406   7.945  0.1982 -1.4630  0.6384
 1286TIP3   OH225492   0.157   6.311   1.707  0.1915  0.3993 -0.4818
 1286TIP3    H125493   0.203   6.284   1.627 -0.8398 -1.7027 -0.4425
 1286TIP3    H225494   0.122   6.230   1.743 -0.5250  1.4798  1.3990
 1287TIP3   OH225495   3.950   4.447   8.306  0.3187 -0.3137  0.2801
 1287TIP3    H125496   4.008   4.455   8.381  0.0590 -2.4831  0.7565
 1287TIP3    H225497   3.867   4.484   8.336  0.3797 -0.6483  0.8622
 1288TIP3   OH225498   1.282   6.615   8.780  0.3900  0.1265  0.5211
 1288TIP3    H125499   1.272   6.537   8.835 -2.2860 -0.2533 -0.3741
 1288TIP3    H225500   1.253   6.688   8.835  1.9211  0.4007  1.0148
 1289TIP3   OH225501   4.454   4.403   1.068  0.2774  0.1466 -0.0542
 1289TIP3    H125502   4.454   4.444   1.155 -1.9184  1.0234 -0.3885
 1289TIP3    H225503   4.517   4.455   1.018  0.7728  0.3120  0.7187
 1290TIP3   OH225504   3.247   2.199   0.782 -0.2229  0.4486 -0.0345
 1290TIP3    H125505   3.264   2.211   0.689  0.3067 -0.8929 -0.1390
 1290TIP3    H225506   3.153   2.214   0.792 -0.3831  0.0567 -0.8904
 1291TIP3   OH225507   1.635   1.306   7.153  0.2462  0.5317  0.1926
 1291TIP3    H125508   1.579   1.229   7.151  0.0591  0.6788 -0.4845
 1291TIP3    H225509   1.638   1.331   7.246 -1.2402  0.8424  0.1755
 1292TIP3   OH225510   0.341   1.727   1.687  0.0241 -0.4477  0.4573
 1292TIP3    H125511   0.392   1.648   1.669  1.8952  0.3703  1.8353
 1292TIP3    H225512   0.397   1.799   1.657 -0.8339  0.4527  0.9544
 1293TIP3   OH225513   3.872   3.116   2.887 -0.9546  0.4273  0.5722
 1293TIP3    H125514   3.839   3.187   2.832 -1.4153 -1.3179 -1.5356
 1293TIP3    H225515   3.813   3.043   2.871  0.8947 -1.1986  0.7281
 1294TIP3   OH225516   6.230   4.638   2.777 -0.5159 -0.4688 -0.0683
 1294TIP3    H125517   6.143   4.630   2.738 -0.1649 -0.8789 -0.7746
 1294TIP3    H225518   6.278   4.562   2.745 -0.1500 -0.7058  1.0104
 1295TIP3   OH225519   4.114   6.659   6.781 -0.1191 -0.4300  0.1416
 1295TIP3    H125520   4.025   6.661   6.747 -0.3826 -1.6345  0.7145
 1295TIP3    H225521   4.167   6.696   6.710 -1.1951  1.5371  0.2824
 1296TIP3   OH225522   6.270   0.242   7.733 -0.1702  0.0628 -0.0709
 1296TIP3    H125523   6.264   0.326   7.687  1.2181 -0.7423 -1.8782
 1296TIP3    H225524   6.364   0.223   7.736 -0.4361 -1.2567  0.6111
 1297TIP3   OH225525   5.568   6.012   7.486 -0.9886 -1.1654 -0.2516
 1297TIP3    H125526   5.561   6.013   7.390 -0.1473 -1.7266 -0.3312
 1297TIP3    H225527   5.486   6.050   7.516 -0.9522 -0.2477 -1.2153
 1298TIP3   OH225528   6.254   6.188   0.357  0.1476 -0.4621  0.1539
 1298TIP3    H125529   6.178   6.132   0.341  0.9419 -2.4356  2.6415
 1298TIP3    H225530   6.276   6.173   0.449  3.2297  0.4456 -0.3207
 1299TIP3   OH225531   0.201   6.316   1.026  0.6259  0.2462  0.1637
 1299TIP3    H125532   0.165   6.387   0.972  1.5288  0.3314 -0.3498
 1299TIP3    H225533   0.270   6.278   0.972  0.1033 -1.0838  0.4068
 1300TIP3   OH225534   1.016   0.804   2.162 -0.1011  0.1473 -0.5048
 1300TIP3    H125535   1.077   0.804   2.236 -0.9688  1.3294  0.2566
 1300TIP3    H225536   1.040   0.881   2.111  0.0981 -0.3215 -1.1229
 1301TIP3   OH225537   6.826   3.490   8.120  0.2168  0.2903 -0.3040
 1301TIP3    H125538   6.863   3.409   8.086 -1.2561 -0.9779  0.9613
 1301TIP3    H225539   6.824   3.549   8.045  0.3190 -1.2138 -1.5400
 1302TIP3   OH225540   4.767   5.675   1.355 -0.0497 -0.1761 -0.0949
 1302TIP3    H125541   4.746   5.584   1.335 -1.8969  0.1968 -0.0002
 1302TIP3    H225542   4.856   5.687   1.322 -0.1982 -1.6941 -1.1349
 1303TIP3   OH225543   1.025   3.723   8.018 -0.0386  0.3576  0.6417
 1303TIP3    H125544   1.027   3.637   7.977 -1.3847  0.0603  1.1331
 1303TIP3    H225545   1.085   3.776   7.966  0.8069 -0.8660  0.3239
 1304TIP3   OH225546   4.773   5.878   8.680 -0.2874  0.1791  0.1346
 1304TIP3    H125547   4.700   5.890   8.618 -0.0799  1.5702  0.1317
 1304TIP3    H225548   4.842   5.935   8.647  0.7115 -0.8896  0.3218
 1305TIP3   OH225549   2.746   2.960   7.247  0.2680  0.1846 -0.1867
 1305TIP3    H125550   2.713   3.039   7.204  0.5673 -0.2095 -1.1697
 1305TIP3    H225551   2.832   2.984   7.281 -0.0044  0.5235  0.2723
 1306TIP3   OH225552   1.360   4.520   8.773 -0.0201 -0.4064  0.9327
 1306TIP3    H125553   1.431   4.582   8.758  2.0156 -2.6605  0.6299
 1306TIP3    H225554   1.287   4.555   8.722  1.3377  1.2096 -0.0092
 1307TIP3   OH225555   4.592   4.909   7.174  0.2749  0.1999 -0.0490
 1307TIP3    H125556   4.616   4.819   7.194 -0.9152  0.0619  0.8761
 1307TIP3    H225557   4.675   4.953   7.157  0.9043 -0.9562 -0.0553
 1308TIP3   OH225558   1.229   3.183   7.960 -0.4421  0.2932  0.0949
 1308TIP3    H125559   1.226   3.253   8.026 -0.1121 -0.9132  1.4337
 1308TIP3    H225560   1.243   3.229   7.877 -1.1656  1.8778  0.8086
 1309TIP3   OH225561   0.669   6.756   2.578 -0.5665 -0.2598 -0.3127
 1309TIP3    H125562   0.726   6.833   2.571 -1.5269  0.4718 -0.1736
 1309TIP3    H225563   0.713   6.689   2.526  0.6357  0.1611  0.1164
 1310TIP3   OH225564   6.768   1.238   2.005  0.2022  0.6204 -0.9150
 1310TIP3    H125565   6.711   1.192   2.067  0.7495  0.1684 -0.7470
 1310TIP3    H225566   6.765   1.329   2.033 -0.3158  0.5743 -0.8119
 1311TIP3   OH225567   0.364   4.079   7.119  0.5647  0.0356 -0.1249
 1311TIP3    H125568   0.422   4.008   7.147 -0.2857  0.0343  1.8051
 1311TIP3    H225569   0.424   4.152   7.099  1.3255 -0.4896  0.1884
 1312TIP3   OH225570   1.891   0.811   0.889 -0.0010 -0.2305 -0.1301
 1312TIP3    H125571   1.845   0.834   0.970 -0.0137  0.1140 -0.2323
 1312TIP3    H225572   1.950   0.885   0.874  0.7201 -0.7606  0.1007
 1313TIP3   OH225573   3.219   6.232   2.144 -0.8125 -0.5780  0.7444
 1313TIP3    H125574   3.170   6.185   2.212  0.0103 -2.3172  0.1922
 1313TIP3    H225575   3.301   6.256   2.187 -0.0319 -2.2220  0.2400
 1314TIP3   OH225576   5.639   4.445   2.237 -0.4475  0.0871 -0.1857
 1314TIP3    H125577   5.618   4.504   2.309  1.3052  0.1844  0.2999
 1314TIP3    H225578   5.721   4.478   2.201 -0.3346 -1.0328 -1.0347
 1315TIP3   OH225579   2.742   6.435   7.497 -0.2802 -0.6993  0.3445
 1315TIP3    H125580   2.795   6.487   7.557 -0.9794  1.3665 -0.7597
 1315TIP3    H225581   2.805   6.403   7.431  0.0920 -1.0120  0.8401
 1316TIP3   OH225582   3.867   6.077   1.501 -0.6415  0.6851  0.2269
 1316TIP3    H125583   3.858   6.158   1.550  0.9287  0.8790  0.2318
 1316TIP3    H225584   3.874   6.009   1.567  2.6456  1.0666  0.3931
 1317TIP3   OH225585   0.051   4.127   0.961  0.1676  0.5855  0.1858
 1317TIP3    H125586  -0.006   4.168   1.025  0.7651  3.0548 -0.7627
 1317TIP3    H225587   0.106   4.068   1.012 -0.2501  1.5066  1.7528
 1318TIP3   OH225588   5.791   1.653   8.737 -0.3938  0.1123  0.4755
 1318TIP3    H125589   5.722   1.666   8.672 -1.2150  4.4760  1.9016
 1318TIP3    H225590   5.847   1.730   8.729  1.3918 -0.8057  2.7729
 1319TIP3   OH225591   0.436   6.781   1.654  0.3030  0.4297 -0.0441
 1319TIP3    H125592   0.439   6.701   1.602 -0.4328 -0.3674  1.0796
 1319TIP3    H225593   0.366   6.765   1.718  1.7590  0.9804  1.7868
 1320TIP3   OH225594   5.374   2.862   1.613  0.2512  0.3861 -0.2471
 1320TIP3    H125595   5.409   2.927   1.674  0.1710  0.8639 -0.7144
 1320TIP3    H225596   5.279   2.875   1.616  0.2539  0.4788 -0.5535
 1321TIP3   OH225597   2.549   2.644   8.665  0.8760 -0.1109  0.1395
 1321TIP3    H125598   2.598   2.647   8.748 -0.2760  0.3773  0.8340
 1321TIP3    H225599   2.613   2.618   8.600  1.5246 -1.9840  1.4267
 1322TIP3   OH225600   3.004   2.863   7.812  0.0049 -0.7520  0.2634
 1322TIP3    H125601   2.979   2.893   7.899 -0.4524 -0.7680  0.1371
 1322TIP3    H225602   2.949   2.914   7.752  1.5062  0.5293 -0.1061
 1323TIP3   OH225603   0.405   1.277   2.699 -0.1376 -0.3327 -0.8388
 1323TIP3    H125604   0.499   1.286   2.715  0.2616 -3.5446 -0.6802
 1323TIP3    H225605   0.399   1.228   2.618 -1.7166  0.0949 -1.0144
 1324TIP3   OH225606   0.450   2.111   8.217  0.2656  0.1337 -0.2625
 1324TIP3    H125607   0.453   2.020   8.188 -0.4570 -1.2017  3.2808
 1324TIP3    H225608   0.541   2.141   8.209  0.5579 -0.9561 -1.3242
 1325TIP3   OH225609   5.678   6.052   0.138  0.4722 -0.2257  0.2113
 1325TIP3    H125610   5.665   6.061   0.232  2.3930 -0.1406  0.5118
 1325TIP3    H225611   5.623   6.120   0.099 -0.1017 -0.0608  1.2747
 1326TIP3   OH225612   5.585   6.743   7.807 -0.0427  0.1229  0.9609
 1326TIP3    H125613   5.676   6.749   7.780  0.1296  1.2912  1.7112
 1326TIP3    H225614   5.541   6.697   7.735  1.2720 -1.2023  0.9705
 1327TIP3   OH225615   5.859   2.821   0.155 -0.1988 -0.4230 -0.0426
 1327TIP3    H125616   5.913   2.896   0.131  1.7975 -1.5498  0.7464
 1327TIP3    H225617   5.846   2.773   0.073 -0.4038  0.0887 -0.3154
 1328TIP3   OH225618   2.725   2.078   8.314 -0.4125  0.2431  0.3237
 1328TIP3    H125619   2.702   2.023   8.239 -0.7134 -0.3414  0.8429
 1328TIP3    H225620   2.709   2.023   8.390  1.5447  0.2165  0.7726
 1329TIP3   OH225621   6.246   1.171   2.266 -0.1072  0.2323  0.4898
 1329TIP3    H125622   6.241   1.194   2.173 -2.2097 -0.2009  0.4415
 1329TIP3    H225623   6.290   1.245   2.307 -3.7054  2.9416 -0.1207
 1330TIP3   OH225624   1.882   4.325   6.705  0.1978  0.0986  0.5461
 1330TIP3    H125625   1.841   4.404   6.670  0.7547  0.4526  0.6754
 1330TIP3    H225626   1.815   4.286   6.761  0.2742  1.0530  1.3314
 1331TIP3   OH225627   4.963   0.952   0.895 -0.2308 -0.0334 -0.3814
 1331TIP3    H125628   4.994   0.966   0.985 -0.1868  1.0970 -0.5635
 1331TIP3    H225629   5.037   0.978   0.840 -0.5867  0.1635 -0.7700
 1332TIP3   OH225630   0.358   0.334   8.453  0.1381  0.4678 -0.0740
 1332TIP3    H125631   0.450   0.357   8.458  0.5897 -1.5515  2.3699
 1332TIP3    H225632   0.350   0.284   8.372  1.3180  0.1139  0.0179
 1333TIP3   OH225633   1.799   4.695   0.733 -0.2692 -0.5329 -0.1190
 1333TIP3    H125634   1.777   4.735   0.817  0.4354  0.0712 -0.2140
 1333TIP3    H225635   1.786   4.601   0.747  0.5130 -0.5087  0.8871
 1334TIP3   OH225636   1.571   0.935   1.855  0.4432 -0.1436 -0.1643
 1334TIP3    H125637   1.653   0.903   1.893 -0.1266 -1.2897  0.1602
 1334TIP3    H225638   1.515   0.857   1.851 -0.5068  0.5490 -0.7074
 1335TIP3   OH225639   1.340   0.407   8.256 -0.4204 -0.4984  0.0046
 1335TIP3    H125640   1.248   0.395   8.236 -0.3072  0.8338 -1.5360
 1335TIP3    H225641   1.341   0.460   8.336 -0.9362 -1.9083  0.9853
 1336TIP3   OH225642   6.170   5.069   7.099  0.0729  0.3618  0.5348
 1336TIP3    H125643   6.166   5.154   7.142  2.4919  1.3366 -0.9712
 1336TIP3    H225644   6.171   5.005   7.170  0.7379  1.7335  1.7960
 1337TIP3   OH225645   5.200   2.436   2.584 -0.1572  0.3828  0.2726
 1337TIP3    H125646   5.180   2.511   2.527 -0.5275 -0.0348 -0.1547
 1337TIP3    H225647   5.290   2.449   2.611  0.2996  0.1547 -1.0801
 1338TIP3   OH225648   0.847   4.996   8.674  0.8159  0.0653  0.5706
 1338TIP3    H125649   0.799   4.916   8.695 -1.9835  0.6734 -2.5616
 1338TIP3    H225650   0.801   5.065   8.723 -0.1062  0.3422 -0.6338
 1339TIP3   OH225651   1.546   6.425   0.925  0.5421 -0.3153  0.2843
 1339TIP3    H125652   1.570   6.492   0.988 -1.4641  0.6676  0.0753
 1339TIP3    H225653   1.628   6.405   0.879  1.2864  1.6231  0.6789
 1340TIP3   OH225654   1.257   0.218   1.351 -0.1172  0.1278  0.3080
 1340TIP3    H125655   1.279   0.258   1.266  0.4412  1.9843  1.2749
 1340TIP3    H225656   1.330   0.160   1.370 -0.6813 -1.0390 -0.8701
 1341TIP3   OH225657   5.624   2.624   1.764  0.1843 -0.1381  0.1356
 1341TIP3    H125658   5.561   2.673   1.817 -0.5833 -1.4183  0.4446
 1341TIP3    H225659   5.653   2.553   1.821  2.0005  0.4572  0.0298
 1342TIP3   OH225660   5.356   4.263   0.955 -0.4391  0.0081  0.7563
 1342TIP3    H125661   5.381   4.304   0.872  1.5758 -1.8736  0.3356
 1342TIP3    H225662   5.382   4.326   1.022 -0.7734  0.9493  0.0171
 1343TIP3   OH225663   0.324   5.323   1.411 -0.3838 -0.6924  0.6819
 1343TIP3    H125664   0.369   5.276   1.481  0.0980 -2.3567 -0.6701
 1343TIP3    H225665   0.395   5.363   1.361 -0.7753  1.3111  1.6418
 1344TIP3   OH225666   1.881   3.324   7.869  0.7258  0.0570 -0.5043
 1344TIP3    H125667   1.923   3.314   7.783  1.7352 -1.3529  0.1071
 1344TIP3    H225668   1.843   3.238   7.887 -2.0506  1.1191 -0.7635
 1345TIP3   OH225669   0.658   4.975   7.886 -0.3363  0.3419  0.6848
 1345TIP3    H125670   0.625   5.064   7.868 -0.6747  0.7355  2.9073
 1345TIP3    H225671   0.692   4.980   7.975 -2.4291 -2.2991  1.7608
 1346TIP3   OH225672   1.556   3.424   7.100 -0.9141 -0.3780 -0.4905
 1346TIP3    H125673   1.560   3.344   7.047 -0.3673 -0.0322 -0.9933
 1346TIP3    H225674   1.645   3.435   7.134 -1.1189 -0.2747  0.0195
 1347TIP3   OH225675   1.508   0.249   0.626 -0.1663 -0.2037 -0.1953
 1347TIP3    H125676   1.494   0.168   0.674 -1.1647  0.7193  1.1345
 1347TIP3    H225677   1.462   0.316   0.677 -0.0187  1.0766 -1.6638
 1348TIP3   OH225678   1.349   2.912   8.048 -0.0666  0.6824  0.0910
 1348TIP3    H125679   1.348   2.876   7.960 -1.8085  0.7281  0.0592
 1348TIP3    H225680   1.306   2.997   8.040  1.6650  1.6685  0.6267
 1349TIP3   OH225681   4.806   2.717   7.456 -0.1603 -0.5358 -0.3841
 1349TIP3    H125682   4.785   2.645   7.517  0.1025 -0.8521 -0.6633
 1349TIP3    H225683   4.857   2.675   7.387  0.8764  0.1096 -0.0284
 1350TIP3   OH225684   3.710   3.528   0.048  0.2137  0.0341 -0.6592
 1350TIP3    H125685   3.618   3.508   0.062  0.1155 -0.5635 -2.0708
 1350TIP3    H225686   3.733   3.586   0.121 -1.7609  1.6952 -1.2643
 1351TIP3   OH225687   1.151   0.224   0.780 -0.0718 -0.4579 -0.0157
 1351TIP3    H125688   1.160   0.240   0.874 -0.5363 -0.5202  0.0421
 1351TIP3    H225689   1.129   0.132   0.773  3.6091 -1.4603 -0.4112
 1352TIP3   OH225690   5.164   4.881   7.459 -0.2564 -0.5349 -0.4515
 1352TIP3    H125691   5.191   4.842   7.542 -3.0580 -0.5372  0.5729
 1352TIP3    H225692   5.163   4.809   7.397 -1.5396 -1.3260  0.4421
 1353TIP3   OH225693   0.806   5.427   1.040 -0.3119 -0.1311 -0.1642
 1353TIP3    H125694   0.806   5.350   0.983  0.2008 -0.5333  0.3613
 1353TIP3    H225695   0.828   5.500   0.982  0.5824 -0.5876 -0.4126
 1354TIP3   OH225696   3.015   1.789   0.140 -0.0595 -0.1947  0.0354
 1354TIP3    H125697   3.076   1.861   0.154 -1.9287  1.5088 -0.0969
 1354TIP3    H225698   2.988   1.763   0.228 -1.8126  1.5326  0.0741
 1355TIP3   OH225699   0.757   1.533   8.539 -0.7328  0.9769  0.2045
 1355TIP3    H125700   0.833   1.568   8.492 -0.3892  3.1735  2.2263
 1355TIP3    H225701   0.690   1.600   8.528 -1.2919  0.5945  1.1869
 1356TIP3   OH225702   3.053   6.159   2.359  0.4806 -0.1143  0.3656
 1356TIP3    H125703   3.092   6.224   2.418  0.7001  0.7947 -0.7481
 1356TIP3    H225704   2.966   6.142   2.396  0.6202  0.4272  0.9547
 1357TIP3   OH225705   3.946   0.790   1.898 -0.2455 -0.0003  0.0149
 1357TIP3    H125706   4.035   0.771   1.870 -0.5703 -0.0247 -1.0621
 1357TIP3    H225707   3.956   0.836   1.981  0.8797  1.7343 -1.0043
 1358TIP3   OH225708   5.641   6.259   7.812  0.1073 -0.2420 -0.1121
 1358TIP3    H125709   5.706   6.190   7.800 -0.0090 -0.6619  1.3819
 1358TIP3    H225710   5.691   6.336   7.837  0.2709  0.3730 -2.1507
 1359TIP3   OH225711   4.781   0.854   2.734  0.2839 -0.0448 -0.2812
 1359TIP3    H125712   4.791   0.949   2.727  1.8635 -0.2700 -1.7655
 1359TIP3    H225713   4.869   0.822   2.754 -0.4185 -1.1409  1.2124
 1360TIP3   OH225714   0.864   0.479   7.506  0.1607 -0.2601 -0.0334
 1360TIP3    H125715   0.836   0.457   7.595  1.2266 -0.0131  0.3796
 1360TIP3    H225716   0.878   0.394   7.464 -0.8155 -0.3800 -0.1287
 1361TIP3   OH225717   0.025   0.528   2.323  0.2517  0.3249  0.2646
 1361TIP3    H125718   0.111   0.499   2.354  0.4040  0.8009  0.2992
 1361TIP3    H225719  -0.031   0.523   2.401 -0.6131 -3.0801 -0.4021
 1362TIP3   OH225720   5.157   2.695   7.337  0.7328 -0.3458 -0.5237
 1362TIP3    H125721   5.097   2.620   7.334  0.5433 -0.2614  0.6341
 1362TIP3    H225722   5.244   2.657   7.322  0.9340 -1.1865  2.2160
 1363TIP3   OH225723   6.314   0.994   8.425 -0.1658  0.4438 -0.1694
 1363TIP3    H125724   6.359   0.910   8.417 -1.2286 -0.1125 -0.4389
 1363TIP3    H225725   6.330   1.021   8.516 -1.3503 -0.9652  0.5013
 1364TIP3   OH225726   3.785   1.470   2.508 -0.0512  0.2573 -0.5532
 1364TIP3    H125727   3.770   1.427   2.424 -0.1614  0.2921 -0.5512
 1364TIP3    H225728   3.707   1.451   2.560 -0.0611  0.3839 -0.5213
 1365TIP3   OH225729   4.137   3.100   1.279 -0.2500 -0.3951 -0.4282
 1365TIP3    H125730   4.182   3.036   1.334 -1.0419 -1.5094 -1.0612
 1365TIP3    H225731   4.052   3.112   1.321 -1.1660 -1.8410 -1.7913
 1366TIP3   OH225732   6.829   4.205   0.261 -0.7287 -0.0626  0.1774
 1366TIP3    H125733   6.848   4.240   0.174 -1.7316  2.0305  0.7401
 1366TIP3    H225734   6.838   4.280   0.320 -0.6989 -1.2817  1.8198
 1367TIP3   OH225735   3.633   1.765   8.062 -0.9822  0.2280 -0.5720
 1367TIP3    H125736   3.633   1.855   8.094 -0.6426 -0.2101  0.7333
 1367TIP3    H225737   3.667   1.714   8.135 -0.4376 -0.8758 -1.5575
 1368TIP3   OH225738   3.398   2.554   8.779  0.1283 -0.0219 -0.1112
 1368TIP3    H125739   3.305   2.539   8.799 -0.1528  0.2164 -1.1821
 1368TIP3    H225740   3.437   2.575   8.863 -1.3498  2.6969 -0.0091
 1369TIP3   OH225741   2.979   3.459   0.350 -0.2453  0.2821  0.1723
 1369TIP3    H125742   3.060   3.409   0.359  0.3919  0.6329 -2.7317
 1369TIP3    H225743   2.911   3.392   0.346  0.1435 -0.1302  0.2761
 1370TIP3   OH225744   0.877   1.614   1.456  0.5377 -0.6378 -0.3176
 1370TIP3    H125745   0.933   1.597   1.381  0.8009 -0.8905 -0.0650
 1370TIP3    H225746   0.791   1.633   1.418  1.2617  1.9621 -0.8559
 1371TIP3   OH225747   0.753   6.765   0.191 -0.1624 -0.4640 -0.0107
 1371TIP3    H125748   0.717   6.800   0.110  0.0186  0.4987  0.3200
 1371TIP3    H225749   0.829   6.819   0.210  0.0962 -1.0033  0.5427
 1372TIP3   OH225750   2.884   2.503   0.391 -0.0676  0.5276  0.3721
 1372TIP3    H125751   2.796   2.478   0.420 -0.0099  0.7164  0.7216
 1372TIP3    H225752   2.883   2.490   0.296 -0.8794  1.7444  0.1916
 1373TIP3   OH225753   1.772   4.389   0.536 -0.0940 -0.0373  0.2826
 1373TIP3    H125754   1.699   4.431   0.491  1.0647  0.7118 -0.9651
 1373TIP3    H225755   1.772   4.299   0.503 -1.0251 -0.3372  1.0391
 1374TIP3   OH225756   0.019   2.688   0.847 -0.7676 -0.1415  0.8596
 1374TIP3    H125757   0.112   2.687   0.870 -0.8969 -0.9628  1.3848
 1374TIP3    H225758  -0.026   2.694   0.932 -1.2325 -2.1610  0.8057
 1375TIP3   OH225759   1.211   0.943   1.989 -0.1685  0.5857 -0.7459
 1375TIP3    H125760   1.262   1.022   2.002 -0.8000  0.7310  1.1072
 1375TIP3    H225761   1.236   0.912   1.902  1.8881  1.4834 -0.5202
 1376TIP3   OH225762   1.684   2.321   7.477  0.2657  0.3356 -0.0424
 1376TIP3    H125763   1.607   2.265   7.486 -0.0141  0.7401  0.1050
 1376TIP3    H225764   1.654   2.393   7.422  0.7045  0.1953 -0.4685
 1377TIP3   OH225765   0.644   5.927   7.567  0.8235  0.3428 -0.2392
 1377TIP3    H125766   0.652   5.992   7.497 -0.2272 -1.5095 -2.2078
 1377TIP3    H225767   0.734   5.902   7.587  1.2147  1.9601  0.1587
 1378TIP3   OH225768   0.525   0.649   8.812  0.0776 -0.3372  0.1067
 1378TIP3    H125769   0.439   0.681   8.785 -0.1104 -1.7241 -1.1056
 1378TIP3    H225770   0.530   0.668   8.905 -0.6428  1.7040 -0.2146
 1379TIP3   OH225771   4.063   6.130   7.205  0.6765 -0.3270 -0.5884
 1379TIP3    H125772   4.003   6.205   7.195  0.7930  0.0110  0.9412
 1379TIP3    H225773   4.006   6.058   7.230  0.7574 -0.3309 -0.4156
 1380TIP3   OH225774   2.768   6.219   2.355 -0.3027  1.1885 -0.4031
 1380TIP3    H125775   2.706   6.161   2.399 -0.6017  3.5426  2.6308
 1380TIP3    H225776   2.718   6.260   2.285 -0.6148 -0.6696 -1.3267
 1381TIP3   OH225777   5.241   1.334   2.478  0.1735  0.2615 -0.1223
 1381TIP3    H125778   5.147   1.345   2.468  0.2276  0.4216 -0.4560
 1381TIP3    H225779   5.268   1.286   2.399  0.1763 -0.9055  0.5580
 1382TIP3   OH225780   4.042   0.561   7.699 -0.3972  0.0207  0.2225
 1382TIP3    H125781   4.003   0.487   7.745 -0.5498  0.3890  0.6947
 1382TIP3    H225782   3.991   0.570   7.619  1.2298 -2.0076 -1.1508
 1383TIP3   OH225783   3.617   2.493   2.607  0.5477  0.3742 -0.0252
 1383TIP3    H125784   3.598   2.403   2.581 -1.5362  0.8392 -0.2979
 1383TIP3    H225785   3.624   2.489   2.703  0.5222 -0.0773 -0.0401
 1384TIP3   OH225786   2.629   2.048   1.115  0.5690 -0.4636 -0.4305
 1384TIP3    H125787   2.697   1.984   1.092  1.3351  0.8257 -1.9577
 1384TIP3    H225788   2.635   2.115   1.047 -0.6195  0.9353  0.7672
 1385TIP3   OH225789   2.050   2.818   0.394  0.5498 -0.1330 -0.7839
 1385TIP3    H125790   1.994   2.788   0.466  0.7940  1.8861  0.3189
 1385TIP3    H225791   2.008   2.783   0.315 -1.3777 -0.0260  0.1285
 1386TIP3   OH225792   2.647   6.161   0.687  0.7764 -0.5342  1.0003
 1386TIP3    H125793   2.586   6.211   0.741 -0.3107 -1.2432  0.4568
 1386TIP3    H225794   2.641   6.202   0.601  1.2153 -0.4947  0.9869
 1387TIP3   OH225795   0.947   6.717   7.375  0.1227  0.6029  0.2955
 1387TIP3    H125796   0.885   6.643   7.380  0.3308  0.4239  0.2340
 1387TIP3    H225797   0.900   6.783   7.324 -0.0161  0.4618  0.2369
 1388TIP3   OH225798   1.354   3.818   1.741 -0.7248  0.0457  0.9096
 1388TIP3    H125799   1.332   3.902   1.700 -1.3300 -0.0774  0.9617
 1388TIP3    H225800   1.331   3.831   1.834  0.2990  0.2070  1.1468
 1389TIP3   OH225801   4.251   6.133   0.162 -0.4988 -0.1577  0.5392
 1389TIP3    H125802   4.316   6.066   0.142  0.5213  0.8683  0.3472
 1389TIP3    H225803   4.192   6.131   0.086  0.0429 -0.2135  0.1159
 1390TIP3   OH225804   5.138   6.477   0.004 -0.5737  0.2559  0.0342
 1390TIP3    H125805   5.088   6.447  -0.072 -1.4088  0.5071  0.4795
 1390TIP3    H225806   5.092   6.554   0.035  0.4813  0.8980  0.0551
 1391TIP3   OH225807   5.650   4.559   7.599  0.4832 -0.1202 -0.0681
 1391TIP3    H125808   5.589   4.508   7.652 -0.1962  0.2172 -0.5070
 1391TIP3    H225809   5.737   4.526   7.622  0.0937 -1.0024  0.1460
 1392TIP3   OH225810   1.311   0.377   1.871  0.4333 -0.3174  0.1985
 1392TIP3    H125811   1.253   0.453   1.869  0.8554  0.1028  1.8870
 1392TIP3    H225812   1.283   0.323   1.798 -1.0654  0.6096  0.0524
 1393TIP3   OH225813   4.150   4.922   0.767 -0.6444 -0.4112 -0.0565
 1393TIP3    H125814   4.196   4.842   0.793  2.0213  0.5853 -1.3675
 1393TIP3    H225815   4.063   4.891   0.739 -0.3410 -2.5732  1.1623
 1394TIP3   OH225816   3.419   0.648   7.663  0.1798 -0.2540 -0.1240
 1394TIP3    H125817   3.350   0.713   7.651 -0.0051 -0.5913 -0.9345
 1394TIP3    H225818   3.501   0.698   7.655  0.0794 -0.3555 -2.4928
 1395TIP3   OH225819   5.327   4.084   2.175 -0.6729 -0.7586  0.3233
 1395TIP3    H125820   5.332   4.061   2.082 -0.5359 -0.7916  0.3391
 1395TIP3    H225821   5.265   4.021   2.212  0.3634 -1.6826  0.5477
 1396TIP3   OH225822   1.117   0.336   8.127 -0.1664 -0.8827 -0.2619
 1396TIP3    H125823   1.141   0.243   8.122  1.6252 -0.3942 -1.8795
 1396TIP3    H225824   1.087   0.358   8.039  0.0106  0.2233 -0.0592
 1397TIP3   OH225825   1.534   1.710   2.478 -0.2495  0.2754 -0.1227
 1397TIP3    H125826   1.599   1.640   2.484 -0.0065  0.5867  1.5213
 1397TIP3    H225827   1.585   1.790   2.466 -0.2884  0.5077  1.0690
 1398TIP3   OH225828   4.662   0.186   8.024  0.4144  0.4149  0.5176
 1398TIP3    H125829   4.702   0.122   7.965 -1.1873 -0.1346 -0.0281
 1398TIP3    H225830   4.617   0.133   8.090 -1.3928  0.9297 -0.2471
 1399TIP3   OH225831   1.822   6.569   1.724  0.3070 -0.4344 -0.0645
 1399TIP3    H125832   1.773   6.541   1.647 -1.0737 -0.4519  0.7742
 1399TIP3    H225833   1.791   6.658   1.741  1.8186  0.1989 -0.4654
 1400TIP3   OH225834   5.968   0.211   2.165 -1.0682 -0.4521 -0.4240
 1400TIP3    H125835   6.010   0.282   2.117 -1.4879 -0.7957 -1.3258
 1400TIP3    H225836   5.984   0.133   2.112 -1.2074 -0.9196  0.2015
 1401TIP3   OH225837   5.719   5.673   1.591  0.6019 -0.6019  0.1621
 1401TIP3    H125838   5.677   5.740   1.537  2.1068  2.3264  2.3456
 1401TIP3    H225839   5.808   5.665   1.555  0.5366 -1.1996  0.1254
 1402TIP3   OH225840   4.556   2.073   7.713 -0.0327 -0.2675 -0.0634
 1402TIP3    H125841   4.624   2.070   7.781  0.0800 -0.3667 -0.1798
 1402TIP3    H225842   4.583   2.006   7.650  0.9964  1.1942 -1.2562
 1403TIP3   OH225843   4.850   2.663   8.185 -0.8508 -0.5778  0.0688
 1403TIP3    H125844   4.884   2.677   8.273 -0.5592 -1.3498  0.0829
 1403TIP3    H225845   4.910   2.711   8.128  0.1269 -1.7006  0.1173
 1404TIP3   OH225846   1.881   2.727   0.791  0.1569 -0.2066  0.3665
 1404TIP3    H125847   1.883   2.724   0.695 -1.1151 -3.3690  0.3125
 1404TIP3    H225848   1.966   2.694   0.818  0.0016 -0.6740  0.2910
 1405TIP3   OH225849   4.763   0.461   7.285 -0.3088  0.9157 -0.0071
 1405TIP3    H125850   4.731   0.371   7.291 -0.4822  1.0653  2.1940
 1405TIP3    H225851   4.686   0.515   7.298  0.0471  1.3524  0.3162
 1406TIP3   OH225852   0.006   0.414   8.798 -0.1926 -0.2755  0.4002
 1406TIP3    H125853   0.098   0.415   8.770 -0.0513  0.7038  0.8419
 1406TIP3    H225854  -0.038   0.472   8.736  0.1784  2.1621  2.2726
 1407TIP3   OH225855   4.728   5.744   1.000  0.0725 -0.1162 -0.6058
 1407TIP3    H125856   4.691   5.690   1.070 -0.8657  0.8461 -0.3447
 1407TIP3    H225857   4.774   5.814   1.045 -0.5464  0.5147 -0.9429
 1408TIP3   OH225858   2.005   2.012   8.645 -0.5019  0.7262  0.4203
 1408TIP3    H125859   2.075   2.040   8.585 -1.3565  0.4038 -0.7808
 1408TIP3    H225860   2.020   1.919   8.659 -0.7723  0.6204  0.0288
 1409TIP3   OH225861   6.471   0.325   8.828  0.2838  0.0936  0.1903
 1409TIP3    H125862   6.479   0.338   8.923  0.3759  2.7366 -0.0970
 1409TIP3    H225863   6.380   0.347   8.808 -0.3540 -2.5369 -0.1253
 1410TIP3   OH225864   6.618   2.351   6.814 -0.2122  0.4728  0.3811
 1410TIP3    H125865   6.545   2.398   6.775 -1.2331 -0.3374  1.2476
 1410TIP3    H225866   6.696   2.392   6.777 -1.0335  2.7373  1.0009
 1411TIP3   OH225867   1.704   2.023   8.503  0.2373  0.1548  0.2079
 1411TIP3    H125868   1.795   2.004   8.525  0.1626 -1.2502 -0.6160
 1411TIP3    H225869   1.653   1.985   8.575  0.2212 -0.5048 -0.1497
 1412TIP3   OH225870   2.875   2.820   8.526  0.3494 -0.1799  0.1676
 1412TIP3    H125871   2.803   2.816   8.463 -0.5350 -1.1903  1.1964
 1412TIP3    H225872   2.925   2.740   8.510  0.5233 -0.0942  0.2815
 1413TIP3   OH225873   0.985   5.373   8.716  0.1988  0.4584  0.6399
 1413TIP3    H125874   0.931   5.334   8.785  1.5291  1.1682  2.1337
 1413TIP3    H225875   0.993   5.465   8.741 -0.1970  0.9908 -1.0867
 1414TIP3   OH225876   5.510   5.554   0.748  0.1171  0.0102 -0.5160
 1414TIP3    H125877   5.414   5.551   0.739  0.1121 -1.7523 -0.2962
 1414TIP3    H225878   5.542   5.551   0.658 -0.0617 -3.2998 -0.5979
 1415TIP3   OH225879   5.678   5.245   0.954 -0.3155  0.2760 -0.8217
 1415TIP3    H125880   5.633   5.166   0.924  0.6140 -0.2798 -0.7736
 1415TIP3    H225881   5.760   5.246   0.904  0.1665  0.6181 -0.0283
 1416TIP3   OH225882   2.634   2.640   2.060  0.1710 -0.1678  0.1448
 1416TIP3    H125883   2.643   2.627   2.155 -1.4764  0.2048  0.3699
 1416TIP3    H225884   2.679   2.723   2.044  1.5141 -0.8217  0.3842
 1417TIP3   OH225885   4.610   0.346   2.125 -0.1202 -0.0684  0.5345
 1417TIP3    H125886   4.635   0.358   2.217  1.5596 -0.8625  0.2160
 1417TIP3    H225887   4.549   0.272   2.126 -0.2276  0.0228  1.0162
 1418TIP3   OH225888   0.720   5.347   0.656  0.3199 -0.1672 -0.0929
 1418TIP3    H125889   0.787   5.332   0.589  1.4696  0.5091  0.8703
 1418TIP3    H225890   0.747   5.293   0.730 -0.9226 -0.8784 -0.1132
 1419TIP3   OH225891   1.414   2.473   1.054 -0.2767 -0.5644  0.1378
 1419TIP3    H125892   1.505   2.457   1.031  0.5923 -0.9452  3.3920
 1419TIP3    H225893   1.409   2.567   1.071 -0.1378 -0.7223  1.1312
 1420TIP3   OH225894   6.724   2.338   7.731 -0.2159 -0.1165 -0.1316
 1420TIP3    H125895   6.650   2.371   7.680 -0.8217 -0.8133  0.2717
 1420TIP3    H225896   6.782   2.298   7.666 -0.6556 -0.3993 -0.3532
 1421TIP3   OH225897   4.252   0.633   1.651  0.2043  0.3645 -0.0397
 1421TIP3    H125898   4.308   0.694   1.699  2.6009  0.3251 -2.6027
 1421TIP3    H225899   4.249   0.666   1.562 -1.7132 -1.1486 -0.6260
 1422TIP3   OH225900   0.222   5.157   1.749  0.2417  0.2013  0.2628
 1422TIP3    H125901   0.285   5.190   1.685  0.0985 -2.7564 -1.6251
 1422TIP3    H225902   0.219   5.062   1.733 -5.0196  0.1305 -0.1781
 1423TIP3   OH225903   2.953   6.012   7.536 -0.2185 -0.0707 -0.9066
 1423TIP3    H125904   3.047   5.998   7.527 -0.0337 -0.8340  1.5098
 1423TIP3    H225905   2.938   6.097   7.495  1.3842 -0.2390 -1.9394
 1424TIP3   OH225906   5.726   1.272   7.628  0.1285  0.0680 -0.1147
 1424TIP3    H125907   5.634   1.247   7.618 -0.2181  1.2137  0.0943
 1424TIP3    H225908   5.729   1.364   7.604  0.9355  0.4561  1.3165
 1425TIP3   OH225909   4.198   4.891   1.564  0.1356 -0.1588 -0.5077
 1425TIP3    H125910   4.163   4.960   1.620  2.0403 -0.5312  1.2354
 1425TIP3    H225911   4.174   4.809   1.608 -1.2345 -0.6414 -2.0363
 1426TIP3   OH225912   4.175   1.724   2.809  0.0597  0.7769  0.0107
 1426TIP3    H125913   4.109   1.707   2.742 -0.4865 -0.5945  0.8474
 1426TIP3    H225914   4.150   1.808   2.847  0.5130  1.6817 -1.6310
 1427TIP3   OH225915   5.460   5.452   7.458  0.4201  0.3810  0.2034
 1427TIP3    H125916   5.394   5.388   7.485  1.0177 -0.1997  0.2969
 1427TIP3    H225917   5.491   5.491   7.539  0.4266  0.4278  0.1790
 1428TIP3   OH225918   5.719   4.200   2.306  0.3917  0.3069 -0.1456
 1428TIP3    H125919   5.810   4.178   2.324  0.2401  0.7139  1.1956
 1428TIP3    H225920   5.716   4.295   2.308 -0.4090  0.2868  1.7918
 1429TIP3   OH225921   3.163   6.798   8.129  0.3087 -0.7026  0.2822
 1429TIP3    H125922   3.085   6.750   8.161  0.3653 -0.9984 -0.0217
 1429TIP3    H225923   3.193   6.747   8.054  0.6642 -0.4588  0.2593
 1430TIP3   OH225924   3.953   4.849   1.072 -0.3722  0.1076  0.6788
 1430TIP3    H125925   4.002   4.901   1.136 -2.1989 -0.2729  2.5243
 1430TIP3    H225926   3.935   4.767   1.117 -0.6316 -0.6941 -0.8321
 1431TIP3   OH225927   3.695   4.848   6.642 -0.1180 -0.1852 -0.1398
 1431TIP3    H125928   3.673   4.904   6.567 -1.4673  1.4333  1.3715
 1431TIP3    H225929   3.675   4.902   6.719  4.2910 -0.4962  1.5174
 1432TIP3   OH225930   3.710   0.088   8.235  0.3872 -0.0384  0.0554
 1432TIP3    H125931   3.772   0.127   8.297  0.0009 -0.7075  0.8865
 1432TIP3    H225932   3.760   0.018   8.192  0.0014 -1.1619  1.3538
 1433TIP3   OH225933   1.210   2.212   0.965 -0.1362 -0.7824  0.1088
 1433TIP3    H125934   1.278   2.277   0.953 -1.1510  0.0973 -1.1213
 1433TIP3    H225935   1.216   2.187   1.057  1.4205 -0.2694  0.1605
 1434TIP3   OH225936   3.260   3.874   8.517  0.2272 -0.0349  0.0431
 1434TIP3    H125937   3.323   3.918   8.461 -1.1242 -0.0004 -1.5380
 1434TIP3    H225938   3.311   3.809   8.564  1.2371 -1.0418 -2.2802
 1435TIP3   OH225939   1.260   2.081   0.687  0.1824 -0.1126  0.0824
 1435TIP3    H125940   1.212   2.098   0.606  0.4918  1.5545  0.2112
 1435TIP3    H225941   1.282   2.168   0.721 -1.1934 -0.6855  2.7328
 1436TIP3   OH225942   1.773   1.690   8.641  0.0340  0.6195 -0.4350
 1436TIP3    H125943   1.863   1.720   8.628  0.2787  0.1310  0.0818
 1436TIP3    H225944   1.751   1.716   8.730  0.3285 -0.8884  0.1109
 1437TIP3   OH225945   2.170   3.481   1.742  0.2058  0.5413 -0.3740
 1437TIP3    H125946   2.232   3.429   1.793 -1.1669 -1.8291 -0.9362
 1437TIP3    H225947   2.103   3.417   1.715 -0.8546  2.3734 -2.3308
 1438TIP3   OH225948   6.799   1.193   0.970 -0.5571 -0.1851 -0.1179
 1438TIP3    H125949   6.820   1.187   1.063  0.8469 -0.4843 -0.4336
 1438TIP3    H225950   6.880   1.220   0.928 -0.4349 -2.4224 -1.5339
 1439TIP3   OH225951   4.915   4.736   2.391  0.0483  0.3016  0.4469
 1439TIP3    H125952   4.829   4.736   2.348  0.0426  1.1138  0.4385
 1439TIP3    H225953   4.907   4.672   2.461 -0.2978 -0.2368 -0.0739
 1440TIP3   OH225954   2.308   2.309   1.318  0.6533  1.0934 -0.0260
 1440TIP3    H125955   2.392   2.336   1.281  1.0442  0.0467  0.0744
 1440TIP3    H225956   2.325   2.298   1.412  0.2765  1.3369  0.0778
 1441TIP3   OH225957   1.574   1.052   0.772  0.2517  0.1636 -0.6267
 1441TIP3    H125958   1.621   1.018   0.696  0.9161 -0.9415  0.2401
 1441TIP3    H225959   1.564   1.145   0.755  1.1327  0.0812 -1.6835
 1442TIP3   OH225960   3.138   1.540   8.238  0.6798  0.4996  0.3216
 1442TIP3    H125961   3.202   1.611   8.247  1.8852 -0.4862 -0.1769
 1442TIP3    H225962   3.182   1.475   8.182 -0.2415 -0.7902  1.0397
 1443TIP3   OH225963   3.584   1.894   2.067 -0.4710  0.3240  0.0507
 1443TIP3    H125964   3.525   1.958   2.108 -1.7231  0.9644 -2.5360
 1443TIP3    H225965   3.529   1.817   2.053 -0.0214  0.0580 -0.2430
 1444TIP3   OH225966   5.690   3.044   7.922  0.2479  0.7804 -0.2995
 1444TIP3    H125967   5.683   2.951   7.942  0.3503  1.1935  1.8945
 1444TIP3    H225968   5.639   3.055   7.842  1.0977 -1.3183 -1.1945
 1445TIP3   OH225969   5.313   3.949   1.341  0.4291 -0.5168  0.3662
 1445TIP3    H125970   5.259   3.958   1.420 -0.8461 -0.6244 -0.4540
 1445TIP3    H225971   5.296   4.028   1.291  0.5008 -0.8594 -0.2161
 1446TIP3   OH225972   3.476   2.281   0.488  0.0006 -0.5370  0.1930
 1446TIP3    H125973   3.520   2.247   0.566  0.4498 -1.7488 -0.5491
 1446TIP3    H225974   3.534   2.255   0.415 -1.0613 -0.6053 -0.6461
 1447TIP3   OH225975   3.729   2.479   0.905  0.0050  0.1406  0.7333
 1447TIP3    H125976   3.702   2.500   0.815 -0.0431  0.2090  0.7635
 1447TIP3    H225977   3.786   2.403   0.896  0.7440  0.7092  0.5592
 1448TIP3   OH225978   6.061   3.491   8.540 -0.4621 -0.2864  0.6869
 1448TIP3    H125979   5.995   3.449   8.485  0.4203 -0.8769  0.0248
 1448TIP3    H225980   6.050   3.451   8.626  0.8304 -2.5351 -0.1012
 1449TIP3   OH225981   2.745   2.599   1.593 -0.2590 -0.3825  0.5581
 1449TIP3    H125982   2.799   2.534   1.547 -0.5970 -0.5288  0.3619
 1449TIP3    H225983   2.728   2.559   1.678 -0.9918 -0.8345  0.2051
 1450TIP3   OH225984   5.963   0.801   2.586 -0.1125 -0.4147  0.2771
 1450TIP3    H125985   5.877   0.812   2.627  0.1380 -1.1718  1.0406
 1450TIP3    H225986   5.995   0.716   2.619  0.3981 -0.7265 -0.9613
 1451TIP3   OH225987   3.815   3.987   1.852  0.0965  0.0314 -0.1585
 1451TIP3    H125988   3.767   3.936   1.786  2.0273 -1.2339 -0.6515
 1451TIP3    H225989   3.792   4.078   1.833 -1.4604 -0.4607 -0.8479
 1452TIP3   OH225990   2.126   6.718   8.432  0.4627 -0.1332 -0.3503
 1452TIP3    H125991   2.082   6.637   8.456 -2.0539  1.0809 -0.5847
 1452TIP3    H225992   2.131   6.768   8.513  0.3356  0.2309 -0.5679
 1453TIP3   OH225993   0.010   1.868   0.072  0.5854 -0.2985  0.0990
 1453TIP3    H125994  -0.064   1.808   0.063  0.0637  0.6534 -4.4449
 1453TIP3    H225995  -0.020   1.949   0.031  3.6892  0.4964 -0.8541
 1454TIP3   OH225996   6.543   2.599   7.994  0.1529 -0.0863  0.4207
 1454TIP3    H125997   6.591   2.656   7.934 -0.7665  0.5334  0.2603
 1454TIP3    H225998   6.451   2.616   7.975 -0.1384 -0.8402  1.1178
 1455TIP3   OH225999   3.788   0.282   0.418 -0.0873  0.6715 -0.0159
 1455TIP3    H126000   3.757   0.333   0.493 -0.2780 -0.0147  0.3794
 1455TIP3    H226001   3.708   0.261   0.370 -0.0476  0.4314  0.0234
 1456TIP3   OH226002   2.421   5.058   2.170  0.2294  0.0874 -1.1438
 1456TIP3    H126003   2.509   5.092   2.152 -0.1314  1.9234  0.2800
 1456TIP3    H226004   2.428   5.019   2.258 -0.2129 -0.4027 -1.3210
 1457TIP3   OH226005   6.627   5.756   7.740 -0.3446 -0.2981 -0.2230
 1457TIP3    H126006   6.544   5.739   7.696 -0.1543 -0.6954 -0.4354
 1457TIP3    H226007   6.678   5.676   7.727 -0.4162 -0.5640  1.0248
 1458TIP3   OH226008   6.448   0.666   2.575  0.1036 -0.2709  0.4266
 1458TIP3    H126009   6.505   0.619   2.635  1.1327  0.2906 -0.0807
 1458TIP3    H226010   6.493   0.662   2.491 -1.0957 -0.6689 -0.2270
 1459TIP3   OH226011   6.529   4.167   2.485 -0.3758  0.0282 -0.3674
 1459TIP3    H126012   6.576   4.102   2.433  1.9176  0.4374  1.0775
 1459TIP3    H226013   6.567   4.251   2.459 -0.5409  0.4146  0.5924
 1460TIP3   OH226014   0.243   5.607   0.293 -0.2033 -0.1039 -0.5680
 1460TIP3    H126015   0.218   5.699   0.281 -0.9031 -0.3437 -1.0128
 1460TIP3    H226016   0.329   5.611   0.335 -0.3634  0.7510 -0.3010
 1461TIP3   OH226017   0.687   0.889   1.362 -0.2579  0.5980  0.0745
 1461TIP3    H126018   0.665   0.800   1.387  1.9637 -1.0700 -3.2576
 1461TIP3    H226019   0.612   0.920   1.312 -0.2729 -0.1283 -0.3565
 1462TIP3   OH226020   0.017   5.539   6.495 -0.4713 -0.1612 -0.3008
 1462TIP3    H126021  -0.002   5.591   6.416  0.1227  0.6195  0.0480
 1462TIP3    H226022   0.094   5.487   6.471  1.1671  1.7824  0.4516
 1463TIP3   OH226023   0.504   3.897   1.589  0.3749  0.2252  0.7194
 1463TIP3    H126024   0.529   3.811   1.623  0.5792  1.1527  3.1419
 1463TIP3    H226025   0.474   3.880   1.500  1.4918 -2.1755  0.7149
 1464TIP3   OH226026   1.460   4.777   8.122 -0.1716  0.6380 -0.5586
 1464TIP3    H126027   1.473   4.810   8.211 -0.1802 -1.2761  0.2001
 1464TIP3    H226028   1.365   4.778   8.110 -0.1771  0.7984 -0.4931
 1465TIP3   OH226029   3.810   5.601   2.259 -0.1872 -0.0938  0.1428
 1465TIP3    H126030   3.880   5.535   2.248 -0.2899 -0.3304  0.8394
 1465TIP3    H226031   3.802   5.642   2.173  1.5405  0.6641  0.2997
 1466TIP3   OH226032   6.792   1.957   8.200  0.2879 -0.3879 -0.5377
 1466TIP3    H126033   6.714   1.952   8.144 -0.4128 -0.3229  0.4130
 1466TIP3    H226034   6.830   1.869   8.196 -0.4328 -0.7264 -0.1757
 1467TIP3   OH226035   5.826   0.251   8.506  0.0995 -0.0178 -0.0792
 1467TIP3    H126036   5.894   0.190   8.479 -1.3306 -2.7486  1.9781
 1467TIP3    H226037   5.745   0.200   8.501 -1.7275  2.7299 -1.3146
 1468TIP3   OH226038   4.282   1.571   1.944  0.0416  0.4281  0.4337
 1468TIP3    H126039   4.269   1.512   1.870 -0.0917  0.3599  0.5105
 1468TIP3    H226040   4.319   1.650   1.906  0.5464  0.1696  0.3773
 1469TIP3   OH226041   5.204   1.287   0.846  0.2019  0.1253  1.2810
 1469TIP3    H126042   5.129   1.326   0.891 -0.8128  1.4415 -1.3691
 1469TIP3    H226043   5.173   1.270   0.758  2.1439 -2.2154  0.9476
 1470TIP3   OH226044   0.854   0.239   8.260 -0.6190  0.2597 -0.2072
 1470TIP3    H126045   0.932   0.195   8.227 -1.3350 -0.7015 -0.6565
 1470TIP3    H226046   0.812   0.275   8.181 -1.9800 -1.4658 -0.3334
 1471TIP3   OH226047   2.506   5.710   7.853  0.8113 -0.3104  0.0939
 1471TIP3    H126048   2.519   5.800   7.823  3.6027 -0.5088  0.4585
 1471TIP3    H226049   2.525   5.656   7.776  1.5005 -0.6251  0.4731
 1472TIP3   OH226050   2.043   3.132   2.056 -0.2218  0.1830 -0.3749
 1472TIP3    H126051   2.059   3.221   2.088 -0.0514 -0.2532  0.8291
 1472TIP3    H226052   1.988   3.093   2.124 -1.8821 -0.0545 -1.8096
 1473TIP3   OH226053   5.983   5.013   8.279  0.2850 -0.6585  0.0836
 1473TIP3    H126054   5.922   5.086   8.291 -0.6271 -1.4840  0.7151
 1473TIP3    H226055   5.986   4.970   8.365  1.3361 -0.9647 -0.0879
 1474TIP3   OH226056   1.625   4.967   0.198 -0.3396 -0.2540 -0.2756
 1474TIP3    H126057   1.685   5.032   0.234  1.9210 -1.5651 -1.4079
 1474TIP3    H226058   1.578   5.013   0.128 -0.6481  0.7934  0.6036
 1475TIP3   OH226059   2.881   3.759   7.568 -0.1929  0.2619  0.8865
 1475TIP3    H126060   2.856   3.715   7.650  0.3627 -0.4209  0.6981
 1475TIP3    H226061   2.887   3.852   7.591 -0.3436  0.1109  1.5472
 1476TIP3   OH226062   3.662   5.400   7.747  0.8953  0.0927 -0.9466
 1476TIP3    H126063   3.743   5.450   7.750  0.6165  0.5222 -0.3831
 1476TIP3    H226064   3.600   5.457   7.700  0.8336 -0.1156 -1.1251
 1477TIP3   OH226065   6.145   3.798   7.372  0.5229 -0.2936 -0.3070
 1477TIP3    H126066   6.065   3.793   7.320  0.5399 -1.4491 -0.2497
 1477TIP3    H226067   6.202   3.857   7.322 -0.6583  1.2792  0.1055
 1478TIP3   OH226068   2.348   6.767   0.982  0.8559  0.3435 -0.3449
 1478TIP3    H126069   2.425   6.775   1.039 -0.2211  0.2126  1.1791
 1478TIP3    H226070   2.289   6.836   1.011  0.1732  0.1140 -1.1440
 1479TIP3   OH226071   2.203   5.599   1.744  0.7328  0.1729 -0.1471
 1479TIP3    H126072   2.181   5.690   1.763 -0.4158  0.1694 -1.2665
 1479TIP3    H226073   2.166   5.549   1.817 -1.1238  0.3925 -0.8803
 1480TIP3   OH226074   6.785   4.637   1.423  0.2207 -0.2233 -0.1186
 1480TIP3    H126075   6.853   4.701   1.441 -0.5391  0.3434  0.8905
 1480TIP3    H226076   6.743   4.669   1.343  0.1724  0.2729  0.0979
 1481TIP3   OH226077   1.953   5.178   0.934  0.2459 -0.3298 -0.4422
 1481TIP3    H126078   1.957   5.269   0.906  0.5826 -0.6153 -1.3653
 1481TIP3    H226079   1.863   5.167   0.965  0.3598  0.4540  0.2090
 1482TIP3   OH226080   2.651   3.184   7.129 -0.1792 -0.2403 -0.2100
 1482TIP3    H126081   2.604   3.218   7.206  1.7439  2.0536  0.0764
 1482TIP3    H226082   2.620   3.238   7.057  0.0328 -0.5325 -0.5192
 1483TIP3   OH226083   2.804   2.961   1.722  0.1626  0.1118 -0.8493
 1483TIP3    H126084   2.801   3.032   1.786  0.7741 -1.0379  0.5250
 1483TIP3    H226085   2.719   2.966   1.677 -1.1060 -0.1731  1.3702
 1484TIP3   OH226086   2.824   3.739   7.003  0.6001  0.4110 -0.3813
 1484TIP3    H126087   2.744   3.779   6.969  1.1340  1.3431 -0.5760
 1484TIP3    H226088   2.890   3.759   6.937  0.2587 -3.6179 -2.1878
 1485TIP3   OH226089   5.606   2.810   0.317  0.0816  0.0619 -0.1539
 1485TIP3    H126090   5.594   2.867   0.393  0.3599  1.3227 -1.0221
 1485TIP3    H226091   5.692   2.832   0.283  0.7409 -1.7942  0.1914
 1486TIP3   OH226092   5.073   6.020   1.561 -0.0168  0.2986  0.0673
 1486TIP3    H126093   5.017   6.084   1.604  1.5355 -0.2394  3.2195
 1486TIP3    H226094   5.019   5.941   1.555 -0.7835  0.8524 -0.5327
 1487TIP3   OH226095   1.754   0.153   8.792 -0.1416  0.0308 -0.1595
 1487TIP3    H126096   1.797   0.236   8.814 -2.1113  0.8012  1.0631
 1487TIP3    H226097   1.798   0.088   8.848  1.1822  0.2680 -0.8763
 1488TIP3   OH226098   1.757   3.924   2.707  0.1067 -0.6683  0.5620
 1488TIP3    H126099   1.725   3.850   2.758  1.2038 -0.5537  1.4494
 1488TIP3    H226100   1.690   3.992   2.717 -0.3937 -1.1655  0.6155
 1489TIP3   OH226101   0.106   0.367   1.114 -0.1935 -0.2215  1.1194
 1489TIP3    H126102   0.079   0.281   1.083 -0.3573  0.6780 -1.4285
 1489TIP3    H226103   0.057   0.429   1.060  0.9253  1.4703  1.9479
 1490TIP3   OH226104   3.802   4.293   1.879  0.1372 -0.2708  0.1945
 1490TIP3    H126105   3.844   4.335   1.954 -0.0841 -1.6308  1.1128
 1490TIP3    H226106   3.757   4.364   1.833 -0.1013  0.5106  1.5955
 1491TIP3   OH226107   0.759   1.876   7.415  0.0059 -0.0268 -0.3513
 1491TIP3    H126108   0.720   1.870   7.328 -0.2384 -1.8619 -0.1537
 1491TIP3    H226109   0.839   1.824   7.409  0.0192 -0.1178  0.4955
 1492TIP3   OH226110   2.559   1.423   8.649  0.3276 -0.2218 -0.2683
 1492TIP3    H126111   2.593   1.356   8.589  4.0531 -0.1697  1.4743
 1492TIP3    H226112   2.595   1.398   8.734 -3.6913  0.4063  1.8255
 1493TIP3   OH226113   0.479   5.575   0.423 -0.3691  0.3358 -0.3024
 1493TIP3    H126114   0.502   5.561   0.514  0.4638  1.3917 -0.3391
 1493TIP3    H226115   0.517   5.500   0.377 -2.8100 -1.5220  0.4493
 1494TIP3   OH226116   5.473   1.210   8.273 -0.3213 -0.2616  0.1571
 1494TIP3    H126117   5.493   1.219   8.366  2.6839  0.0393 -0.4412
 1494TIP3    H226118   5.557   1.197   8.231 -1.7819 -2.4649 -2.3604
 1495TIP3   OH226119   0.622   1.987   8.826 -0.0746 -0.3731  0.2258
 1495TIP3    H126120   0.699   1.931   8.837  1.4013  1.1534 -1.5300
 1495TIP3    H226121   0.630   2.052   8.897  1.5736  1.0723 -1.1626
 1496TIP3   OH226122   2.351   3.649   0.557  0.0999 -0.5040 -0.0333
 1496TIP3    H126123   2.330   3.691   0.474  1.2291 -1.0479 -0.6202
 1496TIP3    H226124   2.355   3.720   0.620 -0.9180 -0.1000 -0.3923
 1497TIP3   OH226125   4.109   3.859   8.607 -0.0924 -0.2423 -0.1304
 1497TIP3    H126126   4.141   3.770   8.591 -3.2719 -2.0624  2.4701
 1497TIP3    H226127   4.070   3.886   8.523 -1.7040 -2.5918 -0.2167
 1498TIP3   OH226128   1.734   0.075   2.438 -0.3999 -0.3330 -0.1331
 1498TIP3    H126129   1.717   0.029   2.355 -2.3400 -0.8937  0.5275
 1498TIP3    H226130   1.734   0.168   2.414 -0.3057 -0.5135 -0.8624
 1499TIP3   OH226131   3.016   0.511   0.630 -0.0332  0.8321  0.3770
 1499TIP3    H126132   3.019   0.598   0.590  0.5731  0.3575 -0.6214
 1499TIP3    H226133   2.975   0.526   0.716 -0.6073  1.9854 -0.0749
 1500TIP3   OH226134   2.022   4.580   1.125 -0.4060 -0.3460  0.1292
 1500TIP3    H126135   1.963   4.514   1.087 -0.1401 -0.3700 -0.2493
 1500TIP3    H226136   2.057   4.538   1.203  1.4825 -1.5693 -1.2768
 1501TIP3   OH226137   3.368   0.603   0.306  0.2442 -0.4387  0.5609
 1501TIP3    H126138   3.324   0.548   0.241 -1.2869  0.6074  0.6464
 1501TIP3    H226139   3.334   0.572   0.390 -2.5797  2.0874  0.5154
 1502TIP3   OH226140   6.805   3.002   8.340  0.1049 -0.2092 -0.2929
 1502TIP3    H126141   6.795   2.930   8.402  0.5377 -0.3454 -0.3742
 1502TIP3    H226142   6.807   3.081   8.394  3.0517 -0.4789  0.1540
 1503TIP3   OH226143   3.014   1.219   8.077  0.1431 -0.1206 -0.4818
 1503TIP3    H126144   3.094   1.192   8.122 -0.0945  0.1532  0.1150
 1503TIP3    H226145   3.042   1.292   8.021  0.3106 -0.0027 -0.2475
 1504TIP3   OH226146   5.384   3.639   0.472  0.3761 -0.4958 -0.2820
 1504TIP3    H126147   5.448   3.669   0.537  0.9585  0.2681 -1.1863
 1504TIP3    H226148   5.422   3.560   0.435 -0.5412 -1.6713  1.1574
 1505TIP3   OH226149   0.580   3.526   1.230  0.0167  0.4005 -0.0793
 1505TIP3    H126150   0.632   3.518   1.150  0.7362 -1.2458  0.5241
 1505TIP3    H226151   0.644   3.544   1.299 -0.6117  1.9636  0.1409
 1506TIP3   OH226152   6.190   6.642   7.610 -0.1667  0.0877  0.6736
 1506TIP3    H126153   6.272   6.624   7.655 -0.3380  1.1688  1.4890
 1506TIP3    H226154   6.174   6.566   7.555 -0.0794 -1.4566  2.6835
 1507TIP3   OH226155   3.243   0.333   8.175 -0.6157  1.0084 -0.6701
 1507TIP3    H126156   3.223   0.375   8.259  2.2272  0.8988  0.1444
 1507TIP3    H226157   3.251   0.406   8.114 -0.1502  1.3038 -0.2655
 1508TIP3   OH226158   2.915   1.652   1.295  0.8430  0.1164  0.2989
 1508TIP3    H126159   2.946   1.563   1.310  0.2192 -0.8082 -2.9291
 1508TIP3    H226160   2.991   1.707   1.309  1.5640 -1.0519  1.1822
 1509TIP3   OH226161   0.154   1.166   8.321 -0.0932 -0.3129 -0.7302
 1509TIP3    H126162   0.077   1.111   8.312  0.8499 -1.6082 -1.1844
 1509TIP3    H226163   0.140   1.236   8.256 -1.2681 -0.0077 -0.1856
 1510TIP3   OH226164   0.164   2.444   0.808 -0.7003 -0.4661  0.5841
 1510TIP3    H126165   0.095   2.456   0.743 -1.6315 -0.0764  1.6122
 1510TIP3    H226166   0.226   2.515   0.791  0.8703 -2.2837 -1.9973
 1511TIP3   OH226167   6.440   3.340   0.935 -0.5881  0.4516 -0.4084
 1511TIP3    H126168   6.379   3.332   0.861 -0.1987 -0.8225 -0.6140
 1511TIP3    H226169   6.527   3.337   0.895 -0.3787  0.3770  0.0488
 1512TIP3   OH226170   4.089   2.567   1.404 -0.3434 -0.3911  0.0599
 1512TIP3    H126171   4.147   2.578   1.329 -1.1942  1.4486 -0.3590
 1512TIP3    H226172   4.105   2.477   1.433  2.1157 -0.2113 -0.5285
 1513TIP3   OH226173   6.826   5.207   1.132  0.0278 -0.8127 -0.0066
 1513TIP3    H126174   6.830   5.209   1.227 -0.6604 -0.8514  0.0250
 1513TIP3    H226175   6.916   5.186   1.105  0.7120  1.2098  0.5590
 1514TIP3   OH226176   0.343   1.816   1.196 -0.4979 -0.8733  0.4145
 1514TIP3    H126177   0.283   1.772   1.136 -0.7826 -0.9290  0.7340
 1514TIP3    H226178   0.286   1.852   1.265 -0.2583 -0.1045  0.2228
 1515TIP3   OH226179   0.924   0.600   0.680  0.4520 -0.4614 -0.0707
 1515TIP3    H126180   0.872   0.672   0.645  0.3846  0.9016  2.6370
 1515TIP3    H226181   0.860   0.537   0.712  0.5189 -1.1383 -1.2136
 1516TIP3   OH226182   3.541   1.172   8.122  0.2732  0.3476  0.5145
 1516TIP3    H126183   3.544   1.078   8.143  2.8627  0.0956 -0.5464
 1516TIP3    H226184   3.535   1.175   8.026 -0.6641  1.3016  0.5902
 1517TIP3   OH226185   0.612   5.953   6.975 -0.4237  0.4595 -0.0145
 1517TIP3    H126186   0.531   5.919   6.937 -0.6302  0.4822  0.3975
 1517TIP3    H226187   0.662   5.985   6.900  0.1323 -1.4467 -0.5273
 1518TIP3   OH226188   1.118   6.777   0.724  0.1596  0.0679 -0.0600
 1518TIP3    H126189   1.063   6.796   0.648 -0.1548 -0.9071 -0.0791
 1518TIP3    H226190   1.186   6.719   0.691  0.5075  0.3021  0.2296
 1519TIP3   OH226191   3.516   1.980   0.321  0.5940 -0.2621  0.6635
 1519TIP3    H126192   3.570   2.059   0.328  0.2337  0.0749 -0.1333
 1519TIP3    H226193   3.481   1.967   0.408  1.0811  0.1561  0.9288
 1520TIP3   OH226194   1.815   3.069   1.474  0.2867  0.3187  0.6176
 1520TIP3    H126195   1.893   3.025   1.440 -0.3126 -0.0369 -0.3358
 1520TIP3    H226196   1.825   3.160   1.447  0.1981  0.1980  0.1689
 1521TIP3   OH226197   4.670   2.439   1.651  0.4316  0.7873 -0.8709
 1521TIP3    H126198   4.606   2.416   1.719  0.3366  2.6319 -0.2756
 1521TIP3    H226199   4.742   2.378   1.663 -1.2122 -1.4177 -1.6149
 1522TIP3   OH226200   4.618   2.867   8.539  0.3411 -0.1216 -0.5578
 1522TIP3    H126201   4.528   2.854   8.508 -0.1309 -2.1295  1.4277
 1522TIP3    H226202   4.670   2.871   8.458 -1.3240 -0.7422 -1.7271
 1523TIP3   OH226203   4.544   4.930   1.097 -0.3209  0.3619 -0.2326
 1523TIP3    H126204   4.600   4.957   1.025 -1.6261  1.0369 -1.0255
 1523TIP3    H226205   4.462   4.978   1.084 -0.4738  0.8105  1.9123
 1524TIP3   OH226206   2.096   5.901   1.773 -0.2954  0.9808 -0.2737
 1524TIP3    H126207   2.016   5.848   1.775 -0.4892  1.2796  0.7488
 1524TIP3    H226208   2.112   5.917   1.680  1.0352 -2.7783 -0.8951
 1525TIP3   OH226209   5.448   2.257   6.848  0.2094 -0.0750  0.0406
 1525TIP3    H126210   5.495   2.208   6.915  1.1087  1.1966  0.3844
 1525TIP3    H226211   5.372   2.202   6.826  0.3809 -0.9176  1.4536
 1526TIP3   OH226212   1.297   5.712   7.718 -0.1377  0.4164 -0.4143
 1526TIP3    H126213   1.299   5.636   7.776 -2.3114  1.7377  1.5709
 1526TIP3    H226214   1.372   5.700   7.660  1.7136 -1.4254  2.1483
 1527TIP3   OH226215   3.945   6.132   8.061  0.6385  0.0339  0.3267
 1527TIP3    H126216   3.968   6.186   7.985  1.1298 -2.2149 -1.2328
 1527TIP3    H226217   4.009   6.155   8.128  0.2662  1.9914  0.0807
 1528TIP3   OH226218   1.643   2.017   6.647 -0.3951  0.0964  0.2570
 1528TIP3    H126219   1.708   2.084   6.671  2.7153 -2.1318 -1.3322
 1528TIP3    H226220   1.662   1.943   6.705 -0.3678 -1.2164 -1.3659
 1529TIP3   OH226221   0.882   3.677   0.527  0.0880 -0.2102  0.0116
 1529TIP3    H126222   0.899   3.648   0.617  1.1125 -0.1058 -0.1369
 1529TIP3    H226223   0.927   3.613   0.472  0.6324  0.4973 -0.3802
 1530TIP3   OH226224   1.360   2.747   7.798  0.3054  0.5511  0.2290
 1530TIP3    H126225   1.375   2.653   7.810 -0.0441  0.7596  3.0845
 1530TIP3    H226226   1.316   2.754   7.713  1.2765 -1.7288 -0.5286
 1531TIP3   OH226227   2.991   2.779   1.827 -0.9103 -0.1336 -0.5859
 1531TIP3    H126228   2.918   2.775   1.764  0.2385  1.9099 -2.1607
 1531TIP3    H226229   3.045   2.851   1.796  2.0389 -1.8268  0.2754
 1532TIP3   OH226230   6.173   4.582   1.892  0.2891 -0.2119  0.2680
 1532TIP3    H126231   6.207   4.598   1.804 -2.3135  1.1908 -0.5956
 1532TIP3    H226232   6.104   4.517   1.880  1.3116 -1.6473  1.6757
 1533TIP3   OH226233   1.154   5.186   8.360  0.5915 -0.3418  0.3880
 1533TIP3    H126234   1.068   5.145   8.356  0.3361  0.2045  0.1439
 1533TIP3    H226235   1.140   5.267   8.409  0.6162  0.5652 -1.0451
 1534TIP3   OH226236   0.018   1.185   6.998  0.2415  0.1530 -0.5989
 1534TIP3    H126237  -0.050   1.125   6.967 -0.4940  0.3616  0.5185
 1534TIP3    H226238   0.018   1.257   6.936  0.3787 -0.4865 -1.3510
 1535TIP3   OH226239   0.622   5.360   2.074  0.4302 -0.6347 -0.1829
 1535TIP3    H126240   0.668   5.276   2.062  1.3001 -0.0101 -1.4910
 1535TIP3    H226241   0.692   5.423   2.091 -0.0107  0.1709 -1.2284
 1536TIP3   OH226242   1.227   4.669   8.489 -0.0069 -0.5097 -0.8874
 1536TIP3    H126243   1.205   4.627   8.406  0.1283  1.1977 -1.8298
 1536TIP3    H226244   1.145   4.671   8.538 -0.4853 -0.0293 -1.6824
 1537TIP3   OH226245   4.241   3.155   1.037  0.2769 -0.1915  0.2842
 1537TIP3    H126246   4.289   3.074   1.022  0.8061  0.2106 -0.2483
 1537TIP3    H226247   4.201   3.145   1.123 -0.5159 -1.4453 -0.1950
 1538TIP3   OH226248   1.199   1.041   0.487  0.0763 -0.6360  0.1446
 1538TIP3    H126249   1.159   0.979   0.426  0.4638 -0.9534  0.2029
 1538TIP3    H226250   1.126   1.090   0.524 -0.2356 -1.0411  0.0703
 1539TIP3   OH226251   2.130   0.053   2.405 -0.0493 -0.3705 -0.5528
 1539TIP3    H126252   2.055   0.026   2.458  0.0447  0.7744  0.1844
 1539TIP3    H226253   2.186  -0.025   2.402 -0.2032 -0.5578  0.7843
 1540TIP3   OH226254   1.247   5.621   1.338  0.6663  0.7020 -0.0716
 1540TIP3    H126255   1.232   5.705   1.380 -0.6824  0.0341  0.8425
 1540TIP3    H226256   1.325   5.586   1.380  0.8629  1.2156 -0.0098
 1541TIP3   OH226257   1.579   5.532   0.021  0.2080  0.2149 -0.6930
 1541TIP3    H126258   1.494   5.488   0.023  0.2154  0.2024 -0.6576
 1541TIP3    H226259   1.643   5.461   0.030  0.1861  0.4616  2.4594
 1542TIP3   OH226260   5.673   0.898   8.090 -0.5966 -0.6021  0.3500
 1542TIP3    H126261   5.583   0.926   8.074 -0.3852  0.2073  0.5118
 1542TIP3    H226262   5.727   0.961   8.042  0.0116  1.1694  3.0822
 1543TIP3   OH226263   1.400   3.702   8.584 -0.6831 -0.0608  0.0346
 1543TIP3    H126264   1.411   3.780   8.639 -0.8775 -0.6217  0.8838
 1543TIP3    H226265   1.339   3.729   8.515  0.2093  0.8963 -0.4056
 1544TIP3   OH226266   5.696   3.774   8.734 -0.9573 -0.0541 -0.9895
 1544TIP3    H126267   5.671   3.686   8.706  0.3965 -1.0188  0.6109
 1544TIP3    H226268   5.763   3.801   8.672 -0.4209 -0.7250 -0.7137
 1545TIP3   OH226269   1.757   5.891   0.454  0.1121 -0.6712 -0.1019
 1545TIP3    H126270   1.674   5.848   0.431  0.1167 -0.6667 -0.1280
 1545TIP3    H226271   1.784   5.850   0.536  0.2205 -0.8619 -0.2324
 1546TIP3   OH226272   3.432   3.675   8.611 -0.7403  0.0924  0.4353
 1546TIP3    H126273   3.438   3.659   8.517  0.1208 -0.0815  0.5099
 1546TIP3    H226274   3.448   3.589   8.651 -0.5571  0.2737  0.7533
 1547TIP3   OH226275   6.813   1.191   7.496  0.5593  0.3660 -0.3115
 1547TIP3    H126276   6.785   1.281   7.481 -1.0571 -0.0121  0.1272
 1547TIP3    H226277   6.788   1.145   7.416  0.0923  0.0524  0.0097
 1548TIP3   OH226278   3.113   6.586   3.045  0.3346  0.5612 -0.3647
 1548TIP3    H126279   3.034   6.627   3.080  0.3644 -1.0221  1.7473
 1548TIP3    H226280   3.096   6.577   2.951 -1.2716  1.7713 -0.2235
 1549TIP3   OH226281   2.117   3.445   7.937  0.2425 -0.6901  0.6938
 1549TIP3    H126282   2.035   3.402   7.911 -0.6581  1.0285  0.5569
 1549TIP3    H226283   2.169   3.375   7.975 -0.5404 -2.2054 -0.8805
 1550TIP3   OH226284   3.082   5.792   7.273 -0.3402  0.2145 -0.1716
 1550TIP3    H126285   3.090   5.866   7.212  0.6651 -1.2417 -1.9177
 1550TIP3    H226286   3.164   5.793   7.322  0.0210 -0.1772 -0.7517
 1551TIP3   OH226287   6.465   2.975   0.456 -0.4471  0.0272 -0.0096
 1551TIP3    H126288   6.511   3.041   0.404  0.2179 -1.1375 -0.9266
 1551TIP3    H226289   6.415   2.925   0.392 -1.9833  0.4317  0.8242
 1552TIP3   OH226290   6.070   1.588   1.830  0.0992 -0.0860  0.2437
 1552TIP3    H126291   5.990   1.543   1.801  0.7429 -0.5151 -0.9071
 1552TIP3    H226292   6.039   1.649   1.897 -1.0680 -0.8724  0.4652
 1553TIP3   OH226293   2.466   5.058   2.463  0.0844  0.0741  0.4882
 1553TIP3    H126294   2.374   5.074   2.485  0.6382  3.0352  1.0918
 1553TIP3    H226295   2.496   5.138   2.421  1.5791 -2.0473 -2.9793
 1554TIP3   OH226296   0.165   4.819   0.383  0.2850  0.3033 -0.3524
 1554TIP3    H126297   0.107   4.760   0.335 -1.1615  1.2009  0.2398
 1554TIP3    H226298   0.203   4.765   0.452  0.2666 -0.3352 -0.8362
 1555TIP3   OH226299   4.673   5.888   0.794  0.2168 -0.5136 -0.0908
 1555TIP3    H126300   4.622   5.838   0.730 -0.7079 -0.3169  0.4774
 1555TIP3    H226301   4.699   5.823   0.859  0.7109 -0.6166 -0.3875
 1556TIP3   OH226302   0.809   3.587   0.202  0.2457  1.0997  0.2706
 1556TIP3    H126303   0.747   3.517   0.183  0.0620  1.3902 -0.2233
 1556TIP3    H226304   0.858   3.598   0.121  0.2992  1.5169  0.3563
 1557TIP3   OH226305   6.209   4.457   7.407  0.5192 -0.4636 -0.4381
 1557TIP3    H126306   6.273   4.517   7.446 -1.1997  0.3909  1.2241
 1557TIP3    H226307   6.212   4.477   7.313  1.6415  0.5813 -0.2049
 1558TIP3   OH226308   2.154   2.105   1.441 -0.3251 -0.4377  0.0250
 1558TIP3    H126309   2.084   2.160   1.475  0.1976 -0.6310  1.4956
 1558TIP3    H226310   2.219   2.167   1.407  0.8328  0.0194  2.7898
 1559TIP3   OH226311   0.295   0.627   1.747  0.0590 -0.0080  0.2876
 1559TIP3    H126312   0.311   0.534   1.737 -0.9487 -0.5904  3.2768
 1559TIP3    H226313   0.274   0.639   1.839 -0.1333  3.1545 -0.0399
 1560TIP3   OH226314   6.141   4.035   0.452 -0.5022 -0.1074  0.0823
 1560TIP3    H126315   6.093   3.976   0.394 -2.1031  0.9437  0.2773
 1560TIP3    H226316   6.164   4.110   0.397 -1.2877  0.5156  0.5871
 1561TIP3   OH226317   4.071   2.737   0.005 -0.0540 -0.4821 -0.2135
 1561TIP3    H126318   4.133   2.666   0.021 -1.2247 -1.7135 -0.9815
 1561TIP3    H226319   4.040   2.762   0.092  0.2439 -1.0135  0.0465
 1562TIP3   OH226320   5.052   0.399   0.541  0.8441 -0.6954 -0.0424
 1562TIP3    H126321   5.027   0.422   0.451  1.4258 -0.5140 -0.1619
 1562TIP3    H226322   5.078   0.307   0.535  0.0345 -0.9456  0.1229
 1563TIP3   OH226323   0.356   6.677   0.317  0.0019  0.3862 -0.2488
 1563TIP3    H126324   0.447   6.657   0.295 -0.0821 -0.4916  0.1527
 1563TIP3    H226325   0.313   6.591   0.318 -0.6678  0.7220  0.2911
 1564TIP3   OH226326   5.669   4.822   0.304 -0.1086 -0.0502  0.7113
 1564TIP3    H126327   5.636   4.847   0.218 -0.2721 -1.2668  0.4060
 1564TIP3    H226328   5.743   4.881   0.319 -0.5129  0.6413  0.0532
 1565TIP3   OH226329   1.143   2.316   2.273 -0.0596  0.2719 -0.1730
 1565TIP3    H126330   1.114   2.386   2.333 -1.9923 -1.3704  0.9626
 1565TIP3    H226331   1.122   2.350   2.186  0.5012  1.7168  0.2162
 1566TIP3   OH226332   4.854   0.902   8.399 -0.1106  0.8632 -0.8650
 1566TIP3    H126333   4.852   0.888   8.305 -0.8924 -1.4755 -0.5698
 1566TIP3    H226334   4.795   0.835   8.435  0.7127  1.2135  1.3270
 1567TIP3   OH226335   4.658   2.510   0.019 -0.5400  0.5610  0.0102
 1567TIP3    H126336   4.722   2.582   0.018  0.5816 -0.3780  0.6875
 1567TIP3    H226337   4.596   2.535   0.087 -0.4409  1.1179 -0.0936
 1568TIP3   OH226338   6.720   4.114   8.391 -0.3433  0.7433  0.5077
 1568TIP3    H126339   6.777   4.074   8.326 -3.3105  0.9997 -2.5529
 1568TIP3    H226340   6.711   4.048   8.460  0.9264 -0.6529 -0.6107
 1569TIP3   OH226341   4.678   2.116   8.319  0.4193  0.0342 -0.0741
 1569TIP3    H126342   4.641   2.147   8.236  0.2604 -1.5000 -0.6163
 1569TIP3    H226343   4.749   2.058   8.292 -1.9708 -3.5301  0.6316
 1570TIP3   OH226344   5.140   0.130   0.018  0.0765  0.4330 -0.1763
 1570TIP3    H126345   5.097   0.124  -0.068 -0.2458 -2.4625  0.0919
 1570TIP3    H226346   5.068   0.135   0.080  0.2470  0.2969  0.0321
 1571TIP3   OH226347   0.069   2.790   7.634 -0.3764  0.2907  0.4388
 1571TIP3    H126348  -0.004   2.775   7.574 -0.5216 -2.0246  1.0648
 1571TIP3    H226349   0.116   2.706   7.635  1.9517  1.5137  0.5289
 1572TIP3   OH226350   4.846   0.846   7.543 -0.1037 -0.3590 -0.5231
 1572TIP3    H126351   4.792   0.867   7.467  1.5114  0.2034 -1.5791
 1572TIP3    H226352   4.914   0.787   7.509 -0.0180 -1.0312  0.7478
 1573TIP3   OH226353   3.093   0.929   7.473 -0.1366  0.2696  0.2138
 1573TIP3    H126354   3.181   0.940   7.509 -0.3107 -1.1050  1.1412
 1573TIP3    H226355   3.086   0.996   7.406  2.3766 -0.8605 -1.3207
 1574TIP3   OH226356   1.155   2.650   0.449 -0.0052 -0.5528 -0.4339
 1574TIP3    H126357   1.209   2.706   0.505  0.9687 -0.9343 -0.9537
 1574TIP3    H226358   1.218   2.591   0.407 -0.6672 -0.1562 -2.0804
 1575TIP3   OH226359   3.924   1.635   0.990 -0.6398 -0.5486  0.0339
 1575TIP3    H126360   3.881   1.553   0.965  0.9961 -0.8235 -2.1821
 1575TIP3    H226361   3.869   1.703   0.951 -1.5274 -0.5889  1.1488
 1576TIP3   OH226362   5.043   5.543   0.504  0.3691 -0.3207  0.1663
 1576TIP3    H126363   4.975   5.552   0.571  0.9166  0.1715  0.6701
 1576TIP3    H226364   5.093   5.624   0.509  0.8060 -0.5434 -0.4116
 1577TIP3   OH226365   4.213   6.687   8.286  0.4417 -0.0541  0.5476
 1577TIP3    H126366   4.148   6.671   8.354  0.6579 -1.0097  0.5500
 1577TIP3    H226367   4.292   6.710   8.333  0.6835 -1.0434  0.6588
 1578TIP3   OH226368   1.506   0.186   1.956 -0.2632 -0.1901 -0.7016
 1578TIP3    H126369   1.507   0.140   1.872  0.5724  0.6530 -1.1738
 1578TIP3    H226370   1.453   0.264   1.941 -1.4213 -0.8226  0.0105
 1579TIP3   OH226371   0.676   4.689   7.655 -0.0329  0.2027  0.0166
 1579TIP3    H126372   0.736   4.626   7.694 -1.1983 -2.3075 -1.9457
 1579TIP3    H226373   0.730   4.764   7.632  2.1063 -1.4264 -0.5209
 1580TIP3   OH226374   5.397   3.386   8.387 -0.1450 -0.0731 -0.2347
 1580TIP3    H126375   5.434   3.314   8.437  1.4797  1.4077  0.7928
 1580TIP3    H226376   5.459   3.401   8.316 -1.9734 -1.5596 -2.2937
 1581TIP3   OH226377   3.500   6.712   1.328  0.2655 -0.1029  0.0283
 1581TIP3    H126378   3.520   6.619   1.341 -0.8859 -0.3783 -0.0801
 1581TIP3    H226379   3.529   6.730   1.238 -0.4467 -0.6258 -0.3133
 1582TIP3   OH226380   4.150   5.809   0.810  0.6172 -0.1806  0.2787
 1582TIP3    H126381   4.060   5.827   0.839  0.3360 -0.8110 -0.1638
 1582TIP3    H226382   4.139   5.748   0.737  1.3187  1.1920 -1.0288
 1583TIP3   OH226383   3.775   2.364   7.798  0.8220  0.3202 -0.7255
 1583TIP3    H126384   3.687   2.381   7.766  0.0612  0.1321  1.1624
 1583TIP3    H226385   3.813   2.451   7.810  0.5660  0.4188 -0.6399
 1584TIP3   OH226386   4.736   3.375   7.408 -0.3480 -0.2714 -0.3715
 1584TIP3    H126387   4.806   3.310   7.417 -0.0512 -0.0884 -1.2408
 1584TIP3    H226388   4.656   3.324   7.405 -0.0561 -0.6833 -1.9094
 1585TIP3   OH226389   0.071   0.070   0.728  0.2156  0.4000  0.5392
 1585TIP3    H126390   0.139   0.133   0.705 -0.2071  0.9421  0.7430
 1585TIP3    H226391   0.078   0.002   0.662  1.5340 -0.0129  1.0582
 1586TIP3   OH226392   1.228   5.150   1.996  0.4721 -0.1638 -0.0428
 1586TIP3    H126393   1.147   5.101   2.007  0.4763 -0.1251  0.1559
 1586TIP3    H226394   1.256   5.130   1.907  0.4776 -0.5236  0.0392
 1587TIP3   OH226395   1.335   6.171   2.233  0.1027 -0.2712 -0.1115
 1587TIP3    H126396   1.365   6.257   2.205 -0.9464 -0.5738 -2.3846
 1587TIP3    H226397   1.405   6.111   2.207 -0.3914 -0.4131 -1.1868
 1588TIP3   OH226398   6.704   4.330   7.962  0.0155  0.3931 -0.2840
 1588TIP3    H126399   6.656   4.366   7.887 -1.4601 -3.4084 -1.4142
 1588TIP3    H226400   6.651   4.255   7.990  3.8314 -2.3960  0.2351
 1589TIP3   OH226401   4.863   4.175   1.674  0.2937  0.2163 -0.6830
 1589TIP3    H126402   4.776   4.135   1.673  0.1592  0.5032 -0.5095
 1589TIP3    H226403   4.913   4.123   1.736 -0.6313  1.8615  1.5695
 1590TIP3   OH226404   6.196   1.712   8.193 -0.3504 -0.1650 -0.3599
 1590TIP3    H126405   6.264   1.667   8.243  0.6130  0.5390 -1.0127
 1590TIP3    H226406   6.123   1.650   8.192  0.8406 -1.6242 -1.0105
 1591TIP3   OH226407   6.400   5.991   0.805 -0.2632 -0.4383 -0.0304
 1591TIP3    H126408   6.314   5.986   0.846 -0.5311 -1.8589 -0.7192
 1591TIP3    H226409   6.456   6.031   0.871 -1.5624  1.0823  0.2135
 1592TIP3   OH226410   4.878   4.035   7.639  0.0046  0.0315  0.0120
 1592TIP3    H126411   4.911   4.112   7.593  2.3882 -0.4295  0.8021
 1592TIP3    H226412   4.864   3.970   7.570  1.4364  0.0461 -0.3134
 1593TIP3   OH226413   6.724   3.493   7.609 -0.2166  0.0897 -0.3005
 1593TIP3    H126414   6.761   3.573   7.646 -0.4920 -0.3108  0.8868
 1593TIP3    H226415   6.647   3.475   7.664 -0.3210 -0.8311 -0.7332
 1594TIP3   OH226416   3.887   3.780   2.769  0.0276 -0.6486  0.4308
 1594TIP3    H126417   3.832   3.819   2.837  0.3579  0.5376  0.0354
 1594TIP3    H226418   3.839   3.702   2.741 -0.8093 -0.3533  1.0145
 1595TIP3   OH226419   5.687   3.346   6.814 -0.3322 -0.3812  0.1503
 1595TIP3    H126420   5.731   3.430   6.827 -1.1093  0.2688 -1.2442
 1595TIP3    H226421   5.675   3.312   6.903 -0.0276  0.9884  0.7443
 1596TIP3   OH226422   4.150   0.077   8.039 -0.2007 -0.3546 -0.3609
 1596TIP3    H126423   4.073   0.033   8.002  0.2767 -1.2952 -0.2861
 1596TIP3    H226424   4.210   0.005   8.059  0.0304  0.2174  1.1318
 1597TIP3   OH226425   0.846   2.494   7.155  0.0593 -0.0926 -0.4143
 1597TIP3    H126426   0.872   2.448   7.075  0.5417  0.9773 -0.8922
 1597TIP3    H226427   0.888   2.445   7.225  1.7533  0.4050 -1.0253
 1598TIP3   OH226428   3.083   4.539   0.597  0.5595  0.4001  0.4388
 1598TIP3    H126429   3.084   4.475   0.525 -0.5235 -0.6512  1.3036
 1598TIP3    H226430   3.156   4.597   0.579  2.0880 -1.5547  0.0198
 1599TIP3   OH226431   4.302   6.344   7.509 -0.5642 -0.1724  0.1700
 1599TIP3    H126432   4.214   6.308   7.502 -0.4626 -0.2209 -1.1352
 1599TIP3    H226433   4.334   6.312   7.594 -1.3516 -1.1678  0.1159
 1600TIP3   OH226434   4.279   2.242   8.050  0.1676  0.5319  1.4861
 1600TIP3    H126435   4.319   2.251   7.963  0.2255 -0.0681  1.4469
 1600TIP3    H226436   4.185   2.251   8.035  0.0396 -1.1187  1.1180
 1601TIP3   OH226437   1.955   2.025   2.832 -0.0422  0.3228  0.1644
 1601TIP3    H126438   1.882   2.040   2.771 -0.9155  0.1472  1.1372
 1601TIP3    H226439   1.917   2.041   2.918  1.4289  1.5257  0.6207
 1602TIP3   OH226440   5.455   2.811   0.075 -0.4303 -0.0947  0.3527
 1602TIP3    H126441   5.486   2.732   0.029 -0.9500 -0.6435  0.9304
 1602TIP3    H226442   5.489   2.801   0.164 -1.9345 -0.5366  0.9092
 1603TIP3   OH226443   2.339   4.094   7.468  0.7107  0.2175  0.1978
 1603TIP3    H126444   2.289   4.170   7.437  1.4379  0.9386  0.7344
 1603TIP3    H226445   2.398   4.073   7.396 -1.0397 -1.3197 -0.8776
 1604TIP3   OH226446   5.669   5.756   0.897 -0.1918 -0.6072  0.0357
 1604TIP3    H126447   5.585   5.781   0.935 -0.6307 -1.8043 -0.1058
 1604TIP3    H226448   5.650   5.677   0.846  0.9936 -0.8179 -0.1104
 1605TIP3   OH226449   3.109   0.277   1.385 -0.6606 -0.6200 -0.6238
 1605TIP3    H126450   3.177   0.294   1.321 -0.5078  0.2098 -0.2539
 1605TIP3    H226451   3.062   0.360   1.393 -0.2723 -0.5139  0.7991
 1606TIP3   OH226452   0.585   4.790   0.524  0.2049 -0.2549 -0.0073
 1606TIP3    H126453   0.562   4.819   0.435  1.4805 -0.9183 -0.5864
 1606TIP3    H226454   0.681   4.787   0.524  0.2094 -3.2298  0.3704
 1607TIP3   OH226455   6.259   5.725   0.498 -0.3530 -0.7105  0.1869
 1607TIP3    H126456   6.230   5.801   0.448 -1.0635 -1.0748  0.0405
 1607TIP3    H226457   6.325   5.683   0.441  0.0349 -0.2163  0.2672
 1608TIP3   OH226458   5.672   4.588   0.022 -0.1089 -0.6818  0.0700
 1608TIP3    H126459   5.690   4.581   0.115 -0.7560 -2.3870  0.1173
 1608TIP3    H226460   5.639   4.501  -0.002  1.3133 -0.7370 -2.0189
 1609TIP3   OH226461   6.553   3.370   8.409  0.2719  0.6460 -0.4084
 1609TIP3    H126462   6.564   3.364   8.314  0.9560 -1.7471 -0.2525
 1609TIP3    H226463   6.465   3.335   8.425  0.7649 -0.4599 -0.0646
 1610TIP3   OH226464   4.280   5.130   7.050 -0.1411  0.5394 -0.7003
 1610TIP3    H126465   4.359   5.173   7.082 -0.7210  0.9771  0.1818
 1610TIP3    H226466   4.299   5.111   6.958  1.7134 -1.0667 -0.0677
 1611TIP3   OH226467   2.965   3.862   8.424 -0.1708  0.3238  0.2968
 1611TIP3    H126468   3.052   3.874   8.461  0.3125 -1.3162 -0.2218
 1611TIP3    H226469   2.916   3.816   8.492 -1.1632  2.5566  1.2012
 1612TIP3   OH226470   4.507   0.633   7.308  0.1329  0.2739 -0.1817
 1612TIP3    H126471   4.485   0.592   7.224  2.1821  0.9278 -1.0851
 1612TIP3    H226472   4.555   0.712   7.285  1.2009  0.2032  1.6150
 1613TIP3   OH226473   2.323   1.819   6.971 -0.2779  0.0650 -0.2005
 1613TIP3    H126474   2.372   1.833   7.052 -1.4654 -0.4481  0.6251
 1613TIP3    H226475   2.290   1.906   6.947  0.3727  0.2784 -0.3487
 1614TIP3   OH226476   4.266   1.253   7.158 -0.2266  0.4033  0.1466
 1614TIP3    H126477   4.197   1.209   7.108 -0.5524  1.0931 -0.0208
 1614TIP3    H226478   4.344   1.200   7.143 -0.2944  0.6647 -1.2004
 1615TIP3   OH226479   6.049   0.368   1.442 -0.2261  0.2320 -0.2783
 1615TIP3    H126480   6.036   0.415   1.360 -2.0503  0.4295  0.0772
 1615TIP3    H226481   6.117   0.304   1.423 -0.3051  0.5761 -1.8090
 1616TIP3   OH226482   6.356   4.988   0.273 -0.3314  0.0523  0.2695
 1616TIP3    H126483   6.330   4.909   0.321 -1.2415  0.5237  0.5811
 1616TIP3    H226484   6.434   5.019   0.320  0.7500 -1.2790 -0.5650
 1617TIP3   OH226485   2.978   2.972   1.517  0.0282 -0.0126 -0.2357
 1617TIP3    H126486   2.987   3.067   1.531 -0.2066  0.0876 -0.7426
 1617TIP3    H226487   2.920   2.943   1.587  0.3383  0.1709  0.0983
 1618TIP3   OH226488   1.835   1.328   0.722 -0.3241 -0.4146 -0.1824
 1618TIP3    H126489   1.866   1.401   0.776 -1.5136 -1.3415  1.8986
 1618TIP3    H226490   1.872   1.250   0.764 -0.2365 -1.1098 -1.5051
 1619TIP3   OH226491   5.219   1.337   7.602  1.2364  0.2281  0.1505
 1619TIP3    H126492   5.178   1.294   7.527  4.2944  1.1557 -2.2641
 1619TIP3    H226493   5.182   1.426   7.602  1.0163  0.1381 -0.0776
 1620TIP3   OH226494   6.039   5.807   0.757 -0.4617 -0.3279 -0.2374
 1620TIP3    H126495   6.065   5.899   0.758 -1.0203 -0.1567 -0.8158
 1620TIP3    H226496   5.963   5.804   0.699  0.4595 -1.4023 -1.4533
 1621TIP3   OH226497   4.808   3.569   7.991  0.0556 -0.2686 -1.2347
 1621TIP3    H126498   4.832   3.661   8.001  0.7662 -0.3039 -2.4813
 1621TIP3    H226499   4.888   3.527   7.959  0.2224 -1.6394  0.7927
 1622TIP3   OH226500   1.326   4.812   1.903  0.1570  0.2148 -0.0760
 1622TIP3    H126501   1.353   4.904   1.894  2.0872 -0.2375  0.5714
 1622TIP3    H226502   1.251   4.815   1.962  1.7318  1.2181  1.9942
 1623TIP3   OH226503   6.345   5.638   0.749 -0.1092 -0.6000 -0.1454
 1623TIP3    H126504   6.265   5.606   0.790 -0.8313 -0.0745 -1.1020
 1623TIP3    H226505   6.317   5.673   0.665  1.0583  0.0201 -0.3070
 1624TIP3   OH226506   1.129   5.406   1.204  0.4363  0.0316 -0.2200
 1624TIP3    H126507   1.138   5.500   1.184  0.1257  0.3227  0.9010
 1624TIP3    H226508   1.201   5.388   1.264 -0.6235  0.0512  1.1278
 1625TIP3   OH226509   4.689   2.592   6.667  0.2091 -0.0317  0.4008
 1625TIP3    H126510   4.723   2.618   6.753  1.5593  0.7860 -0.3550
 1625TIP3    H226511   4.724   2.504   6.654  0.4620  0.0632  0.4392
 1626TIP3   OH226512   1.129   3.928   1.078 -0.5171 -0.1285 -0.4045
 1626TIP3    H126513   1.157   3.842   1.109  1.3174  0.6119  0.1395
 1626TIP3    H226514   1.211   3.977   1.067 -1.5323  1.6463 -0.3881
 1627TIP3   OH226515   5.088   4.324   2.226 -0.3925 -0.1266 -0.2670
 1627TIP3    H126516   5.020   4.354   2.286 -1.5052 -1.5934 -0.7510
 1627TIP3    H226517   5.114   4.239   2.261  0.7513  0.1244 -0.4623
 1628TIP3   OH226518   2.135   1.159   8.537 -0.5516 -0.0804  0.1835
 1628TIP3    H126519   2.140   1.223   8.608 -1.1244 -1.4557  1.4880
 1628TIP3    H226520   2.145   1.212   8.457 -0.7646  1.5966  1.2243
 1629TIP3   OH226521   6.198   1.278   2.023  0.6289  0.4532  0.1818
 1629TIP3    H126522   6.107   1.303   2.038  0.9420  1.5737  0.2460
 1629TIP3    H226523   6.247   1.360   2.022  1.7564 -0.1774  0.8727
 1630TIP3   OH226524   0.423   0.974   8.522 -0.5996  0.3175  0.2207
 1630TIP3    H126525   0.519   0.966   8.522 -0.4555  0.8236 -2.6824
 1630TIP3    H226526   0.408   1.068   8.536 -0.8096  0.0289  2.2429
 1631TIP3   OH226527   6.768   1.443   7.404 -0.1273 -0.2613  0.1488
 1631TIP3    H126528   6.805   1.527   7.429 -0.6806 -0.1309  0.5402
 1631TIP3    H226529   6.831   1.407   7.341 -0.0620  0.5871 -0.2752
 1632TIP3   OH226530   0.127   2.197   3.050 -0.2806 -0.0557 -0.2574
 1632TIP3    H126531   0.198   2.247   3.010 -1.5013  2.4275  0.4490
 1632TIP3    H226532   0.149   2.194   3.143 -0.2130 -0.8732 -0.2950
 1633TIP3   OH226533   1.716   5.334   7.761  0.0140 -0.6153  0.5229
 1633TIP3    H126534   1.786   5.284   7.804 -1.3230 -1.3396  1.9507
 1633TIP3    H226535   1.663   5.368   7.832  0.1934  1.9489 -0.4536
 1634TIP3   OH226536   3.897   2.641   1.030 -0.4109  0.3547 -0.8773
 1634TIP3    H126537   3.974   2.584   1.035 -0.6614 -0.1132 -2.0022
 1634TIP3    H226538   3.833   2.589   0.982 -1.1281  1.0799 -0.7165
 1635TIP3   OH226539   4.876   2.920   7.635  0.1218  0.5615  0.3551
 1635TIP3    H126540   4.961   2.959   7.618  0.0821  0.3240 -0.4413
 1635TIP3    H226541   4.872   2.844   7.577 -1.4790  1.7926 -1.3115
 1636TIP3   OH226542   3.853   2.572   2.508 -0.1249  0.4929 -0.7425
 1636TIP3    H126543   3.828   2.664   2.508 -0.3572  0.4309 -0.6491
 1636TIP3    H226544   3.770   2.525   2.516  0.0997  0.3089  1.1265
 1637TIP3   OH226545   0.448   6.254   8.663 -0.1023  0.2499 -0.3412
 1637TIP3    H126546   0.353   6.255   8.654 -0.0781  0.9664 -0.5397
 1637TIP3    H226547   0.481   6.271   8.574  0.2185 -0.3669 -0.3493
 1638TIP3   OH226548   5.258   4.349   8.663 -0.8230 -0.4981  0.6636
 1638TIP3    H126549   5.232   4.422   8.720 -1.7407 -0.2318 -0.0670
 1638TIP3    H226550   5.331   4.384   8.613 -2.4351  0.6511 -1.0443
 1639TIP3   OH226551   2.436   5.424   0.966  0.1728 -0.2686  0.3813
 1639TIP3    H126552   2.362   5.371   0.994 -0.1102 -0.7902 -1.2109
 1639TIP3    H226553   2.415   5.449   0.876  0.2340  2.7249  1.1055
 1640TIP3   OH226554   6.616   3.414   7.372 -0.3187 -0.1511 -0.3318
 1640TIP3    H126555   6.656   3.468   7.440  0.4324 -0.2326 -0.7006
 1640TIP3    H226556   6.600   3.474   7.299  0.6417 -0.4338 -0.7933
 1641TIP3   OH226557   0.161   5.030   7.105  0.6662  0.2178  0.4959
 1641TIP3    H126558   0.088   4.970   7.118 -0.4737  0.6251 -2.9539
 1641TIP3    H226559   0.229   4.977   7.063  0.5082  0.7948 -0.5290
 1642TIP3   OH226560   0.239   3.010   7.555  0.0278 -0.3165  0.2520
 1642TIP3    H126561   0.331   2.993   7.577  0.2827 -1.1127 -1.2980
 1642TIP3    H226562   0.190   2.951   7.612  0.4060  0.7403  1.7207
 1643TIP3   OH226563   2.737   4.386   0.537  0.2506  0.1034  0.3361
 1643TIP3    H126564   2.706   4.364   0.449 -2.3236 -1.1450  1.4277
 1643TIP3    H226565   2.831   4.366   0.536  0.1485 -0.4760 -1.9358
 1644TIP3   OH226566   6.262   1.255   1.617  0.0611 -0.1272  0.2073
 1644TIP3    H126567   6.255   1.349   1.602 -1.8472 -0.0307  1.2662
 1644TIP3    H226568   6.309   1.248   1.701 -1.6875  0.0467  1.2595
 1645TIP3   OH226569   4.178   3.197   0.359  0.1342 -0.2583 -0.2377
 1645TIP3    H126570   4.247   3.253   0.394  0.6988 -0.9314 -0.2536
 1645TIP3    H226571   4.150   3.145   0.434 -1.1810  0.8138  0.0514
 1646TIP3   OH226572   5.212   3.950   7.556 -1.3790 -0.1032 -0.4685
 1646TIP3    H126573   5.146   3.986   7.616 -1.5040 -1.0436 -0.0312
 1646TIP3    H226574   5.195   3.856   7.554  0.1986 -0.4240 -0.0403
 1647TIP3   OH226575   5.134   6.733   0.596 -0.2717  0.4067  0.5298
 1647TIP3    H126576   5.141   6.645   0.635  0.0826  0.5344  0.7539
 1647TIP3    H226577   5.096   6.718   0.510  0.6913 -0.0598  0.1802
 1648TIP3   OH226578   4.278   1.482   8.409  0.1427  0.4099 -0.0390
 1648TIP3    H126579   4.191   1.454   8.382  0.8515 -1.5863 -0.4450
 1648TIP3    H226580   4.276   1.479   8.504  0.3738 -1.8532 -0.0548
 1649TIP3   OH226581   0.369   2.463   7.763  0.1831  0.1549  0.0808
 1649TIP3    H126582   0.458   2.498   7.775  0.0383  0.3842  0.4916
 1649TIP3    H226583   0.322   2.531   7.716  0.9127 -0.9753 -2.4735
 1650TIP3   OH226584   0.808   3.937   8.109 -0.3042 -0.7014 -0.9267
 1650TIP3    H126585   0.894   3.894   8.106  0.4303  0.7486 -3.2943
 1650TIP3    H226586   0.753   3.885   8.051 -0.0668  0.1454 -1.9498
 1651TIP3   OH226587   2.153   3.892   0.991 -0.3189 -0.3575  0.3424
 1651TIP3    H126588   2.211   3.833   0.943  0.4237 -0.7486  1.6761
 1651TIP3    H226589   2.152   3.858   1.080 -2.2734 -0.1042  0.4693
 1652TIP3   OH226590   5.018   5.733   1.615  0.4311  0.3982  0.6405
 1652TIP3    H126591   5.017   5.666   1.683 -0.4909  0.4720  0.7232
 1652TIP3    H226592   4.950   5.795   1.642  0.4589  0.7376 -0.0373
 1653TIP3   OH226593   4.754   1.497   1.300 -0.5296  0.1617 -0.2669
 1653TIP3    H126594   4.751   1.534   1.211  1.1044 -1.4097 -1.0486
 1653TIP3    H226595   4.663   1.480   1.322 -0.9180 -0.6748 -2.2420
 1654TIP3   OH226596   0.353   4.632   7.811 -0.2243 -0.6314  0.2838
 1654TIP3    H126597   0.295   4.684   7.756  1.5271 -0.1520 -1.1879
 1654TIP3    H226598   0.433   4.684   7.818  0.2949 -1.5523  1.7223
 1655TIP3   OH226599   5.885   4.346   2.538  0.3281 -0.2041 -0.1960
 1655TIP3    H126600   5.958   4.319   2.482  0.5084 -0.9795  0.3992
 1655TIP3    H226601   5.886   4.442   2.534 -0.4567 -0.2262 -2.5144
 1656TIP3   OH226602   4.848   0.355   8.147 -0.6833 -0.1155  0.0467
 1656TIP3    H126603   4.840   0.433   8.092  0.1333 -0.1866 -0.1942
 1656TIP3    H226604   4.782   0.295   8.113 -1.7897  0.7190  0.6815
 1657TIP3   OH226605   1.578   1.497   0.550  0.6087  0.5440  0.3395
 1657TIP3    H126606   1.490   1.494   0.512  1.4782  3.1600 -2.2354
 1657TIP3    H226607   1.566   1.535   0.637 -0.8498  0.1453  0.3397
 1658TIP3   OH226608   5.372   5.685   7.282  0.1386 -0.3457 -0.4561
 1658TIP3    H126609   5.466   5.695   7.269  0.4014 -0.4185  1.1994
 1658TIP3    H226610   5.362   5.661   7.374 -1.5223 -0.0518 -0.5181
 1659TIP3   OH226611   3.151   2.641   7.940 -0.5878  0.9392  0.2139
 1659TIP3    H126612   3.098   2.636   8.019 -3.1943 -1.8434 -1.4665
 1659TIP3    H226613   3.091   2.677   7.874  0.4856  0.3078 -1.1683
 1660TIP3   OH226614   6.296   6.595   1.121 -0.4946 -1.0324 -0.1979
 1660TIP3    H126615   6.243   6.568   1.047 -1.0528 -0.4798 -0.0030
 1660TIP3    H226616   6.384   6.562   1.101 -0.7581 -1.3455 -0.8465
 1661TIP3   OH226617   4.050   5.508   8.849 -0.0623  0.3282 -0.0443
 1661TIP3    H126618   3.974   5.487   8.795 -0.3666  2.1200 -0.3670
 1661TIP3    H226619   4.093   5.580   8.804  1.4130 -0.1451  0.5437
 1662TIP3   OH226620   5.160   1.386   2.828  0.3052  0.6991  1.2160
 1662TIP3    H126621   5.084   1.438   2.801 -0.4496  0.2590  2.4213
 1662TIP3    H226622   5.145   1.300   2.790  0.1604  0.5965  1.5000
 1663TIP3   OH226623   1.938   2.999   8.666  0.4154  0.3589 -0.1099
 1663TIP3    H126624   1.987   3.060   8.611  0.0816  1.2084  0.5305
 1663TIP3    H226625   1.890   3.054   8.727  0.3128 -0.5516  0.6552
 1664TIP3   OH226626   4.664   6.597   8.808 -0.2063  0.2213 -0.9209
 1664TIP3    H126627   4.645   6.679   8.762  0.4693 -1.3995 -4.4411
 1664TIP3    H226628   4.633   6.529   8.748  0.9139 -2.1366  1.0308
 1665TIP3   OH226629   1.327   2.208   8.280  0.3236 -0.6704 -0.2984
 1665TIP3    H126630   1.322   2.214   8.376  0.1356  0.6365 -0.3721
 1665TIP3    H226631   1.395   2.143   8.264  1.5060  0.2674  0.7390
 1666TIP3   OH226632   6.113   6.399   2.720  0.7620  0.0802  0.2404
 1666TIP3    H126633   6.073   6.453   2.653  0.9546 -0.1478 -0.0631
 1666TIP3    H226634   6.085   6.438   2.803  0.8636  0.6146  0.0280
 1667TIP3   OH226635   0.665   2.725   1.244  0.3433  0.1111 -0.9276
 1667TIP3    H126636   0.689   2.696   1.332  0.6267 -2.5566 -1.8033
 1667TIP3    H226637   0.734   2.787   1.220 -0.0120  1.2873  0.8729
 1668TIP3   OH226638   2.622   6.633   7.784  0.3883 -0.2379 -0.2043
 1668TIP3    H126639   2.591   6.588   7.863  1.2114  0.6176  0.6448
 1668TIP3    H226640   2.566   6.601   7.714 -0.7975 -0.5363  0.8419
 1669TIP3   OH226641   3.489   6.340   1.245  0.0092  0.5873  0.2256
 1669TIP3    H126642   3.469   6.415   1.190  0.5327  2.2766  2.2238
 1669TIP3    H226643   3.403   6.305   1.271 -0.2666 -0.6423 -2.0291
 1670TIP3   OH226644   3.701   3.674   7.059  0.4426 -0.0113  0.4942
 1670TIP3    H126645   3.702   3.767   7.082 -1.4459  0.0117  0.6998
 1670TIP3    H226646   3.617   3.643   7.094  1.5008 -2.0432  1.3742
 1671TIP3   OH226647   2.328   4.308   7.884  0.3426  0.0371 -0.1062
 1671TIP3    H126648   2.282   4.247   7.826 -1.1387  1.8203 -0.9014
 1671TIP3    H226649   2.297   4.286   7.971  2.9564 -2.9967  0.2439
 1672TIP3   OH226650   2.112   3.467   0.481 -0.0547  0.4456 -0.1288
 1672TIP3    H126651   2.167   3.526   0.533 -0.8761 -0.0494  1.3757
 1672TIP3    H226652   2.171   3.397   0.452  0.4279  0.7521  0.1215
 1673TIP3   OH226653   2.556   2.567   1.372 -0.3366 -0.1385  0.1034
 1673TIP3    H126654   2.471   2.610   1.384 -0.4369  0.0095 -1.0262
 1673TIP3    H226655   2.613   2.609   1.437 -0.8894  0.4345  0.2285
 1674TIP3   OH226656   0.684   5.082   7.327 -0.2498 -0.1142 -0.0596
 1674TIP3    H126657   0.767   5.083   7.376  0.1095 -1.0902 -0.6262
 1674TIP3    H226658   0.698   5.020   7.256 -1.1714  0.3953 -0.7123
 1675TIP3   OH226659   4.655   5.602   1.607  0.7678  0.1266 -0.5704
 1675TIP3    H126660   4.689   5.666   1.670  1.2808 -0.0447 -0.6713
 1675TIP3    H226661   4.680   5.637   1.522  0.6685  0.0089 -0.6478
 1676TIP3   OH226662   2.211   6.265   2.494 -0.2783  0.2623  0.1880
 1676TIP3    H126663   2.138   6.231   2.443  0.4964 -0.0793 -0.7249
 1676TIP3    H226664   2.249   6.189   2.537  1.1036 -0.0215 -1.4028
 1677TIP3   OH226665   2.057   0.682   2.284 -0.7754  0.4131  0.2065
 1677TIP3    H126666   2.014   0.663   2.367 -0.4896 -0.2400  0.2052
 1677TIP3    H226667   2.008   0.756   2.248 -1.4058  0.1773  0.5708
 1678TIP3   OH226668   5.670   5.725   2.018 -0.1935  0.4896  0.0092
 1678TIP3    H126669   5.761   5.696   2.008 -0.3873  0.7289 -3.5727
 1678TIP3    H226670   5.629   5.656   2.071  1.6301 -0.5890  0.1111
 1679TIP3   OH226671   5.333   3.344   6.809  0.0180 -0.3370 -0.3532
 1679TIP3    H126672   5.299   3.428   6.837 -1.2559 -0.1706 -2.2237
 1679TIP3    H226673   5.264   3.281   6.832  1.3144 -1.0829  1.8266
 1680TIP3   OH226674   5.902   2.819   8.539 -0.0093 -0.1031  0.0875
 1680TIP3    H126675   5.945   2.754   8.484 -1.1629 -0.8616  0.0675
 1680TIP3    H226676   5.809   2.814   8.516 -0.4090  0.1195  1.5317
 1681TIP3   OH226677   1.426   1.570   2.118  0.2570 -0.1946 -0.5028
 1681TIP3    H126678   1.409   1.510   2.046 -2.2213  0.0975 -0.2494
 1681TIP3    H226679   1.487   1.523   2.175  0.0760 -1.5666 -1.4077
 1682TIP3   OH226680   3.140   3.978   1.579 -0.0464  0.1962 -0.3443
 1682TIP3    H126681   3.236   3.973   1.577 -0.0346 -0.5579  0.8961
 1682TIP3    H226682   3.121   4.041   1.647 -0.4395  0.3155 -0.5635
 1683TIP3   OH226683   1.755   1.743   0.042  0.1779 -0.1812  0.4493
 1683TIP3    H126684   1.683   1.776   0.096  0.9547  0.7720  0.9208
 1683TIP3    H226685   1.828   1.732   0.102  0.0765 -2.4642  0.2413
 1684TIP3   OH226686   3.822   0.684   0.489  0.1084 -0.0343 -0.3952
 1684TIP3    H126687   3.731   0.686   0.518  0.9257  1.0254  2.4176
 1684TIP3    H226688   3.838   0.771   0.453  0.1817  0.0343 -0.2015
 1685TIP3   OH226689   3.532   5.904   6.913 -0.1301 -0.0882  0.3307
 1685TIP3    H126690   3.484   5.872   6.989 -0.3202 -0.7198 -0.0519
 1685TIP3    H226691   3.620   5.920   6.946 -0.3627  0.1975  0.8201
 1686TIP3   OH226692   1.716   2.808   2.667 -0.0735  0.2146  0.2276
 1686TIP3    H126693   1.668   2.857   2.734  0.1080 -0.6705  1.0322
 1686TIP3    H226694   1.774   2.751   2.717  0.0655 -0.4692 -0.6965
 1687TIP3   OH226695   0.734   0.826   8.734 -0.4637  0.0638  0.1767
 1687TIP3    H126696   0.676   0.765   8.779 -1.4322 -1.3173 -2.7094
 1687TIP3    H226697   0.820   0.785   8.738 -0.3414  0.3977  1.4417
 1688TIP3   OH226698   4.141   3.709   1.781  0.1241  0.0998 -0.2003
 1688TIP3    H126699   4.183   3.764   1.848  0.5234 -0.5553  0.0928
 1688TIP3    H226700   4.049   3.710   1.804  0.2926 -0.3311  0.5277
 1689TIP3   OH226701   1.326   4.636   0.903 -0.0715  0.3520  0.0717
 1689TIP3    H126702   1.382   4.676   0.837 -0.8642  1.0504 -0.1971
 1689TIP3    H226703   1.275   4.570   0.855 -1.5967  1.7522 -0.3431
 1690TIP3   OH226704   4.961   5.373   1.863  0.1429  0.1301 -0.2924
 1690TIP3    H126705   4.922   5.384   1.776 -0.3981  1.9638  0.1526
 1690TIP3    H226706   4.891   5.334   1.915  0.0855  0.1107 -0.3830
 1691TIP3   OH226707   3.789   6.709   0.080  0.3021  0.3598  0.1671
 1691TIP3    H126708   3.859   6.680   0.139 -0.3665  0.4114  0.9990
 1691TIP3    H226709   3.740   6.774   0.130  0.7060  1.6312 -1.0437
 1692TIP3   OH226710   4.584   1.261   8.083 -0.0534  0.0358  0.8865
 1692TIP3    H126711   4.671   1.221   8.081 -0.3545 -0.6417  0.8579
 1692TIP3    H226712   4.547   1.233   8.166 -0.4133 -0.0581  0.6983
 1693TIP3   OH226713   3.001   0.035   7.717  0.2346 -0.1604 -0.4316
 1693TIP3    H126714   2.967   0.101   7.777  1.0971 -0.0954 -0.0096
 1693TIP3    H226715   2.956   0.052   7.634 -0.8179 -0.1246  0.1331
 1694TIP3   OH226716   1.158   6.149   1.946 -0.0857  0.0747  0.4696
 1694TIP3    H126717   1.151   6.057   1.974 -0.3491  0.1523  0.6665
 1694TIP3    H226718   1.238   6.180   1.987 -0.6075  0.2610  1.3753
 1695TIP3   OH226719   2.184   4.003   6.636  0.3424 -0.3961  0.2077
 1695TIP3    H126720   2.196   4.056   6.558  2.3454 -0.6747  0.2838
 1695TIP3    H226721   2.132   4.058   6.695  0.3565  0.5230 -0.6195
 1696TIP3   OH226722   2.048   4.513   8.556  0.1364  0.1181  0.2550
 1696TIP3    H126723   1.997   4.435   8.579 -0.5323  0.4723 -0.0169
 1696TIP3    H226724   2.131   4.478   8.525  0.3559 -0.4430  1.3890
 1697TIP3   OH226725   4.641   0.857   6.958  0.2109  0.2427  0.0369
 1697TIP3    H126726   4.559   0.893   6.925 -1.3730 -2.1907  0.9921
 1697TIP3    H226727   4.675   0.924   7.018 -2.0646  0.5906  1.0186
 1698TIP3   OH226728   4.609   6.689   7.657  0.2591  0.0135  0.4553
 1698TIP3    H126729   4.669   6.615   7.651 -1.7715 -1.9390  2.3498
 1698TIP3    H226730   4.532   6.661   7.607  0.0318  1.5237 -0.0894
 1699TIP3   OH226731   3.899   5.963   8.511  0.3178  0.0224  0.5335
 1699TIP3    H126732   3.886   5.947   8.418  1.1695  0.2561  0.3679
 1699TIP3    H226733   3.836   6.032   8.533  0.3221  0.1738  0.0683
 1700TIP3   OH226734   5.424   0.126   7.559 -0.0781 -0.2587 -0.2408
 1700TIP3    H126735   5.499   0.127   7.501  1.3580  0.1095  1.5205
 1700TIP3    H226736   5.400   0.033   7.567  1.1274 -0.5413  0.2826
 1701TIP3   OH226737   4.428   3.418   7.003  0.2221  0.0295 -0.4612
 1701TIP3    H126738   4.347   3.379   6.970  0.7802  0.6491 -2.7733
 1701TIP3    H226739   4.441   3.495   6.948  0.7142  1.8304  2.0182
 1702TIP3   OH226740   1.694   3.413   2.533  0.4992 -0.0008 -0.1263
 1702TIP3    H126741   1.692   3.341   2.469 -0.1596  0.0060 -0.1200
 1702TIP3    H226742   1.774   3.399   2.582  1.0509  0.0194 -0.9916
 1703TIP3   OH226743   5.462   4.048   1.081  0.3007 -0.2467 -0.1225
 1703TIP3    H126744   5.440   4.100   1.003  0.0638 -0.3057 -0.0964
 1703TIP3    H226745   5.486   4.113   1.147 -0.6858 -0.1258  0.1288
 1704TIP3   OH226746   0.002   1.959   0.396 -0.3969 -0.1528  1.1461
 1704TIP3    H126747  -0.040   1.994   0.475  1.3199  0.5502  1.7954
 1704TIP3    H226748   0.009   2.034   0.338 -0.2717 -0.3235  0.9401
 1705TIP3   OH226749   2.288   0.473   0.650  0.4736  0.7933  0.2790
 1705TIP3    H126750   2.286   0.486   0.745 -0.8178 -0.4350  0.4580
 1705TIP3    H226751   2.295   0.378   0.640 -1.2678  0.7473 -0.8326
 1706TIP3   OH226752   4.021   4.577   0.269 -0.4426 -0.3505  0.5772
 1706TIP3    H126753   4.101   4.615   0.306 -0.5935  1.0018 -0.4174
 1706TIP3    H226754   3.964   4.652   0.251 -1.6662 -1.2322  0.6045
 1707TIP3   OH226755   0.049   4.335   7.045 -0.2844  0.3548  0.5206
 1707TIP3    H126756  -0.029   4.322   7.099 -1.0664  2.3611 -0.0463
 1707TIP3    H226757   0.099   4.403   7.090 -1.0448  2.2187 -1.2984
 1708TIP3   OH226758   4.075   3.012   7.994  0.3645 -0.2632  0.1370
 1708TIP3    H126759   4.076   2.917   8.004  0.7907 -0.4337 -1.2558
 1708TIP3    H226760   4.164   3.034   7.966  0.7133  0.7474  1.8982
 1709TIP3   OH226761   2.717   1.003   2.636  0.1955  0.9022  0.1179
 1709TIP3    H126762   2.705   1.090   2.598 -1.2857  0.8621  0.4137
 1709TIP3    H226763   2.630   0.962   2.630  0.1212  0.5322  2.5857
 1710TIP3   OH226764   5.305   5.606   0.222 -0.0058 -0.0382  0.5043
 1710TIP3    H126765   5.334   5.683   0.271 -0.0177 -0.2874  0.9125
 1710TIP3    H226766   5.384   5.553   0.211 -0.0710 -0.1464  0.5576
 1711TIP3   OH226767   5.281   0.241   1.245 -0.0341 -0.5799  0.1594
 1711TIP3    H126768   5.225   0.228   1.169  0.5968 -5.6079  0.1768
 1711TIP3    H226769   5.367   0.209   1.218  1.4340  1.6416  1.7945
 1712TIP3   OH226770   0.970   0.872   1.041  0.6199 -0.7373  0.1808
 1712TIP3    H126771   1.064   0.875   1.062  0.4124  1.4090  1.0731
 1712TIP3    H226772   0.961   0.927   0.963 -0.2185  1.6576  1.8467
 1713TIP3   OH226773   4.114   3.448   7.662 -0.0016  0.5047 -1.0249
 1713TIP3    H126774   4.153   3.534   7.678 -1.7913  1.1425  0.3004
 1713TIP3    H226775   4.154   3.390   7.727  1.1193  0.3264 -1.8432
 1714TIP3   OH226776   6.571   4.463   1.521  0.0029 -0.2190 -0.6644
 1714TIP3    H126777   6.491   4.412   1.533 -0.9160  0.7944 -2.1520
 1714TIP3    H226778   6.545   4.553   1.542 -0.1574  0.6482 -4.0232
 1715TIP3   OH226779   4.232   0.541   8.425  0.1785  0.2914 -0.2925
 1715TIP3    H126780   4.296   0.510   8.361 -0.6242 -0.6690 -0.6548
 1715TIP3    H226781   4.178   0.603   8.375 -0.2858 -0.2627 -0.4931
 1716TIP3   OH226782   4.472   3.052   1.953 -0.4704  0.7686 -0.1663
 1716TIP3    H126783   4.415   2.988   1.910 -0.2254  1.2150 -1.1888
 1716TIP3    H226784   4.424   3.135   1.946 -0.9144  0.6928  1.3949
 1717TIP3   OH226785   5.369   1.789   0.294  0.6003  0.0622 -0.4468
 1717TIP3    H126786   5.333   1.855   0.234  0.7434  0.6461  0.1087
 1717TIP3    H226787   5.442   1.832   0.337  2.0188 -1.1304 -1.5743
 1718TIP3   OH226788   0.546   6.793   2.302  0.2273 -0.1710  0.3410
 1718TIP3    H126789   0.603   6.865   2.327  1.4619 -0.7385 -0.7095
 1718TIP3    H226790   0.582   6.717   2.349  1.8998 -1.0235 -2.1112
 1719TIP3   OH226791   5.653   0.583   8.303  0.5752 -0.3567 -0.8763
 1719TIP3    H126792   5.670   0.667   8.346  2.2634 -0.4216 -1.3470
 1719TIP3    H226793   5.596   0.536   8.364 -0.6770  1.2274 -0.7423
 1720TIP3   OH226794   3.375   5.597   1.078 -0.0914  0.3247 -0.1098
 1720TIP3    H126795   3.326   5.639   1.149 -1.8319  0.6598 -1.4323
 1720TIP3    H226796   3.363   5.503   1.093 -2.8911  0.3656 -1.4380
 1721TIP3   OH226797   5.460   0.848   8.760  0.1707 -0.7012 -0.5949
 1721TIP3    H126798   5.435   0.878   8.673  1.0790 -0.3692 -0.7509
 1721TIP3    H226799   5.467   0.928   8.812  1.2237 -0.7472 -0.6475
 1722TIP3   OH226800   6.585   2.075   1.454  0.0251 -0.0817 -0.5843
 1722TIP3    H126801   6.518   2.142   1.463  0.1185 -0.0770  0.1582
 1722TIP3    H226802   6.636   2.101   1.377  0.7837  1.3437  0.3654
 1723TIP3   OH226803   5.435   1.167   7.615  0.2273 -0.0074  0.1643
 1723TIP3    H126804   5.379   1.245   7.611  0.9333  0.6476  2.0441
 1723TIP3    H226805   5.419   1.131   7.702  0.1094 -1.8656 -0.5755
 1724TIP3   OH226806   6.528   3.023   2.363 -0.1176 -0.4083  0.1312
 1724TIP3    H126807   6.442   3.020   2.405 -0.3623  0.2637 -0.3137
 1724TIP3    H226808   6.541   3.115   2.341  1.0124 -0.3943  0.7993
 1725TIP3   OH226809   5.404   4.960   7.659 -0.3519  0.0731  0.0800
 1725TIP3    H126810   5.458   4.989   7.733 -0.3467  2.1709 -0.6817
 1725TIP3    H226811   5.456   4.891   7.617  0.2766 -0.1611  1.2030
 1726TIP3   OH226812   3.007   2.735   2.239  0.5417 -0.5544  0.1973
 1726TIP3    H126813   3.009   2.799   2.310 -1.1452 -0.0406 -0.1681
 1726TIP3    H226814   2.954   2.777   2.171  2.2152 -0.9726 -1.4532
 1727TIP3   OH226815   4.119   0.571   1.225  0.2179 -0.0267  0.8567
 1727TIP3    H126816   4.198   0.516   1.228 -0.1005 -0.4509  1.8106
 1727TIP3    H226817   4.088   0.563   1.135  0.3659 -1.1535  0.8873
 1728TIP3   OH226818   1.942   4.019   2.208  0.0036 -0.3424  0.5815
 1728TIP3    H126819   2.006   4.073   2.253  1.8241 -1.2991 -0.7242
 1728TIP3    H226820   1.906   3.962   2.276 -0.4689  1.0840  1.5728
 1729TIP3   OH226821   6.164   0.744   1.270  0.1958  0.2724 -0.1422
 1729TIP3    H126822   6.125   0.740   1.182 -0.0190 -0.4761 -0.0157
 1729TIP3    H226823   6.118   0.816   1.313  1.1176  1.4429 -1.0264
 1730TIP3   OH226824   0.151   5.021   8.483  0.0003  0.0936  0.3418
 1730TIP3    H126825   0.164   5.086   8.414 -2.1893 -0.1430 -0.3656
 1730TIP3    H226826   0.171   4.937   8.441 -2.0622 -0.1249 -0.2970
 1731TIP3   OH226827   3.297   1.521   1.820  0.6608 -0.3286 -0.5249
 1731TIP3    H126828   3.228   1.495   1.759 -0.7607 -0.4100  1.0443
 1731TIP3    H226829   3.294   1.617   1.820 -0.2656 -0.3464  0.3993
 1732TIP3   OH226830   0.089   6.666   8.660 -0.3061  0.4033 -0.4515
 1732TIP3    H126831   0.136   6.742   8.626  0.4630 -0.4955 -1.4499
 1732TIP3    H226832   0.111   6.665   8.754 -0.9544  1.8309 -0.2501
 1733TIP3   OH226833   0.776   3.308   1.605  0.2322 -0.6338  0.0067
 1733TIP3    H126834   0.807   3.239   1.547  1.2197 -0.3482  0.1809
 1733TIP3    H226835   0.780   3.270   1.693 -0.4778 -0.7867 -0.0185
 1734TIP3   OH226836   5.774   3.896   8.329 -0.0406 -0.8538 -0.3587
 1734TIP3    H126837   5.784   3.880   8.235  2.4388 -0.8897 -0.1657
 1734TIP3    H226838   5.848   3.850   8.369  0.8805  1.8099  1.2786
 1735TIP3   OH226839   4.074   1.655   1.650 -0.0723  0.3830  0.0553
 1735TIP3    H126840   4.063   1.724   1.716 -0.0145  0.2305  0.2239
 1735TIP3    H226841   4.005   1.591   1.670 -0.9091  0.9664 -0.8349
 1736TIP3   OH226842   3.666   0.267   7.362 -0.1260 -0.0276  0.1896
 1736TIP3    H126843   3.588   0.211   7.358 -0.3189  0.2623 -0.2180
 1736TIP3    H226844   3.631   0.356   7.364  0.1887  0.2719 -2.7824
 1737TIP3   OH226845   2.281   4.168   1.730  0.3768  0.2743 -0.0654
 1737TIP3    H126846   2.289   4.124   1.815 -3.1757 -0.8560 -0.1505
 1737TIP3    H226847   2.288   4.098   1.665  0.3883  0.7270 -0.5670
 1738TIP3   OH226848   5.089   2.468   0.936 -0.3110  0.7244  0.2000
 1738TIP3    H126849   5.162   2.410   0.913 -0.1306  1.0678 -0.1033
 1738TIP3    H226850   5.054   2.432   1.017  0.7976  1.1017  0.8677
 1739TIP3   OH226851   3.544   5.776   0.595  0.2023  0.2620 -0.1908
 1739TIP3    H126852   3.513   5.691   0.565 -0.8387  0.6832 -0.3865
 1739TIP3    H226853   3.521   5.779   0.688  1.3006 -0.1163  0.1106
 1740TIP3   OH226854   6.323   3.619   1.693 -0.2997 -0.1731 -0.1616
 1740TIP3    H126855   6.300   3.579   1.609  0.7101  0.8658 -0.9522
 1740TIP3    H226856   6.411   3.587   1.712 -0.7358 -0.8665  0.8172
 1741TIP3   OH226857   4.862   6.297   0.023 -1.0842 -0.2369 -0.5352
 1741TIP3    H126858   4.797   6.236  -0.013  2.0093 -3.8738 -0.5308
 1741TIP3    H226859   4.914   6.324  -0.053 -0.7359  0.2344 -0.1337
 1742TIP3   OH226860   6.465   2.151   0.296 -0.0107 -0.0398 -0.0826
 1742TIP3    H126861   6.535   2.191   0.349 -0.4262  1.7093 -0.7917
 1742TIP3    H226862   6.509   2.127   0.214 -0.0300  0.2143 -0.1703
 1743TIP3   OH226863   3.438   3.756   2.450 -0.6434  0.4745  0.0427
 1743TIP3    H126864   3.351   3.720   2.471  1.0214 -1.7683  4.1220
 1743TIP3    H226865   3.448   3.831   2.509  1.0245 -0.7832  1.4463
 1744TIP3   OH226866   0.309   3.942   7.416 -0.5740 -0.0030 -0.1919
 1744TIP3    H126867   0.350   3.869   7.463  0.0101 -0.9497 -2.0747
 1744TIP3    H226868   0.380   4.002   7.397 -0.4281 -0.5292 -1.4350
 1745TIP3   OH226869   6.003   1.380   1.414 -0.1911  0.0582 -0.4151
 1745TIP3    H126870   6.012   1.400   1.321  2.9969 -2.4121 -0.8286
 1745TIP3    H226871   6.086   1.409   1.453  0.1883 -2.4075  0.8268
 1746TIP3   OH226872   2.606   6.382   0.450  0.0645 -0.1187 -0.2586
 1746TIP3    H126873   2.606   6.456   0.510 -1.6997  0.4855 -0.9251
 1746TIP3    H226874   2.698   6.363   0.434  0.5568  0.5342  1.6004
 1747TIP3   OH226875   4.532   1.549   8.078  0.4777 -0.4838 -0.5324
 1747TIP3    H126876   4.459   1.507   8.123  0.0875 -0.9596 -1.5941
 1747TIP3    H226877   4.580   1.477   8.037 -0.8917  0.1110 -3.4177
 1748TIP3   OH226878   5.926   1.188   1.104 -0.2167 -0.4341 -0.0130
 1748TIP3    H126879   5.854   1.241   1.137  0.8887  1.9669 -1.2136
 1748TIP3    H226880   5.948   1.129   1.176 -4.2008 -2.3267 -0.0421
 1749TIP3   OH226881   2.281   3.872   2.175  0.4557 -0.1570  0.1994
 1749TIP3    H126882   2.203   3.877   2.230  0.4690 -1.2679  0.3267
 1749TIP3    H226883   2.347   3.829   2.229  0.2933 -1.8104 -0.8673
 1750TIP3   OH226884   4.830   4.024   8.345  0.0018 -0.7746  0.2406
 1750TIP3    H126885   4.833   3.976   8.262  0.8406 -1.0355  0.4114
 1750TIP3    H226886   4.737   4.031   8.365 -0.2456 -0.2913 -0.9636
 1751TIP3   OH226887   5.316   5.046   0.160  0.2887 -0.4422  0.0753
 1751TIP3    H126888   5.298   5.096   0.080  0.2768  0.7304  0.7865
 1751TIP3    H226889   5.283   4.958   0.142 -1.9202  0.4312 -0.3314
 1752TIP3   OH226890   2.325   1.229   7.187 -0.3642 -0.4768 -0.1027
 1752TIP3    H126891   2.342   1.160   7.123 -1.0948 -0.3898 -0.3979
 1752TIP3    H226892   2.243   1.203   7.229 -0.7118  0.2733 -0.3044
 1753TIP3   OH226893   1.554   6.397   8.481  0.0588 -0.0251  0.2388
 1753TIP3    H126894   1.547   6.488   8.511 -0.2041  1.6589 -4.1220
 1753TIP3    H226895   1.648   6.382   8.471  0.0757 -0.0416  0.4158
 1754TIP3   OH226896   1.615   0.548   1.757  0.4761 -0.3746  0.2756
 1754TIP3    H126897   1.569   0.500   1.689  0.2877 -0.7586  0.6696
 1754TIP3    H226898   1.547   0.579   1.816  0.5465  0.8917 -0.2916
 1755TIP3   OH226899   4.537   0.425   1.017 -0.3836 -0.4686 -0.1286
 1755TIP3    H126900   4.495   0.466   0.941  0.7527 -0.2649 -0.6686
 1755TIP3    H226901   4.554   0.335   0.990  2.4367  0.2641 -1.1997
 1756TIP3   OH226902   6.425   6.763   7.266 -0.1534 -0.0082  0.3149
 1756TIP3    H126903   6.462   6.834   7.214  0.3834 -0.4164  0.1370
 1756TIP3    H226904   6.364   6.806   7.326 -0.2592  0.5380 -0.1794
 1757TIP3   OH226905   1.890   5.345   8.163 -0.5237 -0.3437  0.4459
 1757TIP3    H126906   1.851   5.416   8.112 -0.1282  0.1599  0.8304
 1757TIP3    H226907   1.984   5.349   8.142 -0.6810 -1.6122 -0.5586
 1758TIP3   OH226908   0.408   2.626   0.041  0.1672  0.1675 -0.1230
 1758TIP3    H126909   0.493   2.599   0.006 -0.2403  0.6765 -1.6219
 1758TIP3    H226910   0.346   2.563   0.005  0.1125 -1.6888  2.9123
 1759TIP3   OH226911   1.335   5.312   1.381  0.1858  0.5932 -0.1305
 1759TIP3    H126912   1.413   5.355   1.416  1.0229 -0.7097 -0.2904
 1759TIP3    H226913   1.316   5.243   1.445 -1.0352  1.0877  0.0567
 1760TIP3   OH226914   5.913   2.737   0.411 -0.1045  0.0011  0.5724
 1760TIP3    H126915   5.910   2.642   0.404  2.1641 -0.1610  1.0559
 1760TIP3    H226916   5.915   2.769   0.321  0.9573 -0.5285  0.3956
 1761TIP3   OH226917   5.538   2.262   0.409  0.3971 -0.2731 -0.1741
 1761TIP3    H126918   5.529   2.167   0.423 -2.0290 -0.3105 -1.5277
 1761TIP3    H226919   5.543   2.272   0.314 -1.9023  1.0532 -0.2179
 1762TIP3   OH226920   0.967   3.583   0.768 -0.4655 -0.4980 -0.2184
 1762TIP3    H126921   0.963   3.491   0.742  1.3824 -0.7131  0.0907
 1762TIP3    H226922   1.053   3.592   0.808 -1.0356  1.1325  0.7287
 1763TIP3   OH226923   4.411   2.659   0.619  0.3737 -0.0716 -0.5450
 1763TIP3    H126924   4.468   2.687   0.690 -0.7538  0.4229  0.1932
 1763TIP3    H226925   4.412   2.731   0.557  0.8553 -0.2372 -0.7385
 1764TIP3   OH226926   6.101   4.617   6.832  0.8193 -0.2345  0.0524
 1764TIP3    H126927   6.151   4.684   6.785  0.8427 -0.1815  0.1531
 1764TIP3    H226928   6.018   4.660   6.852  0.3272 -0.6520 -1.0194
 1765TIP3   OH226929   0.346   5.700   8.212  0.4892  0.2796  0.4745
 1765TIP3    H126930   0.406   5.725   8.282 -0.7372  2.5183  0.8013
 1765TIP3    H226931   0.391   5.629   8.166  1.2573 -1.3679  3.5685
 1766TIP3   OH226932   6.379   1.443   8.111  0.1537 -0.1727  0.2638
 1766TIP3    H126933   6.381   1.419   8.019  2.2842 -0.7831  0.4210
 1766TIP3    H226934   6.378   1.359   8.158  1.6349  0.0735  0.7867
 1767TIP3   OH226935   5.880   6.655   0.739  0.3949 -0.2336  0.0821
 1767TIP3    H126936   5.908   6.601   0.666  0.5243 -2.1726  1.4898
 1767TIP3    H226937   5.790   6.627   0.756  0.2250  0.4862  0.4145
 1768TIP3   OH226938   5.311   2.221   7.758  0.5738 -0.2131 -0.8964
 1768TIP3    H126939   5.405   2.234   7.772  0.4180  0.4640 -0.4204
 1768TIP3    H226940   5.277   2.309   7.742 -0.1865 -0.2848  0.1981
 1769TIP3   OH226941   6.029   6.566   7.847  0.0892 -0.4668  0.1356
 1769TIP3    H126942   6.067   6.604   7.768 -0.5668 -3.0424 -1.5353
 1769TIP3    H226943   6.097   6.509   7.882  0.1722  0.2329  1.1762
 1770TIP3   OH226944   1.690   6.004   8.338  0.2718  0.2182  0.1371
 1770TIP3    H126945   1.675   5.926   8.284  1.1857 -0.7461  1.2316
 1770TIP3    H226946   1.754   5.976   8.403  0.1573  1.7249  0.9310
 1771TIP3   OH226947   0.109   1.995   0.822  0.4136  1.0448 -0.2590
 1771TIP3    H126948   0.128   2.046   0.743 -0.2128 -0.4048 -1.3883
 1771TIP3    H226949   0.084   1.909   0.790  1.5139 -0.0397  1.5845
 1772TIP3   OH226950   0.334   2.690   0.868  0.4605  0.0795  0.6893
 1772TIP3    H126951   0.414   2.739   0.849  0.0525  0.6737  0.4609
 1772TIP3    H226952   0.352   2.646   0.951  1.1130  0.0030  0.5129
 1773TIP3   OH226953   0.648   0.537   1.974  0.5244  0.3241  0.5603
 1773TIP3    H126954   0.618   0.621   2.008 -0.8034  1.2549 -2.5149
 1773TIP3    H226955   0.581   0.475   2.002 -0.2754  0.9598  0.0951
 1774TIP3   OH226956   1.542   5.128   8.235 -0.1564  0.3308  0.2814
 1774TIP3    H126957   1.593   5.065   8.284 -0.4608  0.0765  0.2758
 1774TIP3    H226958   1.556   5.105   8.143 -1.1746 -0.4544  0.3114
 1775TIP3   OH226959   1.266   3.367   1.050 -0.1566  0.3366 -0.5000
 1775TIP3    H126960   1.244   3.332   1.136 -0.5887  0.0529 -0.7162
 1775TIP3    H226961   1.358   3.345   1.037 -0.2435 -0.1304 -0.3460
 1776TIP3   OH226962   4.809   6.153   2.025  0.0040  0.8988 -0.3069
 1776TIP3    H126963   4.822   6.247   2.017 -0.8983  0.9550 -1.1780
 1776TIP3    H226964   4.799   6.138   2.119  2.1814  1.3746  0.0745
 1777TIP3   OH226965   1.657   2.977   6.888 -0.2515  0.5637 -0.3700
 1777TIP3    H126966   1.642   2.883   6.901 -2.8523  0.7576 -1.3432
 1777TIP3    H226967   1.742   2.983   6.846 -0.6725 -1.4916 -1.6252
 1778TIP3   OH226968   3.787   6.562   2.444 -0.0256  0.0909  0.2995
 1778TIP3    H126969   3.841   6.573   2.522 -1.3680  1.0612  1.1434
 1778TIP3    H226970   3.698   6.552   2.478 -0.4367 -1.2247 -1.0490
 1779TIP3   OH226971   5.888   4.460   2.108  0.3260 -0.1166  0.5237
 1779TIP3    H126972   5.841   4.402   2.047 -2.5212  1.1379  1.3544
 1779TIP3    H226973   5.888   4.545   2.064  0.7654  0.1665  1.0698
 1780TIP3   OH226974   4.173   1.884   6.813 -0.4097  0.4291  0.0067
 1780TIP3    H126975   4.172   1.887   6.909  0.8272 -1.6028  0.1479
 1780TIP3    H226976   4.132   1.966   6.786 -1.9306  0.5033  2.2626
 1781TIP3   OH226977   4.283   3.306   7.870 -0.1669 -0.0055 -0.4029
 1781TIP3    H126978   4.351   3.312   7.802 -1.0294 -0.0091 -1.2933
 1781TIP3    H226979   4.313   3.236   7.928  0.4812 -0.1569 -0.9123
 1782TIP3   OH226980   3.071   0.196   0.681  0.3149  0.3159 -0.1321
 1782TIP3    H126981   3.032   0.251   0.612 -0.5191 -0.8267 -0.6037
 1782TIP3    H226982   3.158   0.233   0.695  0.8783  0.0216 -2.4823
 1783TIP3   OH226983   3.894   3.627   1.008 -0.1667  0.4516  0.0148
 1783TIP3    H126984   3.986   3.641   1.032 -0.5231  2.4015  0.3881
 1783TIP3    H226985   3.888   3.533   0.990  1.4761 -0.0613  1.7920
 1784TIP3   OH226986   6.731   0.059   6.934  0.6680  0.0940  0.0337
 1784TIP3    H126987   6.770   0.139   6.898  1.5370 -0.2338  0.2239
 1784TIP3    H226988   6.666   0.089   6.997  0.7269  0.6514 -0.1707
 1785TIP3   OH226989   4.599   5.193   7.383  0.0673  0.8771 -0.3502
 1785TIP3    H126990   4.596   5.189   7.287  0.0451  0.0093 -0.3169
 1785TIP3    H226991   4.576   5.104   7.412  1.0930  0.8551  0.4439
 1786TIP3   OH226992   3.151   3.816   7.496  0.4483  0.4518 -0.5100
 1786TIP3    H126993   3.064   3.784   7.520 -0.6253  1.0572 -3.1832
 1786TIP3    H226994   3.207   3.739   7.501 -0.8303 -0.5656 -1.1846
 1787TIP3   OH226995   6.068   1.361   0.916  0.1740 -0.1309  0.0177
 1787TIP3    H126996   6.153   1.382   0.955  0.8860  0.1436 -1.5859
 1787TIP3    H226997   6.010   1.347   0.991  1.1405  1.5997  1.1734
 1788TIP3   OH226998   3.916   2.113   1.708  0.2304 -0.8983  0.2825
 1788TIP3    H126999   3.963   2.194   1.728 -0.3989 -0.2624 -0.7106
 1788TIP3    H227000   3.932   2.057   1.784  1.4769 -0.2143  0.5631
 1789TIP3   OH227001   1.863   4.229   7.987 -0.1848  0.5319  0.1763
 1789TIP3    H127002   1.772   4.205   7.969  0.0394  0.0109 -0.3018
 1789TIP3    H227003   1.896   4.157   8.040  0.4565 -0.1878 -1.1521
 1790TIP3   OH227004   3.886   6.790   6.991  0.1163  0.1701 -0.2360
 1790TIP3    H127005   3.949   6.851   6.954 -0.2400 -0.0014 -1.1492
 1790TIP3    H227006   3.899   6.709   6.941 -0.1143 -0.1861  0.2710
 1791TIP3   OH227007   1.668   2.484   8.731 -0.4996  0.7432 -0.2707
 1791TIP3    H127008   1.606   2.506   8.661 -1.4406 -2.6789 -0.6895
 1791TIP3    H227009   1.718   2.410   8.697 -2.1647 -2.2792  3.1080
 1792TIP3   OH227010   1.767   4.841   0.959  0.7889  0.0246 -0.6255
 1792TIP3    H127011   1.748   4.927   0.996  1.0955  0.0565 -0.5468
 1792TIP3    H227012   1.850   4.816   0.997 -0.6866 -1.6563  1.7618
 1793TIP3   OH227013   1.066   0.968   2.679 -0.4407 -0.0955 -0.3951
 1793TIP3    H127014   1.043   1.023   2.753 -0.5393  0.6273 -0.9577
 1793TIP3    H227015   1.096   0.886   2.719  0.6213  0.6919  0.4864
 1794TIP3   OH227016   3.659   6.171   8.075  0.1910 -0.4226  0.6161
 1794TIP3    H127017   3.657   6.157   7.981  0.2394  2.6559  0.0531
 1794TIP3    H227018   3.752   6.175   8.098  0.2269  1.0508  0.3287
 1795TIP3   OH227019   3.854   6.750   1.697 -0.1895  0.0572  0.4623
 1795TIP3    H127020   3.916   6.819   1.719  0.4007  0.0908 -1.2086
 1795TIP3    H227021   3.769   6.784   1.725  0.1430  1.3218 -0.0113
 1796TIP3   OH227022   6.806   4.819   0.736 -0.1815  0.4119  0.1322
 1796TIP3    H127023   6.739   4.836   0.802 -0.2333 -1.4479  0.6028
 1796TIP3    H227024   6.761   4.766   0.670  1.2271 -2.5565  1.3977
 1797TIP3   OH227025   6.297   3.340   8.498  0.3352  0.3442  0.1180
 1797TIP3    H127026   6.248   3.272   8.452 -0.8054 -1.0749  3.1109
 1797TIP3    H227027   6.238   3.416   8.498  1.0460  0.9632 -2.0553
 1798TIP3   OH227028   2.410   5.920   1.509 -0.0083  0.7179  0.2314
 1798TIP3    H127029   2.429   5.971   1.430 -0.3807 -1.0157 -1.0307
 1798TIP3    H227030   2.315   5.923   1.518 -0.3118 -1.7111 -1.3147
 1799TIP3   OH227031   5.913   1.657   1.235  0.5012  0.1763  0.1714
 1799TIP3    H127032   5.870   1.667   1.320 -0.2352 -0.9862 -0.0429
 1799TIP3    H227033   5.842   1.632   1.176  1.3564 -1.1913 -0.3165
 1800TIP3   OH227034   5.441   6.486   7.237  0.5970  0.1681 -0.3776
 1800TIP3    H127035   5.414   6.476   7.145  1.8163 -1.2025 -0.6154
 1800TIP3    H227036   5.526   6.530   7.232  1.4460 -1.3497 -0.0461
 1801TIP3   OH227037   0.071   6.377   0.566  0.4339 -0.3249  0.2826
 1801TIP3    H127038   0.083   6.452   0.507 -1.9669  0.5616  0.8083
 1801TIP3    H227039   0.002   6.325   0.526  0.0811 -0.7194  1.3722
 1802TIP3   OH227040   5.527   1.015   1.943  0.1051  0.5467  0.3451
 1802TIP3    H127041   5.593   1.032   2.010  1.1762  0.2379 -0.6096
 1802TIP3    H227042   5.508   0.922   1.950  0.4985  0.4352 -0.0167
 1803TIP3   OH227043   4.160   6.518   7.676 -0.0471 -0.1613  0.4551
 1803TIP3    H127044   4.234   6.545   7.621 -0.0624  1.1044  1.0235
 1803TIP3    H227045   4.084   6.528   7.619  0.0608 -0.0072  0.3361
 1804TIP3   OH227046   0.771   4.205   8.730  0.5898 -0.0633  0.3285
 1804TIP3    H127047   0.863   4.209   8.755  0.9791  1.2593 -1.1510
 1804TIP3    H227048   0.772   4.203   8.634 -0.8868 -2.0285  0.3012
 1805TIP3   OH227049   0.711   6.070   0.434  0.0327 -0.0567  0.1926
 1805TIP3    H127050   0.654   6.077   0.357 -0.0348  0.2470  0.2681
 1805TIP3    H227051   0.665   6.010   0.493 -0.3687  0.4286  0.3860
 1806TIP3   OH227052   2.905   0.691   6.893  0.1322 -0.1511  0.6295
 1806TIP3    H127053   2.861   0.762   6.847 -0.2645  0.2684  1.6371
 1806TIP3    H227054   2.900   0.617   6.833  0.5772  0.6627 -0.4562
 1807TIP3   OH227055   0.605   1.605   1.142  0.5971 -0.3163  0.6650
 1807TIP3    H127056   0.582   1.647   1.224 -0.2866 -0.6422  0.5979
 1807TIP3    H227057   0.530   1.550   1.121  2.0161 -2.5993  1.1720
 1808TIP3   OH227058   3.509   1.922   2.800 -0.0138  0.1932  0.0958
 1808TIP3    H127059   3.473   1.935   2.712  0.8046  1.0157 -0.1283
 1808TIP3    H227060   3.491   1.830   2.819  1.4626 -0.5556 -1.7289
 1809TIP3   OH227061   0.771   0.674   0.995 -0.5620 -0.4200  0.2474
 1809TIP3    H127062   0.806   0.585   0.995  0.1277 -0.1546 -0.0978
 1809TIP3    H227063   0.848   0.730   1.008 -0.9523  0.1409  0.1594
 1810TIP3   OH227064   1.801   0.326   0.717 -0.0883  0.1110  0.0922
 1810TIP3    H127065   1.709   0.303   0.728 -0.0927  0.1618  0.1589
 1810TIP3    H227066   1.801   0.421   0.710  0.0031  0.1453  0.5268
 1811TIP3   OH227067   5.202   2.756   1.178  0.4489  0.2220 -0.3432
 1811TIP3    H127068   5.273   2.717   1.230 -1.1537  0.1182  1.8662
 1811TIP3    H227069   5.227   2.848   1.168  1.2476  0.0229 -0.2518
 1812TIP3   OH227070   5.756   0.020   0.344 -0.3304 -0.5363 -0.2470
 1812TIP3    H127071   5.786   0.035   0.434 -1.1089 -0.4584  0.0035
 1812TIP3    H227072   5.661   0.012   0.351 -0.3446 -1.1664 -0.9763
 1813TIP3   OH227073   5.691   5.490   1.770 -0.0472 -0.3132 -0.6675
 1813TIP3    H127074   5.729   5.536   1.845 -0.9002 -1.2869  0.3854
 1813TIP3    H227075   5.682   5.558   1.703  1.9612  0.3115 -0.3917
 1814TIP3   OH227076   4.657   3.920   1.853  0.5877 -0.5540  0.0953
 1814TIP3    H127077   4.696   3.854   1.795  1.4123 -0.6062  0.6900
 1814TIP3    H227078   4.703   3.908   1.936  1.0992  1.1011  0.0807
 1815TIP3   OH227079   0.909   5.608   0.882  0.7284  0.3400 -0.2648
 1815TIP3    H127080   0.993   5.592   0.839  0.6855  1.0165 -0.6134
 1815TIP3    H227081   0.860   5.662   0.820 -1.6263 -3.3534 -1.9909
 1816TIP3   OH227082   5.887   2.365   8.002 -0.1349  0.0782 -0.7013
 1816TIP3    H127083   5.962   2.305   7.995  0.1116  0.4998 -1.9626
 1816TIP3    H227084   5.844   2.360   7.917 -2.6749 -1.5541  0.5669
 1817TIP3   OH227085   6.142   3.645   1.262  0.0675 -0.3852  0.1030
 1817TIP3    H127086   6.224   3.635   1.310  0.9699 -0.2482 -1.3458
 1817TIP3    H227087   6.114   3.735   1.281 -1.1868 -1.2124  2.6927
 1818TIP3   OH227088   4.587   1.855   2.321  0.0600 -0.5489 -0.0122
 1818TIP3    H127089   4.680   1.869   2.305 -0.1989  2.6262  0.6730
 1818TIP3    H227090   4.563   1.924   2.384 -3.2218  0.2547 -1.9354
 1819TIP3   OH227091   0.235   0.706   2.023 -0.0041  0.6442  0.5119
 1819TIP3    H127092   0.141   0.717   2.007 -0.1667  1.4172  1.8991
 1819TIP3    H227093   0.240   0.647   2.099  0.7000 -0.8940 -0.6637
 1820TIP3   OH227094   6.128   6.037   0.136 -0.2291 -0.4274  0.0716
 1820TIP3    H127095   6.106   6.129   0.120 -0.0369 -0.1722  1.1666
 1820TIP3    H227096   6.217   6.027   0.102  0.0392  0.0024  0.6208
 1821TIP3   OH227097   2.544   5.949   7.741  0.7414 -0.1189 -0.2014
 1821TIP3    H127098   2.613   6.013   7.755  1.1839 -0.8494  1.1715
 1821TIP3    H227099   2.468   6.000   7.714  1.1733  0.9413  0.5381
 1822TIP3   OH227100   1.497   3.791   0.461  0.2530 -0.5429  0.2264
 1822TIP3    H127101   1.585   3.755   0.450  0.8942  0.8002  0.7643
 1822TIP3    H227102   1.456   3.734   0.526  0.8208 -1.0059  0.1927
 1823TIP3   OH227103   4.418   4.707   7.800 -0.0651  0.2534  0.2237
 1823TIP3    H127104   4.405   4.655   7.721  1.1536  0.9343 -0.4511
 1823TIP3    H227105   4.487   4.769   7.777 -1.1812  1.8978  1.1467
 1824TIP3   OH227106   2.623   6.163   1.944 -0.0196 -0.0126  0.4161
 1824TIP3    H127107   2.538   6.133   1.911 -0.5809 -0.0396  1.8196
 1824TIP3    H227108   2.661   6.211   1.871 -0.0667 -2.2125 -1.1669
 1825TIP3   OH227109   0.855   6.792   0.921 -0.0754 -0.7490  0.1925
 1825TIP3    H127110   0.817   6.878   0.899  1.4027 -0.2478 -0.4934
 1825TIP3    H227111   0.903   6.808   1.002  1.5531 -0.4943 -0.7831
 1826TIP3   OH227112   6.674   4.657   7.878 -0.2897  0.1358 -0.3430
 1826TIP3    H127113   6.647   4.735   7.926  0.4234 -0.0530  0.3992
 1826TIP3    H227114   6.594   4.606   7.869 -0.5107  0.3439  0.3515
 1827TIP3   OH227115   3.518   1.480   1.968  0.0328  0.2469 -0.4346
 1827TIP3    H127116   3.453   1.470   1.898  0.8618 -1.5706 -0.9848
 1827TIP3    H227117   3.520   1.395   2.011  2.1645  0.1971 -0.5434
 1828TIP3   OH227118   5.826   4.041   7.428  0.2793  0.5731 -0.0449
 1828TIP3    H127119   5.834   4.065   7.521  0.6069 -0.1034  0.1068
 1828TIP3    H227120   5.916   4.031   7.398  0.1650  0.4318 -0.3415
 1829TIP3   OH227121   1.972   3.427   2.219 -0.0475 -0.2752  0.0306
 1829TIP3    H127122   1.969   3.477   2.300  0.1412 -1.8685  1.0616
 1829TIP3    H227123   2.016   3.486   2.157  1.0882  0.4564  1.4608
 1830TIP3   OH227124   6.718   3.467   8.720 -0.7019  0.1057 -0.7244
 1830TIP3    H127125   6.806   3.506   8.727 -1.0037  0.6930 -0.0414
 1830TIP3    H227126   6.734   3.373   8.714 -0.0089  0.2310 -0.9615
 1831TIP3   OH227127   4.489   4.758   0.798  0.1054  0.2572 -0.3750
 1831TIP3    H127128   4.401   4.726   0.816  1.1265 -1.3078  2.4403
 1831TIP3    H227129   4.490   4.847   0.833  0.3709 -0.7211  2.3160
 1832TIP3   OH227130   4.500   0.154   1.087  0.2477  0.1659 -0.4943
 1832TIP3    H127131   4.463   0.090   1.146  1.7437  1.0349  1.4996
 1832TIP3    H227132   4.593   0.155   1.108  0.5162  1.8607 -1.5663
 1833TIP3   OH227133   0.347   2.761   6.607  0.5609 -0.1463  0.8295
 1833TIP3    H127134   0.352   2.725   6.695 -1.7698  0.2884  1.2238
 1833TIP3    H227135   0.397   2.842   6.610 -1.9574  1.4937  2.7337
 1834TIP3   OH227136   4.465   6.467   7.320 -0.3965  0.1048 -0.3555
 1834TIP3    H127137   4.559   6.455   7.329 -0.3177 -0.8219 -2.0653
 1834TIP3    H227138   4.428   6.433   7.402  0.7104  0.2047  0.2067
 1835TIP3   OH227139   3.461   6.328   2.250 -0.3488 -0.1033  0.1045
 1835TIP3    H127140   3.553   6.312   2.231 -0.4841 -1.7242  0.6596
 1835TIP3    H227141   3.447   6.288   2.336 -0.9069  2.6625  1.4265
 1836TIP3   OH227142   2.423   6.351   1.733  0.1799  0.4641  0.3912
 1836TIP3    H127143   2.506   6.339   1.687  0.8779  0.2887  1.6329
 1836TIP3    H227144   2.448   6.376   1.822 -1.1372  1.8198  0.4161
 1837TIP3   OH227145   3.850   5.382   8.053  0.7559 -0.0808 -0.0482
 1837TIP3    H127146   3.936   5.360   8.019  0.7967 -0.3052  0.1957
 1837TIP3    H227147   3.822   5.304   8.101  1.3940  0.7675  1.8177
 1838TIP3   OH227148   3.670   1.836   8.782  0.1918 -0.3626  0.2964
 1838TIP3    H127149   3.635   1.925   8.777 -0.1136 -0.4751  0.4229
 1838TIP3    H227150   3.765   1.848   8.786  0.1409 -0.0367  0.5306
 1839TIP3   OH227151   1.651   2.249   8.137 -0.2784 -0.0554  0.1022
 1839TIP3    H127152   1.698   2.169   8.162  0.5460 -0.0345 -1.2924
 1839TIP3    H227153   1.700   2.283   8.062 -0.4525  1.9128  0.8215
 1840TIP3   OH227154   2.294   1.638   8.196  0.2057 -0.5215  0.4729
 1840TIP3    H127155   2.288   1.563   8.136  2.4981 -0.7870  0.5101
 1840TIP3    H227156   2.315   1.712   8.140  0.8293 -0.4774  0.7575
 1841TIP3   OH227157   3.983   3.812   0.329 -0.3145 -0.1600  0.0696
 1841TIP3    H127158   4.052   3.781   0.388  1.9727 -0.3023 -2.4691
 1841TIP3    H227159   4.015   3.789   0.241 -1.5880  3.5062 -1.5303
 1842TIP3   OH227160   0.472   5.034   2.107  0.5360  0.4496 -0.6010
 1842TIP3    H127161   0.506   4.981   2.035  2.4430 -0.0617  0.6023
 1842TIP3    H227162   0.539   5.029   2.175 -0.9417  1.3379  1.0308
 1843TIP3   OH227163   5.310   1.517   8.837 -0.6832  0.4878 -0.6918
 1843TIP3    H127164   5.276   1.540   8.924  0.6327 -3.4293  1.0607
 1843TIP3    H227165   5.322   1.602   8.794  1.1135  2.9368  3.8936
 1844TIP3   OH227166   6.345   6.781   0.678 -0.1342  0.1387  0.2351
 1844TIP3    H127167   6.403   6.782   0.754 -1.4662 -1.2769  1.3385
 1844TIP3    H227168   6.306   6.868   0.676 -0.3533  0.0869  1.4228
 1845TIP3   OH227169   1.908   6.629   0.899  0.2098 -0.3913  0.1528
 1845TIP3    H127170   1.903   6.669   0.812  2.8423 -1.7872 -0.7555
 1845TIP3    H227171   1.935   6.700   0.957  1.8305 -0.1309 -0.8691
 1846TIP3   OH227172   2.265   5.837   1.277  0.2303  0.5002 -0.3572
 1846TIP3    H127173   2.296   5.757   1.319  0.2627  1.1066  0.8228
 1846TIP3    H227174   2.330   5.857   1.210  0.1369 -0.5382 -0.7664
 1847TIP3   OH227175   0.182   2.165   2.685 -0.9110 -0.2442 -0.0956
 1847TIP3    H127176   0.161   2.077   2.652 -0.7714 -0.3074 -0.0143
 1847TIP3    H227177   0.271   2.157   2.719 -1.9296 -0.8534  2.7102
 1848TIP3   OH227178   4.411   2.211   1.191 -0.7537 -0.0973 -0.6629
 1848TIP3    H127179   4.445   2.278   1.132 -0.9632  1.0079  0.4212
 1848TIP3    H227180   4.471   2.214   1.266 -0.9560 -0.9157 -0.4613
 1849TIP3   OH227181   0.414   0.333   2.024 -0.1206  0.0906 -0.0624
 1849TIP3    H127182   0.391   0.268   1.957 -1.5195  0.1471  0.3182
 1849TIP3    H227183   0.424   0.283   2.104 -0.7501  0.2678  0.1386
 1850TIP3   OH227184   2.388   3.300   1.815  0.1725  0.3685 -0.2834
 1850TIP3    H127185   2.401   3.273   1.906  0.2050  0.4170 -0.2733
 1850TIP3    H227186   2.455   3.366   1.801  0.2054  0.3191 -0.3606
 1851TIP3   OH227187   2.693   0.866   1.256  0.1952 -0.3291 -0.0617
 1851TIP3    H127188   2.690   0.800   1.187 -1.2193 -1.9969  1.4586
 1851TIP3    H227189   2.660   0.946   1.216  0.6394 -0.9009 -1.6177
 1852TIP3   OH227190   0.790   5.561   7.610  0.4580  0.5693 -0.5485
 1852TIP3    H127191   0.873   5.608   7.624 -0.5505  2.5383 -0.8741
 1852TIP3    H227192   0.752   5.602   7.532 -0.8607 -0.2891 -0.3839
 1853TIP3   OH227193   6.359   0.520   1.745  0.3333  0.3960 -0.1250
 1853TIP3    H127194   6.336   0.501   1.654  0.9141  0.1640 -0.2240
 1853TIP3    H227195   6.349   0.436   1.790  2.2890 -0.0403 -0.4370
 1854TIP3   OH227196   4.015   1.728   8.243  0.4416 -0.5339  0.2354
 1854TIP3    H127197   3.996   1.776   8.162  0.3718  2.4485  1.8950
 1854TIP3    H227198   4.105   1.697   8.231  0.1826 -0.7955 -1.2593
 1855TIP3   OH227199   2.774   4.131   8.530  0.0469  0.1959 -0.8257
 1855TIP3    H127200   2.768   4.176   8.446 -0.7448  2.1282  0.1929
 1855TIP3    H227201   2.844   4.178   8.576 -0.9728  0.6026  0.3677
 1856TIP3   OH227202   4.614   3.777   1.257 -0.1057 -0.0341 -0.2891
 1856TIP3    H127203   4.542   3.789   1.319  0.4826 -0.4978  0.4992
 1856TIP3    H227204   4.680   3.840   1.285  0.2091 -0.3279 -0.3627
 1857TIP3   OH227205   0.904   0.711   1.873  1.0623 -0.1834  0.9139
 1857TIP3    H127206   0.864   0.642   1.925  1.2016 -0.2882  0.8821
 1857TIP3    H227207   0.862   0.705   1.787  0.8219 -0.0009  1.0167
 1858TIP3   OH227208   2.244   5.636   1.012 -0.2530  0.4575  0.7178
 1858TIP3    H127209   2.329   5.603   1.039 -0.0890  1.1777  1.1100
 1858TIP3    H227210   2.237   5.611   0.920 -0.3531 -1.0635  1.1176
 1859TIP3   OH227211   4.209   3.551   6.668 -0.3382  0.1051  0.5857
 1859TIP3    H127212   4.170   3.610   6.603  0.9465  1.0814  0.6690
 1859TIP3    H227213   4.289   3.519   6.625 -0.5571 -0.8871  0.8956
 1860TIP3   OH227214   6.138   2.189   6.824  0.2927  0.0408  0.3185
 1860TIP3    H127215   6.226   2.204   6.791 -0.3563 -0.0881 -1.5798
 1860TIP3    H227216   6.110   2.107   6.783 -1.4399  1.1090 -0.7437
 1861TIP3   OH227217   4.226   2.938   8.760  0.5081  0.5159  0.3711
 1861TIP3    H127218   4.179   2.856   8.775 -1.3522  1.3206 -0.7280
 1861TIP3    H227219   4.191   2.998   8.826  0.6817  0.8661  0.1464
 1862TIP3   OH227220   0.653   4.314   1.995 -0.1826  0.5115 -0.1134
 1862TIP3    H127221   0.694   4.330   1.910  1.9856  0.5905  0.8917
 1862TIP3    H227222   0.657   4.399   2.039 -1.1310  0.4289  0.1478
 1863TIP3   OH227223   1.594   3.200   2.385 -0.2073 -0.0540 -0.1667
 1863TIP3    H127224   1.627   3.162   2.467  0.2062 -1.0628 -0.7695
 1863TIP3    H227225   1.503   3.171   2.381 -0.5260  0.8362  0.4077
 1864TIP3   OH227226   6.372   2.170   8.427  0.2220  0.2608  0.3921
 1864TIP3    H127227   6.367   2.252   8.378  2.4103  0.4975  0.4604
 1864TIP3    H227228   6.308   2.113   8.384 -0.9181  1.7899 -0.0288
 1865TIP3   OH227229   6.687   1.567   0.933 -0.1164  0.6428 -0.6761
 1865TIP3    H127230   6.623   1.497   0.940  0.4254  0.1386 -0.6849
 1865TIP3    H227231   6.660   1.618   0.856 -0.7168  0.6647 -0.4565
 1866TIP3   OH227232   4.203   6.636   7.283  0.0126 -0.1880  0.0101
 1866TIP3    H127233   4.243   6.549   7.292 -2.3797 -1.2595  1.4533
 1866TIP3    H227234   4.146   6.628   7.207 -1.8993 -0.6886  1.4217
 1867TIP3   OH227235   1.675   3.537   0.466  0.3546 -0.1094  0.3336
 1867TIP3    H127236   1.744   3.470   0.466 -0.3309 -0.8386 -0.4540
 1867TIP3    H227237   1.600   3.494   0.507  0.0473  0.3260  0.2265
 1868TIP3   OH227238   3.386   5.800   7.124  1.0375 -0.3791 -0.1016
 1868TIP3    H127239   3.365   5.804   7.217  3.6065  0.8258  0.5057
 1868TIP3    H227240   3.360   5.711   7.097 -0.3844 -0.5090  1.5389
 1869TIP3   OH227241   2.110   4.476   8.807 -0.3040 -0.1600 -0.3069
 1869TIP3    H127242   2.206   4.481   8.805 -0.3631  2.0363 -0.2813
 1869TIP3    H227243   2.083   4.500   8.719 -0.8362  0.5634  0.0403
 1870TIP3   OH227244   5.596   1.777   1.653  0.4556  0.1515  0.6470
 1870TIP3    H127245   5.568   1.691   1.622  1.8394 -0.4464  0.9696
 1870TIP3    H227246   5.585   1.773   1.748  1.2406  0.0468  0.7382
 1871TIP3   OH227247   1.289   2.012   2.276  0.1513 -0.1675  0.2606
 1871TIP3    H127248   1.233   2.047   2.206 -0.2427 -1.6968 -0.2259
 1871TIP3    H227249   1.343   1.946   2.232 -0.2327 -1.2896  1.4316
 1872TIP3   OH227250   0.620   2.629   0.305 -0.0407  0.1659 -0.6578
 1872TIP3    H127251   0.714   2.644   0.316  0.5012 -2.9544 -0.0116
 1872TIP3    H227252   0.605   2.638   0.211  0.8402  0.9593 -0.7329
 1873TIP3   OH227253   2.493   6.207   1.069  0.2542  0.0416  0.0186
 1873TIP3    H127254   2.544   6.259   1.008 -0.0092  1.3195  0.8437
 1873TIP3    H227255   2.481   6.122   1.025  0.6233  0.6956 -1.3877
 1874TIP3   OH227256   1.431   0.596   1.262  0.6812 -0.7915  0.3386
 1874TIP3    H127257   1.521   0.590   1.232  0.6235 -0.7592  0.1531
 1874TIP3    H227258   1.398   0.678   1.225  0.6468 -0.6846  0.6013
 1875TIP3   OH227259   6.586   2.136   7.566 -0.4952 -0.3702 -0.0691
 1875TIP3    H127260   6.579   2.082   7.486 -0.4069 -1.1284  0.4201
 1875TIP3    H227261   6.571   2.074   7.637  2.1457 -0.2937  0.6504
 1876TIP3   OH227262   4.089   3.716   7.840 -0.0594 -0.2109 -0.4804
 1876TIP3    H127263   4.135   3.709   7.924  1.1108  2.2820 -0.8081
 1876TIP3    H227264   4.158   3.705   7.775 -0.4672  0.5043 -1.0471
 1877TIP3   OH227265   5.944   0.113   1.186  0.2393  0.2203  0.2798
 1877TIP3    H127266   5.984   0.075   1.264  0.3042 -0.3469 -0.0285
 1877TIP3    H227267   5.857   0.075   1.183 -0.0179  0.7804  0.4584
 1878TIP3   OH227268   4.518   0.158   0.223 -0.0217 -0.5008  0.2111
 1878TIP3    H127269   4.505   0.074   0.266  1.0108 -1.0805 -0.5549
 1878TIP3    H227270   4.592   0.197   0.268 -0.2803 -0.1597  0.3385
 1879TIP3   OH227271   0.656   4.576   7.381 -0.4866  0.1596  0.4944
 1879TIP3    H127272   0.681   4.638   7.450  0.9863  0.2762 -0.1029
 1879TIP3    H227273   0.670   4.490   7.420  1.7544  0.2045 -0.0561
 1880TIP3   OH227274   4.451   5.208   8.719  0.2023 -0.6023 -0.3786
 1880TIP3    H127275   4.502   5.284   8.747 -2.7913  1.5882 -0.4889
 1880TIP3    H227276   4.441   5.156   8.799  1.0967 -0.2062  0.0160
 1881TIP3   OH227277   1.193   0.112   7.082 -0.2323  0.0464  0.1810
 1881TIP3    H127278   1.277   0.112   7.036 -0.7823 -2.2981 -0.9847
 1881TIP3    H227279   1.212   0.155   7.166  1.7549  0.8799 -0.6227
 1882TIP3   OH227280   0.046   5.916   0.881  0.0450 -0.5168  0.1668
 1882TIP3    H127281   0.114   5.984   0.874  1.5567 -2.0751 -1.2128
 1882TIP3    H227282   0.076   5.846   0.824 -0.1631 -3.4473  3.3268
 1883TIP3   OH227283   4.623   0.252   7.184 -0.8125 -0.4263 -0.0676
 1883TIP3    H127284   4.533   0.220   7.181 -0.2032 -2.6136  1.8276
 1883TIP3    H227285   4.668   0.205   7.114 -1.2093  1.0384 -1.3390
 1884TIP3   OH227286   1.142   2.984   7.802  0.3233  0.0853 -0.0920
 1884TIP3    H127287   1.176   3.048   7.865  1.1732 -0.1637 -0.2814
 1884TIP3    H227288   1.117   2.909   7.856 -1.9227  1.0324  0.2844
 1885TIP3   OH227289   1.705   4.862   6.763  0.1690  0.4042 -0.5636
 1885TIP3    H127290   1.623   4.894   6.800  0.2033 -0.4724  0.3031
 1885TIP3    H227291   1.683   4.776   6.726  1.1729 -1.0063  1.9008
 1886TIP3   OH227292   2.432   3.010   7.486 -0.4613  0.6510  0.1012
 1886TIP3    H127293   2.348   2.974   7.514  0.2314 -0.8128  0.3984
 1886TIP3    H227294   2.471   3.045   7.565 -0.6188  0.9580  0.0418
 1887TIP3   OH227295   3.465   4.589   0.065 -0.5226  0.3728 -0.0903
 1887TIP3    H127296   3.445   4.495   0.070 -3.8120  0.9366  0.1175
 1887TIP3    H227297   3.498   4.602  -0.023  2.9814 -1.3238  0.7911
 1888TIP3   OH227298   5.766   3.550   1.508 -0.3815  0.2926 -1.0253
 1888TIP3    H127299   5.671   3.553   1.519 -0.2095  0.9105  0.3963
 1888TIP3    H227300   5.779   3.565   1.414 -1.6782  0.4048 -1.2064
 1889TIP3   OH227301   4.892   3.068   0.099 -0.0313 -0.3111 -0.1972
 1889TIP3    H127302   4.862   3.094   0.012  0.5852  0.4108 -0.2086
 1889TIP3    H227303   4.977   3.026   0.084  0.4195  0.4558  0.1005
 1890TIP3   OH227304   1.418   5.547   6.957  0.1979 -0.0805 -0.6915
 1890TIP3    H127305   1.415   5.601   6.879  1.2336  1.1334  0.0728
 1890TIP3    H227306   1.511   5.530   6.972  0.1946  1.2637  1.2662
 1891TIP3   OH227307   0.770   6.219   1.054 -0.3268  0.6868 -0.2876
 1891TIP3    H127308   0.716   6.262   0.988 -0.1389  0.7415 -0.4032
 1891TIP3    H227309   0.727   6.241   1.137 -0.9158  0.1126 -0.4261
 1892TIP3   OH227310   5.575   4.432   0.237 -0.1653 -0.3226  0.1587
 1892TIP3    H127311   5.581   4.423   0.332  0.0650 -0.7647  0.1053
 1892TIP3    H227312   5.523   4.357   0.209 -1.0009  0.2977  0.0216
 1893TIP3   OH227313   5.491   5.161   1.506 -0.1787 -0.0081 -0.2057
 1893TIP3    H127314   5.531   5.124   1.427 -0.8203 -0.2205 -0.4394
 1893TIP3    H227315   5.515   5.253   1.504 -1.3999  0.3265 -1.4477
 1894TIP3   OH227316   5.085   0.176   7.884 -0.4155 -0.4279  0.0027
 1894TIP3    H127317   5.086   0.139   7.973 -1.1958 -2.8295 -0.9221
 1894TIP3    H227318   5.154   0.128   7.837 -1.0856 -0.3259 -1.1122
 1895TIP3   OH227319   4.475   2.587   7.881  0.0923  0.2869 -0.4126
 1895TIP3    H127320   4.437   2.627   7.802 -1.2536 -0.3801 -0.1361
 1895TIP3    H227321   4.488   2.495   7.858 -0.1196  0.1313  0.0754
 1896TIP3   OH227322   6.059   0.093   7.653 -0.0491 -0.5663 -0.8223
 1896TIP3    H127323   6.129   0.152   7.681 -0.3761  0.0469 -1.2910
 1896TIP3    H227324   6.103   0.009   7.638  0.6862 -0.0312 -1.7114
 1897TIP3   OH227325   6.830   6.014   6.835 -0.0408  0.2011 -0.0636
 1897TIP3    H127326   6.896   5.947   6.816 -1.3549 -1.6799  1.6199
 1897TIP3    H227327   6.804   6.047   6.749  0.6697 -1.4315 -0.9377
 1898TIP3   OH227328   1.792   0.594   7.484 -0.0131  0.2781 -0.0076
 1898TIP3    H127329   1.868   0.558   7.530 -1.7490 -0.2184  2.7654
 1898TIP3    H227330   1.771   0.528   7.418  0.2706 -1.0080  1.1391
 1899TIP3   OH227331   0.670   3.665   1.730  0.1059 -0.0965  0.2667
 1899TIP3    H127332   0.592   3.610   1.737 -0.1241  0.1807 -0.0539
 1899TIP3    H227333   0.709   3.664   1.818 -0.3197 -0.1500  0.4568
 1900TIP3   OH227334   2.115   5.936   8.636  0.1015  0.0483 -0.5038
 1900TIP3    H127335   2.133   5.855   8.685  0.0175 -0.2894 -1.0234
 1900TIP3    H227336   2.200   5.961   8.600  0.0681  0.0050 -0.6156
 1901TIP3   OH227337   4.894   0.260   8.669 -0.1833 -0.5754 -0.6208
 1901TIP3    H127338   4.976   0.307   8.683 -0.5813  0.0716 -0.4069
 1901TIP3    H227339   4.843   0.276   8.749  0.1662 -2.4589  0.0407
 1902TIP3   OH227340   3.842   5.131   8.544 -0.6887  0.6148 -0.4297
 1902TIP3    H127341   3.762   5.164   8.586 -1.6189 -0.6148 -1.1909
 1902TIP3    H227342   3.841   5.172   8.457 -1.5603 -0.8917 -1.1724
 1903TIP3   OH227343   5.490   4.188   0.519  0.3332 -0.1220  0.2804
 1903TIP3    H127344   5.486   4.165   0.426  0.8380  0.7951  0.0205
 1903TIP3    H227345   5.455   4.111   0.564 -0.8036 -0.2241 -0.7213
 1904TIP3   OH227346   0.448   1.210   1.613 -0.2334  0.0021  0.1043
 1904TIP3    H127347   0.366   1.246   1.581 -0.7762 -0.1513  1.2614
 1904TIP3    H227348   0.441   1.116   1.596 -0.8350 -0.1847  1.2648
 1905TIP3   OH227349   3.896   1.112   8.077 -0.2971  0.5716 -0.2989
 1905TIP3    H127350   3.928   1.107   8.167  0.8696  1.9031 -0.6133
 1905TIP3    H227351   3.850   1.196   8.073 -1.1046  0.1146 -0.7154
 1906TIP3   OH227352   3.628   0.941   1.483 -0.8733  0.5638 -0.5840
 1906TIP3    H127353   3.542   0.926   1.522 -0.4265  2.0084  1.0513
 1906TIP3    H227354   3.691   0.910   1.549 -0.1135  0.6882 -1.2307
 1907TIP3   OH227355   2.314   5.205   8.667 -0.8326  0.2890 -0.5867
 1907TIP3    H127356   2.327   5.287   8.715 -0.5932 -0.1410  0.0862
 1907TIP3    H227357   2.227   5.215   8.628 -1.7051  0.0184  1.2140
 1908TIP3   OH227358   4.095   0.518   0.845 -0.1186  0.0963  0.1343
 1908TIP3    H127359   4.017   0.571   0.861 -0.2007  0.1837 -0.5119
 1908TIP3    H227360   4.063   0.428   0.846  0.0309  0.0392  1.2908
 1909TIP3   OH227361   4.993   6.366   0.661  0.3791  0.0569 -0.5169
 1909TIP3    H127362   4.977   6.278   0.694 -0.1535  0.7629  1.1989
 1909TIP3    H227363   5.088   6.371   0.652  0.3592 -1.0013 -1.6067
 1910TIP3   OH227364   2.655   6.357   0.912  0.0028  0.1513  0.0511
 1910TIP3    H127365   2.724   6.372   0.848 -0.2065 -0.4444 -0.3243
 1910TIP3    H227366   2.599   6.435   0.907  0.5969  0.5981  0.3005
 1911TIP3   OH227367   0.324   2.739   0.291  0.0441 -0.1644  0.0700
 1911TIP3    H127368   0.363   2.687   0.221  0.9804  1.1680 -0.4226
 1911TIP3    H227369   0.368   2.709   0.370 -0.8800 -1.5381  0.1103
 1912TIP3   OH227370   1.465   1.151   2.325 -0.1982 -0.0023  0.1622
 1912TIP3    H127371   1.534   1.123   2.265 -0.0669 -1.6954  1.0294
 1912TIP3    H227372   1.418   1.070   2.347 -0.3859  0.5753  2.1248
 1913TIP3   OH227373   5.859   1.043   0.885  0.1901 -0.8858 -0.4751
 1913TIP3    H127374   5.899   1.080   0.964  0.9082  0.5303 -1.4357
 1913TIP3    H227375   5.811   0.966   0.915 -1.4153  0.8314  1.6808
 1914TIP3   OH227376   1.473   2.745   2.266 -0.0410  0.3126  0.0252
 1914TIP3    H127377   1.431   2.780   2.344 -0.4499  1.0413 -0.5112
 1914TIP3    H227378   1.415   2.675   2.237 -0.3804  0.6680 -0.1587
 1915TIP3   OH227379   5.736   1.813   1.932  0.2577 -0.2496  0.6515
 1915TIP3    H127380   5.826   1.786   1.946  0.9848  0.7139 -1.7497
 1915TIP3    H227381   5.687   1.771   2.003  2.7170  0.1445  2.7186
 1916TIP3   OH227382   6.445   6.047   1.856 -0.0499 -0.1019 -0.0756
 1916TIP3    H127383   6.432   5.996   1.776 -0.8639  1.6663 -1.1278
 1916TIP3    H227384   6.539   6.039   1.873 -0.1540 -2.0019 -0.1205
 1917TIP3   OH227385   5.328   2.934   7.144  0.4008 -0.1260  0.2010
 1917TIP3    H127386   5.382   2.987   7.085  0.4081 -0.5542 -0.1831
 1917TIP3    H227387   5.250   2.912   7.092 -0.5427  1.1610  1.0091
 1918TIP3   OH227388   1.560   2.925   0.993 -0.6787  0.0748 -0.4512
 1918TIP3    H127389   1.634   2.873   1.023 -0.0306 -0.7407 -3.2224
 1918TIP3    H227390   1.593   3.015   0.991 -0.6344  0.1113  0.7603
 1919TIP3   OH227391   1.724   5.116   1.073 -0.5822  0.0197 -0.0644
 1919TIP3    H127392   1.638   5.155   1.088  0.2978  1.6956  0.8864
 1919TIP3    H227393   1.780   5.154   1.141  0.7425 -1.6502 -0.1382
 1920TIP3   OH227394   6.297   1.382   8.827 -0.6282 -0.3117  0.0097
 1920TIP3    H127395   6.390   1.398   8.841 -0.8349  0.3335  0.7073
 1920TIP3    H227396   6.254   1.458   8.865 -1.3867 -0.0030 -1.3983
 1921TIP3   OH227397   4.427   3.989   8.169 -0.0534  0.1629  0.3431
 1921TIP3    H127398   4.510   3.945   8.149  0.5629  1.1302  0.7156
 1921TIP3    H227399   4.365   3.918   8.183  0.7205 -0.5775  0.0830
 1922TIP3   OH227400   4.438   0.829   1.730 -0.0953  0.0329 -0.4032
 1922TIP3    H127401   4.480   0.802   1.812  0.4182 -1.2281 -1.0562
 1922TIP3    H227402   4.495   0.897   1.695  1.1564 -1.2835 -1.0132
 1923TIP3   OH227403   5.925   1.789   7.551  0.1626 -0.2423  0.0535
 1923TIP3    H127404   5.988   1.843   7.599  0.1457  1.3011 -1.5600
 1923TIP3    H227405   5.853   1.849   7.531  0.4822 -0.5835 -2.4726
 1924TIP3   OH227406   5.515   3.259   8.063 -0.1494  0.5358  0.2326
 1924TIP3    H127407   5.604   3.226   8.047 -0.6357  0.2938 -2.4883
 1924TIP3    H227408   5.524   3.354   8.060  0.0980  0.5230  0.5174
 1925TIP3   OH227409   0.122   4.807   7.740 -0.1043  0.1314 -0.1891
 1925TIP3    H127410   0.202   4.841   7.700 -0.4958 -0.3093 -1.4125
 1925TIP3    H227411   0.075   4.767   7.667 -2.0835  1.5675  0.2413
 1926TIP3   OH227412   1.748   2.395   0.542 -0.0405 -0.0255 -1.2109
 1926TIP3    H127413   1.810   2.368   0.474  0.5470  1.0895 -1.1402
 1926TIP3    H227414   1.699   2.315   0.562 -1.4659 -0.0488 -4.1856
 1927TIP3   OH227415   5.119   6.611   7.937 -0.0574 -0.2870 -0.2566
 1927TIP3    H127416   5.027   6.637   7.945  0.1374  0.3194  0.1650
 1927TIP3    H227417   5.122   6.521   7.968 -0.1578  0.4100  1.9322
 1928TIP3   OH227418   5.827   1.774   8.126  0.2967 -0.1836  0.1363
 1928TIP3    H127419   5.793   1.692   8.160 -0.9658 -0.3201 -1.3558
 1928TIP3    H227420   5.878   1.811   8.199 -0.6166 -1.3969  1.4415
 1929TIP3   OH227421   5.859   2.107   8.495 -0.2001  0.2691 -0.1481
 1929TIP3    H127422   5.828   2.151   8.416 -0.3542  0.8958  0.2539
 1929TIP3    H227423   5.921   2.169   8.535  0.8983 -0.5840 -0.4641
 1930TIP3   OH227424   6.482   5.521   0.982  0.7108  0.3524 -0.7227
 1930TIP3    H127425   6.573   5.549   0.973  0.0814  3.2897  1.0959
 1930TIP3    H227426   6.432   5.586   0.932 -0.5270 -0.2692 -0.3252
 1931TIP3   OH227427   3.925   5.995   0.134 -0.4483  0.3249 -0.2420
 1931TIP3    H127428   3.954   6.034   0.217  1.1195  2.6298 -1.7298
 1931TIP3    H227429   4.006   5.967   0.091 -1.0699  0.4421 -1.5606
 1932TIP3   OH227430   4.117   4.511   6.946 -0.0736  0.0028 -0.1631
 1932TIP3    H127431   4.125   4.606   6.948 -0.1199 -0.0040  0.2472
 1932TIP3    H227432   4.035   4.495   6.899 -0.2185  0.1703  0.0310
 1933TIP3   OH227433   3.765   1.111   1.873 -0.4227 -0.3191  0.1876
 1933TIP3    H127434   3.827   1.175   1.908 -1.5857  0.2721  1.2495
 1933TIP3    H227435   3.692   1.164   1.840 -0.0858 -0.9599 -1.6975
 1934TIP3   OH227436   3.133   3.095   8.581 -0.3374  0.2874 -0.3020
 1934TIP3    H127437   3.216   3.060   8.615 -0.3928  0.1252 -0.3324
 1934TIP3    H227438   3.075   3.097   8.658 -0.6121 -0.5343 -0.4861
 1935TIP3   OH227439   1.185   1.412   1.541 -0.5169 -0.4078 -0.5482
 1935TIP3    H127440   1.222   1.327   1.517  1.4443  0.6790 -1.5709
 1935TIP3    H227441   1.097   1.411   1.505 -0.1898 -1.6413 -1.3736
 1936TIP3   OH227442   0.956   2.375   8.769  0.2985  0.1860  0.1528
 1936TIP3    H127443   0.998   2.368   8.854  1.7610  2.4226 -0.3124
 1936TIP3    H227444   0.886   2.439   8.781  0.1296  0.0728 -0.1984
 1937TIP3   OH227445   6.444   3.439   7.646  0.1831  0.1544 -0.1264
 1937TIP3    H127446   6.451   3.442   7.742  0.0593 -0.6831 -0.0846
 1937TIP3    H227447   6.387   3.513   7.624  2.3483  2.0525  0.1935
 1938TIP3   OH227448   1.487   5.209   1.186 -0.2994  0.5746  0.2638
 1938TIP3    H127449   1.419   5.276   1.197  0.8826  1.7298  0.9116
 1938TIP3    H227450   1.531   5.206   1.271  0.3699 -0.2289 -0.0984
 1939TIP3   OH227451   5.788   2.387   2.626  0.1708  0.5855  0.0288
 1939TIP3    H127452   5.702   2.345   2.612 -0.1608  1.7969 -1.8905
 1939TIP3    H227453   5.768   2.479   2.641  1.0871  0.6578  0.9095
 1940TIP3   OH227454   1.114   3.399   8.125  0.2113  0.2091 -0.2841
 1940TIP3    H127455   1.123   3.464   8.054 -2.2107 -0.1256 -0.9860
 1940TIP3    H227456   1.021   3.402   8.149  0.5672 -1.1713  1.4807
 1941TIP3   OH227457   0.931   5.155   0.148  0.5286  0.1204 -0.1701
 1941TIP3    H127458   0.853   5.112   0.184  0.7007  0.7205  0.9819
 1941TIP3    H227459   0.991   5.083   0.129  0.5108 -0.2310  0.9845
 1942TIP3   OH227460   4.442   6.404   6.590 -0.0989  0.2192 -1.0447
 1942TIP3    H127461   4.494   6.367   6.660  0.8016  1.2554 -1.1331
 1942TIP3    H227462   4.459   6.348   6.514 -1.5763 -1.2857 -0.3173
 1943TIP3   OH227463   0.274   5.948   1.648  0.0106 -0.6650 -0.3142
 1943TIP3    H127464   0.272   5.864   1.694  0.1178 -0.8134 -0.5819
 1943TIP3    H227465   0.364   5.958   1.619  0.3044  0.1259  0.7843
 1944TIP3   OH227466   3.848   2.941   8.166 -0.9088 -0.3909  0.3113
 1944TIP3    H127467   3.929   2.891   8.165 -0.3822  0.4486  0.1879
 1944TIP3    H227468   3.806   2.918   8.249  0.2238  0.3754  1.1145
 1945TIP3   OH227469   1.198   5.803   1.739  0.2410 -0.1456 -0.4155
 1945TIP3    H127470   1.233   5.716   1.758 -1.8889 -1.1835 -0.9417
 1945TIP3    H227471   1.204   5.849   1.823 -1.0755 -1.7452  0.6158
 1946TIP3   OH227472   3.446   2.145   2.151  0.3018 -0.2227  0.0579
 1946TIP3    H127473   3.417   2.183   2.234 -0.6764  1.7771 -1.1121
 1946TIP3    H227474   3.366   2.111   2.112  0.5425 -0.0668 -0.5806
 1947TIP3   OH227475   3.961   0.840   1.229 -0.2431 -0.5098  0.1347
 1947TIP3    H127476   4.006   0.762   1.260 -0.0760 -0.0775  1.0334
 1947TIP3    H227477   3.869   0.814   1.223  0.1045 -1.4448 -1.8697
 1948TIP3   OH227478   6.294   5.423   8.280 -0.0294  0.0469 -0.1381
 1948TIP3    H127479   6.229   5.478   8.324 -0.7647  0.4269 -1.6415
 1948TIP3    H227480   6.336   5.481   8.217  0.5341 -0.6428 -0.4126
 1949TIP3   OH227481   2.859   1.211   0.308 -0.0066  0.1070  0.0453
 1949TIP3    H127482   2.933   1.270   0.327  0.0383 -0.3443  1.3732
 1949TIP3    H227483   2.784   1.253   0.351  0.3134 -1.5049  2.4076
 1950TIP3   OH227484   0.187   3.611   0.345  0.5970  0.0906  0.2070
 1950TIP3    H127485   0.209   3.617   0.438 -0.6241  1.6666  0.4314
 1950TIP3    H227486   0.217   3.524   0.319  1.1466 -0.3026  2.0227
 1951TIP3   OH227487   0.530   0.388   1.361 -0.2934  0.6846  0.6356
 1951TIP3    H127488   0.448   0.397   1.312 -0.7088  0.4567  1.2840
 1951TIP3    H227489   0.538   0.294   1.378  0.2976  0.6599  0.2519
 1952TIP3   OH227490   5.256   0.584   0.562 -0.4536 -0.1392 -0.2632
 1952TIP3    H127491   5.189   0.516   0.554 -0.4354 -0.2931  0.7570
 1952TIP3    H227492   5.322   0.561   0.497 -0.9183 -0.5422 -0.5960
 1953TIP3   OH227493   0.739   5.039   0.698  0.1999  0.5922 -0.0913
 1953TIP3    H127494   0.736   5.061   0.606 -2.2276 -0.0752 -0.2323
 1953TIP3    H227495   0.764   4.946   0.700  0.2074  0.5942 -0.0678
 1954TIP3   OH227496   0.462   2.966   0.157 -0.6824  0.2260  0.1051
 1954TIP3    H127497   0.373   2.959   0.123 -0.8028  0.0615  0.4455
 1954TIP3    H227498   0.455   2.938   0.249 -0.2327 -0.0637  0.0581
 1955TIP3   OH227499   3.669   4.961   3.038 -0.3220 -0.4564  0.0694
 1955TIP3    H127500   3.650   4.926   2.951  0.4976 -2.1796  0.5346
 1955TIP3    H227501   3.752   5.007   3.027 -2.0634  2.7318 -0.8528
 1956TIP3   OH227502   6.445   6.582   6.921 -0.3078 -0.4814 -0.1725
 1956TIP3    H127503   6.389   6.654   6.950  0.9395  0.9400 -1.1351
 1956TIP3    H227504   6.488   6.615   6.843 -0.1157 -2.5161 -0.9905
 1957TIP3   OH227505   1.872   3.340   7.560  0.3771 -0.6809 -0.2846
 1957TIP3    H127506   1.928   3.295   7.497  1.7389  1.6969 -0.9080
 1957TIP3    H227507   1.816   3.396   7.506  0.1810 -0.0832  0.5163
 1958TIP3   OH227508   3.995   3.084   2.169 -0.0421 -0.0645  0.4306
 1958TIP3    H127509   3.899   3.088   2.165 -0.1636 -1.3771  1.6221
 1958TIP3    H227510   4.017   3.116   2.256  0.7192  1.3800 -0.2498
 1959TIP3   OH227511   4.699   4.992   1.581 -0.4027  0.2697 -0.1436
 1959TIP3    H127512   4.743   5.017   1.500 -1.0142  1.4051 -0.1429
 1959TIP3    H227513   4.622   5.048   1.585  1.4836  2.9733  3.0576
 1960TIP3   OH227514   6.750   0.815   2.265 -0.1134 -0.1209  0.8925
 1960TIP3    H127515   6.795   0.813   2.350  0.0364  2.4993  0.9395
 1960TIP3    H227516   6.760   0.905   2.235 -2.2323 -0.3948 -0.8052
 1961TIP3   OH227517   1.124   2.769   2.291  0.1251  0.9214 -0.0176
 1961TIP3    H127518   1.059   2.838   2.303  0.7008  1.4754 -0.0565
 1961TIP3    H227519   1.204   2.805   2.328  0.5896  0.5273 -0.6277
 1962TIP3   OH227520   3.304   3.309   8.449  0.2892 -0.0796  0.2905
 1962TIP3    H127521   3.323   3.286   8.358  1.5582  0.9536  0.2680
 1962TIP3    H227522   3.267   3.229   8.486  0.1882 -0.6614 -1.0061
 1963TIP3   OH227523   6.444   4.995   1.225 -0.0794 -0.1774  0.4604
 1963TIP3    H127524   6.507   4.954   1.166 -0.8752 -0.7888  0.0134
 1963TIP3    H227525   6.497   5.034   1.294  0.6949 -2.6649  1.3763
 1964TIP3   OH227526   6.183   0.261   1.832  0.8812 -0.4007  0.6243
 1964TIP3    H127527   6.118   0.305   1.778  0.4540 -0.1079  1.3582
 1964TIP3    H227528   6.248   0.228   1.770 -0.9407 -2.4444 -0.3358
 1965TIP3   OH227529   3.274   0.955   7.106 -0.5743  0.2761 -0.4183
 1965TIP3    H127530   3.193   0.904   7.103 -0.5540  0.2296 -0.1194
 1965TIP3    H227531   3.246   1.044   7.126 -0.5672  0.2946 -0.4897
 1966TIP3   OH227532   2.879   5.096   1.071 -0.7128  0.5361 -0.1823
 1966TIP3    H127533   2.797   5.048   1.064 -0.1129 -0.4470 -0.5811
 1966TIP3    H227534   2.944   5.030   1.095  0.4095  0.8523 -2.1467
 1967TIP3   OH227535   1.653   2.169   1.705  0.0276 -0.2496  0.8063
 1967TIP3    H127536   1.586   2.126   1.652 -0.8725  1.2648  0.6578
 1967TIP3    H227537   1.654   2.120   1.787 -0.4643 -0.9675  0.3986
 1968TIP3   OH227538   2.107   1.951   0.054 -0.0882  0.2735  0.6271
 1968TIP3    H127539   2.033   1.965  -0.005 -1.0113 -2.0536  1.0935
 1968TIP3    H227540   2.163   1.889   0.007  1.4215  1.7220  0.4412
 1969TIP3   OH227541   5.727   4.970   1.491  0.3048  0.5399 -0.6954
 1969TIP3    H127542   5.759   4.930   1.411  0.3840  0.3544 -0.5696
 1969TIP3    H227543   5.747   5.063   1.481  1.2766  0.3683 -0.4263
 1970TIP3   OH227544   5.262   0.704   7.094 -0.3787  0.5182  0.0061
 1970TIP3    H127545   5.260   0.799   7.103  1.5432  0.5369  0.6162
 1970TIP3    H227546   5.331   0.687   7.030 -0.5009 -0.4927  0.1190
 1971TIP3   OH227547   4.974   1.926   8.467  0.6260 -0.1509 -0.3117
 1971TIP3    H127548   4.959   1.832   8.453  2.0369 -0.5552  0.7320
 1971TIP3    H227549   5.003   1.932   8.557 -0.4420  1.4404 -0.0404
 1972TIP3   OH227550   0.925   4.589   0.404  0.2839  0.0438  0.2671
 1972TIP3    H127551   0.884   4.554   0.325  0.2795 -1.3942  0.8773
 1972TIP3    H227552   0.996   4.644   0.371 -1.0872  1.2646 -0.7589
 1973TIP3   OH227553   0.141   1.448   0.370  0.6554  0.1442  0.4807
 1973TIP3    H127554   0.182   1.400   0.442  0.5316 -1.1243 -0.2658
 1973TIP3    H227555   0.208   1.511   0.342  1.3874 -0.5997  0.5206
 1974TIP3   OH227556   5.522   6.638   6.812  0.0131 -0.0561 -0.0716
 1974TIP3    H127557   5.584   6.627   6.884 -1.5558 -0.2287  1.3331
 1974TIP3    H227558   5.451   6.690   6.850 -0.2570  1.0161 -1.9103
 1975TIP3   OH227559   6.735   5.099   8.604  0.9162  0.5890 -0.1738
 1975TIP3    H127560   6.702   5.094   8.693  0.5161  2.2233 -0.1911
 1975TIP3    H227561   6.820   5.056   8.607  1.3413  1.4446  1.2387
 1976TIP3   OH227562   1.124   5.029   8.676  0.4088  0.2460  0.3857
 1976TIP3    H127563   1.034   5.003   8.654 -0.1148 -1.0716  3.6203
 1976TIP3    H227564   1.178   4.990   8.607 -1.2495 -1.2600 -0.1314
 1977TIP3   OH227565   5.699   6.346   7.454 -0.5734  0.1542 -0.3479
 1977TIP3    H127566   5.640   6.290   7.403  1.4317 -1.0394 -1.4806
 1977TIP3    H227567   5.754   6.285   7.503  0.4240  1.1706 -0.1550
 1978TIP3   OH227568   0.912   3.654   8.294  0.1504  0.5733  0.3564
 1978TIP3    H127569   0.950   3.678   8.209 -0.0003 -0.3934  0.0091
 1978TIP3    H227570   0.987   3.638   8.350  0.2902 -0.7694 -0.1709
 1979TIP3   OH227571   5.114   3.304   8.381  0.0055 -0.0768 -0.6498
 1979TIP3    H127572   5.058   3.379   8.399  0.2959  0.0167 -0.1280
 1979TIP3    H227573   5.203   3.337   8.392  0.1454 -1.1107  2.2684
 1980TIP3   OH227574   2.602   2.143   0.062 -0.4811  0.7112  0.4167
 1980TIP3    H127575   2.545   2.218   0.044 -1.4768  0.5958  2.7218
 1980TIP3    H227576   2.542   2.071   0.080  0.4674 -0.6516 -1.5525
 1981TIP3   OH227577   6.817   6.499   1.392 -0.3509 -0.2083  0.0912
 1981TIP3    H127578   6.814   6.570   1.456 -1.9510 -1.3245  1.3516
 1981TIP3    H227579   6.730   6.500   1.351 -0.5199 -1.5726  0.3524
 1982TIP3   OH227580   1.195   5.497   1.764  0.2075 -0.1577  0.9965
 1982TIP3    H127581   1.288   5.476   1.769  0.9438  2.8058  2.0206
 1982TIP3    H227582   1.172   5.524   1.853 -0.8009  2.0163  0.1630
 1983TIP3   OH227583   2.698   1.516   2.335 -0.0088 -0.3288  0.6298
 1983TIP3    H127584   2.688   1.602   2.294  0.5136 -1.0336 -1.0381
 1983TIP3    H227585   2.649   1.523   2.417 -1.7537  0.8895 -0.4572
 1984TIP3   OH227586   2.225   0.967   2.250 -0.6721 -0.1266 -0.0054
 1984TIP3    H127587   2.269   0.975   2.165 -0.9975  0.4965 -0.1156
 1984TIP3    H227588   2.295   0.939   2.309 -0.5302 -0.9642 -0.5528
 1985TIP3   OH227589   0.110   5.509   7.860  0.0839  0.0260  0.0915
 1985TIP3    H127590   0.038   5.487   7.800  1.1786  0.7737 -1.5671
 1985TIP3    H227591   0.124   5.603   7.848 -0.4671  0.4931  2.5040
 1986TIP3   OH227592   2.910   6.313   8.167 -0.0156  0.3339  0.3786
 1986TIP3    H127593   2.815   6.315   8.157  0.0234  0.2464 -0.0097
 1986TIP3    H227594   2.939   6.242   8.109  0.6196  2.6100 -2.3044
 1987TIP3   OH227595   5.052   2.891   8.723 -0.6946  0.0173 -0.2178
 1987TIP3    H127596   5.132   2.859   8.681 -0.6127 -0.0259 -0.0304
 1987TIP3    H227597   5.062   2.867   8.815 -0.3274  1.1523  0.0513
 1988TIP3   OH227598   1.634   0.305   7.794  0.6868  0.4168  0.7357
 1988TIP3    H127599   1.662   0.214   7.777 -2.4002 -0.4182 -0.5540
 1988TIP3    H227600   1.566   0.297   7.860 -0.8156  1.5679 -0.6197
 1989TIP3   OH227601   1.790   1.836   1.060 -0.1915 -0.4817 -0.5616
 1989TIP3    H127602   1.838   1.904   1.108 -1.5064  1.0448 -1.2981
 1989TIP3    H227603   1.802   1.757   1.111 -0.8715  0.9010  1.8707
 1990TIP3   OH227604   2.063   1.806   8.115 -0.2681  0.2893 -0.3929
 1990TIP3    H127605   2.012   1.884   8.095 -0.4627 -0.1393 -1.6179
 1990TIP3    H227606   2.050   1.748   8.040 -0.4349 -1.0882  0.6348
 1991TIP3   OH227607   1.821   1.578   2.634 -0.0671  0.2152  0.3964
 1991TIP3    H127608   1.746   1.548   2.685  0.6672  0.8526  1.9427
 1991TIP3    H227609   1.803   1.670   2.616 -0.4855 -0.0960 -0.8492
 1992TIP3   OH227610   0.218   5.905   8.078 -0.0483  0.2262 -0.0691
 1992TIP3    H127611   0.283   5.975   8.086 -1.2211  1.2544  0.8908
 1992TIP3    H227612   0.255   5.833   8.128  0.9621  0.3187 -0.6660
 1993TIP3   OH227613   3.907   5.159   1.616  0.1479  0.0150 -1.0707
 1993TIP3    H127614   3.923   5.076   1.662 -1.3057  0.1044 -0.3390
 1993TIP3    H227615   3.837   5.138   1.553 -2.5856  1.2929  1.2993
 1994TIP3   OH227616   4.249   6.400   1.719 -0.1031  0.1310 -0.0087
 1994TIP3    H127617   4.254   6.443   1.634 -0.5341  0.1067 -0.0503
 1994TIP3    H227618   4.300   6.456   1.778  3.5049 -1.7834 -1.0208
 1995TIP3   OH227619   0.847   2.707   7.464  0.4797  0.2001 -0.0634
 1995TIP3    H127620   0.839   2.795   7.500  0.9171  0.4334 -0.5367
 1995TIP3    H227621   0.893   2.658   7.532  0.3046  0.3528  0.1676
 1996TIP3   OH227622   5.472   4.667   0.764 -0.7481 -0.3483 -0.6220
 1996TIP3    H127623   5.425   4.584   0.758 -0.8611 -0.2277 -1.7441
 1996TIP3    H227624   5.482   4.695   0.673  1.8045 -0.5321 -0.4787
 1997TIP3   OH227625   1.613   1.449   7.738 -0.0465 -0.8453 -0.0078
 1997TIP3    H127626   1.635   1.525   7.684 -0.3611 -0.5172  0.3200
 1997TIP3    H227627   1.594   1.379   7.675  0.5310 -0.7337 -0.3044
 1998TIP3   OH227628   2.536   2.136   1.485  0.5978  0.0739  0.0870
 1998TIP3    H127629   2.478   2.105   1.415  0.8377 -1.2052  0.4310
 1998TIP3    H227630   2.478   2.155   1.558  0.3776  1.1240 -0.3440
 1999TIP3   OH227631   4.789   4.900   1.843  0.2303  0.6380  0.2470
 1999TIP3    H127632   4.791   4.804   1.840  0.7390  0.6551 -1.4669
 1999TIP3    H227633   4.700   4.922   1.817  0.5647  0.6167 -0.9937
 2000TIP3   OH227634   5.294   4.455   0.146 -0.4018 -0.4549  0.0757
 2000TIP3    H127635   5.381   4.453   0.107 -0.5094  2.6841 -0.5344
 2000TIP3    H227636   5.243   4.393   0.093  1.1614 -1.6296 -0.1444
 2001TIP3   OH227637   6.206   1.543   1.574 -0.0389  0.1089  0.0536
 2001TIP3    H127638   6.251   1.626   1.557  2.4914 -1.3719 -1.0864
 2001TIP3    H227639   6.152   1.561   1.651  1.2123  2.5241  0.4833
 2002TIP3   OH227640   4.006   4.032   8.819  0.3026 -0.1064 -0.3071
 2002TIP3    H127641   4.036   3.973   8.750  0.1607  0.4812 -0.8738
 2002TIP3    H227642   4.068   4.017   8.891  2.0462  1.1221 -1.4710
 2003TIP3   OH227643   3.505   0.947   0.699  0.3974 -0.0624 -0.8087
 2003TIP3    H127644   3.539   0.874   0.648  1.7295  1.0736 -1.6323
 2003TIP3    H227645   3.508   1.022   0.639 -1.5058  0.5673 -0.1871
 2004TIP3   OH227646   4.388   6.704   0.153  0.5967 -0.5959 -0.0435
 2004TIP3    H127647   4.310   6.696   0.099  1.1018 -1.6415 -0.6577
 2004TIP3    H227648   4.461   6.706   0.090  1.0668  0.7807  0.4912
 2005TIP3   OH227649   0.537   6.106   8.380 -0.8696  0.0892  0.5885
 2005TIP3    H127650   0.584   6.132   8.300 -0.4891  0.3406  0.8911
 2005TIP3    H227651   0.606   6.098   8.446 -1.4072  2.2177  1.4975
 2006TIP3   OH227652   4.182   6.065   0.497  0.3510 -0.3321  0.5703
 2006TIP3    H127653   4.190   6.085   0.590  1.5619 -0.3620  0.4899
 2006TIP3    H227654   4.186   5.969   0.492  0.3729 -0.3270  0.4802
 2007TIP3   OH227655   2.584   0.763   7.409  0.6361  0.1669 -0.0209
 2007TIP3    H127656   2.633   0.829   7.457 -0.2517  0.8659 -0.0429
 2007TIP3    H227657   2.493   0.776   7.437  0.4953 -1.2791  0.2380
 2008TIP3   OH227658   3.337   1.139   1.313  0.3380 -0.0538 -0.0137
 2008TIP3    H127659   3.328   1.082   1.236 -0.9095 -0.1033  0.1519
 2008TIP3    H227660   3.299   1.222   1.285 -0.2274 -0.1084  0.5871
 2009TIP3   OH227661   0.596   0.918   7.151 -0.0580 -0.2560 -0.0325
 2009TIP3    H127662   0.506   0.886   7.156 -0.3660  0.6663  0.3929
 2009TIP3    H227663   0.629   0.910   7.240  0.6052 -1.4562 -0.3568
 2010TIP3   OH227664   3.166   3.881   8.770 -0.3376 -0.0647  0.2114
 2010TIP3    H127665   3.185   3.974   8.783 -2.1248  0.3766 -0.0631
 2010TIP3    H227666   3.171   3.869   8.675 -0.5561 -0.1435  0.2097
 2011TIP3   OH227667   6.397   1.593   6.761  0.5544  0.1415  0.5182
 2011TIP3    H127668   6.320   1.536   6.764 -0.1454  1.1028  2.5943
 2011TIP3    H227669   6.471   1.533   6.773  0.0541 -0.6380 -0.1534
 2012TIP3   OH227670   3.620   2.874   7.396  0.0190  0.3150  0.0953
 2012TIP3    H127671   3.526   2.861   7.383 -0.6329  3.3290  1.1351
 2012TIP3    H227672   3.660   2.833   7.319 -2.2151  0.1171 -1.0600
 2013TIP3   OH227673   3.105   5.519   0.237  0.4154 -0.0234 -0.0542
 2013TIP3    H127674   3.086   5.542   0.328  1.4503 -0.8886  0.4038
 2013TIP3    H227675   3.129   5.602   0.196  0.2212  0.3273  0.5363
 2014TIP3   OH227676   3.280   5.734   0.148 -0.3021 -0.0650  0.0711
 2014TIP3    H127677   3.347   5.684   0.102 -1.5590 -1.6762 -0.0887
 2014TIP3    H227678   3.253   5.800   0.084 -0.7337 -1.1093 -0.8532
 2015TIP3   OH227679   4.793   3.459   8.838 -0.1289  0.2499 -0.4103
 2015TIP3    H127680   4.707   3.485   8.806  0.6653 -0.8129 -3.8552
 2015TIP3    H227681   4.829   3.538   8.879 -2.4992  0.8285  0.7337
 2016TIP3   OH227682   2.759   0.605   7.119 -0.2501  0.6167 -0.0592
 2016TIP3    H127683   2.844   0.603   7.162  0.6377  1.4664 -1.7006
 2016TIP3    H227684   2.779   0.614   7.026 -2.1310  0.7087 -0.4936
 2017TIP3   OH227685   5.629   3.030   7.377  0.6961  0.3457  0.3955
 2017TIP3    H127686   5.692   3.059   7.310  0.3606 -0.4954 -0.2930
 2017TIP3    H227687   5.672   3.051   7.460  1.1040  1.4410 -0.0730
 2018TIP3   OH227688   5.811   3.058   2.383  0.2164  0.5386  0.2830
 2018TIP3    H127689   5.783   3.063   2.292  0.9218 -1.0775 -0.0497
 2018TIP3    H227690   5.730   3.041   2.432  0.0304 -0.0107 -0.2085
 2019TIP3   OH227691   6.422   6.628   0.459 -1.0835  0.3045 -0.3392
 2019TIP3    H127692   6.365   6.679   0.517 -1.4830  0.1642 -0.5993
 2019TIP3    H227693   6.507   6.628   0.502 -1.1898  0.8214 -0.1172
 2020TIP3   OH227694   3.381   6.718   1.745 -0.7910  1.1328  0.0605
 2020TIP3    H127695   3.301   6.667   1.730 -0.6187 -0.0736  2.7010
 2020TIP3    H227696   3.450   6.666   1.705 -0.8794  0.1914  1.0602
 2021TIP3   OH227697   1.436   4.845   2.236  0.3125 -0.1617 -0.1819
 2021TIP3    H127698   1.355   4.817   2.278 -0.3634  1.4945 -0.3293
 2021TIP3    H227699   1.496   4.861   2.309  0.1487 -0.3148 -0.0118
 2022TIP3   OH227700   4.413   4.893   2.095  0.0355  0.0866 -0.2695
 2022TIP3    H127701   4.385   4.974   2.138 -1.2370 -0.3654 -0.1892
 2022TIP3    H227702   4.398   4.825   2.160  1.2357 -0.2046 -0.2848
 2023TIP3   OH227703   5.091   4.547   0.629 -0.2215 -0.1950  0.0959
 2023TIP3    H127704   5.030   4.492   0.579 -0.6323  0.0616  0.3084
 2023TIP3    H227705   5.161   4.567   0.567  0.6147 -2.0257  0.3897
 2024TIP3   OH227706   0.048   6.711   1.585  0.2491  0.6845 -0.4420
 2024TIP3    H127707   0.139   6.731   1.607 -0.1944  2.7668 -0.2831
 2024TIP3    H227708   0.028   6.633   1.636  2.1400 -0.2728 -1.0487
 2025TIP3   OH227709   2.757   4.929   2.294 -0.0808  0.1870  0.1772
 2025TIP3    H127710   2.849   4.937   2.318 -0.1340  0.8409  0.1777
 2025TIP3    H227711   2.733   5.015   2.260 -0.9060  0.2833  0.9505
 2026TIP3   OH227712   5.125   1.714   8.134  0.5625 -0.9044 -0.5027
 2026TIP3    H127713   5.040   1.754   8.118  1.0432 -0.1547 -1.2692
 2026TIP3    H227714   5.105   1.629   8.172 -0.5057 -0.4062  0.0726
 2027TIP3   OH227715   4.474   5.364   0.499 -0.5774  0.4398 -0.1214
 2027TIP3    H127716   4.522   5.423   0.441 -0.1151 -1.1517 -1.4344
 2027TIP3    H227717   4.541   5.309   0.539 -1.1524 -0.7354 -0.7256
 2028TIP3   OH227718   5.784   6.392   8.613 -0.4521 -0.1243  0.2444
 2028TIP3    H127719   5.820   6.465   8.564  0.7093  0.8989  2.4791
 2028TIP3    H227720   5.792   6.418   8.705 -0.8262 -2.6793  1.0833
 2029TIP3   OH227721   0.346   6.330   0.404  0.2509 -0.2739 -0.1191
 2029TIP3    H127722   0.338   6.279   0.484  0.7926 -0.4720 -0.1850
 2029TIP3    H227723   0.432   6.306   0.369 -0.0857 -0.3816 -0.8909
 2030TIP3   OH227724   4.499   1.476   1.437 -0.1875  0.1243 -0.5086
 2030TIP3    H127725   4.412   1.514   1.445  0.7261  1.9061  2.0747
 2030TIP3    H227726   4.511   1.425   1.516  0.7276 -1.0746 -1.3796
 2031TIP3   OH227727   3.909   6.180   0.371 -0.1363  0.5781  0.4697
 2031TIP3    H127728   3.821   6.144   0.380 -0.1769  0.7776  0.8761
 2031TIP3    H227729   3.960   6.135   0.439  0.3111 -0.2604 -0.3943
 2032TIP3   OH227730   5.650   0.911   7.723 -0.3681 -0.1380  0.0034
 2032TIP3    H127731   5.558   0.890   7.713 -0.8014  1.0067  1.1748
 2032TIP3    H227732   5.674   0.957   7.643 -0.3259 -1.8989 -1.0416
 2033TIP3   OH227733   6.182   1.741   7.402 -0.4604  0.0241 -0.1482
 2033TIP3    H127734   6.206   1.683   7.330  0.6092  0.7410 -0.4018
 2033TIP3    H227735   6.088   1.729   7.413 -0.0498 -3.2009  1.0771
 2034TIP3   OH227736   3.280   2.643   7.187 -0.3534 -0.0150  0.0559
 2034TIP3    H127737   3.190   2.645   7.218 -0.8693 -0.4621 -1.3488
 2034TIP3    H227738   3.328   2.698   7.249 -1.6692  0.6206  0.5450
 2035TIP3   OH227739   4.181   5.556   0.641 -0.2330  0.2090 -0.2179
 2035TIP3    H127740   4.269   5.521   0.650  0.1163  0.5010 -1.9866
 2035TIP3    H227741   4.128   5.482   0.613 -0.5505  0.0433  0.8018
 2036TIP3   OH227742   2.236   6.349   7.679  0.0796  0.3168  0.2579
 2036TIP3    H127743   2.230   6.346   7.775 -0.2037 -1.2198  0.2178
 2036TIP3    H227744   2.325   6.318   7.660 -0.3884 -0.9102 -0.0121
 2037TIP3   OH227745   4.612   5.797   2.181  0.2014 -0.2255  0.4468
 2037TIP3    H127746   4.551   5.763   2.246 -0.6434  0.0416 -0.1898
 2037TIP3    H227747   4.568   5.783   2.097  1.2149 -0.4470 -0.0678
 2038TIP3   OH227748   0.968   1.227   1.114 -0.1349  0.6402  0.6760
 2038TIP3    H127749   1.060   1.232   1.141 -0.3207  1.8928  1.1711
 2038TIP3    H227750   0.933   1.152   1.161  0.5563  0.3347  0.7213
 2039TIP3   OH227751   4.944   3.785   0.998  0.1135 -0.0631 -0.1411
 2039TIP3    H127752   4.943   3.835   1.079  0.1703  0.8266 -0.6804
 2039TIP3    H227753   4.903   3.701   1.021 -1.1447  0.6921  0.4760
 2040TIP3   OH227754   6.620   3.903   8.047 -0.1619 -0.0686  0.1743
 2040TIP3    H127755   6.641   3.849   8.123  1.2180  0.6165  0.3125
 2040TIP3    H227756   6.582   3.841   7.984 -0.9110 -0.7175  1.2383
 2041TIP3   OH227757   5.403   5.469   6.905 -0.0984  0.1032  0.1040
 2041TIP3    H127758   5.327   5.455   6.850 -0.4841  0.6403  0.4925
 2041TIP3    H227759   5.394   5.559   6.937  0.5003  0.0493  0.4520
 2042TIP3   OH227760   1.872   5.294   8.458  0.1004  0.0325 -0.1170
 2042TIP3    H127761   1.873   5.319   8.365 -1.9793  1.3904  0.1753
 2042TIP3    H227762   1.886   5.199   8.456  3.4994  0.3944 -1.5449
 2043TIP3   OH227763   0.731   0.169   7.093 -0.6726 -0.0262 -0.1228
 2043TIP3    H127764   0.783   0.249   7.099 -3.9883  2.1903  1.3498
 2043TIP3    H227765   0.676   0.182   7.016 -1.4597 -0.7612  0.3033
 2044TIP3   OH227766   4.051   0.815   0.283 -0.0599  0.2518 -0.1215
 2044TIP3    H127767   4.098   0.750   0.231  1.3741  1.6009 -0.5585
 2044TIP3    H227768   4.109   0.835   0.356 -1.2369 -0.1920  0.9835
 2045TIP3   OH227769   1.757   5.808   7.582  0.4022  0.0230  0.1553
 2045TIP3    H127770   1.838   5.763   7.558  0.5429 -0.8223  2.0100
 2045TIP3    H227771   1.772   5.899   7.559  1.3746 -0.3300 -0.7013
 2046TIP3   OH227772   6.374   1.126   0.085 -0.1688 -0.5191 -0.3481
 2046TIP3    H127773   6.395   1.116   0.177  0.9086 -0.7099 -0.6024
 2046TIP3    H227774   6.331   1.211   0.079  0.4896 -0.1389  0.2083
 2047TIP3   OH227775   3.753   2.187   0.456 -0.4044 -0.0074  0.6246
 2047TIP3    H127776   3.804   2.264   0.481 -2.0147  0.4416  2.7808
 2047TIP3    H227777   3.758   2.128   0.530 -0.4735 -1.3291 -0.3823
 2048TIP3   OH227778   3.997   0.133   6.818  0.0269 -0.4843  0.2644
 2048TIP3    H127779   3.921   0.104   6.767  0.0804 -1.5571  0.7605
 2048TIP3    H227780   4.042   0.194   6.760 -0.4472 -0.9266 -0.6037
 2049TIP3   OH227781   5.347   1.129   0.514 -0.5941  0.0168  0.6251
 2049TIP3    H127782   5.307   1.142   0.428  1.1246  1.1200 -0.0490
 2049TIP3    H227783   5.436   1.161   0.504 -0.2833 -0.0716  2.7715
 2050TIP3   OH227784   0.691   4.711   8.237 -0.0827 -0.0554 -0.3516
 2050TIP3    H127785   0.779   4.674   8.239 -0.4139 -0.8566  1.3052
 2050TIP3    H227786   0.658   4.691   8.149  0.6002 -1.6732 -0.2703
 2051TIP3   OH227787   4.317   5.420   0.055  0.3296 -0.6700 -0.5884
 2051TIP3    H127788   4.345   5.387  -0.030  0.5222  0.3313 -0.9280
 2051TIP3    H227789   4.221   5.424   0.049  0.2392 -1.9890 -0.2211
 2052TIP3   OH227790   1.384   5.702   6.750 -0.3869  0.1708  0.6166
 2052TIP3    H127791   1.295   5.727   6.726  0.4651  1.0466 -1.9968
 2052TIP3    H227792   1.432   5.784   6.755  0.5876 -0.3703  0.4842
 2053TIP3   OH227793   4.332   4.981   7.358  0.0192 -0.2770 -0.1362
 2053TIP3    H127794   4.391   4.933   7.416  1.0962  0.9933 -0.1254
 2053TIP3    H227795   4.356   4.953   7.270 -0.8576 -1.3674 -0.0531
 2054TIP3   OH227796   5.314   5.119   0.828  0.4307  1.0336  0.3514
 2054TIP3    H127797   5.279   5.143   0.913  1.3602  1.6802  0.5671
 2054TIP3    H227798   5.409   5.116   0.841  0.4944 -0.6382 -0.2171
 2055TIP3   OH227799   4.869   5.127   2.001 -0.3250  0.2012 -0.1538
 2055TIP3    H127800   4.864   5.045   1.950 -0.8290  0.4076 -0.4513
 2055TIP3    H227801   4.900   5.100   2.087 -0.5983 -0.3270 -0.2144
 2056TIP3   OH227802   6.123   1.895   2.568 -0.7534  0.4980 -0.6907
 2056TIP3    H127803   6.179   1.881   2.492 -0.9769  2.8753 -1.3932
 2056TIP3    H227804   6.120   1.991   2.578  1.4398  0.3866  3.9258
 2057TIP3   OH227805   5.497   0.285   8.470 -0.5195 -0.1266 -0.5136
 2057TIP3    H127806   5.401   0.284   8.477 -0.5110  0.0319 -0.3733
 2057TIP3    H227807   5.514   0.265   8.378 -0.7192  1.0406 -0.8108
 2058TIP3   OH227808   0.511   2.125   1.224 -0.0465 -0.0387  0.2131
 2058TIP3    H127809   0.437   2.176   1.257 -0.0558 -0.4548  0.8551
 2058TIP3    H227810   0.519   2.052   1.285  0.3773 -0.4516 -0.3202
 2059TIP3   OH227811   1.909   1.969   1.296 -0.0867  0.4191  0.0757
 2059TIP3    H127812   1.862   1.920   1.364  0.7900 -1.1288 -0.3965
 2059TIP3    H227813   1.980   2.012   1.343  0.0796 -0.0422  0.2410
 2060TIP3   OH227814   4.988   6.137   8.295 -0.6542 -0.1089  0.0096
 2060TIP3    H127815   5.058   6.086   8.253 -0.2350  1.4332 -1.2649
 2060TIP3    H227816   4.930   6.071   8.333  0.8119 -1.4722  0.0075
 2061TIP3   OH227817   5.645   6.209   0.345  0.0881  0.2768  0.0706
 2061TIP3    H127818   5.677   6.294   0.314  1.9668 -0.1080  0.8008
 2061TIP3    H227819   5.675   6.205   0.436 -0.5869 -0.8875  0.2576
 2062TIP3   OH227820   4.397   3.821   8.789  0.5816 -0.5840  0.4644
 2062TIP3    H127821   4.345   3.747   8.758  0.9756 -0.4969 -0.4285
 2062TIP3    H227822   4.460   3.838   8.719  0.2494  0.8343  0.4664
 2063TIP3   OH227823   6.544   4.883   8.667  0.1068  0.1720 -0.1915
 2063TIP3    H127824   6.528   4.974   8.640  0.4996  0.2694 -0.1096
 2063TIP3    H227825   6.479   4.832   8.619  1.0469  0.2841 -1.6537
 2064TIP3   OH227826   0.860   1.030   0.081  0.1592  0.0865 -0.5036
 2064TIP3    H127827   0.796   0.973   0.125  0.2988  1.6087  1.7889
 2064TIP3    H227828   0.834   1.026  -0.011 -1.8149 -1.1564  0.0284
 2065TIP3   OH227829   2.870   4.758   1.500 -0.0958 -0.2770 -0.1308
 2065TIP3    H127830   2.936   4.806   1.551 -0.5159 -0.5017  0.6283
 2065TIP3    H227831   2.900   4.667   1.502  0.1076 -0.2257 -0.6426
 2066TIP3   OH227832   5.695   2.912   6.968 -0.7275  0.0673  0.1403
 2066TIP3    H127833   5.615   2.944   7.008  0.0653  1.5629  0.6099
 2066TIP3    H227834   5.697   2.954   6.882  0.3781  1.4620  0.8061
 2067TIP3   OH227835   2.436   3.569   8.573  0.1097 -0.1093 -0.3055
 2067TIP3    H127836   2.529   3.580   8.557 -0.0601 -0.0776 -1.3789
 2067TIP3    H227837   2.402   3.658   8.583 -0.1371  0.0319 -2.0768
 2068TIP3   OH227838   3.931   5.313   1.864  0.1063 -0.4784 -0.3903
 2068TIP3    H127839   3.839   5.299   1.887 -0.6919  2.3224 -1.4933
 2068TIP3    H227840   3.938   5.286   1.773 -0.0012  0.5337 -0.7165
 2069TIP3   OH227841   6.076   0.080   7.978 -0.1585  0.0209  0.0030
 2069TIP3    H127842   6.135   0.005   7.973 -0.0752  0.1397 -1.4473
 2069TIP3    H227843   6.113   0.143   7.916 -0.8879  0.7700  0.3147
 2070TIP3   OH227844   5.994   4.529   8.291 -0.3106  0.1703  0.3521
 2070TIP3    H127845   5.964   4.494   8.375 -1.1367  1.8249  0.7887
 2070TIP3    H227846   6.040   4.610   8.314  1.8777 -0.7427 -0.5859
 2071TIP3   OH227847   3.684   2.856   0.245 -0.2923  0.2830  0.0210
 2071TIP3    H127848   3.727   2.878   0.162  0.5128 -0.4428  0.2389
 2071TIP3    H227849   3.592   2.880   0.231 -0.2979 -0.4212 -1.3004
 2072TIP3   OH227850   1.136   1.725   0.750  0.7560  0.3401  0.5979
 2072TIP3    H127851   1.104   1.753   0.664  0.6239 -0.3617  0.4071
 2072TIP3    H227852   1.182   1.801   0.785  1.7729  0.3108 -0.5703
 2073TIP3   OH227853   6.215   0.549   8.845 -0.2604 -0.4302  0.1093
 2073TIP3    H127854   6.200   0.458   8.819  2.5259 -0.4112 -2.0440
 2073TIP3    H227855   6.221   0.546   8.940 -0.4880 -2.4617  0.1095
 2074TIP3   OH227856   5.768   3.341   0.374  0.6123 -0.3342  0.1228
 2074TIP3    H127857   5.763   3.324   0.468 -2.3548  0.3340  0.1917
 2074TIP3    H227858   5.759   3.436   0.366  0.9128 -0.3715 -0.8529
 2075TIP3   OH227859   3.853   4.615   0.886  0.0688  0.1132  0.5136
 2075TIP3    H127860   3.828   4.548   0.949  1.2696 -0.9604 -0.1155
 2075TIP3    H227861   3.870   4.693   0.939 -1.3944 -0.0428  1.2464
 2076TIP3   OH227862   5.128   0.960   7.656 -0.4300 -0.4800 -0.0583
 2076TIP3    H127863   5.137   1.041   7.604 -0.3214  0.0475  0.7652
 2076TIP3    H227864   5.065   0.908   7.606 -1.7386  0.7929  0.1886
 2077TIP3   OH227865   1.093   0.359   0.563 -0.5540 -0.1804 -0.2443
 2077TIP3    H127866   1.086   0.449   0.593  0.2634 -0.1741 -0.0411
 2077TIP3    H227867   1.129   0.311   0.637  0.5537 -0.3522 -0.8711
 2078TIP3   OH227868   5.441   1.689   8.356 -0.3531 -0.2531  0.3992
 2078TIP3    H127869   5.411   1.771   8.318  0.8056  0.6561  1.3476
 2078TIP3    H227870   5.430   1.624   8.286 -0.9892  0.7711 -0.4763
 2079TIP3   OH227871   6.263   0.551   7.871 -0.4750  0.5156 -0.1031
 2079TIP3    H127872   6.341   0.593   7.834 -0.8546  1.8062  0.5200
 2079TIP3    H227873   6.195   0.568   7.806 -0.5598  0.5863  0.0058
 2080TIP3   OH227874   0.832   4.309   1.375  0.4031 -0.2107  0.3399
 2080TIP3    H127875   0.900   4.264   1.426  0.3696 -1.2364 -0.4872
 2080TIP3    H227876   0.777   4.238   1.341  0.9949  0.3414 -1.9270
 2081TIP3   OH227877   2.113   4.151   0.762 -0.2085 -0.1853  0.1766
 2081TIP3    H127878   2.092   4.137   0.670  0.6696 -0.4668  0.0076
 2081TIP3    H227879   2.029   4.143   0.808 -0.6372 -0.1246 -0.5875
 2082TIP3   OH227880   5.309   0.858   0.979 -0.0168  0.1275  0.1075
 2082TIP3    H127881   5.244   0.840   0.912 -1.0609  1.1636  0.8010
 2082TIP3    H227882   5.391   0.873   0.931 -0.0456 -2.1112 -0.7143
 2083TIP3   OH227883   5.460   3.891   7.193 -0.0508  0.5483  0.1146
 2083TIP3    H127884   5.504   3.974   7.173 -1.3759  1.1247 -0.5355
 2083TIP3    H227885   5.450   3.847   7.109 -1.3871  0.7947  0.1169
 2084TIP3   OH227886   5.526   1.485   7.635  0.0108 -0.0156  0.9500
 2084TIP3    H127887   5.558   1.573   7.655 -0.9217  0.2809  1.1509
 2084TIP3    H227888   5.437   1.482   7.670 -1.7384  0.5125 -2.8941
 2085TIP3   OH227889   0.594   3.817   0.976 -0.0499 -0.2675  0.9110
 2085TIP3    H127890   0.678   3.794   0.937  0.1404 -0.3254  1.3523
 2085TIP3    H227891   0.535   3.747   0.949  0.0998 -0.3498  0.7958
 2086TIP3   OH227892   2.390   0.014   8.811 -0.0013  0.3258  0.3423
 2086TIP3    H127893   2.298  -0.014   8.810  0.3688 -1.0014  0.6029
 2086TIP3    H227894   2.391   0.092   8.866 -0.7933 -0.4079  1.4529
 2087TIP3   OH227895   1.686   0.930   1.151 -0.0996  0.6693  0.2244
 2087TIP3    H127896   1.592   0.934   1.135 -0.6505 -1.9255  2.1318
 2087TIP3    H227897   1.694   0.942   1.246  1.4875  0.7736  0.0953
 2088TIP3   OH227898   6.219   2.595   8.628 -0.4418 -0.1293 -0.7262
 2088TIP3    H127899   6.222   2.640   8.544 -1.6450 -2.9580 -2.4444
 2088TIP3    H227900   6.248   2.506   8.608 -3.0337 -1.5645  1.3050
 2089TIP3   OH227901   2.175   4.648   1.446 -0.3955 -0.2541 -0.4469
 2089TIP3    H127902   2.083   4.640   1.469  0.2780  0.4403  3.1453
 2089TIP3    H227903   2.189   4.742   1.432  0.0130 -0.1645  0.4849
 2090TIP3   OH227904   6.587   4.027   0.609 -0.1092 -0.1322 -0.7842
 2090TIP3    H127905   6.552   3.947   0.569  1.8803 -1.8623  0.7234
 2090TIP3    H227906   6.648   3.996   0.676  1.0361  2.6771 -0.3853
 2091TIP3   OH227907   2.442   4.498   1.955 -0.4445 -0.1840  0.6263
 2091TIP3    H127908   2.500   4.460   1.889  1.7204  3.6629  0.0420
 2091TIP3    H227909   2.383   4.554   1.905  0.2212  1.5883  1.7409
 2092TIP3   OH227910   0.908   3.561   1.283 -0.0828 -0.2804  0.4496
 2092TIP3    H127911   0.859   3.537   1.362 -0.9322 -1.5072 -0.3970
 2092TIP3    H227912   0.888   3.490   1.221  0.5821  0.6387 -0.8529
 2093TIP3   OH227913   3.732   0.997   7.190  0.4324 -0.2979  0.6373
 2093TIP3    H127914   3.657   0.975   7.135  0.6108 -0.4320  0.4421
 2093TIP3    H227915   3.808   0.968   7.139  0.8373  2.5012 -0.5108
 2094TIP3   OH227916   1.820   1.555   7.258  0.2079 -0.8437  0.2134
 2094TIP3    H127917   1.791   1.625   7.200  1.9111  0.7474  1.1762
 2094TIP3    H227918   1.848   1.485   7.199  0.0623 -0.0387 -0.8353
 2095TIP3   OH227919   6.453   2.057   2.929  0.1902 -0.0473  0.4640
 2095TIP3    H127920   6.522   2.066   2.863 -0.8799 -3.8488 -1.5104
 2095TIP3    H227921   6.379   2.106   2.893 -0.1561 -1.5032 -0.9586
 2096TIP3   OH227922   3.724   2.470   8.084  0.0111  0.4726  0.0816
 2096TIP3    H127923   3.798   2.495   8.140  0.2696  0.9759 -0.4788
 2096TIP3    H227924   3.761   2.466   7.996 -0.5942  0.5631 -0.1786
 2097TIP3   OH227925   5.720   4.540   8.590 -0.1885  0.1461  0.1361
 2097TIP3    H127926   5.744   4.604   8.657  0.1271 -2.1185  2.3238
 2097TIP3    H227927   5.803   4.503   8.560 -0.2832  1.5095 -2.0179
 2098TIP3   OH227928   1.004   1.185   0.604  0.2185 -0.1731  0.7121
 2098TIP3    H127929   0.911   1.208   0.597  0.7642  1.8691 -0.7444
 2098TIP3    H227930   1.038   1.244   0.672  0.6556 -0.1808  0.4989
 2099TIP3   OH227931   5.906   4.394   1.435 -0.2333 -0.0435  0.2528
 2099TIP3    H127932   5.987   4.345   1.426  1.1005  2.0955 -0.2265
 2099TIP3    H227933   5.908   4.429   1.525 -1.6944 -1.6557  0.9700
 2100TIP3   OH227934   3.173   6.724   0.691 -0.0400 -0.3784  0.2972
 2100TIP3    H127935   3.202   6.653   0.749  1.1229 -0.5596 -0.4616
 2100TIP3    H227936   3.173   6.802   0.746 -3.6106 -1.2500  1.7855
 2101TIP3   OH227937   0.488   1.002   0.400 -0.1203 -0.5270  0.3844
 2101TIP3    H127938   0.401   0.964   0.413 -0.5636 -0.2735 -1.5186
 2101TIP3    H227939   0.474   1.096   0.403  0.1802 -0.4860  0.5552
 2102TIP3   OH227940   2.048   2.418   8.848  0.1714  0.1027 -0.0044
 2102TIP3    H127941   2.043   2.504   8.807 -0.0154  0.0689 -0.0501
 2102TIP3    H227942   1.999   2.360   8.790  3.0420 -0.7408 -1.8029
 2103TIP3   OH227943   3.949   1.180   8.336  0.2710  0.4468 -0.5102
 2103TIP3    H127944   3.855   1.180   8.355  0.5330  0.1780  0.8759
 2103TIP3    H227945   3.970   1.272   8.319 -0.1185  0.6093 -0.1215
 2104TIP3   OH227946   3.689   3.254   8.176  0.2300  0.2672 -0.6077
 2104TIP3    H127947   3.595   3.232   8.179  0.4949 -0.8359  1.0524
 2104TIP3    H227948   3.691   3.348   8.162 -1.1643  0.4517  0.2224
 2105TIP3   OH227949   4.976   2.338   1.655  0.1140 -0.0478  0.8235
 2105TIP3    H127950   5.009   2.325   1.744 -0.4802 -1.4646  0.8651
 2105TIP3    H227951   4.953   2.250   1.625  1.3309  0.2553 -1.1626
 2106TIP3   OH227952   0.352   4.145   0.120 -0.5060 -0.4078 -0.1394
 2106TIP3    H127953   0.272   4.096   0.144 -1.1579  0.4478 -0.5070
 2106TIP3    H227954   0.419   4.112   0.180 -1.6010  0.2520  1.5218
 2107TIP3   OH227955   1.793   0.308   8.151 -0.1887 -0.1613 -0.5567
 2107TIP3    H127956   1.700   0.289   8.145 -0.0880 -0.4609 -1.1918
 2107TIP3    H227957   1.799   0.403   8.139 -0.2668 -0.3481 -2.3245
 2108TIP3   OH227958   5.073   4.070   8.698  0.0717 -0.2268  0.4147
 2108TIP3    H127959   5.159   4.029   8.706  0.4222  0.2455 -0.8555
 2108TIP3    H227960   5.013   3.996   8.686  0.4901 -0.4682 -0.2074
 2109TIP3   OH227961   2.244   3.699   0.822  0.4700 -0.5947 -0.0177
 2109TIP3    H127962   2.201   3.613   0.820  0.7972 -0.7503 -1.5942
 2109TIP3    H227963   2.226   3.737   0.736  1.7016  0.2427  0.0666
 2110TIP3   OH227964   4.162   1.732   2.215 -0.1499  0.5167 -0.3580
 2110TIP3    H127965   4.162   1.638   2.203 -1.0335  0.3535  0.7153
 2110TIP3    H227966   4.071   1.754   2.236  0.4644  1.2156  1.9117
 2111TIP3   OH227967   4.205   5.845   1.666 -0.1029 -0.2148 -0.1345
 2111TIP3    H127968   4.179   5.927   1.624 -1.3648  0.0813  1.1544
 2111TIP3    H227969   4.146   5.780   1.629  1.1146 -0.6512 -1.4063
 2112TIP3   OH227970   4.907   4.877   8.645  0.3930  0.3991 -0.2596
 2112TIP3    H127971   4.965   4.938   8.691 -0.9206  0.3101  1.6100
 2112TIP3    H227972   4.845   4.932   8.598  0.3839  0.4886 -0.1409
 2113TIP3   OH227973   5.316   1.434   0.509 -0.2338 -0.1904 -0.0622
 2113TIP3    H127974   5.280   1.449   0.422 -3.5023 -0.8558  1.0428
 2113TIP3    H227975   5.329   1.340   0.514  0.6657 -0.0749 -0.0549
 2114TIP3   OH227976   2.115   3.756   8.044  0.4168  0.1466  0.2022
 2114TIP3    H127977   2.195   3.739   8.093  0.8643 -3.0906 -1.3725
 2114TIP3    H227978   2.141   3.752   7.952 -1.2674  0.7130 -0.3463
 2115TIP3   OH227979   1.304   1.509   2.573 -0.4765 -0.3381 -0.2848
 2115TIP3    H127980   1.350   1.566   2.634  0.7227 -0.7075 -0.8120
 2115TIP3    H227981   1.253   1.450   2.630 -1.2747  0.8433  0.2714
 2116TIP3   OH227982   1.115   2.276   7.882 -0.3112  0.5717  0.0582
 2116TIP3    H127983   1.166   2.196   7.873 -0.5492  0.0895  2.4588
 2116TIP3    H227984   1.168   2.332   7.939 -1.7116  0.6742  1.3233
 2117TIP3   OH227985   3.764   5.794   1.369  0.1801 -0.0480  0.3432
 2117TIP3    H127986   3.717   5.753   1.442  0.2174 -0.2342  0.2645
 2117TIP3    H227987   3.741   5.741   1.293 -1.7389  1.5128 -0.2545
 2118TIP3   OH227988   5.354   2.389   8.800 -0.1388 -0.1293 -0.0527
 2118TIP3    H127989   5.338   2.369   8.707 -0.7019 -0.6144  0.1389
 2118TIP3    H227990   5.282   2.448   8.824  0.4027  0.5603 -0.1005
 2119TIP3   OH227991   1.380   1.393   7.473  0.2326  0.4509 -0.6383
 2119TIP3    H127992   1.372   1.489   7.467  0.7673  0.5027 -0.5737
 2119TIP3    H227993   1.470   1.375   7.447  0.1743 -0.0266 -0.5154
 2120TIP3   OH227994   2.892   3.509   2.282 -0.2499 -0.2373 -0.2782
 2120TIP3    H127995   2.909   3.443   2.349  1.0473  1.1826  0.8538
 2120TIP3    H227996   2.961   3.495   2.217 -0.3631 -0.3782 -0.3715
 2121TIP3   OH227997   0.501   5.653   2.152  0.1914 -0.0622  0.2806
 2121TIP3    H127998   0.540   5.572   2.118 -2.0404 -1.0531 -0.1347
 2121TIP3    H227999   0.566   5.721   2.136  1.7102 -1.5977 -0.3110
 2122TIP3   OH228000   1.749   2.387   2.641  0.1485  0.1242 -0.3152
 2122TIP3    H128001   1.793   2.459   2.686 -0.5182  0.0605  0.4706
 2122TIP3    H228002   1.656   2.402   2.659 -0.0419 -0.5402 -0.7296
 2123TIP3   OH228003   0.680   0.165   0.842 -0.0750 -0.0575  0.4452
 2123TIP3    H128004   0.602   0.199   0.797  0.6680 -0.3310 -1.1435
 2123TIP3    H228005   0.661   0.176   0.935 -2.3494 -0.8566  0.1415
 2124TIP3   OH228006   0.966   2.352   0.462  0.2847  0.1279  0.0869
 2124TIP3    H128007   0.912   2.323   0.535 -0.7562  0.2466 -0.6097
 2124TIP3    H228008   0.988   2.443   0.483  0.1300  0.1087  0.3309
 2125TIP3   OH228009   5.992   4.708   0.150 -0.0589  0.4236  0.1297
 2125TIP3    H128010   6.007   4.720   0.057 -0.1670  1.0263  0.1822
 2125TIP3    H228011   5.930   4.636   0.156  1.2805 -0.7888 -0.1800
 2126TIP3   OH228012   1.103   1.377   2.713 -0.2343  0.2427 -0.2309
 2126TIP3    H128013   1.097   1.309   2.780  2.1872 -0.6361 -0.8102
 2126TIP3    H228014   1.037   1.442   2.739  0.1576 -0.3683  2.6274
 2127TIP3   OH228015   0.523   0.003   8.597  0.4878 -0.0663  0.4964
 2127TIP3    H128016   0.578   0.034   8.524 -0.9804 -0.2200 -0.7285
 2127TIP3    H228017   0.534  -0.092   8.596 -1.9797 -0.4538 -1.7170
 2128TIP3   OH228018   0.599   6.240   1.563  0.0632  0.1458  0.2882
 2128TIP3    H128019   0.598   6.304   1.634  0.1132 -1.3469  1.6927
 2128TIP3    H228020   0.631   6.160   1.604 -0.8615 -1.0274 -1.1993
 2129TIP3   OH228021   2.672   4.811   7.323  0.2891 -0.0946  0.3922
 2129TIP3    H128022   2.700   4.803   7.231  0.2139  0.8680  0.2774
 2129TIP3    H228023   2.656   4.721   7.351  0.9645 -0.4543 -0.3400
 2130TIP3   OH228024   6.284   1.936   1.849 -0.3826  0.4263  0.0220
 2130TIP3    H128025   6.318   2.016   1.889 -0.7305  0.8383 -0.4944
 2130TIP3    H228026   6.200   1.961   1.812 -1.0699 -0.4935  0.9302
 2131TIP3   OH228027   5.274   4.674   8.147  0.0659  0.0265  0.5661
 2131TIP3    H128028   5.237   4.615   8.213 -0.8567  0.1830  0.2077
 2131TIP3    H228029   5.328   4.618   8.091 -0.4870 -0.4082  0.4654
 2132TIP3   OH228030   3.840   3.896   1.407  0.5019  0.2288  0.4106
 2132TIP3    H128031   3.925   3.879   1.447  0.2486 -0.8271  0.5188
 2132TIP3    H228032   3.858   3.896   1.313  0.5861 -0.1727  0.4266
 2133TIP3   OH228033   1.841   5.811   8.159 -0.5883 -0.0219 -0.1321
 2133TIP3    H128034   1.888   5.766   8.230  0.6612  1.4737  0.0550
 2133TIP3    H228035   1.857   5.757   8.082  0.5332 -0.1379  0.1634
 2134TIP3   OH228036   0.973   1.709   7.342 -0.0526 -0.0477 -0.2109
 2134TIP3    H128037   0.989   1.615   7.333  0.5136 -0.2554  2.3409
 2134TIP3    H228038   1.027   1.749   7.274  2.3286 -1.4343  0.7548
 2135TIP3   OH228039   6.772   3.365   0.946 -0.0407 -0.3024 -0.4532
 2135TIP3    H128040   6.785   3.457   0.973  1.5783 -0.8686  0.8883
 2135TIP3    H228041   6.846   3.347   0.888 -0.8403 -0.5261 -1.4228
 2136TIP3   OH228042   6.225   3.070   1.380  0.9734 -0.0019  0.3132
 2136TIP3    H128043   6.210   3.124   1.302  1.4378  0.3874  0.4884
 2136TIP3    H228044   6.166   3.106   1.446 -1.8380 -2.3542 -0.7422
 2137TIP3   OH228045   4.393   4.409   6.830 -0.0166 -0.1260  0.0414
 2137TIP3    H128046   4.405   4.449   6.744 -1.3162  1.6291  0.6137
 2137TIP3    H228047   4.304   4.433   6.855 -0.5937 -2.7293  0.8401
 2138TIP3   OH228048   4.432   1.538   0.857  0.0026  0.1778 -0.2274
 2138TIP3    H128049   4.344   1.571   0.837  1.0114  2.3841 -1.4749
 2138TIP3    H228050   4.466   1.509   0.773  2.1575  4.0092 -0.9131
 2139TIP3   OH228051   5.109   4.752   0.876 -0.7327 -0.0993  0.2334
 2139TIP3    H128052   5.114   4.658   0.891 -1.7120 -0.2501 -0.2749
 2139TIP3    H228053   5.105   4.760   0.780  0.7551  0.5507  0.2037
 2140TIP3   OH228054   4.449   3.874   0.367 -0.1567  0.7768  0.5440
 2140TIP3    H128055   4.401   3.792   0.361  0.0694  0.6208  0.8245
 2140TIP3    H228056   4.423   3.911   0.452  0.0614  0.7894  0.6056
 2141TIP3   OH228057   3.882   1.791   7.882  0.8924  0.6241  0.4951
 2141TIP3    H128058   3.954   1.844   7.913  1.4516  0.2742 -0.1722
 2141TIP3    H228059   3.819   1.790   7.954  0.9311  2.0653  0.5715
 2142TIP3   OH228060   5.450   5.482   8.730 -0.0732 -0.5098 -0.2233
 2142TIP3    H128061   5.468   5.505   8.821  1.3949 -4.3876  0.6319
 2142TIP3    H228062   5.383   5.545   8.703 -1.1417  0.3524  3.7517
 2143TIP3   OH228063   6.705   5.049   2.536 -0.2956 -0.2089  0.2394
 2143TIP3    H128064   6.700   5.092   2.451 -1.3821  0.0213  0.3995
 2143TIP3    H228065   6.623   5.000   2.543  0.4016 -1.3556  0.5689
 2144TIP3   OH228066   5.474   1.049   1.666 -0.1196  0.0089  0.3631
 2144TIP3    H128067   5.486   1.031   1.759 -0.9933  2.8450  1.1120
 2144TIP3    H228068   5.383   1.079   1.659  0.6026  2.1056 -0.9622
 2145TIP3   OH228069   2.548   5.294   0.159  0.2197 -0.2855 -0.0731
 2145TIP3    H128070   2.598   5.244   0.095 -0.3555 -0.6770 -0.2230
 2145TIP3    H228071   2.475   5.237   0.182  1.3268 -0.8887  2.2280
 2146TIP3   OH228072   2.556   3.104   7.711  0.2244  0.2465  0.3041
 2146TIP3    H128073   2.645   3.078   7.686  0.5716  0.5018  1.2465
 2146TIP3    H228074   2.567   3.189   7.753 -0.3789 -0.0319  1.0462
 2147TIP3   OH228075   4.031   1.949   8.081 -0.0679  0.0278  0.7243
 2147TIP3    H128076   3.990   2.034   8.098  0.5981  0.5277 -0.0836
 2147TIP3    H228077   4.110   1.970   8.031  1.2241 -0.8978  2.2802
 2148TIP3   OH228078   5.451   4.051   2.949 -0.2308  0.0111 -0.3350
 2148TIP3    H128079   5.489   4.026   2.864  0.5536  0.7747 -0.2282
 2148TIP3    H228080   5.467   4.145   2.955 -1.5927  0.2419  0.0216
 2149TIP3   OH228081   5.755   4.795   7.496  0.0925  0.1509  0.0668
 2149TIP3    H128082   5.735   4.702   7.498  3.4994 -0.7086 -0.7142
 2149TIP3    H228083   5.709   4.827   7.418  0.6842 -1.3965 -0.9676
 2150TIP3   OH228084   6.002   5.732   1.775 -0.4957 -0.7265  0.4308
 2150TIP3    H128085   5.969   5.821   1.787  0.4559  0.0694 -2.1111
 2150TIP3    H228086   5.946   5.677   1.831 -0.9310  1.4566  2.2649
 2151TIP3   OH228087   2.181   1.687   0.188 -0.5605  0.7729 -0.9500
 2151TIP3    H128088   2.226   1.752   0.242  0.6206 -1.0170  0.3662
 2151TIP3    H228089   2.231   1.686   0.106  0.5594  0.2845 -0.2911
 2152TIP3   OH228090   1.865   0.004   8.585  0.3977  0.0380 -0.6548
 2152TIP3    H128091   1.815   0.062   8.643  2.3592  0.2428  0.9191
 2152TIP3    H228092   1.915   0.063   8.530  1.0870 -0.1341 -0.2275
 2153TIP3   OH228093   5.224   2.685   6.387  0.3318 -0.2091 -0.2180
 2153TIP3    H128094   5.180   2.757   6.431  0.7778 -0.3261  0.4501
 2153TIP3    H228095   5.160   2.614   6.387 -0.0252  0.1133 -0.6659
 2154TIP3   OH228096   1.835   2.696   1.328 -0.1803 -0.0992  0.0655
 2154TIP3    H128097   1.761   2.648   1.290 -1.1317  1.9446 -0.8085
 2154TIP3    H228098   1.806   2.718   1.417 -1.3500  2.0178 -0.7718
 2155TIP3   OH228099   1.033   2.404   2.039 -0.5520 -0.3209  0.2163
 2155TIP3    H128100   1.010   2.491   2.007 -0.9521 -0.2287  0.7409
 2155TIP3    H228101   1.025   2.347   1.963  2.6927  0.5606 -0.9538
 2156TIP3   OH228102   4.172   4.553   2.283  0.3690  0.0527 -0.1089
 2156TIP3    H128103   4.112   4.624   2.306  1.4397  0.8031  0.4699
 2156TIP3    H228104   4.204   4.520   2.366 -0.5750 -1.5679 -0.3412
 2157TIP3   OH228105   5.626   1.906   8.382 -0.2965  0.5690  0.5301
 2157TIP3    H128106   5.594   1.820   8.408 -0.9499  0.9442  0.9665
 2157TIP3    H228107   5.649   1.950   8.464 -0.1804  0.8970  0.3253
 2158TIP3   OH228108   6.291   4.891   2.697  0.3144 -0.1985 -0.3642
 2158TIP3    H128109   6.250   4.813   2.733  1.0117 -0.2748  0.2873
 2158TIP3    H228110   6.218   4.942   2.661 -0.5126  0.1786  1.7162
 2159TIP3   OH228111   6.180   3.739   8.307  0.0180 -0.0706  0.1346
 2159TIP3    H128112   6.270   3.710   8.322  0.2823 -0.3034 -1.6441
 2159TIP3    H228113   6.166   3.809   8.371  0.5968 -1.6581  2.0815
 2160TIP3   OH228114   3.384   0.190   0.728 -0.4803 -0.2022  0.1898
 2160TIP3    H128115   3.463   0.148   0.694  1.3179  2.0709  1.2969
 2160TIP3    H228116   3.377   0.158   0.818 -0.1205  0.4654  0.4637
 2161TIP3   OH228117   0.131   6.124   7.402  0.1597 -0.2402 -0.5060
 2161TIP3    H128118   0.209   6.069   7.413  0.2855 -0.4119 -2.0265
 2161TIP3    H228119   0.163   6.204   7.361 -0.4745 -0.4113 -1.3717
 2162TIP3   OH228120   6.740   1.350   1.413  0.1346 -0.6066  0.3559
 2162TIP3    H128121   6.726   1.257   1.393 -2.6097 -0.3840  0.8965
 2162TIP3    H228122   6.764   1.350   1.506 -0.3200 -0.7538  0.4759
 2163TIP3   OH228123   5.479   4.434   8.550  0.4313  0.4191  0.5121
 2163TIP3    H128124   5.560   4.486   8.543  0.4974  0.2484 -0.0307
 2163TIP3    H228125   5.446   4.429   8.460  1.0043 -1.4028  0.3712
 2164TIP3   OH228126   6.123   4.217   1.351 -0.1270  0.0891 -0.2710
 2164TIP3    H128127   6.194   4.154   1.342  0.4434  0.8263 -1.0372
 2164TIP3    H228128   6.045   4.171   1.319 -0.4208 -1.3636  2.2386
 2165TIP3   OH228129   5.779   5.764   0.626 -0.4571  0.5873  0.2151
 2165TIP3    H128130   5.816   5.680   0.652  0.6541  0.5223 -1.4577
 2165TIP3    H228131   5.736   5.796   0.705  0.6474 -0.7162  1.4036
 2166TIP3   OH228132   6.516   0.681   0.723  0.0768 -0.0788  0.3163
 2166TIP3    H128133   6.502   0.626   0.646  1.2955 -0.8323  0.6060
 2166TIP3    H228134   6.488   0.627   0.796  0.4152  0.0383  0.5325
 2167TIP3   OH228135   2.395   5.061   8.442 -0.3841  0.4135 -0.3819
 2167TIP3    H128136   2.311   5.020   8.420 -0.7627  1.8876 -1.8255
 2167TIP3    H228137   2.384   5.091   8.532 -0.6804 -1.1212  0.1303
 2168TIP3   OH228138   4.815   1.568   7.892 -0.3896 -0.3797 -0.6248
 2168TIP3    H128139   4.830   1.477   7.865 -1.7189 -0.7366 -0.2387
 2168TIP3    H228140   4.787   1.613   7.812  0.5501 -0.2247 -0.8790
 2169TIP3   OH228141   4.937   2.928   7.293  0.1328 -0.1780  0.0055
 2169TIP3    H128142   4.962   2.836   7.294  0.6840 -0.0416 -0.7754
 2169TIP3    H228143   4.913   2.946   7.202 -1.2954  0.1110  0.4122
 2170TIP3   OH228144   2.531   3.874   0.633 -0.2436 -0.0678  0.5220
 2170TIP3    H128145   2.489   3.939   0.690  0.2078  1.6285 -1.0282
 2170TIP3    H228146   2.522   3.909   0.545 -2.8097 -3.6019 -0.8809
 2171TIP3   OH228147   0.634   4.805   8.681 -0.1179  0.3881  0.6174
 2171TIP3    H128148   0.548   4.834   8.712 -0.2002  0.1352  0.6325
 2171TIP3    H228149   0.659   4.735   8.741  0.3477  0.8280  0.9412
 2172TIP3   OH228150   4.925   6.580   7.019  0.2525  0.1259 -0.1999
 2172TIP3    H128151   4.873   6.518   6.970  0.4551 -0.1785 -0.0345
 2172TIP3    H228152   4.972   6.631   6.952  0.6714 -0.4118 -0.3167
 2173TIP3   OH228153   3.874   4.562   7.616  0.3056 -0.2138  0.2985
 2173TIP3    H128154   3.932   4.551   7.690  2.5049  2.8985 -0.7527
 2173TIP3    H228155   3.822   4.639   7.638 -0.6861 -0.6547 -0.4339
 2174TIP3   OH228156   4.270   0.304   6.659  0.4914 -0.4512 -0.0164
 2174TIP3    H128157   4.328   0.365   6.614  0.4996  0.0087  0.6080
 2174TIP3    H228158   4.329   0.251   6.713  0.2130  1.2652  2.0953
 2175TIP3   OH228159   0.788   3.851   8.848 -0.2305 -0.8598 -0.0159
 2175TIP3    H128160   0.813   3.762   8.822  0.5527 -0.1566 -1.7445
 2175TIP3    H228161   0.871   3.895   8.865 -0.6208 -0.4330  0.8363
 2176TIP3   OH228162   3.876   0.711   0.894 -0.0649  0.2156  0.1287
 2176TIP3    H128163   3.817   0.675   0.828 -0.0126 -0.5649  0.4984
 2176TIP3    H228164   3.847   0.802   0.905  0.1350  0.4538 -1.1966
 2177TIP3   OH228165   5.610   6.509   7.637 -0.6510 -0.3416 -0.5996
 2177TIP3    H128166   5.678   6.464   7.586  0.5306  1.0375 -0.3028
 2177TIP3    H228167   5.529   6.489   7.591  0.1059 -0.9568 -1.7251
 2178TIP3   OH228168   1.552   5.238   0.274  0.3809  0.4485 -0.6930
 2178TIP3    H128169   1.484   5.302   0.296 -0.7254 -0.3868 -1.5866
 2178TIP3    H228170   1.615   5.288   0.222  0.3914  1.2014  0.0229
 2179TIP3   OH228171   6.505   4.753   8.150 -0.1908 -0.0152  0.1496
 2179TIP3    H128172   6.595   4.775   8.128 -0.1078  1.2920  1.6081
 2179TIP3    H228173   6.460   4.838   8.152 -1.4444 -0.6381 -0.4520
 2180TIP3   OH228174   3.790   1.995   0.651  0.0422 -0.2651  0.3710
 2180TIP3    H128175   3.755   1.940   0.580 -1.6426  1.4468 -0.2029
 2180TIP3    H228176   3.763   1.950   0.731 -1.0484 -0.4524 -0.0870
 2181TIP3   OH228177   3.934   4.101   8.266 -0.4732 -0.5930 -0.2233
 2181TIP3    H128178   3.967   4.141   8.347  0.1370 -1.1794 -0.1709
 2181TIP3    H228179   3.872   4.165   8.231 -1.5254 -0.7782  1.2374
 2182TIP3   OH228180   3.520   1.124   0.928 -0.8984 -0.5744  0.5427
 2182TIP3    H128181   3.550   1.213   0.911  1.4632 -1.1786  1.1793
 2182TIP3    H228182   3.492   1.091   0.843  0.7574 -0.0935 -0.2158
 2183TIP3   OH228183   3.942   4.225   7.829 -1.0588  0.9807  0.0786
 2183TIP3    H128184   3.863   4.181   7.861 -0.3237 -0.4810 -0.0417
 2183TIP3    H228185   4.014   4.182   7.876 -0.2656  1.6495 -0.5018
 2184TIP3   OH228186   1.731   5.026   0.620  0.3680  0.5550  0.5546
 2184TIP3    H128187   1.763   5.108   0.583  0.5878 -0.6359 -2.0933
 2184TIP3    H228188   1.810   4.984   0.655  0.2095  1.5255  2.2248
 2185TIP3   OH228189   1.931   2.692   1.899  0.6440  0.1250 -0.3927
 2185TIP3    H128190   1.879   2.755   1.850 -1.1388  0.3851  1.6984
 2185TIP3    H228191   2.014   2.737   1.917 -0.3627  1.6548  0.5441
 2186TIP3   OH228192   4.508   2.356   0.672 -0.5414 -0.1240  0.6053
 2186TIP3    H128193   4.558   2.430   0.705  0.6626 -1.4649  1.9698
 2186TIP3    H228194   4.509   2.292   0.744 -0.2706 -2.0436 -1.0079
 2187TIP3   OH228195   4.851   2.905   2.680 -0.3724 -0.3907 -0.1450
 2187TIP3    H128196   4.781   2.927   2.741  0.5354  0.6767  0.5542
 2187TIP3    H228197   4.918   2.864   2.734 -0.5161 -1.5678 -0.8342
 2188TIP3   OH228198   2.953   1.694   8.012  0.2460  0.7792  0.3004
 2188TIP3    H128199   2.956   1.724   8.103  0.9774  2.3724 -0.2196
 2188TIP3    H228200   3.042   1.704   7.980 -0.0042  0.2318 -0.6021
 2189TIP3   OH228201   5.242   6.443   2.513  0.1928 -0.6221 -0.4354
 2189TIP3    H128202   5.163   6.388   2.513 -0.3557  0.1479  0.2900
 2189TIP3    H228203   5.244   6.481   2.425 -0.6048 -0.1635 -0.2672
 2190TIP3   OH228204   5.794   0.154   8.056 -0.2373  0.4858 -0.1173
 2190TIP3    H128205   5.770   0.071   8.097  1.2604  1.7373  3.8031
 2190TIP3    H228206   5.890   0.153   8.054 -0.2209  1.5853 -1.3689
 2191TIP3   OH228207   5.318   3.039   2.563 -0.0616  0.0871 -0.2138
 2191TIP3    H128208   5.271   3.053   2.481 -0.4034  0.2405  0.0036
 2191TIP3    H228209   5.262   2.980   2.613  0.2944 -0.2543 -0.2123
 2192TIP3   OH228210   3.825   0.062   2.736  0.3014 -0.6962 -0.3070
 2192TIP3    H128211   3.785   0.105   2.811  1.8670  1.9958 -0.8957
 2192TIP3    H228212   3.879  -0.008   2.774 -0.7275 -0.9000  0.8370
 2193TIP3   OH228213   0.812   3.116   1.425 -0.1132  0.1991 -0.0447
 2193TIP3    H128214   0.881   3.050   1.432 -3.1195 -3.1209  1.1935
 2193TIP3    H228215   0.776   3.104   1.337 -1.8865 -1.3590  0.8034
 2194TIP3   OH228216   5.575   1.594   8.566 -0.4044 -0.2760 -0.8003
 2194TIP3    H128217   5.504   1.614   8.626  0.5112  2.3513 -0.4531
 2194TIP3    H228218   5.550   1.637   8.484  0.5397  0.3368 -0.7910
 2195TIP3   OH228219   6.155   1.625   0.055 -0.0836 -0.6037  0.2897
 2195TIP3    H128220   6.067   1.599   0.084  0.1518 -1.3264  0.3832
 2195TIP3    H228221   6.204   1.637   0.137 -0.0015 -0.5440  0.2312
 2196TIP3   OH228222   5.116   6.330   7.355 -0.9080 -0.0489  0.5413
 2196TIP3    H128223   5.098   6.367   7.269 -0.9488 -1.7554 -0.2364
 2196TIP3    H228224   5.047   6.264   7.368 -0.3339 -0.5008  1.4349
 2197TIP3   OH228225   2.951   5.329   2.589  0.2557 -0.1554 -0.5164
 2197TIP3    H128226   2.983   5.414   2.557  0.0886 -0.1676 -0.7146
 2197TIP3    H228227   2.961   5.335   2.684  1.3435 -0.3602 -0.6019
 2198TIP3   OH228228   5.651   6.309   1.853  0.2169  0.0747  0.1171
 2198TIP3    H128229   5.593   6.235   1.834 -1.1277  0.8309  1.1019
 2198TIP3    H228230   5.724   6.270   1.901 -0.5347 -0.6076  0.7321
 2199TIP3   OH228231   4.771   2.529   8.546 -0.6753  0.4767 -0.7449
 2199TIP3    H128232   4.783   2.438   8.520 -0.5985  0.4597 -0.6521
 2199TIP3    H228233   4.685   2.531   8.588 -0.7508  0.4817 -0.8986
 2200TIP3   OH228234   0.904   3.323   1.146 -0.2951  0.7855  0.1344
 2200TIP3    H128235   0.974   3.301   1.207 -0.1417 -0.0027 -0.3089
 2200TIP3    H228236   0.835   3.259   1.165 -0.7956  1.3892  0.3897
 2201TIP3   OH228237   3.858   1.974   8.356 -0.0503 -0.3406 -0.0026
 2201TIP3    H128238   3.874   2.036   8.427 -2.8716 -0.5675  0.9183
 2201TIP3    H228239   3.942   1.929   8.345  1.2404  1.6168  1.2534
 2202TIP3   OH228240   2.306   1.646   6.735  0.5842 -0.3438 -0.1626
 2202TIP3    H128241   2.327   1.713   6.800 -0.6749  0.6936 -0.7877
 2202TIP3    H228242   2.340   1.681   6.652  0.7275 -0.9024 -0.3433
 2203TIP3   OH228243   3.884   0.195   0.979  0.0972 -0.1250  0.0082
 2203TIP3    H128244   3.810   0.138   1.000  0.3771 -0.6719 -0.4539
 2203TIP3    H228245   3.846   0.282   0.969 -0.1836  0.0145  1.8489
 2204TIP3   OH228246   5.048   5.475   8.717 -0.2331 -0.0972  0.1146
 2204TIP3    H128247   5.028   5.560   8.678 -1.6767 -0.0123  0.9650
 2204TIP3    H228248   4.976   5.419   8.689  0.1582 -0.7587  0.4245
 2205TIP3   OH228249   1.732   1.563   2.114  0.3576  0.3525  0.3689
 2205TIP3    H128250   1.754   1.560   2.206  3.3542  1.2317 -0.2159
 2205TIP3    H228251   1.809   1.530   2.069 -0.1445  1.9673 -1.8844
 2206TIP3   OH228252   3.160   1.768   2.008  0.0368  0.2899  0.0609
 2206TIP3    H128253   3.084   1.821   1.982 -0.6549 -0.1644  1.0938
 2206TIP3    H228254   3.134   1.678   1.989 -0.7767 -0.1404  2.8202
 2207TIP3   OH228255   0.999   1.290   8.004  0.0087  0.1352 -0.1434
 2207TIP3    H128256   1.059   1.221   7.976 -0.3479  0.7971 -2.7519
 2207TIP3    H228257   1.051   1.345   8.063  1.0732 -0.8785 -0.1026
 2208TIP3   OH228258   1.182   0.850   1.395  0.4955  0.6041  0.3769
 2208TIP3    H128259   1.091   0.822   1.389  1.0447 -1.6070  1.4164
 2208TIP3    H228260   1.213   0.851   1.304 -0.2275  0.2456  0.1205
 2209TIP3   OH228261   3.017   4.974   2.386  0.2094 -0.0649  0.2014
 2209TIP3    H128262   3.106   4.937   2.381 -0.3665 -1.4688 -0.3485
 2209TIP3    H228263   3.027   5.064   2.356  1.4905 -0.1302  0.3671
 2210TIP3   OH228264   0.978   5.663   8.762  0.3626 -0.3096  0.0058
 2210TIP3    H128265   0.929   5.681   8.843 -0.4615 -0.0866 -0.5271
 2210TIP3    H228266   0.964   5.741   8.708 -1.3080 -1.4798 -1.4049
 2211TIP3   OH228267   6.488   2.560   0.645  0.1663  0.2632 -0.2666
 2211TIP3    H128268   6.434   2.481   0.638 -1.8720  1.6529 -1.4672
 2211TIP3    H228269   6.430   2.626   0.684  1.7691  1.2348  0.6140
 2212TIP3   OH228270   2.921   6.177   8.442 -0.6321 -0.7242  0.3807
 2212TIP3    H128271   2.839   6.214   8.474  0.0355  0.2797  0.9890
 2212TIP3    H228272   2.938   6.224   8.361 -0.2016 -0.2633  0.7302
 2213TIP3   OH228273   0.916   0.542   8.304 -0.3322 -0.2400 -0.2577
 2213TIP3    H128274   0.969   0.504   8.374 -3.1562 -0.5912  1.8964
 2213TIP3    H228275   0.958   0.626   8.284  1.9740 -1.2671  0.0068
 2214TIP3   OH228276   5.323   2.337   8.535 -1.0000 -0.8258 -0.2240
 2214TIP3    H128277   5.279   2.252   8.531 -2.8789  0.0170  1.1067
 2214TIP3    H228278   5.265   2.397   8.490  0.1665 -0.1485 -0.8909
 2215TIP3   OH228279   5.236   5.554   0.730  0.3334  0.4060 -0.0065
 2215TIP3    H128280   5.181   5.628   0.754  0.2527  0.5905 -0.7557
 2215TIP3    H228281   5.178   5.478   0.735  0.2117  0.4977 -0.0389
 2216TIP3   OH228282   1.326   4.022   7.508  0.6718 -0.5275  0.0928
 2216TIP3    H128283   1.259   3.954   7.499 -0.1507  0.4664 -2.5004
 2216TIP3    H228284   1.332   4.039   7.602 -2.9833 -0.4623  0.4726
 2217TIP3   OH228285   3.018   1.814   8.665  0.2176  0.0848  0.2293
 2217TIP3    H128286   2.973   1.890   8.702  0.0044 -0.8237  1.8961
 2217TIP3    H228287   2.953   1.744   8.664  1.0753 -0.7629  1.0405
 2218TIP3   OH228288   1.283   5.134   0.057 -1.0710 -0.1276  0.0017
 2218TIP3    H128289   1.199   5.100   0.028 -0.5210 -1.6693  0.1168
 2218TIP3    H228290   1.338   5.056   0.070  0.4799  0.8392 -0.3890
 2219TIP3   OH228291   2.282   6.415   0.078  0.6799 -0.4074 -0.1454
 2219TIP3    H128292   2.313   6.393  -0.010  3.5872  0.6275  0.5248
 2219TIP3    H228293   2.320   6.348   0.134 -0.0843 -0.3102  0.5039
 2220TIP3   OH228294   5.919   5.531   2.889  0.2285  0.0013 -0.1140
 2220TIP3    H128295   5.888   5.466   2.825  0.8222 -0.4251  0.0238
 2220TIP3    H228296   5.960   5.478   2.958  0.2927  0.5026  0.2326
 2221TIP3   OH228297   4.704   4.597   1.804  0.5351  0.5033 -0.0015
 2221TIP3    H128298   4.770   4.529   1.790 -0.9875 -1.1363  0.5578
 2221TIP3    H228299   4.682   4.627   1.715  0.0134 -0.9309 -0.3740
 2222TIP3   OH228300   6.144   6.495   8.530  0.6415 -0.5388  0.2258
 2222TIP3    H128301   6.070   6.515   8.473  1.0235  0.4469  0.0430
 2222TIP3    H228302   6.176   6.410   8.500 -0.0321 -0.6822 -0.0986
 2223TIP3   OH228303   4.343   1.911   7.833 -0.0033  0.1405  0.0347
 2223TIP3    H128304   4.397   1.971   7.780  1.9403  0.3515  2.1245
 2223TIP3    H228305   4.339   1.831   7.781  3.3723 -0.2901  0.2578
 2224TIP3   OH228306   0.433   5.293   0.603  0.4628 -0.3644  0.1063
 2224TIP3    H128307   0.525   5.316   0.595 -0.0601  1.3078 -1.9125
 2224TIP3    H228308   0.431   5.226   0.672  3.2839 -1.2179 -0.5054
 2225TIP3   OH228309   2.683   6.157   7.869  0.1846 -0.4034 -0.0230
 2225TIP3    H128310   2.758   6.100   7.850  1.1123  1.0665 -0.9452
 2225TIP3    H228311   2.646   6.122   7.950 -0.0428 -3.0703 -1.1747
 2226TIP3   OH228312   5.717   4.962   0.609 -0.0666 -0.1848 -0.0384
 2226TIP3    H128313   5.651   4.901   0.576 -1.0194  0.7934  0.0088
 2226TIP3    H228314   5.775   4.977   0.534 -0.6517 -0.0537 -0.4730
 2227TIP3   OH228315   3.125   0.769   2.078  0.1656  0.6051  0.1824
 2227TIP3    H128316   3.082   0.843   2.035  1.8964  0.6676 -1.5982
 2227TIP3    H228317   3.167   0.807   2.156  1.2517  1.6121 -0.8495
 2228TIP3   OH228318   4.819   1.311   0.276  0.0647  0.0524  0.4849
 2228TIP3    H128319   4.902   1.341   0.238  0.9498 -0.8044  1.6488
 2228TIP3    H228320   4.808   1.222   0.244 -1.7689  0.9853 -1.7283
 2229TIP3   OH228321   0.762   0.956   0.680  0.1752 -0.0039  0.6055
 2229TIP3    H128322   0.848   0.914   0.692  0.5378  0.1920 -1.1269
 2229TIP3    H228323   0.707   0.914   0.746  1.6982  0.2254  2.1103
 2230TIP3   OH228324   6.431   3.185   1.957 -0.4276  0.1775 -0.0065
 2230TIP3    H128325   6.401   3.107   2.004  0.1188 -0.6745 -1.0395
 2230TIP3    H228326   6.527   3.182   1.964 -0.4416  1.4937  1.0861
 2231TIP3   OH228327   4.820   5.626   8.026 -0.4615  0.2445 -0.0752
 2231TIP3    H128328   4.905   5.616   8.067 -0.4942 -0.6278 -0.2012
 2231TIP3    H228329   4.830   5.588   7.939 -1.3752 -1.2627  0.4424
 2232TIP3   OH228330   4.921   2.010   8.201 -0.3309  0.6312  0.4510
 2232TIP3    H128331   4.903   1.931   8.149  0.8809  0.4808  0.2452
 2232TIP3    H228332   4.932   1.978   8.291 -0.6562  0.6740  0.5083
 2233TIP3   OH228333   0.289   3.272   8.609 -0.0988  0.0506  0.4937
 2233TIP3    H128334   0.269   3.269   8.703  0.2969  0.6433  0.6071
 2233TIP3    H228335   0.383   3.289   8.606 -0.0339 -0.3800 -0.0171
 2234TIP3   OH228336   3.443   4.042   1.602 -0.3247 -0.2053  0.3182
 2234TIP3    H128337   3.536   4.057   1.585 -0.1134 -0.7454  0.9740
 2234TIP3    H228338   3.412   4.126   1.635 -0.3781  0.3692 -1.1149
 2235TIP3   OH228339   3.732   6.195   8.586  0.2347 -1.1781  0.3327
 2235TIP3    H128340   3.637   6.181   8.586 -0.2130  1.2611 -0.5405
 2235TIP3    H228341   3.744   6.272   8.642  1.3993  0.0222 -1.4805
 2236TIP3   OH228342   0.979   4.868   8.247  0.0282 -0.2404  0.0822
 2236TIP3    H128343   0.963   4.815   8.326  2.8046 -1.2860  0.0615
 2236TIP3    H228344   0.914   4.938   8.251 -0.5796 -0.8540  2.7502
 2237TIP3   OH228345   5.165   5.055   6.805  0.8802 -0.1283 -0.2041
 2237TIP3    H128346   5.142   4.995   6.876  0.8086  0.7594  0.5344
 2237TIP3    H228347   5.233   5.010   6.756  1.4421 -0.4492  0.8564
 2238TIP3   OH228348   3.263   1.394   1.201  0.0028 -0.0450  0.0191
 2238TIP3    H128349   3.346   1.440   1.218  0.3569 -0.4269 -0.6323
 2238TIP3    H228350   3.235   1.424   1.115  0.2951 -1.0976 -0.4694
 2239TIP3   OH228351   3.735   4.283   8.469  0.7568 -0.1832 -0.6126
 2239TIP3    H128352   3.739   4.197   8.428  0.1958 -0.5059 -0.0110
 2239TIP3    H228353   3.817   4.290   8.519  0.4128 -0.7453  0.0524
 2240TIP3   OH228354   2.745   4.217   7.505  0.2281 -0.6715  0.1998
 2240TIP3    H128355   2.674   4.220   7.569  0.7770 -2.7454  0.9785
 2240TIP3    H228356   2.712   4.158   7.437 -0.1126  1.0534 -1.2040
 2241TIP3   OH228357   2.043   0.459   7.659  0.4859 -0.3001 -0.5941
 2241TIP3    H128358   2.118   0.500   7.702 -0.1530  0.9058 -0.5888
 2241TIP3    H228359   2.047   0.367   7.686  1.0687  0.0781  0.6553
 2242TIP3   OH228360   5.090   5.560   8.082 -0.1531  0.2870 -0.3890
 2242TIP3    H128361   5.172   5.597   8.116 -0.3273 -0.2277  0.6197
 2242TIP3    H228362   5.078   5.478   8.130 -1.2663  0.3566 -0.5125
 2243TIP3   OH228363   1.611   2.966   2.203  0.0515  0.0055 -0.0727
 2243TIP3    H128364   1.588   3.014   2.283 -0.7529  0.9273 -0.8136
 2243TIP3    H228365   1.544   2.898   2.195  0.7740 -0.7991  0.6019
 2244TIP3   OH228366   1.842   6.673   0.647  0.0219  0.5773 -0.1291
 2244TIP3    H128367   1.858   6.579   0.654  0.9633  0.6503 -0.9807
 2244TIP3    H228368   1.753   6.679   0.613  0.6119 -0.0962 -1.9285
 2245TIP3   OH228369   1.481   1.913   0.560 -0.0034 -0.4191 -0.2669
 2245TIP3    H128370   1.419   1.981   0.586 -0.8599 -1.1907 -0.2232
 2245TIP3    H228371   1.498   1.864   0.641 -1.2607 -1.7038 -0.7349
 2246TIP3   OH228372   4.405   1.863   2.722 -0.1807  0.5570 -0.4968
 2246TIP3    H128373   4.485   1.899   2.762  0.3179  0.7832 -1.6627
 2246TIP3    H228374   4.360   1.820   2.795  0.2265  1.7670  0.5152
 2247TIP3   OH228375   6.001   3.353   8.806  0.1684  0.3586  0.2623
 2247TIP3    H128376   6.070   3.323   8.865  0.2892 -0.7782 -0.4327
 2247TIP3    H228377   5.941   3.279   8.799  1.2122 -0.3578 -2.6036
 2248TIP3   OH228378   2.684   4.103   1.418 -0.3345 -0.0651 -0.3609
 2248TIP3    H128379   2.609   4.066   1.373 -1.5009  0.0186  1.3986
 2248TIP3    H228380   2.650   4.128   1.504  1.4196  1.1414  0.0365
 2249TIP3   OH228381   0.834   0.061   2.161 -0.5357  0.2471  0.4262
 2249TIP3    H128382   0.783   0.125   2.212  0.5059 -0.4952  2.5232
 2249TIP3    H228383   0.919   0.059   2.205  0.2751 -0.7814 -1.1291
 2250TIP3   OH228384   4.891   3.925   0.768 -0.1224 -0.2003 -0.1304
 2250TIP3    H128385   4.913   3.897   0.857  0.8141  1.6450  0.2937
 2250TIP3    H228386   4.958   3.884   0.713  0.2166 -0.1496  0.2343
 2251TIP3   OH228387   6.711   2.256   0.491 -0.7080 -0.2099 -0.1218
 2251TIP3    H128388   6.802   2.267   0.518 -0.7903 -0.2776  0.1832
 2251TIP3    H228389   6.684   2.343   0.462 -0.1151 -0.4748 -1.5633
 2252TIP3   OH228390   1.094   1.164   6.670  0.0696  0.0360 -0.6714
 2252TIP3    H128391   1.013   1.118   6.693 -0.1033  0.7571  0.2337
 2252TIP3    H228392   1.081   1.190   6.579  0.3735 -2.0805 -1.3641
 2253TIP3   OH228393   5.987   0.304   0.648  0.1391  0.0641  0.3537
 2253TIP3    H128394   6.039   0.299   0.728  2.1238  0.3216 -0.8691
 2253TIP3    H228395   5.938   0.222   0.647 -0.6059  0.4173  2.2330
 2254TIP3   OH228396   0.730   1.705   0.910 -0.3319 -0.4751  0.2415
 2254TIP3    H128397   0.707   1.642   0.842 -1.5985 -0.8089  0.9363
 2254TIP3    H228398   0.694   1.667   0.991  0.8910  0.0360  1.0580
 2255TIP3   OH228399   2.515   1.095   3.019  0.1575 -0.5886  0.1675
 2255TIP3    H128400   2.462   1.094   2.939  1.3694 -1.5306 -0.6763
 2255TIP3    H228401   2.484   1.171   3.068 -0.5333  0.1008 -1.2691
 2256TIP3   OH228402   1.562   3.746   7.482  0.4129  0.3217 -0.2345
 2256TIP3    H128403   1.516   3.702   7.410 -1.9033  1.6968  0.3040
 2256TIP3    H228404   1.572   3.836   7.453  0.7966  0.5573  0.6011
 2257TIP3   OH228405   3.530   6.753   0.411  0.5114  0.2098 -0.2633
 2257TIP3    H128406   3.442   6.715   0.408  0.1882  1.0023 -1.3762
 2257TIP3    H228407   3.583   6.692   0.359 -0.0538  1.3060 -2.2433
 2258TIP3   OH228408   1.335   0.870   0.771  0.2281 -0.0597  0.4983
 2258TIP3    H128409   1.324   0.837   0.860  1.0701  2.6963  1.7420
 2258TIP3    H228410   1.430   0.877   0.760  0.1679 -1.1568 -0.9894
 2259TIP3   OH228411   1.555   1.427   1.008 -0.5426 -0.5625 -0.2334
 2259TIP3    H128412   1.553   1.382   1.092  1.2759  0.6199  0.4925
 2259TIP3    H228413   1.494   1.377   0.953 -2.5855 -0.7869  2.0336
 2260TIP3   OH228414   6.725   1.474   7.830 -0.0044  0.6113 -0.2975
 2260TIP3    H128415   6.792   1.542   7.842 -1.4426  2.1722 -0.6197
 2260TIP3    H228416   6.674   1.504   7.754 -0.6259 -0.9081 -0.5138
 2261TIP3   OH228417   4.104   1.473   2.135 -0.4739  0.2785  0.0292
 2261TIP3    H128418   4.167   1.494   2.066  1.0075  0.7678  1.4555
 2261TIP3    H228419   4.025   1.522   2.111  0.1688  0.8151 -1.0667
 2262TIP3   OH228420   2.381   2.089   0.953  0.2507 -0.1030  0.7176
 2262TIP3    H128421   2.426   2.145   1.016  1.0211 -0.3624  0.4143
 2262TIP3    H228422   2.324   2.033   1.006  1.1308 -0.5410  1.2171
 2263TIP3   OH228423   6.422   3.643   0.975 -0.3921 -0.7153  0.2514
 2263TIP3    H128424   6.412   3.720   1.031  0.2090 -0.3104 -0.1870
 2263TIP3    H228425   6.458   3.677   0.893  1.2232 -1.6140  0.5321
 2264TIP3   OH228426   0.994   1.881   1.456 -0.2130 -0.3317 -0.3100
 2264TIP3    H128427   0.924   1.945   1.446  0.6070  0.4300 -1.5057
 2264TIP3    H228428   0.950   1.796   1.455 -1.1250  0.1343 -1.0645
 2265TIP3   OH228429   5.929   3.293   7.771  0.4723 -0.1733  0.2254
 2265TIP3    H128430   5.866   3.360   7.743 -1.1800 -1.8257 -0.2505
 2265TIP3    H228431   5.922   3.291   7.866  1.4024  1.1078  0.3356
 2266TIP3   OH228432   2.959   3.601   7.201 -0.2366 -0.1697  0.0636
 2266TIP3    H128433   2.920   3.661   7.138 -1.1744  0.3263  1.0764
 2266TIP3    H228434   3.037   3.568   7.158 -0.6263  0.4789 -1.1797
 2267TIP3   OH228435   1.566   1.478   1.632 -0.6550 -0.5679 -0.2590
 2267TIP3    H128436   1.623   1.555   1.643  0.0325 -0.5829 -2.9704
 2267TIP3    H228437   1.623   1.412   1.591 -1.7306 -1.8812  0.2933
 2268TIP3   OH228438   4.214   3.328   6.862  0.3015  0.0290  0.3343
 2268TIP3    H128439   4.224   3.375   6.779  0.9607 -0.0742  0.3492
 2268TIP3    H228440   4.121   3.309   6.868 -0.2103  2.4197  0.9230
 2269TIP3   OH228441   5.155   4.882   8.447 -0.1230 -0.3582  0.0290
 2269TIP3    H128442   5.245   4.867   8.418 -0.1529 -0.1013 -0.2006
 2269TIP3    H228443   5.115   4.795   8.446  0.9127 -0.9608  2.9117
 2270TIP3   OH228444   2.837   6.173   7.234 -0.0267  0.4257 -0.3953
 2270TIP3    H128445   2.876   6.148   7.150 -2.3990 -1.0196 -1.1840
 2270TIP3    H228446   2.911   6.198   7.289  2.0800 -2.5999 -1.5828
 2271TIP3   OH228447   3.251   4.775   1.035  0.4796  0.5173  0.3250
 2271TIP3    H128448   3.234   4.776   1.129 -0.1409  2.1321  0.2320
 2271TIP3    H228449   3.177   4.823   0.997 -1.3990 -3.3564 -1.4436
 2272TIP3   OH228450   2.610   0.355   7.641  0.3702 -0.3529 -0.1593
 2272TIP3    H128451   2.648   0.411   7.574 -0.9972 -0.1438 -0.7970
 2272TIP3    H228452   2.594   0.272   7.597  0.5677 -0.6045  0.2397
 2273TIP3   OH228453   2.161   5.540   7.290  0.3071 -0.5880 -0.1720
 2273TIP3    H128454   2.243   5.546   7.241  0.0150  2.2744 -0.4931
 2273TIP3    H228455   2.186   5.563   7.380  0.1115 -1.4311  0.1065
 2274TIP3   OH228456   2.080   6.138   1.261 -0.1156 -0.1847 -0.3344
 2274TIP3    H128457   2.107   6.140   1.169  0.8849 -1.1519 -0.0781
 2274TIP3    H228458   1.998   6.188   1.263 -0.3653 -0.4933 -1.8176
 2275TIP3   OH228459   5.967   1.744   2.064  0.0442 -0.0607  0.1351
 2275TIP3    H128460   5.942   1.696   2.143  1.8259 -0.8710  0.2375
 2275TIP3    H228461   6.012   1.822   2.096 -0.9904  0.6569 -0.0804
 2276TIP3   OH228462   1.572   6.006   2.194  0.9251  0.6278 -0.6089
 2276TIP3    H128463   1.644   6.062   2.166  2.0551  0.3017  1.4272
 2276TIP3    H228464   1.611   5.946   2.258 -0.7724 -0.8137 -0.8245
 2277TIP3   OH228465   6.026   2.594   1.697  0.4842  0.1199  0.5472
 2277TIP3    H128466   5.994   2.647   1.770  1.4691  0.6299  0.6275
 2277TIP3    H228467   6.042   2.656   1.626  1.5178 -0.0688  0.6004
 2278TIP3   OH228468   0.724   0.382   3.177  0.3370  0.1151 -0.6978
 2278TIP3    H128469   0.641   0.430   3.178 -0.4281 -1.1286 -1.5997
 2278TIP3    H228470   0.720   0.329   3.097  2.1318  0.2395 -0.9057
 2279TIP3   OH228471   2.806   4.363   2.272  0.0939  0.7137  0.2572
 2279TIP3    H128472   2.804   4.287   2.329 -0.8440 -0.3302 -1.0990
 2279TIP3    H228473   2.714   4.392   2.267  0.1279  0.7089 -0.7705
 2280TIP3   OH228474   0.699   1.177   7.406  0.1976 -0.8132 -0.3270
 2280TIP3    H128475   0.648   1.107   7.447  0.7364 -1.1427 -0.2149
 2280TIP3    H228476   0.735   1.226   7.480  0.6522 -1.0274 -0.4058
 2281TIP3   OH228477   1.697   2.264   0.174  0.4218  0.1248 -0.1098
 2281TIP3    H128478   1.662   2.353   0.174  1.1430  0.4179 -0.7262
 2281TIP3    H228479   1.765   2.265   0.242  0.8309  0.2113 -0.5174
 2282TIP3   OH228480   4.452   2.378   1.849 -0.6629  0.0577 -0.4688
 2282TIP3    H128481   4.382   2.344   1.794 -0.0901 -0.9877 -0.5720
 2282TIP3    H228482   4.445   2.328   1.930  1.1723 -1.5350 -1.1986
 2283TIP3   OH228483   3.688   0.615   1.975 -0.1162 -0.5664  0.0965
 2283TIP3    H128484   3.703   0.709   1.968  0.1060 -0.3756  2.3668
 2283TIP3    H228485   3.772   0.579   2.003 -0.5436 -1.2608  0.5135
 2284TIP3   OH228486   3.051   5.070   0.821 -0.1654 -0.2226 -0.0045
 2284TIP3    H128487   3.105   5.082   0.899 -0.7538  0.3609  0.3153
 2284TIP3    H228488   2.997   5.149   0.816 -1.3898 -1.0302 -0.0094
 2285TIP3   OH228489   3.886   5.148   8.269 -0.9314  0.4221 -0.0917
 2285TIP3    H128490   3.841   5.099   8.200 -0.3480 -0.3766  0.0855
 2285TIP3    H228491   3.975   5.160   8.235 -0.7546  0.3683  0.3468
 2286TIP3   OH228492   3.566   4.249   7.079  0.3841 -0.3029 -0.2500
 2286TIP3    H128493   3.625   4.186   7.037  0.4201  0.7771 -1.8912
 2286TIP3    H228494   3.533   4.303   7.007 -0.1714  1.1307  1.0272
 2287TIP3   OH228495   2.678   6.551   0.694  0.1106  0.3740 -0.2216
 2287TIP3    H128496   2.690   6.609   0.619 -1.2787  0.0098 -0.7631
 2287TIP3    H228497   2.758   6.498   0.696  0.8951  1.5174 -0.4077
 2288TIP3   OH228498   1.435   0.490   0.745  0.2932 -0.3472  0.0978
 2288TIP3    H128499   1.459   0.483   0.837 -1.5680  0.4174  0.6872
 2288TIP3    H228500   1.343   0.519   0.746  0.6551  1.1280 -1.9880
 2289TIP3   OH228501   2.103   3.165   8.458  0.0930  0.2247  0.2439
 2289TIP3    H128502   2.118   3.095   8.395 -1.1885  0.6107 -0.5275
 2289TIP3    H228503   2.059   3.233   8.408 -0.1362  0.9226  1.3599
 2290TIP3   OH228504   2.559   4.845   0.418  0.4606  0.4107  0.7215
 2290TIP3    H128505   2.609   4.811   0.492  0.3615 -0.3831  0.4284
 2290TIP3    H228506   2.470   4.812   0.433  0.5927 -0.3326 -0.1164
 2291TIP3   OH228507   1.236   2.464   0.144  0.3219 -0.3958  0.3904
 2291TIP3    H128508   1.255   2.448   0.237 -0.4412  0.2768  0.6647
 2291TIP3    H228509   1.141   2.454   0.137  0.0694  1.7798  0.1488
 2292TIP3   OH228510   0.506   5.974   8.820  0.3995 -0.1541 -0.1689
 2292TIP3    H128511   0.556   5.966   8.739  0.4870 -0.8174 -0.0600
 2292TIP3    H228512   0.420   6.004   8.792  0.7017  0.5008 -0.4090
 2293TIP3   OH228513   6.045   4.658   0.476  0.2790 -0.5518 -0.3218
 2293TIP3    H128514   6.015   4.688   0.562 -0.8196 -3.0314  0.2573
 2293TIP3    H228515   5.967   4.619   0.436  1.7494 -3.6737 -0.4430
 2294TIP3   OH228516   5.861   0.726   7.786  0.9618 -0.3270  0.4256
 2294TIP3    H128517   5.799   0.703   7.855  0.3903  0.4771  0.1917
 2294TIP3    H228518   5.843   0.818   7.767  0.8490 -0.6241 -1.0550
 2295TIP3   OH228519   1.887   0.726   7.940 -0.2468  0.5600  0.4227
 2295TIP3    H128520   1.835   0.676   7.877 -0.4941  1.0568  0.2210
 2295TIP3    H228521   1.869   0.818   7.918  0.6220  0.7440  0.4306
 2296TIP3   OH228522   2.323   4.487   7.545 -0.0769 -0.0925 -0.3782
 2296TIP3    H128523   2.297   4.558   7.605  1.5331 -0.4396  0.8107
 2296TIP3    H228524   2.414   4.508   7.522 -0.8484  0.3982 -3.3273
 2297TIP3   OH228525   2.535   4.284   8.371  0.6777 -0.5533  0.3560
 2297TIP3    H128526   2.602   4.345   8.402 -0.2413  0.9071 -0.3842
 2297TIP3    H228527   2.559   4.266   8.280  0.5842 -0.7853  0.3770
 2298TIP3   OH228528   6.051   3.961   7.954 -0.4188 -0.2980  0.0491
 2298TIP3    H128529   6.115   3.948   7.883 -0.7170 -0.4464 -0.1959
 2298TIP3    H228530   6.013   3.874   7.968 -1.5770  0.0581 -0.7833
 2299TIP3   OH228531   2.228   6.282   7.950  0.4436  0.1153  0.0305
 2299TIP3    H128532   2.270   6.221   8.010  1.1964  0.4456 -0.1538
 2299TIP3    H228533   2.140   6.246   7.937  0.6114 -0.4969  0.5424
 2300TIP3   OH228534   2.324   2.825   0.933  0.3704 -0.2341 -0.0313
 2300TIP3    H128535   2.389   2.881   0.890  0.9249 -1.8317 -1.3945
 2300TIP3    H228536   2.360   2.810   1.020  0.4668  1.1042  0.1666
 2301TIP3   OH228537   0.536   4.633   1.588 -0.0509  0.4203 -0.0025
 2301TIP3    H128538   0.596   4.614   1.516  1.4168 -0.4599  1.3863
 2301TIP3    H228539   0.558   4.723   1.614  0.1784  0.3529  0.0411
 2302TIP3   OH228540   5.964   5.348   8.517 -0.0335 -0.9119 -0.1029
 2302TIP3    H128541   5.976   5.443   8.525  0.6795 -1.1311  1.9153
 2302TIP3    H228542   5.870   5.337   8.503  0.1406  0.1588 -2.6796
 2303TIP3   OH228543   2.521   0.819   6.877  0.1157 -0.4108  0.7922
 2303TIP3    H128544   2.553   0.729   6.873  1.2836 -0.0777  1.9586
 2303TIP3    H228545   2.590   0.871   6.836 -0.4918 -0.0308  0.2476
 2304TIP3   OH228546   2.097   6.558   0.189 -0.3041 -0.1360 -0.1587
 2304TIP3    H128547   2.098   6.509   0.271  0.4306 -0.2585 -0.2386
 2304TIP3    H228548   2.164   6.517   0.135  0.3996  1.0137 -0.1962
 2305TIP3   OH228549   4.506   0.541   8.021  0.4573  0.7606 -0.2697
 2305TIP3    H128550   4.527   0.634   8.008 -0.5612  1.0864  0.2737
 2305TIP3    H228551   4.544   0.497   7.946  2.5371  1.3624  0.3718
 2306TIP3   OH228552   0.023   1.512   8.557 -0.0897 -0.1682  0.2088
 2306TIP3    H128553  -0.027   1.442   8.600 -1.8541  1.4716  1.0035
 2306TIP3    H228554  -0.023   1.592   8.583  0.4552  1.1239 -2.5294
 2307TIP3   OH228555   3.286   3.295   1.806 -0.0839  0.2120  0.4171
 2307TIP3    H128556   3.304   3.295   1.900  0.3793  1.5673  0.3403
 2307TIP3    H228557   3.346   3.359   1.770 -0.6808  0.1482 -0.7325
 2308TIP3   OH228558   6.564   2.736   8.848  0.4365  0.4619  0.6878
 2308TIP3    H128559   6.625   2.718   8.920 -0.8705 -1.6418  1.3714
 2308TIP3    H228560   6.585   2.669   8.782  0.9727  1.7643 -0.5173
 2309TIP3   OH228561   5.740   4.448   2.873  0.3789  0.6025 -0.5285
 2309TIP3    H128562   5.671   4.384   2.891 -1.1680  2.7133  1.8153
 2309TIP3    H228563   5.693   4.529   2.855  2.1943  2.0597  0.9300
 2310TIP3   OH228564   1.336   3.361   0.401 -0.4116 -0.3241  0.1339
 2310TIP3    H128565   1.358   3.341   0.492  0.6331  3.0331  0.7634
 2310TIP3    H228566   1.246   3.395   0.405 -0.9385 -1.5898 -0.3822
 2311TIP3   OH228567   5.774   6.492   7.850  0.4008  0.8292 -0.1489
 2311TIP3    H128568   5.857   6.530   7.821  0.2456  1.0252 -0.3344
 2311TIP3    H228569   5.713   6.509   7.779  0.6631 -0.9696 -0.8643
 2312TIP3   OH228570   6.219   4.491   2.159 -0.0335 -0.5052  0.1003
 2312TIP3    H128571   6.181   4.542   2.087  1.7975  1.6107  0.5436
 2312TIP3    H228572   6.286   4.437   2.116 -0.3170 -0.7450 -0.0437
 2313TIP3   OH228573   3.008   0.702   8.239  0.2118  0.4494 -0.0485
 2313TIP3    H128574   2.928   0.659   8.211  0.9728 -1.3386  0.3942
 2313TIP3    H228575   3.077   0.661   8.187  1.0237  0.8010  0.7267
 2314TIP3   OH228576   3.007   4.850   1.113 -0.3845 -0.3662  0.2070
 2314TIP3    H128577   3.060   4.857   1.192 -1.4965  2.3647  0.8231
 2314TIP3    H228578   2.917   4.837   1.145 -0.9898  1.7155 -0.5039
 2315TIP3   OH228579   0.116   1.030   2.075  0.2912 -0.0393  0.4316
 2315TIP3    H128580   0.087   0.956   2.021  1.1686 -0.5961  0.6919
 2315TIP3    H228581   0.068   1.105   2.041 -0.6850 -0.7429  0.2131
 2316TIP3   OH228582   5.241   0.725   7.964 -0.2145  0.3147 -0.0600
 2316TIP3    H128583   5.164   0.701   7.912  0.5431 -1.3104 -0.4899
 2316TIP3    H228584   5.254   0.818   7.945 -1.2799  0.2917 -1.0223
 2317TIP3   OH228585   5.385   4.262   2.405 -0.7013  0.0783  0.1576
 2317TIP3    H128586   5.443   4.217   2.467 -0.6954 -1.0638 -0.6299
 2317TIP3    H228587   5.306   4.208   2.402  0.2164 -1.3575 -2.5925
 2318TIP3   OH228588   4.135   5.393   0.951  0.5365 -0.6355  0.6558
 2318TIP3    H128589   4.230   5.399   0.946  0.5451  0.1559  1.4662
 2318TIP3    H228590   4.110   5.339   0.876  1.5931 -0.5928  0.2596
 2319TIP3   OH228591   2.421   0.841   1.585 -0.7214 -0.0955 -0.2443
 2319TIP3    H128592   2.492   0.899   1.613 -0.2510 -1.2476  1.0463
 2319TIP3    H228593   2.464   0.760   1.560 -1.4920 -0.3796 -0.6753
 2320TIP3   OH228594   6.691   0.904   0.715  0.4235 -0.1082 -0.0944
 2320TIP3    H128595   6.659   0.815   0.733  0.2009 -0.0990 -0.4347
 2320TIP3    H228596   6.730   0.898   0.628 -0.7129  0.4091 -0.6670
 2321TIP3   OH228597   2.894   2.955   2.454 -0.1166 -0.0739 -0.6808
 2321TIP3    H128598   2.823   2.911   2.501 -0.8768 -0.2781 -1.9539
 2321TIP3    H228599   2.974   2.914   2.486 -0.5560  0.2763  0.9082
 2322TIP3   OH228600   2.739   0.648   7.729 -0.0294 -0.6411  0.2636
 2322TIP3    H128601   2.646   0.630   7.715 -0.1048 -0.5611  0.6543
 2322TIP3    H228602   2.769   0.687   7.646 -0.2973 -0.8451  0.0706
 2323TIP3   OH228603   1.304   1.223   8.332  0.3510 -0.3994 -0.1023
 2323TIP3    H128604   1.392   1.258   8.320 -0.5354  3.4126  2.7690
 2323TIP3    H228605   1.258   1.246   8.251  1.2742 -0.0104 -0.5344
 2324TIP3   OH228606   2.828   2.960   8.011 -0.7699  0.0250  0.0004
 2324TIP3    H128607   2.823   3.053   8.033  0.3909  0.2926 -0.7472
 2324TIP3    H228608   2.740   2.937   7.982 -1.6861  0.2778  2.4258
 2325TIP3   OH228609   5.439   6.220   0.827  0.7329 -0.8481  0.3761
 2325TIP3    H128610   5.500   6.183   0.890  0.7568  0.8362  1.3884
 2325TIP3    H228611   5.364   6.247   0.879  1.8276  3.0383  0.2121
 2326TIP3   OH228612   0.735   0.031   8.393 -0.4209 -0.6533 -0.1588
 2326TIP3    H128613   0.674  -0.014   8.334  2.0125 -1.5625 -2.1807
 2326TIP3    H228614   0.772   0.102   8.340  0.7126 -0.5218  0.7699
 2327TIP3   OH228615   1.153   4.716   7.828  0.3386 -0.1246  0.0997
 2327TIP3    H128616   1.199   4.742   7.908  0.2042 -0.0615  0.1567
 2327TIP3    H228617   1.099   4.792   7.805 -0.0038 -0.3238  0.2304
 2328TIP3   OH228618   6.176   0.008   8.251  0.0402  0.0989 -0.3981
 2328TIP3    H128619   6.113  -0.040   8.199  0.0286 -0.1650 -0.1426
 2328TIP3    H228620   6.253  -0.049   8.254 -0.0750 -0.0348  0.1434
 2329TIP3   OH228621   0.283   4.319   7.338  0.0161 -0.3611 -0.3330
 2329TIP3    H128622   0.344   4.343   7.407  0.4877 -1.3979 -0.3647
 2329TIP3    H228623   0.317   4.236   7.303  0.7780  0.9757 -2.9957
 2330TIP3   OH228624   6.736   2.619   0.587  0.3641 -0.1245  0.1695
 2330TIP3    H128625   6.754   2.639   0.679 -0.7236  0.1369  0.3389
 2330TIP3    H228626   6.644   2.591   0.585  0.2027  0.3978 -0.9063
 2331TIP3   OH228627   5.261   3.885   8.813  0.1572  0.1301  0.7158
 2331TIP3    H128628   5.189   3.884   8.876 -1.0357 -1.1264 -0.5587
 2331TIP3    H228629   5.244   3.808   8.758  0.9128  1.3738 -1.3513
 2332TIP3   OH228630   3.035   5.589   1.944  0.0999  0.1333 -0.5563
 2332TIP3    H128631   3.099   5.589   1.874 -0.1362  0.6268 -0.7787
 2332TIP3    H228632   3.071   5.529   2.010  0.1758 -0.5711 -1.2249
 2333TIP3   OH228633   3.461   3.725   1.372 -0.2946 -0.5269 -0.0535
 2333TIP3    H128634   3.386   3.782   1.357 -1.9705 -2.4136  0.6323
 2333TIP3    H228635   3.442   3.647   1.320  0.5229 -1.5639  1.1494
 2334TIP3   OH228636   3.609   0.057   1.749 -0.3482 -0.3703 -0.4468
 2334TIP3    H128637   3.630   0.093   1.835 -1.2730 -1.6034  0.3163
 2334TIP3    H228638   3.525   0.012   1.760 -1.6269  1.3104 -2.5333
 2335TIP3   OH228639   5.762   0.083   1.563  0.5633 -0.3349  0.0773
 2335TIP3    H128640   5.682   0.055   1.607  1.4533 -3.0193  0.1480
 2335TIP3    H228641   5.734   0.158   1.509 -2.2679 -1.8648 -0.8086
 2336TIP3   OH228642   2.053   1.932   0.930  0.6172 -0.5321 -0.1559
 2336TIP3    H128643   2.124   1.929   0.866  0.3179 -0.0634 -0.5170
 2336TIP3    H228644   1.981   1.886   0.888  0.9028 -1.5676  0.4684
 2337TIP3   OH228645   3.056   4.380   8.120 -0.7678  0.0141  0.1914
 2337TIP3    H128646   3.109   4.315   8.166 -0.1620 -0.4499 -1.0991
 2337TIP3    H228647   3.009   4.427   8.189  0.5272 -0.2667  1.3001
 2338TIP3   OH228648   4.223   4.838   8.632  0.3717  0.1451  0.3913
 2338TIP3    H128649   4.301   4.785   8.648  0.1978 -0.0695  0.5379
 2338TIP3    H228650   4.150   4.782   8.658  0.1248  0.0897 -0.3961
 2339TIP3   OH228651   4.022   4.114   0.322  1.0041  0.4853  0.1733
 2339TIP3    H128652   3.991   4.027   0.346 -0.4600  0.9661  0.0834
 2339TIP3    H228653   4.107   4.121   0.365  1.4703 -1.2349 -0.3684
 2340TIP3   OH228654   3.511   5.642   6.883  0.3366 -0.5586 -0.4224
 2340TIP3    H128655   3.519   5.737   6.876 -0.0044 -0.4081  0.9863
 2340TIP3    H228656   3.417   5.625   6.890  0.4199 -0.9399 -0.1437
 2341TIP3   OH228657   2.463   1.826   1.503 -0.6481  0.5806  0.1262
 2341TIP3    H128658   2.523   1.800   1.433  1.2084  0.8747  1.5494
 2341TIP3    H228659   2.389   1.866   1.457  0.7438  1.2556 -1.6372
 2342TIP3   OH228660   6.199   5.790   7.415 -0.3689 -0.1233  0.0746
 2342TIP3    H128661   6.196   5.886   7.410  3.3917  0.1897  1.2356
 2342TIP3    H228662   6.249   5.763   7.338 -0.0088 -1.0045  0.6022
 2343TIP3   OH228663   2.489   1.256   0.481  0.5911 -0.4023 -0.1316
 2343TIP3    H128664   2.453   1.207   0.408 -0.8207 -0.6192  0.6794
 2343TIP3    H228665   2.547   1.321   0.440  1.4545 -1.8427 -1.2909
 2344TIP3   OH228666   1.429   1.164   2.587 -0.1224 -0.0766 -0.8828
 2344TIP3    H128667   1.497   1.192   2.648 -1.0219 -0.2214  0.2008
 2344TIP3    H228668   1.472   1.168   2.501  1.6258 -1.2957 -0.1294
 2345TIP3   OH228669   2.760   6.659   0.429 -0.0417 -0.1403  0.0291
 2345TIP3    H128670   2.740   6.636   0.338  0.4301  0.2782 -0.1912
 2345TIP3    H228671   2.751   6.754   0.432 -0.9784 -0.2415  0.6641
 2346TIP3   OH228672   1.522   0.769   8.640 -0.1585  0.0961 -0.5211
 2346TIP3    H128673   1.532   0.856   8.679 -0.8879 -0.6033  1.3513
 2346TIP3    H228674   1.610   0.732   8.640  0.0122  0.5008 -0.5199
 2347TIP3   OH228675   2.278   6.662   7.626  0.4337 -0.2200 -0.2736
 2347TIP3    H128676   2.360   6.618   7.607  2.1077  0.4346  4.1867
 2347TIP3    H228677   2.297   6.755   7.612  0.9256  0.0368  1.8129
 2348TIP3   OH228678   3.831   3.552   8.012  0.6333  0.7402  0.4031
 2348TIP3    H128679   3.831   3.626   7.952 -1.6205 -0.3351 -1.0491
 2348TIP3    H228680   3.769   3.577   8.081 -0.2789  0.1497 -0.1927
 2349TIP3   OH228681   2.951   1.480   0.836 -0.5177  0.3351 -0.2508
 2349TIP3    H128682   2.969   1.470   0.743  0.3531 -0.7085  0.0241
 2349TIP3    H228683   3.037   1.483   0.878 -0.9018  0.5210  0.5557
 2350TIP3   OH228684   3.902   6.614   2.785  0.2852 -0.2691 -0.1081
 2350TIP3    H128685   3.956   6.565   2.723  0.3424  0.3901 -0.5819
 2350TIP3    H228686   3.830   6.554   2.805  1.2040 -1.1835  0.5863
 2351TIP3   OH228687   3.007   2.372   7.492  0.2248  0.2931 -0.0043
 2351TIP3    H128688   3.047   2.342   7.411 -0.3364  0.7191 -0.4538
 2351TIP3    H228689   2.913   2.355   7.480  0.2783 -0.9926  1.1540
 2352TIP3   OH228690   5.243   0.966   1.759 -0.1227  0.2223 -0.2055
 2352TIP3    H128691   5.203   0.988   1.675  0.1596  1.0570 -0.1385
 2352TIP3    H228692   5.308   0.899   1.739  0.2853  0.7651 -0.7449
 2353TIP3   OH228693   4.821   5.919   1.621  0.2566 -0.5082  0.2033
 2353TIP3    H128694   4.753   5.883   1.564 -0.2537  1.0002 -0.1834
 2353TIP3    H228695   4.775   5.941   1.702  0.5065 -0.4669  0.3335
 2354TIP3   OH228696   4.462   1.955   8.093  0.1177  0.2160  0.6376
 2354TIP3    H128697   4.513   2.036   8.097 -2.6974  2.0875  2.6927
 2354TIP3    H228698   4.400   1.969   8.022 -0.5421 -0.0106  1.1551
 2355TIP3   OH228699   1.595   2.858   1.834  0.6985  0.2585  0.0908
 2355TIP3    H128700   1.658   2.903   1.777  1.1247  2.6964  2.3080
 2355TIP3    H228701   1.579   2.920   1.905 -2.4343 -1.2558  0.8596
 2356TIP3   OH228702   3.779   0.447   1.758  0.6711  0.2283  0.0999
 2356TIP3    H128703   3.853   0.436   1.818 -0.4449 -2.4356  1.1760
 2356TIP3    H228704   3.730   0.522   1.792  1.7623  0.7177  0.6149
 2357TIP3   OH228705   2.040   4.152   6.828 -0.5391 -0.6617 -0.1476
 2357TIP3    H128706   2.086   4.221   6.875 -0.3271 -0.4252 -0.6864
 2357TIP3    H228707   1.989   4.198   6.761  1.2744 -1.1056 -1.9507
 2358TIP3   OH228708   3.994   1.008   7.844  0.3278 -0.0949 -0.4378
 2358TIP3    H128709   3.950   1.040   7.923  0.4020  1.4982 -1.0046
 2358TIP3    H228710   4.000   0.914   7.856 -0.2035  0.0532  1.1885
 2359TIP3   OH228711   4.896   3.517   1.087  0.2286  0.0099  0.1861
 2359TIP3    H128712   4.808   3.486   1.109  0.1601  0.4539  0.5357
 2359TIP3    H228713   4.937   3.442   1.042 -0.0529 -0.4663  0.7146
 2360TIP3   OH228714   5.465   4.372   7.750 -0.1034  0.1210 -0.0367
 2360TIP3    H128715   5.456   4.280   7.725  1.0826  0.2795 -1.1114
 2360TIP3    H228716   5.375   4.405   7.752 -0.4350 -0.6418 -1.3334
 2361TIP3   OH228717   0.970   2.567   1.437 -0.0306  0.0287 -0.5203
 2361TIP3    H128718   1.038   2.547   1.373  0.2414  0.5541 -0.4081
 2361TIP3    H228719   1.018   2.601   1.513 -0.3685 -0.3267 -0.1419
 2362TIP3   OH228720   1.478   1.980   8.251 -0.2086 -0.5061 -0.2102
 2362TIP3    H128721   1.516   1.961   8.165  2.0583  1.7380  0.1859
 2362TIP3    H228722   1.526   1.923   8.311  0.2943  0.0540 -0.0807
 2363TIP3   OH228723   3.963   1.441   0.712 -0.0585 -0.3325  0.1091
 2363TIP3    H128724   3.979   1.429   0.618 -0.1450  0.9820 -0.0870
 2363TIP3    H228725   3.879   1.487   0.717  0.0709 -0.1603  0.8255
 2364TIP3   OH228726   0.452   2.102   7.435  0.7935  0.6597  0.2514
 2364TIP3    H128727   0.449   2.159   7.512  0.1406 -0.7923  1.3598
 2364TIP3    H228728   0.418   2.156   7.364 -1.6218  1.1508  1.6451
 2365TIP3   OH228729   4.043   2.127   0.337 -0.5803  0.1809 -0.3216
 2365TIP3    H128730   4.096   2.052   0.306 -0.0100  0.9672 -1.3221
 2365TIP3    H228731   4.048   2.122   0.432  0.9470 -0.0435 -0.3835
 2366TIP3   OH228732   0.193   6.069   1.875 -0.1241 -0.2342 -0.2641
 2366TIP3    H128733   0.200   6.015   1.796 -3.4149  0.1190 -0.9614
 2366TIP3    H228734   0.142   6.016   1.936 -0.6889  0.8469  0.2345
 2367TIP3   OH228735   3.701   2.856   7.958  0.5436 -0.2686 -0.1242
 2367TIP3    H128736   3.646   2.795   8.006 -1.2948  0.4214 -1.2508
 2367TIP3    H228737   3.753   2.900   8.025 -0.2258 -0.9834  0.9747
 2368TIP3   OH228738   2.507   5.814   8.098 -0.0674  0.3677 -0.0303
 2368TIP3    H128739   2.517   5.738   8.156  2.6004  0.4963 -0.2240
 2368TIP3    H228740   2.519   5.779   8.010  1.0528  0.9774 -0.1302
 2369TIP3   OH228741   0.726   1.218   0.564  0.4780  0.2701 -0.1762
 2369TIP3    H128742   0.693   1.269   0.639  1.9965  0.5357  0.3443
 2369TIP3    H228743   0.729   1.128   0.596  1.1267  0.3836  0.0963
 2370TIP3   OH228744   3.793   1.583   2.132 -1.1107  0.1155 -0.1525
 2370TIP3    H128745   3.820   1.630   2.210 -0.3889  2.0276 -1.4828
 2370TIP3    H228746   3.730   1.641   2.089 -0.3957 -0.2087 -1.7219
 2371TIP3   OH228747   6.441   3.537   8.658  0.0414  0.3789 -0.1659
 2371TIP3    H128748   6.521   3.489   8.678 -0.1012 -0.4247 -1.3588
 2371TIP3    H228749   6.379   3.468   8.631 -0.8125  1.0522  0.0553
 2372TIP3   OH228750   2.185   1.848   1.379  0.1610 -0.1320 -0.3887
 2372TIP3    H128751   2.175   1.839   1.284  0.5783  0.1672 -0.4614
 2372TIP3    H228752   2.167   1.941   1.396  1.1268  0.0531 -0.3139
 2373TIP3   OH228753   4.048   4.984   7.104  0.8603 -0.1458  0.1492
 2373TIP3    H128754   3.989   5.024   7.040 -0.5284 -1.3673  0.5867
 2373TIP3    H228755   4.132   5.028   7.091  0.7489 -0.5537 -2.7447
 2374TIP3   OH228756   5.871   4.162   0.290 -0.4369 -0.2844 -0.5773
 2374TIP3    H128757   5.826   4.188   0.370 -1.4042  0.6911 -1.3992
 2374TIP3    H228758   5.878   4.067   0.296  0.9694 -0.1172  1.3880
 2375TIP3   OH228759   4.404   0.507   2.022  0.1402  0.4158  0.1336
 2375TIP3    H128760   4.380   0.443   2.088 -1.8793  1.5903  0.6206
 2375TIP3    H228761   4.465   0.461   1.965 -1.5613 -2.0903  0.1891
 2376TIP3   OH228762   0.901   3.314   2.331  0.0674  0.9851 -0.0701
 2376TIP3    H128763   0.954   3.320   2.251 -1.2892 -1.0462 -1.2423
 2376TIP3    H228764   0.852   3.396   2.334  0.1475  1.1082 -1.3649
 2377TIP3   OH228765   3.595   6.502   7.354  0.3981 -0.1474 -0.2841
 2377TIP3    H128766   3.560   6.449   7.283  1.0879  1.3900 -1.8332
 2377TIP3    H228767   3.690   6.486   7.351  0.4012 -0.3246  0.5195
 2378TIP3   OH228768   3.349   1.831   8.216 -0.0703  0.3352 -0.1251
 2378TIP3    H128769   3.332   1.908   8.270  0.2007 -1.3311  2.5134
 2378TIP3    H228770   3.435   1.846   8.178 -0.8651  2.1709 -1.3628
 2379TIP3   OH228771   5.095   6.660   2.000  0.0140  0.1015 -1.2210
 2379TIP3    H128772   5.044   6.579   2.006  0.1861 -0.0034 -1.1753
 2379TIP3    H228773   5.030   6.730   2.009 -0.0950 -0.0343 -0.9581
 2380TIP3   OH228774   1.183   5.002   1.371 -0.3409  0.2899 -0.0355
 2380TIP3    H128775   1.267   5.006   1.415 -0.5020 -0.1342  0.3276
 2380TIP3    H228776   1.129   4.947   1.428 -1.2994  1.6922  0.4429
 2381TIP3   OH228777   3.388   6.395   7.854  0.0759 -0.1705 -0.4578
 2381TIP3    H128778   3.367   6.483   7.825  0.8120 -0.0925 -0.7523
 2381TIP3    H228779   3.307   6.345   7.839  0.2833 -0.0384 -2.2178
 2382TIP3   OH228780   4.762   5.591   8.317  0.2607 -0.0958  0.8229
 2382TIP3    H128781   4.805   5.524   8.265 -0.4381 -0.5247  0.7871
 2382TIP3    H228782   4.825   5.663   8.320  0.4540 -0.2070 -0.3016
 2383TIP3   OH228783   3.930   0.021   0.458  0.2220  0.1724  0.2175
 2383TIP3    H128784   3.891   0.104   0.429 -1.3903  0.0541  1.8211
 2383TIP3    H228785   4.002   0.048   0.515 -1.4186  0.6181  2.2307
 2384TIP3   OH228786   0.627   3.977   8.677 -0.4892  0.1067 -0.2723
 2384TIP3    H128787   0.667   4.060   8.703  0.3388  0.2447 -1.8404
 2384TIP3    H228788   0.669   3.912   8.732 -0.0171  0.5642 -0.0823
 2385TIP3   OH228789   5.503   2.118   8.208 -0.5830 -0.4078 -0.0760
 2385TIP3    H128790   5.538   2.046   8.260 -0.4436 -0.5807 -0.4029
 2385TIP3    H228791   5.420   2.085   8.174 -0.1938 -0.6798 -0.7929
 2386TIP3   OH228792   4.863   0.267   2.050 -0.2695  0.0939  0.1736
 2386TIP3    H128793   4.903   0.313   2.124  1.1704 -0.9112  0.0535
 2386TIP3    H228794   4.771   0.294   2.053  0.1227  1.4580  1.2490
 2387TIP3   OH228795   6.126   2.011   7.138 -0.0323 -0.0502 -0.2148
 2387TIP3    H128796   6.060   1.958   7.183 -0.8266 -0.1959 -1.5137
 2387TIP3    H228797   6.144   1.963   7.057 -0.3576  1.3591 -1.1601
 2388TIP3   OH228798   2.210   3.684   1.532  0.1207 -0.4021  0.8648
 2388TIP3    H128799   2.179   3.622   1.598  0.2786 -0.5155  0.8306
 2388TIP3    H228800   2.280   3.639   1.487  0.2589 -0.1856  0.8614
 2389TIP3   OH228801   0.189   0.650   1.027  0.0210 -0.5329 -0.0356
 2389TIP3    H128802   0.100   0.615   1.021  0.1519 -0.8034 -0.4587
 2389TIP3    H228803   0.215   0.664   0.936  1.1113 -2.2522 -0.0351
 2390TIP3   OH228804   1.976   3.052   7.389  0.5153  0.4490  0.1048
 2390TIP3    H128805   1.935   2.978   7.435  1.4102  0.7534  1.4525
 2390TIP3    H228806   1.992   3.020   7.301 -0.8283 -0.3249  0.1074
 2391TIP3   OH228807   2.880   3.912   7.817  0.1295  0.2000  0.0848
 2391TIP3    H128808   2.903   3.991   7.866 -0.1009  0.4421 -0.1909
 2391TIP3    H228809   2.787   3.899   7.833 -0.0247  0.4796 -0.5579
 2392TIP3   OH228810   1.284   3.972   8.488 -0.4947  0.3318 -0.3425
 2392TIP3    H128811   1.322   3.964   8.401 -0.6754 -0.2016 -0.3738
 2392TIP3    H228812   1.355   4.009   8.541 -0.3966  0.6934 -0.7159
 2393TIP3   OH228813   1.250   4.692   2.386 -0.1163 -0.1476  0.1353
 2393TIP3    H128814   1.194   4.641   2.444  1.4538 -2.0022  0.0792
 2393TIP3    H228815   1.188   4.734   2.325 -1.5636 -0.4949  1.2926
 2394TIP3   OH228816   5.992   0.843   7.450  0.0880  0.1371  0.1339
 2394TIP3    H128817   6.054   0.859   7.522  0.7952 -0.3631 -0.3425
 2394TIP3    H228818   5.979   0.928   7.410  2.7476 -0.1142 -1.5417
 2395TIP3   OH228819   3.663   2.109   7.462 -0.0037  0.6035 -0.2618
 2395TIP3    H128820   3.578   2.069   7.446  0.2777  0.0780 -0.4912
 2395TIP3    H228821   3.715   2.040   7.504  0.6634  0.5366 -1.1620
 2396TIP3   OH228822   2.327   4.582   7.822 -0.2253  0.2206 -0.1882
 2396TIP3    H128823   2.327   4.488   7.840  0.2505  0.1188 -0.6878
 2396TIP3    H228824   2.290   4.621   7.901 -0.8487 -0.4173 -0.1523
 2397TIP3   OH228825   4.433   1.694   7.663 -0.2346  0.2681  0.1444
 2397TIP3    H128826   4.451   1.707   7.570  1.6495 -2.3947  0.0197
 2397TIP3    H228827   4.519   1.681   7.702 -1.1320 -0.6236  1.9210
 2398TIP3   OH228828   0.570   4.207   7.024  0.4902 -0.1615 -0.0411
 2398TIP3    H128829   0.566   4.195   6.929 -1.0543 -0.7447  0.0805
 2398TIP3    H228830   0.637   4.275   7.036  1.5706 -0.9066 -1.4503
 2399TIP3   OH228831   0.437   3.299   0.614 -0.0905  0.0079 -0.7051
 2399TIP3    H128832   0.486   3.287   0.696 -0.0880 -0.5933 -0.7930
 2399TIP3    H228833   0.347   3.279   0.638 -0.4732  1.9475 -0.3323
 2400TIP3   OH228834   3.075   2.885   0.069 -0.1337  0.1903 -0.5493
 2400TIP3    H128835   3.081   2.877   0.164 -0.9797 -2.2425 -0.6503
 2400TIP3    H228836   3.163   2.866   0.037  0.1612  1.0566 -0.2801
 2401TIP3   OH228837   2.637   2.417   0.496 -0.7163  0.1796  0.1778
 2401TIP3    H128838   2.563   2.467   0.460  0.1401  0.1069 -1.7756
 2401TIP3    H228839   2.596   2.338   0.531 -1.9550  1.6340  2.2663
 2402TIP3   OH228840   3.423   1.481   8.175 -0.6189 -0.1283  0.5106
 2402TIP3    H128841   3.427   1.552   8.112 -1.6209 -1.3156 -0.9756
 2402TIP3    H228842   3.498   1.426   8.156  0.2310  0.5542  1.7448
 2403TIP3   OH228843   1.382   6.028   1.650  0.7619  0.4861 -0.0816
 2403TIP3    H128844   1.365   5.949   1.702 -2.4029  0.0843 -1.5201
 2403TIP3    H228845   1.411   5.996   1.565 -1.0080  0.7875 -0.8363
 2404TIP3   OH228846   0.560   5.554   8.130  0.4337  0.2937 -0.2181
 2404TIP3    H128847   0.646   5.522   8.156 -0.0774  0.3990  1.7329
 2404TIP3    H228848   0.522   5.482   8.080  0.3424 -1.1497  1.8207
 2405TIP3   OH228849   4.594   4.016   0.862 -0.3212 -0.5435  0.0573
 2405TIP3    H128850   4.595   4.074   0.938  1.1574 -2.8070  1.8865
 2405TIP3    H228851   4.680   4.029   0.821 -0.2058 -1.0078  0.1467
 2406TIP3   OH228852   1.829   0.889   1.954  0.1349 -0.2641 -0.7372
 2406TIP3    H128853   1.844   0.952   2.024 -0.4912  0.4739 -1.2549
 2406TIP3    H228854   1.901   0.826   1.963 -0.4917 -0.7965  1.2212
 2407TIP3   OH228855   1.095   0.428   0.152  0.2407 -0.0027  0.6578
 2407TIP3    H128856   1.142   0.488   0.210  1.0662  3.1663 -2.8437
 2407TIP3    H228857   1.011   0.470   0.136 -0.8095 -1.8425  1.0335
 2408TIP3   OH228858   2.702   3.599   8.433 -0.0994 -0.2662 -0.0515
 2408TIP3    H128859   2.742   3.645   8.506  0.9072  0.3488 -0.9542
 2408TIP3    H228860   2.774   3.549   8.394 -0.8318 -1.3493 -0.0468
 2409TIP3   OH228861   0.933   6.227   0.711  0.1518 -0.5059  0.1025
 2409TIP3    H128862   0.937   6.132   0.709 -1.5685 -0.6401  1.3224
 2409TIP3    H228863   1.003   6.253   0.770  0.6418 -1.0016 -0.2507
 2410TIP3   OH228864   6.444   0.403   2.014 -0.3047 -0.0461 -0.6902
 2410TIP3    H128865   6.437   0.498   2.018  0.6729  0.1364 -2.4792
 2410TIP3    H228866   6.354   0.372   2.024 -0.7580  1.1005 -1.0704
 2411TIP3   OH228867   0.574   3.255   2.081 -0.2619 -0.1230 -0.4844
 2411TIP3    H128868   0.524   3.328   2.044  2.1963  1.3076 -1.2816
 2411TIP3    H228869   0.665   3.275   2.059  0.6986 -2.6050  0.7706
 2412TIP3   OH228870   2.795   4.754   1.237  0.3073 -0.0587  0.7213
 2412TIP3    H128871   2.704   4.727   1.223  0.8319 -0.9946 -1.3554
 2412TIP3    H228872   2.808   4.744   1.331 -1.0168 -2.4090  0.7533
 2413TIP3   OH228873   1.916   0.141   8.335  0.5301 -0.6449 -0.3757
 2413TIP3    H128874   2.005   0.130   8.302  0.4275 -1.0268 -0.5395
 2413TIP3    H228875   1.870   0.189   8.267  0.5267 -0.7403 -0.4416
 2414TIP3   OH228876   2.898   1.018   8.777 -0.0311 -0.5705  0.0600
 2414TIP3    H128877   2.939   1.080   8.717  0.9123 -1.0677  0.1774
 2414TIP3    H228878   2.932   0.932   8.751  0.4339 -0.7926  1.3325
 2415TIP3   OH228879   0.240   5.180   7.536 -0.6581  0.2730  0.7572
 2415TIP3    H128880   0.334   5.192   7.524 -0.8283  1.4945  0.5859
 2415TIP3    H228881   0.231   5.144   7.624  0.1116 -2.1318 -0.0448
 2416TIP3   OH228882   6.227   0.801   2.740 -0.1595  0.7090 -0.6751
 2416TIP3    H128883   6.320   0.784   2.724 -0.3220  0.1889 -1.1025
 2416TIP3    H228884   6.188   0.714   2.754 -0.2694  1.0318  1.3328
 2417TIP3   OH228885   2.688   0.113   2.234  0.1720 -0.4133  0.1063
 2417TIP3    H128886   2.775   0.152   2.236  0.8426 -1.8101 -0.2165
 2417TIP3    H228887   2.674   0.080   2.323  0.2543 -0.7365  0.0033
 2418TIP3   OH228888   3.142   2.123   7.901  0.1957  0.4498 -0.0295
 2418TIP3    H128889   3.210   2.099   7.964  0.6100 -1.2001 -1.0348
 2418TIP3    H228890   3.189   2.134   7.818 -0.6696 -0.0872 -0.6118
 2419TIP3   OH228891   1.036   4.281   8.712 -0.3129  0.0638 -0.2364
 2419TIP3    H128892   1.086   4.242   8.784  0.2119  1.9663  0.4875
 2419TIP3    H228893   1.102   4.303   8.646 -0.0025  3.1101  0.9608
 2420TIP3   OH228894   1.664   1.175   0.460 -0.4095  0.1729 -0.1215
 2420TIP3    H128895   1.577   1.142   0.440 -0.0501 -0.7948 -0.1065
 2420TIP3    H228896   1.694   1.124   0.535 -0.9312  2.4021  1.7070
 2421TIP3   OH228897   3.097   0.485   7.621 -0.3232 -0.4870 -0.6190
 2421TIP3    H128898   3.111   0.550   7.691  2.5653 -2.3626  0.6959
 2421TIP3    H228899   3.137   0.524   7.544 -1.4136  0.5714 -0.6909
 2422TIP3   OH228900   6.249   1.738   2.133 -0.5835 -0.2604 -0.1079
 2422TIP3    H128901   6.315   1.749   2.065 -1.0894 -0.6269 -0.6625
 2422TIP3    H228902   6.184   1.805   2.115 -1.1220 -0.8762 -0.4671
 2423TIP3   OH228903   4.839   1.718   0.912 -0.1752 -0.1985 -0.3326
 2423TIP3    H128904   4.776   1.653   0.943 -0.0861  0.0506  0.3929
 2423TIP3    H228905   4.787   1.796   0.892 -0.0024  0.3858  1.3316
 2424TIP3   OH228906   6.248   2.326   8.804  0.1797  0.2236 -0.2026
 2424TIP3    H128907   6.241   2.372   8.887  1.4523  1.2246 -0.6225
 2424TIP3    H228908   6.334   2.351   8.770  0.0233 -0.8227 -1.4302
 2425TIP3   OH228909   2.008   1.218   2.907  0.8258  0.2711  0.5523
 2425TIP3    H128910   1.930   1.164   2.916  0.7214 -0.0063 -1.4285
 2425TIP3    H228911   1.977   1.308   2.915  0.7077  0.1227  2.0370
 2426TIP3   OH228912   5.470   4.827   1.260  0.5077 -0.6853  0.0660
 2426TIP3    H128913   5.464   4.800   1.168  2.3093  0.4989 -0.4447
 2426TIP3    H228914   5.518   4.910   1.258 -0.4374 -0.0168  1.9968
 2427TIP3   OH228915   1.340   1.084   1.385 -0.2661 -0.1219 -0.7304
 2427TIP3    H128916   1.305   0.997   1.402 -2.4129  0.6635 -0.8114
 2427TIP3    H228917   1.341   1.127   1.471 -1.6464  0.5904 -1.0560
 2428TIP3   OH228918   1.723   3.711   0.738  0.2092 -0.2680 -0.1909
 2428TIP3    H128919   1.795   3.748   0.790 -0.3803  0.9149 -0.1849
 2428TIP3    H228920   1.721   3.764   0.659 -0.9903  0.0778  0.0462
 2429TIP3   OH228921   1.295   2.878   1.683 -0.1754  0.1376  0.1662
 2429TIP3    H128922   1.387   2.853   1.690 -0.5371 -0.9882  1.3661
 2429TIP3    H228923   1.275   2.920   1.766 -0.6224  0.8770 -0.3038
 2430TIP3   OH228924   1.161   2.943   7.299  0.3326  0.3311  0.0637
 2430TIP3    H128925   1.209   2.880   7.247  0.3263  1.5946 -1.5425
 2430TIP3    H228926   1.150   3.019   7.242 -3.6332  0.1234  0.2515
 2431TIP3   OH228927   5.105   1.143   2.681 -0.1914 -0.1763  0.5456
 2431TIP3    H128928   5.139   1.064   2.639  0.7892  1.0988 -1.1923
 2431TIP3    H228929   5.019   1.156   2.642 -0.1597 -0.1316  0.4911
 2432TIP3   OH228930   0.534   1.537   1.987  0.0764 -0.0362  0.2045
 2432TIP3    H128931   0.548   1.624   2.023 -0.4384 -0.2184  0.8535
 2432TIP3    H228932   0.447   1.541   1.946  0.5167  0.0765 -0.7615
 2433TIP3   OH228933   2.775   2.031   8.738  0.1080  0.1501  0.2801
 2433TIP3    H128934   2.713   2.036   8.811 -0.1529  0.7111  0.0264
 2433TIP3    H228935   2.804   2.121   8.725  1.0655 -0.1153  0.4577
 2434TIP3   OH228936   1.039   5.469   7.487  0.8489 -0.4016 -0.8336
 2434TIP3    H128937   1.123   5.500   7.453  0.6726 -0.5517 -1.4136
 2434TIP3    H228938   0.974   5.502   7.425  0.2659  1.3432  0.6341
 2435TIP3   OH228939   1.149   2.822   8.341  0.3646  0.0508  0.1075
 2435TIP3    H128940   1.231   2.779   8.316  1.3898  1.4417  0.9184
 2435TIP3    H228941   1.156   2.910   8.303 -0.5576  0.3212  0.5485
 2436TIP3   OH228942   1.626   2.149   0.573 -0.1972 -0.4730  0.8110
 2436TIP3    H128943   1.613   2.054   0.572 -0.7564 -0.4490  2.2485
 2436TIP3    H228944   1.616   2.173   0.666 -0.7859  1.0796  0.3779
 2437TIP3   OH228945   1.083   2.733   0.723 -0.0424  0.0212  0.4880
 2437TIP3    H128946   1.017   2.690   0.669 -0.7147  0.5948  0.8427
 2437TIP3    H228947   1.096   2.674   0.797 -0.2211 -0.0499  0.4619
 2438TIP3   OH228948   2.338   1.628   2.334  0.3650  0.4009  0.3695
 2438TIP3    H128949   2.379   1.585   2.408 -0.4874 -0.3011  0.4502
 2438TIP3    H228950   2.262   1.574   2.313 -0.4363  1.5687  0.1267
 2439TIP3   OH228951   4.757   2.253   8.771 -0.2495  0.1162 -0.1862
 2439TIP3    H128952   4.708   2.335   8.782  0.4636  0.2933  2.1509
 2439TIP3    H228953   4.797   2.237   8.856 -1.1838 -3.2218 -0.2434
 2440TIP3   OH228954   2.376   2.211   2.029  0.0283 -0.0660 -0.2114
 2440TIP3    H128955   2.433   2.134   2.029 -0.8973 -0.8022 -1.6106
 2440TIP3    H228956   2.401   2.259   2.108  2.0102 -0.7576 -0.3438
 2441TIP3   OH228957   6.262   1.494   1.265 -0.2050 -0.1185 -0.4192
 2441TIP3    H128958   6.295   1.500   1.355 -1.9508 -0.9375  0.3243
 2441TIP3    H228959   6.329   1.444   1.218  2.7942  3.7070 -0.7461
 2442TIP3   OH228960   1.266   0.922   1.691 -0.3967  0.0898  0.0845
 2442TIP3    H128961   1.323   0.998   1.676  1.6597 -1.7214 -2.1762
 2442TIP3    H228962   1.179   0.951   1.662 -0.2274  2.2486  1.5167
 2443TIP3   OH228963   4.287   6.640   0.697  0.2257 -0.6458  0.6446
 2443TIP3    H128964   4.376   6.647   0.663 -0.3797  1.1354 -0.7337
 2443TIP3    H228965   4.298   6.622   0.790  2.0838  1.2037  0.8540
 2444TIP3   OH228966   5.291   6.729   8.709 -0.3253 -0.0840  0.2554
 2444TIP3    H128967   5.310   6.751   8.800  0.0292  1.3045 -0.1305
 2444TIP3    H228968   5.233   6.799   8.679 -0.4835 -0.5581 -0.5722
 2445TIP3   OH228969   2.246   1.346   0.722 -0.1475 -0.4163  1.0254
 2445TIP3    H128970   2.283   1.386   0.643  0.4294 -0.7560  1.1200
 2445TIP3    H228971   2.281   1.399   0.794 -1.6011  0.6277  1.0140
 2446TIP3   OH228972   1.125   0.560   1.082 -0.3747  0.0752 -0.1395
 2446TIP3    H128973   1.157   0.649   1.069  0.8570 -0.2434  0.5777
 2446TIP3    H228974   1.202   0.505   1.069 -0.7132 -0.7485  1.2043
 2447TIP3   OH228975   1.391   4.313   8.205 -0.1424  0.4075  0.3626
 2447TIP3    H128976   1.448   4.279   8.275 -0.1547  1.2389  0.7905
 2447TIP3    H228977   1.337   4.239   8.180  0.4630 -0.1369  0.6329
 2448TIP3   OH228978   4.645   1.371   0.501 -0.7803 -0.2564  0.3579
 2448TIP3    H128979   4.723   1.386   0.448 -0.8096 -3.5264 -0.8561
 2448TIP3    H228980   4.601   1.297   0.459 -3.2755 -0.0715  2.3761
 2449TIP3   OH228981   4.343   3.322   8.717 -0.0537  0.0211 -0.3298
 2449TIP3    H128982   4.336   3.271   8.636  1.2267  0.4437 -0.7266
 2449TIP3    H228983   4.402   3.271   8.772 -0.7051 -0.1269  0.2554
 2450TIP3   OH228984   0.484   0.160   2.692  0.0445  0.2403  0.2578
 2450TIP3    H128985   0.544   0.234   2.694  0.7822 -0.3311 -0.0985
 2450TIP3    H228986   0.397   0.199   2.700  0.4180  1.1406  0.0434
 2451TIP3   OH228987   2.185   2.753   7.561  0.3101  0.5898 -0.6584
 2451TIP3    H128988   2.200   2.659   7.558 -0.0400  0.5467 -1.2342
 2451TIP3    H228989   2.188   2.781   7.470  0.1762  1.0977 -0.5110
 2452TIP3   OH228990   4.621   5.721   0.134 -0.5268 -0.0760  0.2265
 2452TIP3    H128991   4.680   5.685   0.067  0.1215  0.3901  0.5302
 2452TIP3    H228992   4.585   5.645   0.179 -3.2308 -0.5803 -2.4750
 2453TIP3   OH228993   1.943   1.569   0.913 -0.4318 -0.3198 -0.2435
 2453TIP3    H128994   1.913   1.649   0.869  0.9294  0.4291  0.1335
 2453TIP3    H228995   1.906   1.575   1.001  1.4880  1.0620  0.5213
 2454TIP3   OH228996   1.838   4.008   8.462 -0.5018 -0.5520  0.0720
 2454TIP3    H128997   1.802   3.921   8.480  1.2089 -0.9085  2.1759
 2454TIP3    H228998   1.933   3.998   8.470 -0.3020  1.7053  1.5885
 2455TIP3   OH228999   5.976   5.604   7.205  0.5254 -0.2857 -0.0924
 2455TIP3    H129000   5.957   5.539   7.272 -0.6396 -0.9592 -1.0181
 2455TIP3    H229001   5.981   5.554   7.124 -0.4803  0.7649 -0.8485
 2456TIP3   OH229002   5.499   3.866   7.806  0.1946 -0.0537 -0.3079
 2456TIP3    H129003   5.417   3.916   7.799 -0.6262 -1.4169 -0.8153
 2456TIP3    H229004   5.472   3.780   7.839  1.5428 -0.2477  0.3464
 2457TIP3   OH229005   3.603   4.928   1.463 -0.0430 -0.6921 -0.2076
 2457TIP3    H129006   3.694   4.910   1.440 -0.0832 -0.3695 -0.6117
 2457TIP3    H229007   3.594   5.023   1.456  0.5603 -0.2333  3.3388
 2458TIP3   OH229008   1.892   3.121   0.817 -0.1143  0.5729  0.1794
 2458TIP3    H129009   1.954   3.073   0.872 -0.9901 -0.5457  0.2114
 2458TIP3    H229010   1.947   3.160   0.748  0.7812  0.6979  0.9361
 2459TIP3   OH229011   6.612   4.401   2.386 -0.1336 -0.0030  0.6379
 2459TIP3    H129012   6.634   4.393   2.293  0.3850 -0.8176  0.8237
 2459TIP3    H229013   6.678   4.460   2.421  0.0956 -0.2484  0.6261
 2460TIP3   OH229014   5.492   4.020   0.001 -0.4223 -0.0463  0.2442
 2460TIP3    H129015   5.527   3.959  -0.064 -0.9536  1.9460 -2.0450
 2460TIP3    H229016   5.397   4.006  -0.003 -0.5200  0.6909 -0.0534
 2461TIP3   OH229017   3.135   6.309   1.110 -0.2835  0.5549 -0.2748
 2461TIP3    H129018   3.109   6.393   1.146  0.3225  0.9846 -0.8069
 2461TIP3    H229019   3.203   6.276   1.169  0.3417  1.0165 -0.7216
 2462TIP3   OH229020   5.678   5.907   8.459 -0.3788  0.1651 -0.6266
 2462TIP3    H129021   5.724   5.980   8.499 -0.6421  0.7355 -1.3328
 2462TIP3    H229022   5.731   5.830   8.480 -0.3037  0.4995  0.4481
 2463TIP3   OH229023   3.464   2.805   1.220  0.3615  0.3897  0.1574
 2463TIP3    H129024   3.509   2.725   1.248 -0.1332 -0.6273 -1.8043
 2463TIP3    H229025   3.530   2.854   1.172  0.2897  0.5358  0.2082
 2464TIP3   OH229026   6.062   2.305   2.519  0.4204  0.1754 -0.3558
 2464TIP3    H129027   5.967   2.313   2.525  0.4698  0.3297  0.2379
 2464TIP3    H229028   6.085   2.347   2.436 -0.1761 -1.1366 -1.2117
 2465TIP3   OH229029   0.836   6.301   0.486 -0.0325  0.1428 -0.1023
 2465TIP3    H129030   0.886   6.286   0.566  0.1344  0.9156 -0.0565
 2465TIP3    H229031   0.788   6.219   0.472  2.3592 -1.2257 -0.9460
 2466TIP3   OH229032   6.153   3.909   1.700 -0.1926  0.0485 -0.6491
 2466TIP3    H129033   6.093   3.850   1.654 -0.6243 -0.0918  0.0674
 2466TIP3    H229034   6.140   3.994   1.658 -1.5961  0.2304  0.0841
 2467TIP3   OH229035   1.602   5.498   2.620 -0.3071  0.7554 -0.3126
 2467TIP3    H129036   1.697   5.514   2.624 -0.0157 -0.8317  3.0812
 2467TIP3    H229037   1.595   5.415   2.572  0.1543  0.3509  0.2976
 2468TIP3   OH229038   6.445   4.565   6.972  0.1717  0.6323 -0.0776
 2468TIP3    H129039   6.503   4.602   7.038  0.0188  0.0985  0.3624
 2468TIP3    H229040   6.457   4.621   6.895  0.4542  1.1730  0.3553
 2469TIP3   OH229041   1.849   0.837   7.572 -0.2872 -0.1351  0.0399
 2469TIP3    H129042   1.793   0.841   7.650 -1.2747 -0.3066 -0.6421
 2469TIP3    H229043   1.835   0.749   7.537 -0.1821  0.0887 -0.5694
 2470TIP3   OH229044   1.098   1.770   8.807 -0.1575  0.1629  0.4286
 2470TIP3    H129045   1.095   1.675   8.823  0.4032 -0.0134 -0.4571
 2470TIP3    H229046   1.179   1.798   8.848  0.6233 -0.0700 -0.9127
 2471TIP3   OH229047   3.079   3.122   2.065  0.1580 -0.2617 -0.7037
 2471TIP3    H129048   3.159   3.101   2.112 -0.2871 -2.5133 -0.8566
 2471TIP3    H229049   3.010   3.115   2.131 -0.1556 -0.5870 -1.0625
 2472TIP3   OH229050   3.382   5.003   0.170 -0.3828  0.2507 -0.7217
 2472TIP3    H129051   3.471   5.002   0.133 -0.4521 -0.7406 -0.8771
 2472TIP3    H229052   3.373   4.919   0.215 -0.4329  1.2698  1.2968
 2473TIP3   OH229053   6.390   0.945   0.827  0.5553 -0.4493 -0.5903
 2473TIP3    H129054   6.427   0.862   0.796  0.5249 -0.7988  0.2760
 2473TIP3    H229055   6.450   0.973   0.896  0.0966 -0.1860 -0.2958
 2474TIP3   OH229056   3.775   2.762   8.458 -0.1478 -0.3521 -0.0180
 2474TIP3    H129057   3.686   2.767   8.493  0.0600 -2.3082  0.8945
 2474TIP3    H229058   3.829   2.807   8.522 -0.3315 -0.0697 -0.0579
 2475TIP3   OH229059   6.271   1.612   8.463 -0.9971  0.4979  0.2672
 2475TIP3    H129060   6.206   1.655   8.519 -1.1387  0.5801  0.0399
 2475TIP3    H229061   6.224   1.539   8.422 -1.3419  1.3731 -0.9698
 2476TIP3   OH229062   3.297   5.107   1.019 -0.4811  0.4331  0.5091
 2476TIP3    H129063   3.339   5.057   1.090 -0.1583  0.4361  0.3263
 2476TIP3    H229064   3.370   5.132   0.962 -0.4651  2.2716  1.2877
 2477TIP3   OH229065   3.434   4.249   8.279 -0.0740  0.5096  0.1431
 2477TIP3    H129066   3.465   4.307   8.209  2.7436 -2.5469 -1.4703
 2477TIP3    H229067   3.358   4.205   8.241 -0.0245  0.5786 -0.0385
 2478TIP3   OH229068   2.408   5.530   2.068 -0.6861  0.2476  0.1557
 2478TIP3    H129069   2.498   5.499   2.080 -0.1125  1.7994  0.1178
 2478TIP3    H229070   2.363   5.457   2.025 -0.1965 -1.6200  2.6203
 2479TIP3   OH229071   6.820   0.984   1.618 -0.1937  0.7813 -0.4506
 2479TIP3    H129072   6.867   1.039   1.556 -2.1401  1.5726 -1.2965
 2479TIP3    H229073   6.863   0.899   1.612  1.0126  1.4207 -1.2718
 2480TIP3   OH229074   0.343   6.693   2.515  0.6199  0.5088  0.3239
 2480TIP3    H129075   0.368   6.606   2.484  0.4701  0.0543  1.3971
 2480TIP3    H229076   0.313   6.739   2.438 -1.2810 -1.1027  0.0302
 2481TIP3   OH229077   2.542   1.191   7.901  0.3740  0.0441  0.1953
 2481TIP3    H129078   2.611   1.249   7.933  0.1611  0.7581 -0.5928
 2481TIP3    H229079   2.471   1.250   7.875  0.5822 -0.4571 -1.6693
 2482TIP3   OH229080   2.800   4.982   7.126  0.3510  0.2346 -0.5559
 2482TIP3    H129081   2.736   5.051   7.143  0.8317  0.4330  0.5601
 2482TIP3    H229082   2.785   4.957   7.035  0.9199  2.6095 -1.3866
 2483TIP3   OH229083   2.901   2.252   8.772  0.1141  0.2997  0.7468
 2483TIP3    H129084   2.931   2.284   8.687 -1.6220  0.2558  0.0749
 2483TIP3    H229085   2.975   2.202   8.806  0.3833 -0.8783 -1.3754
 2484TIP3   OH229086   1.139   5.195   7.926  0.0385  0.0815  0.0805
 2484TIP3    H129087   1.216   5.199   7.869  0.1039  0.7344  0.2149
 2484TIP3    H229088   1.175   5.185   8.015 -0.0456 -0.0410  0.1020
 2485TIP3   OH229089   5.776   5.178   8.312 -0.1870 -0.3199  0.2185
 2485TIP3    H129090   5.741   5.221   8.390  1.6137  1.1494  0.2772
 2485TIP3    H229091   5.721   5.208   8.241  0.2664  1.1588  0.4517
 2486TIP3   OH229092   4.143   4.974   7.737  0.1853 -0.4062  1.1357
 2486TIP3    H129093   4.231   4.998   7.766  0.5501 -0.0300 -0.1697
 2486TIP3    H229094   4.117   4.902   7.794  0.6889  0.5243  2.5673
 2487TIP3   OH229095   4.503   5.881   1.684  0.0301 -0.2100  0.3016
 2487TIP3    H129096   4.506   5.951   1.748 -0.2293 -0.5066  0.6416
 2487TIP3    H229097   4.411   5.873   1.661  0.1605  0.1180 -0.3608
 2488TIP3   OH229098   5.388   1.252   2.682  0.3114 -0.4736  0.8289
 2488TIP3    H129099   5.336   1.185   2.725  1.0473 -1.0439  0.8349
 2488TIP3    H229100   5.328   1.291   2.617 -0.3946 -0.4947  1.4602
 2489TIP3   OH229101   1.580   3.521   1.938  0.0735 -0.2114 -0.5559
 2489TIP3    H129102   1.626   3.477   2.010  0.8771  0.1524 -0.8274
 2489TIP3    H229103   1.582   3.614   1.963  0.2094 -0.1042 -0.9610
 2490TIP3   OH229104   4.006   0.155   1.854 -0.0421 -0.1742  0.5847
 2490TIP3    H129105   4.075   0.095   1.824 -1.6133 -2.2884  0.9342
 2490TIP3    H229106   4.031   0.240   1.818  1.2637 -1.4178 -1.6981
 2491TIP3   OH229107   6.124   4.408   0.766 -0.0152  0.1535 -0.1110
 2491TIP3    H129108   6.137   4.381   0.857  0.1340 -1.2916 -0.5296
 2491TIP3    H229109   6.077   4.335   0.726  1.4328 -0.0356 -1.6039
 2492TIP3   OH229110   2.445   1.656   7.889 -0.4410  0.8881 -0.3243
 2492TIP3    H129111   2.539   1.673   7.897 -0.2259  0.0189 -0.9112
 2492TIP3    H229112   2.404   1.721   7.946  0.6392 -0.2521  1.8940
 2493TIP3   OH229113   1.619   5.104   7.307  0.5841 -0.0608 -0.0840
 2493TIP3    H129114   1.538   5.113   7.358  0.8546 -1.4567  0.6513
 2493TIP3    H229115   1.590   5.074   7.221  0.1572  1.8828 -0.6745
 2494TIP3   OH229116   4.814   2.837   0.786  0.1786 -0.2731 -0.6511
 2494TIP3    H129117   4.816   2.795   0.700  0.6082 -1.4862 -0.0763
 2494TIP3    H229118   4.905   2.835   0.816 -0.1635 -1.1502  0.4082
 2495TIP3   OH229119   1.605   2.917   1.435 -0.0934 -0.6909 -0.0375
 2495TIP3    H129120   1.695   2.945   1.449 -0.2538 -0.2100  0.0729
 2495TIP3    H229121   1.552   2.992   1.464 -0.6653 -2.0830  2.8946
 2496TIP3   OH229122   0.114   4.479   7.655  0.2231 -0.1438  0.0449
 2496TIP3    H129123   0.133   4.452   7.745  1.4999  1.5893  0.3470
 2496TIP3    H229124   0.036   4.535   7.662  0.1793 -0.2028  0.0327
 2497TIP3   OH229125   3.134   1.178   7.378 -0.0994  0.7211  0.5462
 2497TIP3    H129126   3.108   1.268   7.358 -1.4998 -0.0109 -1.1586
 2497TIP3    H229127   3.121   1.171   7.473 -1.1032  1.9745  0.5382
 2498TIP3   OH229128   3.035   2.492   2.072  0.0334  0.2840 -0.2409
 2498TIP3    H129129   3.000   2.560   2.129 -0.6505 -0.5922  0.4321
 2498TIP3    H229130   3.059   2.421   2.132  1.7909  0.3441 -0.8048
 2499TIP3   OH229131   2.179   5.323   2.232  0.1804  0.8152 -0.0188
 2499TIP3    H129132   2.110   5.315   2.298 -1.7168 -1.4057 -2.0535
 2499TIP3    H229133   2.259   5.296   2.278 -0.1642  3.5067  2.4252
 2500TIP3   OH229134   5.889   1.615   0.115 -0.5972  0.0741 -0.3325
 2500TIP3    H129135   5.862   1.530   0.149  1.3132 -0.6085 -0.4050
 2500TIP3    H229136   5.839   1.626   0.035  0.4014 -1.8604 -1.2892
 2501TIP3   OH229137   1.491   5.755   8.063 -0.0518 -0.1413 -0.1236
 2501TIP3    H129138   1.530   5.696   7.999 -1.4301  0.0509 -1.1845
 2501TIP3    H229139   1.554   5.757   8.135  0.6835 -1.7876 -0.6744
 2502TIP3   OH229140   2.276   5.492   0.749 -0.1682  0.0275  0.0595
 2502TIP3    H129141   2.188   5.469   0.778 -0.6660 -0.4737 -1.7344
 2502TIP3    H229142   2.274   5.481   0.654  1.2836  1.8392 -0.2496
 2503TIP3   OH229143   2.675   5.283   2.570 -0.0190  0.3706 -0.3310
 2503TIP3    H129144   2.758   5.325   2.548 -1.2026  2.1804 -1.6131
 2503TIP3    H229145   2.617   5.355   2.596 -1.5674 -0.6712 -0.7460
 2504TIP3   OH229146   1.299   1.750   7.738 -0.1324 -0.2883  0.2986
 2504TIP3    H129147   1.366   1.736   7.804 -2.1476 -1.9265  2.1481
 2504TIP3    H229148   1.276   1.842   7.746  0.6524 -0.1383  0.8906
 2505TIP3   OH229149   1.165   2.390   1.745  0.3204  0.4735 -0.0147
 2505TIP3    H129150   1.255   2.380   1.774  0.8736  0.3825 -1.6642
 2505TIP3    H229151   1.152   2.485   1.742  0.2759  0.4854  0.4210
 2506TIP3   OH229152   6.809   6.541   8.284  0.6803  0.2459  0.0618
 2506TIP3    H129153   6.774   6.629   8.271  0.7233  0.0220 -1.8317
 2506TIP3    H229154   6.733   6.483   8.275  0.6669  0.0498  1.2141
 2507TIP3   OH229155   5.428   4.848   8.355 -0.1285 -0.1167 -0.2294
 2507TIP3    H129156   5.457   4.827   8.266 -0.4490 -0.0305 -0.3573
 2507TIP3    H229157   5.507   4.877   8.400 -0.4211  2.6091 -1.3027
 2508TIP3   OH229158   3.979   4.755   7.928 -0.1798 -0.1314  0.2637
 2508TIP3    H129159   4.018   4.672   7.901  1.5307  0.2604  1.3958
 2508TIP3    H229160   3.935   4.736   8.010 -0.0368  0.0234  0.3765
 2509TIP3   OH229161   6.137   5.160   0.404  0.3568  0.7967 -0.3523
 2509TIP3    H129162   6.214   5.122   0.360  1.4424 -3.2045  4.1229
 2509TIP3    H229163   6.172   5.234   0.454  0.8893  0.3375 -0.0290
 2510TIP3   OH229164   3.544   1.494   1.244 -0.7545  0.0436 -0.1949
 2510TIP3    H129165   3.634   1.460   1.240 -1.3134 -1.5751  0.6668
 2510TIP3    H229166   3.537   1.533   1.331 -1.6229 -2.0208  0.6977
 2511TIP3   OH229167   5.194   6.358   0.937 -0.4909  0.1239 -0.4175
 2511TIP3    H129168   5.174   6.447   0.908 -0.7212  0.0480 -0.5020
 2511TIP3    H229169   5.116   6.331   0.986 -0.6857 -0.2558 -0.9263
 2512TIP3   OH229170   5.750   4.337   1.049 -0.2922 -0.2673  0.0954
 2512TIP3    H129171   5.703   4.387   1.114 -0.4784 -2.0727  1.4269
 2512TIP3    H229172   5.832   4.385   1.035 -0.5169  0.4592  1.2309
 2513TIP3   OH229173   1.462   3.815   7.033  0.5289  0.0144  0.5966
 2513TIP3    H129174   1.522   3.887   7.016  0.3509  0.0027 -0.1310
 2513TIP3    H229175   1.492   3.745   6.975  0.1501 -0.1794  0.6324
 2514TIP3   OH229176   0.652   3.111   2.702  0.3553  0.1356  0.0392
 2514TIP3    H129177   0.667   3.047   2.772  2.6281  0.7785  0.2247
 2514TIP3    H229178   0.592   3.175   2.741  1.7401  0.5996  1.5672
 2515TIP3   OH229179   3.820   6.682   8.180 -0.3572 -0.0525  0.5113
 2515TIP3    H129180   3.885   6.656   8.115 -1.6616 -1.9422 -0.1443
 2515TIP3    H229181   3.868   6.683   8.263  0.9160  0.5135 -0.2114
 2516TIP3   OH229182   6.624   6.115   2.442 -0.2612  0.2733  0.2137
 2516TIP3    H129183   6.639   6.204   2.409  2.2611 -0.9600 -2.4311
 2516TIP3    H229184   6.614   6.126   2.537 -1.3008  3.4329 -0.1182
 2517TIP3   OH229185   1.159   0.595   1.817 -0.4867 -0.0069  0.0001
 2517TIP3    H129186   1.162   0.586   1.721  0.4467 -2.0151  0.1598
 2517TIP3    H229187   1.087   0.656   1.833 -0.0878  1.0859 -2.0071
 2518TIP3   OH229188   5.050   5.796   8.777 -0.0516  0.3107 -0.6594
 2518TIP3    H129189   5.060   5.872   8.719  2.4628  0.2510 -0.4429
 2518TIP3    H229190   5.042   5.833   8.865 -1.1077  0.3389 -0.7535
 2519TIP3   OH229191   2.166   5.875   0.852  0.4078 -0.2137 -1.0636
 2519TIP3    H129192   2.099   5.911   0.909 -0.5041 -1.0824 -1.5443
 2519TIP3    H229193   2.226   5.829   0.911  0.8662  0.9621 -0.5863
 2520TIP3   OH229194   2.900   1.184   8.320 -0.3456 -0.0603 -0.3534
 2520TIP3    H129195   2.929   1.275   8.307 -1.4389  0.3228 -0.2026
 2520TIP3    H229196   2.894   1.149   8.231  0.0653  0.0145 -0.4134
 2521TIP3   OH229197   4.285   4.186   1.092  0.2358 -0.1398  0.1999
 2521TIP3    H129198   4.355   4.249   1.074  0.4102  0.2614  2.1220
 2521TIP3    H229199   4.268   4.195   1.185 -1.1789 -1.4934  0.1067
 2522TIP3   OH229200   6.580   4.942   7.492  0.1437 -0.4369 -0.0858
 2522TIP3    H129201   6.622   4.967   7.410  0.7166  0.4598  0.4733
 2522TIP3    H229202   6.496   4.989   7.492  0.6185  0.4304  0.3307
 2523TIP3   OH229203   1.446   0.017   2.439 -0.4053  0.0697  0.2197
 2523TIP3    H129204   1.531   0.043   2.404 -0.1115 -1.1144  0.0216
 2523TIP3    H229205   1.389   0.091   2.419  0.9349  1.6460  1.8735
 2524TIP3   OH229206   0.496   6.458   8.413 -0.0089  0.2583  0.0979
 2524TIP3    H129207   0.546   6.426   8.337 -0.5912  0.3579 -0.3350
 2524TIP3    H229208   0.405   6.452   8.385 -0.2485 -0.0666  0.9404
 2525TIP3   OH229209   0.795   3.673   7.782 -0.2605 -0.1252  0.3533
 2525TIP3    H129210   0.835   3.587   7.797  0.2523 -0.0098 -0.3321
 2525TIP3    H229211   0.732   3.682   7.854  0.5784 -0.5290  1.1661
 2526TIP3   OH229212   3.521   4.735   1.030 -0.6167  0.0234  0.2776
 2526TIP3    H129213   3.550   4.712   1.118  0.4942 -1.6052 -0.4579
 2526TIP3    H229214   3.426   4.745   1.037 -0.5795 -0.3932  1.5783
 2527TIP3   OH229215   4.373   2.061   8.682 -0.3472  0.3302  0.0396
 2527TIP3    H129216   4.464   2.051   8.708 -0.7479 -0.5927  1.2323
 2527TIP3    H229217   4.359   1.993   8.616 -0.4953 -0.4329  0.8360
 2528TIP3   OH229218   0.331   6.666   8.131 -0.3459 -0.0133  0.5297
 2528TIP3    H129219   0.260   6.707   8.081  0.4470  0.6053 -0.1352
 2528TIP3    H229220   0.304   6.575   8.143 -0.1228 -0.4851 -1.9696
 2529TIP3   OH229221   1.441   2.361   1.771  0.3165  0.2073  0.3884
 2529TIP3    H129222   1.475   2.447   1.796 -0.2073 -0.1962  2.7202
 2529TIP3    H229223   1.519   2.306   1.763  0.5043  0.3082  1.4181
 2530TIP3   OH229224   1.616   6.265   0.045 -0.2328 -0.0698 -0.6829
 2530TIP3    H129225   1.640   6.184   0.000 -1.6095  0.4182 -2.4292
 2530TIP3    H229226   1.684   6.328   0.018 -0.6872  0.0477 -1.5980
 2531TIP3   OH229227   2.013   0.047   0.492 -0.2190  0.0218 -0.0881
 2531TIP3    H129228   2.002   0.013   0.404  0.8460 -1.7046  0.4060
 2531TIP3    H229229   1.963  -0.013   0.548 -1.7756  1.6925  0.4328
 2532TIP3   OH229230   1.629   0.263   0.369  0.3401  0.0788 -0.1348
 2532TIP3    H129231   1.600   0.264   0.460 -1.1440 -0.8989 -0.5681
 2532TIP3    H229232   1.550   0.279   0.318  0.9013 -0.6902 -1.2970
 2533TIP3   OH229233   2.205   4.910   8.647  0.0720  0.2585 -0.5836
 2533TIP3    H129234   2.185   5.003   8.656 -0.2797  0.3935 -2.3650
 2533TIP3    H229235   2.131   4.866   8.689 -0.0482  0.7732 -0.2470
 2534TIP3   OH229236   6.236   1.486   2.231  0.1926 -0.8538  0.1790
 2534TIP3    H129237   6.141   1.487   2.232  0.0327 -0.1336  4.6943
 2534TIP3    H229238   6.261   1.574   2.201 -0.5139 -0.9561 -0.7521
 2535TIP3   OH229239   5.717   1.269   0.757 -0.8327  0.3824 -0.6740
 2535TIP3    H129240   5.764   1.227   0.830 -0.1749  0.7189 -0.8945
 2535TIP3    H229241   5.642   1.311   0.798  0.5898  2.2627  0.1449
 2536TIP3   OH229242   0.240   6.431   1.289  0.3785 -0.4760 -0.4260
 2536TIP3    H129243   0.162   6.434   1.344 -0.0678  0.7435 -1.0813
 2536TIP3    H229244   0.209   6.396   1.205  0.8043 -1.1591 -0.3091
 2537TIP3   OH229245   1.894   2.501   7.134 -1.0263 -0.6729 -0.0314
 2537TIP3    H129246   1.843   2.420   7.129 -0.7673 -0.8847  0.6589
 2537TIP3    H229247   1.949   2.490   7.212 -0.3076 -0.2297 -0.4674
 2538TIP3   OH229248   2.300   1.054   2.541 -0.0902 -0.1576  0.6568
 2538TIP3    H129249   2.238   1.029   2.609  0.6375  1.3585  1.9346
 2538TIP3    H229250   2.245   1.081   2.468 -0.8933 -1.1392  0.8639
 2539TIP3   OH229251   1.987   6.554   2.856 -0.0953 -0.6267  0.1482
 2539TIP3    H129252   2.036   6.494   2.800 -1.0642 -0.7523 -0.6049
 2539TIP3    H229253   2.021   6.641   2.835  1.1660 -0.8740  1.0884
 2540TIP3   OH229254   1.494   5.510   1.978  0.3428  0.7892 -0.1543
 2540TIP3    H129255   1.545   5.432   1.957  0.0643  0.5216  0.1649
 2540TIP3    H229256   1.529   5.539   2.062 -1.4800 -0.6420  1.1672
 2541TIP3   OH229257   3.181   6.261   7.757  0.0563 -0.2140 -0.5297
 2541TIP3    H129258   3.092   6.272   7.792  0.7438  2.3346  0.7476
 2541TIP3    H229259   3.180   6.308   7.674  0.2549  0.0338 -0.3944
 2542TIP3   OH229260   3.243   1.108   1.772 -0.3533 -0.4193  0.2278
 2542TIP3    H129261   3.268   1.162   1.847  0.7500 -0.1795 -0.2984
 2542TIP3    H229262   3.270   1.020   1.795  2.4955  0.0510 -0.9319
 2543TIP3   OH229263   5.480   4.617   1.898  0.7259 -0.2145  0.5161
 2543TIP3    H129264   5.424   4.669   1.956  1.5092 -0.0432  1.1271
 2543TIP3    H229265   5.533   4.681   1.851 -0.2962 -0.3155 -0.8441
 2544TIP3   OH229266   4.346   2.115   7.082  0.5578  0.3191 -0.0989
 2544TIP3    H129267   4.418   2.078   7.134  1.1892  1.2873 -0.2504
 2544TIP3    H229268   4.279   2.047   7.082 -0.1199  0.7843  3.2497
 2545TIP3   OH229269   3.465   2.786   8.085 -0.0472 -0.5335  0.4140
 2545TIP3    H129270   3.405   2.829   8.146 -1.3396  0.9356 -1.7434
 2545TIP3    H229271   3.413   2.773   8.005  1.6051 -2.1971 -0.4629
 2546TIP3   OH229272   3.616   4.110   0.320 -0.7837  0.4700 -0.4016
 2546TIP3    H129273   3.651   4.112   0.231  1.1511 -0.4230  0.2889
 2546TIP3    H229274   3.575   4.024   0.328  0.4580 -0.0853  0.0656
 2547TIP3   OH229275   5.013   1.352   2.034 -0.0653  0.5988  0.0358
 2547TIP3    H129276   5.045   1.401   2.110  1.0833  0.3946 -0.2969
 2547TIP3    H229277   5.013   1.261   2.062  1.8131  0.3412 -0.6450
 2548TIP3   OH229278   6.738   4.709   6.480 -1.3190 -0.1402 -0.0043
 2548TIP3    H129279   6.667   4.644   6.474 -1.6790  0.0775  1.4914
 2548TIP3    H229280   6.693   4.790   6.506 -0.5848  0.1174  0.4789
 2549TIP3   OH229281   0.856   1.596   1.768 -1.0851  0.3767  0.1697
 2549TIP3    H129282   0.798   1.663   1.803  1.5818  2.6249  0.6489
 2549TIP3    H229283   0.868   1.619   1.676 -0.1281  0.6537  0.3469
 2550TIP3   OH229284   0.120   1.346   7.237  0.1127 -0.0354  0.0513
 2550TIP3    H129285   0.203   1.393   7.227  0.9961 -1.4543  0.4197
 2550TIP3    H229286   0.128   1.271   7.177 -0.4837 -0.7172  0.8024
 2551TIP3   OH229287   4.371   6.451   8.179  0.5077  0.3261  0.0658
 2551TIP3    H129288   4.401   6.454   8.088  0.8257  1.6075  0.1975
 2551TIP3    H229289   4.300   6.515   8.183  0.6165  0.4109  0.7595
 2552TIP3   OH229290   2.751   6.417   8.646  0.2674  0.3160  0.0959
 2552TIP3    H129291   2.703   6.499   8.658  0.2506  0.0487  2.0612
 2552TIP3    H229292   2.731   6.392   8.555 -1.2509  1.5142  0.0482
 2553TIP3   OH229293   2.345   4.787   0.742  0.3304  0.1608  0.2064
 2553TIP3    H129294   2.410   4.725   0.709  1.4917  0.3079  2.0463
 2553TIP3    H229295   2.271   4.732   0.770  0.2560 -0.1417 -0.5709
 2554TIP3   OH229296   6.601   0.626   0.140  0.4412  0.1952 -0.2690
 2554TIP3    H129297   6.690   0.597   0.159  0.2783  0.0178  0.2319
 2554TIP3    H229298   6.544   0.561   0.182  0.0671 -0.1729 -1.3100
 2555TIP3   OH229299   6.421   4.157   7.517 -0.5420  0.3360  0.4381
 2555TIP3    H129300   6.476   4.145   7.439  2.0796  2.4131  1.7877
 2555TIP3    H229301   6.347   4.211   7.487 -0.4453 -0.2672 -0.9171
 2556TIP3   OH229302   3.142   0.041   1.185  0.3725  0.5487  0.0327
 2556TIP3    H129303   3.119   0.130   1.210  1.1825  0.5776  0.7274
 2556TIP3    H229304   3.126  -0.011   1.263 -0.2190  0.0598 -0.4098
 2557TIP3   OH229305   5.681   4.802   2.106 -0.5024 -0.3988 -0.1433
 2557TIP3    H129306   5.608   4.865   2.105 -2.5876 -2.6365 -0.0968
 2557TIP3    H229307   5.719   4.810   2.193 -2.6240 -1.1400  0.9206
 2558TIP3   OH229308   4.615   1.910   7.508  0.0356 -0.0270  0.3372
 2558TIP3    H129309   4.670   1.925   7.431  0.2717 -4.5926 -0.6621
 2558TIP3    H229310   4.527   1.902   7.473  0.2574 -2.9952  0.2745
 2559TIP3   OH229311   4.499   2.455   7.197 -0.2440 -0.6993 -0.1649
 2559TIP3    H129312   4.443   2.389   7.157  0.4127 -1.3869  0.0366
 2559TIP3    H229313   4.531   2.507   7.123 -1.2354 -0.2144 -0.2709
 2560TIP3   OH229314   1.971   2.632   0.227 -0.4769  0.6920  0.6244
 2560TIP3    H129315   1.876   2.642   0.216 -0.3668  0.1457 -1.0924
 2560TIP3    H229316   2.000   2.590   0.147  0.6612 -3.0904  2.7882
 2561TIP3   OH229317   5.920   5.160   0.121 -0.2238 -0.0403  0.0059
 2561TIP3    H129318   5.994   5.100   0.132 -1.8706 -2.0555  0.9408
 2561TIP3    H229319   5.952   5.227   0.061  2.2670 -0.9304  0.2073
 2562TIP3   OH229320   6.796   0.598   2.071  0.0556 -0.5471  0.1046
 2562TIP3    H129321   6.829   0.591   2.161  0.0170  0.0372  0.1684
 2562TIP3    H229322   6.719   0.653   2.078 -1.1830 -2.1948  0.0084
 2563TIP3   OH229323   2.521   5.724   1.191  0.0157  0.2415  0.8770
 2563TIP3    H129324   2.604   5.677   1.176  1.6221  2.5224  2.0294
 2563TIP3    H229325   2.474   5.669   1.254 -0.4736 -2.2229 -1.4181
 2564TIP3   OH229326   6.328   3.682   0.050  0.2784 -0.4764 -0.1573
 2564TIP3    H129327   6.313   3.752   0.113  0.2886 -0.2796 -0.3708
 2564TIP3    H229328   6.241   3.648   0.031  0.2200 -0.1744 -0.4442
 2565TIP3   OH229329   1.131   5.801   6.682 -0.0588  0.2166 -0.4688
 2565TIP3    H129330   1.130   5.867   6.613 -0.8031 -0.5244 -1.1791
 2565TIP3    H229331   1.064   5.830   6.744  0.6071  0.8803 -0.0377
 2566TIP3   OH229332   6.630   0.965   7.595  0.1745  0.2648  0.3229
 2566TIP3    H129333   6.610   1.029   7.664  0.5877 -0.0564  0.7439
 2566TIP3    H229334   6.709   0.999   7.553  0.7660 -0.2846  0.9618
 2567TIP3   OH229335   6.511   2.999   1.353 -0.0196 -0.1711 -0.3311
 2567TIP3    H129336   6.547   3.067   1.411  0.1658 -1.8965  1.7375
 2567TIP3    H229337   6.416   3.005   1.366 -0.0047 -0.2672 -0.1656
 2568TIP3   OH229338   5.038   0.425   2.232 -0.2482  0.1901 -0.2308
 2568TIP3    H129339   5.008   0.407   2.321  0.4241  0.0358 -0.0330
 2568TIP3    H229340   5.132   0.406   2.234 -0.0057  1.2616 -0.6739
 2569TIP3   OH229341   0.362   3.785   6.791  0.8735  0.5336 -0.0551
 2569TIP3    H129342   0.362   3.722   6.863  1.2158 -0.9138 -1.2764
 2569TIP3    H229343   0.269   3.804   6.776  0.7688  0.3692  0.3639
 2570TIP3   OH229344   0.435   2.455   2.125  0.5084  0.1101 -0.3886
 2570TIP3    H129345   0.350   2.489   2.097 -0.1568 -1.1058  0.0685
 2570TIP3    H229346   0.467   2.519   2.188 -1.5575 -0.8863  1.8472
 2571TIP3   OH229347   2.933   3.360   0.920  0.0688 -0.2016  0.2671
 2571TIP3    H129348   2.883   3.441   0.908 -0.6803 -0.5244  1.0644
 2571TIP3    H229349   2.954   3.358   1.013  0.5711 -0.6517  0.1497
 2572TIP3   OH229350   0.217   6.410   8.234 -0.0682  0.5510  0.2543
 2572TIP3    H129351   0.210   6.316   8.215 -0.5483  0.1187  2.3437
 2572TIP3    H229352   0.127   6.442   8.231 -0.1254  0.5278  1.3827
 2573TIP3   OH229353   2.175   0.240   1.286  0.1899  0.0424  0.2806
 2573TIP3    H129354   2.240   0.200   1.344  0.7644 -1.5472 -1.3698
 2573TIP3    H229355   2.207   0.328   1.271  0.4332  0.2249  1.7484
 2574TIP3   OH229356   2.165   6.235   1.887  0.0245 -0.4642  0.0438
 2574TIP3    H129357   2.100   6.297   1.854  0.4704 -1.3491 -2.7314
 2574TIP3    H229358   2.247   6.261   1.845  0.5806 -1.8802  0.1847
 2575TIP3   OH229359   3.362   1.734   1.018 -0.8103 -0.3865  0.3931
 2575TIP3    H129360   3.344   1.821   0.982 -0.8160 -0.4550  0.2317
 2575TIP3    H229361   3.374   1.749   1.112  1.4677  0.1483  0.0738
 2576TIP3   OH229362   3.309   2.807   1.931  0.2041 -0.2054  0.3744
 2576TIP3    H129363   3.278   2.736   1.876  0.9886  1.1938 -2.0406
 2576TIP3    H229364   3.257   2.883   1.904  2.4093  1.1126 -0.4148
 2577TIP3   OH229365   5.123   1.026   1.996 -0.2751  0.0220  0.1632
 2577TIP3    H129366   5.186   0.991   2.058 -2.5139 -1.4852  1.7724
 2577TIP3    H229367   5.164   1.015   1.911  1.3810 -1.3836  1.0801
 2578TIP3   OH229368   2.704   6.700   8.532  1.0377  0.5342 -0.5397
 2578TIP3    H129369   2.699   6.739   8.619 -1.9479  0.5709 -0.6449
 2578TIP3    H229370   2.780   6.743   8.492  1.0213  2.3486  1.1722
 2579TIP3   OH229371   1.662   4.819   8.342 -0.4487 -0.1963 -0.1006
 2579TIP3    H129372   1.708   4.736   8.356  2.1001  1.3908  2.0141
 2579TIP3    H229373   1.599   4.824   8.414 -0.2577 -0.0847  0.0590
 2580TIP3   OH229374   4.613   3.592   8.284  0.1812 -0.6013  0.4366
 2580TIP3    H129375   4.636   3.613   8.193 -0.9191 -2.0520 -0.2227
 2580TIP3    H229376   4.539   3.532   8.276 -0.9146  0.4045  2.3354
 2581TIP3   OH229377   4.185   3.110   2.967 -0.2382  0.2260 -0.1933
 2581TIP3    H129378   4.089   3.113   2.968 -0.2465  0.1862 -0.9079
 2581TIP3    H229379   4.206   3.036   2.910  0.2220  0.2626 -0.0731
 2582TIP3   OH229380   0.944   2.104   7.525  0.2336  0.0628 -0.0394
 2582TIP3    H129381   0.879   2.055   7.475  0.8304 -0.8389  0.0537
 2582TIP3    H229382   0.892   2.160   7.583 -0.4638 -0.7597  0.1521
 2583TIP3   OH229383   6.544   0.240   0.921 -0.0012  0.2141  0.1149
 2583TIP3    H129384   6.456   0.202   0.925  0.8248 -1.8794  0.0844
 2583TIP3    H229385   6.557   0.278   1.008 -0.1661 -1.3954  0.8825
 2584TIP3   OH229386   1.348   5.992   1.368 -0.4209  0.2801  0.0484
 2584TIP3    H129387   1.319   6.060   1.306  0.7034 -0.2770 -1.1270
 2584TIP3    H229388   1.399   5.931   1.315  0.6264 -0.2007  1.5391
 2585TIP3   OH229389   3.266   6.196   1.326  0.0991  0.4094  0.1980
 2585TIP3    H129390   3.269   6.224   1.417  2.5455  0.7352  0.0799
 2585TIP3    H229391   3.296   6.105   1.328 -0.6448  0.1510 -0.2035
 2586TIP3   OH229392   6.439   3.685   8.380  0.2564  0.1943  0.0100
 2586TIP3    H129393   6.531   3.690   8.354  0.4648  0.7549  0.8131
 2586TIP3    H229394   6.442   3.646   8.468 -0.3686 -0.9664 -0.4625
 2587TIP3   OH229395   2.522   5.280   7.954 -0.2622  0.0352 -0.2547
 2587TIP3    H129396   2.610   5.318   7.949 -1.0036  1.9928  0.2802
 2587TIP3    H229397   2.503   5.279   8.048 -1.6112  1.7952 -0.4510
 2588TIP3   OH229398   1.930   6.566   2.545  0.4172  0.4677  0.1227
 2588TIP3    H129399   1.958   6.482   2.580  0.3666  0.0089 -0.8892
 2588TIP3    H229400   1.919   6.550   2.451 -2.0071  0.9505  0.2619
 2589TIP3   OH229401   2.840   3.826   0.878 -0.6171 -0.1072  0.0137
 2589TIP3    H129402   2.916   3.884   0.877 -0.6428 -0.0690  0.2198
 2589TIP3    H229403   2.827   3.805   0.970 -1.0164  0.1031  0.0086
 2590TIP3   OH229404   3.945   6.779   8.429 -0.0691  0.0246 -0.6125
 2590TIP3    H129405   3.897   6.840   8.485 -0.4148  0.4875 -1.3947
 2590TIP3    H229406   3.955   6.700   8.483 -0.7058  0.3254 -0.0320
 2591TIP3   OH229407   6.153   1.394   8.347  0.0109  0.2104  0.2933
 2591TIP3    H129408   6.182   1.344   8.271 -0.9591 -0.1296  0.1388
 2591TIP3    H229409   6.100   1.332   8.398 -1.4772  1.1425 -0.0651
 2592TIP3   OH229410   5.832   3.351   8.393  0.2396  0.0614  0.2264
 2592TIP3    H129411   5.828   3.269   8.344 -2.5511  0.9919 -1.3446
 2592TIP3    H229412   5.775   3.336   8.469 -0.9971  0.7844 -0.5369
 2593TIP3   OH229413   5.832   3.104   7.604  0.2395 -0.6974 -0.4876
 2593TIP3    H129414   5.911   3.053   7.589  1.0571  0.5975 -0.7046
 2593TIP3    H229415   5.854   3.162   7.677 -0.4848 -0.2757 -0.5881
 2594TIP3   OH229416   1.887   1.563   1.704 -0.1063  0.8064  0.1339
 2594TIP3    H129417   1.817   1.604   1.756 -0.4644  0.7542 -0.2971
 2594TIP3    H229418   1.914   1.487   1.755  0.1076  1.2065  0.6278
 2595TIP3   OH229419   5.849   3.067   8.285  0.1211  0.1563  0.2852
 2595TIP3    H129420   5.928   3.017   8.307 -0.1782 -0.4884 -0.0781
 2595TIP3    H229421   5.778   3.016   8.322 -0.1742  0.4547  0.1333
 2596TIP3   OH229422   5.255   2.029   7.930  0.3487  0.4251  0.1907
 2596TIP3    H129423   5.205   2.085   7.989  0.0827  0.0997  0.2795
 2596TIP3    H229424   5.279   2.085   7.857 -0.0215  0.6211  0.2179
 2597TIP3   OH229425   2.450   1.118   1.392 -0.2336  0.2305 -0.1796
 2597TIP3    H129426   2.371   1.140   1.442  1.0965  1.6404  1.4430
 2597TIP3    H229427   2.522   1.136   1.453  1.4206  0.5177 -2.1293
 2598TIP3   OH229428   0.190   2.558   7.585 -0.3317 -0.0684 -0.5027
 2598TIP3    H129429   0.256   2.594   7.526  0.5268 -1.2936 -0.3213
 2598TIP3    H229430   0.127   2.516   7.527  1.1610 -2.3639 -0.5679
 2599TIP3   OH229431   4.679   5.990   0.176  1.0431  0.1656 -0.0906
 2599TIP3    H129432   4.675   6.034   0.092  1.3559 -1.0979 -0.8007
 2599TIP3    H229433   4.658   5.899   0.156  1.6799 -0.2714  1.0968
 2600TIP3   OH229434   0.326   0.826   1.566 -0.2602  0.4668 -0.0893
 2600TIP3    H129435   0.407   0.864   1.599 -0.2922  0.9710 -0.5678
 2600TIP3    H229436   0.306   0.754   1.626  0.2629  0.6682  0.3297
 2601TIP3   OH229437   2.756   1.073   2.882 -0.0893 -0.1652  0.4543
 2601TIP3    H129438   2.678   1.080   2.938  0.5281  1.2315  1.1792
 2601TIP3    H229439   2.723   1.036   2.800 -1.4836  0.2310  0.8094
 2602TIP3   OH229440   2.332   0.247   2.494 -0.3888 -0.3807 -0.2399
 2602TIP3    H129441   2.360   0.220   2.581  1.2702  0.9132 -0.3237
 2602TIP3    H229442   2.266   0.182   2.469 -2.1658  0.1790  2.6109
 2603TIP3   OH229443   5.024   2.153   3.081  0.6381 -0.1493 -0.2409
 2603TIP3    H129444   4.933   2.181   3.081  0.9139  0.8114  0.6881
 2603TIP3    H229445   5.021   2.059   3.095 -0.1802  0.0352  0.8904
 2604TIP3   OH229446   1.872   5.524   7.595 -0.6872  0.3441 -0.1693
 2604TIP3    H129447   1.954   5.482   7.619  0.1642  1.4446 -1.0433
 2604TIP3    H229448   1.804   5.470   7.636  0.3182 -1.9311 -1.3556
 2605TIP3   OH229449   5.470   6.655   8.492  0.2748  0.2883  0.1697
 2605TIP3    H129450   5.422   6.677   8.572  1.9104 -0.2072  1.3545
 2605TIP3    H229451   5.498   6.564   8.505 -0.0994 -0.0722 -1.3444
 2606TIP3   OH229452   6.265   4.595   7.670 -0.0160 -0.4617  0.0279
 2606TIP3    H129453   6.180   4.589   7.716 -0.0918 -0.6432 -0.1339
 2606TIP3    H229454   6.274   4.687   7.648 -0.4697 -0.5377 -0.5080
 2607TIP3   OH229455   1.030   6.261   0.971 -0.0327  0.2553  0.6973
 2607TIP3    H129456   0.948   6.230   1.009  0.1308 -0.8398  0.2212
 2607TIP3    H229457   1.019   6.355   0.961 -1.2431  0.1180  0.6016
 2608TIP3   OH229458   3.222   2.733   1.422 -0.4339 -0.0696  0.2764
 2608TIP3    H129459   3.317   2.736   1.432 -0.4711 -1.2862  1.3109
 2608TIP3    H229460   3.203   2.646   1.389 -1.2067  0.1110  0.2067
 2609TIP3   OH229461   6.587   6.764   0.833  0.0201 -0.2831 -0.3746
 2609TIP3    H129462   6.625   6.716   0.907  1.2340  0.0235 -0.7799
 2609TIP3    H229463   6.587   6.855   0.862  2.0521  0.0801 -1.3273
 2610TIP3   OH229464   2.753   6.784   8.786 -0.0164 -0.0045 -0.2263
 2610TIP3    H129465   2.839   6.747   8.767  0.6093  1.3928 -0.2771
 2610TIP3    H229466   2.739   6.765   8.879  0.6284  0.2487 -0.0646
 2611TIP3   OH229467   4.858   0.491   0.961  0.4412  0.0321  0.5748
 2611TIP3    H129468   4.826   0.430   0.895  0.3197 -0.5795  1.1887
 2611TIP3    H229469   4.794   0.562   0.960 -0.7481 -0.9798  1.4903
 2612TIP3   OH229470   4.900   4.515   8.160 -0.2101 -0.3340 -0.2461
 2612TIP3    H129471   4.910   4.442   8.221 -0.5601 -0.5562 -0.4533
 2612TIP3    H229472   4.822   4.561   8.189  0.9742  1.0252  0.9729
 2613TIP3   OH229473   3.915   2.606   8.287 -0.2969  0.8128  0.0211
 2613TIP3    H129474   3.936   2.526   8.334  0.2315  0.2076 -1.1920
 2613TIP3    H229475   3.869   2.661   8.351 -0.1268 -0.2048  1.0411
 2614TIP3   OH229476   5.181   6.391   0.300 -0.0103  0.5235  0.0324
 2614TIP3    H129477   5.219   6.422   0.217  0.0629  2.5536  0.7602
 2614TIP3    H229478   5.248   6.336   0.338 -0.0804 -0.5228 -1.2785
 2615TIP3   OH229479   2.715   5.159   8.837 -0.1988 -0.1729 -0.0400
 2615TIP3    H129480   2.750   5.095   8.898  0.7173  0.9294  0.6454
 2615TIP3    H229481   2.778   5.232   8.840 -0.3666  0.1108 -1.9533
 2616TIP3   OH229482   5.941   5.772   8.574  0.2555 -0.2561 -0.1258
 2616TIP3    H129483   5.884   5.702   8.605  0.1229  0.1114  0.4714
 2616TIP3    H229484   5.956   5.827   8.651 -1.7952  1.8990 -1.1442
 2617TIP3   OH229485   0.419   3.219   7.648  0.5301 -0.1955  0.7592
 2617TIP3    H129486   0.383   3.294   7.695  0.1216  0.7469 -0.9701
 2617TIP3    H229487   0.360   3.206   7.574  0.5245 -2.3414  1.0726
 2618TIP3   OH229488   2.932   4.451   0.227  0.0538  0.0895  0.2285
 2618TIP3    H129489   3.012   4.426   0.274 -0.0139  1.2790  1.0020
 2618TIP3    H229490   2.890   4.368   0.207  1.4432 -0.5641 -0.1260
 2619TIP3   OH229491   5.956   0.530   8.482 -0.0060 -0.0288 -0.2079
 2619TIP3    H129492   5.927   0.441   8.503  0.7551  0.0835  1.4610
 2619TIP3    H229493   5.934   0.581   8.560  2.3291  0.5913  0.1059
 2620TIP3   OH229494   5.533   0.183   2.423 -0.4532  0.2956 -0.4340
 2620TIP3    H129495   5.574   0.228   2.349  0.3508 -0.6932 -0.6041
 2620TIP3    H229496   5.594   0.193   2.495 -0.7346  0.3255 -0.1963
 2621TIP3   OH229497   3.330   1.375   7.510  0.4338  0.0837  0.4694
 2621TIP3    H129498   3.328   1.367   7.415 -0.5465  1.3490  0.3694
 2621TIP3    H229499   3.368   1.292   7.540  0.4277 -0.4686 -0.9933
 2622TIP3   OH229500   5.811   1.292   0.026 -0.0516 -0.2432  0.2818
 2622TIP3    H129501   5.742   1.228   0.046 -0.0352 -0.2687  0.2572
 2622TIP3    H229502   5.792   1.322  -0.062  1.8196 -2.7055 -1.1070
 2623TIP3   OH229503   2.538   1.307   2.140  0.0976 -0.3802 -0.7438
 2623TIP3    H129504   2.491   1.326   2.222 -0.0702  0.5605 -1.0439
 2623TIP3    H229505   2.625   1.344   2.154  0.0508 -0.1686 -1.0015
 2624TIP3   OH229506   3.784   1.183   0.677 -0.6513  0.1146  0.3892
 2624TIP3    H129507   3.695   1.217   0.689 -0.7308  0.6174 -1.4688
 2624TIP3    H229508   3.835   1.257   0.646 -0.0271 -0.6409 -0.4278
 2625TIP3   OH229509   0.507   4.814   6.806  0.4775  0.4691 -0.0722
 2625TIP3    H129510   0.519   4.729   6.765 -0.9328  0.0522  0.3379
 2625TIP3    H229511   0.585   4.864   6.781  0.3561 -0.2387 -2.0352
 2626TIP3   OH229512   4.845   4.714   1.550 -0.3333 -0.2399 -0.4671
 2626TIP3    H129513   4.918   4.742   1.605 -1.5544 -0.0555  1.1181
 2626TIP3    H229514   4.778   4.782   1.562 -2.3042 -2.3566  1.3217
 2627TIP3   OH229515   1.905   5.053   6.761 -0.1686  0.0975 -0.6633
 2627TIP3    H129516   1.842   4.982   6.777 -1.0764  0.8306 -0.9202
 2627TIP3    H229517   1.984   5.007   6.733 -0.2377 -0.8940  0.6903
 2628TIP3   OH229518   6.627   0.345   1.590 -0.0661  0.0285  0.2162
 2628TIP3    H129519   6.695   0.333   1.524  0.0707  0.4020  0.2848
 2628TIP3    H229520   6.655   0.422   1.640 -1.1939  1.0225 -0.6042
 2629TIP3   OH229521   1.599   5.684   7.196 -0.8880 -0.8066 -0.0670
 2629TIP3    H129522   1.600   5.593   7.228 -3.1292 -0.5566  0.9764
 2629TIP3    H229523   1.629   5.678   7.106  2.0447 -2.1096  0.8880
 2630TIP3   OH229524   3.649   6.503   0.328  0.0875  0.2798 -0.1336
 2630TIP3    H129525   3.616   6.471   0.243  0.1942 -1.4945  0.4456
 2630TIP3    H229526   3.594   6.459   0.393 -0.0880  1.7371  0.7494
 2631TIP3   OH229527   5.717   6.311   1.019 -0.3196  0.2285  0.8383
 2631TIP3    H129528   5.721   6.342   1.109  0.6697  1.4355  0.4165
 2631TIP3    H229529   5.808   6.289   0.997 -0.7329 -1.3626  0.5428
 2632TIP3   OH229530   2.378   2.801   0.547 -0.1345  0.1210 -0.1663
 2632TIP3    H129531   2.297   2.750   0.552 -0.9620  1.3743 -0.2468
 2632TIP3    H229532   2.390   2.818   0.454  0.9953 -1.2285 -0.2824
 2633TIP3   OH229533   3.163   1.707   1.362 -0.6273 -0.7356 -0.0632
 2633TIP3    H129534   3.161   1.734   1.453 -0.8499  1.8525 -0.7499
 2633TIP3    H229535   3.249   1.737   1.330 -0.9073 -0.7804 -0.8910
 2634TIP3   OH229536   5.645   1.971   1.454  0.1472 -0.4326  1.0471
 2634TIP3    H129537   5.630   1.938   1.365 -0.5472 -0.0776  1.0277
 2634TIP3    H229538   5.606   1.904   1.511 -1.8410  0.6219  0.9882
 2635TIP3   OH229539   3.320   0.333   0.207 -0.3150 -0.1186 -0.6270
 2635TIP3    H129540   3.236   0.344   0.162 -2.1790  1.0157  2.7814
 2635TIP3    H229541   3.309   0.253   0.259 -0.0655  1.0216  1.2667
 2636TIP3   OH229542   1.629   3.568   8.626 -0.1139 -0.0216  0.1208
 2636TIP3    H129543   1.634   3.560   8.721 -2.3308 -2.0390  0.1357
 2636TIP3    H229544   1.547   3.613   8.609  0.5609  0.9016 -0.8622
 2637TIP3   OH229545   1.689   1.250   1.990 -0.2342  0.3697 -0.0923
 2637TIP3    H129546   1.686   1.175   2.048 -1.1921  0.6142  0.1969
 2637TIP3    H229547   1.741   1.316   2.037 -0.6502  0.4158  0.3125
 2638TIP3   OH229548   2.791   1.171   7.714  0.1630 -0.6815  0.5841
 2638TIP3    H129549   2.794   1.230   7.789 -0.2755 -1.2211  1.0407
 2638TIP3    H229550   2.754   1.223   7.643  5.7034  1.7427 -1.0851
 2639TIP3   OH229551   1.402   3.280   6.698 -0.2084  0.1734  0.7558
 2639TIP3    H129552   1.399   3.255   6.606 -2.6749 -1.2794  1.1596
 2639TIP3    H229553   1.390   3.375   6.697  0.2090  0.2277 -0.4261
 2640TIP3   OH229554   1.019   0.779   8.719  0.1842 -0.2681 -0.0317
 2640TIP3    H129555   1.008   0.868   8.686  3.2074  0.1796 -0.1206
 2640TIP3    H229556   1.084   0.787   8.789  2.3811 -2.6080 -1.6037
 2641TIP3   OH229557   4.060   5.203   0.256 -0.1785  0.0037  0.6977
 2641TIP3    H129558   4.149   5.168   0.252 -0.0280  0.3106  1.1818
 2641TIP3    H229559   4.049   5.229   0.348 -0.2689  1.2250  0.3633
 2642TIP3   OH229560   5.241   1.551   0.245 -0.1833  0.0181  0.4075
 2642TIP3    H129561   5.156   1.590   0.265  0.8821  2.1969  1.0098
 2642TIP3    H229562   5.304   1.608   0.289  1.6749 -0.8691 -0.9813
 2643TIP3   OH229563   1.239   6.207   0.796 -0.3515  0.2043 -0.0424
 2643TIP3    H129564   1.325   6.185   0.831 -0.1394 -0.1311 -0.7581
 2643TIP3    H229565   1.177   6.173   0.861  0.0464  0.3659  0.4287
 2644TIP3   OH229566   0.408   4.856   1.366  0.3320 -0.0870 -0.0930
 2644TIP3    H129567   0.490   4.877   1.322  0.8671 -1.6307  0.0982
 2644TIP3    H229568   0.374   4.780   1.319 -0.4578 -0.1010  0.4792
 2645TIP3   OH229569   3.417   4.375   7.651  0.3257  0.2693  0.1031
 2645TIP3    H129570   3.491   4.323   7.681  0.1923  0.1246  0.1858
 2645TIP3    H229571   3.452   4.431   7.582  0.3407 -0.3594 -0.4098
 2646TIP3   OH229572   5.548   0.882   0.841  0.7369 -0.4499 -0.0680
 2646TIP3    H129573   5.577   0.870   0.751  0.6930  0.1410 -0.1624
 2646TIP3    H229574   5.626   0.867   0.894  1.1450  0.7504 -0.2981
 2647TIP3   OH229575   1.783   4.300   1.972 -0.0239  0.3379 -0.0317
 2647TIP3    H129576   1.780   4.312   2.067  2.4097  0.1556  0.1337
 2647TIP3    H229577   1.874   4.316   1.949 -0.1749 -1.3549 -2.0990
 2648TIP3   OH229578   0.156   3.884   7.765  0.0593  0.3250  0.8610
 2648TIP3    H129579   0.146   3.865   7.671 -1.4058  1.6399  0.6988
 2648TIP3    H229580   0.120   3.973   7.774  0.0548  0.1581  2.6906
 2649TIP3   OH229581   0.783   4.315   1.088 -0.0028  0.5185  0.4646
 2649TIP3    H129582   0.721   4.244   1.103  1.2688 -0.5792  0.6746
 2649TIP3    H229583   0.851   4.276   1.034  1.0038  1.4307  1.0453
 2650TIP3   OH229584   1.817   5.402   2.231  0.2813  0.1330  0.2202
 2650TIP3    H129585   1.847   5.325   2.280  0.4401 -0.2269 -0.4322
 2650TIP3    H229586   1.877   5.472   2.256  0.8224 -0.2371 -0.0267
 2651TIP3   OH229587   3.482   5.439   8.258  0.4786  0.0987 -0.2648
 2651TIP3    H129588   3.568   5.446   8.300  0.5753 -1.6645 -0.0936
 2651TIP3    H229589   3.499   5.393   8.175 -0.6023 -3.4492  1.2591
 2652TIP3   OH229590   6.232   3.478   1.472 -0.2455  0.0708  0.0778
 2652TIP3    H129591   6.187   3.409   1.521  2.0033 -0.7955  1.0488
 2652TIP3    H229592   6.304   3.433   1.427  0.3134  1.5465 -0.5690
 2653TIP3   OH229593   1.324   3.090   8.618  0.3979  0.2699 -0.2738
 2653TIP3    H129594   1.371   3.007   8.626 -0.4635 -0.2678 -0.6410
 2653TIP3    H229595   1.296   3.110   8.708  1.8706  0.9461  0.0681
 2654TIP3   OH229596   2.899   0.060   7.472  0.3600  0.3992 -0.6126
 2654TIP3    H129597   2.900   0.156   7.471 -0.0923  0.4005 -1.7134
 2654TIP3    H229598   2.906   0.035   7.380 -1.5404 -0.5899 -0.5459
 2655TIP3   OH229599   5.063   6.506   7.550  0.0618  0.7927 -0.2260
 2655TIP3    H129600   5.112   6.444   7.496  0.8824 -0.8115  2.1572
 2655TIP3    H229601   5.118   6.584   7.555  0.1618  0.7954 -1.3225
 2656TIP3   OH229602   4.231   2.510   0.013 -0.0199  0.0973  0.5325
 2656TIP3    H129603   4.208   2.477  -0.074 -0.0781 -0.7438  0.8564
 2656TIP3    H229604   4.303   2.454   0.042  0.7021  1.0374  0.6120
 2657TIP3   OH229605   6.319   2.653   1.893 -0.0288  0.1151  0.0237
 2657TIP3    H129606   6.318   2.594   1.818  1.3060  0.4218 -0.2509
 2657TIP3    H229607   6.272   2.605   1.961  0.8430 -1.1876 -0.2593
 2658TIP3   OH229608   6.773   4.535   8.833  0.7693 -0.2040  0.5449
 2658TIP3    H129609   6.681   4.508   8.833  0.6262  0.2296 -0.3753
 2658TIP3    H229610   6.780   4.596   8.760  1.4461  0.9949  1.5633
 2659TIP3   OH229611   0.917   1.274   0.193  0.0974 -0.1996  0.0163
 2659TIP3    H129612   0.904   1.194   0.143 -1.4903  1.4171 -2.4063
 2659TIP3    H229613   0.974   1.328   0.137  0.1308  0.8219  1.0020
 2660TIP3   OH229614   0.912   2.335   1.601  0.5384 -0.3072 -0.5201
 2660TIP3    H129615   0.935   2.398   1.532  1.2977  0.8425  0.7224
 2660TIP3    H229616   0.966   2.361   1.676 -0.1852 -1.5737  0.4805
 2661TIP3   OH229617   6.140   4.445   7.945 -0.0096 -0.1188  0.4087
 2661TIP3    H129618   6.173   4.505   8.012 -1.1861 -0.5259  1.3737
 2661TIP3    H229619   6.207   4.377   7.939  0.3393  0.1851  0.8047
 2662TIP3   OH229620   3.707   0.554   8.710 -0.0818 -0.7239  0.4710
 2662TIP3    H129621   3.758   0.525   8.634 -0.1657  0.6658 -0.1460
 2662TIP3    H229622   3.629   0.596   8.673  0.5704  1.3024  1.2198
 2663TIP3   OH229623   5.318   0.404   2.228 -0.5748  0.1075 -0.2433
 2663TIP3    H129624   5.353   0.333   2.283 -0.1381  0.8344  0.4462
 2663TIP3    H229625   5.366   0.481   2.257 -1.5257  0.8088 -0.5077
 2664TIP3   OH229626   5.603   1.801   0.031  0.5324  0.3095 -0.4383
 2664TIP3    H129627   5.680   1.773  -0.019 -1.7592 -3.4280 -2.3151
 2664TIP3    H229628   5.604   1.745   0.109 -0.2560  0.2219 -0.4846
 2665TIP3   OH229629   4.576   1.120   0.421  0.2371 -0.6605  0.4051
 2665TIP3    H129630   4.635   1.054   0.384 -0.3941 -1.4420  0.7734
 2665TIP3    H229631   4.496   1.072   0.441 -0.5139  0.3715 -0.0381
 2666TIP3   OH229632   4.540   0.205   0.636 -0.2841 -0.2757 -0.3409
 2666TIP3    H129633   4.469   0.258   0.602  0.5856  1.3096  0.2107
 2666TIP3    H229634   4.554   0.138   0.569 -1.8221 -0.2189 -0.7628
 2667TIP3   OH229635   0.338   6.248   1.499  0.5854  0.3385 -0.1304
 2667TIP3    H129636   0.432   6.231   1.504  1.3149  3.4117 -0.9109
 2667TIP3    H229637   0.325   6.281   1.410 -0.6782  2.5632  0.8053
 2668TIP3   OH229638   3.337   1.950   0.046  0.6321  0.1113 -0.1734
 2668TIP3    H129639   3.376   1.953   0.134  1.3016  0.5074 -0.4752
 2668TIP3    H229640   3.405   1.984  -0.011  1.5447 -3.2800 -1.3444
 2669TIP3   OH229641   1.194   1.130   7.103 -0.0481  0.7355 -0.0550
 2669TIP3    H129642   1.113   1.179   7.116  1.1239  2.6721  0.2291
 2669TIP3    H229643   1.245   1.145   7.182  0.7283 -0.2182 -0.3485
 2670TIP3   OH229644   2.374   4.429   8.816  0.0349 -0.3165 -0.5766
 2670TIP3    H129645   2.461   4.419   8.779  0.5627 -1.7461  0.9295
 2670TIP3    H229646   2.336   4.342   8.814 -0.4381 -0.1754  0.8995
 2671TIP3   OH229647   1.985   3.379   8.624 -0.2869  0.1777 -0.1421
 2671TIP3    H129648   1.892   3.360   8.611 -0.0118 -3.1379  1.5470
 2671TIP3    H229649   2.029   3.328   8.556  0.3536  1.4634 -0.7135
 2672TIP3   OH229650   0.783   5.617   8.404 -0.5703 -0.0750  0.1686
 2672TIP3    H129651   0.700   5.656   8.431 -0.0423 -0.5423  2.6417
 2672TIP3    H229652   0.843   5.690   8.396 -0.7604  0.0801  0.1536
 2673TIP3   OH229653   4.480   3.634   1.886 -0.1265 -0.2346  0.4684
 2673TIP3    H129654   4.509   3.648   1.976 -1.9008  1.9167  0.8060
 2673TIP3    H229655   4.557   3.653   1.833  0.5389 -0.0252  1.4780
 2674TIP3   OH229656   6.606   5.992   1.460 -0.1787  0.6332  0.0575
 2674TIP3    H129657   6.525   5.971   1.507  0.7879 -1.5194  0.9066
 2674TIP3    H229658   6.675   5.956   1.515  1.3852  2.2871 -0.7218
 2675TIP3   OH229659   1.382   2.309   8.024 -0.2969  0.3426  0.2611
 2675TIP3    H129660   1.475   2.287   8.024 -0.5059 -0.5983 -0.9042
 2675TIP3    H229661   1.350   2.276   8.108  0.6955  2.0086  1.3462
 2676TIP3   OH229662   0.768   5.146   1.988  0.0748 -0.3455 -0.6738
 2676TIP3    H129663   0.710   5.073   1.970 -1.6936  1.0858 -1.0494
 2676TIP3    H229664   0.856   5.108   1.988 -0.7952 -2.4514 -0.7465
 2677TIP3   OH229665   3.700   3.748   0.290 -0.3534  0.2083 -0.4976
 2677TIP3    H129666   3.785   3.790   0.298 -0.1769 -0.3440  0.7777
 2677TIP3    H229667   3.640   3.818   0.265  0.2731  0.8382 -0.2515
 2678TIP3   OH229668   4.451   3.995   7.146  0.2340  0.0730  0.1569
 2678TIP3    H129669   4.445   3.928   7.078 -1.1127 -0.8485  1.1021
 2678TIP3    H229670   4.433   4.077   7.101  0.8643 -0.3282 -0.8494
 2679TIP3   OH229671   0.146   1.044   7.686  0.3123 -0.2553  0.4347
 2679TIP3    H129672   0.195   1.076   7.610 -1.4410 -0.7070 -0.9434
 2679TIP3    H229673   0.181   0.956   7.702 -0.0152 -0.5832 -0.5548
 2680TIP3   OH229674   2.673   4.381   1.783 -0.4212  0.1343  0.2259
 2680TIP3    H129675   2.663   4.424   1.698  1.1602  3.3997  1.5477
 2680TIP3    H229676   2.742   4.316   1.768 -0.2371  0.5827 -0.9803
 2681TIP3   OH229677   4.107   0.238   2.947  0.8168  0.0433  0.8672
 2681TIP3    H129678   4.142   0.153   2.975  2.0593  0.2898  0.1679
 2681TIP3    H229679   4.182   0.297   2.952  0.2961  0.7965  0.0717
 2682TIP3   OH229680   5.638   6.554   2.002 -0.7447  0.3246  0.3065
 2682TIP3    H129681   5.544   6.551   1.985 -0.4651  0.6897 -1.5772
 2682TIP3    H229682   5.675   6.489   1.942  0.3978  1.8981 -0.7867
 2683TIP3   OH229683   6.330   4.332   8.257  0.2967 -0.1053  0.4438
 2683TIP3    H129684   6.283   4.410   8.227 -1.0977 -0.5407  1.3948
 2683TIP3    H229685   6.276   4.259   8.228  2.1400 -0.8507 -1.4203
 2684TIP3   OH229686   1.642   5.618   0.991 -0.0279  0.6992  0.1834
 2684TIP3    H129687   1.586   5.643   0.918  0.5933  2.3747  0.2294
 2684TIP3    H229688   1.727   5.654   0.969  0.7938 -0.8829  0.6224
 2685TIP3   OH229689   1.320   1.915   7.302  0.4375  0.3067 -0.5936
 2685TIP3    H129690   1.406   1.957   7.313  0.3396  0.5503 -0.7562
 2685TIP3    H229691   1.279   1.963   7.231 -0.0070  0.4658 -0.2292
 2686TIP3   OH229692   2.345   0.106   1.500  0.0041 -0.1597 -0.3347
 2686TIP3    H129693   2.418   0.163   1.524  0.8645 -1.4443  0.1799
 2686TIP3    H229694   2.269   0.146   1.542  0.5506  0.7291 -0.1650
 2687TIP3   OH229695   4.946   3.905   1.272  0.0675 -0.1403  0.3797
 2687TIP3    H129696   5.025   3.915   1.325  0.5160 -1.1489 -0.0735
 2687TIP3    H229697   4.898   3.987   1.285  0.7909  0.1605  1.3017
 2688TIP3   OH229698   5.759   2.457   8.424  0.3147  0.2700 -0.0946
 2688TIP3    H129699   5.701   2.484   8.353  0.9826 -0.6464 -1.0102
 2688TIP3    H229700   5.707   2.395   8.476  0.4676 -0.5769 -0.9318
 2689TIP3   OH229701   1.037   6.317   8.748 -0.2883  0.2825  0.2457
 2689TIP3    H129702   1.033   6.411   8.730 -1.0076  0.0726 -0.8088
 2689TIP3    H229703   0.962   6.281   8.700  0.6413 -0.9654 -0.3105
 2690TIP3   OH229704   3.010   3.419   1.178 -0.3755 -0.4047 -0.4281
 2690TIP3    H129705   2.937   3.423   1.240 -0.6295  1.0269 -0.7854
 2690TIP3    H229706   3.061   3.343   1.206 -1.5763 -0.9761  0.2964
 2691TIP3   OH229707   1.898   5.111   1.807  0.2433 -0.1178  0.2425
 2691TIP3    H129708   1.897   5.207   1.799 -0.0240 -0.1471 -0.1439
 2691TIP3    H229709   1.990   5.087   1.800  0.2115  0.0210 -1.0499
 2692TIP3   OH229710   1.518   4.774   1.459 -0.2335  0.4858 -0.2281
 2692TIP3    H129711   1.581   4.706   1.482 -1.1180 -0.7402 -1.2446
 2692TIP3    H229712   1.523   4.780   1.363 -1.4683  0.5213 -0.3106
 2693TIP3   OH229713   4.861   5.317   8.161  0.3100  0.1973  0.7431
 2693TIP3    H129714   4.890   5.229   8.138  0.0369 -0.1460  1.6883
 2693TIP3    H229715   4.772   5.323   8.127 -0.0753 -0.2940  1.6310
 2694TIP3   OH229716   0.520   0.478   8.090 -0.0800  0.0278 -0.4459
 2694TIP3    H129717   0.428   0.464   8.066 -0.6355  1.3648  0.7429
 2694TIP3    H229718   0.516   0.536   8.166  1.7327 -0.6136  0.1880
 2695TIP3   OH229719   6.284   0.920   2.483  0.0372  0.2594  0.2972
 2695TIP3    H129720   6.346   0.854   2.515 -1.7081 -1.8235 -0.3955
 2695TIP3    H229721   6.338   0.981   2.432  1.4086 -2.1536 -1.3412
 2696TIP3   OH229722   5.869   6.475   0.012 -0.4162 -0.4676 -0.1183
 2696TIP3    H129723   5.938   6.527  -0.030  1.7252 -1.1206  2.3345
 2696TIP3    H229724   5.822   6.537   0.066 -2.4456  0.1483 -2.4200
 2697TIP3   OH229725   6.052   2.860   7.857 -0.7740  0.2805 -0.2517
 2697TIP3    H129726   5.968   2.837   7.897 -0.0701 -2.5652 -0.2230
 2697TIP3    H229727   6.107   2.783   7.869  1.2987  1.3974 -1.8310
 2698TIP3   OH229728   0.519   4.847   8.426 -0.6844 -0.4371 -0.0245
 2698TIP3    H129729   0.545   4.774   8.370 -1.4139 -0.8422  0.1560
 2698TIP3    H229730   0.565   4.831   8.509  0.3309  0.1188 -0.4551
 2699TIP3   OH229731   1.567   1.634   0.798 -0.2020  0.2064 -0.0462
 2699TIP3    H129732   1.543   1.561   0.855  1.2361  0.1351  0.5127
 2699TIP3    H229733   1.612   1.696   0.856 -0.8695  1.2671 -0.6352
 2700TIP3   OH229734   2.025   4.847   1.070 -0.2864  0.3974 -0.1560
 2700TIP3    H129735   2.045   4.754   1.077 -0.1523  0.4209 -0.2126
 2700TIP3    H229736   2.108   4.891   1.087 -0.3347  0.5044 -0.1941
 2701TIP3   OH229737   1.891   3.846   7.594 -0.0541  0.1475  0.0083
 2701TIP3    H129738   1.870   3.848   7.501 -0.6048  1.4612  0.1443
 2701TIP3    H229739   1.880   3.936   7.624 -2.4166 -0.6584  1.8918
 2702TIP3   OH229740   6.714   4.370   2.117  0.0718 -0.3240  0.9006
 2702TIP3    H129741   6.728   4.452   2.070 -1.6187 -0.2794  0.4121
 2702TIP3    H229742   6.699   4.305   2.048 -1.0295 -0.5389  1.3154
 2703TIP3   OH229743   5.984   0.281   0.970 -0.4787 -0.1490  0.7549
 2703TIP3    H129744   5.910   0.314   0.919  0.7247  0.4440 -0.6853
 2703TIP3    H229745   5.944   0.231   1.041 -2.2575  0.4978  0.2583
 2704TIP3   OH229746   1.352   6.218   7.957 -0.1492 -0.0615  0.4750
 2704TIP3    H129747   1.349   6.122   7.962  0.3693 -0.0551  1.0980
 2704TIP3    H229748   1.364   6.237   7.864 -1.0569 -0.5681  0.2390
 2705TIP3   OH229749   3.324   0.564   0.806 -0.3117 -0.4756 -0.4749
 2705TIP3    H129750   3.276   0.492   0.846 -0.9228 -0.0593 -0.4349
 2705TIP3    H229751   3.294   0.642   0.854  1.0663 -0.2892  0.1616
 2706TIP3   OH229752   3.304   0.136   1.842  0.3688 -0.0925  0.0664
 2706TIP3    H129753   3.233   0.144   1.779  0.5909  1.0487 -0.0704
 2706TIP3    H229754   3.353   0.059   1.815 -0.5074 -0.5811 -0.1478
 2707TIP3   OH229755   5.072   3.008   8.342 -0.3373 -0.2421  0.1281
 2707TIP3    H129756   5.151   2.960   8.365 -1.0401 -0.0345  3.4261
 2707TIP3    H229757   5.097   3.100   8.345 -0.5683 -0.1936  0.6956
 2708TIP3   OH229758   1.341   1.784   1.938  0.0105  1.2520 -0.0311
 2708TIP3    H129759   1.402   1.765   2.010  0.5516  1.2241 -0.4866
 2708TIP3    H229760   1.256   1.796   1.981  0.5677  2.6489  0.7811
 2709TIP3   OH229761   2.180   0.960   8.080  0.1059 -0.2933 -0.4070
 2709TIP3    H129762   2.166   0.968   7.985 -1.3547 -1.7724 -0.3615
 2709TIP3    H229763   2.233   1.036   8.103  0.6465  0.0016 -2.4418
 2710TIP3   OH229764   5.939   5.806   7.523  0.1988 -0.5202  0.0466
 2710TIP3    H129765   5.903   5.824   7.436 -0.2170  3.4275  0.8845
 2710TIP3    H229766   6.034   5.802   7.510  0.1193 -0.3073 -0.6205
 2711TIP3   OH229767   4.587   5.308   7.636  0.0095  0.1010  0.2758
 2711TIP3    H129768   4.563   5.268   7.552  0.5599 -0.8027  0.5375
 2711TIP3    H229769   4.504   5.319   7.682 -0.3036  0.6409 -0.3902
 2712TIP3   OH229770   5.206   1.906   2.356  0.1293 -0.4840  0.6858
 2712TIP3    H129771   5.138   1.890   2.422 -0.7454 -0.1230 -0.0984
 2712TIP3    H229772   5.231   1.997   2.370  1.3893 -0.9789  1.8004
 2713TIP3   OH229773   0.516   4.671   2.599  0.5673 -0.2342  0.5345
 2713TIP3    H129774   0.439   4.719   2.631  0.4239  0.3162 -0.5832
 2713TIP3    H229775   0.502   4.581   2.630  0.7945  0.3933  2.5732
 2714TIP3   OH229776   0.254   6.105   0.830 -0.1117  0.4792  0.3860
 2714TIP3    H129777   0.297   6.189   0.811  1.0714  0.0198  0.9025
 2714TIP3    H229778   0.304   6.069   0.903 -1.4336 -0.0798  1.0496
 2715TIP3   OH229779   2.574   5.238   1.909 -0.4151 -0.4448 -0.1162
 2715TIP3    H129780   2.488   5.250   1.950 -0.5791  0.3316 -0.6588
 2715TIP3    H229781   2.561   5.267   1.819  0.9822  1.9994  0.3707
 2716TIP3   OH229782   0.890   4.080   7.505 -0.0011 -0.1693  0.0081
 2716TIP3    H129783   0.871   4.054   7.595  1.3375  0.4679  0.5153
 2716TIP3    H229784   0.890   3.999   7.455 -1.1026 -0.4909  0.4967
 2717TIP3   OH229785   6.029   4.891   6.932  0.4004 -0.0800 -0.1515
 2717TIP3    H129786   6.083   4.957   6.976  2.2150 -1.2565 -0.5235
 2717TIP3    H229787   6.092   4.830   6.894 -1.1578 -0.5021 -2.2348
 2718TIP3   OH229788   2.972   6.128   1.647 -0.1992  0.2612  0.1311
 2718TIP3    H129789   2.899   6.110   1.589 -1.2596  1.0697  1.1642
 2718TIP3    H229790   2.978   6.051   1.704 -1.0355  0.6801  0.8112
 2719TIP3   OH229791   2.695   2.769   0.490  0.1651  0.3442 -0.6463
 2719TIP3    H129792   2.785   2.736   0.490  0.8481  2.1095  0.1696
 2719TIP3    H229793   2.650   2.713   0.553  1.3889  1.1215  1.0040
 2720TIP3   OH229794   2.890   1.347   1.329  0.1359 -0.0045  0.1811
 2720TIP3    H129795   2.860   1.317   1.415  0.1871 -0.4753  0.0407
 2720TIP3    H229796   2.955   1.282   1.303 -0.9368 -0.7103 -0.8630
 2721TIP3   OH229797   1.210   5.594   2.015  0.3966 -0.0831  0.4232
 2721TIP3    H129798   1.149   5.628   2.080  0.6981 -1.1628  1.3084
 2721TIP3    H229799   1.295   5.594   2.059  0.7224 -0.2440 -0.1886
 2722TIP3   OH229800   5.030   5.245   6.664 -0.4102 -0.5624 -0.1074
 2722TIP3    H129801   5.094   5.177   6.687  0.6521  0.6774  0.7766
 2722TIP3    H229802   4.982   5.260   6.745  0.7722  1.1514  0.3428
 2723TIP3   OH229803   3.896   3.338   0.949  0.4507  0.0538 -0.1513
 2723TIP3    H129804   3.870   3.260   0.999 -1.5290  0.3403 -0.6579
 2723TIP3    H229805   3.985   3.358   0.980  1.6502 -3.2174 -1.0191
 2724TIP3   OH229806   3.977   5.101   2.090  0.8225 -0.0299 -0.1478
 2724TIP3    H129807   4.036   5.065   2.156  0.3219  1.5246  1.2211
 2724TIP3    H229808   4.015   5.186   2.067 -0.2826  0.5079 -0.0577
 2725TIP3   OH229809   2.061   4.340   2.947  0.0055 -1.3262  0.3851
 2725TIP3    H129810   2.030   4.252   2.923 -1.3346 -0.5086 -1.1382
 2725TIP3    H229811   1.984   4.382   2.986  0.3112 -0.5047  0.1281
 2726TIP3   OH229812   4.121   1.056   1.679 -0.3243  0.1527 -0.4062
 2726TIP3    H129813   4.115   0.982   1.739 -1.2934 -0.2064 -0.9290
 2726TIP3    H229814   4.173   1.121   1.727  1.3664 -1.2008 -0.3147
 2727TIP3   OH229815   5.083   5.176   8.345  0.2549 -0.3334  0.2966
 2727TIP3    H129816   5.097   5.108   8.411  2.0979 -0.1827  0.0976
 2727TIP3    H229817   5.013   5.141   8.290  0.3889 -1.5557  0.8723
 2728TIP3   OH229818   4.503   4.183   7.917  0.0919  0.2407 -0.4526
 2728TIP3    H129819   4.558   4.105   7.928  1.2744  0.9792 -0.9733
 2728TIP3    H229820   4.536   4.245   7.983 -0.5800  0.4473 -0.3049
 2729TIP3   OH229821   6.040   5.358   1.839 -0.8813  0.0577 -0.1741
 2729TIP3    H129822   6.101   5.382   1.909 -0.9045 -0.6787  0.1112
 2729TIP3    H229823   5.958   5.400   1.863 -1.0813 -0.7571  0.6304
 2730TIP3   OH229824   0.273   0.220   0.656  0.6094  0.3097 -0.0936
 2730TIP3    H129825   0.344   0.277   0.686 -0.0378  0.6318  0.8785
 2730TIP3    H229826   0.271   0.233   0.561  0.4044  2.0231  0.1126
 2731TIP3   OH229827   4.998   0.444   0.259 -0.2839 -0.1863 -0.5722
 2731TIP3    H129828   4.924   0.385   0.246 -0.9243  0.5781 -0.4978
 2731TIP3    H229829   4.981   0.517   0.199  0.3201  0.0724 -0.4319
 2732TIP3   OH229830   0.887   4.699   8.506 -0.4665  0.0218  0.2388
 2732TIP3    H129831   0.923   4.645   8.577  0.1637  0.8934  0.6106
 2732TIP3    H229832   0.819   4.751   8.549 -1.1489 -0.5422 -0.1419
 2733TIP3   OH229833   0.157   1.721   1.014  0.1663 -0.3410  0.2913
 2733TIP3    H129834   0.151   1.796   0.954  0.1086 -1.0004 -0.5553
 2733TIP3    H229835   0.076   1.672   0.999  0.3371 -0.7297  0.6217
 2734TIP3   OH229836   1.921   5.580   1.968 -0.7298  0.2888  0.3899
 2734TIP3    H129837   1.877   5.665   1.974  1.1041  1.2156  2.0888
 2734TIP3    H229838   1.939   5.556   2.059  0.6811 -0.8481 -0.1479
 2735TIP3   OH229839   1.408   2.086   1.532 -0.2375 -0.0966 -0.1644
 2735TIP3    H129840   1.359   2.008   1.504  0.7387 -0.0399 -2.1885
 2735TIP3    H229841   1.422   2.135   1.452  0.2099  1.6026  0.9096
 2736TIP3   OH229842   1.863   5.117   8.675  0.4602 -0.5685 -0.1767
 2736TIP3    H129843   1.894   5.045   8.620 -0.1535 -1.1417  0.2111
 2736TIP3    H229844   1.915   5.110   8.755  0.2566 -0.7080 -0.0570
 2737TIP3   OH229845   5.958   5.652   7.792 -0.6831  0.3757  0.4261
 2737TIP3    H129846   5.948   5.702   7.711 -3.9623  0.4975  0.7895
 2737TIP3    H229847   5.888   5.683   7.848  0.0505 -1.4038  2.4441
 2738TIP3   OH229848   3.529   0.373   0.397 -0.5779 -0.0985  0.4082
 2738TIP3    H129849   3.457   0.317   0.369 -1.1938  0.9378 -0.1459
 2738TIP3    H229850   3.493   0.424   0.470 -0.1889 -0.0343  0.5590
 2739TIP3   OH229851   0.229   6.032   8.843 -0.0029 -0.3994 -0.3752
 2739TIP3    H129852   0.202   5.941   8.828 -0.9016 -0.6389  2.1760
 2739TIP3    H229853   0.147   6.081   8.842  0.4179  0.3238 -1.1067
 2740TIP3   OH229854   3.460   3.775   2.800  0.1612  0.6367 -0.2468
 2740TIP3    H129855   3.384   3.728   2.766 -0.5539  1.3419  0.3412
 2740TIP3    H229856   3.470   3.850   2.741 -0.1366  1.0203  0.1897
 2741TIP3   OH229857   3.392   4.389   1.011 -0.3757 -0.7506  0.0235
 2741TIP3    H129858   3.464   4.355   0.958 -0.7342 -1.4117 -0.0582
 2741TIP3    H229859   3.346   4.449   0.953 -0.7913 -1.5047 -0.4460
 2742TIP3   OH229860   3.487   3.229   0.203  0.1176  0.0994  0.2018
 2742TIP3    H129861   3.421   3.236   0.134 -0.3713 -0.3029  0.6209
 2742TIP3    H229862   3.494   3.135   0.221  0.3110  0.1930  0.6368
 2743TIP3   OH229863   5.901   5.889   1.022 -0.0714 -0.3388  0.7419
 2743TIP3    H129864   5.857   5.814   0.983 -1.5871 -0.2427  2.1332
 2743TIP3    H229865   5.866   5.893   1.111 -1.2064  2.8504  0.3019
 2744TIP3   OH229866   4.437   3.569   7.481 -0.2426  0.2857 -0.7157
 2744TIP3    H129867   4.436   3.517   7.401 -1.8757  0.3077 -0.7375
 2744TIP3    H229868   4.453   3.658   7.451 -0.2438  0.2094 -0.9451
 2745TIP3   OH229869   4.361   4.692   7.458 -0.3113  0.4144  0.3487
 2745TIP3    H129870   4.419   4.648   7.519  0.4143  0.5149 -0.2520
 2745TIP3    H229871   4.377   4.648   7.374 -2.1469 -0.5206  0.4535
 2746TIP3   OH229872   3.060   4.318   1.580  0.5240 -0.3937  0.3279
 2746TIP3    H129873   2.996   4.276   1.637  0.0076  0.1421  0.1503
 2746TIP3    H229874   3.017   4.322   1.494 -0.1106  1.9124  0.6796
 2747TIP3   OH229875   3.587   5.666   8.627  0.4806  0.0397 -0.4693
 2747TIP3    H129876   3.550   5.673   8.539 -0.9952 -0.2718  0.0908
 2747TIP3    H229877   3.681   5.659   8.613  0.5053  2.2642 -1.9001
 2748TIP3   OH229878   2.916   1.261   1.994  0.5154  0.5185 -0.5076
 2748TIP3    H129879   2.846   1.286   1.933 -0.6159 -0.0811  0.5096
 2748TIP3    H229880   2.930   1.168   1.977  0.8099  0.5474 -0.4335
 2749TIP3   OH229881   6.510   4.551   8.836  0.4241  0.0257  0.0152
 2749TIP3    H129882   6.458   4.475   8.807  1.3900 -0.8202  0.4255
 2749TIP3    H229883   6.464   4.583   8.913 -1.6892  1.7645 -1.7982
 2750TIP3   OH229884   0.651   3.314   2.472 -0.0984 -0.5041 -0.1155
 2750TIP3    H129885   0.629   3.262   2.394  0.2969 -0.6258 -0.1519
 2750TIP3    H229886   0.605   3.397   2.459  0.5351 -0.2470 -0.8403
 2751TIP3   OH229887   4.997   1.617   1.320 -0.6265 -0.5695 -0.0215
 2751TIP3    H129888   5.015   1.594   1.411 -0.2019  2.9341  0.9341
 2751TIP3    H229889   4.903   1.604   1.310 -0.7947 -0.3564  1.1607
 2752TIP3   OH229890   0.909   4.519   7.711  0.0074 -0.2602  0.2545
 2752TIP3    H129891   0.989   4.543   7.758  0.1101  0.9454 -0.4818
 2752TIP3    H229892   0.929   4.538   7.619 -1.1114  0.0206  0.0517
 2753TIP3   OH229893   1.265   6.296   8.365 -0.1369  0.2985 -0.7396
 2753TIP3    H129894   1.279   6.283   8.458 -1.2129  1.7764 -0.3272
 2753TIP3    H229895   1.241   6.389   8.357 -0.1494  0.1842 -2.4689
 2754TIP3   OH229896   4.684   5.119   1.260 -0.0496  0.0636  0.3494
 2754TIP3    H129897   4.614   5.067   1.221  0.5763 -1.5279  1.2682
 2754TIP3    H229898   4.764   5.089   1.218  0.1464  1.8698 -0.6880
 2755TIP3   OH229899   5.445   2.345   8.091 -0.1608 -0.0869  0.4231
 2755TIP3    H129900   5.350   2.346   8.084 -0.1886 -0.0462  0.7937
 2755TIP3    H229901   5.465   2.261   8.134 -0.1935  0.9012  2.4933
 2756TIP3   OH229902   5.980   6.739   2.052 -0.1872 -0.0825 -0.2710
 2756TIP3    H129903   5.947   6.676   1.988  0.8758  0.9248 -1.9065
 2756TIP3    H229904   6.036   6.798   2.001  1.5385  0.1867  1.7682
 2757TIP3   OH229905   5.120   4.366   7.334 -0.1150  0.1639  0.2529
 2757TIP3    H129906   5.136   4.391   7.243  3.4153  1.4889  1.0438
 2757TIP3    H229907   5.158   4.278   7.342 -1.0777 -0.2550  0.3040
 2758TIP3   OH229908   1.584   4.204   1.597  0.6028  0.0977 -0.1528
 2758TIP3    H129909   1.641   4.265   1.643  2.5991 -2.3862  0.9224
 2758TIP3    H229910   1.497   4.218   1.636  1.5576  0.4355  1.9952
 2759TIP3   OH229911   5.265   6.802   7.856  0.3525 -0.2319 -0.3061
 2759TIP3    H129912   5.206   6.733   7.886  0.7897 -0.4617  0.0327
 2759TIP3    H229913   5.352   6.761   7.858  0.8524  0.8172  1.4815
 2760TIP3   OH229914   0.291   3.069   1.010 -0.3782 -0.3516  0.0407
 2760TIP3    H129915   0.338   3.004   1.062 -1.0590 -0.8923 -0.0093
 2760TIP3    H229916   0.236   3.115   1.073  1.7117  1.7291  0.4868
 2761TIP3   OH229917   6.620   6.119   0.934 -0.2682 -0.1468  0.3947
 2761TIP3    H129918   6.648   6.207   0.959 -0.1123 -0.3328  0.8898
 2761TIP3    H229919   6.661   6.062   0.999  2.6788 -0.9748 -1.9661
 2762TIP3   OH229920   5.575   1.383   3.203  0.0935  0.9670  0.1344
 2762TIP3    H129921   5.510   1.362   3.136  0.1925  1.5656 -0.1472
 2762TIP3    H229922   5.654   1.406   3.154  1.1661 -1.6187  0.4520
 2763TIP3   OH229923   0.315   5.778   0.624 -0.8584  0.1895  0.8108
 2763TIP3    H129924   0.278   5.690   0.615  0.2467 -0.3613  1.4090
 2763TIP3    H229925   0.324   5.790   0.719 -2.4718  1.6109  0.8370
 2764TIP3   OH229926   5.202   2.280   2.828  0.0633  0.0363 -0.0331
 2764TIP3    H129927   5.164   2.347   2.771 -1.4963 -0.0313  0.8594
 2764TIP3    H229928   5.200   2.200   2.776 -2.3903 -0.2729  0.4220
 2765TIP3   OH229929   2.197   6.826   8.180  0.1505 -0.0419  0.2200
 2765TIP3    H129930   2.176   6.770   8.255 -0.2892  0.1489  0.2433
 2765TIP3    H229931   2.255   6.772   8.126  0.2142 -0.2986  0.5393
 2766TIP3   OH229932   2.820   6.633   1.587  0.1815 -0.1881  0.2132
 2766TIP3    H129933   2.730   6.651   1.560  0.7997 -0.5571 -2.2555
 2766TIP3    H229934   2.842   6.551   1.544  2.8442  1.6327 -2.2394
 2767TIP3   OH229935   3.960   6.420   0.974  0.2089  0.0908  0.1449
 2767TIP3    H129936   4.052   6.446   0.974  0.5465 -1.0406  0.4223
 2767TIP3    H229937   3.921   6.469   0.902  0.7238  1.5873  0.8568
 2768TIP3   OH229938   4.108   0.226   8.621 -0.9318 -0.3662 -0.3449
 2768TIP3    H129939   4.058   0.307   8.626  0.1998  0.3266  0.3609
 2768TIP3    H229940   4.101   0.188   8.708 -2.5828 -1.7666 -1.0449
 2769TIP3   OH229941   3.967   2.628   0.652  0.4906 -0.1527  0.2199
 2769TIP3    H129942   3.923   2.554   0.610  0.5440 -0.6993  1.1120
 2769TIP3    H229943   3.909   2.702   0.634 -0.2768 -0.6713  0.5020
 2770TIP3   OH229944   6.833   6.169   0.065  0.3480 -0.0649 -0.2817
 2770TIP3    H129945   6.745   6.201   0.045  0.2612 -1.5181 -2.5757
 2770TIP3    H229946   6.824   6.120   0.146 -1.2679 -1.2226 -1.1175
 2771TIP3   OH229947   3.857   5.534   0.198  0.1541  0.2209 -0.6511
 2771TIP3    H129948   3.790   5.601   0.184  2.0912  2.2662 -0.7687
 2771TIP3    H229949   3.910   5.536   0.119  1.1356 -0.3799 -0.0290
 2772TIP3   OH229950   3.905   1.172   1.087 -0.0174  0.4752 -0.4132
 2772TIP3    H129951   3.850   1.151   1.163  0.4103 -1.4371 -0.5598
 2772TIP3    H229952   3.994   1.175   1.122  0.1624 -0.2385 -0.7801
 2773TIP3   OH229953   6.358   0.987   1.344  0.5918  0.0116 -0.2491
 2773TIP3    H129954   6.310   1.006   1.264  0.6025 -1.3194 -0.6045
 2773TIP3    H229955   6.299   1.014   1.415  0.9245  1.9708 -0.6767
 2774TIP3   OH229956   0.039   4.423   0.421  0.5465 -0.1216 -0.2924
 2774TIP3    H129957   0.124   4.425   0.465 -0.3957  2.3809  1.6751
 2774TIP3    H229958  -0.024   4.406   0.492 -0.7926  0.9643 -1.1718
 2775TIP3   OH229959   6.672   6.684   1.105 -0.2411  0.4930 -0.5320
 2775TIP3    H129960   6.602   6.625   1.131 -0.2368  0.6297 -0.1975
 2775TIP3    H229961   6.663   6.759   1.164  0.4108  0.3499 -0.2439
 2776TIP3   OH229962   4.594   3.142   8.218 -0.2078 -0.5098 -0.5878
 2776TIP3    H129963   4.686   3.146   8.190  0.2313  0.3994  0.9258
 2776TIP3    H229964   4.582   3.052   8.248  0.5796 -0.2745  0.4595
 2777TIP3   OH229965   0.194   6.391   0.180 -0.3792 -0.9256 -0.2268
 2777TIP3    H129966   0.234   6.357   0.260 -1.4875 -0.2436  0.6535
 2777TIP3    H229967   0.131   6.323   0.155 -1.4538 -0.2762  0.6307
 2778TIP3   OH229968   5.861   4.665   1.938  0.4713 -0.3051  0.9299
 2778TIP3    H129969   5.904   4.728   1.881  1.3917 -1.4377  0.3072
 2778TIP3    H229970   5.799   4.716   1.990  0.4935  0.9355 -0.2296
 2779TIP3   OH229971   2.663   3.939   2.896 -0.0778  0.0398 -0.5221
 2779TIP3    H129972   2.735   3.957   2.836  0.1932  2.2894  0.3637
 2779TIP3    H229973   2.698   3.957   2.983 -2.1100  3.2900 -0.1689
 2780TIP3   OH229974   6.142   3.140   0.019 -0.2307 -0.1822 -0.1917
 2780TIP3    H129975   6.077   3.084  -0.021 -0.0896 -0.1529 -0.4619
 2780TIP3    H229976   6.226   3.100  -0.003 -0.1682 -0.3920  0.4128
 2781TIP3   OH229977   6.229   4.127   6.808 -0.3433 -0.1295 -0.2963
 2781TIP3    H129978   6.268   4.193   6.865  0.8269 -0.4646 -0.6782
 2781TIP3    H229979   6.282   4.049   6.822 -1.4341 -0.8677 -0.1916
 2782TIP3   OH229980   5.326   4.410   2.126 -0.3746  0.2830  0.1633
 2782TIP3    H129981   5.242   4.369   2.147 -0.5797  0.7903  0.3341
 2782TIP3    H229982   5.319   4.499   2.159 -0.1059  0.6111 -0.6411
 2783TIP3   OH229983   5.839   2.236   0.110 -0.1424  0.0866  0.2717
 2783TIP3    H129984   5.859   2.225   0.018  0.2495 -1.9045  0.5659
 2783TIP3    H229985   5.864   2.327   0.129  0.2320  0.3694 -1.4417
 2784TIP3   OH229986   5.307   3.638   8.415 -0.0378 -0.0317  0.0680
 2784TIP3    H129987   5.343   3.550   8.421  2.1630  0.7697 -0.4280
 2784TIP3    H229988   5.375   3.689   8.371 -1.0139  2.0453  0.8128
 2785TIP3   OH229989   2.780   3.109   8.567  0.0023 -0.2552  0.2131
 2785TIP3    H129990   2.784   3.014   8.570 -1.3782 -0.3372  0.3574
 2785TIP3    H229991   2.770   3.130   8.474 -0.1211 -0.2767  0.2216
 2786TIP3   OH229992   1.544   5.252   7.551 -0.3428 -0.6360  0.1428
 2786TIP3    H129993   1.611   5.297   7.603  2.5148 -1.0802 -2.8439
 2786TIP3    H229994   1.554   5.160   7.576 -0.0720 -0.6636 -0.0675
 2787TIP3   OH229995   0.330   3.786   1.294 -0.0883 -0.2891  0.9553
 2787TIP3    H129996   0.420   3.818   1.285 -0.0130 -0.7138  0.1001
 2787TIP3    H229997   0.337   3.713   1.357 -0.0373  0.4398  1.8134
 2788TIP3   OH229998   1.283   5.833   2.465 -0.4486  0.0655 -0.5598
 2788TIP3    H129999   1.294   5.926   2.484  0.0994 -0.0875 -0.0948
 2788TIP3    H230000   1.359   5.791   2.505 -0.7929 -0.6068 -0.5929
 2789TIP3   OH230001   5.673   3.124   0.222 -0.5202  0.7415  0.3639
 2789TIP3    H130002   5.734   3.117   0.148 -0.1816  1.2742  0.5860
 2789TIP3    H230003   5.716   3.185   0.282 -1.3792  1.2877  0.4301
 2790TIP3   OH230004   5.340   3.278   7.161  0.6124 -0.0951  0.1787
 2790TIP3    H130005   5.358   3.368   7.134  1.9661  0.2432  2.0160
 2790TIP3    H230006   5.328   3.230   7.079  1.2044  1.4928 -0.8778
 2791TIP3   OH230007   0.591   3.811   7.989  0.0775 -0.1501  0.3353
 2791TIP3    H130008   0.562   3.735   7.940  1.3531 -0.8949  0.7021
 2791TIP3    H230009   0.598   3.781   8.080  0.0372  0.5556  0.5844
 2792TIP3   OH230010   2.676   0.411   0.870  0.7123  0.0604 -0.4640
 2792TIP3    H130011   2.668   0.447   0.782  0.7111 -0.8016 -0.8219
 2792TIP3    H230012   2.594   0.363   0.884  0.6397  0.3357  0.0701
 2793TIP3   OH230013   0.629   5.508   1.679 -0.0415  0.4751 -0.8792
 2793TIP3    H130014   0.569   5.515   1.753 -2.0902 -1.2307 -2.2619
 2793TIP3    H230015   0.714   5.491   1.719 -1.1042 -0.6314  1.0916
 2794TIP3   OH230016   2.164   1.435   6.867 -0.0458  0.0655 -0.1124
 2794TIP3    H130017   2.235   1.371   6.863 -0.7716 -0.6959 -1.2325
 2794TIP3    H230018   2.196   1.508   6.813  0.3139  0.1874  0.2553
 2795TIP3   OH230019   6.615   4.329   7.154 -0.5183  0.3751  0.8096
 2795TIP3    H130020   6.569   4.400   7.198 -2.5664 -0.6677  0.4660
 2795TIP3    H230021   6.571   4.250   7.183  0.8871 -0.6609  0.2057
 2796TIP3   OH230022   2.395   0.060   7.520  0.5654  0.4107  0.0668
 2796TIP3    H130023   2.407   0.123   7.450 -0.2988  1.6539  1.0038
 2796TIP3    H230024   2.481   0.018   7.529  1.5485  2.3535  0.2700
 2797TIP3   OH230025   2.269   4.329   2.076 -0.0774 -0.5601 -0.6112
 2797TIP3    H130026   2.338   4.384   2.040  1.2663 -2.5706 -1.2805
 2797TIP3    H230027   2.224   4.385   2.140  2.2730  0.7524 -0.0130
 2798TIP3   OH230028   1.608   2.158   8.809  0.4166  0.0386  0.1405
 2798TIP3    H130029   1.627   2.212   8.886 -0.2452  2.8235 -1.4746
 2798TIP3    H230030   1.677   2.181   8.747 -0.6401  0.0510 -1.0625
 2799TIP3   OH230031   0.295   3.047   8.422 -0.5015  0.1733  0.1781
 2799TIP3    H130032   0.274   3.135   8.453 -1.2787  0.6747 -1.6052
 2799TIP3    H230033   0.282   2.991   8.498 -0.4588  1.5261  1.2306
 2800TIP3   OH230034   0.399   0.589   0.248  0.7319 -0.2078 -0.3300
 2800TIP3    H130035   0.383   0.496   0.235 -0.6817 -0.0927  0.3481
 2800TIP3    H230036   0.348   0.632   0.179 -0.6467  0.1208  0.8458
 2801TIP3   OH230037   0.660   1.268   2.739  0.7278  0.1244  0.1522
 2801TIP3    H130038   0.708   1.271   2.821 -0.5622 -0.4156  0.9522
 2801TIP3    H230039   0.727   1.279   2.671  1.9820 -0.7687  1.2168
 2802TIP3   OH230040   1.908   0.136   7.930 -0.3026 -0.0921 -0.0021
 2802TIP3    H130041   1.978   0.191   7.893 -0.8459  0.6935  0.1140
 2802TIP3    H230042   1.861   0.194   7.990  0.0103 -1.1023  1.2634
 2803TIP3   OH230043   5.730   6.744   8.842  0.1878  0.3347  0.0636
 2803TIP3    H130044   5.818   6.783   8.834 -0.5346  1.9106 -0.6513
 2803TIP3    H230045   5.671   6.819   8.837 -1.2104 -0.7103  0.5487
 2804TIP3   OH230046   0.318   6.337   7.295 -0.4004 -0.6923  0.6079
 2804TIP3    H130047   0.371   6.407   7.333 -1.6676 -0.0619  1.2493
 2804TIP3    H230048   0.335   6.343   7.201 -2.6637  2.4255  0.2334
 2805TIP3   OH230049   0.751   1.317   8.295  0.4734  0.1930  0.1871
 2805TIP3    H130050   0.799   1.321   8.377  0.1061  0.3791  0.3957
 2805TIP3    H230051   0.709   1.403   8.287  1.4506  0.6155 -0.7816
 2806TIP3   OH230052   1.084   5.049   0.466 -0.8929  0.1556  0.2541
 2806TIP3    H130053   1.110   4.994   0.539  0.4554 -0.9214 -0.9822
 2806TIP3    H230054   1.161   5.103   0.447 -0.8727 -0.2726 -0.9762
 2807TIP3   OH230055   0.773   4.369   7.518 -0.5118  0.0778 -0.0425
 2807TIP3    H130056   0.822   4.287   7.508 -0.5253  0.1794 -1.0282
 2807TIP3    H230057   0.815   4.413   7.592 -0.6053 -0.8807  0.6058
 2808TIP3   OH230058   5.958   0.920   8.454 -0.3017  0.7036 -0.2508
 2808TIP3    H130059   6.014   0.895   8.528 -0.4538  0.9802 -0.0425
 2808TIP3    H230060   5.996   0.873   8.379  0.3674  1.0795 -0.1625
 2809TIP3   OH230061   5.727   4.069   2.747  0.3236 -0.4824 -0.1387
 2809TIP3    H130062   5.787   4.101   2.814 -1.0975 -1.0265  1.4475
 2809TIP3    H230063   5.658   4.135   2.743  0.6214 -0.2073 -1.4661
 2810TIP3   OH230064   2.815   1.381   2.628 -0.3608 -0.2550  0.2221
 2810TIP3    H130065   2.737   1.426   2.663 -0.1458 -0.2855  0.7545
 2810TIP3    H230066   2.784   1.339   2.548 -0.1155  2.4987 -1.4463
 2811TIP3   OH230067   6.530   2.410   7.527 -0.4643 -0.3751 -0.1380
 2811TIP3    H130068   6.460   2.414   7.461 -0.6559  0.4707  0.0999
 2811TIP3    H230069   6.540   2.317   7.546 -2.0239 -0.4756  0.3436
 2812TIP3   OH230070   2.539   2.566   1.035  0.3411 -0.2099  0.2915
 2812TIP3    H130071   2.545   2.486   1.089 -0.3528 -0.2953  0.2603
 2812TIP3    H230072   2.576   2.635   1.090 -0.8118 -0.2036  1.1017
 2813TIP3   OH230073   0.406   2.027   7.883 -0.3058  0.0380  0.5659
 2813TIP3    H130074   0.440   1.943   7.915 -0.8882 -0.7380 -0.7657
 2813TIP3    H230075   0.362   2.065   7.959 -0.5126 -1.1211  1.0511
 2814TIP3   OH230076   1.304   1.613   1.324  0.3929 -0.1898 -0.0699
 2814TIP3    H130077   1.219   1.640   1.288 -0.4205  0.6786  2.3394
 2814TIP3    H230078   1.368   1.644   1.259 -0.9333  2.0074 -0.4474
 2815TIP3   OH230079   3.700   6.093   0.530 -0.6420  0.0890  0.3587
 2815TIP3    H130080   3.725   6.010   0.489 -0.1830  0.7139 -0.6735
 2815TIP3    H230081   3.742   6.091   0.616  0.4810 -0.1989 -0.1661
 2816TIP3   OH230082   6.378   0.773   8.230  0.2446  0.0262  0.2195
 2816TIP3    H130083   6.319   0.813   8.165  0.8355  2.1070  0.8789
 2816TIP3    H230084   6.320   0.742   8.299 -0.2710 -0.7748 -0.5474
 2817TIP3   OH230085   5.987   4.048   0.880 -0.7028 -0.5059  0.4044
 2817TIP3    H130086   6.059   4.071   0.939 -0.6861  0.5209  0.0014
 2817TIP3    H230087   6.004   4.098   0.800 -1.4234 -0.8903 -0.0034
 2818TIP3   OH230088   0.476   5.294   8.046 -0.1109  0.2204  0.4627
 2818TIP3    H130089   0.542   5.323   8.109 -0.6623 -0.2418  1.2763
 2818TIP3    H230090   0.448   5.209   8.078 -0.1772 -0.1689 -0.6046
 2819TIP3   OH230091   5.012   2.688   2.811 -0.2639  0.0140  0.4568
 2819TIP3    H130092   4.991   2.622   2.877  2.5138 -2.4964 -0.8907
 2819TIP3    H230093   4.984   2.649   2.729 -1.1462  1.8416 -0.1509
 2820TIP3   OH230094   3.497   5.719   0.859  0.8258 -0.1631  0.3875
 2820TIP3    H130095   3.444   5.662   0.915  1.0621 -1.0203 -0.2405
 2820TIP3    H230096   3.488   5.805   0.898 -0.1971 -0.4777  0.9008
 2821TIP3   OH230097   1.457   5.362   0.516  0.2685  0.2727 -0.3532
 2821TIP3    H130098   1.479   5.430   0.452  0.9342 -0.1443 -0.5790
 2821TIP3    H230099   1.362   5.351   0.507  0.2471  0.7287 -0.7551
 2822TIP3   OH230100   3.565   5.489   1.438 -0.2294 -0.6008 -0.2148
 2822TIP3    H130101   3.596   5.548   1.507  0.1855 -0.9934 -0.0621
 2822TIP3    H230102   3.641   5.475   1.382 -0.6811  0.0687 -1.0198
 2823TIP3   OH230103   6.562   6.235   0.005 -0.1956  0.0419 -0.1399
 2823TIP3    H130104   6.544   6.144  -0.020 -0.6815  0.3445 -0.9198
 2823TIP3    H230105   6.534   6.241   0.097  1.3910 -1.0245  0.4623
 2824TIP3   OH230106   2.504   5.306   6.857  0.3326 -0.3670 -0.0861
 2824TIP3    H130107   2.466   5.218   6.863 -0.0765 -0.1882  0.0090
 2824TIP3    H230108   2.509   5.336   6.948  1.4999 -0.7165 -0.0238
 2825TIP3   OH230109   5.798   2.026   2.297  0.1606 -0.2406 -0.1811
 2825TIP3    H130110   5.837   1.941   2.316 -0.1287 -0.6886 -1.4727
 2825TIP3    H230111   5.716   2.027   2.346  0.6800 -0.2420  0.7089
 2826TIP3   OH230112   1.667   6.026   8.744  0.4994  0.2560  0.4357
 2826TIP3    H130113   1.714   5.998   8.666 -0.9350 -0.3703 -0.2386
 2826TIP3    H230114   1.614   5.951   8.769  0.1252  0.8168  1.3880
 2827TIP3   OH230115   3.002   6.077   8.043  0.0589 -0.0041 -1.1039
 2827TIP3    H130116   2.965   6.042   7.962 -2.0409 -0.8521  0.1418
 2827TIP3    H230117   3.033   6.000   8.091 -3.1576 -0.1830  0.9624
 2828TIP3   OH230118   2.270   4.787   0.409  0.0975 -0.1944  0.3288
 2828TIP3    H130119   2.185   4.782   0.453 -0.6535  0.6404 -0.9560
 2828TIP3    H230120   2.249   4.797   0.316  1.6233 -1.1224 -0.1679
 2829TIP3   OH230121   3.697   4.312   7.638 -0.3490  0.3533 -0.6204
 2829TIP3    H130122   3.714   4.355   7.554 -0.6885  1.8669  0.0539
 2829TIP3    H230123   3.719   4.378   7.704  0.2330 -0.9102  0.5144
 2830TIP3   OH230124   5.116   5.819   2.367 -0.5288 -0.0838  0.9644
 2830TIP3    H130125   5.021   5.808   2.365 -0.4355 -0.8608  0.5398
 2830TIP3    H230126   5.131   5.907   2.332 -0.8816 -1.3621 -2.7907
 2831TIP3   OH230127   5.501   4.132   1.550 -0.0652 -0.3956  0.1692
 2831TIP3    H130128   5.497   4.228   1.558 -0.7342 -0.3629 -0.4345
 2831TIP3    H230129   5.573   4.116   1.490  1.1579 -0.3681  1.5665
 2832TIP3   OH230130   4.520   6.333   8.363  0.5099  0.6952  0.2504
 2832TIP3    H130131   4.599   6.317   8.313  0.5181  0.1354  0.4309
 2832TIP3    H230132   4.467   6.391   8.308  0.8932  0.7912 -0.0187
 2833TIP3   OH230133   6.270   5.617   8.702 -0.3817  0.8220  0.5075
 2833TIP3    H130134   6.232   5.690   8.750 -0.1202  0.5040  1.2179
 2833TIP3    H230135   6.359   5.646   8.679 -0.1668  0.6156  1.0640
 2834TIP3   OH230136   0.681   4.705   7.020 -0.0996 -0.3144  0.6709
 2834TIP3    H130137   0.604   4.663   6.982 -0.3343 -0.3072  1.1387
 2834TIP3    H230138   0.729   4.739   6.944 -0.1239 -1.0464  0.3188
 2835TIP3   OH230139   3.129   0.570   0.085 -0.0261  0.1012 -0.0436
 2835TIP3    H130140   3.060   0.607   0.140 -1.0122 -1.4956 -0.1534
 2835TIP3    H230141   3.179   0.646   0.055 -1.7003  1.2942  0.0717
 2836TIP3   OH230142   3.570   2.989   7.637 -0.3048 -0.5223  0.9832
 2836TIP3    H130143   3.587   2.967   7.545  1.2313  0.7523  0.9275
 2836TIP3    H230144   3.615   3.073   7.651 -1.1816 -0.2844  2.6915
 2837TIP3   OH230145   3.223   5.633   2.182  0.4399  0.4711  0.2024
 2837TIP3    H130146   3.144   5.674   2.218  0.7571  1.7587 -0.5140
 2837TIP3    H230147   3.255   5.578   2.253  0.1248  1.6720  1.3255
 2838TIP3   OH230148   0.292   3.685   7.550 -0.0378 -0.3486  0.2021
 2838TIP3    H130149   0.294   3.613   7.612  0.3132 -0.7592 -0.2790
 2838TIP3    H230150   0.316   3.646   7.466  0.4571  0.3779 -0.0094
 2839TIP3   OH230151   4.160   5.435   7.543  0.2556  0.2719 -0.0743
 2839TIP3    H130152   4.205   5.376   7.483  0.6591  0.1973  0.2932
 2839TIP3    H230153   4.107   5.377   7.598  0.1483  0.3108 -0.1359
 2840TIP3   OH230154   3.131   0.398   0.947 -0.3652  0.6350  1.2440
 2840TIP3    H130155   3.103   0.490   0.947  0.8431  1.0579 -0.6614
 2840TIP3    H230156   3.049   0.348   0.942 -1.0343  1.7671 -1.6481
 2841TIP3   OH230157   1.306   1.245   7.688 -0.1748  0.0118 -0.1732
 2841TIP3    H130158   1.353   1.162   7.684  0.4542  0.3512  0.1555
 2841TIP3    H230159   1.336   1.294   7.611  0.5690  0.5196  0.4330
 2842TIP3   OH230160   6.621   3.076   7.420 -0.3190 -0.2381  0.3011
 2842TIP3    H130161   6.634   3.019   7.344 -0.8970 -0.0781  0.0769
 2842TIP3    H230162   6.709   3.109   7.440 -0.1096 -0.5507 -0.0834
 2843TIP3   OH230163   2.397   2.163   8.074 -0.0813 -0.0652 -0.1584
 2843TIP3    H130164   2.486   2.159   8.110  0.3255 -3.1272 -1.1870
 2843TIP3    H230165   2.391   2.250   8.034  2.0847  0.5892  0.7974
 2844TIP3   OH230166   4.861   4.592   0.781  0.9460  0.3089  0.7913
 2844TIP3    H130167   4.949   4.557   0.764  0.1196 -1.4258 -0.2409
 2844TIP3    H230168   4.864   4.682   0.750  1.6178 -0.5602 -1.9983
 2845TIP3   OH230169   6.266   0.828   7.978 -0.0866  0.0027  0.0897
 2845TIP3    H130170   6.299   0.749   7.935 -2.5330 -2.1863  1.8666
 2845TIP3    H230171   6.171   0.818   7.977 -0.4720  2.7936  0.7363
 2846TIP3   OH230172   6.096   4.859   7.542  0.1341 -0.1709 -0.0591
 2846TIP3    H130173   6.166   4.893   7.598 -0.0162 -0.5602  0.3758
 2846TIP3    H230174   6.022   4.848   7.601 -0.4631  0.7244 -0.6222
 2847TIP3   OH230175   0.593   4.092   1.034  0.3214 -0.2933 -0.1205
 2847TIP3    H130176   0.510   4.108   1.078  0.3776  0.2935 -0.2205
 2847TIP3    H230177   0.587   4.001   1.004 -1.0773  0.2949 -1.7992
 2848TIP3   OH230178   3.289   4.906   2.362 -0.0845 -0.0581 -0.0683
 2848TIP3    H130179   3.382   4.906   2.382 -0.2420 -1.2506  0.7632
 2848TIP3    H230180   3.271   4.818   2.329 -0.5252  0.8007 -2.3245
 2849TIP3   OH230181   6.414   6.046   2.308  0.9247  0.5866 -0.4402
 2849TIP3    H130182   6.498   6.081   2.339  0.1271  2.4046 -0.1878
 2849TIP3    H230183   6.424   5.951   2.314  1.6951  0.7524  3.0447
 2850TIP3   OH230184   1.077   2.055   2.460 -0.1665 -0.5693  0.6815
 2850TIP3    H130185   1.139   2.052   2.387 -1.3875 -0.6586 -0.4018
 2850TIP3    H230186   1.092   2.140   2.501 -0.2184 -0.0236 -0.3869
 2851TIP3   OH230187   5.848   1.215   1.558 -0.3090  0.2867  0.1403
 2851TIP3    H130188   5.892   1.279   1.502  0.4978 -1.2347 -1.0357
 2851TIP3    H230189   5.777   1.181   1.504  1.5096 -2.4295 -0.6951
 2852TIP3   OH230190   5.268   1.717   1.394  0.6135  0.2517  0.2017
 2852TIP3    H130191   5.237   1.687   1.479 -1.0923  0.8423 -0.1678
 2852TIP3    H230192   5.206   1.679   1.331  1.4408  0.3847 -0.7247
 2853TIP3   OH230193   1.451   0.368   0.192  0.0153  0.4077 -0.2897
 2853TIP3    H130194   1.387   0.349   0.260 -0.6525  1.5848 -0.5716
 2853TIP3    H230195   1.399   0.381   0.113  0.7522 -0.5553 -0.9562
 2854TIP3   OH230196   5.299   4.016   1.913  0.4100 -0.5160  0.4748
 2854TIP3    H130197   5.345   3.950   1.861  0.1539 -2.0209  2.0542
 2854TIP3    H230198   5.208   4.011   1.883  0.3256 -1.1391  0.8203
 2855TIP3   OH230199   5.817   3.609   2.086 -0.2371  0.3382  0.2167
 2855TIP3    H130200   5.800   3.610   2.180 -1.2367 -0.8053  0.0729
 2855TIP3    H230201   5.777   3.690   2.053 -0.9973  0.1391  0.6159
 2856TIP3   OH230202   5.196   5.609   7.805 -0.4483 -0.3081 -0.1923
 2856TIP3    H130203   5.133   5.579   7.871 -0.1299 -1.3753 -0.3447
 2856TIP3    H230204   5.142   5.645   7.735 -0.8464 -0.3553  0.0841
 2857TIP3   OH230205   3.451   2.644   1.518 -0.1155 -0.0040  0.3815
 2857TIP3    H130206   3.500   2.617   1.440 -0.7732  0.2896 -0.1423
 2857TIP3    H230207   3.491   2.594   1.589  0.0875 -0.7563 -0.2359
 2858TIP3   OH230208   5.102   3.338   1.942  0.4343  0.5757  0.6437
 2858TIP3    H130209   5.072   3.410   1.888 -0.6789  0.0569  0.5502
 2858TIP3    H230210   5.026   3.312   1.994  0.1019 -2.0069 -0.9512
 2859TIP3   OH230211   3.461   6.200   8.568 -0.7639  0.3698  0.3175
 2859TIP3    H130212   3.420   6.135   8.510 -2.1280  0.6885  0.8832
 2859TIP3    H230213   3.488   6.271   8.510 -0.3793 -0.1529 -0.1540
 2860TIP3   OH230214   4.409   4.735   1.330 -0.1154 -0.4425 -0.8034
 2860TIP3    H130215   4.445   4.805   1.275 -2.0987 -0.1813 -1.8872
 2860TIP3    H230216   4.374   4.780   1.406  0.6538 -0.5388 -0.3891
 2861TIP3   OH230217   3.715   5.066   0.607 -0.0266  0.9398 -0.3802
 2861TIP3    H130218   3.700   5.072   0.512  3.3621  0.3709 -1.0758
 2861TIP3    H230219   3.633   5.030   0.641 -1.2385  0.8193 -3.1248
 2862TIP3   OH230220   3.438   3.407   0.706  0.1958 -0.0261  0.1923
 2862TIP3    H130221   3.433   3.446   0.794 -1.1315  1.0715 -0.3479
 2862TIP3    H230222   3.532   3.405   0.687  0.4760  0.1229  1.4684
 2863TIP3   OH230223   3.082   5.267   2.361 -0.0121  0.4139 -0.7827
 2863TIP3    H130224   3.038   5.282   2.444  0.0760  0.1172 -0.6829
 2863TIP3    H230225   3.174   5.254   2.384 -0.1876 -1.0232 -0.7826
 2864TIP3   OH230226   2.234   6.236   2.975 -0.3694  0.5333 -0.4273
 2864TIP3    H130227   2.140   6.223   2.989 -0.0058 -0.5421  1.3589
 2864TIP3    H230228   2.263   6.159   2.926 -0.1001 -0.1975  0.8217
 2865TIP3   OH230229   1.996   4.943   0.770  0.5607  0.1581 -0.0988
 2865TIP3    H130230   1.988   5.015   0.832 -0.6526  1.7426 -1.9680
 2865TIP3    H230231   2.068   4.890   0.804 -1.9566 -0.9325  4.3918
 2866TIP3   OH230232   3.028   4.127   8.362 -0.4019 -0.2800 -0.4419
 2866TIP3    H130233   2.962   4.059   8.370 -0.5541 -0.0793 -0.0002
 2866TIP3    H230234   3.039   4.161   8.451  0.3023 -0.3214 -0.5075
 2867TIP3   OH230235   6.037   4.592   3.007  0.3101  0.2202 -0.1668
 2867TIP3    H130236   5.979   4.557   2.940  2.6166 -0.5393 -1.9278
 2867TIP3    H230237   6.123   4.594   2.965  1.3020  2.9225  1.6872
 2868TIP3   OH230238   1.535   2.161   2.323  0.0901  0.2811 -0.3116
 2868TIP3    H130239   1.520   2.229   2.389 -0.4375 -0.5679  0.4545
 2868TIP3    H230240   1.448   2.133   2.297  0.3092 -0.1383 -0.5975
 2869TIP3   OH230241   0.775   2.902   0.590  0.0962 -0.4366 -0.3725
 2869TIP3    H130242   0.816   2.818   0.568  2.8305  1.0914 -1.6958
 2869TIP3    H230243   0.698   2.908   0.533 -1.2683 -2.7564  1.0802
 2870TIP3   OH230244   4.429   5.065   6.760  0.1900 -0.7092  0.3110
 2870TIP3    H130245   4.420   4.974   6.733  0.7249 -0.6337 -0.1308
 2870TIP3    H230246   4.522   5.075   6.780  0.2026 -0.1633  0.0053
 2871TIP3   OH230247   1.158   1.976   7.881 -0.1365 -0.4429  0.4447
 2871TIP3    H130248   1.133   2.032   7.954  0.6750  0.4085  0.0881
 2871TIP3    H230249   1.149   1.887   7.915  0.6417 -0.0591  1.7329
 2872TIP3   OH230250   1.645   0.806   1.416  0.2408 -0.6653  0.1096
 2872TIP3    H130251   1.667   0.817   1.509 -0.1018  1.1931  0.0220
 2872TIP3    H230252   1.571   0.746   1.416 -0.9145  0.6815  1.2215
 2873TIP3   OH230253   6.379   0.230   1.615 -0.3211 -0.3427 -0.1582
 2873TIP3    H130254   6.392   0.139   1.589  1.8769 -0.5332  1.3394
 2873TIP3    H230255   6.467   0.266   1.622 -1.0566  1.3588  1.1225
 2874TIP3   OH230256   4.285   1.987   2.193 -0.2043  0.1986 -0.3298
 2874TIP3    H130257   4.258   2.040   2.267  0.8055  0.3071 -0.0268
 2874TIP3    H230258   4.243   1.902   2.207 -1.4402  0.7551 -0.5686
 2875TIP3   OH230259   6.036   2.061   1.719  0.3764 -0.1165 -0.3733
 2875TIP3    H130260   5.991   2.136   1.758 -0.5417 -1.1225  0.5843
 2875TIP3    H230261   5.969   2.017   1.667  0.6030 -0.8557 -0.0586
 2876TIP3   OH230262   4.450   5.647   8.729 -0.0045  0.5076  0.0311
 2876TIP3    H130263   4.498   5.654   8.812 -0.4701  1.5191  0.2364
 2876TIP3    H230264   4.499   5.582   8.678 -0.8680 -1.6922  1.8657
 2877TIP3   OH230265   0.955   0.991   8.451  0.3839  0.3193 -0.1114
 2877TIP3    H130266   1.050   0.983   8.459  0.3787  1.2284  1.2345
 2877TIP3    H230267   0.933   0.945   8.371  1.5583 -2.9652  1.3031
 2878TIP3   OH230268   4.141   5.483   1.750  0.4604 -0.1068  0.2935
 2878TIP3    H130269   4.113   5.561   1.798  2.1167  1.2472 -0.8015
 2878TIP3    H230270   4.105   5.409   1.799 -1.3674  1.3398  1.2357
 2879TIP3   OH230271   3.767   4.150   0.973 -0.0686  0.5896 -0.5245
 2879TIP3    H130272   3.842   4.116   0.924 -0.8870 -1.1764 -0.6198
 2879TIP3    H230273   3.738   4.076   1.027 -1.5463  1.3342 -0.2465
 2880TIP3   OH230274   0.218   0.838   0.395  0.0975 -0.1318  0.2964
 2880TIP3    H130275   0.238   0.768   0.458 -0.0277 -0.5652 -0.1375
 2880TIP3    H230276   0.238   0.799   0.309  1.1482  0.7577  0.1151
 2881TIP3   OH230277   4.457   1.269   8.397 -0.3393  0.3929 -0.5099
 2881TIP3    H130278   4.504   1.304   8.474  0.5291 -0.5613 -0.5733
 2881TIP3    H230279   4.383   1.329   8.385  0.0451  1.1150  0.4900
 2882TIP3   OH230280   2.160   6.461   1.004  0.1846 -0.1507 -0.6862
 2882TIP3    H130281   2.066   6.480   1.006 -0.1499 -1.6482 -0.5879
 2882TIP3    H230282   2.199   6.536   0.960 -1.2508 -0.1432 -2.0371
 2883TIP3   OH230283   6.558   4.152   8.166 -0.6556  0.3173 -0.6478
 2883TIP3    H130284   6.607   4.153   8.248 -1.0844  1.9981 -0.3782
 2883TIP3    H230285   6.564   4.062   8.135  1.7987  0.2508 -0.1554
 2884TIP3   OH230286   3.502   5.060   2.566 -0.0911 -1.1066  0.4781
 2884TIP3    H130287   3.526   4.999   2.497 -1.7004 -1.1444 -0.0749
 2884TIP3    H230288   3.568   5.130   2.559 -0.4441 -0.9043 -1.3725
 2885TIP3   OH230289   3.907   5.949   0.858 -0.0165  0.1932 -0.0179
 2885TIP3    H130290   3.820   5.985   0.840 -0.4200 -0.5820  0.2809
 2885TIP3    H230291   3.968   6.013   0.824 -0.7218 -0.1002 -1.9707
 2886TIP3   OH230292   1.275   3.785   2.078  0.0758  0.2061  0.3609
 2886TIP3    H130293   1.369   3.772   2.084  0.3779  2.1826  0.4074
 2886TIP3    H230294   1.246   3.796   2.169 -0.7113 -3.0426  0.6532
 2887TIP3   OH230295   4.382   2.617   1.547 -0.0765  0.1362  0.0793
 2887TIP3    H130296   4.342   2.654   1.625 -0.1105  0.6880 -0.1926
 2887TIP3    H230297   4.339   2.532   1.536  0.2398 -0.1385  0.8964
 2888TIP3   OH230298   4.269   5.615   2.010  0.4234  0.1670  0.1359
 2888TIP3    H130299   4.181   5.585   1.985  0.2177  1.2777 -0.5454
 2888TIP3    H230300   4.263   5.630   2.104  0.8339 -2.8426  0.7609
 2889TIP3   OH230301   5.577   0.204   8.213 -0.8927  0.7013  0.1071
 2889TIP3    H130302   5.665   0.209   8.177  0.1455 -2.6733  1.7873
 2889TIP3    H230303   5.524   0.168   8.142 -0.4387  0.7066 -0.2399
 2890TIP3   OH230304   5.286   4.035   7.829 -0.0498  0.0902  0.1524
 2890TIP3    H130305   5.298   4.078   7.913  1.2368 -1.6875  0.9320
 2890TIP3    H230306   5.351   4.075   7.772  2.0168 -1.5642  1.2156
 2891TIP3   OH230307   2.799   6.727   7.970  0.0312 -0.9297  0.2067
 2891TIP3    H130308   2.765   6.702   7.884 -0.4470  0.2606  0.0214
 2891TIP3    H230309   2.822   6.820   7.959 -1.3286 -0.3706  1.7453
 2892TIP3   OH230310   5.012   3.550   8.333 -0.0577  0.2883 -0.3689
 2892TIP3    H130311   4.964   3.626   8.298 -0.9022  1.6386  3.2527
 2892TIP3    H230312   5.102   3.563   8.302 -0.5566  1.7404 -1.3606
 2893TIP3   OH230313   2.210   6.160   0.396  0.3530 -0.5096 -0.5209
 2893TIP3    H130314   2.189   6.091   0.334 -1.0704 -0.6881  0.1233
 2893TIP3    H230315   2.246   6.114   0.472  2.6152 -0.2537 -1.3658
 2894TIP3   OH230316   1.279   5.447   7.328 -0.5012  0.0591  0.5478
 2894TIP3    H130317   1.281   5.461   7.233  0.2380 -0.9921  0.3851
 2894TIP3    H230318   1.216   5.376   7.340  0.3238 -0.6699  0.6970
 2895TIP3   OH230319   2.614   2.896   8.419 -0.0440  0.2190  0.3729
 2895TIP3    H130320   2.537   2.932   8.463 -0.6617  0.8947 -1.1987
 2895TIP3    H230321   2.585   2.881   8.329  1.4284 -0.3137 -0.0314
 2896TIP3   OH230322   0.831   5.862   7.755  0.4069 -0.0046  0.2311
 2896TIP3    H130323   0.908   5.808   7.740  0.5670  0.7609 -1.9873
 2896TIP3    H230324   0.864   5.938   7.804  0.6136 -0.7010  1.2152
 2897TIP3   OH230325   1.161   3.070   1.012 -0.0177 -0.1211  0.4378
 2897TIP3    H130326   1.110   3.147   1.036  0.9633  0.1335  1.7923
 2897TIP3    H230327   1.245   3.081   1.058  1.0790 -0.7855 -1.2764
 2898TIP3   OH230328   1.951   3.326   8.307 -0.4680  0.1928  0.3677
 2898TIP3    H130329   1.944   3.403   8.250 -2.1029 -0.6465 -0.6521
 2898TIP3    H230330   1.873   3.330   8.363  0.5143  0.3671  1.7717
 2899TIP3   OH230331   5.561   2.133   8.815 -0.1127  0.1416  0.2212
 2899TIP3    H130332   5.635   2.114   8.757  0.1864  0.7206  0.4035
 2899TIP3    H230333   5.484   2.126   8.759  0.0086 -1.1199  0.1717
 2900TIP3   OH230334   6.419   3.953   1.979 -0.3724  0.3258  0.0141
 2900TIP3    H130335   6.496   3.945   1.923 -0.6242 -0.0483 -0.2846
 2900TIP3    H230336   6.450   4.001   2.056  0.0803  0.4580 -0.2480
 2901TIP3   OH230337   4.328   3.644   0.761  0.0383 -0.3608  0.7904
 2901TIP3    H130338   4.414   3.655   0.721 -0.2755 -0.7241 -0.0042
 2901TIP3    H230339   4.321   3.549   0.776 -0.6546 -0.4725 -0.1561
 2902TIP3   OH230340   3.065   0.663   0.880  0.0536  0.1855 -0.2069
 2902TIP3    H130341   3.001   0.683   0.948 -0.6743 -0.0405 -0.8155
 2902TIP3    H230342   3.102   0.748   0.856 -1.0060  0.4953 -0.8025
 2903TIP3   OH230343   1.998   0.575   8.277  0.3368  0.2956 -0.1917
 2903TIP3    H130344   1.973   0.665   8.257 -0.0112 -0.0557 -1.4835
 2903TIP3    H230345   1.922   0.523   8.252  0.8179 -0.4161 -0.2013
 2904TIP3   OH230346   3.935   3.246   1.686 -0.4747  0.1998  0.4356
 2904TIP3    H130347   3.979   3.296   1.755 -2.3104 -0.2312  2.0186
 2904TIP3    H230348   3.912   3.163   1.728 -0.7344 -0.4922 -1.0328
 2905TIP3   OH230349   4.955   2.016   7.572  0.1472  0.1852 -0.0492
 2905TIP3    H130350   4.947   2.099   7.618  0.5365  0.6539 -0.8137
 2905TIP3    H230351   4.909   2.029   7.490  0.2726 -0.3345 -0.2047
 2906TIP3   OH230352   4.765   3.964   2.121  0.4920  0.1218  0.3955
 2906TIP3    H130353   4.855   3.930   2.129  0.0041 -0.7354  3.1870
 2906TIP3    H230354   4.746   4.002   2.206 -2.0139 -0.2773  0.0797
 2907TIP3   OH230355   0.619   2.728   0.797  0.1811  0.5810 -0.0665
 2907TIP3    H130356   0.567   2.800   0.762  0.1761  1.1062  0.9647
 2907TIP3    H230357   0.680   2.770   0.858 -0.2119 -0.3218  0.9997
 2908TIP3   OH230358   5.184   0.788   6.759  0.0994  0.2091  0.5906
 2908TIP3    H130359   5.194   0.694   6.748 -1.8264  0.0495 -0.2070
 2908TIP3    H230360   5.113   0.797   6.823 -0.0375  1.0994  0.3293
 2909TIP3   OH230361   4.490   2.044   2.502  0.2683  0.3977  0.0622
 2909TIP3    H130362   4.437   1.996   2.565  0.8452  0.5822  0.7057
 2909TIP3    H230363   4.498   2.132   2.539  0.4282  0.5754 -0.3790
 2910TIP3   OH230364   1.580   4.259   8.403 -0.0166 -0.5455 -0.5280
 2910TIP3    H130365   1.660   4.223   8.364 -0.6168 -0.7556 -1.5879
 2910TIP3    H230366   1.567   4.206   8.482  1.3297  0.0296  0.1154
 2911TIP3   OH230367   2.793   1.302   7.959  0.4954 -0.0199 -0.1704
 2911TIP3    H130368   2.834   1.239   8.018  0.1418  1.7875  2.1789
 2911TIP3    H230369   2.852   1.378   7.960 -0.0848  0.4658 -1.2808
 2912TIP3   OH230370   3.695   0.771   1.218 -0.1336  0.2930  0.0917
 2912TIP3    H130371   3.683   0.865   1.203  0.2149  0.3589  0.1991
 2912TIP3    H230372   3.663   0.757   1.308 -0.6452  0.2151 -0.1006
 2913TIP3   OH230373   0.935   2.309   6.939  0.2244 -0.1922 -0.1430
 2913TIP3    H130374   0.949   2.284   6.848 -0.6468  2.3021 -1.0589
 2913TIP3    H230375   1.021   2.300   6.980  0.5471 -1.6902 -1.1062
 2914TIP3   OH230376   5.279   6.345   0.611  0.1088 -0.2985  0.2618
 2914TIP3    H130377   5.319   6.312   0.530 -1.0808 -1.8520  0.2514
 2914TIP3    H230378   5.340   6.319   0.680  0.0686 -0.9640  0.0604
 2915TIP3   OH230379   4.581   4.313   7.458  0.4668  0.1254  0.6322
 2915TIP3    H130380   4.654   4.340   7.403 -0.5284  0.9851 -0.3206
 2915TIP3    H230381   4.587   4.218   7.460  1.6236  0.1830  0.6032
 2916TIP3   OH230382   2.798   3.117   0.939  0.3126  0.3618  0.0258
 2916TIP3    H130383   2.780   3.111   0.845  1.3553 -1.1489 -0.1228
 2916TIP3    H230384   2.835   3.204   0.951  0.1874  0.5583 -0.9703
 2917TIP3   OH230385   4.724   4.508   8.734  0.3440  0.2027  0.4608
 2917TIP3    H130386   4.747   4.555   8.654 -0.1635  1.7421  1.1900
 2917TIP3    H230387   4.793   4.441   8.742  0.8959  0.5851 -0.7768
 2918TIP3   OH230388   1.832   3.735   8.493 -0.0316  0.0457 -0.6914
 2918TIP3    H130389   1.794   3.754   8.407  1.3860 -1.5159 -1.7203
 2918TIP3    H230390   1.763   3.689   8.540 -0.5559  0.1890 -1.3069
 2919TIP3   OH230391   6.542   0.616   8.075  0.1725  0.2711 -0.2155
 2919TIP3    H130392   6.537   0.645   7.983 -0.4495  1.4951  0.1784
 2919TIP3    H230393   6.485   0.676   8.122  1.4555  0.4723  1.1713
 2920TIP3   OH230394   2.196   5.376   7.934  0.0935 -0.3617 -0.3944
 2920TIP3    H130395   2.207   5.305   7.996  0.6060  0.9606  1.1055
 2920TIP3    H230396   2.253   5.446   7.967 -1.8679  1.4605 -0.6348
 2921TIP3   OH230397   1.243   1.963   6.736 -0.2226  0.2955  0.1860
 2921TIP3    H130398   1.225   1.884   6.686 -0.0281 -0.3465  1.1052
 2921TIP3    H230399   1.318   2.003   6.693  0.0683 -0.3540  0.0921
 2922TIP3   OH230400   5.348   6.045   1.570  0.7613  0.2238  0.0051
 2922TIP3    H130401   5.253   6.036   1.571  0.8116 -0.4272 -0.7910
 2922TIP3    H230402   5.364   6.119   1.511  0.7604  0.3115  0.1124
 2923TIP3   OH230403   4.120   4.482   7.452 -0.0536  0.2737 -0.2604
 2923TIP3    H130404   4.155   4.571   7.459 -0.4718  0.5478 -1.3621
 2923TIP3    H230405   4.040   4.483   7.505 -0.0329  0.5547 -0.2323
 2924TIP3   OH230406   0.447   1.316   0.334  0.3023 -0.6824  0.2727
 2924TIP3    H130407   0.541   1.328   0.326  0.0185  1.2350 -0.6273
 2924TIP3    H230408   0.417   1.293   0.246 -0.4084  1.7559 -0.2036
 2925TIP3   OH230409   1.117   0.070   8.050 -0.2293 -0.0178 -0.9625
 2925TIP3    H130410   1.073  -0.005   8.012  0.6789 -0.7465 -0.6227
 2925TIP3    H230411   1.200   0.035   8.083  0.2604  1.1519 -0.8980
 2926TIP3   OH230412   1.227   0.021   0.958  0.6878  0.2376 -0.3972
 2926TIP3    H130413   1.210  -0.025   0.876 -0.7030 -1.3864  0.7216
 2926TIP3    H230414   1.305  -0.022   0.994  0.6440  0.1847 -0.3639
 2927TIP3   OH230415   5.103   4.570   1.892  0.2959  0.2572 -0.3140
 2927TIP3    H130416   5.138   4.656   1.868  1.0102 -0.2335 -1.0515
 2927TIP3    H230417   5.074   4.581   1.983 -0.8771  1.6577 -0.8209
 2928TIP3   OH230418   3.364   2.103   8.435  0.0239  0.0621  0.0765
 2928TIP3    H130419   3.385   2.093   8.342 -1.7739  0.0471 -0.3723
 2928TIP3    H230420   3.290   2.043   8.449 -1.2955  1.7833  0.9019
 2929TIP3   OH230421   0.874   2.714   0.392 -0.2841 -0.0532  0.1424
 2929TIP3    H130422   0.968   2.714   0.411  0.0266 -0.0795 -1.3434
 2929TIP3    H230423   0.862   2.783   0.327 -1.3778  0.2546  0.6438
 2930TIP3   OH230424   4.669   5.609   0.656 -0.2031  0.1267 -0.7626
 2930TIP3    H130425   4.743   5.640   0.708  0.1135 -0.9565 -0.5401
 2930TIP3    H230426   4.708   5.555   0.588 -0.8532 -1.8004  0.3197
 2931TIP3   OH230427   3.905   3.148   1.428 -0.2908  0.0268  0.1868
 2931TIP3    H130428   3.917   3.173   1.520  0.5253 -3.0049  1.0363
 2931TIP3    H230429   3.812   3.130   1.420 -0.4407  0.7503  0.2842
 2932TIP3   OH230430   5.918   4.626   0.778 -0.3827  0.1473 -0.5940
 2932TIP3    H130431   5.971   4.547   0.786 -1.1590 -0.2074  2.2952
 2932TIP3    H230432   5.970   4.694   0.820 -1.6073  0.0773  1.1140
 2933TIP3   OH230433   3.897   2.873   8.667  0.7782  0.3423  0.0636
 2933TIP3    H130434   3.972   2.819   8.644  0.2225 -0.2547 -0.3676
 2933TIP3    H230435   3.902   2.881   8.763  1.2668  0.1348  0.0597
 2934TIP3   OH230436   3.025   0.250   0.384 -0.0801  0.0606  0.1753
 2934TIP3    H130437   2.987   0.207   0.307 -1.7617 -0.0660  1.0180
 2934TIP3    H230438   3.115   0.218   0.388 -0.2733 -0.6997 -1.1693
 2935TIP3   OH230439   1.344   3.166   0.025 -0.5759 -0.0196  0.5479
 2935TIP3    H130440   1.367   3.259   0.032 -2.2917  0.5316 -0.4961
 2935TIP3    H230441   1.265   3.157   0.079 -2.3320 -0.0804 -1.8811
 2936TIP3   OH230442   2.368   5.285   7.362 -0.4050  0.3797 -0.1565
 2936TIP3    H130443   2.444   5.302   7.417 -0.8035 -1.6976  1.1409
 2936TIP3    H230444   2.404   5.246   7.282  0.0483  1.8425 -0.6943
 2937TIP3   OH230445   2.000   0.909   7.255 -0.2133  0.2573  0.1266
 2937TIP3    H130446   2.029   0.898   7.165 -0.5028  1.0055 -0.0718
 2937TIP3    H230447   2.056   0.851   7.307 -1.1663 -1.4576 -0.7189
 2938TIP3   OH230448   1.586   2.435   8.313 -0.2408  0.0344 -0.6608
 2938TIP3    H130449   1.669   2.478   8.291 -0.4853  0.2579 -1.1656
 2938TIP3    H230450   1.576   2.367   8.246  0.3502 -1.1081  0.3727
 2939TIP3   OH230451   1.929   3.070   6.851 -0.5373 -0.5527 -0.2665
 2939TIP3    H130452   1.973   3.131   6.910  0.2082 -0.2114 -1.1541
 2939TIP3    H230453   1.993   3.054   6.782 -2.1810  0.8977 -2.2486
 2940TIP3   OH230454   6.650   3.778   1.295 -0.3830  0.0701 -0.6689
 2940TIP3    H130455   6.575   3.725   1.269  0.5990 -1.8063  0.1346
 2940TIP3    H230456   6.661   3.760   1.388 -0.0598  1.8012 -0.3435
 2941TIP3   OH230457   5.344   3.682   7.318 -0.0514 -0.0773 -0.2096
 2941TIP3    H130458   5.368   3.612   7.258 -1.2619  0.1765 -1.0335
 2941TIP3    H230459   5.382   3.761   7.280  0.5306 -0.1417  0.2248
 2942TIP3   OH230460   1.013   6.003   8.065  0.7327  0.1535 -0.1205
 2942TIP3    H130461   1.028   6.050   8.147  2.0128 -0.4652  0.0275
 2942TIP3    H230462   1.100   5.996   8.025  0.2684 -0.3695 -1.0812
 2943TIP3   OH230463   2.910   0.463   7.848  0.2872 -1.1410 -0.3265
 2943TIP3    H130464   2.945   0.425   7.768  0.4990 -0.6524 -0.4664
 2943TIP3    H230465   2.842   0.523   7.818 -0.1774 -1.5387 -0.0943
 2944TIP3   OH230466   6.730   2.082   2.045 -0.2380  0.0837 -0.5353
 2944TIP3    H130467   6.806   2.026   2.030 -1.1232 -0.6551 -2.8564
 2944TIP3    H230468   6.688   2.046   2.123 -0.0377 -1.6594 -1.1882
 2945TIP3   OH230469   1.201   2.975   1.902  0.0155 -0.1649 -0.0250
 2945TIP3    H130470   1.113   2.994   1.869  0.5183  2.7324 -0.0180
 2945TIP3    H230471   1.210   3.030   1.980  1.9043 -0.1489 -0.1949
 2946TIP3   OH230472   0.581   1.694   1.433 -0.1730 -0.5709 -0.0891
 2946TIP3    H130473   0.569   1.784   1.462 -2.5160 -0.5430 -0.8664
 2946TIP3    H230474   0.534   1.641   1.498 -0.6732 -0.9943 -0.7657
 2947TIP3   OH230475   1.578   2.562   0.137 -0.0457  0.1070 -0.2465
 2947TIP3    H130476   1.605   2.549   0.046 -1.1922  0.1349 -0.6160
 2947TIP3    H230477   1.482   2.559   0.134 -0.0954 -0.1675  1.0069
 2948TIP3   OH230478   4.990   5.964   0.120 -0.2989 -0.1005 -0.0812
 2948TIP3    H130479   5.016   5.995   0.207 -2.6702  0.7516  0.4169
 2948TIP3    H230480   4.895   5.979   0.118 -0.2654  0.1493 -2.9216
 2949TIP3   OH230481   2.240   4.388   0.852 -0.4489 -0.5134  0.0935
 2949TIP3    H130482   2.183   4.318   0.820 -1.0112 -0.1717  0.3388
 2949TIP3    H230483   2.273   4.431   0.773  0.2225 -1.2972 -0.0738
 2950TIP3   OH230484   5.269   1.258   1.108 -0.2250 -0.0055 -0.0546
 2950TIP3    H130485   5.332   1.331   1.108 -0.3835  0.3031 -3.5432
 2950TIP3    H230486   5.253   1.240   1.016 -0.4137 -4.3658  0.6012
 2951TIP3   OH230487   0.121   3.924   6.779 -0.1613 -0.0228  0.3335
 2951TIP3    H130488   0.044   3.980   6.774 -1.1673 -1.4147 -0.3949
 2951TIP3    H230489   0.134   3.892   6.690 -0.9684 -2.6093  1.0391
 2952TIP3   OH230490   3.773   6.263   7.487 -0.9127 -0.1242  1.0687
 2952TIP3    H130491   3.833   6.213   7.542 -1.8587 -0.2905  1.9839
 2952TIP3    H230492   3.710   6.301   7.548 -1.0465  1.0303  0.2529
 2953TIP3   OH230493   1.511   4.875   8.581  0.0186 -0.0499  0.0552
 2953TIP3    H130494   1.536   4.966   8.592  0.1017  0.4276 -3.0852
 2953TIP3    H230495   1.436   4.878   8.521 -0.5779 -2.0249  0.6066
 2954TIP3   OH230496   4.257   4.215   1.746  0.2192 -0.3069 -0.3201
 2954TIP3    H130497   4.328   4.167   1.703  0.5502 -0.1797  0.0824
 2954TIP3    H230498   4.271   4.306   1.720  0.6723 -0.1639  0.3843
 2955TIP3   OH230499   0.892   5.260   0.468 -0.1576 -0.4573  0.1788
 2955TIP3    H130500   0.955   5.196   0.434  0.8143  0.0949  0.8881
 2955TIP3    H230501   0.845   5.291   0.390  0.9427 -0.3583 -0.4606
 2956TIP3   OH230502   6.217   0.403   0.497  0.5632  0.2000  0.4175
 2956TIP3    H130503   6.150   0.398   0.565 -0.6965  1.8572 -0.6231
 2956TIP3    H230504   6.266   0.321   0.506 -0.5309 -0.3127  2.2946
 2957TIP3   OH230505   3.852   6.414   8.704 -0.0276 -0.0617  0.1285
 2957TIP3    H130506   3.900   6.497   8.698  1.4461 -0.8162  0.7754
 2957TIP3    H230507   3.832   6.405   8.797  0.2584 -0.6512  0.1363
 2958TIP3   OH230508   5.278   0.500   7.262  0.0377 -0.7194 -0.7377
 2958TIP3    H130509   5.258   0.570   7.199  0.1000  0.0653  0.0947
 2958TIP3    H230510   5.327   0.436   7.211  0.5376  0.1401 -1.3751
 2959TIP3   OH230511   5.894   4.069   8.512 -0.3867  0.2820 -0.1149
 2959TIP3    H130512   5.824   4.053   8.576 -1.6580 -0.0247 -1.5261
 2959TIP3    H230513   5.872   4.012   8.438  1.6278 -0.1455 -0.4270
 2960TIP3   OH230514   5.053   1.237   1.287  0.0391  0.6887 -0.1543
 2960TIP3    H130515   4.969   1.211   1.249 -1.0086  0.5563  2.0625
 2960TIP3    H230516   5.117   1.223   1.218 -1.7211  0.4701 -1.8062
 2961TIP3   OH230517   0.303   4.877   1.698 -0.0286  0.3154  0.5329
 2961TIP3    H130518   0.301   4.843   1.609 -2.1486  1.2705  0.1551
 2961TIP3    H230519   0.274   4.804   1.752 -3.0739  0.9266 -0.1051
 2962TIP3   OH230520   5.140   3.826   8.317 -0.2050 -0.0401  0.0099
 2962TIP3    H130521   5.191   3.773   8.378 -0.4409 -0.6636 -0.3257
 2962TIP3    H230522   5.204   3.880   8.272  0.3993 -2.0165 -1.6307
 2963TIP3   OH230523   5.608   3.797   7.410  0.5183 -0.0164 -0.0464
 2963TIP3    H130524   5.534   3.743   7.438  0.8069 -1.1043 -1.3108
 2963TIP3    H230525   5.576   3.845   7.335  1.2412 -0.9415 -0.9782
 2964TIP3   OH230526   1.121   3.257   1.313  0.5170  0.0317  0.3263
 2964TIP3    H130527   1.176   3.302   1.378  1.7750 -0.7030 -0.1991
 2964TIP3    H230528   1.139   3.164   1.326 -1.4003 -0.3010  0.8124
 2965TIP3   OH230529   6.784   2.428   8.012  0.0118 -0.1155  0.8361
 2965TIP3    H130530   6.717   2.440   7.945  1.4822  0.7271 -0.5647
 2965TIP3    H230531   6.795   2.333   8.019  0.7602 -0.2132 -1.1470
 2966TIP3   OH230532   5.579   2.243   8.491 -0.0948  0.8273 -0.0676
 2966TIP3    H130533   5.596   2.226   8.399 -3.0081 -0.8276 -0.4192
 2966TIP3    H230534   5.503   2.301   8.491 -0.4315  0.4219  1.2680
 2967TIP3   OH230535   5.354   4.542   2.873 -0.4426 -0.7962  0.1722
 2967TIP3    H130536   5.374   4.514   2.784  0.1096 -1.1847  0.4122
 2967TIP3    H230537   5.417   4.612   2.891  0.4526 -1.7364  0.7801
 2968TIP3   OH230538   4.908   5.710   0.273 -0.0986 -0.0181 -0.1180
 2968TIP3    H130539   4.909   5.793   0.225 -2.0520 -0.5219 -1.1264
 2968TIP3    H230540   4.986   5.664   0.243  1.8094  1.9659  1.5072
 2969TIP3   OH230541   6.438   4.741   1.814 -0.0744 -0.4293  0.2952
 2969TIP3    H130542   6.487   4.694   1.881 -1.8425 -0.7579  1.4268
 2969TIP3    H230543   6.376   4.677   1.780  0.4013 -0.0935 -1.2544
 2970TIP3   OH230544   1.669   1.639   1.848 -0.2664 -0.0779 -0.7573
 2970TIP3    H130545   1.657   1.608   1.938  2.1556  1.1048  0.0589
 2970TIP3    H230546   1.631   1.726   1.847 -0.3074 -0.0968 -0.8853
 2971TIP3   OH230547   5.279   1.652   2.916  0.1717  0.1637  0.4142
 2971TIP3    H130548   5.352   1.706   2.945  1.2481 -1.2250  0.4394
 2971TIP3    H230549   5.254   1.602   2.993  0.1561 -0.4081  0.0473
 2972TIP3   OH230550   1.129   3.218   6.755 -0.6545 -0.0413  0.0940
 2972TIP3    H130551   1.220   3.225   6.727 -1.1901 -2.0845 -2.4548
 2972TIP3    H230552   1.102   3.309   6.771  1.1703  0.8202 -1.3410
 2973TIP3   OH230553   1.480   0.060   1.353  0.5641  0.0264 -0.0590
 2973TIP3    H130554   1.560   0.101   1.322 -1.3323  2.9366 -1.6079
 2973TIP3    H230555   1.475  -0.023   1.306  1.8175  0.6013 -1.2589
 2974TIP3   OH230556   5.502   5.997   8.789 -0.4901 -0.4308 -0.4483
 2974TIP3    H130557   5.520   6.026   8.700 -0.6292 -0.4832 -0.4930
 2974TIP3    H230558   5.589   5.988   8.829 -0.4867  2.1729  0.2569
 2975TIP3   OH230559   3.030   0.787   7.105 -0.4276  0.5368 -0.8770
 2975TIP3    H130560   3.037   0.701   7.147  0.6277  0.7874 -0.5201
 2975TIP3    H230561   2.981   0.771   7.025  0.2260 -0.4898 -1.0799
 2976TIP3   OH230562   4.176   5.571   7.890  0.2447  0.2587  0.2101
 2976TIP3    H130563   4.255   5.622   7.872  0.0712  0.8686  1.1370
 2976TIP3    H230564   4.190   5.535   7.977 -0.9682  1.2914  0.8541
 2977TIP3   OH230565   0.320   3.476   1.061 -0.2634  0.1126  0.2582
 2977TIP3    H130566   0.260   3.479   1.135  0.4884  0.0631  0.8854
 2977TIP3    H230567   0.403   3.507   1.096  0.5605 -1.5623 -0.1092
 2978TIP3   OH230568   2.914   3.383   8.076 -0.2732 -0.1761  0.0038
 2978TIP3    H130569   2.980   3.323   8.110  1.1570  0.9369 -0.6829
 2978TIP3    H230570   2.927   3.464   8.125 -1.0733  0.0952 -0.2059
 2979TIP3   OH230571   2.496   4.199   8.658  0.0402 -0.2018  0.4596
 2979TIP3    H130572   2.504   4.219   8.565 -1.2567 -0.0204  0.3754
 2979TIP3    H230573   2.573   4.240   8.698  0.8415 -0.6434 -0.5666
 2980TIP3   OH230574   4.265   0.330   0.184  0.9752  0.2567  0.7419
 2980TIP3    H130575   4.227   0.282   0.257 -0.8769 -2.3735 -1.7039
 2980TIP3    H230576   4.345   0.281   0.162  0.6490  0.0221  0.0432
 2981TIP3   OH230577   5.043   3.364   0.919  0.8020 -0.0892 -0.4065
 2981TIP3    H130578   5.042   3.404   0.832  0.8156 -0.4258 -0.5632
 2981TIP3    H230579   5.108   3.293   0.912  2.0754  0.9583  0.3641
 2982TIP3   OH230580   3.284   2.120   7.445  0.3041 -0.2963 -0.1091
 2982TIP3    H130581   3.214   2.069   7.404  1.5475 -2.3159  0.1641
 2982TIP3    H230582   3.355   2.117   7.381  0.4715  0.9796 -0.0017
 2983TIP3   OH230583   0.636   4.004   0.744  0.3503 -0.2681  0.0320
 2983TIP3    H130584   0.639   3.932   0.807  0.9480  0.4736  0.8761
 2983TIP3    H230585   0.722   4.004   0.703 -0.5655 -1.8299 -2.0894
 2984TIP3   OH230586   1.727   2.728   0.272  0.3676  0.5051 -0.0725
 2984TIP3    H130587   1.675   2.664   0.223 -1.5347  2.7532 -1.1742
 2984TIP3    H230588   1.669   2.803   0.283  3.1737  3.0329 -1.0045
 2985TIP3   OH230589   3.533   5.332   7.996  0.7779 -0.2830  0.5517
 2985TIP3    H130590   3.615   5.366   7.960 -0.1533  0.0479 -1.4440
 2985TIP3    H230591   3.465   5.388   7.957 -0.3403  1.2548  4.2373
 2986TIP3   OH230592   0.874   3.043   6.808  0.2224  0.6686 -0.2292
 2986TIP3    H130593   0.923   2.961   6.797  0.8882  1.1768 -1.2456
 2986TIP3    H230594   0.938   3.111   6.787 -0.5908  1.4064 -0.3444
 2987TIP3   OH230595   6.059   0.468   1.173 -0.2481 -0.5418 -0.4731
 2987TIP3    H130596   6.038   0.410   1.100  0.9064  0.1624 -1.3943
 2987TIP3    H230597   6.041   0.556   1.140  0.0271 -0.2314  0.1781
 2988TIP3   OH230598   0.392   3.040   2.856  0.5816  0.1576 -0.6801
 2988TIP3    H130599   0.474   2.995   2.878 -0.8886 -1.6254  1.6582
 2988TIP3    H230600   0.404   3.128   2.889  1.0079 -0.5563  1.1892
 2989TIP3   OH230601   6.414   0.778   0.354  0.1650 -0.2223  0.6816
 2989TIP3    H130602   6.483   0.834   0.318 -0.2800 -0.1468 -0.0874
 2989TIP3    H230603   6.461   0.710   0.403  0.7196  0.7103  1.4733
 2990TIP3   OH230604   5.312   2.012   0.140  0.5646 -0.1178 -0.2638
 2990TIP3    H130605   5.395   2.045   0.105 -0.0782  0.2319 -1.5281
 2990TIP3    H230606   5.246   2.047   0.081 -0.4530 -0.8003  0.4355
 2991TIP3   OH230607   4.171   0.203   6.436  0.0244 -0.6549  0.1070
 2991TIP3    H130608   4.082   0.168   6.437  1.4010 -4.6574  0.1435
 2991TIP3    H230609   4.183   0.239   6.523 -1.3292 -0.6103  0.3057
 2992TIP3   OH230610   6.720   5.695   0.070 -0.5473 -0.2137 -0.4713
 2992TIP3    H130611   6.665   5.644   0.011 -1.4612  1.9650 -1.5895
 2992TIP3    H230612   6.740   5.635   0.142 -2.3222 -1.8379 -1.2593
 2993TIP3   OH230613   5.760   4.091   0.548  0.0121  0.0470  0.3840
 2993TIP3    H130614   5.716   4.143   0.616  0.6500  0.8590  0.1833
 2993TIP3    H230615   5.688   4.058   0.494 -0.4282  0.3664  0.7598
 2994TIP3   OH230616   2.196   2.812   7.873  0.7257 -0.1416  0.3306
 2994TIP3    H130617   2.253   2.888   7.884  1.0560 -0.2615 -0.4961
 2994TIP3    H230618   2.116   2.847   7.835  0.3634 -0.0206  1.1882
 2995TIP3   OH230619   0.352   0.319   0.141 -0.0312  0.2969 -0.4217
 2995TIP3    H130620   0.284   0.274   0.091  1.5899 -1.5219 -1.1059
 2995TIP3    H230621   0.426   0.325   0.080  1.2657 -0.0345  1.0773
 2996TIP3   OH230622   3.024   1.416   7.310  0.1107 -0.1841  0.0331
 2996TIP3    H130623   2.973   1.436   7.232  0.1457  0.3908  0.1533
 2996TIP3    H230624   3.053   1.501   7.342  3.3202 -0.5913 -1.4656
 2997TIP3   OH230625   6.438   5.508   1.533 -0.7323  0.7774  0.8091
 2997TIP3    H130626   6.531   5.487   1.525 -1.2128 -0.7421 -1.9310
 2997TIP3    H230627   6.424   5.580   1.472 -1.5615  0.0452  0.0926
 2998TIP3   OH230628   2.010   1.286   0.494 -0.4355  0.7107 -0.2360
 2998TIP3    H130629   2.065   1.344   0.441  0.9019  1.2114  1.6304
 2998TIP3    H230630   2.030   1.198   0.462 -0.8680  1.0820 -1.6126
 2999TIP3   OH230631   3.734   0.800   8.135  0.0741  0.5495 -0.5556
 2999TIP3    H130632   3.666   0.849   8.181  0.9732 -0.0114  1.5014
 2999TIP3    H230633   3.807   0.862   8.127  0.9863 -0.1498  1.5026
 3000TIP3   OH230634   3.486   4.584   2.336 -0.5466  1.1823 -0.0138
 3000TIP3    H130635   3.402   4.581   2.290 -0.8678 -0.8399  0.5977
 3000TIP3    H230636   3.462   4.599   2.428 -0.3573 -0.1863  0.2903
 3001TIP3   OH230637   5.618   5.515   0.141 -0.5605  0.4374  0.1516
 3001TIP3    H130638   5.650   5.597   0.179 -0.1525 -0.3506  1.5556
 3001TIP3    H230639   5.638   5.448   0.206 -2.7461 -0.5011 -0.0383
 3002TIP3   OH230640   2.488   0.473   8.278 -0.2172 -0.1097  0.4404
 3002TIP3    H130641   2.557   0.531   8.309  0.8722 -1.0775 -0.0904
 3002TIP3    H230642   2.534   0.397   8.243 -1.5515 -0.7436 -0.0290
 3003TIP3   OH230643   0.588   0.674   1.721  0.2373  0.0638  0.6390
 3003TIP3    H130644   0.577   0.620   1.800 -0.7006 -0.4466  0.1702
 3003TIP3    H230645   0.658   0.630   1.672  0.4412  0.0701  0.9231
 3004TIP3   OH230646   2.562   6.697   1.452 -0.5949  0.8567  0.0113
 3004TIP3    H130647   2.597   6.776   1.411  0.1355 -0.1500 -1.4066
 3004TIP3    H230648   2.467   6.702   1.437 -0.3091  0.2981 -2.3315
 3005TIP3   OH230649   6.654   3.181   1.139 -0.5760 -0.7299 -0.4300
 3005TIP3    H130650   6.726   3.238   1.113  0.4303 -1.6552  0.2754
 3005TIP3    H230651   6.578   3.216   1.091  0.0832  0.9283 -0.3436
 3006TIP3   OH230652   4.794   0.270   0.709 -0.4398  0.0805  0.4276
 3006TIP3    H130653   4.821   0.323   0.634 -1.9246 -0.0429 -0.2218
 3006TIP3    H230654   4.706   0.240   0.687  0.0565 -2.0274  1.1312
 3007TIP3   OH230655   4.466   4.156   1.473  0.0381 -0.3727 -0.4531
 3007TIP3    H130656   4.482   4.177   1.566  2.0463 -2.4047 -0.2635
 3007TIP3    H230657   4.433   4.238   1.436  0.8354  1.0112  1.6847
 3008TIP3   OH230658   5.912   5.951   8.793 -0.2951 -0.1843  1.0177
 3008TIP3    H130659   5.971   5.980   8.863 -3.9327  3.8180  2.9068
 3008TIP3    H230660   5.854   5.888   8.835 -0.8672  0.2478  0.8873
 3009TIP3   OH230661   3.891   3.842   6.921 -0.1110 -0.4128 -0.8180
 3009TIP3    H130662   3.809   3.801   6.949  0.4060 -1.3758 -0.6633
 3009TIP3    H230663   3.873   3.936   6.922 -0.8653 -0.5495  0.3306
 3010TIP3   OH230664   1.062   0.139   7.756 -0.1381 -0.0318  0.1940
 3010TIP3    H130665   1.108   0.222   7.738 -0.2250 -0.4107 -2.1772
 3010TIP3    H230666   1.077   0.123   7.849  1.1541  1.8805  0.3879
 3011TIP3   OH230667   1.782   4.349   0.160 -0.1775 -0.6533  0.5042
 3011TIP3    H130668   1.735   4.358   0.077 -1.6893  1.2317  1.4914
 3011TIP3    H230669   1.717   4.314   0.221 -0.4395  1.9985  1.8942
 3012TIP3   OH230670   5.308   6.706   0.322  0.8442  0.5049 -0.2910
 3012TIP3    H130671   5.357   6.682   0.400 -0.8067 -4.2831 -0.4182
 3012TIP3    H230672   5.371   6.698   0.251  1.6003  1.8367  0.1975
 3013TIP3   OH230673   6.623   5.925   8.348  0.2823 -0.1579 -0.2183
 3013TIP3    H130674   6.706   5.889   8.319  0.7045  0.8468 -0.2966
 3013TIP3    H230675   6.647   5.989   8.415 -0.3603  0.7693 -0.8591
 3014TIP3   OH230676   6.231   2.313   0.702 -0.2004 -0.2437  0.3464
 3014TIP3    H130677   6.184   2.394   0.723 -0.8069 -0.7807  1.1111
 3014TIP3    H230678   6.278   2.292   0.783 -1.0220 -1.3083  0.5639
 3015TIP3   OH230679   2.394   3.256   0.388  0.0854  0.2606  0.1702
 3015TIP3    H130680   2.412   3.225   0.299 -1.7564 -1.4907  0.3244
 3015TIP3    H230681   2.416   3.181   0.444 -0.8050  0.5725  0.9680
 3016TIP3   OH230682   4.178   4.386   8.738 -0.2634 -0.8079 -0.2158
 3016TIP3    H130683   4.274   4.384   8.735 -0.2733 -1.8752 -0.4348
 3016TIP3    H230684   4.157   4.361   8.828 -0.3312 -2.1609 -0.5771
 3017TIP3   OH230685   1.957   2.329   1.479 -0.2733 -0.3666  0.2439
 3017TIP3    H130686   1.890   2.311   1.545  0.3191 -0.4659  0.8300
 3017TIP3    H230687   1.998   2.411   1.508 -0.4015 -0.0989 -0.3239
 3018TIP3   OH230688   0.555   3.559   8.647 -0.1189 -0.0778  0.0981
 3018TIP3    H130689   0.508   3.621   8.703 -1.7656 -0.5200 -0.7419
 3018TIP3    H230690   0.633   3.607   8.619 -0.4573  0.9757  0.8854
 3019TIP3   OH230691   1.616   5.765   1.578 -0.3036  0.3581  0.0956
 3019TIP3    H130692   1.697   5.806   1.609  0.6048  0.0743 -1.7361
 3019TIP3    H230693   1.556   5.769   1.652  1.3669  0.6622  1.4775
 3020TIP3   OH230694   0.411   4.308   1.775  0.3621  0.5200 -0.5312
 3020TIP3    H130695   0.425   4.214   1.771  0.5324  0.5562 -0.7900
 3020TIP3    H230696   0.497   4.346   1.759 -0.0623  0.7487 -2.5149
 3021TIP3   OH230697   5.539   6.641   8.166 -0.6617 -0.3949 -0.5398
 3021TIP3    H130698   5.475   6.654   8.236  1.0065 -0.5513  1.0699
 3021TIP3    H230699   5.512   6.559   8.124 -0.9694 -0.9766  0.7479
 3022TIP3   OH230700   5.272   0.129   2.449 -0.2653 -0.6004 -0.8946
 3022TIP3    H130701   5.274   0.068   2.376  0.7541 -0.1897 -1.2313
 3022TIP3    H230702   5.364   0.140   2.475 -0.3109  1.3588 -1.3584
 3023TIP3   OH230703   6.452   3.191   2.708 -0.4287 -0.4949  0.4175
 3023TIP3    H130704   6.432   3.098   2.712  0.6852 -0.7852 -0.3775
 3023TIP3    H230705   6.486   3.212   2.795 -0.4927 -0.8616  0.5338
 3024TIP3   OH230706   3.913   0.400   7.502  0.8811 -0.3985  0.1986
 3024TIP3    H130707   3.969   0.342   7.450 -0.9756 -1.2535 -0.9695
 3024TIP3    H230708   3.834   0.349   7.519  0.2339  0.9123  1.3676
 3025TIP3   OH230709   6.372   2.172   7.999  0.3202 -0.4368 -0.7682
 3025TIP3    H130710   6.446   2.124   8.038  0.3666 -0.5213 -0.9611
 3025TIP3    H230711   6.413   2.236   7.941  0.3645  1.1686  0.9105
 3026TIP3   OH230712   3.431   0.654   1.714 -0.2381  0.2459  0.1051
 3026TIP3    H130713   3.370   0.654   1.640 -0.0402  2.2467 -0.1044
 3026TIP3    H230714   3.509   0.609   1.682 -0.7246 -0.2575 -0.3887
 3027TIP3   OH230715   4.763   0.637   1.914 -0.2689 -0.7627  0.2610
 3027TIP3    H130716   4.787   0.703   1.850 -0.2202 -0.5819  0.4645
 3027TIP3    H230717   4.832   0.642   1.980 -1.1677  0.1744  1.1639
 3028TIP3   OH230718   1.414   3.435   0.133 -0.0484  0.3132  0.0322
 3028TIP3    H130719   1.458   3.512   0.097 -0.1816  1.1085  1.4804
 3028TIP3    H230720   1.440   3.433   0.225 -0.9503 -0.7307  0.2984
 3029TIP3   OH230721   0.798   3.168   8.442 -0.0694 -0.6335  0.8998
 3029TIP3    H130722   0.833   3.096   8.493 -0.4950 -0.6241  1.2111
 3029TIP3    H230723   0.710   3.140   8.417 -0.5361  0.0712  1.6685
 3030TIP3   OH230724   6.630   2.817   2.930 -0.2322 -0.4406 -0.1562
 3030TIP3    H130725   6.611   2.728   2.958  1.6320 -0.8221  0.0488
 3030TIP3    H230726   6.718   2.812   2.893 -0.2668  1.2346 -0.5361
 3031TIP3   OH230727   2.124   6.771   8.753  0.4199 -0.5372  0.3661
 3031TIP3    H130728   2.069   6.829   8.700  0.5863  0.4458  1.2340
 3031TIP3    H230729   2.062   6.715   8.800  0.2063 -0.2579  0.4207
 3032TIP3   OH230730   5.159   5.463   6.798 -0.5902 -0.1341  0.3346
 3032TIP3    H130731   5.096   5.527   6.832 -0.0826  0.5172  0.0753
 3032TIP3    H230732   5.107   5.406   6.742 -1.3772 -1.0211  1.8944
 3033TIP3   OH230733   5.884   3.702   8.030  0.1199 -0.1423 -0.4560
 3033TIP3    H130734   5.793   3.676   8.023  0.1692 -0.3788 -0.2213
 3033TIP3    H230735   5.912   3.672   8.116  0.0980  0.9496 -0.0551
 3034TIP3   OH230736   5.208   1.403   7.963 -0.1998 -0.0641  0.3642
 3034TIP3    H130737   5.175   1.334   7.905  3.0086 -0.6219 -1.0233
 3034TIP3    H230738   5.203   1.364   8.051  1.6207 -2.2233 -0.3867
 3035TIP3   OH230739   2.078   0.648   0.595 -0.4281  0.3652  0.4252
 3035TIP3    H130740   2.067   0.664   0.689  0.6561  0.1069  0.6124
 3035TIP3    H230741   2.165   0.607   0.588 -1.0146 -0.7642 -0.5536
 3036TIP3   OH230742   5.412   0.194   0.356 -0.0965  0.3198  0.3576
 3036TIP3    H130743   5.353   0.157   0.422  0.6389 -1.1873  0.2076
 3036TIP3    H230744   5.394   0.144   0.277 -0.6215  1.7830 -0.4823
 3037TIP3   OH230745   1.526   5.722   0.396 -0.4415  0.0097 -0.1268
 3037TIP3    H130746   1.440   5.714   0.435  0.1940  1.7840  1.7812
 3037TIP3    H230747   1.511   5.767   0.313 -1.4001 -0.3792 -0.1765
 3038TIP3   OH230748   0.186   1.750   0.456  0.2812 -0.2549 -0.2387
 3038TIP3    H130749   0.256   1.729   0.395  0.7915  1.4391 -0.2900
 3038TIP3    H230750   0.144   1.827   0.419 -0.7810 -0.4645  0.4680
 3039TIP3   OH230751   6.512   0.799   1.496  0.0851 -0.7321 -0.1477
 3039TIP3    H130752   6.597   0.789   1.453  1.5894 -0.0360  2.4305
 3039TIP3    H230753   6.471   0.873   1.451  1.2102 -0.5395 -0.9004
 3040TIP3   OH230754   2.603   6.505   7.039 -0.2372  0.4777  0.1803
 3040TIP3    H130755   2.551   6.581   7.065  1.5673  1.7791  0.2065
 3040TIP3    H230756   2.589   6.498   6.944 -0.3655  0.8882  0.1661
 3041TIP3   OH230757   5.637   3.623   7.887  0.1569  0.1767 -0.2689
 3041TIP3    H130758   5.686   3.560   7.834  0.3430  1.3871 -1.5866
 3041TIP3    H230759   5.671   3.708   7.861  0.3859  0.8426  1.9560
 3042TIP3   OH230760   0.069   2.600   8.679 -0.2643  0.2120  0.4268
 3042TIP3    H130761   0.072   2.667   8.747  1.8409  1.7691 -1.0839
 3042TIP3    H230762   0.145   2.545   8.696 -2.3060 -2.3347  2.0305
 3043TIP3   OH230763   3.135   1.180   7.031 -0.2171 -0.2765 -0.0889
 3043TIP3    H130764   3.176   1.154   6.948  0.5759  0.7175 -0.0278
 3043TIP3    H230765   3.064   1.238   7.006  0.4768  0.6111 -0.0655
 3044TIP3   OH230766   4.994   4.305   1.984  0.0660  0.5893 -0.2025
 3044TIP3    H130767   4.975   4.389   1.941  0.3129  1.1189  0.6928
 3044TIP3    H230768   5.024   4.330   2.071  0.2742 -0.4368  0.0237
 3045TIP3   OH230769   1.463   6.662   8.577 -0.2227 -0.6514  0.2451
 3045TIP3    H130770   1.408   6.641   8.652  0.8374  0.1593  1.2853
 3045TIP3    H230771   1.503   6.746   8.599 -0.1952 -0.1978 -1.4123
 3046TIP3   OH230772   1.666   0.048   7.421  0.4701  0.0208  0.0897
 3046TIP3    H130773   1.654  -0.044   7.399 -1.6936  0.5301 -1.1807
 3046TIP3    H230774   1.622   0.096   7.351  2.0583  2.0731  0.3841
 3047TIP3   OH230775   2.110   1.536   7.642 -0.8145  0.6692  0.9280
 3047TIP3    H130776   2.203   1.556   7.648 -0.1582 -1.7503  0.2104
 3047TIP3    H230777   2.084   1.517   7.732 -0.6588  1.4862  1.1510
 3048TIP3   OH230778   4.084   4.094   8.010  0.4169 -0.1592  0.6468
 3048TIP3    H130779   4.138   4.145   8.070  0.5272 -0.1355  0.5292
 3048TIP3    H230780   4.033   4.036   8.066 -2.0719  2.2295  1.0775
 3049TIP3   OH230781   3.610   1.595   0.113  0.3102 -0.1746  0.1894
 3049TIP3    H130782   3.529   1.603   0.165 -0.2957 -1.9899 -0.3866
 3049TIP3    H230783   3.619   1.680   0.070 -0.3229  0.6567  1.6304
 3050TIP3   OH230784   4.467   1.293   7.810  0.3830  0.1757  0.0667
 3050TIP3    H130785   4.510   1.263   7.890  0.4069 -0.8370 -0.3104
 3050TIP3    H230786   4.406   1.361   7.839  0.2960 -0.2734  0.9687
 3051TIP3   OH230787   3.976   6.552   0.736  0.5342 -0.3027  0.4015
 3051TIP3    H130788   4.047   6.616   0.749  2.0976 -1.5452 -1.4408
 3051TIP3    H230789   3.926   6.587   0.662 -0.7620  0.4894  1.5985
 3052TIP3   OH230790   2.668   5.813   1.439 -0.0549  0.4516  0.1086
 3052TIP3    H130791   2.630   5.789   1.354 -0.5431 -0.3859  0.5474
 3052TIP3    H230792   2.592   5.827   1.496  0.2413 -1.7596  1.1428
 3053TIP3   OH230793   1.148   0.056   2.583  0.3783 -0.4980  0.2697
 3053TIP3    H130794   1.160   0.040   2.676  1.4165  1.0682  0.4335
 3053TIP3    H230795   1.226   0.106   2.557 -1.4342  2.0351 -0.6916
 3054TIP3   OH230796   6.627   5.937   7.948 -0.5619  0.3040  0.4704
 3054TIP3    H130797   6.536   5.958   7.969 -0.9539 -2.1277  1.6023
 3054TIP3    H230798   6.621   5.882   7.870  0.2247  2.2825 -1.0816
 3055TIP3   OH230799   1.350   5.748   8.656  0.5456 -0.3984 -0.4073
 3055TIP3    H130800   1.372   5.827   8.606  1.4525  1.6841  2.9252
 3055TIP3    H230801   1.429   5.730   8.707 -1.0870 -0.8160  2.1007
 3056TIP3   OH230802   1.695   3.381   2.164 -0.0988  0.1374 -0.1812
 3056TIP3    H130803   1.790   3.387   2.173  0.2067 -2.2190 -1.0821
 3056TIP3    H230804   1.670   3.311   2.224 -1.5862  2.0480  1.5139
 3057TIP3   OH230805   6.431   5.324   1.142  0.3694 -0.2996 -0.3551
 3057TIP3    H130806   6.338   5.303   1.142  0.2806  0.0883 -0.1760
 3057TIP3    H230807   6.439   5.398   1.082  0.1246  1.5227  1.7635
 3058TIP3   OH230808   0.112   2.382   1.972  0.0258  0.0629 -0.8389
 3058TIP3    H130809   0.023   2.347   1.974 -0.4608  1.2300 -0.7768
 3058TIP3    H230810   0.135   2.385   1.880 -0.2912  0.4429 -0.9068
 3059TIP3   OH230811   0.939   2.448   8.314  0.1495 -0.4659  0.2977
 3059TIP3    H130812   0.901   2.365   8.340 -1.8540  0.6021  0.9769
 3059TIP3    H230813   1.032   2.441   8.339 -0.6666 -1.2434  3.6238
 3060TIP3   OH230814   1.867   6.168   0.437  0.1498 -0.2487  0.0787
 3060TIP3    H130815   1.825   6.083   0.419 -1.5685  0.9720 -2.2355
 3060TIP3    H230816   1.961   6.150   0.429 -0.1461 -2.0010  0.0117
 3061TIP3   OH230817   1.250   0.326   8.806 -0.5163 -0.0379 -0.3283
 3061TIP3    H130818   1.196   0.378   8.866 -0.5839 -1.5846  1.0292
 3061TIP3    H230819   1.240   0.369   8.721 -0.7317  2.0056  0.6720
 3062TIP3   OH230820   3.748   5.852   0.423  0.3384 -0.1456  0.1546
 3062TIP3    H130821   3.681   5.838   0.489  1.6130 -0.4419  1.4300
 3062TIP3    H230822   3.725   5.792   0.352 -1.0071  0.1243  0.3366
 3063TIP3   OH230823   0.943   2.315   7.324  0.0896 -0.2715  0.6082
 3063TIP3    H130824   0.952   2.299   7.418 -0.7501 -2.0682  0.4297
 3063TIP3    H230825   0.973   2.234   7.283 -1.2951 -0.2313 -0.5645
 3064TIP3   OH230826   1.187   2.031   6.982  0.1217 -0.2837  0.2898
 3064TIP3    H130827   1.204   1.991   6.897 -1.7145  0.1143 -0.2986
 3064TIP3    H230828   1.212   2.123   6.970  1.8489 -0.6370  0.8560
 3065TIP3   OH230829   1.535   3.136   0.511  0.5735 -0.5467 -0.1995
 3065TIP3    H130830   1.626   3.135   0.540  1.0929  0.6160 -1.7097
 3065TIP3    H230831   1.531   3.070   0.441  0.1307 -0.8975  0.1454
 3066TIP3   OH230832   5.242   2.172   2.405 -0.2678 -0.1803  0.2154
 3066TIP3    H130833   5.192   2.202   2.481  1.5119  1.6044  0.7679
 3066TIP3    H230834   5.223   2.237   2.337  0.2829 -0.2257  0.0161
 3067TIP3   OH230835   5.808   4.733   1.003 -0.4578  0.0409  0.0867
 3067TIP3    H130836   5.857   4.806   0.964  0.2696 -0.0458  0.8035
 3067TIP3    H230837   5.819   4.661   0.941 -0.5555  0.3304 -0.2684
 3068TIP3   OH230838   0.147   4.117   1.546 -0.4480  0.0747 -0.2750
 3068TIP3    H130839   0.170   4.192   1.491  3.0800 -2.0687 -2.1321
 3068TIP3    H230840   0.084   4.068   1.494 -2.9479  1.6568  1.0437
 3069TIP3   OH230841   5.380   0.545   1.063 -0.3870  0.3939 -0.9123
 3069TIP3    H130842   5.302   0.526   1.011 -0.0492 -1.3426 -0.8745
 3069TIP3    H230843   5.355   0.518   1.152  0.5251 -1.0715 -1.0720
 3070TIP3   OH230844   4.744   3.105   1.625  0.2292  0.0847 -0.2186
 3070TIP3    H130845   4.748   3.020   1.580 -0.5603 -0.1670  0.1685
 3070TIP3    H230846   4.677   3.154   1.576  0.0464  0.1543  0.1000
 3071TIP3   OH230847   5.245   0.673   8.794  0.4053  0.2411 -0.3186
 3071TIP3    H130848   5.308   0.745   8.796  0.2487  0.3615  1.0422
 3071TIP3    H230849   5.166   0.711   8.756  0.2161  0.8910  0.6979
 3072TIP3   OH230850   2.828   0.422   0.379 -0.5485  0.0045 -0.2082
 3072TIP3    H130851   2.792   0.399   0.464 -0.1439  0.9057  0.2239
 3072TIP3    H230852   2.917   0.387   0.381 -0.3974  0.3865 -0.0868
 3073TIP3   OH230853   6.412   5.954   8.163 -0.1452 -1.1104 -0.2053
 3073TIP3    H130854   6.390   6.046   8.180 -0.9986 -1.1853 -0.7970
 3073TIP3    H230855   6.502   5.944   8.194  0.4784  0.3040 -1.3904
 3074TIP3   OH230856   5.467   4.142   0.250 -0.0845 -0.1246 -0.3689
 3074TIP3    H130857   5.519   4.102   0.180  0.2752  0.8604 -0.6952
 3074TIP3    H230858   5.395   4.081   0.265 -0.7642  0.1125 -2.3396
 3075TIP3   OH230859   4.135   2.511   7.396  0.3587 -0.3621  0.1224
 3075TIP3    H130860   4.160   2.589   7.346  1.0786  0.2667  1.4068
 3075TIP3    H230861   4.157   2.438   7.338 -3.5626  0.3332 -2.5760
 3076TIP3   OH230862   5.901   4.453   7.612 -0.0573 -0.0878  0.2275
 3076TIP3    H130863   5.925   4.365   7.640  0.3697  0.4098  1.5180
 3076TIP3    H230864   5.937   4.510   7.680 -0.3844  1.0792 -0.5500
 3077TIP3   OH230865   3.392   4.586   8.194  0.2130 -0.2250  0.2289
 3077TIP3    H130866   3.297   4.594   8.205  0.2845 -1.1984  1.7974
 3077TIP3    H230867   3.420   4.673   8.165 -1.3058 -0.3091 -1.6366
 3078TIP3   OH230868   1.140   6.124   1.674  0.3029  0.0163 -0.2330
 3078TIP3    H130869   1.148   6.114   1.769  1.6503  0.7786 -0.2333
 3078TIP3    H230870   1.228   6.108   1.641  0.2572  1.5286 -1.1729
 3079TIP3   OH230871   5.498   1.331   0.859 -0.0518  0.0007 -0.1824
 3079TIP3    H130872   5.469   1.422   0.853  2.9172  1.3439  2.8969
 3079TIP3    H230873   5.419   1.282   0.880 -1.3391  2.2415  0.5120
 3080TIP3   OH230874   1.759   1.415   0.290  0.8389  0.1896  0.0561
 3080TIP3    H130875   1.823   1.469   0.244  1.1117 -1.4121 -1.5757
 3080TIP3    H230876   1.745   1.340   0.232 -0.2097 -1.0295  1.7867
 3081TIP3   OH230877   0.824   5.939   1.368 -0.4566 -0.2203 -0.3328
 3081TIP3    H130878   0.804   5.928   1.275 -3.2437 -1.0530  0.2604
 3081TIP3    H230879   0.842   6.033   1.378 -3.1333  0.4838 -1.3012
 3082TIP3   OH230880   5.236   1.141   6.945  0.1096 -0.1210 -0.3933
 3082TIP3    H130881   5.219   1.222   6.897 -0.8384 -0.3072 -0.4031
 3082TIP3    H230882   5.150   1.114   6.977  0.4430 -1.0172 -0.2156
 3083TIP3   OH230883   0.125   0.992   2.691 -0.2371  0.4797 -0.1730
 3083TIP3    H130884   0.081   0.921   2.644 -0.2687  0.7727 -0.5953
 3083TIP3    H230885   0.054   1.053   2.715 -0.2540  0.2170  0.4702
 3084TIP3   OH230886   0.107   3.267   8.007  0.0534  0.2241  0.0221
 3084TIP3    H130887   0.168   3.311   7.947 -1.6849  0.8808 -1.3474
 3084TIP3    H230888   0.138   3.176   8.010  1.2910  0.6119 -0.3554
 3085TIP3   OH230889   3.627   1.994   7.807 -0.5208 -0.0895  0.5433
 3085TIP3    H130890   3.680   1.975   7.729  0.0034  1.1388  0.5784
 3085TIP3    H230891   3.691   2.023   7.872 -1.2710  1.9055  0.4344
 3086TIP3   OH230892   6.436   5.366   7.808  0.6099 -0.0867  0.8230
 3086TIP3    H130893   6.349   5.331   7.789  1.5024 -2.1232  0.1838
 3086TIP3    H230894   6.489   5.343   7.732  1.1921  3.3150  0.0623
 3087TIP3   OH230895   5.424   1.835   6.933 -0.7225 -0.1683  0.2174
 3087TIP3    H130896   5.515   1.864   6.935 -0.5596 -0.5413  3.3604
 3087TIP3    H230897   5.428   1.740   6.943 -1.4020 -0.1315  1.0358
 3088TIP3   OH230898   5.095   2.866   1.611 -0.8534 -0.0731 -0.3723
 3088TIP3    H130899   5.028   2.805   1.643  0.2959 -2.7704 -2.7024
 3088TIP3    H230900   5.065   2.891   1.524 -0.0746  0.7355 -0.4217
 3089TIP3   OH230901   6.155   4.476   2.450  0.7179  0.0890  0.4622
 3089TIP3    H130902   6.188   4.386   2.449 -1.0649 -0.6157  1.1186
 3089TIP3    H230903   6.143   4.498   2.357  1.1932 -0.3215  0.2956
 3090TIP3   OH230904   4.532   0.769   1.972  0.1561 -0.2453  0.1801
 3090TIP3    H130905   4.463   0.704   1.980 -0.9264  0.8442 -0.0029
 3090TIP3    H230906   4.613   0.720   1.984 -0.6255 -1.6196 -0.0084
 3091TIP3   OH230907   4.426   1.623   0.377  0.3823  0.0147  0.4285
 3091TIP3    H130908   4.432   1.593   0.467  1.3243  0.4628  0.5180
 3091TIP3    H230909   4.422   1.718   0.383  1.9220  0.1343 -0.0515
 3092TIP3   OH230910   2.461   0.006   0.419  0.1026  0.4404 -0.4685
 3092TIP3    H130911   2.373   0.038   0.397  0.1265 -0.1163 -1.4640
 3092TIP3    H230912   2.494  -0.030   0.336  1.2160  0.5173 -0.0754
 3093TIP3   OH230913   3.446   6.754   0.936  0.4291  0.1228 -0.2128
 3093TIP3    H130914   3.483   6.749   0.848  0.3574  1.9783 -0.3825
 3093TIP3    H230915   3.352   6.744   0.923  0.5063 -0.7108 -0.2033
 3094TIP3   OH230916   1.396   5.280   1.716 -0.2521  0.1500 -0.2153
 3094TIP3    H130917   1.446   5.220   1.772 -2.8882 -0.9685  1.1260
 3094TIP3    H230918   1.317   5.231   1.694 -1.6507  2.4653 -0.6398
 3095TIP3   OH230919   0.471   6.208   7.513 -0.3145 -0.1908  0.0106
 3095TIP3    H130920   0.409   6.272   7.479 -1.1975 -0.0011  1.8610
 3095TIP3    H230921   0.444   6.124   7.474  0.2071  0.3478 -1.5934
 3096TIP3   OH230922   3.396   6.238   8.082 -0.3972 -0.0571  0.5338
 3096TIP3    H130923   3.396   6.275   7.994 -0.5794 -0.8379  0.1979
 3096TIP3    H230924   3.487   6.245   8.111 -0.4073  0.5507  0.4458
 3097TIP3   OH230925   2.674   0.227   1.592 -0.4867  0.3295  0.2235
 3097TIP3    H130926   2.603   0.179   1.632  0.2811 -0.8788  0.1999
 3097TIP3    H230927   2.725   0.262   1.665  0.5143 -1.2784  0.3516
 3098TIP3   OH230928   2.818   3.012   0.506  0.2208 -0.6551  0.2462
 3098TIP3    H130929   2.875   2.976   0.574  0.5659 -2.8424 -1.0977
 3098TIP3    H230930   2.761   2.939   0.481  0.0641  0.0684 -1.7374
 3099TIP3   OH230931   3.245   3.741   2.167 -0.2684  0.0553 -0.4917
 3099TIP3    H130932   3.224   3.784   2.250 -1.5752 -0.7250 -0.3831
 3099TIP3    H230933   3.205   3.797   2.100 -1.5740 -0.6799 -0.3790
 3100TIP3   OH230934   3.308   0.947   0.239  0.0047  0.1434 -0.6123
 3100TIP3    H130935   3.309   0.872   0.179  2.4139  0.8230 -1.5537
 3100TIP3    H230936   3.217   0.977   0.238 -0.7665 -1.9905 -1.1455
 3101TIP3   OH230937   2.053   1.745   8.632  0.1284  0.3805 -0.3812
 3101TIP3    H130938   2.135   1.722   8.587  0.5283  2.3684 -0.7448
 3101TIP3    H230939   2.026   1.663   8.674  2.8293 -0.1196  0.6119
 3102TIP3   OH230940   5.422   3.847   6.619 -0.2965 -0.2114  0.1329
 3102TIP3    H130941   5.352   3.908   6.643  0.2177  0.7016 -0.5758
 3102TIP3    H230942   5.501   3.885   6.658  0.0589 -0.3278 -0.4504
 3103TIP3   OH230943   2.280   1.361   8.637 -0.1096  0.2726  0.0084
 3103TIP3    H130944   2.258   1.355   8.730 -0.7555  0.0447 -0.1581
 3103TIP3    H230945   2.375   1.376   8.636 -0.1725  0.7546  0.7128
 3104TIP3   OH230946   6.165   3.490   1.018 -0.7026  0.1620  0.3841
 3104TIP3    H130947   6.151   3.563   1.078 -1.9482  0.9734 -0.8284
 3104TIP3    H230948   6.249   3.509   0.976 -0.5993  0.4332  0.7098
 3105TIP3   OH230949   6.234   0.092   0.243  0.3875 -0.7054 -0.2539
 3105TIP3    H130950   6.295   0.096   0.316 -0.3241  0.1739  0.3091
 3105TIP3    H230951   6.257   0.011   0.197  1.8985 -0.4428 -0.0070
 3106TIP3   OH230952   4.770   3.380   1.890 -0.4019  0.2223 -0.0232
 3106TIP3    H130953   4.774   3.285   1.884 -0.5513  0.1642  0.6791
 3106TIP3    H230954   4.734   3.397   1.978  1.4782  0.9441  0.6623
 3107TIP3   OH230955   3.077   4.593   1.619 -0.5972  0.7193 -0.3452
 3107TIP3    H130956   3.071   4.502   1.589 -1.4906  0.9933 -1.0310
 3107TIP3    H230957   3.045   4.590   1.709 -0.0668  0.2663 -0.1632
 3108TIP3   OH230958   0.354   6.491   2.324 -0.3636  0.2021 -0.4094
 3108TIP3    H130959   0.398   6.406   2.324 -1.0327 -0.1485 -0.7456
 3108TIP3    H230960   0.261   6.470   2.322 -0.5362  0.9241 -2.6134
 3109TIP3   OH230961   0.865   2.916   8.571 -0.1988  0.1089 -0.1989
 3109TIP3    H130962   0.932   2.848   8.580 -0.0939  0.2886  0.4628
 3109TIP3    H230963   0.806   2.900   8.645  1.4205  2.5075  1.7894
 3110TIP3   OH230964   6.382   6.018   2.617 -0.1627 -0.1983 -0.5229
 3110TIP3    H130965   6.370   6.021   2.522 -0.9983  0.3405 -0.4149
 3110TIP3    H230966   6.459   6.073   2.633  0.2800 -0.6916 -0.9236
 3111TIP3   OH230967   4.415   1.331   1.062 -0.0251 -0.0730  0.2977
 3111TIP3    H130968   4.474   1.257   1.075  1.2143  0.6608 -0.9696
 3111TIP3    H230969   4.429   1.358   0.972  0.4331  2.4517  1.0557
 3112TIP3   OH230970   4.908   0.790   6.875  0.4388  0.0806  0.1530
 3112TIP3    H130971   4.820   0.818   6.898  1.1910  1.9443  0.9069
 3112TIP3    H230972   4.896   0.738   6.796 -1.3310  0.2578  0.2594
 3113TIP3   OH230973   5.582   1.119   1.405  0.3212 -0.4517  0.6002
 3113TIP3    H130974   5.514   1.178   1.372 -0.3249 -0.6945  1.4749
 3113TIP3    H230975   5.563   1.110   1.498  1.4530 -0.6695  0.8215
 3114TIP3   OH230976   0.334   2.580   1.133 -0.4766  0.6048  0.5085
 3114TIP3    H130977   0.418   2.533   1.132 -0.4465  0.6546  0.6935
 3114TIP3    H230978   0.305   2.575   1.224  0.5773  2.8161  1.0376
 3115TIP3   OH230979   0.848   2.976   7.361  0.3814 -0.0163 -0.1337
 3115TIP3    H130980   0.932   2.984   7.407  1.2040 -1.8929 -1.1996
 3115TIP3    H230981   0.866   3.011   7.274  0.0468 -0.4034 -0.3564
 3116TIP3   OH230982   2.223   2.442   1.899 -0.0476  0.6206  0.0318
 3116TIP3    H130983   2.285   2.428   1.970  0.3904  2.1228 -0.0173
 3116TIP3    H230984   2.263   2.510   1.845 -1.8043  1.8121  0.1232
 3117TIP3   OH230985   0.934   0.189   0.303 -0.1916 -0.2426 -0.1715
 3117TIP3    H130986   1.002   0.219   0.241 -0.0309  2.0394  0.9795
 3117TIP3    H230987   0.974   0.203   0.389 -0.8828 -2.1639  0.4980
 3118TIP3   OH230988   3.402   1.858   1.251  0.0948 -0.0099  0.0511
 3118TIP3    H130989   3.442   1.891   1.332  0.5138  0.6526 -0.4183
 3118TIP3    H230990   3.333   1.922   1.231 -0.6896 -0.7192  0.4258
 3119TIP3   OH230991   3.686   6.121   7.783 -0.2895 -0.3385  0.2383
 3119TIP3    H130992   3.756   6.073   7.738 -1.3126 -1.2164 -0.4683
 3119TIP3    H230993   3.670   6.197   7.727 -0.0194 -0.2214  0.3169
 3120TIP3   OH230994   1.346   0.564   7.297  0.6501 -0.0787 -0.3388
 3120TIP3    H130995   1.286   0.510   7.245  1.5141 -0.2579 -1.1745
 3120TIP3    H230996   1.330   0.538   7.388 -0.5307 -0.1198 -0.5453
 3121TIP3   OH230997   6.462   3.336   1.390 -0.0618  0.0811 -0.3535
 3121TIP3    H130998   6.414   3.291   1.321 -1.2053 -0.3995  0.7024
 3121TIP3    H230999   6.538   3.281   1.406 -1.4030 -1.5388  0.8754
 3122TIP3   OH231000   1.676   1.029   7.004 -0.9327 -0.1185  0.3807
 3122TIP3    H131001   1.706   0.938   7.002 -1.3703 -0.2840  0.8429
 3122TIP3    H231002   1.606   1.033   6.938 -1.4155 -0.3143  0.8692
 3123TIP3   OH231003   4.829   0.437   8.401 -0.4126 -0.3772  0.1437
 3123TIP3    H131004   4.905   0.400   8.446 -1.1990 -0.4815  1.4126
 3123TIP3    H231005   4.838   0.406   8.311  0.2794 -1.5916  0.6016
 3124TIP3   OH231006   2.265   4.289   0.425  0.4542  0.0051  0.2504
 3124TIP3    H131007   2.186   4.338   0.449 -0.3735 -1.0499 -0.2311
 3124TIP3    H231008   2.318   4.351   0.375 -0.1906  0.6492  0.3566
 3125TIP3   OH231009   3.494   4.168   7.877 -0.6597 -0.4101 -0.2670
 3125TIP3    H131010   3.589   4.164   7.873 -0.5901  1.3224 -1.5167
 3125TIP3    H231011   3.474   4.260   7.894 -2.1055 -0.8473  0.5415
 3126TIP3   OH231012   0.427   1.089   1.308 -0.1281  0.5524 -0.7802
 3126TIP3    H131013   0.502   1.145   1.290  0.9140 -1.0785 -1.7721
 3126TIP3    H231014   0.365   1.146   1.354  0.6311  2.6520 -2.1958
 3127TIP3   OH231015   4.403   4.712   0.449  0.1635  0.3146 -0.9439
 3127TIP3    H131016   4.321   4.719   0.498 -0.6750  2.5702 -2.5010
 3127TIP3    H231017   4.406   4.620   0.419  0.1923 -0.8409  2.2542
 3128TIP3   OH231018   3.122   4.052   1.174  0.0439 -0.0434  0.4904
 3128TIP3    H131019   3.038   4.029   1.213 -0.6429  0.3213 -0.7175
 3128TIP3    H231020   3.124   4.148   1.177 -0.4950  0.0552 -1.2542
 3129TIP3   OH231021   0.367   1.663   0.277 -0.0180 -0.3938 -0.4490
 3129TIP3    H131022   0.301   1.676   0.208 -0.2661 -2.1188 -0.5815
 3129TIP3    H231023   0.441   1.623   0.231  0.3433 -0.3198  0.0657
 3130TIP3   OH231024   6.439   2.636   7.613 -0.3217 -0.0839  0.3839
 3130TIP3    H131025   6.483   2.559   7.576 -1.4469  0.1321 -1.5644
 3130TIP3    H231026   6.505   2.677   7.669  1.3671 -0.7420 -1.0248
 3131TIP3   OH231027   0.161   0.067   7.508  0.0421 -0.8947 -0.0744
 3131TIP3    H131028   0.158   0.093   7.416 -1.2941  2.2150  0.7231
 3131TIP3    H231029   0.254   0.065   7.530  0.3157  0.1059 -1.0673
 3132TIP3   OH231030   4.515   3.532   2.159 -0.3834 -0.0194  0.1135
 3132TIP3    H131031   4.593   3.477   2.166  0.0115  0.5918  0.6723
 3132TIP3    H231032   4.445   3.480   2.198  0.2264  0.3166  1.7233
 3133TIP3   OH231033   3.974   5.602   1.047  0.5871 -0.3029 -0.0579
 3133TIP3    H131034   3.885   5.599   1.011  0.7663 -2.9717 -0.4559
 3133TIP3    H231035   4.023   5.540   0.994  1.3594 -2.9128  3.3949
 3134TIP3   OH231036   2.364   5.571   1.350  0.0144  0.0643 -0.2686
 3134TIP3    H131037   2.421   5.504   1.389 -0.9841  0.2659  1.6531
 3134TIP3    H231038   2.301   5.521   1.298 -1.4449 -0.7059  2.0636
 3135TIP3   OH231039   4.588   2.454   1.082 -0.0554  0.4219  0.3304
 3135TIP3    H131040   4.652   2.390   1.110  0.8963  1.0014 -0.4698
 3135TIP3    H231041   4.638   2.518   1.032 -1.0479  1.5539  0.7266
 3136TIP3   OH231042   1.573   5.582   7.865  0.5063 -0.5229  0.6102
 3136TIP3    H131043   1.576   5.608   7.773  1.8482  0.1389  0.8141
 3136TIP3    H231044   1.491   5.533   7.874 -0.0325  0.0843 -0.7497
 3137TIP3   OH231045   5.535   2.321   0.149  0.0842  0.2212  0.6082
 3137TIP3    H131046   5.577   2.252   0.097  0.3983 -0.2168  1.4234
 3137TIP3    H231047   5.489   2.375   0.085 -1.0452 -1.3490  0.0324
 3138TIP3   OH231048   1.640   3.244   0.261 -0.2341  0.0269  0.0067
 3138TIP3    H131049   1.564   3.264   0.316 -0.8804 -0.8230 -0.5523
 3138TIP3    H231050   1.716   3.270   0.314 -0.6533 -3.1810  2.5222
 3139TIP3   OH231051   3.120   4.787   1.364  0.1884  0.3101  0.5900
 3139TIP3    H131052   3.190   4.820   1.421  2.3407 -1.8239 -0.6289
 3139TIP3    H231053   3.084   4.712   1.411  0.4527 -0.1183  0.1092
 3140TIP3   OH231054   2.054   4.079   0.499  0.1341  0.7279 -0.0983
 3140TIP3    H131055   2.085   4.134   0.428 -2.2122  2.1397 -0.1403
 3140TIP3    H231056   1.959   4.091   0.499 -0.2746 -1.7914  1.1947
 3141TIP3   OH231057   6.071   2.091   7.463  0.0106 -0.0214  0.1336
 3141TIP3    H131058   6.028   2.023   7.412  0.5927  0.4520 -1.0397
 3141TIP3    H231059   6.118   2.044   7.532 -0.3511 -0.7252 -0.0911
 3142TIP3   OH231060   4.286   6.764   1.262  0.3336  0.1269  0.4209
 3142TIP3    H131061   4.210   6.816   1.237 -0.1202 -0.8273 -0.2680
 3142TIP3    H231062   4.252   6.676   1.276  1.4917 -0.6756 -1.3396
 3143TIP3   OH231063   5.969   2.323   0.464  0.3870 -0.1797 -0.0793
 3143TIP3    H131064   6.032   2.253   0.482 -0.5053 -1.1040 -0.3990
 3143TIP3    H231065   5.884   2.285   0.488 -0.3679  0.0106 -2.2063
 3144TIP3   OH231066   5.762   6.633   1.490 -0.1769 -0.5889  0.3584
 3144TIP3    H131067   5.679   6.596   1.520 -0.9223  0.6766 -0.0633
 3144TIP3    H231068   5.789   6.691   1.561 -1.2556  1.3648 -0.7361
 3145TIP3   OH231069   5.580   5.093   1.226  0.4333  0.4383  0.3161
 3145TIP3    H131070   5.517   5.130   1.164  0.6519  0.5955  0.1880
 3145TIP3    H231071   5.664   5.129   1.199  0.4796  0.8230  0.9427
 3146TIP3   OH231072   6.671   3.331   2.055  0.0215 -0.4555  0.4968
 3146TIP3    H131073   6.718   3.403   2.013  0.3211 -1.8463 -1.6751
 3146TIP3    H231074   6.739   3.270   2.081 -0.3714 -0.9482  0.3760
 3147TIP3   OH231075   6.004   4.271   2.293 -0.5563 -0.0410 -0.2336
 3147TIP3    H131076   6.081   4.234   2.250 -0.5307 -0.5930  0.2718
 3147TIP3    H231077   5.964   4.328   2.227 -0.4532 -0.7771 -0.9487
 3148TIP3   OH231078   1.571   5.780   8.811  0.6358 -0.3316 -0.2894
 3148TIP3    H131079   1.576   5.687   8.835 -2.7995 -0.3901  0.6724
 3148TIP3    H231080   1.572   5.826   8.895 -0.1244  0.3135 -0.6288
 3149TIP3   OH231081   1.975   0.838   1.245 -0.2841 -0.3729  0.4245
 3149TIP3    H131082   2.004   0.906   1.184  1.2812  0.0185  1.5328
 3149TIP3    H231083   1.906   0.880   1.296 -0.4928 -0.1879 -0.0006
 3150TIP3   OH231084   4.693   5.882   8.048 -0.2052 -0.0911  0.2509
 3150TIP3    H131085   4.717   5.908   7.959 -1.3502 -0.5767 -0.2143
 3150TIP3    H231086   4.718   5.790   8.054  0.7251  0.1844  0.7548
 3151TIP3   OH231087   1.106   2.200   8.622 -0.1171 -0.0373 -0.0608
 3151TIP3    H131088   1.066   2.274   8.669 -0.4148  0.4632 -1.0602
 3151TIP3    H231089   1.095   2.223   8.529 -0.1291 -1.2998 -0.3856
 3152TIP3   OH231090   2.854   1.461   8.258  0.4262  0.3590  0.1424
 3152TIP3    H131091   2.934   1.506   8.231  0.1271  0.5407 -0.4762
 3152TIP3    H231092   2.799   1.530   8.296  1.0124  0.0274  1.6359
 3153TIP3   OH231093   1.699   2.359   1.990 -0.1083 -0.0740  0.2664
 3153TIP3    H131094   1.769   2.337   2.052 -0.6744  0.2580  1.0481
 3153TIP3    H231095   1.625   2.305   2.018  0.0315 -0.9335 -0.9836
 3154TIP3   OH231096   2.066   0.881   8.495 -0.0431  0.0308  0.0330
 3154TIP3    H131097   2.093   0.963   8.537  1.1193 -0.3006 -0.0106
 3154TIP3    H231098   2.060   0.903   8.402 -0.8804  0.3447  0.1624
 3155TIP3   OH231099   6.441   5.670   8.070  0.2420 -0.5308  0.2746
 3155TIP3    H131100   6.460   5.762   8.053 -0.1765 -0.5672 -0.4427
 3155TIP3    H231101   6.345   5.667   8.080  0.1796 -0.9919 -0.3999
 3156TIP3   OH231102   0.274   4.591   0.574  0.3586 -0.0557 -0.3986
 3156TIP3    H131103   0.367   4.580   0.594  0.2521 -1.0292 -0.3916
 3156TIP3    H231104   0.232   4.599   0.660  0.3317 -0.5597 -0.3613
 3157TIP3   OH231105   0.442   0.036   7.445 -0.4935 -0.1671 -0.0216
 3157TIP3    H131106   0.526  -0.009   7.436 -1.0961 -1.1860 -0.8663
 3157TIP3    H231107   0.464   0.129   7.443  0.9486 -0.3097  3.1707
 3158TIP3   OH231108   0.477   1.696   7.751 -0.5917 -0.5678 -0.2738
 3158TIP3    H131109   0.475   1.787   7.723 -0.4126 -0.7132 -0.7777
 3158TIP3    H231110   0.385   1.671   7.757 -0.6439 -0.2878  0.0894
 3159TIP3   OH231111   0.110   3.054   1.553  0.6770 -0.5969 -0.2018
 3159TIP3    H131112   0.163   3.117   1.602 -0.7316  0.3869  0.1163
 3159TIP3    H231113   0.073   2.996   1.620 -0.2240 -0.0468 -0.2160
 3160TIP3   OH231114   2.357   6.094   7.493 -0.2641 -0.2480  0.2843
 3160TIP3    H131115   2.306   6.079   7.413 -0.1818 -0.5946  0.2938
 3160TIP3    H231116   2.398   6.180   7.480 -1.2576  0.2754  0.5001
 3161TIP3   OH231117   4.588   3.727   2.319 -0.1583  0.4334  0.4673
 3161TIP3    H131118   4.570   3.662   2.251 -0.3468  1.0276 -0.0627
 3161TIP3    H231119   4.506   3.777   2.326  0.0350  0.7116  0.7614
 3162TIP3   OH231120   1.908   6.826   2.616 -0.7468  0.9112 -0.1306
 3162TIP3    H131121   1.916   6.731   2.603 -0.4844  0.9066  0.0430
 3162TIP3    H231122   1.844   6.854   2.551  0.0359  0.7966 -0.9770
 3163TIP3   OH231123   5.938   4.146   1.179  0.7550 -0.0348  0.3930
 3163TIP3    H131124   5.879   4.074   1.158  2.1669 -0.7455 -1.4933
 3163TIP3    H231125   5.891   4.225   1.151 -0.0553 -0.3783  0.7483
 3164TIP3   OH231126   2.133   5.516   2.496  0.1551 -0.3122 -0.7203
 3164TIP3    H131127   2.091   5.430   2.488  0.2374 -0.3319 -0.9344
 3164TIP3    H231128   2.218   5.497   2.537 -1.0163 -0.0131  2.0484
 3165TIP3   OH231129   3.536   4.881   8.360  0.4162 -0.4724 -0.0091
 3165TIP3    H131130   3.630   4.867   8.355  0.8131  1.7503  0.3937
 3165TIP3    H231131   3.507   4.877   8.268  1.1454  0.2975 -0.2833
 3166TIP3   OH231132   2.628   2.355   1.199  0.3754  0.1463 -0.5966
 3166TIP3    H131133   2.618   2.411   1.276  0.8249 -2.3485  1.4206
 3166TIP3    H231134   2.721   2.331   1.200 -0.0409 -1.5628 -0.6442
 3167TIP3   OH231135   2.561   5.024   7.425  0.2263 -0.2490 -0.1744
 3167TIP3    H131136   2.612   4.945   7.406  1.4161  0.8361 -1.7387
 3167TIP3    H231137   2.531   5.054   7.340  0.0089  1.1288  0.3737
 3168TIP3   OH231138   5.055   3.513   7.870 -0.1954 -0.0306  0.2511
 3168TIP3    H131139   5.047   3.452   7.797  1.8722 -0.4689  0.3486
 3168TIP3    H231140   5.126   3.478   7.923 -1.4222  0.4641  2.3276
 3169TIP3   OH231141   0.826   2.258   7.920  0.1608 -0.0527  0.2537
 3169TIP3    H131142   0.790   2.206   7.848  0.9957 -1.4695  0.8210
 3169TIP3    H231143   0.919   2.267   7.900  0.2278  0.3125  0.7013
 3170TIP3   OH231144   1.128   5.996   2.204  0.4615  0.3624 -0.4722
 3170TIP3    H131145   1.141   5.909   2.240  1.3416  0.2627 -0.9933
 3170TIP3    H231146   1.192   6.051   2.250 -0.4932  0.8665  0.2805
 3171TIP3   OH231147   0.716   4.324   2.537 -0.5135 -0.1489  0.4660
 3171TIP3    H131148   0.632   4.278   2.531 -1.5766  1.7126  0.3442
 3171TIP3    H231149   0.763   4.278   2.606 -0.3816 -3.0860 -1.3921
 3172TIP3   OH231150   5.703   1.481   2.011 -0.4341  0.0615 -0.2895
 3172TIP3    H131151   5.693   1.560   2.063 -2.5168  1.4400 -2.5600
 3172TIP3    H231152   5.653   1.414   2.058  1.0916  0.1040  1.4923
 3173TIP3   OH231153   0.307   1.059   2.514 -0.9249 -0.2555 -0.0444
 3173TIP3    H131154   0.323   0.968   2.489  0.6312 -0.1668  0.4949
 3173TIP3    H231155   0.250   1.054   2.591  0.0808 -0.8653  0.6955
 3174TIP3   OH231156   0.518   5.900   1.540 -0.6126  0.5403  0.5657
 3174TIP3    H131157   0.600   5.933   1.578 -0.5856  1.4196 -0.2385
 3174TIP3    H231158   0.543   5.817   1.499  0.0151  1.0626 -0.1429
 3175TIP3   OH231159   4.783   6.414   1.494  0.6237  0.3180 -0.0594
 3175TIP3    H131160   4.783   6.490   1.553  1.9519  1.3907 -1.3722
 3175TIP3    H231161   4.804   6.450   1.408  0.9397 -1.4949 -0.7901
 3176TIP3   OH231162   0.147   2.825   8.165  0.7062 -0.2693 -0.4131
 3176TIP3    H131163   0.147   2.886   8.239  1.1903 -0.1560 -0.4996
 3176TIP3    H231164   0.071   2.770   8.179 -0.5412  1.2118 -1.0450
 3177TIP3   OH231165   1.247   5.062   1.072  0.2688  0.4901  0.2967
 3177TIP3    H131166   1.215   5.036   1.158  1.5015 -1.8621  0.1203
 3177TIP3    H231167   1.327   5.112   1.090  0.1835  0.5457  0.5202
 3178TIP3   OH231168   3.888   3.696   8.452 -0.4631  0.1098 -0.5217
 3178TIP3    H131169   3.905   3.602   8.455 -0.3884  0.1288  1.7138
 3178TIP3    H231170   3.836   3.713   8.531 -0.2448  1.9661 -0.7392
 3179TIP3   OH231171   1.453   4.367   1.260 -0.1244 -0.3576 -0.0122
 3179TIP3    H131172   1.548   4.370   1.252 -0.1989 -0.9157 -1.2244
 3179TIP3    H231173   1.422   4.441   1.208 -0.4068 -0.9815 -0.7349
 3180TIP3   OH231174   4.495   4.494   7.641 -0.2568 -0.2502 -0.7560
 3180TIP3    H131175   4.495   4.435   7.565 -0.6731 -1.0904 -0.1119
 3180TIP3    H231176   4.578   4.476   7.685  0.5283  1.0685 -1.6215
 3181TIP3   OH231177   3.730   1.350   8.603 -0.2449  0.1050 -0.3575
 3181TIP3    H131178   3.706   1.328   8.692  0.0037 -1.5238 -0.6713
 3181TIP3    H231179   3.699   1.277   8.550 -1.5319  1.6217 -1.8064
 3182TIP3   OH231180   5.849   5.529   0.718  0.1697  0.0411 -0.3029
 3182TIP3    H131181   5.813   5.445   0.692  0.0001 -0.3174  1.0131
 3182TIP3    H231182   5.943   5.523   0.698 -0.0289 -0.0389 -1.2266
 3183TIP3   OH231183   6.119   5.058   2.584  0.4504  0.2957  0.3174
 3183TIP3    H131184   6.073   5.074   2.667  0.5942  1.6245  0.1647
 3183TIP3    H231185   6.124   5.144   2.543 -0.5180 -0.5174 -1.5730
 3184TIP3   OH231186   3.929   0.126   6.538 -0.0034  0.4081 -0.3722
 3184TIP3    H131187   3.967   0.039   6.539  0.9286  0.7859  1.4358
 3184TIP3    H231188   3.854   0.120   6.596 -0.0297  0.7666 -0.3670
 3185TIP3   OH231189   0.816   3.880   0.329 -0.6157 -0.0027 -1.1254
 3185TIP3    H131190   0.814   3.806   0.389  0.3348  0.7365 -0.1396
 3185TIP3    H231191   0.856   3.846   0.249 -0.1063 -0.5364 -0.6503
 3186TIP3   OH231192   2.518   3.240   8.255  0.8921  0.2893  0.0630
 3186TIP3    H131193   2.603   3.211   8.223  0.3643 -1.1701 -0.0920
 3186TIP3    H231194   2.518   3.217   8.348 -0.0957 -1.6922 -0.3760
 3187TIP3   OH231195   6.800   5.217   7.583 -0.3815 -0.1387  0.5306
 3187TIP3    H131196   6.874   5.167   7.616 -0.0140 -1.0059 -1.4664
 3187TIP3    H231197   6.810   5.215   7.488 -2.3489  0.7032  0.2546
 3188TIP3   OH231198   1.693   3.824   1.104  0.5718 -0.5368 -0.3419
 3188TIP3    H131199   1.696   3.809   1.199  1.0011 -0.1714 -0.2905
 3188TIP3    H231200   1.783   3.808   1.075  0.4858 -0.4537 -0.6557
 3189TIP3   OH231201   6.539   4.488   0.862 -0.0750  0.2082  0.3448
 3189TIP3    H131202   6.543   4.399   0.898 -1.3422 -0.9202 -2.0671
 3189TIP3    H231203   6.466   4.530   0.908 -0.2272 -0.4053  0.6694
 3190TIP3   OH231204   4.950   2.347   8.269  0.0699 -0.2528 -0.6737
 3190TIP3    H131205   4.877   2.328   8.210 -0.1374 -0.2148 -0.4313
 3190TIP3    H231206   4.909   2.358   8.355  0.2673  0.5464 -0.6727
 3191TIP3   OH231207   1.728   5.520   8.457  0.7541  0.0882  0.0262
 3191TIP3    H131208   1.642   5.487   8.429  0.4054  0.8852  0.1365
 3191TIP3    H231209   1.777   5.441   8.479 -0.4078 -0.3207  1.2919
 3192TIP3   OH231210   4.578   2.594   6.979 -0.4780 -0.0485 -0.9306
 3192TIP3    H131211   4.569   2.689   6.966  0.5899  0.2305  0.2406
 3192TIP3    H231212   4.662   2.572   6.938 -0.1643 -0.2843 -0.1675
 3193TIP3   OH231213   1.961   5.204   1.311 -0.1990  0.1833  0.4656
 3193TIP3    H131214   1.913   5.274   1.267  0.1615  0.0928 -0.0712
 3193TIP3    H231215   1.902   5.177   1.382 -1.9765 -1.4420 -1.4956
 3194TIP3   OH231216   0.810   6.392   0.088  0.4957 -0.1624  0.0815
 3194TIP3    H131217   0.721   6.358   0.097  0.5315  0.1856  2.5750
 3194TIP3    H231218   0.810   6.441   0.006 -1.7273  0.1668  0.2247
 3195TIP3   OH231219   4.513   5.736   1.933  0.2800 -0.2985  0.0450
 3195TIP3    H131220   4.425   5.699   1.941  1.1246 -2.2935  0.7407
 3195TIP3    H231221   4.519   5.765   1.842 -0.8670 -0.7415 -0.1935
 3196TIP3   OH231222   5.686   2.663   2.118 -0.7307  0.7397  0.0279
 3196TIP3    H131223   5.622   2.594   2.101 -0.7597  0.6953  0.3233
 3196TIP3    H231224   5.748   2.656   2.045 -0.8845  0.5781 -0.0885
 3197TIP3   OH231225   5.503   3.254   0.051  0.3039  0.2497 -0.1664
 3197TIP3    H131226   5.448   3.181   0.023 -0.5879  1.0218 -0.4524
 3197TIP3    H231227   5.573   3.212   0.102 -0.2955 -0.7844 -0.1629
 3198TIP3   OH231228   2.745   5.967   0.847 -0.0046 -0.2662 -0.1345
 3198TIP3    H131229   2.839   5.961   0.836  0.2887  1.8927  0.6991
 3198TIP3    H231230   2.719   6.042   0.795 -1.0741 -0.1344  0.5467
 3199TIP3   OH231231   6.101   4.345   1.740 -0.0154 -0.3165 -1.1784
 3199TIP3    H131232   6.066   4.289   1.809  0.8136 -0.1441 -0.6007
 3199TIP3    H231233   6.026   4.397   1.712 -0.4369 -0.6001 -0.6117
 3200TIP3   OH231234   5.210   2.864   2.760 -0.0928 -0.5105  0.0507
 3200TIP3    H131235   5.296   2.830   2.785 -0.4224 -1.2275  0.2450
 3200TIP3    H231236   5.150   2.791   2.776 -1.0445  0.6043  1.8304
 3201TIP3   OH231237   3.964   0.808   8.410  0.0832  0.3583  0.2776
 3201TIP3    H131238   4.001   0.772   8.329 -0.2065 -0.2565  0.4127
 3201TIP3    H231239   4.004   0.895   8.418  1.1719 -0.1123  0.1937
 3202TIP3   OH231240   5.427   0.025   7.151  0.4532 -0.7462 -0.3266
 3202TIP3    H131241   5.390  -0.014   7.230 -0.1212 -0.0115 -0.2183
 3202TIP3    H231242   5.381  -0.020   7.079 -1.1421  0.5610 -0.1863
 3203TIP3   OH231243   5.951   2.347   2.248  0.3354 -0.2829 -0.2231
 3203TIP3    H131244   5.935   2.272   2.191 -1.0496  0.2693 -0.5972
 3203TIP3    H231245   5.996   2.411   2.193  2.8215 -1.3261  0.4716
 3204TIP3   OH231246   6.492   2.605   0.357 -0.1970 -0.0469  0.0897
 3204TIP3    H131247   6.466   2.535   0.417 -1.3083 -0.4912 -0.8618
 3204TIP3    H231248   6.443   2.681   0.386  0.8495  0.3083  0.9943
 3205TIP3   OH231249   6.458   2.937   6.749  0.0104  0.5926 -0.5154
 3205TIP3    H131250   6.541   2.898   6.722 -0.0548 -0.7395  1.0453
 3205TIP3    H231251   6.449   2.914   6.841 -3.0307 -1.1398 -1.0860
 3206TIP3   OH231252   4.338   0.999   0.082 -0.1726 -0.3375 -0.7940
 3206TIP3    H131253   4.395   1.013   0.158  0.5345 -0.7390 -1.2383
 3206TIP3    H231254   4.254   1.039   0.107  0.1270 -0.2407  0.0936
 3207TIP3   OH231255   6.792   0.648   7.845 -0.1034  0.2692 -0.5366
 3207TIP3    H131256   6.768   0.571   7.793  0.8431 -0.2936 -0.1633
 3207TIP3    H231257   6.877   0.673   7.812  0.1559  0.3874  0.2017
 3208TIP3   OH231258   0.930   6.793   8.573  0.3122 -0.0171  0.0788
 3208TIP3    H131259   0.996   6.781   8.506  0.3000 -2.3412  0.4005
 3208TIP3    H231260   0.863   6.847   8.531  0.9200 -0.3056 -1.3204
 3209TIP3   OH231261   4.739   6.507   0.225  0.1074 -0.0415 -0.3395
 3209TIP3    H131262   4.704   6.465   0.146 -1.8134 -1.0920  0.9879
 3209TIP3    H231263   4.807   6.447   0.256  1.9408  1.1057 -1.9361
 3210TIP3   OH231264   3.677   4.411   0.231 -0.5286  0.6556 -0.3495
 3210TIP3    H131265   3.599   4.373   0.270 -0.3788 -1.7716 -2.2514
 3210TIP3    H231266   3.731   4.436   0.307 -1.2453 -1.6976  1.0333
 3211TIP3   OH231267   5.736   3.051   6.733 -0.1093 -0.2344 -0.0664
 3211TIP3    H131268   5.742   3.039   6.638 -0.2298  1.7903 -0.3767
 3211TIP3    H231269   5.751   3.144   6.746 -0.7577 -0.3597  1.8600
 3212TIP3   OH231270   1.828   3.897   2.447 -0.0012 -0.4317 -0.0593
 3212TIP3    H131271   1.750   3.898   2.393  1.1262 -1.7959 -1.8234
 3212TIP3    H231272   1.796   3.904   2.537 -1.9544  1.4711 -0.8272
 3213TIP3   OH231273   0.125   2.764   1.748 -0.0451 -0.9234 -0.4352
 3213TIP3    H131274   0.195   2.828   1.742 -2.0429  1.3693 -0.9244
 3213TIP3    H231275   0.105   2.758   1.842  0.5823 -1.3711 -0.3244
 3214TIP3   OH231276   2.995   4.932   1.665  0.2227  0.6387  0.1984
 3214TIP3    H131277   2.955   5.013   1.699  2.5458  1.3494  1.4842
 3214TIP3    H231278   2.977   4.866   1.732  0.4012  0.7351  0.3444
 3215TIP3   OH231279   5.563   5.029   0.849 -0.1986 -0.0230 -0.3920
 3215TIP3    H131280   5.546   4.960   0.913  1.8131 -0.2485 -0.0477
 3215TIP3    H231281   5.638   4.997   0.799 -0.9197  0.7381 -2.0270
 3216TIP3   OH231282   2.601   0.415   7.927  0.2625  0.0977  0.1607
 3216TIP3    H131283   2.632   0.362   7.853 -0.1727 -0.9726  0.7250
 3216TIP3    H231284   2.592   0.503   7.891 -1.7205 -0.7303 -1.5920
 3217TIP3   OH231285   0.984   6.140   1.426  0.7489  0.3234  0.3501
 3217TIP3    H131286   1.029   6.141   1.510  1.5169 -0.2853 -0.0430
 3217TIP3    H231287   0.952   6.230   1.415  0.4918  0.3667  1.3579
 3218TIP3   OH231288   1.961   1.648   1.457  0.0503 -0.1473  0.0832
 3218TIP3    H131289   1.954   1.606   1.543 -1.7869  0.6366  0.3533
 3218TIP3    H231290   2.036   1.707   1.466 -0.2087  0.0395  1.1933
 3219TIP3   OH231291   4.774   3.548   8.497 -0.2784 -0.6782  0.8069
 3219TIP3    H131292   4.725   3.552   8.416  0.9098  0.6653  0.1127
 3219TIP3    H231293   4.865   3.538   8.469  0.3401  1.4112  1.8758
 3220TIP3   OH231294   5.561   2.442   1.521  0.0550  0.4883  0.3511
 3220TIP3    H131295   5.522   2.510   1.576 -2.3633 -0.5882  0.0887
 3220TIP3    H231296   5.496   2.372   1.518  2.3084 -1.7484  0.3236
 3221TIP3   OH231297   2.591   1.575   7.380  0.3880  0.3764  0.1997
 3221TIP3    H131298   2.550   1.528   7.308 -1.0237 -1.1226  1.8752
 3221TIP3    H231299   2.654   1.633   7.338 -0.0979 -0.6946 -2.1881
 3222TIP3   OH231300   1.463   0.713   6.768  0.7603  0.5408  0.0222
 3222TIP3    H131301   1.386   0.659   6.787  0.4134  0.9349 -0.2468
 3222TIP3    H231302   1.535   0.669   6.813  0.7259 -0.8329 -1.2075
 3223TIP3   OH231303   0.841   6.632   7.943 -0.0291 -0.4872  0.6231
 3223TIP3    H131304   0.925   6.607   7.981  0.9733  1.3258 -0.2697
 3223TIP3    H231305   0.841   6.728   7.943 -1.6007 -0.4307 -0.4488
 3224TIP3   OH231306   4.282   0.427   7.620 -0.0245 -0.5049  0.8805
 3224TIP3    H131307   4.347   0.493   7.597 -0.2897 -0.5653 -0.0670
 3224TIP3    H231308   4.212   0.477   7.663 -0.8447  0.0613 -1.0190
 3225TIP3   OH231309   1.355   0.335   1.035 -0.2117 -0.4756  0.1854
 3225TIP3    H131310   1.365   0.249   0.996  0.2466 -0.4327  0.2097
 3225TIP3    H231311   1.438   0.379   1.020 -0.9355  0.5183 -1.1933
 3226TIP3   OH231312   2.285   1.072   0.707  0.3164  0.1597  0.4372
 3226TIP3    H131313   2.254   1.162   0.694 -0.9132 -0.0312  1.8515
 3226TIP3    H231314   2.362   1.082   0.764 -0.2684  0.2985  1.2314
 3227TIP3   OH231315   3.855   6.316   1.620  0.6702  0.3204  0.2315
 3227TIP3    H131316   3.917   6.365   1.565 -2.5591  0.9417 -3.2542
 3227TIP3    H231317   3.815   6.383   1.676 -0.0649  0.8337 -0.8613
 3228TIP3   OH231318   0.253   0.709   0.762  0.4257 -0.3669  0.1011
 3228TIP3    H131319   0.201   0.670   0.692  1.8980  0.3089 -1.4532
 3228TIP3    H231320   0.342   0.677   0.747  0.8699  0.1944  1.3744
 3229TIP3   OH231321   4.366   6.124   1.827 -0.5950  0.1991 -0.2272
 3229TIP3    H131322   4.303   6.164   1.767  0.9438  0.1315 -1.9748
 3229TIP3    H231323   4.417   6.197   1.862 -1.0238  0.1733  0.4726
 3230TIP3   OH231324   3.145   3.623   0.039 -0.7689 -0.0265 -0.0241
 3230TIP3    H131325   3.149   3.707  -0.007  1.1639 -1.0698 -1.9989
 3230TIP3    H231326   3.115   3.644   0.127 -0.9270  2.6244 -0.6385
 3231TIP3   OH231327   0.918   1.799   7.735 -1.0952  0.0415  0.0691
 3231TIP3    H131328   0.911   1.870   7.671 -0.5219  0.0582  0.0239
 3231TIP3    H231329   0.979   1.831   7.801  0.9832 -1.2424 -1.1069
 3232TIP3   OH231330   5.573   4.127   7.352 -0.1124 -0.1179 -0.1814
 3232TIP3    H131331   5.652   4.075   7.366  0.5690  0.5852 -1.3368
 3232TIP3    H231332   5.570   4.142   7.258  0.1124  2.5553  0.1670
 3233TIP3   OH231333   1.536   4.965   7.583  0.0266 -0.0539 -0.5318
 3233TIP3    H131334   1.629   4.959   7.606 -0.0721  1.5494  0.4201
 3233TIP3    H231335   1.515   4.879   7.548  1.3803 -1.0887  1.0594
 3234TIP3   OH231336   2.426   0.233   7.304 -0.1685  0.4250  0.0036
 3234TIP3    H131337   2.378   0.247   7.223 -0.0796  1.1822  0.0777
 3234TIP3    H231338   2.517   0.252   7.281 -0.2798  1.6328  0.5221
 3235TIP3   OH231339   1.794   0.209   1.662 -0.3525 -0.0097  0.7190
 3235TIP3    H131340   1.819   0.263   1.587 -0.2055 -0.3110  0.5486
 3235TIP3    H231341   1.708   0.241   1.687 -1.2639 -1.1529 -0.7798
 3236TIP3   OH231342   0.766   2.118   8.138 -0.0229  0.0679 -0.3441
 3236TIP3    H131343   0.828   2.047   8.155  1.3343  1.5248  1.1239
 3236TIP3    H231344   0.806   2.168   8.067 -0.1471  0.3149 -0.2384
 3237TIP3   OH231345   3.672   5.227   8.726 -0.5036 -0.1672  0.2647
 3237TIP3    H131346   3.688   5.177   8.805  1.0867  0.3374  0.2888
 3237TIP3    H231347   3.583   5.261   8.736 -0.5814 -0.7079  1.4891
 3238TIP3   OH231348   6.736   6.785   8.491 -0.0145  0.0648 -0.5900
 3238TIP3    H131349   6.666   6.821   8.546  1.5107  2.3908 -0.0214
 3238TIP3    H231350   6.798   6.746   8.553 -0.3257 -1.1581 -1.0224
 3239TIP3   OH231351   3.956   2.339   2.407 -0.1898 -0.0634  0.2547
 3239TIP3    H131352   3.923   2.279   2.475 -1.3805 -0.6959 -0.8331
 3239TIP3    H231353   3.924   2.425   2.433  1.2292  0.0953  1.6439
 3240TIP3   OH231354   0.947   2.171   0.932  0.8824 -0.6925  0.6001
 3240TIP3    H131355   1.036   2.175   0.896  0.4071 -2.4284 -0.9255
 3240TIP3    H231356   0.943   2.243   0.995  1.8259  2.6753 -2.7785
 3241TIP3   OH231357   4.681   1.063   1.948 -0.4055 -0.5162  0.0628
 3241TIP3    H131358   4.759   1.092   1.995 -0.3249  0.1666 -0.4795
 3241TIP3    H231359   4.664   0.975   1.983 -0.4292  0.0093  1.4705
 3242TIP3   OH231360   0.382   1.971   2.420  0.4149  0.1565 -0.1203
 3242TIP3    H131361   0.453   1.972   2.484  0.2678 -1.6485  0.1012
 3242TIP3    H231362   0.303   1.961   2.472  0.2032 -0.2898 -0.5243
 3243TIP3   OH231363   2.794   5.396   7.988 -0.5035 -0.4437  0.1907
 3243TIP3    H131364   2.815   5.313   8.032  1.9309 -1.6252 -2.8446
 3243TIP3    H231365   2.851   5.460   8.030  0.3928 -1.1359  0.0505
 3244TIP3   OH231366   3.448   5.120   7.851 -0.0227 -0.8533 -0.3758
 3244TIP3    H131367   3.486   5.156   7.771 -2.4562  0.1172 -1.1613
 3244TIP3    H231368   3.451   5.192   7.914  0.1514 -1.0379 -0.1670
 3245TIP3   OH231369   0.979   1.425   7.290 -0.3225  0.6076 -0.0524
 3245TIP3    H131370   0.966   1.374   7.209  2.6819  1.0206 -0.9176
 3245TIP3    H231371   1.030   1.368   7.347 -1.3925  0.7737  1.1169
 3246TIP3   OH231372   5.700   0.334   7.760 -0.2338 -0.1238  0.1937
 3246TIP3    H131373   5.722   0.320   7.852  0.2037  1.8268  0.4200
 3246TIP3    H231374   5.605   0.320   7.756 -0.2052 -0.5835  0.8433
 3247TIP3   OH231375   3.747   3.000   0.024 -0.1577 -0.0684 -0.0280
 3247TIP3    H131376   3.789   3.083   0.001  0.0866  0.3292  1.7119
 3247TIP3    H231377   3.653   3.018   0.015 -0.0828  0.1686 -0.3620
 3248TIP3   OH231378   6.578   5.020   0.596 -0.0828  0.3462  0.1426
 3248TIP3    H131379   6.624   4.975   0.525 -1.3849 -0.1049 -0.4337
 3248TIP3    H231380   6.647   5.042   0.658  0.6401 -2.4819  0.4898
 3249TIP3   OH231381   0.637   2.395   8.060 -0.1072  0.3079 -0.7446
 3249TIP3    H131382   0.671   2.478   8.025  0.3506  0.2519 -0.4410
 3249TIP3    H231383   0.698   2.329   8.028  0.7443  0.3282  0.6990
 3250TIP3   OH231384   1.409   5.016   1.514  0.1658 -0.1346  0.4020
 3250TIP3    H131385   1.439   4.925   1.512 -2.8765 -1.2637  0.8352
 3250TIP3    H231386   1.405   5.038   1.607 -0.3184 -0.0416  0.3655
 3251TIP3   OH231387   3.807   0.015   7.451  0.0221  1.0590  0.5560
 3251TIP3    H131388   3.731   0.071   7.439 -0.8593 -0.0579  0.7571
 3251TIP3    H231389   3.806  -0.045   7.376  1.2493  1.6169  0.0611
 3252TIP3   OH231390   0.592   0.033   1.247  0.0825  0.2806  0.3161
 3252TIP3    H131391   0.515   0.007   1.197 -0.8927  2.9116  0.3043
 3252TIP3    H231392   0.632  -0.050   1.274 -0.9251 -1.1965 -2.3694
 3253TIP3   OH231393   6.052   6.014   1.956 -0.1768  0.0985 -0.2268
 3253TIP3    H131394   6.134   6.055   1.983  0.6879 -1.6036 -0.1096
 3253TIP3    H231395   6.006   5.993   2.037 -1.2132  1.9036 -0.3064
 3254TIP3   OH231396   4.873   5.309   8.622 -0.1373  0.5746  0.2810
 3254TIP3    H131397   4.834   5.230   8.659 -1.4983  1.2423  0.3647
 3254TIP3    H231398   4.836   5.314   8.533  0.6308  0.6461 -0.0401
 3255TIP3   OH231399   0.161   1.455   1.241 -0.7285 -0.0935  0.0557
 3255TIP3    H131400   0.139   1.537   1.285 -0.1541  0.9786 -1.5548
 3255TIP3    H231401   0.076   1.412   1.226 -1.0961  0.5373  0.3002
 3256TIP3   OH231402   2.026   5.965   7.394 -0.0880 -0.0863 -0.1270
 3256TIP3    H131403   1.945   6.015   7.408 -0.7342 -1.2537  0.4551
 3256TIP3    H231404   2.075   6.017   7.330 -0.8608  1.1310  0.2284
 3257TIP3   OH231405   4.169   0.146   8.370  0.3089  0.2934  0.3690
 3257TIP3    H131406   4.156   0.171   8.461  1.4476 -0.9600  0.9082
 3257TIP3    H231407   4.083   0.112   8.342 -0.1329  0.9800  0.8594
 3258TIP3   OH231408   1.924   4.140   2.807 -0.1012 -0.3640  0.4024
 3258TIP3    H131409   1.931   4.167   2.715  1.4913  0.3959  0.7104
 3258TIP3    H231410   1.861   4.068   2.807  1.2496 -1.6334 -1.5656
 3259TIP3   OH231411   0.548   3.810   0.237  0.4880 -0.1335  0.1105
 3259TIP3    H131412   0.598   3.780   0.313 -0.3676 -0.9755  0.3569
 3259TIP3    H231413   0.610   3.803   0.164  1.6156  1.6005  0.8503
 3260TIP3   OH231414   5.158   0.634   1.471 -0.7995 -0.3600 -0.4594
 3260TIP3    H131415   5.169   0.544   1.443 -0.9080 -1.2059  1.9610
 3260TIP3    H231416   5.103   0.628   1.549 -0.4331  1.7617  0.0269
 3261TIP3   OH231417   1.002   3.469   0.360 -0.3299  0.1398 -0.3847
 3261TIP3    H131418   1.089   3.508   0.352 -0.5530  0.7441  0.0479
 3261TIP3    H231419   0.946   3.522   0.305 -0.9478  1.4530  1.4077
 3262TIP3   OH231420   4.079   3.218   7.154 -0.1412 -0.0520  0.1699
 3262TIP3    H131421   4.129   3.225   7.072 -0.5448 -0.6472 -0.1287
 3262TIP3    H231422   4.081   3.125   7.176  0.6214  0.2059  1.2601
 3263TIP3   OH231423   6.280   1.906   8.352  0.5477 -0.0803 -0.6666
 3263TIP3    H131424   6.213   1.845   8.320  0.4373 -0.5228  0.3703
 3263TIP3    H231425   6.350   1.849   8.386  0.3286  0.3541  0.5473
 3264TIP3   OH231426   2.717   5.575   1.781 -0.2820  1.2337 -0.4845
 3264TIP3    H131427   2.627   5.570   1.747 -0.7927 -0.0722  0.9268
 3264TIP3    H231428   2.710   5.544   1.871  1.6428  0.8742 -0.4149
 3265TIP3   OH231429   5.780   0.366   1.426  0.5921  0.2705 -0.2584
 3265TIP3    H131430   5.729   0.404   1.498 -1.3018  1.9307 -2.3261
 3265TIP3    H231431   5.870   0.366   1.458 -0.2363  0.3944  2.3005
 3266TIP3   OH231432   5.584   1.746   7.712  0.7264 -0.6150 -0.2181
 3266TIP3    H131433   5.624   1.819   7.666  0.4057  0.1895  0.7345
 3266TIP3    H231434   5.573   1.778   7.802  0.0460 -1.6288  0.0754
 3267TIP3   OH231435   5.542   6.122   7.245  0.0537 -0.0005  0.3584
 3267TIP3    H131436   5.523   6.057   7.178 -0.1522 -0.1369  0.5485
 3267TIP3    H231437   5.485   6.196   7.224  0.5880  0.2931 -0.1040
 3268TIP3   OH231438   3.006   4.197   7.904  0.1352 -0.4188  0.3871
 3268TIP3    H131439   2.955   4.257   7.849  0.6046 -1.0055 -0.7327
 3268TIP3    H231440   3.014   4.241   7.988  0.3220  1.0150 -0.3550
 3269TIP3   OH231441   6.530   4.753   2.187 -0.4402 -0.0458 -0.3335
 3269TIP3    H131442   6.481   4.761   2.269 -0.1000  1.4350 -0.2444
 3269TIP3    H231443   6.528   4.841   2.149 -0.8860 -0.7885 -2.1085
 3270TIP3   OH231444   1.509   4.209   2.299  0.1388  0.1904  0.1026
 3270TIP3    H131445   1.465   4.124   2.307  2.5976 -1.1087  1.1633
 3270TIP3    H231446   1.559   4.217   2.380 -0.8901  3.2490  0.5345
 3271TIP3   OH231447   6.627   3.477   7.065  0.3542  0.2182 -0.3966
 3271TIP3    H131448   6.584   3.392   7.056 -2.2561  1.5127 -1.1140
 3271TIP3    H231449   6.691   3.480   6.993 -0.6575 -0.5248 -1.3565
 3272TIP3   OH231450   3.348   2.520   0.402 -0.1285 -0.1504 -0.4874
 3272TIP3    H131451   3.410   2.450   0.422 -0.6205 -0.4870 -0.0949
 3272TIP3    H231452   3.328   2.559   0.487  0.4382  0.7318 -0.7460
 3273TIP3   OH231453   4.361   5.143   0.215 -0.1412 -0.2398  0.4984
 3273TIP3    H131454   4.433   5.087   0.246  0.6788 -0.2988 -1.3811
 3273TIP3    H231455   4.393   5.232   0.228  0.0999 -0.2634  0.1069
 3274TIP3   OH231456   1.926   4.697   1.898 -0.0725  0.3017 -0.6580
 3274TIP3    H131457   1.943   4.609   1.931  1.3160  0.5268 -0.6771
 3274TIP3    H231458   2.013   4.738   1.893 -0.8187  2.3663  1.2886
 3275TIP3   OH231459   1.030   4.655   0.762  0.3017 -0.1039 -0.1956
 3275TIP3    H131460   0.990   4.625   0.844  1.1526 -0.6467  0.0286
 3275TIP3    H231461   1.060   4.574   0.720  2.6801  0.3763  0.4270
 3276TIP3   OH231462   1.416   0.509   8.512 -0.9254 -0.4443 -0.4949
 3276TIP3    H131463   1.448   0.595   8.486 -1.5484 -0.1440 -0.2880
 3276TIP3    H231464   1.481   0.478   8.576  0.5623 -1.1490 -2.2445
 3277TIP3   OH231465   6.551   3.464   2.530 -0.5312 -0.1944  0.0065
 3277TIP3    H131466   6.584   3.546   2.495  0.3498 -0.5251  0.0511
 3277TIP3    H231467   6.570   3.468   2.624 -2.0323  0.2794  0.3188
 3278TIP3   OH231468   1.786   4.729   2.373  0.3881 -0.6267 -0.4898
 3278TIP3    H131469   1.854   4.763   2.315 -1.1387  1.1506 -1.3329
 3278TIP3    H231470   1.710   4.784   2.356 -1.1637 -2.2757  0.7190
 3279TIP3   OH231471   0.552   0.524   1.049  0.2670 -0.1507 -0.3410
 3279TIP3    H131472   0.636   0.556   1.084  0.5891  2.1894 -2.9134
 3279TIP3    H231473   0.486   0.581   1.089  0.3261  0.4256 -1.0300
 3280TIP3   OH231474   1.085   3.906   8.686 -0.4288  0.1826  0.4696
 3280TIP3    H131475   1.049   3.971   8.746 -0.4575 -0.6443  1.3940
 3280TIP3    H231476   1.125   3.956   8.616 -0.0685  1.1999  1.3826
 3281TIP3   OH231477   3.312   3.313   2.094  0.1883 -1.0419 -0.0881
 3281TIP3    H131478   3.221   3.335   2.112  0.0184 -0.4723 -1.5145
 3281TIP3    H231479   3.319   3.221   2.117 -0.8909 -1.2280 -0.4434
 3282TIP3   OH231480   5.996   6.224   7.700  0.0174  0.1655  0.1943
 3282TIP3    H131481   5.916   6.179   7.671  0.1955 -0.4477  0.6205
 3282TIP3    H231482   6.022   6.176   7.779 -0.2798  1.5791  1.1821
 3283TIP3   OH231483   0.424   4.869   8.834  0.3813 -0.1781 -0.0196
 3283TIP3    H131484   0.406   4.934   8.901 -0.9099 -0.0214 -0.4824
 3283TIP3    H231485   0.400   4.785   8.874 -1.0122 -0.0233 -0.4509
 3284TIP3   OH231486   2.827   0.467   8.214 -0.0883  0.4987 -0.4287
 3284TIP3    H131487   2.878   0.414   8.153  0.5091  1.1933 -0.5393
 3284TIP3    H231488   2.848   0.429   8.300 -0.3296  0.0151 -0.5789
 3285TIP3   OH231489   6.302   0.098   2.226 -0.0792  0.2400  0.1682
 3285TIP3    H131490   6.332   0.166   2.286 -0.6480  0.8146 -0.1848
 3285TIP3    H231491   6.234   0.051   2.274 -2.0224  2.0060 -0.6908
 3286TIP3   OH231492   5.028   5.834   6.962 -0.0202  0.2680  0.1151
 3286TIP3    H131493   4.999   5.817   6.873  1.7753 -0.8253 -0.3020
 3286TIP3    H231494   5.081   5.758   6.986  1.4565  1.5842  1.2588
 3287TIP3   OH231495   1.604   2.965   8.187 -0.4842  1.0029 -0.2433
 3287TIP3    H131496   1.611   2.928   8.275  1.0740  0.3813 -0.5884
 3287TIP3    H231497   1.546   2.905   8.140  0.2250  0.2127 -0.1529
 3288TIP3   OH231498   2.877   3.967   1.302 -0.5126  0.2868  0.0964
 3288TIP3    H131499   2.837   4.036   1.355 -1.9786 -1.2639  1.1102
 3288TIP3    H231500   2.889   3.894   1.363  2.0856 -0.0290 -0.6636
 3289TIP3   OH231501   5.245   4.610   0.388  0.2626  0.0191  0.6015
 3289TIP3    H131502   5.301   4.577   0.318 -0.1890  0.4912  0.0071
 3289TIP3    H231503   5.258   4.705   0.386 -1.3146  0.2465 -0.2265
 3290TIP3   OH231504   5.357   5.985   0.624 -0.2626  0.3673  0.8767
 3290TIP3    H131505   5.441   5.947   0.598 -0.0549  0.9689  0.6581
 3290TIP3    H231506   5.378   6.039   0.701 -0.4114  0.6579  0.7158
 3291TIP3   OH231507   0.570   1.751   8.576 -0.2571 -0.3517 -0.3580
 3291TIP3    H131508   0.594   1.842   8.560  1.4601 -0.7993 -0.5464
 3291TIP3    H231509   0.492   1.756   8.631 -0.1739  1.2273 -0.3291
 3292TIP3   OH231510   5.267   5.578   2.274  0.1121  0.1221 -0.5342
 3292TIP3    H131511   5.217   5.655   2.302  0.0123 -0.0185 -0.3192
 3292TIP3    H231512   5.201   5.511   2.258  0.1703  0.1930 -1.0965
 3293TIP3   OH231513   1.012   1.162   1.486 -0.6452  0.0058 -0.4947
 3293TIP3    H131514   1.005   1.124   1.398 -0.9089  2.7598 -1.7591
 3293TIP3    H231515   1.022   1.086   1.544  0.8883 -1.8770 -2.9995
 3294TIP3   OH231516   0.555   2.501   1.558 -0.1178  0.8840  0.3796
 3294TIP3    H131517   0.563   2.426   1.499  0.3718 -0.2135  1.7573
 3294TIP3    H231518   0.462   2.508   1.576 -0.1915  0.7585  0.0480
 3295TIP3   OH231519   2.648   3.465   6.939  0.0584  0.3785 -0.3096
 3295TIP3    H131520   2.711   3.522   6.983  1.1967 -2.6127  2.2611
 3295TIP3    H231521   2.701   3.413   6.879 -0.7582  0.9321 -1.5637
 3296TIP3   OH231522   0.036   1.629   2.307  0.4242  0.3690  0.8501
 3296TIP3    H131523   0.029   1.654   2.399  0.2741  0.8009  0.7226
 3296TIP3    H231524   0.131   1.622   2.291  0.4499  0.2995  1.0322
 3297TIP3   OH231525   1.835   5.613   7.976 -0.4491  0.2627  0.6458
 3297TIP3    H131526   1.743   5.609   7.949 -0.2791  1.1674 -0.1216
 3297TIP3    H231527   1.884   5.588   7.897 -0.0540 -2.3791  1.6193
 3298TIP3   OH231528   0.228   3.043   0.626  0.0146  0.0507 -0.9742
 3298TIP3    H131529   0.236   2.995   0.544 -1.3611 -1.0541 -0.4862
 3298TIP3    H231530   0.134   3.044   0.644  0.2934  0.3538  0.5463
 3299TIP3   OH231531   6.770   5.623   1.799  0.5908 -0.5146  0.4638
 3299TIP3    H131532   6.730   5.668   1.874 -0.1878 -2.5292  1.3229
 3299TIP3    H231533   6.696   5.592   1.747  1.1240  0.6967 -1.1077
 3300TIP3   OH231534   1.985   5.721   1.535  0.3968 -0.4373 -0.3844
 3300TIP3    H131535   2.026   5.795   1.489  1.6381  1.0798  2.8989
 3300TIP3    H231536   1.916   5.761   1.588  1.1904 -1.5463  1.5844
 3301TIP3   OH231537   4.335   4.714   8.064 -0.1421 -0.1103  0.5535
 3301TIP3    H131538   4.376   4.702   7.979  0.1836  0.8290  0.5751
 3301TIP3    H231539   4.283   4.634   8.077  0.6683 -0.7432 -0.0258
 3302TIP3   OH231540   4.576   1.750   7.902 -0.0448  0.0096 -0.6541
 3302TIP3    H131541   4.562   1.677   7.962 -0.9023 -0.7811 -1.7792
 3302TIP3    H231542   4.497   1.803   7.909  1.2147  1.7568  1.3354
 3303TIP3   OH231543   3.572   1.239   0.288  0.1154 -0.2638 -0.0927
 3303TIP3    H131544   3.503   1.266   0.348  0.4540  0.0334  0.1680
 3303TIP3    H231545   3.529   1.233   0.203 -0.3411 -0.5756  0.1593
 3304TIP3   OH231546   0.598   2.476   1.119 -0.0529 -0.4622  0.0678
 3304TIP3    H131547   0.664   2.422   1.163  0.0478  0.8569  1.5942
 3304TIP3    H231548   0.606   2.562   1.159  0.3375  1.0067 -2.8567
 3305TIP3   OH231549   5.970   3.889   0.282  0.8551 -0.4036 -0.3780
 3305TIP3    H131550   5.948   3.833   0.356  1.9314 -0.1118  0.1972
 3305TIP3    H231551   5.903   3.872   0.216 -0.0668 -0.7374  0.6347
 3306TIP3   OH231552   6.296   5.501   7.259 -0.0112 -0.0996  0.3900
 3306TIP3    H131553   6.335   5.587   7.247  0.2158 -0.4013 -1.4299
 3306TIP3    H231554   6.325   5.472   7.345 -0.3625  1.7548  1.1741
 3307TIP3   OH231555   6.782   1.499   2.065 -0.3361 -0.6328  0.1227
 3307TIP3    H131556   6.831   1.529   1.989 -0.2083 -0.5322  0.2433
 3307TIP3    H231557   6.805   1.561   2.134 -0.3124 -0.8268  0.2903
 3308TIP3   OH231558   2.168   3.117   7.550  0.2267 -0.2483  0.5721
 3308TIP3    H131559   2.226   3.179   7.507  1.3711 -1.7458 -0.1489
 3308TIP3    H231560   2.104   3.094   7.483  0.1674 -0.2883  0.6426
 3309TIP3   OH231561   2.375   5.032   0.846 -0.1705  0.2302  0.3898
 3309TIP3    H131562   2.387   4.940   0.823  0.1322  0.1022  1.0215
 3309TIP3    H231563   2.400   5.080   0.767  2.6190 -0.1176  0.9710
 3310TIP3   OH231564   4.954   4.184   8.092 -0.0959  0.4929  0.7295
 3310TIP3    H131565   5.018   4.149   8.155 -0.9470 -1.4175  0.6053
 3310TIP3    H231566   4.972   4.136   8.011  0.7955  2.7187 -0.4577
 3311TIP3   OH231567   4.572   1.417   8.667 -0.0003 -0.6412 -0.2016
 3311TIP3    H131568   4.643   1.352   8.661  1.3276  0.4672  2.0295
 3311TIP3    H231569   4.616   1.501   8.656 -1.3431 -0.0115 -0.8477
 3312TIP3   OH231570   2.617   2.985   2.189 -0.3661  0.2823 -0.0754
 3312TIP3    H131571   2.676   2.921   2.148 -0.7365 -1.3137  1.7580
 3312TIP3    H231572   2.676   3.045   2.235 -0.0675  0.1752 -0.3117
 3313TIP3   OH231573   4.862   1.181   1.081  0.1881 -0.4713 -0.2780
 3313TIP3    H131574   4.874   1.135   0.998 -0.5950  1.3071 -1.4511
 3313TIP3    H231575   4.768   1.174   1.099  0.1544  0.1650 -0.1767
 3314TIP3   OH231576   4.362   6.558   8.684 -0.4062 -0.7715  0.1560
 3314TIP3    H131577   4.290   6.499   8.665  0.2996 -0.9154 -2.5508
 3314TIP3    H231578   4.325   6.646   8.672 -0.9893 -0.6510  2.3933
 3315TIP3   OH231579   2.886   2.468   1.341  0.1912  0.0459  0.7529
 3315TIP3    H131580   2.908   2.407   1.411 -0.5963 -0.7453  0.3504
 3315TIP3    H231581   2.960   2.464   1.281  0.4165 -0.0495  1.0387
 3316TIP3   OH231582   2.298   3.130   1.614 -0.0854  0.3275  0.1148
 3316TIP3    H131583   2.342   3.187   1.678 -1.4572  2.6628 -0.8823
 3316TIP3    H231584   2.205   3.152   1.621 -0.3879 -0.0035 -1.9927
 3317TIP3   OH231585   0.755   2.415   1.830  0.1244 -0.1817  0.1374
 3317TIP3    H131586   0.775   2.372   1.746  1.6052  0.5763  0.0748
 3317TIP3    H231587   0.771   2.507   1.814  1.2304 -0.1157  1.4840
 3318TIP3   OH231588   1.122   1.667   3.126 -0.4981 -0.0308  0.6299
 3318TIP3    H131589   1.088   1.612   3.055 -1.1308 -1.5730  2.0414
 3318TIP3    H231590   1.202   1.623   3.154 -0.7124  0.0630  1.4199
 3319TIP3   OH231591   5.528   1.656   1.296  0.7883  0.1080  0.0029
 3319TIP3    H131592   5.595   1.648   1.364  0.9534  0.1638 -0.1525
 3319TIP3    H231593   5.460   1.711   1.336  0.6642 -0.2495  0.2894
 3320TIP3   OH231594   0.777   0.478   1.281 -0.2296 -0.3632  0.1414
 3320TIP3    H131595   0.800   0.401   1.229 -0.3012  0.2313 -0.8085
 3320TIP3    H231596   0.695   0.455   1.324 -1.4426 -0.0539 -1.9003
 3321TIP3   OH231597   0.617   2.515   8.305 -0.0018  0.0876  0.2350
 3321TIP3    H131598   0.528   2.481   8.303  0.5615 -1.4796  0.0082
 3321TIP3    H231599   0.654   2.488   8.221  0.2525  2.0378 -0.3292
 3322TIP3   OH231600   4.717   3.710   7.267 -0.4393  0.2203  0.5076
 3322TIP3    H131601   4.686   3.720   7.177  1.6425  2.2188 -0.0999
 3322TIP3    H231602   4.787   3.645   7.261 -0.5595  0.0691  0.7541
 3323TIP3   OH231603   1.353   3.868   8.799 -0.3210  0.1881  0.2505
 3323TIP3    H131604   1.259   3.873   8.783 -0.3540  0.7630  0.5994
 3323TIP3    H231605   1.386   3.956   8.778  0.0744  0.1066  0.5098
 3324TIP3   OH231606   0.074   0.027   2.042 -0.1327  0.7001 -0.3409
 3324TIP3    H131607   0.116   0.112   2.060 -0.0008  0.8585 -1.3642
 3324TIP3    H231608   0.027   0.040   1.960 -0.0933 -0.2338 -0.5218
 3325TIP3   OH231609   4.477   5.660   2.711 -0.6127  0.1975  1.0705
 3325TIP3    H131610   4.404   5.642   2.653 -0.5534  0.1275  1.0186
 3325TIP3    H231611   4.499   5.752   2.694 -1.8156  0.7610  2.3267
 3326TIP3   OH231612   5.255   4.934   0.630  0.6458  0.3526 -0.0423
 3326TIP3    H131613   5.318   4.990   0.676  1.3105 -0.7931  0.5247
 3326TIP3    H231614   5.214   4.883   0.700  0.3281 -0.1171 -0.5650
 3327TIP3   OH231615   3.930   5.534   7.738 -0.1064 -0.4046 -0.4586
 3327TIP3    H131616   3.926   5.439   7.747 -3.9543 -0.3123  0.5122
 3327TIP3    H231617   4.012   5.559   7.780 -0.0652 -3.1262  1.3088
 3328TIP3   OH231618   1.560   2.202   0.853  0.5357 -0.0141 -0.1687
 3328TIP3    H131619   1.484   2.257   0.832 -0.2502  0.0554  2.5662
 3328TIP3    H231620   1.623   2.261   0.894 -0.1016 -0.9483  2.3271
 3329TIP3   OH231621   4.659   3.796   7.644  0.2197 -0.0975  0.3191
 3329TIP3    H131622   4.616   3.713   7.623 -0.2802  0.2626 -0.1259
 3329TIP3    H231623   4.741   3.793   7.595  0.1588 -0.2919  0.2255
 3330TIP3   OH231624   1.621   0.393   0.952  0.6138  0.4640  0.3240
 3330TIP3    H131625   1.690   0.340   0.991  1.8369 -0.1474 -2.3919
 3330TIP3    H231626   1.665   0.474   0.925 -0.5686  1.6148  1.6923
 3331TIP3   OH231627   5.695   4.480   0.650 -0.3108  0.5330  0.1689
 3331TIP3    H131628   5.721   4.497   0.559  0.5235 -1.5093 -0.0525
 3331TIP3    H231629   5.752   4.537   0.702  2.8257 -1.7229 -0.4560
 3332TIP3   OH231630   1.348   3.419   8.291 -0.2740  0.1355 -0.0546
 3332TIP3    H131631   1.275   3.369   8.328 -0.3162 -0.9932 -1.5939
 3332TIP3    H231632   1.388   3.360   8.228  2.1787  0.6255  0.9483
 3333TIP3   OH231633   0.461   3.789   8.816  0.0623 -0.1272 -0.5398
 3333TIP3    H131634   0.436   3.831   8.899 -0.7739  0.3252 -1.0043
 3333TIP3    H231635   0.452   3.859   8.751  0.7538 -0.4679 -1.0026
 3334TIP3   OH231636   6.726   5.221   0.025 -0.0964 -0.7675  0.2628
 3334TIP3    H131637   6.663   5.156   0.056  0.4088 -0.1232  2.8667
 3334TIP3    H231638   6.785   5.235   0.099  1.9501  0.1033 -1.4154
 3335TIP3   OH231639   0.323   2.569   1.711  0.4571  0.6467  0.2417
 3335TIP3    H131640   0.254   2.628   1.682  0.1922 -0.4285 -1.4284
 3335TIP3    H231641   0.277   2.491   1.742  0.8645  0.6878  0.9873
 3336TIP3   OH231642   5.128   1.057   1.473  0.2540  0.0988  0.3872
 3336TIP3    H131643   5.189   0.999   1.428 -0.9705  0.0803 -1.3461
 3336TIP3    H231644   5.117   1.131   1.413 -1.3117  0.1566  0.7090
 3337TIP3   OH231645   5.331   6.671   1.810 -0.3144  0.1619 -0.5563
 3337TIP3    H131646   5.309   6.586   1.773  0.3145 -0.8215  1.2025
 3337TIP3    H231647   5.261   6.689   1.873  0.9032 -0.3716  1.0280
 3338TIP3   OH231648   4.492   6.161   7.987 -0.2456 -0.0579 -0.0688
 3338TIP3    H131649   4.417   6.154   8.047 -0.3630 -2.1607 -0.4058
 3338TIP3    H231650   4.565   6.120   8.035  0.9673  2.5436  0.5367
 3339TIP3   OH231651   3.421   0.473   8.554  0.0545 -0.4032  0.3752
 3339TIP3    H131652   3.408   0.463   8.648 -1.8576 -0.1762  0.1798
 3339TIP3    H231653   3.336   0.451   8.515  1.1693 -1.8482 -1.4124
 3340TIP3   OH231654   1.991   6.829   1.105 -0.0162 -0.2604  0.4317
 3340TIP3    H131655   1.937   6.799   1.179  2.3471 -1.5794  1.7355
 3340TIP3    H231656   2.076   6.848   1.144  0.6505  1.3073 -1.6263
 3341TIP3   OH231657   6.314   1.429   1.003  0.7728 -0.3394  0.8187
 3341TIP3    H131658   6.306   1.524   1.010 -0.3229 -0.2466 -1.0460
 3341TIP3    H231659   6.403   1.415   0.971  0.0234  0.3066 -1.7512
 3342TIP3   OH231660   3.484   4.523   0.660  0.2191  0.7833  0.0553
 3342TIP3    H131661   3.541   4.472   0.716 -1.6724 -0.8847  0.5729
 3342TIP3    H231662   3.405   4.538   0.712 -0.0276  2.6434 -0.7685
 3343TIP3   OH231663   6.622   3.764   1.706 -0.5023 -0.1875  0.0045
 3343TIP3    H131664   6.589   3.675   1.706 -0.4089 -0.2235 -0.3098
 3343TIP3    H231665   6.707   3.758   1.662  0.1735 -0.1862  1.2713
 3344TIP3   OH231666   1.713   6.542   1.477  0.2606 -0.1056 -0.0812
 3344TIP3    H131667   1.715   6.638   1.483 -0.4385 -0.1266  0.6772
 3344TIP3    H231668   1.620   6.520   1.476  0.4162 -0.7511 -0.9024
 3345TIP3   OH231669   3.990   1.093   1.393  0.3566 -0.3523  0.5397
 3345TIP3    H131670   3.983   1.013   1.341 -0.4234 -0.3242  0.5997
 3345TIP3    H231671   4.072   1.082   1.442  0.1583 -1.1976  0.6958
 3346TIP3   OH231672   1.489   1.291   8.671 -0.0222 -0.5034  0.1640
 3346TIP3    H131673   1.410   1.344   8.687  0.4820  0.1385  0.5726
 3346TIP3    H231674   1.509   1.305   8.579 -0.1821 -0.3819  0.1476
 3347TIP3   OH231675   0.824   5.341   8.453 -0.2719 -0.2439 -0.0855
 3347TIP3    H131676   0.854   5.331   8.543  1.6535 -2.2297 -0.8455
 3347TIP3    H231677   0.828   5.436   8.437  0.2691  0.0544  1.6031
 3348TIP3   OH231678   6.788   2.136   2.851  0.4022 -0.1855 -0.3903
 3348TIP3    H131679   6.848   2.137   2.776  0.7713  3.5368 -0.2427
 3348TIP3    H231680   6.843   2.157   2.926 -0.5082 -0.5027  0.3756
 3349TIP3   OH231681   0.054   3.964   7.492  0.0550  0.0917  0.2565
 3349TIP3    H131682   0.018   4.051   7.473 -0.5665 -0.5881 -1.9581
 3349TIP3    H231683   0.145   3.969   7.463 -0.2793 -0.2956 -0.8876
 3350TIP3   OH231684   6.221   4.350   1.042  0.3572  0.7543  0.6286
 3350TIP3    H131685   6.299   4.372   1.093  0.4412 -1.0498  1.3665
 3350TIP3    H231686   6.216   4.255   1.047 -0.9994  0.7158 -0.7699
 3351TIP3   OH231687   0.458   3.021   7.143 -0.1196  0.1470 -0.2298
 3351TIP3    H131688   0.492   3.068   7.219 -0.1156  0.1988 -0.2633
 3351TIP3    H231689   0.365   3.011   7.160 -0.1552  0.3351 -0.3093
 3352TIP3   OH231690   4.865   0.992   1.539 -0.4716 -0.1417  0.0526
 3352TIP3    H131691   4.958   1.012   1.539 -0.0102 -2.0411 -0.8767
 3352TIP3    H231692   4.854   0.927   1.469 -2.0066 -1.9621  1.8310
 3353TIP3   OH231693   1.947   5.687   8.364 -0.1902 -0.1096 -0.6167
 3353TIP3    H131694   2.030   5.640   8.372 -0.3207 -0.2311  0.0916
 3353TIP3    H231695   1.881   5.618   8.366 -0.3796  0.0974  0.3197
 3354TIP3   OH231696   2.345   6.435   1.225 -0.2489  0.2113  0.3130
 3354TIP3    H131697   2.305   6.460   1.141 -1.6823 -0.4473  0.7605
 3354TIP3    H231698   2.407   6.366   1.203 -0.6144  0.0435 -0.2123
 3355TIP3   OH231699   6.769   3.763   7.631 -0.6255  0.4533  0.3204
 3355TIP3    H131700   6.680   3.794   7.611 -0.2607  0.5977 -1.1809
 3355TIP3    H231701   6.827   3.829   7.593  0.1478 -1.0618 -1.3103
 3356TIP3   OH231702   2.905   0.024   2.822  0.0394 -1.3127  0.0944
 3356TIP3    H131703   2.996   0.053   2.812  0.1916 -2.1928 -1.3069
 3356TIP3    H231704   2.906  -0.029   2.902  0.5906 -0.6810  0.5157
 3357TIP3   OH231705   6.330   2.349   1.977  0.5321  0.6189 -0.2120
 3357TIP3    H131706   6.387   2.286   1.933  0.1348  0.5917 -0.6894
 3357TIP3    H231707   6.389   2.403   2.030  1.2115  1.6932 -2.0023
 3358TIP3   OH231708   1.504   0.210   7.287  0.2418  0.3032 -0.1886
 3358TIP3    H131709   1.563   0.263   7.340  0.3042 -0.2163  0.2659
 3358TIP3    H231710   1.497   0.258   7.204 -2.1528  2.7656  1.2267
 3359TIP3   OH231711   0.381   0.845   1.201 -0.4388 -0.4717 -0.0765
 3359TIP3    H131712   0.395   0.796   1.282  1.7476  0.3039  0.0729
 3359TIP3    H231713   0.384   0.937   1.228  0.3740 -0.2000 -1.0282
 3360TIP3   OH231714   3.832   0.129   8.594 -0.2023 -0.2305 -0.2327
 3360TIP3    H131715   3.795   0.163   8.675 -0.8837 -0.2689 -0.5162
 3360TIP3    H231716   3.882   0.202   8.557  0.5119 -0.3650  0.4555
 3361TIP3   OH231717   3.266   5.485   2.427  0.4319 -0.0111  0.0144
 3361TIP3    H131718   3.183   5.491   2.475 -0.0639  0.6265 -0.9100
 3361TIP3    H231719   3.300   5.398   2.449 -1.0933 -0.7867 -0.5905
 3362TIP3   OH231720   0.029   3.227   1.811 -0.3729 -0.8403  0.2093
 3362TIP3    H131721   0.046   3.209   1.903 -0.9685  0.4584  0.5872
 3362TIP3    H231722  -0.036   3.162   1.785 -0.8404 -0.6686  0.9397
 3363TIP3   OH231723   3.569   3.430   0.992  0.2277 -0.2182 -0.0344
 3363TIP3    H131724   3.578   3.524   0.978  0.5251 -0.3576 -0.8175
 3363TIP3    H231725   3.654   3.393   0.969  0.4979 -0.5673  1.4033
 3364TIP3   OH231726   5.369   2.040   8.638 -0.0962  0.4623  0.0795
 3364TIP3    H131727   5.286   2.072   8.674  0.1400 -0.0297  1.1032
 3364TIP3    H231728   5.360   2.051   8.543 -0.9539  1.2969  0.2384
 3365TIP3   OH231729   1.534   2.514   2.751 -0.7718 -0.2658 -0.2652
 3365TIP3    H131730   1.554   2.599   2.790  0.5759 -0.8617  0.4240
 3365TIP3    H231731   1.473   2.534   2.680 -0.6506  1.2443  0.0172
 3366TIP3   OH231732   1.318   3.488   1.756  0.4614 -0.3800  0.5010
 3366TIP3    H131733   1.276   3.572   1.741  0.0157 -0.9873 -2.0995
 3366TIP3    H231734   1.381   3.505   1.826  1.9319  2.6741 -1.3766
 3367TIP3   OH231735   1.659   6.573   0.055 -0.3182 -0.8814  0.0140
 3367TIP3    H131736   1.564   6.564   0.046 -0.4253  1.0870 -1.2616
 3367TIP3    H231737   1.670   6.618   0.139 -0.6661  0.6400 -0.7244
 3368TIP3   OH231738   4.338   4.566   2.060 -0.1269 -0.3657 -0.2232
 3368TIP3    H131739   4.302   4.551   2.147 -0.3062 -0.1606 -0.2622
 3368TIP3    H231740   4.429   4.536   2.066 -0.0621 -0.1075  0.1069
 3369TIP3   OH231741   0.182   6.621   0.054  0.6478 -0.7380  0.0453
 3369TIP3    H131742   0.193   6.537   0.099 -0.0016 -1.0858 -0.4362
 3369TIP3    H231743   0.269   6.641   0.020  1.4011 -0.0265  2.1901
 3370TIP3   OH231744   2.488   0.667   0.143 -0.2129  0.0208  0.0595
 3370TIP3    H131745   2.403   0.645   0.104 -0.7968  0.6118  0.9457
 3370TIP3    H231746   2.480   0.639   0.234  1.4819 -2.2430 -0.4182
 3371TIP3   OH231747   4.772   5.842   0.480  0.5158  0.2767  0.0874
 3371TIP3    H131748   4.822   5.795   0.415  0.2883 -1.6355  1.2269
 3371TIP3    H231749   4.682   5.811   0.469  0.3113  0.6282  0.6854
 3372TIP3   OH231750   4.336   0.822   8.506  0.7635 -0.0254 -0.4748
 3372TIP3    H131751   4.325   0.729   8.526 -0.3718  0.3297  0.6735
 3372TIP3    H231752   4.252   0.862   8.528  1.4787  1.4003 -0.1939
 3373TIP3   OH231753   5.592   1.580   0.214  0.0496  0.1658  0.0364
 3373TIP3    H131754   5.633   1.574   0.300  0.6042 -0.0820 -0.2426
 3373TIP3    H231755   5.498   1.578   0.233  0.1410  1.2945  0.7183
 3374TIP3   OH231756   4.970   5.757   7.311  0.4304 -0.0512  0.0164
 3374TIP3    H131757   4.889   5.717   7.279 -0.1117  0.3579  0.8321
 3374TIP3    H231758   5.020   5.683   7.346  0.3182 -0.2782 -0.2955
 3375TIP3   OH231759   3.495   6.644   0.682 -0.4613  0.3452  0.0005
 3375TIP3    H131760   3.548   6.711   0.638 -0.3144  0.2467  0.0291
 3375TIP3    H231761   3.489   6.572   0.619  0.7518 -0.2933  0.5956
 3376TIP3   OH231762   1.206   4.711   0.366  0.7224 -0.0023 -0.7037
 3376TIP3    H131763   1.174   4.777   0.305 -1.0114  0.8735  1.0631
 3376TIP3    H231764   1.203   4.753   0.452  0.7882 -1.9432  0.3089
 3377TIP3   OH231765   1.003   1.288   8.488  0.1386 -0.1471 -0.4022
 3377TIP3    H131766   1.004   1.201   8.447  2.4834 -0.7144  0.7131
 3377TIP3    H231767   0.985   1.270   8.580 -0.0549  0.6419 -0.2849
 3378TIP3   OH231768   4.136   1.735   2.518 -0.0047  0.0094 -0.5711
 3378TIP3    H131769   4.232   1.727   2.514  0.0151 -0.9132  1.0309
 3378TIP3    H231770   4.104   1.649   2.489 -0.3098 -0.1282  0.1743
 3379TIP3   OH231771   6.293   3.281   1.162 -0.0425 -0.0791  0.8371
 3379TIP3    H131772   6.358   3.269   1.093  0.9362  1.2799  1.4832
 3379TIP3    H231773   6.221   3.327   1.120  0.4672  0.5687  0.6556
 3380TIP3   OH231774   3.928   2.188   8.812 -0.2084 -0.3894  0.0509
 3380TIP3    H131775   3.916   2.094   8.800 -0.3505 -0.3550 -0.0799
 3380TIP3    H231776   3.864   2.212   8.879 -1.6350 -0.0188 -1.3909
 3381TIP3   OH231777   5.467   2.649   0.984 -0.4965  0.1472 -0.0728
 3381TIP3    H131778   5.500   2.559   0.975 -1.0074 -0.1327  0.7088
 3381TIP3    H231779   5.543   2.701   1.008 -0.4875 -0.3980  1.1826
 3382TIP3   OH231780   0.307   4.169   7.869 -0.1549  0.2525 -0.5155
 3382TIP3    H131781   0.217   4.142   7.853 -0.2143 -0.1435  0.4438
 3382TIP3    H231782   0.307   4.263   7.851 -0.5555  0.1086 -1.3258
 3383TIP3   OH231783   6.397   2.526   0.103  0.2454  0.5459 -0.4912
 3383TIP3    H131784   6.369   2.606   0.060 -0.6577  0.3345 -0.3176
 3383TIP3    H231785   6.372   2.537   0.195  1.8279  0.8424 -0.0703
 3384TIP3   OH231786   4.969   3.763   8.127  0.2173 -0.5315  0.5877
 3384TIP3    H131787   4.985   3.826   8.057  0.3328 -1.4393 -0.2230
 3384TIP3    H231788   5.013   3.801   8.204  1.0445 -0.0503 -0.1025
 3385TIP3   OH231789   5.418   3.392   7.725 -0.4771 -0.5007  0.5450
 3385TIP3    H131790   5.433   3.361   7.635  2.8583  0.5767  0.5636
 3385TIP3    H231791   5.430   3.314   7.779 -3.3573 -1.3499  0.1459
 3386TIP3   OH231792   4.950   2.652   1.148  0.6759  0.4475 -0.8834
 3386TIP3    H131793   4.959   2.560   1.171 -1.5746  0.1896 -0.7444
 3386TIP3    H231794   5.038   2.688   1.155  1.3272 -1.3025  0.7815
 3387TIP3   OH231795   5.174   0.744   0.772 -0.3401 -0.7015 -0.4785
 3387TIP3    H131796   5.213   0.695   0.700  1.4503  0.3182 -0.2708
 3387TIP3    H231797   5.160   0.832   0.736  1.5779  0.1363  0.6412
 3388TIP3   OH231798   0.899   2.856   7.687  0.3508  0.2710 -0.3346
 3388TIP3    H131799   0.965   2.853   7.757  1.1421  0.0480 -1.0689
 3388TIP3    H231800   0.822   2.895   7.728  0.2328 -1.3541  1.1184
 3389TIP3   OH231801   4.113   4.664   8.825  0.1767  0.1607  0.2154
 3389TIP3    H131802   4.114   4.569   8.836 -0.6290  0.2213  0.8729
 3389TIP3    H231803   4.030   4.683   8.782 -0.3463  0.6831  1.3907
 3390TIP3   OH231804   6.634   3.843   8.592  0.1389 -0.1849  0.6529
 3390TIP3    H131805   6.711   3.813   8.544 -0.8476 -0.3059 -0.9257
 3390TIP3    H231806   6.655   3.932   8.619 -0.0193  0.6676 -1.8291
 3391TIP3   OH231807   5.375   6.228   0.379 -0.3422 -0.2543 -0.4375
 3391TIP3    H131808   5.453   6.245   0.326  0.2258 -0.9116  0.1481
 3391TIP3    H231809   5.371   6.132   0.385 -0.1385 -0.2004  1.0193
 3392TIP3   OH231810   1.196   4.848   0.651 -0.1137  0.2046 -0.1812
 3392TIP3    H131811   1.141   4.786   0.698 -0.8358  0.2823 -0.8886
 3392TIP3    H231812   1.238   4.900   0.719 -0.2291 -0.4452  0.3935
 3393TIP3   OH231813   4.413   3.343   1.932 -0.4875 -0.1524  0.0395
 3393TIP3    H131814   4.443   3.427   1.965  0.0077 -1.1834  2.4050
 3393TIP3    H231815   4.322   3.336   1.962 -0.5579 -0.4275 -0.2330
 3394TIP3   OH231816   2.095   6.490   1.803 -0.4194 -0.8069 -0.7006
 3394TIP3    H131817   2.007   6.516   1.777 -0.9131 -0.0821  1.5205
 3394TIP3    H231818   2.152   6.557   1.767 -1.0829  0.2020  0.0766
 3395TIP3   OH231819   0.590   0.924   0.967 -0.2354 -0.2632 -0.2689
 3395TIP3    H131820   0.639   0.856   1.014  0.7484  1.3059  1.1070
 3395TIP3    H231821   0.501   0.917   1.001 -0.0502 -0.6116  0.1656
 3396TIP3   OH231822   4.151   4.862   8.331 -0.0899 -0.6837 -0.0315
 3396TIP3    H131823   4.091   4.790   8.312 -0.3276 -1.5229  3.3585
 3396TIP3    H231824   4.169   4.855   8.425  3.1340  1.2320 -0.3473
 3397TIP3   OH231825   1.532   1.717   7.893 -0.2185 -0.4502  0.1172
 3397TIP3    H131826   1.584   1.793   7.918 -1.2380  0.8569 -1.5712
 3397TIP3    H231827   1.597   1.646   7.886  1.1599  0.8200 -0.6751
 3398TIP3   OH231828   2.067   3.737   0.059 -0.5512  0.1050  0.2735
 3398TIP3    H131829   2.101   3.654   0.091 -1.9083 -0.2869  0.7527
 3398TIP3    H231830   2.071   3.729  -0.037  1.4183  0.4120  0.2748
 3399TIP3   OH231831   2.345   6.034   8.026 -0.2094  0.3178  0.3138
 3399TIP3    H131832   2.325   6.012   7.936 -1.7233 -0.9239  0.9138
 3399TIP3    H231833   2.397   5.960   8.058 -0.9505  0.0377  0.8828
 3400TIP3   OH231834   2.753   2.274   7.356  0.0837  0.0242  0.1527
 3400TIP3    H131835   2.725   2.244   7.270 -1.7211  2.4897 -0.2072
 3400TIP3    H231836   2.700   2.223   7.418 -1.4445  0.9135 -0.3701
 3401TIP3   OH231837   0.987   6.345   7.415  0.3486  0.0849 -0.0619
 3401TIP3    H131838   0.895   6.320   7.404  0.5834 -0.4653 -0.7933
 3401TIP3    H231839   1.028   6.323   7.332  1.1376  0.3758  0.2467
 3402TIP3   OH231840   5.888   5.416   0.451  0.5868 -0.7527 -0.3739
 3402TIP3    H131841   5.976   5.437   0.482  1.4742 -2.9643 -1.1610
 3402TIP3    H231842   5.890   5.436   0.357 -0.8137  2.1019  0.0777
 3403TIP3   OH231843   3.959   2.838   2.293  0.4832  0.7113 -0.2664
 3403TIP3    H131844   3.941   2.923   2.254 -1.9447  0.5642  0.3974
 3403TIP3    H231845   3.917   2.841   2.379  0.8732 -0.9524  0.0239
 3404TIP3   OH231846   6.609   0.984   0.266 -0.6550  0.6354 -0.4204
 3404TIP3    H131847   6.627   1.076   0.288  0.4544  0.8701 -2.1360
 3404TIP3    H231848   6.630   0.977   0.173 -1.3646 -1.2162 -0.4774
 3405TIP3   OH231849   2.405   1.146   2.788 -0.6065  0.7109  0.3982
 3405TIP3    H131850   2.408   1.239   2.764 -0.1433  0.6559  0.2451
 3405TIP3    H231851   2.369   1.103   2.710  0.0275  0.6498  0.1341
 3406TIP3   OH231852   5.414   0.325   7.113 -0.0847  0.0464 -0.0348
 3406TIP3    H131853   5.430   0.231   7.119 -0.3306  0.0986  2.9809
 3406TIP3    H231854   5.495   0.362   7.077  0.5193 -1.1923  0.0256
 3407TIP3   OH231855   5.272   5.923   8.540 -0.0238 -0.1393  0.3705
 3407TIP3    H131856   5.212   5.875   8.483 -0.0665  0.9281 -0.5137
 3407TIP3    H231857   5.311   5.856   8.596  1.1286 -1.4252 -1.8769
 3408TIP3   OH231858   5.895   1.771   2.460  0.0272 -0.0045 -0.2663
 3408TIP3    H131859   5.833   1.803   2.525 -1.0687 -0.9052 -0.8404
 3408TIP3    H231860   5.977   1.817   2.481 -1.2551  2.6163 -0.6179
 3409TIP3   OH231861   2.196   4.313   7.396 -0.4927 -0.4106  0.3317
 3409TIP3    H131862   2.218   4.324   7.304  0.5725 -1.0024  0.5031
 3409TIP3    H231863   2.225   4.394   7.438 -0.7772 -0.2318  0.1835
 3410TIP3   OH231864   5.721   3.205   0.795 -0.2928  0.4104  0.1715
 3410TIP3    H131865   5.638   3.199   0.747  0.2089  0.7309 -0.7617
 3410TIP3    H231866   5.785   3.231   0.729  0.9534 -1.7345  0.4384
 3411TIP3   OH231867   4.973   1.773   2.189  0.0932  0.1277  0.5332
 3411TIP3    H131868   5.032   1.698   2.195 -0.1021 -0.0085  0.8017
 3411TIP3    H231869   4.951   1.794   2.280 -1.3898 -0.7368  0.4137
 3412TIP3   OH231870   5.475   6.231   1.398  0.6572  0.2250  0.2002
 3412TIP3    H131871   5.562   6.194   1.387  1.6598  2.1819  1.0880
 3412TIP3    H231872   5.431   6.213   1.315  3.5973  3.3817 -2.3476
 3413TIP3   OH231873   2.371   6.437   8.672 -0.0491  0.2718 -0.3333
 3413TIP3    H131874   2.290   6.475   8.640 -0.8342 -2.4892 -1.9659
 3413TIP3    H231875   2.436   6.457   8.605  0.1526  0.7728  0.0032
 3414TIP3   OH231876   0.909   1.827   8.366 -0.1214 -0.0149  0.0210
 3414TIP3    H131877   0.961   1.880   8.427 -1.5822 -0.4170  1.6656
 3414TIP3    H231878   0.937   1.737   8.382 -0.2439 -0.0907 -0.1841
 3415TIP3   OH231879   0.337   2.009   1.887  0.0507  0.0248 -0.0662
 3415TIP3    H131880   0.316   2.098   1.860 -1.6639  0.0786  1.2499
 3415TIP3    H231881   0.340   1.959   1.805  0.0946  1.1036 -0.7351
 3416TIP3   OH231882   4.182   3.014   0.563  0.0876  0.1715 -0.4836
 3416TIP3    H131883   4.259   3.037   0.614 -0.2504  1.4290 -0.5149
 3416TIP3    H231884   4.213   2.944   0.505  0.5107 -1.1597  1.2815
 3417TIP3   OH231885   5.433   2.769   1.351 -0.8190 -0.0204  0.7009
 3417TIP3    H131886   5.480   2.686   1.360 -1.5624 -0.4409  0.8387
 3417TIP3    H231887   5.413   2.794   1.441 -0.3747  0.4451  0.6731
 3418TIP3   OH231888   2.455   2.843   1.852  0.0105 -0.7759 -0.4896
 3418TIP3    H131889   2.470   2.781   1.924 -0.3906 -1.3457 -0.8881
 3418TIP3    H231890   2.384   2.899   1.884  0.8651 -0.0408  0.1646
 3419TIP3   OH231891   6.454   1.795   0.285  0.0831  0.0653 -0.0086
 3419TIP3    H131892   6.527   1.773   0.343 -0.0450  0.1449  0.1825
 3419TIP3    H231893   6.406   1.713   0.274 -0.5031  0.2776  0.8565
 3420TIP3   OH231894   4.606   3.238   0.525  0.1796 -0.2627 -0.1515
 3420TIP3    H131895   4.653   3.287   0.592 -0.1672  0.1533 -0.2082
 3420TIP3    H231896   4.546   3.182   0.574  0.5294 -0.5831 -0.0884
 3421TIP3   OH231897   4.134   4.705   0.577  0.8801  0.1225  0.1053
 3421TIP3    H131898   4.059   4.760   0.595  0.8970  0.6720 -1.3455
 3421TIP3    H231899   4.115   4.622   0.620  0.1263  0.7406  0.9722
 3422TIP3   OH231900   5.400   4.309   1.861  0.4745  0.5112 -0.0327
 3422TIP3    H131901   5.409   4.220   1.894 -0.1224 -0.3206 -1.9384
 3422TIP3    H231902   5.349   4.355   1.928  0.6433 -0.6153  0.9004
 3423TIP3   OH231903   3.892   6.130   2.351  0.2702 -0.0378 -0.3005
 3423TIP3    H131904   3.916   6.067   2.419  0.6694  0.8235  0.3685
 3423TIP3    H231905   3.914   6.086   2.269  1.6173 -0.3318  0.1962
 3424TIP3   OH231906   0.628   6.249   1.281  0.6665 -0.0065 -0.6223
 3424TIP3    H131907   0.595   6.160   1.272  0.2255  0.1333 -0.3742
 3424TIP3    H231908   0.641   6.261   1.375 -1.0224  0.8109 -0.4599
 3425TIP3   OH231909   5.856   3.084   1.430 -0.1847  0.1195 -0.4860
 3425TIP3    H131910   5.875   3.152   1.365 -0.5900  1.0673  0.3609
 3425TIP3    H231911   5.823   3.010   1.378  0.1068  0.6222 -1.4082
 3426TIP3   OH231912   2.387   1.968   1.237 -0.2768 -0.7161 -0.8974
 3426TIP3    H131913   2.361   1.877   1.220  0.8530 -1.1067 -0.6536
 3426TIP3    H231914   2.464   1.981   1.181  1.0712 -0.7367  0.8682
 3427TIP3   OH231915   6.484   1.890   6.752 -0.5556 -0.8177 -0.2043
 3427TIP3    H131916   6.427   1.813   6.759 -0.0612 -1.2604 -0.9430
 3427TIP3    H231917   6.568   1.855   6.721 -0.0260 -0.1060  0.3984
 3428TIP3   OH231918   6.760   3.624   0.266  0.1735  0.1274 -0.2958
 3428TIP3    H131919   6.721   3.711   0.265  0.6654  0.3482 -0.4271
 3428TIP3    H231920   6.851   3.639   0.290  0.0806 -0.4270  0.4489
 3429TIP3   OH231921   5.023   1.281   0.648 -0.2783  0.1339  0.3097
 3429TIP3    H131922   4.974   1.363   0.652 -0.8993 -0.0812 -1.8141
 3429TIP3    H231923   4.960   1.218   0.611  0.5745 -0.9944  0.7345
 3430TIP3   OH231924   3.558   3.001   2.372  0.0790 -0.0794  0.1782
 3430TIP3    H131925   3.480   2.971   2.418  0.2753 -1.1432 -0.1298
 3430TIP3    H231926   3.556   3.096   2.378 -0.4942 -0.1544  1.3856
 3431TIP3   OH231927   5.387   5.798   2.428 -0.0443  0.0607 -0.0295
 3431TIP3    H131928   5.405   5.742   2.353  0.5362  0.4211 -0.1646
 3431TIP3    H231929   5.291   5.805   2.430 -0.0193  1.4298 -1.7600
 3432TIP3   OH231930   5.569   1.315   2.171 -0.1281 -0.2693 -0.3067
 3432TIP3    H131931   5.487   1.280   2.207 -0.7122  1.4371  0.1043
 3432TIP3    H231932   5.634   1.247   2.190 -1.0390 -0.7706  1.2323
 3433TIP3   OH231933   2.304   0.511   8.033 -0.5327  0.0337 -0.2155
 3433TIP3    H131934   2.275   0.420   8.031 -0.2233 -0.0969  0.6484
 3433TIP3    H231935   2.398   0.507   8.019 -0.3133  0.0943  1.0929
 3434TIP3   OH231936   5.482   3.051   1.286 -0.0062  0.1165  0.0404
 3434TIP3    H131937   5.519   3.058   1.198 -0.2411  0.8779 -0.0069
 3434TIP3    H231938   5.512   2.966   1.318  0.8627  0.2362 -0.4217
 3435TIP3   OH231939   2.162   0.376   7.395 -0.1914 -0.2222  0.6933
 3435TIP3    H131940   2.164   0.330   7.312 -0.3596  0.0665  0.5254
 3435TIP3    H231941   2.072   0.366   7.426 -0.5421  0.9029  0.1235
 3436TIP3   OH231942   1.991   4.208   1.649 -0.1496 -0.3566  0.0542
 3436TIP3    H131943   2.086   4.222   1.654 -0.0322 -1.0765 -0.0076
 3436TIP3    H231944   1.981   4.113   1.658 -0.9907 -0.1243  2.0873
 3437TIP3   OH231945   4.365   0.541   0.805 -0.0474  0.4335  0.2678
 3437TIP3    H131946   4.271   0.556   0.813  0.0168  1.6519 -0.8137
 3437TIP3    H231947   4.400   0.628   0.784  1.2201 -0.1462 -0.0693
 3438TIP3   OH231948   3.521   0.143   8.795 -0.6733  0.1477 -0.3495
 3438TIP3    H131949   3.597   0.200   8.806 -1.3426  0.6994  2.1675
 3438TIP3    H231950   3.552   0.073   8.738  1.4483  0.8258 -0.1400
 3439TIP3   OH231951   2.606   1.312   0.742 -0.1615 -0.2120  0.7589
 3439TIP3    H131952   2.547   1.347   0.675  0.2071  0.2495  0.6719
 3439TIP3    H231953   2.547   1.278   0.810 -0.5712 -2.1432 -0.4881
 3440TIP3   OH231954   1.165   3.115   7.064 -0.2249 -0.2355  0.3731
 3440TIP3    H131955   1.123   3.200   7.076  1.7263  0.5382  2.4077
 3440TIP3    H231956   1.182   3.110   6.970  0.8225  2.2888  0.3361
 3441TIP3   OH231957   3.173   1.426   0.219 -0.4563 -0.4305  0.3725
 3441TIP3    H131958   3.135   1.435   0.307 -0.8496  0.6817  0.1042
 3441TIP3    H231959   3.254   1.476   0.222 -0.4239 -0.4667  0.1308
 3442TIP3   OH231960   2.770   6.484   1.111 -0.3334  0.0839  0.1791
 3442TIP3    H131961   2.737   6.425   1.043 -3.1831  0.9638  0.6823
 3442TIP3    H231962   2.744   6.443   1.193 -1.2390  1.3902  0.5662
 3443TIP3   OH231963   2.253   5.046   7.409  0.0162  0.4236  0.3546
 3443TIP3    H131964   2.298   5.011   7.486 -0.8786  0.2373  0.8096
 3443TIP3    H231965   2.302   5.124   7.386  1.9614 -0.9893 -0.5666
 3444TIP3   OH231966   6.491   3.780   7.536  0.0040  0.2089 -0.1248
 3444TIP3    H131967   6.400   3.751   7.545  0.2840 -0.9903 -1.0000
 3444TIP3    H231968   6.494   3.823   7.451  0.6061 -1.2228 -0.8573
 3445TIP3   OH231969   1.218   1.515   0.955 -0.4057  0.1831 -0.1309
 3445TIP3    H131970   1.295   1.535   0.902 -1.0392  0.9172 -0.8005
 3445TIP3    H231971   1.151   1.576   0.923 -1.1178 -0.1159  0.7710
 3446TIP3   OH231972   4.335   4.408   1.520 -0.1456  0.3896  0.1623
 3446TIP3    H131973   4.343   4.453   1.604 -0.8211 -0.0313  0.4600
 3446TIP3    H231974   4.419   4.423   1.477  0.5932 -0.2138  1.3341
 3447TIP3   OH231975   3.286   0.504   1.552  0.2465 -0.4343  0.2307
 3447TIP3    H131976   3.367   0.468   1.588  0.5929 -1.2454 -1.2515
 3447TIP3    H231977   3.306   0.521   1.460 -1.5292 -1.6175 -0.4387
 3448TIP3   OH231978   2.423   0.906   2.039  0.4634  0.1168  0.7021
 3448TIP3    H131979   2.493   0.932   1.979 -0.1431 -2.4412 -1.2914
 3448TIP3    H231980   2.449   0.820   2.070 -1.9914 -1.1730 -0.5448
 3449TIP3   OH231981   1.572   5.036   7.035  0.1778  0.2480 -0.1647
 3449TIP3    H131982   1.513   4.994   6.973 -0.0611 -2.0514  1.4527
 3449TIP3    H231983   1.633   4.966   7.060  1.3835  1.5969  0.8006
 3450TIP3   OH231984   3.655   5.551   7.093 -0.5482 -0.1092 -0.1145
 3450TIP3    H131985   3.748   5.552   7.071 -0.4961 -0.2190  0.0922
 3450TIP3    H231986   3.612   5.596   7.021 -0.3314 -0.0411 -0.2005
 3451TIP3   OH231987   4.191   0.059   0.621 -0.1445 -0.5027  0.4408
 3451TIP3    H131988   4.227  -0.026   0.647 -0.5337 -0.4741  1.0927
 3451TIP3    H231989   4.219   0.119   0.690  0.6627  0.0464 -0.3349
 3452TIP3   OH231990   6.740   2.846   2.379  0.3944 -0.8753 -0.0444
 3452TIP3    H131991   6.713   2.783   2.446 -0.6418  0.1292  0.5159
 3452TIP3    H231992   6.679   2.919   2.390  2.2125  0.6922  0.0180
 3453TIP3   OH231993   5.430   1.625   3.216 -0.1412 -0.2496 -0.1510
 3453TIP3    H131994   5.464   1.539   3.239  1.1279  0.7562  2.1544
 3453TIP3    H231995   5.337   1.620   3.237 -0.4606 -1.5351 -1.7144
 3454TIP3   OH231996   5.975   1.943   8.261 -0.2594 -0.1800 -0.5517
 3454TIP3    H131997   6.015   1.994   8.190 -1.7161  0.1782 -1.1528
 3454TIP3    H231998   5.940   2.009   8.321 -0.3675 -0.4802 -0.2818
 3455TIP3   OH231999   6.801   5.567   0.312  0.2309 -0.1375 -0.0732
 3455TIP3    H132000   6.896   5.573   0.300  0.0273  2.7413 -1.1835
 3455TIP3    H232001   6.783   5.619   0.390 -0.4926  0.3050 -0.5137
 3456TIP3   OH232002   1.231   6.806   0.353 -0.5351  0.0649 -0.5451
 3456TIP3    H132003   1.281   6.727   0.333  1.1276  0.8369  0.3740
 3456TIP3    H232004   1.139   6.780   0.342 -0.0558 -2.0869  0.1223
 3457TIP3   OH232005   3.632   5.187   1.544  0.3010  0.3024  0.1391
 3457TIP3    H132006   3.574   5.188   1.620  0.9572  0.9132  0.6436
 3457TIP3    H232007   3.641   5.279   1.519  0.5886  0.1615 -0.2991
 3458TIP3   OH232008   5.332   3.638   6.271  0.1484 -0.5885  0.3354
 3458TIP3    H132009   5.241   3.626   6.245 -0.1287  1.2230  0.3065
 3458TIP3    H232010   5.359   3.554   6.308 -1.5970 -1.0704  0.5683
 3459TIP3   OH232011   0.179   3.280   0.793 -0.1581 -0.4405  0.0530
 3459TIP3    H132012   0.218   3.323   0.868  0.5161  0.9130 -1.0375
 3459TIP3    H232013   0.194   3.186   0.809 -0.7419 -0.2602  1.9549
 3460TIP3   OH232014   3.841   2.126   7.942 -0.1250 -0.5723  0.1038
 3460TIP3    H132015   3.805   2.200   7.893  0.8769 -0.6326 -0.7595
 3460TIP3    H232016   3.867   2.164   8.026 -0.1609 -0.0658 -0.1075
 3461TIP3   OH232017   2.304   0.350   2.151  0.4965  0.2769 -0.3611
 3461TIP3    H132018   2.214   0.328   2.125 -1.1878  1.7568  3.3646
 3461TIP3    H232019   2.344   0.265   2.170 -1.2715 -0.3621  0.8824
 3462TIP3   OH232020   3.693   6.800   7.202 -0.4022 -0.9729 -0.1476
 3462TIP3    H132021   3.735   6.816   7.117  0.1497  0.0749  0.3023
 3462TIP3    H232022   3.608   6.844   7.195  0.1821  0.2717  0.2845
 3463TIP3   OH232023   5.410   6.438   0.086 -0.2863  0.0773  0.1058
 3463TIP3    H132024   5.321   6.461   0.059 -0.1142 -0.4013 -0.9279
 3463TIP3    H232025   5.442   6.381   0.016  1.2754  1.2412 -0.1808
 3464TIP3   OH232026   6.379   6.643   8.299 -0.6488 -0.5452 -0.0297
 3464TIP3    H132027   6.463   6.608   8.271 -1.2437 -0.3538 -2.2848
 3464TIP3    H232028   6.391   6.665   8.391  1.9207 -0.0131 -0.4205
 3465TIP3   OH232029   2.800   3.424   0.645  0.7731  0.3191  0.1412
 3465TIP3    H132030   2.771   3.506   0.607  0.4890  0.1717  0.0339
 3465TIP3    H232031   2.748   3.414   0.725  1.8993  1.0014  0.9996
 3466TIP3   OH232032   2.462   4.181   1.237  0.0826  0.1144 -0.6276
 3466TIP3    H132033   2.464   4.255   1.297  1.1075 -0.3846 -0.0203
 3466TIP3    H232034   2.394   4.204   1.173 -1.5740  0.3379  1.1005
 3467TIP3   OH232035   0.214   4.426   7.921  0.2995  0.0072 -0.0806
 3467TIP3    H132036   0.139   4.472   7.959  0.8749  0.4743  0.5082
 3467TIP3    H232037   0.273   4.496   7.892  0.9033 -0.3537  0.2657
 3468TIP3   OH232038   2.618   4.958   1.308 -0.0316  0.1507 -0.2048
 3468TIP3    H132039   2.688   4.989   1.366 -0.7853  0.4713  0.5394
 3468TIP3    H232040   2.646   4.986   1.220  0.2084  1.2931  0.2215
 3469TIP3   OH232041   0.342   4.632   0.096  0.1684  0.3422  0.5132
 3469TIP3    H132042   0.326   4.564   0.030  2.8871 -1.5848  1.6665
 3469TIP3    H232043   0.255   4.653   0.130 -0.9230 -1.4794 -0.9413
 3470TIP3   OH232044   0.761   3.784   2.201  0.3571 -0.1504 -0.1215
 3470TIP3    H132045   0.672   3.803   2.231  0.5627  0.7054 -0.0090
 3470TIP3    H232046   0.785   3.704   2.246  0.1464  0.3671  0.9534
 3471TIP3   OH232047   4.085   5.291   7.757  0.1975  0.0746  0.3172
 3471TIP3    H132048   4.107   5.299   7.849 -0.4305  0.3771  0.4480
 3471TIP3    H232049   4.062   5.199   7.745  0.1477  0.0657  0.4912
 3472TIP3   OH232050   6.668   0.170   0.660 -0.1335 -0.8782  0.1113
 3472TIP3    H132051   6.750   0.122   0.672  0.0707 -0.5755 -0.0353
 3472TIP3    H232052   6.644   0.199   0.748  0.3169 -0.3356  0.0682
 3473TIP3   OH232053   4.708   4.021   1.394  0.2457  0.1139 -0.8316
 3473TIP3    H132054   4.626   4.069   1.399  0.5713  0.5608  0.5355
 3473TIP3    H232055   4.770   4.083   1.357  0.0732 -0.0962 -1.4873
 3474TIP3   OH232056   2.217   0.517   0.022  0.3942  0.1232 -0.4068
 3474TIP3    H132057   2.159   0.523   0.098  0.5563 -1.3108 -0.1409
 3474TIP3    H232058   2.176   0.571  -0.045 -1.5138 -1.1986 -0.3761
 3475TIP3   OH232059   6.834   2.916   1.286  0.2422  0.4862  0.1884
 3475TIP3    H132060   6.913   2.959   1.253  0.5420  1.4098  1.9553
 3475TIP3    H232061   6.826   2.947   1.377 -2.1361  0.4100  0.0753
 3476TIP3   OH232062   5.691   6.541   6.574 -0.1978 -0.1745  0.0774
 3476TIP3    H132063   5.662   6.546   6.665 -0.8805  1.7892 -0.2092
 3476TIP3    H232064   5.626   6.591   6.525  0.5274 -0.6358 -1.4076
 3477TIP3   OH232065   2.635   1.880   8.138  0.2658 -0.4608  0.6292
 3477TIP3    H132066   2.645   1.788   8.164 -0.6403 -0.7218  0.1109
 3477TIP3    H232067   2.637   1.878   8.042  0.7557  0.1297  0.6231
 3478TIP3   OH232068   0.672   2.397   7.501 -0.3727 -0.2740  0.6526
 3478TIP3    H132069   0.726   2.451   7.559 -0.5089  0.5022  0.0717
 3478TIP3    H232070   0.614   2.349   7.561  0.0865 -0.1571  1.2054
 3479TIP3   OH232071   2.635   1.409   0.308 -0.2850 -0.0125  0.2766
 3479TIP3    H132072   2.617   1.395   0.216 -0.4629  1.8808 -0.0254
 3479TIP3    H232073   2.693   1.486   0.310 -1.1515  0.6576  1.7714
 3480TIP3   OH232074   0.673   1.488   7.312 -0.0517 -0.2825 -0.0344
 3480TIP3    H132075   0.762   1.477   7.277 -0.5368 -0.8575 -1.1517
 3480TIP3    H232076   0.683   1.481   7.407  1.3385  1.4143  0.0011
 3481TIP3   OH232077   6.382   4.649   0.647 -0.0228 -0.1368 -0.1183
 3481TIP3    H132078   6.302   4.599   0.629  0.8948 -1.4699 -0.5872
 3481TIP3    H232079   6.414   4.614   0.730 -0.4216  1.0955  0.5987
 3482TIP3   OH232080   6.225   0.367   7.327 -0.0945  0.0610  0.1878
 3482TIP3    H132081   6.135   0.398   7.336 -1.8619 -3.8515 -1.8239
 3482TIP3    H232082   6.261   0.421   7.256 -0.4505  2.2157  1.5495
 3483TIP3   OH232083   6.499   2.066   2.282  0.1343 -0.3249 -0.4152
 3483TIP3    H132084   6.521   2.094   2.370 -0.6592 -1.8136  0.2895
 3483TIP3    H232085   6.521   1.973   2.280  0.4617 -0.2478 -1.9054
 3484TIP3   OH232086   3.599   5.362   6.791 -0.6975  0.3892 -0.1264
 3484TIP3    H132087   3.627   5.346   6.701  1.1996 -0.0753  0.5115
 3484TIP3    H232088   3.561   5.450   6.788 -1.1228  0.1870 -1.4633
 3485TIP3   OH232089   5.606   1.207   0.502 -0.2346  0.9589 -0.5954
 3485TIP3    H132090   5.659   1.128   0.487  0.3783  1.3829 -0.6922
 3485TIP3    H232091   5.635   1.240   0.587 -1.8821  0.0045  0.3957
 3486TIP3   OH232092   6.763   6.294   1.075  0.2192  0.2706 -0.1883
 3486TIP3    H132093   6.777   6.343   0.995  0.4304  0.2201 -0.1834
 3486TIP3    H232094   6.842   6.241   1.085  0.2452  0.3657  0.1148
 3487TIP3   OH232095   5.173   4.941   7.844 -0.5177 -0.0867  0.1850
 3487TIP3    H132096   5.216   4.917   7.927 -1.1636  0.5365  0.7212
 3487TIP3    H232097   5.245   4.952   7.782 -0.0626 -1.0943  0.5227
 3488TIP3   OH232098   2.383   0.209   0.126  0.2265 -0.1508  0.1227
 3488TIP3    H132099   2.443   0.238   0.195  0.2072  0.7365 -0.2307
 3488TIP3    H232100   2.296   0.225   0.161  0.2165  0.3130 -0.1017
 3489TIP3   OH232101   0.349   4.851   7.028  0.2131  0.2120  0.2174
 3489TIP3    H132102   0.376   4.785   7.092 -2.1462  0.0406  1.1361
 3489TIP3    H232103   0.385   4.820   6.945 -0.0850 -1.7933  0.7731
 3490TIP3   OH232104   3.104   0.953   7.950  0.2649 -0.0848  0.2697
 3490TIP3    H132105   3.035   0.998   7.997  0.3185 -0.6659  0.9059
 3490TIP3    H232106   3.166   1.023   7.927  0.1541  0.2294  0.9022
 3491TIP3   OH232107   3.269   4.990   1.520 -0.3265  0.2323 -0.0731
 3491TIP3    H132108   3.337   4.966   1.583 -0.3494 -0.5289 -0.3218
 3491TIP3    H232109   3.222   5.062   1.561  0.4636  0.5947  0.2151
 3492TIP3   OH232110   4.834   3.522   7.625  0.0409  0.2477 -0.0436
 3492TIP3    H132111   4.826   3.494   7.534  3.2928 -0.8877 -0.1135
 3492TIP3    H232112   4.745   3.518   7.660 -1.2492  0.4067 -3.0360
 3493TIP3   OH232113   0.045   3.806   0.622 -0.4875  0.0497 -0.3954
 3493TIP3    H132114   0.036   3.876   0.557 -1.0056  1.8812  1.5469
 3493TIP3    H232115   0.131   3.768   0.603 -0.8670  0.1188 -2.4993
 3494TIP3   OH232116   6.650   4.959   6.565 -0.3834 -0.2530  0.4008
 3494TIP3    H132117   6.614   4.986   6.650  0.1857  1.4088  0.1498
 3494TIP3    H232118   6.692   5.038   6.531 -0.5165 -0.9218 -1.3963
 3495TIP3   OH232119   4.904   1.877   1.460 -0.2498 -0.0949 -0.0169
 3495TIP3    H132120   4.827   1.857   1.406  0.5654 -2.0962 -0.5199
 3495TIP3    H232121   4.963   1.803   1.445  1.5585  1.1352  0.7777
 3496TIP3   OH232122   2.679   6.528   0.147  0.1601  0.1566 -0.3168
 3496TIP3    H132123   2.635   6.477   0.079 -1.5362 -0.2259  0.9947
 3496TIP3    H232124   2.758   6.478   0.167 -0.0166 -0.4315 -1.0686
 3497TIP3   OH232125   6.367   1.629   1.878  0.1677 -0.2233 -0.1985
 3497TIP3    H132126   6.400   1.697   1.819  0.4459  0.9047  1.2206
 3497TIP3    H232127   6.274   1.622   1.856 -0.3826  2.1932  1.0757
 3498TIP3   OH232128   1.414   3.921   1.075  0.2268 -1.0567  0.3964
 3498TIP3    H132129   1.492   3.890   1.029  0.6754  1.9142 -1.0946
 3498TIP3    H232130   1.447   3.948   1.161  1.4009  1.8842 -0.8302
 3499TIP3   OH232131   1.044   1.755   8.041 -0.2008 -0.0605 -0.0856
 3499TIP3    H132132   0.987   1.679   8.046 -1.4065  0.8642  0.8436
 3499TIP3    H232133   1.124   1.728   8.087  0.3050 -1.4697 -1.6769
 3500TIP3   OH232134   1.495   3.243   8.142 -0.2171  0.2081 -0.2945
 3500TIP3    H132135   1.548   3.311   8.099 -0.2405  1.0421  0.9506
 3500TIP3    H232136   1.559   3.187   8.185 -0.2633  1.7561  2.0152
 3501TIP3   OH232137   0.570   4.744   0.227  0.4764  0.2164  0.2652
 3501TIP3    H132138   0.485   4.714   0.196  0.1360  0.3681  1.0114
 3501TIP3    H232139   0.604   4.670   0.277  0.5043  0.3720  0.4777
 3502TIP3   OH232140   0.622   1.359   7.886  0.4011 -0.1335 -0.6293
 3502TIP3    H132141   0.544   1.401   7.923  0.1060 -1.8467  0.8239
 3502TIP3    H232142   0.666   1.429   7.838 -1.7134  1.0208 -1.0053
 3503TIP3   OH232143   2.635   6.485   3.038  0.0122  0.4978  0.3244
 3503TIP3    H132144   2.548   6.501   3.000  0.5189 -0.6348 -1.4429
 3503TIP3    H232145   2.618   6.444   3.122 -1.1644  1.1038  0.4049
 3504TIP3   OH232146   5.990   3.100   0.291  0.3921  0.0984  0.4639
 3504TIP3    H132147   6.036   3.148   0.360  1.9468 -2.7569  1.5820
 3504TIP3    H232148   6.006   3.150   0.211  1.3456  1.7402  1.6242
 3505TIP3   OH232149   1.432   0.677   1.911 -0.6948  0.2835  0.1111
 3505TIP3    H132150   1.469   0.666   1.999  2.1329 -0.3565 -1.0368
 3505TIP3    H232151   1.346   0.635   1.915  0.3850 -1.9613  1.9589
 3506TIP3   OH232152   3.689   3.023   0.822 -0.1774  0.4357 -0.3955
 3506TIP3    H132153   3.636   3.040   0.744  2.0349  0.1028 -2.1061
 3506TIP3    H232154   3.778   3.011   0.787  0.6864 -1.0131  2.0727
 3507TIP3   OH232155   5.492   4.768   0.502  0.1387 -0.0767  0.2900
 3507TIP3    H132156   5.537   4.783   0.419  0.4890  1.8550  0.7745
 3507TIP3    H232157   5.426   4.837   0.507  0.6953  0.3888  1.9933
 3508TIP3   OH232158   6.199   5.975   1.243 -0.2803 -0.2886 -1.2122
 3508TIP3    H132159   6.199   5.882   1.220 -2.2307 -0.6275 -0.0686
 3508TIP3    H232160   6.292   5.996   1.258  0.2174 -1.9800 -1.7228
 3509TIP3   OH232161   1.447   2.628   1.858 -0.0967 -0.0276  0.1037
 3509TIP3    H132162   1.373   2.651   1.915 -1.1864  0.9244 -1.6136
 3509TIP3    H232163   1.510   2.699   1.871 -0.5458  0.4344 -0.2070
 3510TIP3   OH232164   6.311   2.976   2.517 -0.0042 -0.3298  0.1824
 3510TIP3    H132165   6.233   3.026   2.542 -0.0499 -0.3453  0.0701
 3510TIP3    H232166   6.355   2.958   2.600 -0.5089 -0.9624  0.3258
 3511TIP3   OH232167   3.653   0.747   7.331 -0.3708 -0.1357 -0.6355
 3511TIP3    H132168   3.585   0.713   7.272 -0.5436 -1.4697  0.2784
 3511TIP3    H232169   3.660   0.840   7.309 -2.3910  0.0127 -0.8679
 3512TIP3   OH232170   6.695   0.938   7.999  0.7469  0.4248  0.0887
 3512TIP3    H132171   6.729   0.871   7.940  0.6655 -0.0519  0.5685
 3512TIP3    H232172   6.704   1.020   7.951  0.0430 -0.0311 -0.8473
 3513TIP3   OH232173   4.456   5.818   8.190 -0.3652 -0.1073 -0.5241
 3513TIP3    H132174   4.535   5.852   8.149  0.6993  0.8645  2.0946
 3513TIP3    H232175   4.463   5.723   8.181  0.8497 -0.0062 -0.7616
 3514TIP3   OH232176   6.168   5.995   0.972 -0.3903  0.0691  0.2645
 3514TIP3    H132177   6.077   5.964   0.979 -1.1874  1.9114 -1.0323
 3514TIP3    H232178   6.200   5.997   1.063 -1.5541 -0.8588  0.7159
 3515TIP3   OH232179   1.114   2.653   1.704 -0.0305  0.4779  0.4672
 3515TIP3    H132180   1.184   2.718   1.716 -0.4275  0.5354  2.9477
 3515TIP3    H232181   1.034   2.698   1.731 -0.6647 -0.3478  0.0274
 3516TIP3   OH232182   6.466   0.149   8.380  0.4967 -0.2705  0.2737
 3516TIP3    H132183   6.506   0.185   8.459 -0.8423  1.3729  0.2748
 3516TIP3    H232184   6.486   0.213   8.312 -0.4361 -0.4228 -0.1564
 3517TIP3   OH232185   2.178   4.586   2.107 -0.3678 -0.2286 -0.4653
 3517TIP3    H132186   2.156   4.622   2.193 -0.3679 -2.5021  0.5708
 3517TIP3    H232187   2.263   4.625   2.085 -0.2018  0.1057  0.7277
 3518TIP3   OH232188   0.205   4.300   1.968 -0.5615 -0.2451 -0.3704
 3518TIP3    H132189   0.118   4.285   1.931 -0.3298 -0.5641 -0.7914
 3518TIP3    H232190   0.265   4.288   1.894 -0.1870  0.4108 -0.1882
 3519TIP3   OH232191   2.082   6.095   6.834 -0.2998 -0.2113 -0.7108
 3519TIP3    H132192   2.168   6.084   6.794  0.9408  0.0524  1.6759
 3519TIP3    H232193   2.093   6.169   6.894 -2.1275 -0.3333 -0.1708
 3520TIP3   OH232194   3.330   3.849   0.909  0.5299  0.3019  0.0594
 3520TIP3    H132195   3.370   3.786   0.970 -0.7540  0.3996  1.0335
 3520TIP3    H232196   3.402   3.906   0.883  1.1303  0.1969  1.4153
 3521TIP3   OH232197   5.612   0.028   7.367 -0.1318 -0.6496  0.4210
 3521TIP3    H132198   5.672  -0.041   7.394 -1.0292 -1.0453  1.4634
 3521TIP3    H232199   5.593   0.007   7.275 -0.4216 -1.8264  0.7251
 3522TIP3   OH232200   5.490   0.106   7.975  0.3776 -0.8568 -0.4780
 3522TIP3    H132201   5.534   0.040   7.922  0.7950  0.3146 -1.6399
 3522TIP3    H232202   5.476   0.180   7.916  1.1831  0.6515  1.1253
 3523TIP3   OH232203   6.252   0.267   8.112  0.0376  0.6056 -0.1159
 3523TIP3    H132204   6.196   0.192   8.130 -3.1075  2.0239 -2.9506
 3523TIP3    H232205   6.338   0.230   8.094  0.2298 -1.7238  4.2247
 3524TIP3   OH232206   2.487   6.107   1.322  0.1479 -0.1938 -0.0435
 3524TIP3    H132207   2.485   6.131   1.229 -1.1808 -2.3509 -0.6384
 3524TIP3    H232208   2.426   6.167   1.364  0.2240  0.3443 -0.6884
 3525TIP3   OH232209   0.956   5.843   8.417 -0.4608 -0.1906 -0.2595
 3525TIP3    H132210   1.031   5.787   8.439  0.8065  0.8239 -1.7899
 3525TIP3    H232211   0.995   5.921   8.379 -2.2195  1.4572  1.1392
 3526TIP3   OH232212   4.933   2.651   0.189  0.1427  0.3410 -0.0892
 3526TIP3    H132213   4.962   2.707   0.261 -1.9169  0.7100  0.5417
 3526TIP3    H232214   4.864   2.702   0.145 -0.8841 -1.1522 -0.3088
 3527TIP3   OH232215   0.776   3.626   1.988  0.1469 -0.1000  0.1887
 3527TIP3    H132216   0.872   3.633   1.993  0.0974 -0.0204  1.2875
 3527TIP3    H232217   0.744   3.702   2.037 -0.4798 -0.1984 -0.0651
 3528TIP3   OH232218   3.653   1.228   7.510  0.2217 -0.7413 -0.5191
 3528TIP3    H132219   3.694   1.159   7.562 -0.8652 -2.0694 -1.3692
 3528TIP3    H232220   3.601   1.278   7.572 -0.4287 -1.8225 -0.1601
 3529TIP3   OH232221   5.120   0.947   7.219  0.0416 -0.2569 -0.6307
 3529TIP3    H132222   5.084   1.019   7.167  0.9262  0.9157  0.2956
 3529TIP3    H232223   5.211   0.973   7.235  0.2569 -1.3927  0.0877
 3530TIP3   OH232224   5.187   5.262   8.822  0.0220 -0.1848  0.7997
 3530TIP3    H132225   5.136   5.341   8.807  0.6434  0.3879  1.6209
 3530TIP3    H232226   5.274   5.294   8.847  0.7340 -1.1262 -0.3314
 3531TIP3   OH232227   2.039   6.558   1.332  0.5488 -0.6750  0.0092
 3531TIP3    H132228   1.975   6.494   1.362 -0.3167  0.3688  0.4639
 3531TIP3    H232229   2.068   6.526   1.247 -1.7317 -0.4026 -0.9413
 3532TIP3   OH232230   0.113   4.478   1.043 -1.1576  0.4947  0.2871
 3532TIP3    H132231   0.144   4.410   0.983  4.3739  0.4567  2.5562
 3532TIP3    H232232   0.126   4.560   0.994  0.7363  0.2990  0.3634
 3533TIP3   OH232233   2.858   6.681   2.485  0.3591  0.1214 -0.0035
 3533TIP3    H132234   2.824   6.597   2.513  1.6063  0.2576  2.1320
 3533TIP3    H232235   2.781   6.731   2.458 -0.4350 -1.5253 -0.8867
 3534TIP3   OH232236   0.646   6.680   7.647 -0.1760 -0.2210 -0.0573
 3534TIP3    H132237   0.718   6.742   7.634  1.7684 -2.5433 -1.3234
 3534TIP3    H232238   0.573   6.733   7.679  1.5783  2.5389 -0.3328
 3535TIP3   OH232239   4.080   6.826   7.489 -0.2814  0.1085 -0.4603
 3535TIP3    H132240   4.095   6.743   7.443 -0.2598  0.9908 -2.0987
 3535TIP3    H232241   3.997   6.858   7.455  0.8142  1.8771 -1.6134
 3536TIP3   OH232242   1.927   1.245   7.229  0.3243 -0.4910  0.2657
 3536TIP3    H132243   2.002   1.188   7.213  0.2688 -0.2811 -0.8287
 3536TIP3    H232244   1.932   1.266   7.322  1.8054 -0.2288  0.1558
 3537TIP3   OH232245   2.865   2.413   7.937  0.1361 -0.3635  0.0984
 3537TIP3    H132246   2.795   2.437   7.876  0.5818 -0.7033 -0.5599
 3537TIP3    H232247   2.946   2.433   7.890  0.4904 -0.2486  0.7389
 3538TIP3   OH232248   6.335   5.504   6.988 -0.2269  0.2113 -0.3785
 3538TIP3    H132249   6.352   5.597   6.981 -2.3829  0.6381 -0.7029
 3538TIP3    H232250   6.320   5.488   7.081 -0.6294  0.3583 -0.4158
 3539TIP3   OH232251   1.121   5.396   7.743  0.1327  0.4836 -0.0923
 3539TIP3    H132252   1.109   5.310   7.783  0.3081  1.0743  1.2758
 3539TIP3    H232253   1.097   5.383   7.651  1.3509 -1.3110 -0.2074
 3540TIP3   OH232254   5.785   2.594   8.655 -0.0733  0.1736 -0.3009
 3540TIP3    H132255   5.813   2.554   8.573  0.6513 -2.0111  0.9127
 3540TIP3    H232256   5.850   2.662   8.672  0.0582  0.3037 -1.2742
 3541TIP3   OH232257   6.489   1.370   2.143 -0.3510  0.0721 -0.1489
 3541TIP3    H132258   6.431   1.442   2.167 -0.1727  0.6427 -1.3867
 3541TIP3    H232259   6.577   1.402   2.162 -0.2153  0.4890 -1.4168
 3542TIP3   OH232260   0.421   2.248   1.471 -0.3493  0.1287 -0.4778
 3542TIP3    H132261   0.326   2.244   1.464 -0.3080  1.0591 -1.8822
 3542TIP3    H232262   0.445   2.165   1.513 -1.9284  0.8182  2.0803
 3543TIP3   OH232263   0.393   1.419   7.390  0.1549 -0.4609  0.4464
 3543TIP3    H132264   0.466   1.452   7.442 -0.6356  1.4313  0.4375
 3543TIP3    H232265   0.317   1.429   7.447 -0.7149  1.5878 -0.9861
 3544TIP3   OH232266   2.604   2.066   2.246 -0.4143 -0.5475 -0.3728
 3544TIP3    H132267   2.588   2.118   2.325  1.0752 -1.1843  0.3966
 3544TIP3    H232268   2.661   2.121   2.192  0.8066 -1.1574  0.2491
 3545TIP3   OH232269   0.398   3.409   0.364 -0.3530  0.1636 -0.7589
 3545TIP3    H132270   0.478   3.440   0.321 -0.0622  0.4218 -0.0468
 3545TIP3    H232271   0.428   3.379   0.450 -0.8182 -0.9754 -0.9743
 3546TIP3   OH232272   2.155   1.344   2.715 -0.4357 -0.3450  0.1273
 3546TIP3    H132273   2.243   1.382   2.711 -0.9483  0.7969 -1.0692
 3546TIP3    H232274   2.145   1.316   2.806 -0.2819  3.1787  1.4066
 3547TIP3   OH232275   4.873   3.019   2.133  0.0249 -0.0320  0.4351
 3547TIP3    H132276   4.823   3.054   2.059  1.3334  0.7902 -0.0768
 3547TIP3    H232277   4.907   3.097   2.178 -0.4719 -0.5293  1.7248
 3548TIP3   OH232278   0.670   5.674   1.484  0.1816  0.7756  0.3867
 3548TIP3    H132279   0.658   5.627   1.567 -0.4012  0.6435  0.2282
 3548TIP3    H232280   0.640   5.613   1.417  0.8453  0.8024  0.0534
 3549TIP3   OH232281   6.331   5.442   1.764  0.0312  0.2036 -0.0556
 3549TIP3    H132282   6.378   5.443   1.680  1.8844 -0.4254  0.9421
 3549TIP3    H232283   6.340   5.352   1.796 -1.1269  0.2977  0.6043
 3550TIP3   OH232284   1.539   4.658   1.763  0.3535  0.3980  0.1698
 3550TIP3    H132285   1.623   4.702   1.749  0.2514  0.4909 -0.1388
 3550TIP3    H232286   1.488   4.722   1.813  0.3626  0.4572  0.1043
 3551TIP3   OH232287   0.170   1.224   7.888 -0.6998 -0.5401  0.0525
 3551TIP3    H132288   0.167   1.140   7.842 -1.6827 -0.7985  0.5779
 3551TIP3    H232289   0.121   1.209   7.968  0.5029  0.0770  0.9343
 3552TIP3   OH232290   2.127   5.100   7.999  0.3590  0.3584 -0.6082
 3552TIP3    H132291   2.135   5.005   8.014  1.0737  0.6745  1.2215
 3552TIP3    H232292   2.206   5.122   7.949  0.7250  0.1383 -0.1433
 3553TIP3   OH232293   3.854   4.470   0.449  0.0202 -0.3746 -0.1792
 3553TIP3    H132294   3.916   4.494   0.380  0.4247  0.8907  0.5978
 3553TIP3    H232295   3.909   4.443   0.523 -0.3935 -0.6398  0.0382
 3554TIP3   OH232296   5.763   5.780   0.106 -0.2729  0.5837  0.1529
 3554TIP3    H132297   5.710   5.859   0.119  0.2640  0.6367  2.4561
 3554TIP3    H232298   5.816   5.773   0.186 -0.3910 -2.1870  0.0871
 3555TIP3   OH232299   5.508   0.574   0.831 -0.4035  1.3062 -0.4459
 3555TIP3    H132300   5.489   0.667   0.828 -2.0167  1.0133 -0.0975
 3555TIP3    H232301   5.475   0.545   0.916  1.7013  0.7220  0.2394
 3556TIP3   OH232302   2.918   3.012   1.171 -0.4426  0.3097  0.6057
 3556TIP3    H132303   2.869   3.037   1.093 -1.3478  2.0186  1.6606
 3556TIP3    H232304   2.972   3.088   1.191 -0.6089  0.1071  1.9297
 3557TIP3   OH232305   3.851   0.499   7.100 -0.8553 -0.8409  0.2101
 3557TIP3    H132306   3.761   0.532   7.102 -0.7915 -0.6833  1.3434
 3557TIP3    H232307   3.844   0.409   7.132 -0.1970  0.3645  4.2621
 3558TIP3   OH232308   5.833   0.426   0.430  0.2854  0.0808  0.0177
 3558TIP3    H132309   5.911   0.411   0.482  2.0309  4.7571 -0.7308
 3558TIP3    H232310   5.763   0.436   0.494  0.1252 -3.8783  0.7126
 3559TIP3   OH232311   5.594   3.920   0.415 -0.1386 -0.0539  0.4988
 3559TIP3    H132312   5.625   3.830   0.404  0.2230  0.2758 -1.6026
 3559TIP3    H232313   5.510   3.921   0.370  1.2273  1.3434 -2.2124
 3560TIP3   OH232314   1.059   0.420   1.619 -0.2484 -0.8837 -0.0324
 3560TIP3    H132315   1.125   0.353   1.638 -0.7864 -2.0766 -1.9981
 3560TIP3    H232316   1.069   0.436   1.525 -0.1728  1.8253  0.3660
 3561TIP3   OH232317   6.022   3.405   0.309 -0.3248 -0.0571  0.3925
 3561TIP3    H132318   6.086   3.346   0.350  0.2641  0.1829 -0.1640
 3561TIP3    H232319   5.941   3.388   0.356  0.1541 -0.3505  1.1341
 3562TIP3   OH232320   6.036   5.595   0.211  0.1631  0.3846  0.0063
 3562TIP3    H132321   6.122   5.568   0.244 -0.1444  0.3024  0.7559
 3562TIP3    H232322   6.037   5.691   0.217 -0.0717  0.3454  0.7245
 3563TIP3   OH232323   6.829   3.143   8.736 -0.3976 -0.1100  0.0302
 3563TIP3    H132324   6.764   3.170   8.671  0.4753 -0.2189 -0.9037
 3563TIP3    H232325   6.912   3.141   8.689  0.0706 -1.3481  0.8519
 3564TIP3   OH232326   6.317   2.379   0.441 -0.2859 -0.1524 -0.0901
 3564TIP3    H132327   6.311   2.318   0.368 -0.9077 -1.4836  1.0432
 3564TIP3    H232328   6.237   2.365   0.491  0.1858  0.6505  0.9233
 3565TIP3   OH232329   2.876   0.140   2.555  0.3344  0.2663 -0.5337
 3565TIP3    H132330   2.857   0.121   2.647  0.6963  1.7727 -0.1269
 3565TIP3    H232331   2.900   0.055   2.518  0.4562 -0.3227  0.8320
 3566TIP3   OH232332   3.651   2.147   1.620  0.3182  1.0039  0.2703
 3566TIP3    H132333   3.622   2.165   1.710 -2.1786  1.7852 -0.6200
 3566TIP3    H232334   3.746   2.162   1.623  0.4323  0.3128  2.9146
 3567TIP3   OH232335   6.475   3.277   8.141  0.8869 -0.6840  0.2977
 3567TIP3    H132336   6.475   3.339   8.068 -0.1332  0.8043  1.5108
 3567TIP3    H232337   6.558   3.230   8.132  0.3760 -1.2338 -2.3427
 3568TIP3   OH232338   4.896   1.317   1.498 -0.3571 -0.3640  0.0501
 3568TIP3    H132339   4.911   1.227   1.467  1.9220  0.1870 -0.6972
 3568TIP3    H232340   4.873   1.366   1.419 -0.7933 -0.1319  0.3183
 3569TIP3   OH232341   0.841   2.557   0.722  0.5754  0.2757 -0.6734
 3569TIP3    H132342   0.788   2.481   0.745  2.2587 -0.5607  0.7236
 3569TIP3    H232343   0.836   2.614   0.799 -0.4105  1.4600 -1.5811
 3570TIP3   OH232344   4.228   0.152   6.964  0.7731  0.4248  0.2929
 3570TIP3    H132345   4.146   0.138   6.916  0.5359 -0.3587  0.9101
 3570TIP3    H232346   4.296   0.127   6.901  0.4394 -1.3594  0.5729
 3571TIP3   OH232347   6.352   3.135   7.240 -0.1378  0.7835 -0.2560
 3571TIP3    H132348   6.304   3.217   7.242 -2.1442 -0.2567 -2.0103
 3571TIP3    H232349   6.333   3.094   7.325 -0.6900  1.3026 -0.1260
 3572TIP3   OH232350   5.704   3.320   7.499  0.2876  0.6537 -0.3131
 3572TIP3    H132351   5.720   3.228   7.519 -2.3487 -0.2078 -1.6397
 3572TIP3    H232352   5.765   3.341   7.429 -0.8568 -0.9589 -1.8700
 3573TIP3   OH232353   1.177   5.687   8.458  0.2093 -0.0476  0.4645
 3573TIP3    H132354   1.234   5.705   8.532  1.1272 -0.3869 -0.1425
 3573TIP3    H232355   1.236   5.667   8.386 -0.6266  1.2518 -0.6333
 3574TIP3   OH232356   1.854   3.072   0.178 -0.0432 -0.8556 -0.0708
 3574TIP3    H132357   1.795   3.109   0.113  1.2834  0.5463 -0.5435
 3574TIP3    H232358   1.816   2.987   0.200 -2.1013 -0.1023 -0.4882
 3575TIP3   OH232359   0.034   6.654   7.607 -0.1169  0.2252 -0.1978
 3575TIP3    H132360   0.059   6.734   7.562  1.7522 -0.2668 -0.1137
 3575TIP3    H232361   0.114   6.624   7.650 -0.9284 -1.3395  0.3239
 3576TIP3   OH232362   5.089   0.933   1.148 -0.0736 -0.3124  0.1192
 3576TIP3    H132363   5.172   0.953   1.105 -0.5563 -0.6957 -1.0357
 3576TIP3    H232364   5.114   0.884   1.226  0.7598 -0.9286 -0.5117
 3577TIP3   OH232365   0.934   5.580   6.792 -0.4515  0.7208  0.0711
 3577TIP3    H132366   0.930   5.670   6.824  1.1575  0.4503  1.1235
 3577TIP3    H232367   1.013   5.577   6.739 -0.2683 -0.1800  0.3916
 3578TIP3   OH232368   5.975   1.833   0.275  0.2008  0.2647 -0.2328
 3578TIP3    H132369   5.909   1.896   0.245  0.2701 -0.7579 -2.8216
 3578TIP3    H232370   5.966   1.760   0.215  2.2291 -0.8617  0.7557
 3579TIP3   OH232371   3.801   2.129   1.356 -0.5808  0.0007  0.5601
 3579TIP3    H132372   3.720   2.111   1.405 -1.1484  1.6796  0.3317
 3579TIP3    H232373   3.778   2.203   1.300  0.9930  0.2081  0.1505
 3580TIP3   OH232374   4.707   5.305   1.520 -0.3069 -0.4733 -0.7349
 3580TIP3    H132375   4.708   5.400   1.514  1.7706 -0.3730  0.4900
 3580TIP3    H232376   4.725   5.275   1.431 -1.6073  0.2198 -1.2624
 3581TIP3   OH232377   0.839   3.807   7.427  0.6873  0.2679 -0.0786
 3581TIP3    H132378   0.868   3.850   7.347  1.9126  1.0077  0.7245
 3581TIP3    H232379   0.908   3.745   7.449  1.1924  1.2379  1.2501
 3582TIP3   OH232380   0.537   1.211   7.193 -0.4259  0.4922  0.7457
 3582TIP3    H132381   0.564   1.120   7.187 -0.8985  0.2008  2.4373
 3582TIP3    H232382   0.594   1.248   7.261  0.7043  1.8536 -0.8594
 3583TIP3   OH232383   4.518   5.834   8.481 -0.5077 -0.5187 -0.0498
 3583TIP3    H132384   4.455   5.843   8.410  1.5175 -0.8945 -2.0240
 3583TIP3    H232385   4.512   5.741   8.506 -0.3029 -0.7089 -0.6823
 3584TIP3   OH232386   6.227   1.044   1.119 -0.4735  0.1837 -0.1238
 3584TIP3    H132387   6.201   1.005   1.036  1.5915  0.8717 -1.1594
 3584TIP3    H232388   6.152   1.028   1.177 -1.7875 -0.7145 -1.9518
 3585TIP3   OH232389   2.700   4.720   0.978 -0.0661  0.1969  0.1455
 3585TIP3    H132390   2.780   4.709   0.926  0.1265  0.8797  0.2960
 3585TIP3    H232391   2.633   4.672   0.928 -0.4826  2.8940 -2.1426
 3586TIP3   OH232392   5.437   0.486   0.384  0.0536  0.0257 -0.3482
 3586TIP3    H132393   5.439   0.514   0.293  0.2138  0.9047 -0.0851
 3586TIP3    H232394   5.422   0.391   0.380 -0.8210  0.1829 -1.2623
 3587TIP3   OH232395   4.591   4.965   0.008 -0.6235  0.1659 -0.0406
 3587TIP3    H132396   4.514   4.929   0.052 -0.6532  0.1154 -0.1356
 3587TIP3    H232397   4.608   4.905  -0.064 -0.6219  0.2948 -0.1464
 3588TIP3   OH232398   2.947   2.032   2.158 -0.0184  0.2469 -0.5425
 3588TIP3    H132399   2.925   2.090   2.231 -0.1127  0.6758 -0.9125
 3588TIP3    H232400   2.873   2.040   2.098  1.1937  1.8581 -1.9044
 3589TIP3   OH232401   0.051   0.349   8.162  0.5282 -0.0676 -0.1411
 3589TIP3    H132402   0.070   0.317   8.250 -0.8454  0.8948  0.5356
 3589TIP3    H232403   0.026   0.440   8.174 -0.4185 -0.1281 -1.4302
 3590TIP3   OH232404   1.799   5.523   1.433  0.2478  0.5785 -0.6291
 3590TIP3    H132405   1.742   5.494   1.504  1.3486 -0.1487 -0.0132
 3590TIP3    H232406   1.854   5.591   1.472  2.3206 -1.2794 -0.1100
 3591TIP3   OH232407   1.987   2.891   2.474  0.5971 -0.0162 -0.2660
 3591TIP3    H132408   2.056   2.848   2.424  0.8132  0.3732 -0.3070
 3591TIP3    H232409   2.033   2.931   2.548  0.4114  0.2403 -0.2907
 3592TIP3   OH232410   3.185   2.788   1.125 -0.3314  0.2476  0.1453
 3592TIP3    H132411   3.211   2.769   1.035 -0.2390  0.9014  0.0302
 3592TIP3    H232412   3.264   2.774   1.176 -0.7353 -1.5620  0.3507
 3593TIP3   OH232413   0.381   5.229   6.636 -0.5837  0.1303 -0.1426
 3593TIP3    H132414   0.469   5.195   6.622 -0.6205  0.4056 -1.1002
 3593TIP3    H232415   0.370   5.230   6.731 -0.2262 -1.6058 -0.0610
 3594TIP3   OH232416   3.549   2.452   7.650 -0.1647 -0.0132 -0.1498
 3594TIP3    H132417   3.576   2.543   7.656  0.0784 -0.0049 -1.2012
 3594TIP3    H232418   3.591   2.419   7.571 -1.8473 -0.4667 -0.9121
 3595TIP3   OH232419   1.758   4.402   0.790  0.1781  0.0382  0.9156
 3595TIP3    H132420   1.761   4.403   0.695 -1.4200 -1.3181  0.8188
 3595TIP3    H232421   1.688   4.340   0.812  1.0497 -0.3058  2.9784
 3596TIP3   OH232422   3.713   3.703   2.469  0.0626  0.1573 -0.3496
 3596TIP3    H132423   3.618   3.715   2.473  0.3468  2.9712  0.4434
 3596TIP3    H232424   3.734   3.654   2.549 -0.6599  0.3893 -0.0078
 3597TIP3   OH232425   4.221   0.087   1.690 -0.3968 -0.2592  0.0765
 3597TIP3    H132426   4.287   0.141   1.734 -1.7716  1.3078  0.3415
 3597TIP3    H232427   4.270   0.017   1.649  1.4025  0.7140  0.4605
 3598TIP3   OH232428   1.530   4.218   7.486  0.0417  0.5410  0.7893
 3598TIP3    H132429   1.564   4.144   7.436  0.0210  1.6676 -0.9738
 3598TIP3    H232430   1.437   4.197   7.499 -0.3611  0.9528 -1.1272
 3599TIP3   OH232431   1.755   1.869   7.377  0.2505  0.5183 -0.0396
 3599TIP3    H132432   1.844   1.902   7.389  0.9132 -1.1611  0.0229
 3599TIP3    H232433   1.756   1.831   7.289  0.4917 -2.0017  0.9756
 3600TIP3   OH232434   2.113   6.427   0.432  0.5058 -0.5731 -0.0619
 3600TIP3    H132435   2.164   6.347   0.434 -0.0656 -0.9267  1.9143
 3600TIP3    H232436   2.165   6.490   0.482 -0.3742 -0.5692  0.8658
 3601TIP3   OH232437   3.311   6.564   8.443  0.2724  0.1039  0.2090
 3601TIP3    H132438   3.400   6.528   8.445  0.9648  1.7447  0.0399
 3601TIP3    H232439   3.261   6.500   8.392  2.0888  0.7108 -2.5188
 3602TIP3   OH232440   6.079   2.392   8.425  0.0044 -0.2249  0.1216
 3602TIP3    H132441   6.017   2.465   8.424  1.9956  1.5822  0.8399
 3602TIP3    H232442   6.123   2.396   8.341  2.5105  1.7037  1.3918
 3603TIP3   OH232443   2.678   2.613   0.060  0.2564  0.1856 -0.0904
 3603TIP3    H132444   2.662   2.693   0.111 -0.9181 -1.2888  2.0284
 3603TIP3    H232445   2.756   2.632   0.009  1.1135  2.0511  1.7647
 3604TIP3   OH232446   1.770   1.848   1.539  0.7292  0.4302  0.5078
 3604TIP3    H132447   1.823   1.768   1.536 -0.1967 -0.1884 -0.4651
 3604TIP3    H232448   1.739   1.853   1.629  0.4373 -0.5675  0.4752
 3605TIP3   OH232449   2.873   4.928   0.361  0.3438 -0.7530 -0.0824
 3605TIP3    H132450   2.835   4.917   0.274  0.1779 -0.3217 -0.0670
 3605TIP3    H232451   2.911   4.842   0.382 -1.6441 -1.5676  0.4068
 3606TIP3   OH232452   3.571   3.669   0.799  0.5928  0.2984 -0.5134
 3606TIP3    H132453   3.568   3.763   0.782 -0.5510  0.0677 -1.7458
 3606TIP3    H232454   3.633   3.635   0.735  0.7983  0.1608 -0.2465
 3607TIP3   OH232455   1.428   0.292   8.023  0.3783 -0.0747  0.2065
 3607TIP3    H132456   1.410   0.347   8.100  0.5977 -2.3744  2.0037
 3607TIP3    H232457   1.341   0.264   7.993  0.2633  1.1848 -0.7369
 3608TIP3   OH232458   2.709   2.198   8.016  0.9070 -0.0652 -0.1133
 3608TIP3    H132459   2.754   2.251   7.950  0.6713  1.2565  0.7439
 3608TIP3    H232460   2.779   2.159   8.068  1.1280  1.2678  0.6567
 3609TIP3   OH232461   4.357   3.669   2.594  0.3517  0.1340 -0.3495
 3609TIP3    H132462   4.452   3.654   2.589  0.3315 -0.9665  1.4965
 3609TIP3    H232463   4.323   3.591   2.640 -0.7988  2.4450  3.1198
 3610TIP3   OH232464   3.290   0.798   8.086 -0.5880 -0.3690  0.2170
 3610TIP3    H132465   3.225   0.862   8.055  1.2425  1.6486  0.3092
 3610TIP3    H232466   3.264   0.716   8.045 -1.8611  0.8698 -1.6069
 3611TIP3   OH232467   2.462   0.016   6.559  0.2837 -0.0626 -0.2228
 3611TIP3    H132468   2.378   0.057   6.580  0.1334 -0.9744  1.0800
 3611TIP3    H232469   2.439  -0.068   6.521  0.5977 -0.2557  0.0050
 3612TIP3   OH232470   1.779   3.824   8.227  0.4845 -0.0321  0.2610
 3612TIP3    H132471   1.746   3.906   8.190  0.2327 -1.3984 -2.8027
 3612TIP3    H232472   1.708   3.761   8.214  1.8164 -1.4650 -0.4050
 3613TIP3   OH232473   5.271   2.972   0.851 -0.6034 -0.2237 -0.1313
 3613TIP3    H132474   5.301   3.060   0.828  0.2002 -0.5591 -0.4390
 3613TIP3    H232475   5.223   2.983   0.933 -0.5265  0.5019 -0.1771
 3614TIP3   OH232476   6.823   2.508   6.700 -0.1159 -0.7143 -0.0123
 3614TIP3    H132477   6.848   2.597   6.675 -1.3440 -0.5170 -0.6509
 3614TIP3    H232478   6.868   2.452   6.637 -0.9598 -0.3989 -0.9098
 3615TIP3   OH232479   5.377   3.056   1.810  0.4420  0.1533 -0.3068
 3615TIP3    H132480   5.286   3.087   1.804  0.2331 -0.4409 -0.2530
 3615TIP3    H232481   5.394   3.049   1.904  0.6556  0.5683 -0.3096
 3616TIP3   OH232482   0.676   5.293   7.153 -0.0105 -0.3688  0.3770
 3616TIP3    H132483   0.677   5.202   7.183 -1.7888 -0.3967  0.4785
 3616TIP3    H232484   0.635   5.341   7.225 -1.5174  0.0556 -0.7083
 3617TIP3   OH232485   3.079   6.738   0.140  0.2206  0.0885  0.0058
 3617TIP3    H132486   3.002   6.795   0.141 -0.4195 -0.7448 -0.7395
 3617TIP3    H232487   3.153   6.798   0.127 -0.3269  0.8515  0.3072
 3618TIP3   OH232488   2.355   2.407   7.880  0.5347 -0.3604 -0.4083
 3618TIP3    H132489   2.424   2.473   7.882  0.5767 -0.3543 -1.4505
 3618TIP3    H232490   2.380   2.349   7.807  0.1145 -1.1001  0.0229
 3619TIP3   OH232491   1.580   5.229   1.450  0.2740  0.1693 -0.2570
 3619TIP3    H132492   1.535   5.149   1.476  1.3087  0.1802  1.7259
 3619TIP3    H232493   1.655   5.235   1.508 -0.6928  3.4676  0.8999
 3620TIP3   OH232494   3.269   1.386   8.740  0.2018  1.3136 -0.0286
 3620TIP3    H132495   3.283   1.475   8.771 -1.9402  1.7274 -0.0695
 3620TIP3    H232496   3.196   1.393   8.678  0.2372 -0.3979 -0.3187
 3621TIP3   OH232497   0.378   5.880   2.402  0.5737 -0.6962  0.0522
 3621TIP3    H132498   0.375   5.813   2.470 -1.1164 -0.8448 -0.1226
 3621TIP3    H232499   0.393   5.962   2.449 -2.0576 -0.5877  0.8360
 3622TIP3   OH232500   2.657   0.780   8.830  0.5986  0.4353  0.2523
 3622TIP3    H132501   2.614   0.730   8.900 -2.8932  0.9388 -1.3302
 3622TIP3    H232502   2.715   0.841   8.876  0.6340 -1.1702  2.4995
 3623TIP3   OH232503   6.312   3.324   2.509 -0.0258  0.2228 -0.1003
 3623TIP3    H132504   6.333   3.273   2.586 -0.1774  0.6792  0.2489
 3623TIP3    H232505   6.379   3.392   2.506 -0.3676  0.5655 -0.0335
 3624TIP3   OH232506   5.520   6.287   8.749  0.2233  0.6904  0.2608
 3624TIP3    H132507   5.583   6.327   8.688 -0.5071  2.8790  0.8461
 3624TIP3    H232508   5.448   6.258   8.693  1.2270 -0.8329 -0.2929
 3625TIP3   OH232509   4.168   3.056   2.494 -0.2044 -0.2280 -0.2647
 3625TIP3    H132510   4.173   3.138   2.543  0.8297 -0.9530  0.9172
 3625TIP3    H232511   4.081   3.056   2.455  0.1864  1.9469 -1.2496
 3626TIP3   OH232512   4.398   5.471   6.773 -0.2668  0.1215 -0.3240
 3626TIP3    H132513   4.431   5.553   6.809 -1.3938  1.1062 -1.4332
 3626TIP3    H232514   4.467   5.441   6.714 -1.3588  2.3684 -2.9468
 3627TIP3   OH232515   1.805   5.509   0.709 -0.1546 -0.0036 -0.1924
 3627TIP3    H132516   1.792   5.595   0.749 -1.8461 -1.8624  3.8012
 3627TIP3    H232517   1.743   5.506   0.637 -1.4681  1.4754  0.8160
 3628TIP3   OH232518   6.474   1.421   8.543 -0.3069  0.2225 -0.2664
 3628TIP3    H132519   6.401   1.477   8.517 -0.7462  0.0906  0.6525
 3628TIP3    H232520   6.434   1.352   8.596  0.3627 -0.3971 -0.5437
 3629TIP3   OH232521   1.588   0.659   0.593 -0.1161  0.0111  0.4224
 3629TIP3    H132522   1.562   0.616   0.511  1.5222 -0.8740  0.3249
 3629TIP3    H232523   1.528   0.623   0.658  0.7903 -2.0318  0.2192
 3630TIP3   OH232524   2.100   1.797   7.823  0.2228 -0.3891  0.1384
 3630TIP3    H132525   2.062   1.875   7.783  2.4224 -0.1721 -1.7409
 3630TIP3    H232526   2.174   1.829   7.875  0.8526 -1.1647 -0.2531
 3631TIP3   OH232527   6.194   3.938   7.714 -0.5982 -0.3454 -0.4752
 3631TIP3    H132528   6.134   4.005   7.681  1.1660  1.3298 -0.4292
 3631TIP3    H232529   6.251   3.918   7.640  0.3018 -0.1446  0.1568
 3632TIP3   OH232530   4.346   6.346   0.899 -0.3569  0.0978  0.4186
 3632TIP3    H132531   4.315   6.419   0.953  2.4387  2.2426 -0.5918
 3632TIP3    H232532   4.419   6.309   0.950 -0.1014 -0.3071 -0.2287
 3633TIP3   OH232533   5.294   6.085   1.202 -0.4766  0.1535 -0.5181
 3633TIP3    H132534   5.358   6.015   1.219 -0.1776  0.4981 -0.2020
 3633TIP3    H232535   5.244   6.054   1.127  1.1757  0.6209 -1.8758
 3634TIP3   OH232536   6.126   2.582   2.165 -0.1602  0.0840  0.4782
 3634TIP3    H132537   6.165   2.668   2.177  0.5330  0.1892 -1.9204
 3634TIP3    H232538   6.189   2.521   2.204  1.1721  0.4503 -1.0043
 3635TIP3   OH232539   1.312   0.488   7.559  0.6063 -0.3479  0.0689
 3635TIP3    H132540   1.375   0.553   7.590  0.8074 -0.2078 -0.6133
 3635TIP3    H232541   1.280   0.446   7.638  1.1985 -0.0819  0.4576
 3636TIP3   OH232542   3.446   2.637   0.168  1.1510 -0.4168  0.2919
 3636TIP3    H132543   3.527   2.636   0.220 -0.2544  1.6968  2.7154
 3636TIP3    H232544   3.384   2.586   0.220  0.3938 -0.5033 -0.6712
 3637TIP3   OH232545   4.525   2.618   8.348  0.1431  0.3240  0.2519
 3637TIP3    H132546   4.602   2.609   8.292  0.0689  0.2172  0.1690
 3637TIP3    H232547   4.549   2.572   8.429  0.6779  1.4103  0.7382
 3638TIP3   OH232548   2.334   3.356   1.160  0.5622  0.0017 -0.5507
 3638TIP3    H132549   2.352   3.354   1.066 -0.2558  0.8721 -0.7520
 3638TIP3    H232550   2.240   3.340   1.166  0.6917 -0.5272  0.1601
 3639TIP3   OH232551   2.646   6.627   8.217  0.7693 -0.7863  0.0015
 3639TIP3    H132552   2.733   6.649   8.182  1.7067  0.3234  2.7861
 3639TIP3    H232553   2.619   6.704   8.266 -0.8004 -1.9481  1.0629
 3640TIP3   OH232554   0.072   1.953   2.314 -0.3947 -0.3587 -0.2626
 3640TIP3    H132555  -0.007   1.969   2.365  0.7015  0.3299  1.3011
 3640TIP3    H232556   0.132   1.910   2.375  0.2293 -1.4763 -1.6009
 3641TIP3   OH232557   5.168   0.916   2.496  0.3698  0.2181 -0.0246
 3641TIP3    H132558   5.184   0.831   2.537  0.5476  0.1088 -0.3165
 3641TIP3    H232559   5.110   0.897   2.423 -0.3561  0.4823  0.4635
 3642TIP3   OH232560   0.314   1.325   0.576  0.9254 -0.0392 -0.3052
 3642TIP3    H132561   0.341   1.327   0.484 -0.2816 -2.3816 -0.7790
 3642TIP3    H232562   0.382   1.374   0.622  2.1744  0.1923 -2.2824
 3643TIP3   OH232563   1.954   1.827   8.353  0.2116 -0.0877  0.0186
 3643TIP3    H132564   2.017   1.791   8.291 -1.4560 -0.2346 -1.7057
 3643TIP3    H232565   1.994   1.815   8.439  1.1685 -3.0180 -0.7398
 3644TIP3   OH232566   1.460   1.033   8.764  0.4465 -0.0021 -0.0825
 3644TIP3    H132567   1.365   1.032   8.777  0.5478 -1.0678  0.6511
 3644TIP3    H232568   1.476   1.113   8.714 -0.8407  0.1700 -0.2524
 3645TIP3   OH232569   3.836   6.301   0.713 -0.4669  0.3713  0.2673
 3645TIP3    H132570   3.771   6.285   0.782  2.1905 -0.9860  2.6870
 3645TIP3    H232571   3.872   6.388   0.733  0.3906 -0.0723  0.7372
 3646TIP3   OH232572   0.859   5.951   1.065  0.2572 -0.3138 -0.4824
 3646TIP3    H132573   0.802   6.027   1.052 -1.6260 -1.9219 -2.1786
 3646TIP3    H232574   0.927   5.961   0.999  1.5512  1.1388  0.9636
 3647TIP3   OH232575   4.511   2.884   8.784  0.7373 -0.2916 -0.2614
 3647TIP3    H132576   4.418   2.899   8.765  0.5401 -1.0732  0.0480
 3647TIP3    H232577   4.550   2.863   8.700  0.8164  0.9022 -0.5379
 3648TIP3   OH232578   1.903   4.859   7.857 -0.4477  0.0762  0.2586
 3648TIP3    H132579   1.872   4.768   7.861  0.2993 -0.1512  1.1290
 3648TIP3    H232580   1.885   4.894   7.944 -2.2794  1.3106 -0.5561
 3649TIP3   OH232581   3.699   3.935   2.920  0.4252 -0.4186 -0.0344
 3649TIP3    H132582   3.643   3.989   2.976  0.0147  1.3359 -2.0095
 3649TIP3    H232583   3.640   3.870   2.883 -0.0425  0.5099 -0.9695
 3650TIP3   OH232584   3.228   4.036   1.882  0.3891  0.5722  0.5255
 3650TIP3    H132585   3.249   4.114   1.830 -0.9488  0.0135 -0.9347
 3650TIP3    H232586   3.305   3.980   1.873 -0.5698 -0.4565 -2.8042
 3651TIP3   OH232587   1.148   1.753   2.109 -0.1314  0.5819 -0.5614
 3651TIP3    H132588   1.118   1.679   2.058  1.8313 -0.1512 -0.7461
 3651TIP3    H232589   1.177   1.715   2.192  0.2728  1.2235 -0.3974
 3652TIP3   OH232590   4.959   3.182   0.438  0.5593  0.0856 -0.5663
 3652TIP3    H132591   5.044   3.164   0.479 -0.4527  0.7491  2.0482
 3652TIP3    H232592   4.921   3.096   0.424  0.2506 -0.1792  1.5883
 3653TIP3   OH232593   4.455   4.190   6.952  0.1559 -0.8772  0.3357
 3653TIP3    H132594   4.425   4.281   6.951 -1.8834 -1.4626  1.9984
 3653TIP3    H232595   4.448   4.162   6.860  1.2179  0.7216 -0.2830
 3654TIP3   OH232596   3.927   5.578   0.500  0.3088 -0.0527 -0.1116
 3654TIP3    H132597   3.987   5.652   0.505 -0.4187  0.5127  0.4849
 3654TIP3    H232598   3.900   5.575   0.408  0.8854 -0.0306 -0.2844
 3655TIP3   OH232599   1.770   4.371   1.701  0.4071 -0.7925 -0.0208
 3655TIP3    H132600   1.844   4.319   1.670 -0.2841 -1.6084 -0.3306
 3655TIP3    H232601   1.795   4.397   1.790  1.8631  0.5211 -0.7756
 3656TIP3   OH232602   5.382   2.205   7.475 -0.7401  0.4405 -0.0265
 3656TIP3    H132603   5.286   2.215   7.477 -0.9145 -0.5218 -1.8655
 3656TIP3    H232604   5.409   2.254   7.398 -0.1346 -1.8071 -1.3261
 3657TIP3   OH232605   1.111   4.171   8.121  0.1782  0.1592  0.1361
 3657TIP3    H132606   1.025   4.151   8.157  1.0481 -1.5004  1.4290
 3657TIP3    H232607   1.107   4.264   8.098 -2.2313 -0.1050 -0.7155
 3658TIP3   OH232608   0.863   4.885   7.548  0.3332  0.3338 -0.5493
 3658TIP3    H132609   0.901   4.885   7.636  0.5175 -0.0665 -0.6247
 3658TIP3    H232610   0.925   4.834   7.495  0.2334  0.5921 -0.9152
 3659TIP3   OH232611   3.866   0.232   7.163 -0.2375  0.3465  0.5468
 3659TIP3    H132612   3.856   0.140   7.136 -1.6578  0.8200 -0.6572
 3659TIP3    H232613   3.801   0.243   7.233 -0.5037  0.5985  0.2587
 3660TIP3   OH232614   5.890   2.163   1.973 -0.2184  0.0156  0.2145
 3660TIP3    H132615   5.800   2.133   1.986 -1.0340  1.6275 -1.2504
 3660TIP3    H232616   5.884   2.226   1.900  1.9470  0.8621  0.6904
 3661TIP3   OH232617   0.297   2.890   1.432 -0.0535  0.5860 -0.0558
 3661TIP3    H132618   0.261   2.978   1.417 -0.1737  0.7704  1.1901
 3661TIP3    H232619   0.294   2.879   1.527  0.3474 -0.6129 -0.1652
 3662TIP3   OH232620   4.233   6.430   0.276 -0.0133  0.3634 -0.3520
 3662TIP3    H132621   4.321   6.451   0.305  0.2677  1.7528 -2.0628
 3662TIP3    H232622   4.178   6.498   0.315  0.3600  2.2097 -2.8723
 3663TIP3   OH232623   1.905   1.753   2.310 -0.8661 -0.4183 -0.2370
 3663TIP3    H132624   1.981   1.697   2.297  0.4472  1.4517 -1.0213
 3663TIP3    H232625   1.845   1.700   2.362  2.1808 -0.9465  3.0822
 3664TIP3   OH232626   5.035   2.123   1.286 -0.3149  0.0944  0.4251
 3664TIP3    H132627   4.958   2.083   1.325  0.4691 -3.3056 -1.1496
 3664TIP3    H232628   5.107   2.097   1.344  0.0829  0.1986 -0.0163
 3665TIP3   OH232629   2.547   5.557   8.246 -0.1847 -0.4649  0.5884
 3665TIP3    H132630   2.617   5.492   8.246 -2.6187 -3.3862  1.5207
 3665TIP3    H232631   2.503   5.544   8.331 -2.3588  0.5672 -0.2958
 3666TIP3   OH232632   4.784   2.930   8.332  1.0315 -0.5487  0.2515
 3666TIP3    H132633   4.798   2.951   8.240  1.5671  0.2982  0.5124
 3666TIP3    H232634   4.861   2.965   8.376 -0.1380  0.8715  1.2792
 3667TIP3   OH232635   0.729   3.392   2.728  0.0824  0.6660 -0.0691
 3667TIP3    H132636   0.685   3.364   2.648 -1.8925  1.2772  0.7484
 3667TIP3    H232637   0.724   3.488   2.726  0.1674  0.6952  0.6898
 3668TIP3   OH232638   1.642   1.933   0.831  0.5566  0.2921 -0.1013
 3668TIP3    H132639   1.689   1.888   0.901 -0.3415  1.3271  1.2214
 3668TIP3    H232640   1.632   2.023   0.863 -2.5387  0.0773 -0.1172
 3669TIP3   OH232641   3.668   1.788   1.155 -0.1412  0.4348 -0.0708
 3669TIP3    H132642   3.687   1.738   1.235 -0.9644 -1.0026 -0.7349
 3669TIP3    H232643   3.575   1.811   1.164 -0.4058 -0.2701 -0.8699
 3670TIP3   OH232644   6.750   4.751   8.416  0.0381  0.1867 -0.5077
 3670TIP3    H132645   6.685   4.681   8.406  0.3304 -0.2807  0.6240
 3670TIP3    H232646   6.749   4.770   8.510  1.8274 -0.1256 -0.3986
 3671TIP3   OH232647   4.852   0.595   8.772  0.1462 -0.0140 -0.6755
 3671TIP3    H132648   4.828   0.503   8.781  0.6027 -0.1789 -1.1245
 3671TIP3    H232649   4.771   0.638   8.744 -0.1854 -0.1954 -0.0216
 3672TIP3   OH232650   3.361   1.623   8.449 -0.1655 -0.2421 -0.2366
 3672TIP3    H132651   3.426   1.632   8.518 -0.8158 -0.4001  0.4069
 3672TIP3    H232652   3.412   1.602   8.371  0.6219  0.3942  0.0857
 3673TIP3   OH232653   0.553   4.203   0.334 -0.1497  0.1594  0.2516
 3673TIP3    H132654   0.470   4.251   0.343  0.1375  0.5455  0.8689
 3673TIP3    H232655   0.585   4.193   0.423  1.3360  1.5620 -0.0683
 3674TIP3   OH232656   2.662   1.765   1.322 -0.2933 -0.5367 -0.2590
 3674TIP3    H132657   2.683   1.816   1.244  0.8866  0.0760  0.4307
 3674TIP3    H232658   2.730   1.698   1.326  1.1305  0.9195  1.5240
 3675TIP3   OH232659   4.806   1.286   7.879 -0.0928  0.4268 -0.6011
 3675TIP3    H132660   4.786   1.225   7.808 -1.4263 -0.1635  0.2438
 3675TIP3    H232661   4.814   1.231   7.957  0.6315  1.1410 -0.1519
 3676TIP3   OH232662   6.159   4.906   8.076 -0.4608  0.2994 -0.3247
 3676TIP3    H132663   6.174   4.947   7.991 -2.0645 -0.1539 -0.8713
 3676TIP3    H232664   6.170   4.977   8.139 -1.8798  1.3191 -1.1557
 3677TIP3   OH232665   5.866   5.049   7.623 -0.3976  0.0353  0.7008
 3677TIP3    H132666   5.880   5.132   7.577 -3.1791 -0.2187 -0.8032
 3677TIP3    H232667   5.828   4.991   7.557 -1.0977 -1.5622  2.4179
 3678TIP3   OH232668   0.075   2.708   1.112 -0.0053  0.2498 -0.4544
 3678TIP3    H132669   0.170   2.723   1.108 -0.0203  0.1678 -1.4711
 3678TIP3    H232670   0.045   2.763   1.184  0.6971  0.9732 -0.6972
 3679TIP3   OH232671   2.874   5.994   7.783  0.3315  0.7913 -0.4409
 3679TIP3    H132672   2.927   6.012   7.705  1.2194 -0.0756 -0.0569
 3679TIP3    H232673   2.885   5.900   7.798 -0.0779  0.8934  0.5566
 3680TIP3   OH232674   3.515   4.824   8.082 -0.3243 -0.6347 -0.0986
 3680TIP3    H132675   3.605   4.791   8.075  0.1239  0.0376  1.8203
 3680TIP3    H232676   3.497   4.864   7.997  1.7952  0.6180 -0.0314
 3681TIP3   OH232677   6.121   1.816   0.525  0.0865 -0.3743  0.4241
 3681TIP3    H132678   6.142   1.726   0.550  0.1166 -0.3605  0.4483
 3681TIP3    H232679   6.063   1.807   0.449  0.0980 -0.4138  0.4202
 3682TIP3   OH232680   2.251   4.351   1.121  0.0393  0.1960  0.1818
 3682TIP3    H132681   2.226   4.379   1.033 -0.7876 -1.1034 -0.0297
 3682TIP3    H232682   2.198   4.273   1.137 -0.7779  1.1021  2.3346
 3683TIP3   OH232683   4.762   4.930   7.501  0.5455  0.0759  0.0097
 3683TIP3    H132684   4.804   4.958   7.419  1.7832 -1.5398  0.0360
 3683TIP3    H232685   4.776   4.836   7.503 -2.0867 -0.3603  0.6635
 3684TIP3   OH232686   5.875   0.201   7.429 -0.5825 -0.4051  0.1026
 3684TIP3    H132687   5.876   0.250   7.512 -0.8711 -0.5920  0.2181
 3684TIP3    H232688   5.868   0.110   7.455 -2.5651 -0.3755 -0.1327
 3685TIP3   OH232689   2.880   3.619   7.841 -1.1971 -0.0559 -0.0466
 3685TIP3    H132690   2.840   3.573   7.915 -1.1754 -0.1391 -0.0864
 3685TIP3    H232691   2.912   3.701   7.879  0.3417 -0.8350  0.4192
 3686TIP3   OH232692   5.289   0.541   7.747  0.2294  0.1728 -0.4414
 3686TIP3    H132693   5.270   0.568   7.836 -2.3931 -2.9191  0.1031
 3686TIP3    H232694   5.211   0.565   7.697  0.2367 -1.0930 -1.1182
 3687TIP3   OH232695   0.820   3.272   7.602  0.0401 -0.5392 -0.1974
 3687TIP3    H132696   0.894   3.212   7.590  2.1336  1.8988 -0.4155
 3687TIP3    H232697   0.847   3.352   7.557 -2.1652  0.9264  0.9174
 3688TIP3   OH232698   1.502   4.133   0.482 -0.1715 -0.1673  0.2147
 3688TIP3    H132699   1.453   4.053   0.462  1.1591 -1.0307  0.2472
 3688TIP3    H232700   1.496   4.185   0.402 -0.3749 -0.6578 -0.0944
 3689TIP3   OH232701   4.360   4.636   8.344  0.0613  0.4536 -0.1514
 3689TIP3    H132702   4.279   4.619   8.392 -0.4538  3.2385  0.1444
 3689TIP3    H232703   4.332   4.675   8.261  1.0780  0.5475 -0.4707
 3690TIP3   OH232704   3.190   2.082   8.203 -0.0171  0.0131  0.7570
 3690TIP3    H132705   3.102   2.046   8.192  0.6454 -1.1025 -1.3809
 3690TIP3    H232706   3.176   2.171   8.234 -1.8482 -0.4794  1.4716
 3691TIP3   OH232707   2.879   0.099   1.450  0.4099 -0.0120 -0.2456
 3691TIP3    H132708   2.948   0.165   1.438  1.1999 -0.4978  1.3444
 3691TIP3    H232709   2.813   0.144   1.503  1.4722 -0.7544  1.8359
 3692TIP3   OH232710   3.366   1.666   7.538  0.6153  0.0953 -0.3637
 3692TIP3    H132711   3.328   1.691   7.453  1.9583  0.5193 -0.8767
 3692TIP3    H232712   3.356   1.571   7.541  1.4909 -0.0588 -1.5000
 3693TIP3   OH232713   2.917   5.106   8.495 -0.5799 -0.0473 -0.3071
 3693TIP3    H132714   2.924   5.197   8.522 -2.1301  0.3570 -1.1042
 3693TIP3    H232715   2.984   5.095   8.428  0.2910  0.2078  0.5155
 3694TIP3   OH232716   6.665   1.833   1.818  0.2539 -0.1483  0.0739
 3694TIP3    H132717   6.732   1.773   1.783  0.0572  0.3067 -1.1431
 3694TIP3    H232718   6.591   1.776   1.838  0.6777 -0.5365  0.5595
 3695TIP3   OH232719   5.017   5.018   0.458 -0.2374  0.0471  0.6573
 3695TIP3    H132720   4.981   5.103   0.433  0.4716  0.0138 -0.5462
 3695TIP3    H232721   5.105   5.039   0.490  0.6331 -0.3813 -1.3230
 3696TIP3   OH232722   5.609   1.903   1.197  0.3955 -0.0665 -0.6613
 3696TIP3    H132723   5.626   1.929   1.106  2.9906  0.0633 -0.2121
 3696TIP3    H232724   5.616   1.808   1.196 -0.0665 -0.1015 -0.6763
 3697TIP3   OH232725   2.181   1.383   8.106  0.2115 -0.4602  0.2155
 3697TIP3    H132726   2.223   1.299   8.126 -0.1639 -0.4266  1.1688
 3697TIP3    H232727   2.124   1.401   8.181  0.9479  1.0783  0.4496
 3698TIP3   OH232728   3.470   1.484   2.293 -0.0218  0.3638  0.2522
 3698TIP3    H132729   3.541   1.423   2.271 -1.5037 -1.2707 -0.1459
 3698TIP3    H232730   3.478   1.497   2.388  1.9072  1.6790 -0.0339
 3699TIP3   OH232731   1.614   4.472   8.139  0.9398 -0.0090 -0.4339
 3699TIP3    H132732   1.622   4.387   8.180  1.2333 -0.6916 -1.8404
 3699TIP3    H232733   1.519   4.484   8.126  0.9416 -0.4100 -0.8152
 3700TIP3   OH232734   3.398   3.030   8.502  0.1857 -0.2052 -0.0465
 3700TIP3    H132735   3.471   3.070   8.455  1.1235  0.4209  1.8176
 3700TIP3    H232736   3.408   3.062   8.592 -2.5484  0.0912  0.2323
 3701TIP3   OH232737   4.373   3.390   2.348 -0.2581  0.0948  0.3389
 3701TIP3    H132738   4.290   3.342   2.342 -1.0475  1.3087  1.0337
 3701TIP3    H232739   4.440   3.324   2.331 -1.2293 -1.5571  2.4125
 3702TIP3   OH232740   0.885   5.978   7.389  0.1548 -0.9734 -0.1071
 3702TIP3    H132741   0.864   6.046   7.325  0.9011  0.8172  1.4397
 3702TIP3    H232742   0.850   5.897   7.352 -0.0497  0.1051 -2.4087
 3703TIP3   OH232743   2.238   3.745   6.588 -0.2999 -0.3104 -0.0514
 3703TIP3    H132744   2.248   3.703   6.673 -0.4685  0.2309  0.2369
 3703TIP3    H232745   2.247   3.838   6.605 -0.8110 -0.1616 -0.5523
 3704TIP3   OH232746   5.532   0.918   2.288 -0.2252 -0.0694  0.2653
 3704TIP3    H132747   5.521   0.896   2.380 -2.0869  3.1130  0.9425
 3704TIP3    H232748   5.627   0.927   2.277  0.0880 -1.4012  1.5604
 3705TIP3   OH232749   2.641   4.848   7.704  0.0306 -0.5160  0.5432
 3705TIP3    H132750   2.604   4.761   7.720  2.4637 -1.0900  4.8535
 3705TIP3    H232751   2.717   4.832   7.647  0.2162 -1.1975  0.9719
 3706TIP3   OH232752   3.975   6.419   0.436  0.1986 -0.2312 -0.2568
 3706TIP3    H132753   3.958   6.333   0.398  3.2597 -1.1966  0.2458
 3706TIP3    H232754   3.971   6.405   0.531  2.5125 -0.3944 -0.1088
 3707TIP3   OH232755   2.735   0.924   0.818  0.7375 -0.0137  0.4602
 3707TIP3    H132756   2.736   0.835   0.781 -2.2278  0.5355 -1.3271
 3707TIP3    H232757   2.822   0.958   0.800  0.9245 -1.4589 -1.9434
 3708TIP3   OH232758   1.557   3.758   7.768 -0.0263 -0.3797 -0.6607
 3708TIP3    H132759   1.637   3.705   7.775  0.2908  0.0539 -0.9378
 3708TIP3    H232760   1.544   3.770   7.674 -0.6320 -0.7563 -0.6319
 3709TIP3   OH232761   5.917   4.896   1.819 -0.1453 -0.1403  0.2542
 3709TIP3    H132762   5.830   4.930   1.839  0.1398  0.1846  0.9918
 3709TIP3    H232763   5.956   4.961   1.761 -0.0562  0.1897  0.6769
 3710TIP3   OH232764   3.798   1.036   7.638 -0.1494  0.5359 -0.3705
 3710TIP3    H132765   3.744   0.958   7.656  0.8168 -0.3749 -1.2799
 3710TIP3    H232766   3.858   1.040   7.712  0.1854  0.0580 -0.6097
 3711TIP3   OH232767   0.399   1.251   8.458 -0.3474  0.0729 -0.0595
 3711TIP3    H132768   0.339   1.205   8.400  1.2423  0.6581 -2.3238
 3711TIP3    H232769   0.345   1.320   8.498 -2.0149 -1.7554  1.0121
 3712TIP3   OH232770   6.019   1.008   0.339 -0.0258 -0.2111  0.4857
 3712TIP3    H132771   6.084   0.937   0.332  0.3359  0.0985  0.6536
 3712TIP3    H232772   5.999   1.012   0.433  1.5643  1.3156  0.8040
 3713TIP3   OH232773   0.446   6.020   0.998 -0.0090 -0.1308  0.4476
 3713TIP3    H132774   0.526   5.968   0.991  0.9228  1.1579  1.2526
 3713TIP3    H232775   0.422   6.014   1.090 -2.2457 -2.4680 -0.1628
 3714TIP3   OH232776   4.030   0.377   1.457  0.1506  0.3249 -0.0064
 3714TIP3    H132777   4.015   0.289   1.425  0.6985  0.4798 -0.7081
 3714TIP3    H232778   3.986   0.434   1.394 -2.0968  0.5113  1.5831
 3715TIP3   OH232779   5.259   1.939   8.388  0.2178  0.0201  0.1666
 3715TIP3    H132780   5.210   1.856   8.387  0.5079 -0.1652  0.8329
 3715TIP3    H232781   5.308   1.939   8.306  0.7302 -0.7853  0.4556
 3716TIP3   OH232782   3.425   5.570   0.459 -0.2186 -0.7355 -0.2119
 3716TIP3    H132783   3.468   5.540   0.379  1.5407 -0.8636  0.7319
 3716TIP3    H232784   3.402   5.489   0.505  1.0257 -0.6830  0.5381
 3717TIP3   OH232785   3.941   5.385   1.484 -0.3704  0.2102 -0.5244
 3717TIP3    H132786   3.997   5.452   1.522 -0.3327  1.1968 -2.2419
 3717TIP3    H232787   3.933   5.319   1.553  0.5594  1.3978  0.7766
 3718TIP3   OH232788   5.455   5.292   8.518 -0.0094  0.4965 -0.1609
 3718TIP3    H132789   5.453   5.361   8.584 -2.1449 -0.1268  0.5019
 3718TIP3    H232790   5.394   5.226   8.551  1.1843 -1.2494 -1.2793
 3719TIP3   OH232791   4.673   4.768   0.511  0.3261 -0.3470  0.1819
 3719TIP3    H132792   4.585   4.752   0.476  0.6664 -0.0747 -0.8193
 3719TIP3    H232793   4.658   4.817   0.592 -0.4865 -1.2274  0.5956
 3720TIP3   OH232794   4.221   5.797   0.481  0.0589  0.2129 -0.4612
 3720TIP3    H132795   4.195   5.770   0.393  1.1044  0.0730 -0.7444
 3720TIP3    H232796   4.200   5.722   0.537 -1.3402  0.5961 -0.4358
 3721TIP3   OH232797   4.962   0.845   0.299  0.3371  0.0523  0.7571
 3721TIP3    H132798   4.914   0.769   0.265 -1.1598  1.2580  0.0640
 3721TIP3    H232799   4.971   0.903   0.225 -1.6842  2.0867  1.9821
 3722TIP3   OH232800   5.828   1.466   1.742  0.1049  0.0230  0.5772
 3722TIP3    H132801   5.767   1.471   1.816 -3.2270  0.8161 -1.9893
 3722TIP3    H232802   5.815   1.378   1.706  0.4176  0.2376 -0.0700
 3723TIP3   OH232803   2.353   2.079   0.126  0.1895  0.6900 -0.5471
 3723TIP3    H132804   2.326   2.161   0.168 -0.6291  0.9875 -1.6338
 3723TIP3    H232805   2.277   2.050   0.076  1.4455  0.9685 -2.7856
 3724TIP3   OH232806   1.895   2.266   0.366 -0.1436 -0.0202  0.7689
 3724TIP3    H132807   1.978   2.313   0.376 -0.5816  1.1276 -0.7092
 3724TIP3    H232808   1.921   2.176   0.347  0.8399  0.5585 -0.8663
 3725TIP3   OH232809   2.325   1.822   8.792 -0.0520  0.4536 -0.1079
 3725TIP3    H132810   2.408   1.774   8.781  0.4194  0.7665  1.7033
 3725TIP3    H232811   2.313   1.869   8.710 -0.0946 -2.0713 -1.6457
 3726TIP3   OH232812   2.570   5.995   7.061 -0.3117  0.2377 -0.5235
 3726TIP3    H132813   2.549   6.082   7.095 -0.0457 -0.6235  2.0969
 3726TIP3    H232814   2.637   6.011   6.995  0.8794  1.9521  0.9883
 3727TIP3   OH232815   2.959   4.790   8.565 -0.1205  0.0985 -0.3655
 3727TIP3    H132816   2.995   4.822   8.482  0.4442 -0.3785 -0.3125
 3727TIP3    H232817   2.871   4.760   8.543 -1.0361  2.4777 -0.2496
 3728TIP3   OH232818   5.524   2.096   2.424  0.1669  1.2703 -0.1936
 3728TIP3    H132819   5.546   2.106   2.517 -0.8442 -1.2244  0.3990
 3728TIP3    H232820   5.429   2.100   2.421  0.2304  4.0061 -1.5890
 3729TIP3   OH232821   2.664   1.356   1.179  0.1486  0.4905  0.6193
 3729TIP3    H132822   2.745   1.369   1.230  0.2247  1.1153  0.3404
 3729TIP3    H232823   2.695   1.333   1.091  0.0326  1.3537  0.3476
 3730TIP3   OH232824   0.588   4.688   2.103 -0.2674 -0.2773 -0.0598
 3730TIP3    H132825   0.646   4.611   2.104  0.6260  0.3520 -1.0753
 3730TIP3    H232826   0.540   4.683   2.186  1.1040 -0.9285  0.7326
 3731TIP3   OH232827   1.566   3.612   8.262 -0.0049  0.2298  0.2071
 3731TIP3    H132828   1.580   3.541   8.199  0.1053  0.6037 -0.1906
 3731TIP3    H232829   1.500   3.577   8.323 -1.1821  0.3770 -0.9292
 3732TIP3   OH232830   0.551   5.166   1.056 -0.1528 -0.1903 -0.6233
 3732TIP3    H132831   0.596   5.113   1.123 -0.5896  0.2816  0.0528
 3732TIP3    H232832   0.622   5.209   1.009  0.1499 -0.3205 -0.2951
 3733TIP3   OH232833   0.952   1.981   1.135  1.1621  0.3486 -0.1020
 3733TIP3    H132834   0.950   2.041   1.209  0.0897 -0.3720  0.4896
 3733TIP3    H232835   0.930   2.035   1.060 -0.8688  0.5412  0.5698
 3734TIP3   OH232836   1.362   0.877   2.221 -0.0323 -0.6247  0.4892
 3734TIP3    H132837   1.349   0.782   2.210 -1.9949 -0.5434  1.7194
 3734TIP3    H232838   1.299   0.916   2.161 -0.8356 -0.1301  1.6327
 3735TIP3   OH232839   3.334   3.707   7.815  0.1042  1.1158 -0.7233
 3735TIP3    H132840   3.308   3.799   7.814  1.3168  1.4728 -1.2384
 3735TIP3    H232841   3.339   3.683   7.723 -1.9385 -0.0124 -0.5990
 3736TIP3   OH232842   6.316   2.739   7.949  0.3835  0.5088 -0.0505
 3736TIP3    H132843   6.323   2.829   7.918 -2.7490  0.1287 -2.3091
 3736TIP3    H232844   6.277   2.747   8.036  1.1758  1.3359  0.2424
 3737TIP3   OH232845   0.292   0.632   8.195 -0.2181  0.6388 -0.2694
 3737TIP3    H132846   0.319   0.723   8.207  0.0822  0.4853  0.2199
 3737TIP3    H232847   0.201   0.637   8.168 -0.1733  1.0898 -0.3353
 3738TIP3   OH232848   4.534   3.205   2.159 -0.2922 -0.5466 -0.0546
 3738TIP3    H132849   4.508   3.144   2.090  0.3814 -0.6278 -0.2423
 3738TIP3    H232850   4.611   3.249   2.124  0.1569 -0.7027  0.7128
 3739TIP3   OH232851   6.183   6.332   7.516 -0.1301  0.4473  0.0589
 3739TIP3    H132852   6.266   6.330   7.563  0.1419 -2.0896 -0.4048
 3739TIP3    H232853   6.124   6.280   7.570 -1.0080  0.9455 -0.3903
 3740TIP3   OH232854   3.133   5.316   8.034  0.4676 -0.3634  0.3058
 3740TIP3    H132855   3.044   5.351   8.043 -0.2902 -2.0120 -0.3396
 3740TIP3    H232856   3.190   5.394   8.037 -1.0064  0.7627  0.3469
 3741TIP3   OH232857   5.099   5.399   1.466 -0.1079  0.4934 -0.3370
 3741TIP3    H132858   5.103   5.304   1.468  0.1943  0.4709 -1.3060
 3741TIP3    H232859   5.022   5.419   1.412 -0.1152  0.7987 -0.2188
 3742TIP3   OH232860   4.750   3.389   1.499 -0.0228 -0.1298  0.3355
 3742TIP3    H132861   4.770   3.426   1.584 -2.2132 -0.6180  1.1393
 3742TIP3    H232862   4.835   3.372   1.459  1.0416  1.2694  1.8872
 3743TIP3   OH232863   0.816   6.496   2.135 -0.5601 -0.1421  0.0070
 3743TIP3    H132864   0.859   6.411   2.120  1.6525  1.0404 -0.8951
 3743TIP3    H232865   0.844   6.550   2.061 -2.5862  1.1688  0.1186
 3744TIP3   OH232866   6.787   3.318   2.360 -0.3697  0.1135 -0.7678
 3744TIP3    H132867   6.750   3.284   2.441  0.1145 -0.0176 -0.6017
 3744TIP3    H232868   6.850   3.384   2.387  0.1861 -0.3122 -1.0175
 3745TIP3   OH232869   0.560   3.064   8.353  0.4287 -0.2315  0.3633
 3745TIP3    H132870   0.592   2.991   8.298  0.3777  0.4572 -0.6079
 3745TIP3    H232871   0.467   3.046   8.364  0.3435 -0.1291 -0.1735
 3746TIP3   OH232872   5.405   5.522   7.957 -0.2488 -0.2964  0.3098
 3746TIP3    H132873   5.365   5.449   8.004 -0.7336  0.1318  0.5715
 3746TIP3    H232874   5.333   5.560   7.906 -0.9995  2.3767  3.0808
 3747TIP3   OH232875   0.857   0.810   7.463 -0.8106 -0.0925 -0.8526
 3747TIP3    H132876   0.788   0.860   7.507 -0.9086  0.1901 -1.3211
 3747TIP3    H232877   0.901   0.763   7.534 -0.1947  1.2837 -0.2648
 3748TIP3   OH232878   5.056   3.181   7.900  0.8711 -0.4577  0.8166
 3748TIP3    H132879   5.003   3.210   7.826 -1.1963 -2.1736  1.5135
 3748TIP3    H232880   5.122   3.249   7.911  0.3486  0.5600 -1.6662
 3749TIP3   OH232881   1.772   6.397   7.892 -0.0767 -0.1054  0.1602
 3749TIP3    H132882   1.789   6.481   7.849  0.5667 -0.6899 -0.7694
 3749TIP3    H232883   1.713   6.351   7.831  0.7762 -0.9160 -0.0815
 3750TIP3   OH232884   2.939   2.788   0.971  0.0456  0.4411 -0.0500
 3750TIP3    H132885   2.856   2.768   1.014 -0.4770 -1.1590 -1.6976
 3750TIP3    H232886   2.998   2.811   1.043 -1.3514 -0.0217  1.3006
 3751TIP3   OH232887   4.834   1.088   2.630  0.2517 -0.1720  0.7947
 3751TIP3    H132888   4.808   1.054   2.544  1.3183 -0.0820  0.4179
 3751TIP3    H232889   4.801   1.177   2.632 -0.3723 -0.3992  0.7619
 3752TIP3   OH232890   2.400   0.100   1.877 -0.1199 -0.7567  0.3705
 3752TIP3    H132891   2.443   0.080   1.960  0.2086  0.1941  0.4387
 3752TIP3    H232892   2.453   0.053   1.811 -0.2876 -1.3793  0.6764
 3753TIP3   OH232893   2.738   3.708   0.662 -0.0159 -0.7327  0.0883
 3753TIP3    H132894   2.774   3.751   0.739  3.6035  1.8249 -2.7004
 3753TIP3    H232895   2.646   3.736   0.660  0.6941  2.0959  1.5821
 3754TIP3   OH232896   6.019   2.695   8.792 -0.0696  0.1730 -0.0751
 3754TIP3    H132897   6.030   2.780   8.749  0.3027  0.4341  0.5178
 3754TIP3    H232898   6.090   2.641   8.757  0.1099  0.3209  0.0580
 3755TIP3   OH232899   3.458   0.921   8.707 -0.3648 -0.5329 -0.3992
 3755TIP3    H132900   3.406   1.001   8.697 -1.5528 -1.1046  0.8850
 3755TIP3    H232901   3.542   0.951   8.742 -1.0553  0.0932  0.7638
 3756TIP3   OH232902   0.715   2.955   7.871 -0.3929  0.0337 -0.4120
 3756TIP3    H132903   0.751   2.960   7.959 -0.2285  0.8775 -0.5281
 3756TIP3    H232904   0.656   3.030   7.864  0.5844  0.7300 -1.4685
 3757TIP3   OH232905   6.732   1.313   2.432 -0.0679  0.5285  0.3107
 3757TIP3    H132906   6.766   1.243   2.377  3.1872  2.2485 -0.1508
 3757TIP3    H232907   6.740   1.280   2.522 -1.0448 -0.5782  0.0125
 3758TIP3   OH232908   0.817   2.251   0.719 -0.4010  0.4291  0.0857
 3758TIP3    H132909   0.730   2.276   0.750  0.6405  0.7178  3.0719
 3758TIP3    H232910   0.855   2.202   0.791  1.8408  0.0911 -1.2448
 3759TIP3   OH232911   6.784   2.862   8.586  0.0378  1.0769 -0.2368
 3759TIP3    H132912   6.780   2.768   8.574  0.4776  1.0336 -0.0382
 3759TIP3    H232913   6.715   2.881   8.650 -0.2564  0.9314 -0.5113
 3760TIP3   OH232914   5.919   2.717   0.889 -0.0126 -0.2862 -0.3146
 3760TIP3    H132915   5.881   2.666   0.961  0.1490  0.3290  0.2088
 3760TIP3    H232916   5.850   2.720   0.823 -0.2328 -0.6874 -0.1075
 3761TIP3   OH232917   2.929   0.478   1.221 -0.1180 -0.2933 -0.3220
 3761TIP3    H132918   2.915   0.424   1.142  0.8224  1.1383 -1.5199
 3761TIP3    H232919   2.862   0.447   1.282 -1.6139 -0.7222 -2.0655
 3762TIP3   OH232920   4.982   5.477   1.135  0.0175  0.0437  0.4114
 3762TIP3    H132921   4.995   5.530   1.056 -0.7667 -1.1053 -0.5069
 3762TIP3    H232922   5.046   5.406   1.127  0.1116  0.0605  0.9557
 3763TIP3   OH232923   2.609   4.543   7.421  0.0819 -0.0482 -0.2869
 3763TIP3    H132924   2.634   4.537   7.513  0.6730  1.1032 -0.3616
 3763TIP3    H232925   2.589   4.453   7.396  2.8946 -0.8755  0.1316
 3764TIP3   OH232926   3.049   6.281   7.388 -0.1578  0.2514 -0.0937
 3764TIP3    H132927   3.114   6.279   7.318  1.3038  0.4744  1.2086
 3764TIP3    H232928   3.077   6.352   7.445 -2.1043  0.9734  0.0283
 3765TIP3   OH232929   3.373   1.845   1.720  0.3356  0.2482  0.0308
 3765TIP3    H132930   3.338   1.924   1.762  0.3784  1.0134 -1.3086
 3765TIP3    H232931   3.468   1.859   1.719  0.3625  0.0580  0.0156
 3766TIP3   OH232932   4.081   1.998   0.571  0.3526  0.7370  0.5089
 3766TIP3    H132933   4.126   1.916   0.594  0.9350  1.3063  1.5205
 3766TIP3    H232934   3.995   1.990   0.612 -0.2750 -0.1081 -0.9245
 3767TIP3   OH232935   4.844   1.414   1.738 -0.0975 -0.8219  0.1039
 3767TIP3    H132936   4.913   1.387   1.799  1.5790  0.9292 -0.8909
 3767TIP3    H232937   4.862   1.367   1.658  1.8808  1.7829 -1.1249
 3768TIP3   OH232938   3.535   4.384   6.846  0.0981 -0.1055 -0.0343
 3768TIP3    H132939   3.596   4.323   6.806  0.4160  1.1194 -1.5142
 3768TIP3    H232940   3.562   4.470   6.814 -1.4323  0.6326  0.5288
 3769TIP3   OH232941   3.760   0.591   8.342 -0.2757 -0.1655  0.3298
 3769TIP3    H132942   3.756   0.656   8.272  1.6820 -2.4515 -2.0892
 3769TIP3    H232943   3.817   0.631   8.408 -0.0379  1.0345 -0.5681
 3770TIP3   OH232944   3.102   0.286   8.790 -0.0896  0.2553  0.4174
 3770TIP3    H132945   3.117   0.247   8.703 -2.3623 -0.4004  0.2443
 3770TIP3    H232946   3.089   0.211   8.848 -0.0862  0.7098  1.0142
 3771TIP3   OH232947   0.741   5.116   1.566  0.0447  0.3126  0.2901
 3771TIP3    H132948   0.785   5.137   1.483  0.2059  0.2065  0.3481
 3771TIP3    H232949   0.799   5.151   1.633  0.0208  0.2070  0.3660
 3772TIP3   OH232950   5.333   5.347   0.452 -0.1536  0.8230 -0.0021
 3772TIP3    H132951   5.299   5.387   0.372  1.1767  2.5913  0.2884
 3772TIP3    H232952   5.309   5.408   0.522  0.4652  0.3010  0.6830
 3773TIP3   OH232953   0.526   4.393   8.589 -0.8085  0.2230  0.2408
 3773TIP3    H132954   0.526   4.473   8.536 -0.4317 -0.2375 -0.4757
 3773TIP3    H232955   0.550   4.324   8.528 -1.6986 -0.5378  0.7226
 3774TIP3   OH232956   4.504   4.480   1.326 -1.1970 -0.2523  0.4319
 3774TIP3    H132957   4.468   4.568   1.332 -1.1582  0.0248 -2.2705
 3774TIP3    H232958   4.598   4.492   1.321 -1.1114 -0.5508  1.1647
 3775TIP3   OH232959   1.920   6.534   8.843  0.6445 -0.8898  0.0546
 3775TIP3    H132960   1.829   6.536   8.873  0.4231  2.0060 -0.5401
 3775TIP3    H232961   1.971   6.531   8.924  0.0574 -1.8901  0.4078
 3776TIP3   OH232962   2.285   1.492   1.509 -0.4148  0.3524  0.4434
 3776TIP3    H132963   2.258   1.558   1.573  1.5786  1.3975  0.3053
 3776TIP3    H232964   2.317   1.542   1.434  0.3125 -0.7677 -0.0363
 3777TIP3   OH232965   3.743   2.702   7.190 -0.3573  0.4165  0.3684
 3777TIP3    H132966   3.820   2.648   7.176 -0.3500  0.2357  1.0640
 3777TIP3    H232967   3.699   2.703   7.106  0.4443  0.5877 -0.0572
 3778TIP3   OH232968   6.511   4.454   7.788  0.2477 -0.1825  0.2013
 3778TIP3    H132969   6.482   4.390   7.854 -2.5047  0.8277  0.1204
 3778TIP3    H232970   6.430   4.496   7.759  1.4944  0.3471 -2.8974
 3779TIP3   OH232971   1.184   2.622   7.316 -0.5755 -0.1128  0.1216
 3779TIP3    H132972   1.093   2.594   7.327 -0.0244 -2.0948  0.0427
 3779TIP3    H232973   1.202   2.612   7.223 -0.4711  0.9541  0.0180
 3780TIP3   OH232974   3.328   5.951   1.254 -0.2568  0.0939 -0.2617
 3780TIP3    H132975   3.418   5.948   1.287 -0.5836 -0.5674  0.6235
 3780TIP3    H232976   3.298   5.860   1.258 -1.6016  0.5651  1.2845
 3781TIP3   OH232977   3.959   3.283   0.205 -0.3301 -0.4522 -0.4590
 3781TIP3    H132978   4.020   3.352   0.177 -0.3707 -0.0306  0.4297
 3781TIP3    H232979   4.010   3.230   0.266 -1.3089  0.9945  1.7579
 3782TIP3   OH232980   1.964   6.679   8.060  0.6790  0.1345  0.6905
 3782TIP3    H132981   2.019   6.737   8.114  2.3725 -1.1974  0.4868
 3782TIP3    H232982   2.019   6.659   7.984 -0.1910 -1.0737  0.3635
 3783TIP3   OH232983   3.229   0.895   8.494 -0.6529 -0.9919 -0.3462
 3783TIP3    H132984   3.185   0.813   8.469 -1.3931 -0.4513 -0.8558
 3783TIP3    H232985   3.297   0.868   8.555  0.1330 -2.1827 -1.6890
 3784TIP3   OH232986   4.894   3.815   7.471  0.2135 -0.0271 -0.3107
 3784TIP3    H132987   4.981   3.776   7.484  0.5310  0.7695  0.0367
 3784TIP3    H232988   4.856   3.767   7.398  0.6652 -0.8639  0.0007
 3785TIP3   OH232989   5.185   6.337   8.375  0.2627  0.3238 -0.2799
 3785TIP3    H132990   5.200   6.367   8.285  2.1619  0.7934  0.1450
 3785TIP3    H232991   5.127   6.262   8.365  2.3720 -1.2142 -2.1884
 3786TIP3   OH232992   5.278   1.362   7.322 -0.0210  0.2638  0.2008
 3786TIP3    H132993   5.277   1.268   7.305 -0.6305  0.2199  0.4476
 3786TIP3    H232994   5.215   1.398   7.259 -0.6689  0.3623  0.9041
 3787TIP3   OH232995   3.911   4.591   7.198 -0.0449  0.3271  0.5133
 3787TIP3    H132996   3.936   4.676   7.234 -0.0204  1.3255 -1.6709
 3787TIP3    H232997   3.840   4.611   7.137 -0.6487 -1.3657  0.5940
 3788TIP3   OH232998   1.444   3.632   7.254 -0.3148 -0.2337  0.5233
 3788TIP3    H132999   1.445   3.698   7.185 -0.8082  0.9694  1.6147
 3788TIP3    H233000   1.487   3.556   7.216  1.5057  1.1637 -0.3523
 3789TIP3   OH233001   6.507   2.429   8.208 -0.0597  0.7997 -0.0423
 3789TIP3    H133002   6.520   2.481   8.128  1.0995 -1.0262 -1.1113
 3789TIP3    H233003   6.575   2.361   8.204  0.1002  0.7138  2.5823
 3790TIP3   OH233004   2.873   2.349   8.377 -0.4457  0.2798  0.4456
 3790TIP3    H133005   2.835   2.266   8.349 -0.5629 -0.3023  2.2050
 3790TIP3    H233006   2.967   2.332   8.384 -0.5608  0.0275  1.5875
 3791TIP3   OH233007   5.234   5.907   7.358 -0.4723 -0.0578  0.2917
 3791TIP3    H133008   5.277   5.833   7.316 -0.2687 -0.0984  0.5663
 3791TIP3    H233009   5.142   5.897   7.334 -0.5449 -0.7421  0.8046
 3792TIP3   OH233010   5.168   4.176   8.419  0.1856  0.5999 -0.7350
 3792TIP3    H133011   5.186   4.194   8.512 -0.1236  2.3656 -0.9935
 3792TIP3    H233012   5.078   4.143   8.419 -0.5449  2.5028 -0.5812
 3793TIP3   OH233013   4.639   2.225   8.071  0.1924  0.3560 -0.2973
 3793TIP3    H133014   4.646   2.320   8.081  1.7676  0.4365 -1.7588
 3793TIP3    H233015   4.700   2.203   8.001  1.4598 -1.9879  1.3701
 3794TIP3   OH233016   6.740   0.581   1.086 -0.2226  0.1965  0.3069
 3794TIP3    H133017   6.676   0.613   1.022 -1.3536 -0.9148  0.8397
 3794TIP3    H233018   6.717   0.626   1.167 -0.4704 -0.3642  0.5505
 3795TIP3   OH233019   5.481   6.674   0.553 -0.0054 -0.1572 -0.0616
 3795TIP3    H133020   5.536   6.747   0.582 -0.4067  0.1781 -0.1359
 3795TIP3    H233021   5.439   6.643   0.633  1.7367 -1.6769  0.3502
 3796TIP3   OH233022   1.177   0.371   8.506 -0.3442  0.4784  0.0695
 3796TIP3    H133023   1.268   0.401   8.512 -0.3577  0.9835 -1.7058
 3796TIP3    H233024   1.184   0.276   8.508  0.1365  0.5179  0.8046
 3797TIP3   OH233025   1.800   0.940   7.819 -0.0560 -0.5450  0.0672
 3797TIP3    H133026   1.711   0.977   7.824  1.4254  4.2903 -2.7224
 3797TIP3    H233027   1.855   1.004   7.865  2.5073 -0.6234 -2.6260
 3798TIP3   OH233028   2.669   4.980   0.178  0.9400  0.0468 -0.2930
 3798TIP3    H133029   2.599   4.951   0.120  0.1968  2.6772 -0.8171
 3798TIP3    H233030   2.637   4.958   0.266 -0.5534  1.1124 -0.5294
 3799TIP3   OH233031   4.323   6.367   0.580  0.2986  0.1788  0.3736
 3799TIP3    H133032   4.297   6.453   0.611 -1.8705 -0.2546 -0.1184
 3799TIP3    H233033   4.360   6.324   0.658 -2.0199  0.2627  1.6027
 3800TIP3   OH233034   3.118   6.019   7.136 -0.1298 -0.0225  1.1076
 3800TIP3    H133035   3.149   6.109   7.151 -0.0969 -0.0876  1.4429
 3800TIP3    H233036   3.100   6.016   7.042  1.9824 -0.3142  0.6538
 3801TIP3   OH233037   2.024   3.111   8.158  0.1293 -0.5296  0.2528
 3801TIP3    H133038   2.104   3.125   8.106 -0.9390 -0.0867 -1.3683
 3801TIP3    H233039   2.007   3.196   8.198 -0.6539  0.0244 -1.1538
 3802TIP3   OH233040   5.416   2.065   2.856  0.0739  0.2561  0.3068
 3802TIP3    H133041   5.329   2.041   2.824  1.0308 -2.1954 -0.7416
 3802TIP3    H233042   5.454   1.982   2.886  1.5067  1.5054  2.1905
 3803TIP3   OH233043   2.904   6.406   2.534  0.1721 -0.3174 -0.2854
 3803TIP3    H133044   2.865   6.336   2.482  1.0738  0.0709 -1.5669
 3803TIP3    H233045   2.998   6.397   2.519  0.3929  0.3385  0.6122
 3804TIP3   OH233046   2.965   5.690   1.252 -0.7563  0.4416  0.1302
 3804TIP3    H133047   2.942   5.773   1.293  1.0848  0.3372  1.4948
 3804TIP3    H233048   2.884   5.660   1.210 -0.8991  4.1258 -2.7102
 3805TIP3   OH233049   5.613   0.526   0.595  0.0981 -0.0147 -0.2217
 3805TIP3    H133050   5.559   0.521   0.674  1.1947  0.5912  0.5859
 3805TIP3    H233051   5.550   0.529   0.523 -0.9234 -1.4388  0.5552
 3806TIP3   OH233052   3.647   3.921   8.572  0.2431  0.5606 -0.3668
 3806TIP3    H133053   3.654   3.831   8.603 -0.8048  0.4903 -0.2923
 3806TIP3    H233054   3.601   3.915   8.488 -1.7678  1.1577  0.6272
 3807TIP3   OH233055   4.290   0.170   7.504  0.3882 -0.2000 -0.2526
 3807TIP3    H133056   4.282   0.263   7.526  0.2819 -0.1153 -0.6292
 3807TIP3    H233057   4.202   0.146   7.473 -0.4753 -1.1889  2.6242
 3808TIP3   OH233058   0.465   3.964   6.624 -0.5063 -0.3340 -0.2585
 3808TIP3    H133059   0.484   3.897   6.558  1.6197 -0.8083  0.7351
 3808TIP3    H233060   0.437   3.914   6.701  1.3917 -0.2050  0.5908
 3809TIP3   OH233061   0.289   3.901   0.253  0.2516  0.4598 -0.3309
 3809TIP3    H133062   0.217   3.839   0.263  0.1905  0.6923  0.9009
 3809TIP3    H233063   0.367   3.846   0.242 -0.2410  0.2014 -3.2452
 3810TIP3   OH233064   6.754   4.991   7.792  0.3494  0.2824 -0.5287
 3810TIP3    H133065   6.788   5.029   7.873  0.4848 -1.5148  0.2966
 3810TIP3    H233066   6.810   4.916   7.775  0.6051  0.8650 -2.5689
 3811TIP3   OH233067   2.809   4.737   8.789  0.3677 -0.0618 -0.1161
 3811TIP3    H133068   2.805   4.804   8.720  2.0972  0.1970 -0.0095
 3811TIP3    H233069   2.883   4.682   8.765  0.7732 -0.1958  1.3392
 3812TIP3   OH233070   0.539   2.786   7.397 -0.4010  0.0772  0.3768
 3812TIP3    H133071   0.548   2.744   7.483  0.1120  0.7639  0.6743
 3812TIP3    H233072   0.533   2.879   7.417 -0.0059  0.2643 -0.3472
 3813TIP3   OH233073   3.268   3.654   1.600 -0.3319  0.1363  0.3089
 3813TIP3    H133074   3.328   3.698   1.540 -1.1842 -0.6895 -1.1837
 3813TIP3    H233075   3.326   3.607   1.660  0.5671 -1.0576 -1.4176
 3814TIP3   OH233076   3.757   5.395   1.265 -0.2107 -0.5406  0.2432
 3814TIP3    H133077   3.752   5.320   1.206 -0.5748 -0.9741  0.8147
 3814TIP3    H233078   3.828   5.373   1.325  2.2742  1.2180 -1.8103
 3815TIP3   OH233079   3.338   5.673   8.341 -0.0980 -0.3617  0.5745
 3815TIP3    H133080   3.265   5.612   8.331 -1.1564  0.7405  1.3408
 3815TIP3    H233081   3.408   5.637   8.286 -1.6863 -0.7082 -1.3166
 3816TIP3   OH233082   0.183   2.059   0.169  0.3061  0.3472  0.1222
 3816TIP3    H133083   0.110   1.997   0.163 -0.0648  0.7002  0.8223
 3816TIP3    H233084   0.205   2.078   0.078 -1.1416  0.9946 -0.1271
 3817TIP3   OH233085   4.312   5.041   0.549  0.0758 -0.0860 -0.0755
 3817TIP3    H133086   4.278   5.130   0.553  1.0387  0.3225 -0.7467
 3817TIP3    H233087   4.288   5.003   0.634 -0.9079  0.5827 -0.0305
 3818TIP3   OH233088   5.659   4.623   1.532 -0.0260 -0.4926 -0.2005
 3818TIP3    H133089   5.719   4.600   1.603  0.5088  0.5208 -0.2968
 3818TIP3    H233090   5.619   4.706   1.561  1.0886  0.5649 -1.5799
 3819TIP3   OH233091   6.646   4.884   0.347 -0.2320 -0.0071 -0.2400
 3819TIP3    H133092   6.617   4.934   0.270  1.0932  0.8288 -0.2362
 3819TIP3    H233093   6.693   4.809   0.311 -3.7827 -2.4306 -0.2930
 3820TIP3   OH233094   4.167   6.285   1.299 -0.2584  0.2316  0.3426
 3820TIP3    H133095   4.204   6.242   1.222 -2.7088  1.2642 -1.5361
 3820TIP3    H233096   4.238   6.283   1.364  1.5149 -1.7067 -1.4999
 3821TIP3   OH233097   0.687   6.722   1.735 -0.2896 -0.1382  0.1818
 3821TIP3    H133098   0.717   6.770   1.812  2.2800  0.5832 -1.1539
 3821TIP3    H233099   0.613   6.773   1.702  0.2227  0.9908  0.7331
 3822TIP3   OH233100   4.132   0.013   7.754 -0.0701  0.0714 -0.5918
 3822TIP3    H133101   4.116   0.003   7.660  0.6541  0.1045 -0.7285
 3822TIP3    H233102   4.227   0.027   7.760  0.0909 -1.2308  0.2474
 3823TIP3   OH233103   3.143   4.312   1.152  0.5996 -0.0158  0.7697
 3823TIP3    H133104   3.226   4.357   1.137  0.8503 -0.9020 -0.6954
 3823TIP3    H233105   3.077   4.372   1.115  0.7184  0.0942  0.7343
 3824TIP3   OH233106   0.171   3.755   6.570  0.7521  0.4373 -0.9854
 3824TIP3    H133107   0.141   3.669   6.602  2.3011 -0.7576 -2.5569
 3824TIP3    H233108   0.264   3.743   6.553  0.8032  2.1660 -2.1608
 3825TIP3   OH233109   4.242   1.296   7.435  0.6193 -0.2501 -0.4252
 3825TIP3    H133110   4.156   1.262   7.457  0.7600 -1.0959 -1.1177
 3825TIP3    H233111   4.251   1.281   7.341  1.2474  0.4554 -0.4902
 3826TIP3   OH233112   3.603   3.926   1.119  0.4564  0.1683  0.3695
 3826TIP3    H133113   3.566   3.931   1.208  1.6104 -2.9918  1.1747
 3826TIP3    H233114   3.692   3.895   1.133  0.6094 -0.5554 -1.9098
 3827TIP3   OH233115   3.175   4.147   0.022  0.0237  0.1316  0.2002
 3827TIP3    H133116   3.185   4.106   0.108 -0.3448  1.5191  0.9406
 3827TIP3    H233117   3.263   4.175  -0.003  0.4277 -1.8203 -0.7191
 3828TIP3   OH233118   5.357   2.622   7.556 -0.2957 -0.0732  0.6064
 3828TIP3    H133119   5.316   2.573   7.485 -0.2783  0.0267  0.5274
 3828TIP3    H233120   5.390   2.701   7.515 -0.5125  0.1054  0.7724
 3829TIP3   OH233121   3.710   1.256   7.250  1.0986  0.1795  0.6254
 3829TIP3    H133122   3.722   1.266   7.345  1.6666 -1.2011  0.7253
 3829TIP3    H233123   3.713   1.162   7.235  0.1974  0.3278 -0.6820
 3830TIP3   OH233124   0.934   1.924   2.797 -0.1025 -0.4255 -0.2173
 3830TIP3    H133125   0.852   1.974   2.793  0.7264  1.0217 -0.0681
 3830TIP3    H233126   0.931   1.867   2.721 -1.5591 -0.9149  0.1711
 3831TIP3   OH233127   4.744   0.917   0.484  0.3258 -0.2163 -0.2550
 3831TIP3    H133128   4.791   0.880   0.409  1.6934  2.7643 -1.0084
 3831TIP3    H233129   4.779   0.870   0.560  2.1592 -0.3370 -1.1274
 3832TIP3   OH233130   1.336   1.676   7.463 -0.6632 -0.3391  0.1486
 3832TIP3    H133131   1.315   1.755   7.413 -0.3798  0.0972  0.7021
 3832TIP3    H233132   1.294   1.691   7.548  0.0176 -0.4457  0.5088
 3833TIP3   OH233133   2.891   6.424   1.424  0.4385  0.1022 -0.3970
 3833TIP3    H133134   2.802   6.402   1.395  1.2097 -0.7738 -2.2395
 3833TIP3    H233135   2.941   6.344   1.408  2.1399  1.4116 -1.9584
 3834TIP3   OH233136   2.734   3.209   7.962 -0.4245 -0.5657 -0.4739
 3834TIP3    H133137   2.685   3.273   7.910 -2.0468 -0.3728  1.1527
 3834TIP3    H233138   2.799   3.262   8.009  1.0730 -0.7496 -2.2703
 3835TIP3   OH233139   5.532   3.877   1.512  0.3022  0.2462  0.0650
 3835TIP3    H133140   5.466   3.872   1.442 -0.8714 -0.6223  1.1776
 3835TIP3    H233141   5.530   3.969   1.539 -0.2299  0.2959 -0.1242
 3836TIP3   OH233142   0.728   5.982   8.572 -0.1276  0.1496  0.3557
 3836TIP3    H133143   0.776   5.926   8.511 -0.5117  0.9502 -0.7120
 3836TIP3    H233144   0.772   5.969   8.656  1.7936  0.6234 -0.5140
 3837TIP3   OH233145   5.016   3.313   8.771  0.2911  0.1328 -0.2563
 3837TIP3    H133146   5.021   3.287   8.679 -0.8666  1.1129 -0.6229
 3837TIP3    H233147   4.928   3.348   8.782 -0.2991 -1.7633  1.7429
 3838TIP3   OH233148   2.177   2.220   8.536 -0.3230  0.0631 -0.0488
 3838TIP3    H133149   2.256   2.270   8.556  0.1464 -0.4993 -0.4715
 3838TIP3    H233150   2.109   2.286   8.523  0.2897  0.5903 -0.6118
 3839TIP3   OH233151   1.036   0.664   7.624  0.4039  0.1136 -0.1069
 3839TIP3    H133152   1.015   0.609   7.549  2.2044 -1.0590  0.1821
 3839TIP3    H233153   1.094   0.610   7.678  0.4983  1.5268  1.2948
 3840TIP3   OH233154   4.790   5.641   8.776 -0.9025  0.1099 -0.1989
 3840TIP3    H133155   4.746   5.719   8.741  0.6233  2.6477  2.9337
 3840TIP3    H233156   4.883   5.662   8.770 -0.4955 -0.5200  2.4825
 3841TIP3   OH233157   0.882   1.689   2.256  0.1977 -0.8278 -0.0514
 3841TIP3    H133158   0.797   1.719   2.225 -0.0726 -0.7512  0.7567
 3841TIP3    H233159   0.939   1.698   2.179 -0.2601  0.1603 -0.2968
 3842TIP3   OH233160   4.916   5.133   1.695 -0.6969 -0.1355  0.4671
 3842TIP3    H133161   4.834   5.109   1.651 -0.5894  0.4314 -0.0590
 3842TIP3    H233162   4.888   5.174   1.777 -1.0504  1.8666 -0.5760
 3843TIP3   OH233163   3.744   0.102   2.476 -0.5093 -0.1498  0.1145
 3843TIP3    H133164   3.784   0.074   2.558 -0.0390 -0.6542 -0.2814
 3843TIP3    H233165   3.656   0.131   2.501 -1.2734 -2.5771  0.4716
 3844TIP3   OH233166   1.836   4.063   1.082  0.1233 -0.0708  0.0536
 3844TIP3    H133167   1.872   4.078   0.995 -0.1837  0.4166  0.0058
 3844TIP3    H233168   1.762   4.004   1.067  1.4877 -1.9403  0.2723
 3845TIP3   OH233169   3.282   1.599   0.629  0.0354  0.4792 -0.4342
 3845TIP3    H133170   3.289   1.571   0.720 -1.6581  0.9237 -0.1258
 3845TIP3    H233171   3.227   1.532   0.588 -2.4768  2.2330 -0.1364
 3846TIP3   OH233172   0.710   2.664   2.065 -0.1919 -0.8156 -0.1361
 3846TIP3    H133173   0.636   2.682   2.007 -0.9046  2.6389  1.5578
 3846TIP3    H233174   0.671   2.658   2.152  1.4532  2.6509  1.0456
 3847TIP3   OH233175   2.414   0.780   0.606 -0.1325  0.0479  0.1392
 3847TIP3    H133176   2.398   0.869   0.574 -2.2352 -0.3450 -0.0457
 3847TIP3    H233177   2.424   0.790   0.701  4.6440  1.0281 -0.2015
 3848TIP3   OH233178   6.097   1.853   0.920  0.3730 -0.2446  0.2172
 3848TIP3    H133179   6.111   1.855   1.015  1.0633 -0.7618  0.1370
 3848TIP3    H233180   6.169   1.799   0.887  1.1531  1.3570 -0.7924
 3849TIP3   OH233181   6.264   2.156   7.762 -0.0699  0.0753  0.1868
 3849TIP3    H133182   6.280   2.134   7.854 -1.3103  0.3762  0.4905
 3849TIP3    H233183   6.328   2.104   7.714  0.8030  0.1532  1.2375
 3850TIP3   OH233184   5.650   0.254   0.151 -0.4813  0.4490 -0.3967
 3850TIP3    H133185   5.616   0.200   0.222  1.7684 -1.6478 -0.8049
 3850TIP3    H233186   5.634   0.202   0.072  1.1436  0.6506 -0.8831
 3851TIP3   OH233187   3.553   2.341   8.502  0.6316 -0.3543 -0.2953
 3851TIP3    H133188   3.467   2.302   8.515  0.3989  0.8700  2.4810
 3851TIP3    H233189   3.570   2.332   8.408 -2.0553 -1.5133 -0.7463
 3852TIP3   OH233190   1.915   3.319   1.401  0.1190  0.6163 -0.5650
 3852TIP3    H133191   1.820   3.332   1.402 -0.2554 -1.4074  2.0885
 3852TIP3    H233192   1.951   3.404   1.428 -1.2047  0.6110  1.4422
 3853TIP3   OH233193   2.203   1.294   1.265  0.0926 -0.3480  0.1568
 3853TIP3    H133194   2.220   1.344   1.185 -0.2258  0.9577  0.8744
 3853TIP3    H233195   2.286   1.296   1.312 -0.0326 -0.1181  0.3736
 3854TIP3   OH233196   2.592   1.989   7.873  0.3191 -0.5487 -0.1954
 3854TIP3    H133197   2.609   2.053   7.943  2.1017 -1.5780  0.3758
 3854TIP3    H233198   2.595   2.041   7.793 -0.2538  0.4103  0.3812
 3855TIP3   OH233199   1.011   2.591   6.887 -0.5222  0.3259  1.1413
 3855TIP3    H133200   1.095   2.610   6.930  2.1594 -1.8965 -2.4965
 3855TIP3    H233201   0.988   2.503   6.918  1.0551 -0.9868 -1.0959
 3856TIP3   OH233202   3.538   3.315   7.876  0.1267 -0.3963  0.8567
 3856TIP3    H133203   3.510   3.290   7.964  1.9034  1.1046  1.9155
 3856TIP3    H233204   3.548   3.410   7.880  2.7762 -0.5495 -0.1502
 3857TIP3   OH233205   5.247   1.155   8.515 -0.2647  0.0354  0.8094
 3857TIP3    H133206   5.234   1.067   8.481  0.5761 -0.0742  0.7375
 3857TIP3    H233207   5.339   1.174   8.497 -0.3420  0.7843  1.1573
 3858TIP3   OH233208   6.717   5.953   1.119 -0.0014 -0.2082 -0.2574
 3858TIP3    H133209   6.791   5.983   1.172 -0.6013  0.6625  0.1115
 3858TIP3    H233210   6.756   5.927   1.036  1.0238 -2.0491  0.7336
 3859TIP3   OH233211   2.239   5.865   7.541 -0.1526 -0.0634  0.0491
 3859TIP3    H133212   2.293   5.943   7.555 -0.2405  0.1947 -0.9344
 3859TIP3    H233213   2.154   5.900   7.513 -0.9962 -0.4415  1.9519
 3860TIP3   OH233214   3.465   5.866   1.733 -0.1483 -0.4716 -0.0101
 3860TIP3    H133215   3.524   5.874   1.808  0.4174 -1.1892 -0.3717
 3860TIP3    H233216   3.501   5.794   1.681 -0.7077 -0.1810 -0.8181
 3861TIP3   OH233217   0.313   2.355   7.278 -0.0203 -0.2629 -0.0404
 3861TIP3    H133218   0.297   2.449   7.283 -0.9935 -0.3581 -0.9328
 3861TIP3    H233219   0.408   2.347   7.269  0.1539  0.5798  0.9148
 3862TIP3   OH233220   6.586   5.541   2.201  0.0093 -0.0476  0.2383
 3862TIP3    H133221   6.647   5.479   2.161 -1.2241 -0.4610 -1.0491
 3862TIP3    H233222   6.643   5.600   2.252  1.3195 -1.4020  0.4083
 3863TIP3   OH233223   4.019   6.271   1.896  0.4736  0.2202  1.0868
 3863TIP3    H133224   4.027   6.355   1.941  0.5353  0.8758 -0.0940
 3863TIP3    H233225   4.066   6.283   1.813 -2.1321  0.1275 -0.5472
 3864TIP3   OH233226   0.481   2.216   7.676  0.5550 -0.0430 -0.1419
 3864TIP3    H133227   0.443   2.156   7.740 -2.0591 -0.8950 -2.2539
 3864TIP3    H233228   0.436   2.299   7.692  2.2758  0.7070  1.1092
 3865TIP3   OH233229   3.596   4.691   1.644 -0.6419 -0.2295  0.5090
 3865TIP3    H133230   3.526   4.714   1.704 -0.9909  0.7302 -0.2448
 3865TIP3    H233231   3.601   4.765   1.583 -0.4603 -1.2739 -0.7853
 3866TIP3   OH233232   5.674   3.770   1.780 -0.0213 -0.3089 -0.4920
 3866TIP3    H133233   5.633   3.684   1.789  0.4140 -0.5741 -1.0077
 3866TIP3    H233234   5.742   3.757   1.714  1.5883 -0.1445  1.0544
 3867TIP3   OH233235   3.708   6.330   2.323  0.0888  0.4387 -0.0690
 3867TIP3    H133236   3.754   6.412   2.344  0.4391  1.1595 -3.1410
 3867TIP3    H233237   3.772   6.262   2.342  1.0750  1.1625 -0.6494
 3868TIP3   OH233238   0.006   5.326   8.480  0.6518 -0.2490 -0.2096
 3868TIP3    H133239  -0.033   5.243   8.508 -0.0563  0.3101  0.5184
 3868TIP3    H233240   0.066   5.302   8.410  2.1746 -1.6717  1.4871
 3869TIP3   OH233241   1.980   0.571   1.268 -0.1082 -0.2574 -0.1960
 3869TIP3    H133242   1.991   0.665   1.255  2.4292 -0.4539 -0.0365
 3869TIP3    H233243   2.001   0.533   1.183  0.8826 -0.7426  0.2442
 3870TIP3   OH233244   5.344   1.842   1.082  0.3507 -0.1242 -0.1412
 3870TIP3    H133245   5.408   1.844   1.153  0.8460 -0.8977 -0.5508
 3870TIP3    H233246   5.268   1.796   1.119 -1.1886  3.2040  1.2786
 3871TIP3   OH233247   0.133   1.192   1.773  0.0845  0.0333  0.3776
 3871TIP3    H133248   0.076   1.259   1.736  0.6452 -0.1774 -0.9087
 3871TIP3    H233249   0.076   1.116   1.786 -0.1659  0.1805  0.1481
 3872TIP3   OH233250   6.452   2.260   7.048 -0.3422 -0.4359 -0.6216
 3872TIP3    H133251   6.415   2.339   7.009  0.4899 -0.1807 -0.9070
 3872TIP3    H233252   6.523   2.236   6.990 -1.0748 -1.8540 -0.9724
 3873TIP3   OH233253   3.249   3.253   0.378  0.3502  0.8386  0.8056
 3873TIP3    H133254   3.230   3.329   0.433 -0.2052  1.8628 -0.7241
 3873TIP3    H233255   3.341   3.263   0.353  0.9875 -0.3036  2.4764
 3874TIP3   OH233256   2.248   6.684   1.686 -0.7210 -0.1086 -0.0671
 3874TIP3    H133257   2.290   6.710   1.604  0.4724  0.7248  0.7658
 3874TIP3    H233258   2.218   6.766   1.725  1.3400 -0.0760  1.6720
 3875TIP3   OH233259   5.570   4.012   0.821 -0.1070 -0.2359 -0.6866
 3875TIP3    H133260   5.602   4.102   0.810  0.9444 -0.8081 -3.0527
 3875TIP3    H233261   5.490   4.008   0.770  0.2697 -0.8078 -1.2603
 3876TIP3   OH233262   5.781   5.641   8.722 -0.0159  0.3150  0.1265
 3876TIP3    H133263   5.735   5.677   8.798  1.6774 -2.2457  2.5644
 3876TIP3    H233264   5.720   5.578   8.685  0.5857 -1.5587  2.0974
 3877TIP3   OH233265   0.674   3.615   7.143  0.1729  0.8040 -0.2551
 3877TIP3    H133266   0.708   3.556   7.210 -2.4904 -0.6457 -0.0354
 3877TIP3    H233267   0.720   3.590   7.063 -0.6891 -1.4552 -0.1046
 3878TIP3   OH233268   4.677   4.654   7.245 -0.3972  0.7029  0.2917
 3878TIP3    H133269   4.721   4.645   7.330  0.3751  2.5375  0.1521
 3878TIP3    H233270   4.731   4.603   7.184 -0.9789 -0.6564  0.8820
 3879TIP3   OH233271   0.279   2.370   0.510  0.3316 -0.4186  0.0031
 3879TIP3    H133272   0.369   2.336   0.512  0.8398  0.8273 -0.5169
 3879TIP3    H233273   0.289   2.463   0.488 -1.0656 -0.1568  0.3753
 3880TIP3   OH233274   0.912   3.628   8.777  0.2700  0.0962 -0.1202
 3880TIP3    H133275   0.875   3.553   8.729 -0.2272 -1.0325  1.9015
 3880TIP3    H233276   0.973   3.668   8.715 -1.0138 -0.6975 -2.0050
 3881TIP3   OH233277   3.349   0.763   1.065  0.1457  0.2191 -0.1896
 3881TIP3    H133278   3.339   0.856   1.085  0.1267  0.1767  0.0015
 3881TIP3    H233279   3.444   0.752   1.053  0.2816  0.0400  0.9303
 3882TIP3   OH233280   2.815   4.359   1.364 -0.0944 -0.2179  0.4109
 3882TIP3    H133281   2.770   4.415   1.301  1.7893 -0.1935 -0.9889
 3882TIP3    H233282   2.775   4.273   1.353  0.5003 -0.3235 -1.1877
 3883TIP3   OH233283   2.320   4.497   0.621  0.1018 -0.1672 -0.1575
 3883TIP3    H133284   2.232   4.479   0.588  0.7757 -1.8862 -1.1438
 3883TIP3    H233285   2.376   4.494   0.544  1.1833 -0.1737  0.6010
 3884TIP3   OH233286   1.836   4.976   7.367  0.1438  0.3361 -0.3539
 3884TIP3    H133287   1.761   5.034   7.350  0.6452  1.0169 -0.2869
 3884TIP3    H233288   1.834   4.961   7.461 -0.5906 -0.6114 -0.5006
 3885TIP3   OH233289   4.753   0.014   7.829  0.2600  0.3873  0.3885
 3885TIP3    H133290   4.716  -0.038   7.758 -0.0545  0.8714  0.1931
 3885TIP3    H233291   4.835   0.048   7.794 -0.2175  1.1736  0.0111
 3886TIP3   OH233292   6.741   4.700   7.607  0.0275  0.4645  0.1865
 3886TIP3    H133293   6.684   4.652   7.667  0.9803 -0.3987  0.4326
 3886TIP3    H233294   6.697   4.783   7.593 -1.8400 -0.5839 -0.4943
 3887TIP3   OH233295   5.666   0.079   1.931  0.3715 -0.0833  0.7693
 3887TIP3    H133296   5.622   0.044   1.853 -1.7998  0.7272  1.5391
 3887TIP3    H233297   5.662   0.007   1.994 -0.6401  0.2348  1.0950
 3888TIP3   OH233298   3.542   4.663   6.754  0.4763  0.1096  0.2182
 3888TIP3    H133299   3.461   4.710   6.773  1.8164  1.8894  2.0265
 3888TIP3    H233300   3.595   4.726   6.705  1.2902 -0.5056  0.2876
 3889TIP3   OH233301   0.791   0.387   8.006 -0.0674 -0.0388  0.3164
 3889TIP3    H133302   0.842   0.467   7.990 -1.1387  0.1956 -2.4238
 3889TIP3    H233303   0.702   0.418   8.021 -0.6099 -0.6645 -1.3455
 3890TIP3   OH233304   4.396   0.510   8.682 -0.4335 -0.6655 -0.4586
 3890TIP3    H133305   4.359   0.511   8.594 -1.5735  2.3271 -0.0493
 3890TIP3    H233306   4.320   0.515   8.740  0.4079  0.4403  0.5900
 3891TIP3   OH233307   5.639   4.195   8.569  0.3723  0.0833 -0.6065
 3891TIP3    H133308   5.547   4.169   8.568  0.7919 -1.5401 -1.9772
 3891TIP3    H233309   5.639   4.287   8.543 -0.9168  0.4108  0.4644
 3892TIP3   OH233310   2.241   6.052   7.751 -0.6195  0.7217  0.0162
 3892TIP3    H133311   2.203   6.117   7.809  1.7150  1.1820  1.1257
 3892TIP3    H233312   2.210   6.076   7.664 -0.8837  2.4879  0.5714
 3893TIP3   OH233313   5.351   2.505   1.192  0.2803  0.0939 -0.6283
 3893TIP3    H133314   5.263   2.470   1.187 -0.7794  2.2374  1.0462
 3893TIP3    H233315   5.351   2.580   1.132 -0.6207  2.8563  2.4995
 3894TIP3   OH233316   3.292   6.770   8.628 -0.3103  0.0274  0.1697
 3894TIP3    H133317   3.356   6.748   8.695  0.2231  0.3764 -0.2193
 3894TIP3    H233318   3.306   6.706   8.558  2.3542  2.3847 -1.7014
 3895TIP3   OH233319   1.840   4.809   1.485 -0.7234 -0.0192 -0.0875
 3895TIP3    H133320   1.848   4.717   1.510 -2.1643  0.1352  1.1318
 3895TIP3    H233321   1.927   4.834   1.454 -0.5785 -2.0728 -1.5070
 3896TIP3   OH233322   6.647   4.216   1.887 -0.2237  0.0039  0.5291
 3896TIP3    H133323   6.668   4.216   1.793 -0.1533  0.0004  0.5450
 3896TIP3    H233324   6.702   4.147   1.924 -1.3887 -1.0894  0.3149
 3897TIP3   OH233325   2.876   4.796   7.531  0.2755 -0.4603  0.1095
 3897TIP3    H133326   2.908   4.883   7.555 -2.3825  0.1426  1.9988
 3897TIP3    H233327   2.817   4.812   7.457 -1.0709 -0.4294  1.1560
 3898TIP3   OH233328   1.252   5.168   7.054  0.0731 -0.0435 -0.2241
 3898TIP3    H133329   1.235   5.087   7.101 -0.4345 -0.1374 -0.5611
 3898TIP3    H233330   1.189   5.231   7.089  0.0553  0.0347 -0.3923
 3899TIP3   OH233331   3.624   6.486   8.175 -0.1358  0.2679 -0.4641
 3899TIP3    H133332   3.683   6.559   8.195 -1.4859  1.3975 -0.4924
 3899TIP3    H233333   3.561   6.522   8.114 -1.4881 -0.6274  0.3519
 3900TIP3   OH233334   5.583   1.544   2.369 -0.1830 -0.0619  0.2804
 3900TIP3    H133335   5.608   1.551   2.461 -1.0113 -2.8059  0.7948
 3900TIP3    H233336   5.653   1.492   2.329 -0.2182  0.4567 -0.4808
 3901TIP3   OH233337   3.527   0.923   7.002 -0.3189  0.0899 -0.4742
 3901TIP3    H133338   3.523   0.832   6.974 -0.0261 -0.4274  1.0518
 3901TIP3    H233339   3.437   0.943   7.030 -0.1990 -0.0028 -0.0200
 3902TIP3   OH233340   3.403   3.421   8.688  0.1101 -0.1273  0.1715
 3902TIP3    H133341   3.373   3.404   8.599  0.3010  2.2365 -0.4141
 3902TIP3    H233342   3.350   3.364   8.743 -1.1845 -0.4203 -1.3194
 3903TIP3   OH233343   6.280   4.920   8.812 -0.0302 -0.3916 -0.5222
 3903TIP3    H133344   6.304   5.002   8.769  0.5976  0.8219  1.9799
 3903TIP3    H233345   6.212   4.944   8.875  0.8622 -1.5438  0.9563
 3904TIP3   OH233346   3.546   4.400   7.327  0.1596  0.1366 -0.0084
 3904TIP3    H133347   3.633   4.389   7.364 -1.1648 -2.3811  2.8500
 3904TIP3    H233348   3.548   4.349   7.246  0.8563 -1.7164  1.1059
 3905TIP3   OH233349   6.184   0.342   8.624  0.2744  0.0550 -0.3761
 3905TIP3    H133350   6.219   0.256   8.603  3.0984  1.0329 -0.0549
 3905TIP3    H233351   6.171   0.385   8.539  1.9180  0.3994 -0.4768
 3906TIP3   OH233352   0.911   5.126   1.351  0.3404  0.2836  0.2140
 3906TIP3    H133353   0.991   5.082   1.381 -0.0141 -1.5757 -1.3691
 3906TIP3    H233354   0.937   5.171   1.271 -0.1110 -0.0509 -0.1247
 3907TIP3   OH233355   1.588   5.299   7.044  0.0304 -0.5020  0.1138
 3907TIP3    H133356   1.578   5.204   7.057  0.9310 -0.4474  1.2921
 3907TIP3    H233357   1.500   5.334   7.059 -0.1687 -1.0789  0.3334
 3908TIP3   OH233358   3.041   1.241   1.639  0.1453  0.2286 -0.3950
 3908TIP3    H133359   3.100   1.182   1.686 -0.4629 -1.8240 -2.0599
 3908TIP3    H233360   3.098   1.287   1.577  0.5644  1.2373  0.6843
 3909TIP3   OH233361   5.599   1.970   0.439 -0.3148  0.1964 -0.0993
 3909TIP3    H133362   5.657   1.989   0.365 -1.6051  0.6336 -1.0351
 3909TIP3    H233363   5.657   1.968   0.515  1.2993 -1.6696 -1.2704
 3910TIP3   OH233364   1.563   2.067   7.317 -0.2538  0.2000  0.3239
 3910TIP3    H133365   1.606   2.064   7.402  0.5669  0.0364 -0.0931
 3910TIP3    H233366   1.634   2.063   7.253 -0.8060  1.0458 -0.3790
 3911TIP3   OH233367   3.530   0.135   7.986 -0.0396 -0.1200 -0.6292
 3911TIP3    H133368   3.523   0.042   7.964  1.0822  0.1717 -2.3948
 3911TIP3    H233369   3.509   0.181   7.905  1.2326  1.1113 -0.3088
 3912TIP3   OH233370   4.431   6.789   8.412  0.2635 -0.5397 -0.2724
 3912TIP3    H133371   4.374   6.830   8.476 -1.4496 -0.7977 -1.5584
 3912TIP3    H233372   4.513   6.774   8.458 -1.2361 -1.7301  2.1827
 3913TIP3   OH233373   5.431   2.307   7.207  0.0194  0.0297 -0.4697
 3913TIP3    H133374   5.349   2.274   7.169 -0.4913  1.6566 -0.8772
 3913TIP3    H233375   5.500   2.264   7.156 -0.6365  1.6766 -2.9463
 3914TIP3   OH233376   2.897   4.826   1.906 -0.1611  0.0244  0.2500
 3914TIP3    H133377   2.829   4.766   1.877 -0.6257 -0.0423  1.3949
 3914TIP3    H233378   2.881   4.836   2.000 -0.0224  1.8236  0.1285
 3915TIP3   OH233379   5.178   2.496   7.711 -0.1975 -0.2977  0.2322
 3915TIP3    H133380   5.248   2.532   7.657  0.4460 -0.9463  0.5923
 3915TIP3    H233381   5.193   2.535   7.797 -0.2536 -0.4623  0.3165
 3916TIP3   OH233382   2.040   1.107   0.831 -0.2313 -0.4867 -0.0330
 3916TIP3    H133383   2.074   1.194   0.854 -2.3798  0.1826  0.8273
 3916TIP3    H233384   2.070   1.093   0.741 -1.6411  2.1664 -1.0392
 3917TIP3   OH233385   2.180   1.259   7.661 -0.3333 -0.4699 -0.4603
 3917TIP3    H133386   2.113   1.321   7.689 -0.7942 -1.3937  0.5366
 3917TIP3    H233387   2.252   1.273   7.722  0.4016  0.4906 -1.5024
 3918TIP3   OH233388   0.449   3.485   1.724 -0.1895  0.2432  0.1062
 3918TIP3    H133389   0.410   3.511   1.808  1.3080  1.8055  0.3724
 3918TIP3    H233390   0.449   3.389   1.727 -1.5734  0.2357  1.1970
 3919TIP3   OH233391   4.104   6.818   0.926 -0.3880 -0.5200  0.1445
 3919TIP3    H133392   4.160   6.893   0.908 -0.5122 -0.7268 -1.1797
 3919TIP3    H233393   4.052   6.844   1.002  1.0192 -0.0739  0.9860
 3920TIP3   OH233394   2.641   5.637   2.320 -0.2541  0.0714  0.3962
 3920TIP3    H133395   2.706   5.672   2.381 -1.2161  0.1687  1.4088
 3920TIP3    H233396   2.565   5.617   2.375 -1.4540  0.9151 -0.8816
 3921TIP3   OH233397   5.462   6.032   8.388  0.0248 -0.4665  0.4216
 3921TIP3    H133398   5.535   5.971   8.388  0.3442 -0.2771 -3.0659
 3921TIP3    H233399   5.392   5.986   8.433  1.6256 -1.4874  1.9795
 3922TIP3   OH233400   4.897   1.442   8.181  0.6182 -0.3158 -0.1956
 3922TIP3    H133401   4.922   1.351   8.197 -0.6397 -0.5473  0.6474
 3922TIP3    H233402   4.855   1.441   8.095 -0.4280 -0.7824  0.2980
 3923TIP3   OH233403   5.220   3.106   0.515  0.4198  0.4430  0.3128
 3923TIP3    H133404   5.245   3.150   0.597  0.0378 -0.0194  0.6870
 3923TIP3    H233405   5.289   3.129   0.453  1.2739 -0.0623  1.0575
 3924TIP3   OH233406   1.886   1.479   2.948  0.0946 -0.2041 -0.2349
 3924TIP3    H133407   1.811   1.461   3.006 -0.3993  2.0524 -0.1025
 3924TIP3    H233408   1.856   1.550   2.892  1.4129 -0.7505 -1.6930
 3925TIP3   OH233409   1.084   2.601   7.668  0.0969 -0.0968  0.4829
 3925TIP3    H133410   1.060   2.626   7.757  1.1302 -0.9050  1.0174
 3925TIP3    H233411   1.098   2.684   7.622 -0.5304  0.3264  1.0382
 3926TIP3   OH233412   3.236   5.345   1.203  0.0290 -0.5414 -0.1210
 3926TIP3    H133413   3.141   5.332   1.209 -0.1117 -0.2055 -1.3921
 3926TIP3    H233414   3.263   5.291   1.129  1.2971 -2.8300  1.8649
 3927TIP3   OH233415   2.059   0.944   0.105 -0.3386 -0.2844 -0.2980
 3927TIP3    H133416   1.992   1.003   0.070  0.7227  0.5639 -0.9447
 3927TIP3    H233417   2.074   0.881   0.034  0.7327  0.5330 -0.8175
 3928TIP3   OH233418   3.297   2.402   7.439  0.7882  0.2560 -0.3810
 3928TIP3    H133419   3.272   2.312   7.421  1.5064  0.0232 -0.2525
 3928TIP3    H233420   3.317   2.440   7.354  1.3055  0.0355 -0.3630
 3929TIP3   OH233421   0.292   4.801   2.617 -0.0724  0.4539  0.1100
 3929TIP3    H133422   0.228   4.871   2.631  0.8833  1.4562 -0.3259
 3929TIP3    H233423   0.240   4.721   2.614 -0.9642  0.8318  3.0271
 3930TIP3   OH233424   1.946   3.602   1.436  0.5308 -0.4746  0.2461
 3930TIP3    H133425   2.016   3.650   1.481  1.9172 -0.0075 -2.2134
 3930TIP3    H233426   1.873   3.664   1.434  0.3301 -0.5980  1.9685
 3931TIP3   OH233427   2.303   4.414   1.384 -0.2548  0.3588 -0.2535
 3931TIP3    H133428   2.299   4.510   1.382 -1.3352  0.3427  0.1895
 3931TIP3    H233429   2.291   4.388   1.293  0.3681  0.6463 -0.4235
 3932TIP3   OH233430   5.978   4.134   1.862  0.2221 -0.3426  0.2025
 3932TIP3    H133431   5.988   4.102   1.952  1.8757 -0.3907  0.0305
 3932TIP3    H233432   5.892   4.103   1.835 -0.2465 -0.4416  1.7183
 3933TIP3   OH233433   2.498   3.908   1.055  0.7527 -1.1692  0.2441
 3933TIP3    H133434   2.494   3.832   0.997  0.2455 -0.2954 -0.9040
 3933TIP3    H233435   2.446   3.975   1.010  1.7106  0.0609  0.9102
 3934TIP3   OH233436   4.506   0.927   1.059 -0.1892  0.2470 -0.2500
 3934TIP3    H133437   4.443   0.897   0.994  1.4487 -1.1696 -1.2809
 3934TIP3    H233438   4.496   0.866   1.133 -0.6905  0.6421  0.0151
 3935TIP3   OH233439   2.553   2.250   2.714 -0.1957 -0.4625  0.3137
 3935TIP3    H133440   2.613   2.178   2.732  1.0988 -0.3042 -2.7903
 3935TIP3    H233441   2.553   2.302   2.795  2.6771 -1.2953  0.9431
 3936TIP3   OH233442   4.092   0.507   6.772 -0.3669 -0.0081  0.0833
 3936TIP3    H133443   4.138   0.551   6.844 -0.0692  1.7677 -1.1393
 3936TIP3    H233444   4.155   0.443   6.740  1.7187  2.8050 -1.9732
 3937TIP3   OH233445   5.901   0.803   0.646 -0.2693 -0.1918  0.6566
 3937TIP3    H133446   5.811   0.794   0.616 -0.4289  1.9000  0.3530
 3937TIP3    H233447   5.916   0.898   0.651  1.4906 -0.4699  1.9848
 3938TIP3   OH233448   1.917   1.437   7.007 -0.0657 -0.2480  0.1542
 3938TIP3    H133449   1.999   1.413   6.963  1.2387  2.0841  1.1145
 3938TIP3    H233450   1.880   1.506   6.951  0.2560  0.8873  1.3035
 3939TIP3   OH233451   3.180   3.994   2.380 -0.0667 -0.5292  0.1194
 3939TIP3    H133452   3.239   4.065   2.409 -1.9357  0.9044  0.5894
 3939TIP3    H233453   3.146   3.957   2.462  0.8481 -1.9857 -0.1257
 3940TIP3   OH233454   6.107   4.973   0.154 -0.0298 -0.2664  0.1235
 3940TIP3    H133455   6.171   4.996   0.221 -1.0100  0.8600  0.7114
 3940TIP3    H233456   6.064   4.895   0.187  0.1372 -0.2604  0.3596
 3941TIP3   OH233457   1.736   1.888   2.513 -0.2659 -0.4203 -0.6281
 3941TIP3    H133458   1.803   1.871   2.446  0.8175 -0.5569  0.4668
 3941TIP3    H233459   1.764   1.969   2.555 -0.6159 -0.6362  0.0380
 3942TIP3   OH233460   3.642   4.337   8.791  0.6214 -0.2820  0.3623
 3942TIP3    H133461   3.674   4.247   8.792  0.8400 -0.2449 -1.0347
 3942TIP3    H233462   3.695   4.382   8.857 -0.3696 -1.4270  2.0136
 3943TIP3   OH233463   5.497   3.088   7.725 -0.0416  0.5047  0.0371
 3943TIP3    H133464   5.430   3.024   7.746  1.0342 -1.5086 -2.1780
 3943TIP3    H233465   5.481   3.111   7.634  2.2291 -0.0673 -0.5721
 3944TIP3   OH233466   0.225   4.540   7.166 -0.2490  0.1031 -0.2838
 3944TIP3    H133467   0.270   4.488   7.233 -1.1201 -1.0695 -0.5805
 3944TIP3    H233468   0.144   4.569   7.208 -0.0623  0.7047 -0.3292
 3945TIP3   OH233469   5.325   3.648   7.729  0.2432 -0.0063 -0.0740
 3945TIP3    H133470   5.276   3.645   7.647 -4.0969  0.5122  2.2245
 3945TIP3    H233471   5.359   3.559   7.741  1.2047 -0.0287 -2.4329
 3946TIP3   OH233472   3.322   2.287   1.465 -0.0369  0.3860  0.3959
 3946TIP3    H133473   3.332   2.367   1.414 -1.1387  0.0546 -0.3697
 3946TIP3    H233474   3.408   2.245   1.463  1.1915  2.5249  2.5531
 3947TIP3   OH233475   0.852   1.270   2.526 -0.3928  0.1182  0.0637
 3947TIP3    H133476   0.842   1.183   2.486  0.1541 -1.1352  2.4446
 3947TIP3    H233477   0.946   1.286   2.526 -0.4806  0.6650 -0.2306
 3948TIP3   OH233478   1.110   2.290   2.604 -0.1000  0.8162 -0.3305
 3948TIP3    H133479   1.157   2.292   2.688  0.2640  0.0024 -0.5073
 3948TIP3    H233480   1.100   2.382   2.581 -0.6716  1.0769  0.8628
 3949TIP3   OH233481   1.700   3.128   1.966  0.0697  0.4896  0.0049
 3949TIP3    H133482   1.611   3.162   1.959  0.2997  1.1207  0.1591
 3949TIP3    H233483   1.697   3.069   2.041 -0.1295  0.7885  0.2313
 3950TIP3   OH233484   4.058   2.604   2.167 -0.0163 -0.2195 -0.6443
 3950TIP3    H133485   3.965   2.608   2.189  0.1548 -0.1965  0.0872
 3950TIP3    H233486   4.090   2.693   2.179  0.0356 -0.1565 -1.2103
 3951TIP3   OH233487   5.541   5.612   7.726  0.4291  0.2813  0.4723
 3951TIP3    H133488   5.516   5.704   7.724  0.3127  0.2903  1.7357
 3951TIP3    H233489   5.510   5.580   7.811 -1.5601 -1.5138 -0.8193
 3952TIP3   OH233490   6.352   5.446   2.365 -0.1147 -0.0530  0.1512
 3952TIP3    H133491   6.427   5.468   2.310 -0.0407 -0.5506  0.0505
 3952TIP3    H233492   6.372   5.359   2.400 -0.1526  0.2578  0.9747
 3953TIP3   OH233493   2.639   1.281   1.867  0.3660  1.1246 -0.7674
 3953TIP3    H133494   2.594   1.274   1.951  0.2569 -1.0721 -0.9515
 3953TIP3    H233495   2.571   1.307   1.806  0.4004  2.5180 -0.2524
 3954TIP3   OH233496   2.751   2.066   1.952 -0.2165  0.3295  0.3862
 3954TIP3    H133497   2.741   2.115   1.870  1.4479  0.0398 -0.0375
 3954TIP3    H233498   2.675   2.008   1.955  0.9442 -1.5981 -2.3849
 3955TIP3   OH233499   1.742   6.526   1.163 -0.3221  0.2095  0.0977
 3955TIP3    H133500   1.688   6.575   1.225 -1.3215 -1.2070  0.3834
 3955TIP3    H233501   1.740   6.580   1.083 -0.0997  1.3948  0.8633
 3956TIP3   OH233502   4.127   1.169   0.127 -0.4796  0.4159  0.2173
 3956TIP3    H133503   4.084   1.145   0.046 -0.4078 -0.0790  0.3199
 3956TIP3    H233504   4.179   1.247   0.106  1.2768 -0.9587 -0.7834
 3957TIP3   OH233505   4.045   4.494   7.844 -0.3572 -0.1583  0.0461
 3957TIP3    H133506   4.007   4.409   7.821  0.5924 -0.8110  0.7528
 3957TIP3    H233507   4.106   4.473   7.915 -0.3877  1.1830  0.4879
 3958TIP3   OH233508   5.105   1.615   1.585  0.1697  0.0406 -0.2726
 3958TIP3    H133509   5.053   1.650   1.656  0.0969 -0.2262 -0.1926
 3958TIP3    H233510   5.145   1.536   1.621  0.4927  0.1499 -0.3867
 3959TIP3   OH233511   6.642   2.273   1.679  0.6919  0.7782  0.0748
 3959TIP3    H133512   6.667   2.186   1.647 -1.6121 -0.0364  0.3212
 3959TIP3    H233513   6.612   2.319   1.601 -0.1228  0.5823  0.2679
 3960TIP3   OH233514   6.825   5.182   8.026  0.0691  0.5580 -0.1412
 3960TIP3    H133515   6.752   5.241   8.043  0.4734  0.8883  0.5066
 3960TIP3    H233516   6.867   5.171   8.111  1.0305  0.7128 -0.5851
 3961TIP3   OH233517   3.642   1.634   7.551  0.4137  0.2735 -0.6836
 3961TIP3    H133518   3.551   1.653   7.571  0.7411  1.7883 -0.5222
 3961TIP3    H233519   3.643   1.613   7.458 -0.2924 -1.2568 -0.3809
 3962TIP3   OH233520   1.824   4.596   0.293 -0.1762  0.4110 -0.1002
 3962TIP3    H133521   1.844   4.505   0.272 -0.9660  0.3334 -0.5413
 3962TIP3    H233522   1.733   4.595   0.321  0.0345  0.9529  0.6347
 3963TIP3   OH233523   3.989   1.152   7.469 -0.4733 -0.4271 -0.3451
 3963TIP3    H133524   3.964   1.245   7.467  1.4793  0.1467 -0.4255
 3963TIP3    H233525   3.916   1.109   7.512 -1.2128  1.2441  0.1777
 3964TIP3   OH233526   2.747   3.405   2.049 -0.2324 -0.2657  0.8938
 3964TIP3    H133527   2.674   3.466   2.039  0.3216  0.2171 -0.4794
 3964TIP3    H233528   2.786   3.428   2.133 -0.7501  0.4969  0.9404
 3965TIP3   OH233529   4.841   6.519   7.986  0.3187 -0.1156 -0.2696
 3965TIP3    H133530   4.751   6.529   7.956 -1.0347 -2.0876  2.6564
 3965TIP3    H233531   4.875   6.445   7.934 -0.3526 -0.4529 -0.2401
 3966TIP3   OH233532   0.573   6.513   6.781  0.3011 -0.2032 -0.2401
 3966TIP3    H133533   0.479   6.497   6.773 -0.1141  1.7176  0.2826
 3966TIP3    H233534   0.605   6.440   6.836 -1.2193  0.0709  1.0923
 3967TIP3   OH233535   4.420   5.937   0.077  0.4655  0.4458  0.4545
 3967TIP3    H133536   4.455   5.949  -0.012  1.6597  0.9788  0.9674
 3967TIP3    H233537   4.450   5.849   0.103 -3.0335 -1.3708 -0.9914
 3968TIP3   OH233538   0.646   1.275   8.597  0.2265 -0.1247 -0.0476
 3968TIP3    H133539   0.682   1.362   8.579  0.8539 -0.1723  0.9080
 3968TIP3    H233540   0.571   1.268   8.538  1.1751  0.3819 -1.3690
 3969TIP3   OH233541   5.400   1.785   8.708  0.3001 -0.1503 -0.0927
 3969TIP3    H133542   5.476   1.820   8.754  0.1015  1.3464 -0.8457
 3969TIP3    H233543   5.357   1.862   8.670 -2.2503 -0.7851  1.2366
 3970TIP3   OH233544   5.066   5.110   1.452  0.6761  0.2130  0.0225
 3970TIP3    H133545   5.051   5.017   1.435 -2.1615  0.4115  0.8847
 3970TIP3    H233546   5.016   5.128   1.532  1.1579  2.4873 -0.1169
 3971TIP3   OH233547   2.280   3.091   7.819 -0.2093 -0.3369 -0.1787
 3971TIP3    H133548   2.365   3.095   7.774  0.3416  0.5983  0.8786
 3971TIP3    H233549   2.215   3.096   7.749  0.6066 -0.1797 -0.9440
 3972TIP3   OH233550   5.033   5.479   7.373  0.0286  0.4762 -0.3744
 3972TIP3    H133551   5.087   5.471   7.452 -0.0291  1.4927 -0.2164
 3972TIP3    H233552   5.004   5.390   7.355 -1.4883  0.4304  1.8266
 3973TIP3   OH233553   2.579   2.261   2.455 -0.2209 -1.0599 -0.0876
 3973TIP3    H133554   2.660   2.311   2.442 -1.2064  0.0647 -2.4129
 3973TIP3    H233555   2.556   2.276   2.547  1.5016 -0.3306  0.2623
 3974TIP3   OH233556   0.235   6.762   0.545  0.7185 -0.2749 -0.3649
 3974TIP3    H133557   0.294   6.736   0.615  0.5372 -1.6804 -0.6890
 3974TIP3    H233558   0.285   6.749   0.464  0.4723 -0.0045 -0.5653
 3975TIP3   OH233559   3.853   6.345   0.118 -0.2706  0.0826 -0.0008
 3975TIP3    H133560   3.811   6.277   0.169  0.6928  0.3385  1.1765
 3975TIP3    H233561   3.864   6.418   0.179 -0.1073  0.8129 -0.8760
 3976TIP3   OH233562   6.662   0.497   7.629 -0.0586 -0.6155 -0.0332
 3976TIP3    H133563   6.715   0.499   7.550  0.3094 -1.3096  0.1896
 3976TIP3    H233564   6.572   0.483   7.598 -0.1097  0.4607 -0.4015
 3977TIP3   OH233565   1.813   4.321   2.289 -0.3694  0.5242  0.2647
 3977TIP3    H133566   1.770   4.285   2.367  0.5047  0.5239  0.7701
 3977TIP3    H233567   1.894   4.360   2.323  1.5057 -2.0065 -0.9395
 3978TIP3   OH233568   3.369   4.721   8.508  0.1149 -0.5613 -0.0231
 3978TIP3    H133569   3.428   4.782   8.464 -0.9452  0.5269  0.0021
 3978TIP3    H233570   3.425   4.672   8.568  0.9075  0.7870  0.3787
 3979TIP3   OH233571   3.264   6.161   1.850 -0.2469 -0.2560  0.2291
 3979TIP3    H133572   3.223   6.082   1.815 -0.2961  0.0695 -0.4674
 3979TIP3    H233573   3.229   6.169   1.938  0.2987 -1.3961  0.5674
 3980TIP3   OH233574   2.124   5.725   7.026 -0.4142 -1.0466  0.1467
 3980TIP3    H133575   2.217   5.738   7.011 -0.4588 -0.1744  0.5939
 3980TIP3    H233576   2.114   5.732   7.121 -0.8284 -1.8760  0.1744
 3981TIP3   OH233577   6.380   0.833   8.860 -0.5718  0.3077  0.7704
 3981TIP3    H133578   6.438   0.782   8.917  0.3176  0.9301  0.4333
 3981TIP3    H233579   6.353   0.908   8.914  1.6641  1.8470 -0.1373
 3982TIP3   OH233580   4.295   3.655   7.683  0.2983  0.3058 -0.7204
 3982TIP3    H133581   4.333   3.617   7.762  1.7567  2.6041 -0.2220
 3982TIP3    H233582   4.362   3.641   7.616 -0.5033 -0.7283 -1.3404
 3983TIP3   OH233583   2.640   6.797   0.162  0.1215 -0.1919  0.1640
 3983TIP3    H133584   2.573   6.838   0.107 -0.1056 -0.7449  0.0167
 3983TIP3    H233585   2.622   6.703   0.155  0.1708 -0.2735  1.0856
 3984TIP3   OH233586   2.049   3.270   1.159 -0.4142  0.2712  0.9590
 3984TIP3    H133587   2.084   3.184   1.183  0.7806  0.7511  1.0295
 3984TIP3    H233588   2.019   3.307   1.241  0.4806  0.5232  1.1821
 3985TIP3   OH233589   0.562   0.685   7.781 -0.1720  0.4086  0.5315
 3985TIP3    H133590   0.467   0.677   7.770 -0.3179  2.8877 -0.7407
 3985TIP3    H233591   0.598   0.664   7.694  0.2888  1.2085  0.5230
 3986TIP3   OH233592   6.265   3.925   0.185  0.5640  0.3288 -0.1136
 3986TIP3    H133593   6.199   3.991   0.163  0.8061 -0.0444 -2.1702
 3986TIP3    H233594   6.348   3.973   0.183  0.8040 -0.1029 -2.2091
 3987TIP3   OH233595   6.280   0.477   7.026  0.2961  0.9037  0.2484
 3987TIP3    H133596   6.288   0.383   7.012  1.6453  1.1801 -1.1312
 3987TIP3    H233597   6.347   0.498   7.090  1.0787  1.1257 -0.6164
 3988TIP3   OH233598   4.154   2.596   0.263  0.1935 -0.0724  0.2162
 3988TIP3    H133599   4.093   2.525   0.279  1.7410 -0.9838  2.5877
 3988TIP3    H233600   4.210   2.564   0.193 -0.4571 -0.2576 -0.2329
 3989TIP3   OH233601   5.571   3.493   1.840 -0.3902  0.4183 -0.5835
 3989TIP3    H133602   5.511   3.446   1.782 -0.2648  0.8064 -1.0360
 3989TIP3    H233603   5.532   3.484   1.926 -1.9532  1.9676 -1.0735
 3990TIP3   OH233604   0.655   4.542   8.795 -0.2159 -0.0518  0.6346
 3990TIP3    H133605   0.606   4.490   8.859 -2.9658  1.8200  0.2135
 3990TIP3    H233606   0.640   4.497   8.712  0.3185 -0.4486  0.7417
 3991TIP3   OH233607   4.708   5.246   8.391  0.4313 -0.7320 -0.1612
 3991TIP3    H133608   4.747   5.285   8.312  0.4257 -0.9066 -0.2521
 3991TIP3    H233609   4.614   5.261   8.382  0.6622  2.8289  1.7390
 3992TIP3   OH233610   6.541   1.992   8.624 -0.0931  0.0920 -0.2172
 3992TIP3    H133611   6.491   2.006   8.543  0.6501  0.3528 -0.6478
 3992TIP3    H233612   6.487   1.932   8.675 -0.8927  0.4452 -0.6158
 3993TIP3   OH233613   1.691   2.858   8.433  0.5496 -0.1320  0.4923
 3993TIP3    H133614   1.755   2.806   8.385  1.7499  2.1625 -0.5837
 3993TIP3    H233615   1.717   2.849   8.525 -1.2371 -3.8518  0.8133
 3994TIP3   OH233616   1.388   3.939   0.262  0.2153  0.5021 -0.3470
 3994TIP3    H133617   1.454   3.897   0.317 -1.2942 -0.6267  0.6980
 3994TIP3    H233618   1.376   3.878   0.189 -0.7190 -0.0727  0.2593
 3995TIP3   OH233619   4.476   0.414   6.514 -0.1554 -0.5428  0.4509
 3995TIP3    H133620   4.432   0.452   6.437  1.2670 -0.3104 -0.2795
 3995TIP3    H233621   4.561   0.385   6.481  0.5825 -0.2299  1.9837
 3996TIP3   OH233622   3.325   4.913   7.567  0.6084  0.3674  0.3967
 3996TIP3    H133623   3.296   4.822   7.578 -1.2087  0.9806  1.0068
 3996TIP3    H233624   3.301   4.936   7.477  0.1353  0.5593  0.5716
 3997TIP3   OH233625   2.833   2.446   2.406 -0.2079  0.3137 -0.5375
 3997TIP3    H133626   2.787   2.527   2.387 -1.1983  0.5359  2.3949
 3997TIP3    H233627   2.908   2.473   2.460 -1.3988 -0.7656  1.7803
 3998TIP3   OH233628   4.721   0.323   0.347 -0.4184  0.1144 -0.0177
 3998TIP3    H133629   4.692   0.395   0.403  0.1557  1.1710 -1.0272
 3998TIP3    H233630   4.770   0.265   0.405 -0.4487  0.8119  0.7231
 3999TIP3   OH233631   3.874   5.149   0.070  0.3454 -0.5568 -0.4876
 3999TIP3    H133632   3.902   5.071   0.022  1.2290 -1.1901  0.9951
 3999TIP3    H233633   3.954   5.186   0.105 -0.2659 -0.1660  0.5616
 4000TIP3   OH233634   6.539   2.021   1.032  0.0767 -0.0924 -0.2347
 4000TIP3    H133635   6.469   2.012   0.966  1.2862 -0.3886 -1.5246
 4000TIP3    H233636   6.595   2.091   0.998  0.8432 -0.3923  0.3874
 4001TIP3   OH233637   3.193   1.322   2.437 -0.3269  0.0175  0.0296
 4001TIP3    H133638   3.140   1.391   2.398  1.4364  0.9167 -0.9262
 4001TIP3    H233639   3.207   1.259   2.366 -0.1701 -0.2443  0.2892
 4002TIP3   OH233640   0.087   6.119   7.083  0.6356  0.4214  0.5848
 4002TIP3    H133641   0.116   6.210   7.081  1.7572  0.0687 -0.5749
 4002TIP3    H233642   0.032   6.109   7.005 -2.1208  0.8617  2.3256
 4003TIP3   OH233643   4.897   4.312   7.511 -0.0505  0.7126  0.0200
 4003TIP3    H133644   4.849   4.352   7.439  2.1080  2.7288 -0.4074
 4003TIP3    H233645   4.990   4.323   7.488  0.6831 -1.2374  1.7185
 4004TIP3   OH233646   5.821   5.234   0.624  0.3075  0.1816 -0.3719
 4004TIP3    H133647   5.767   5.156   0.607 -0.6477  0.7682 -0.1074
 4004TIP3    H233648   5.837   5.272   0.538  1.3513 -0.6601 -0.5732
 4005TIP3   OH233649   0.741   2.289   8.610  0.1649  0.5055 -0.5908
 4005TIP3    H133650   0.772   2.229   8.542  1.4119 -3.4215  3.0383
 4005TIP3    H233651   0.819   2.312   8.660 -0.5871  3.9230 -0.7270
 4006TIP3   OH233652   1.158   2.520   0.909  0.6321  0.3834  0.1011
 4006TIP3    H133653   1.098   2.502   0.981  0.6077 -3.7773 -0.6889
 4006TIP3    H233654   1.234   2.560   0.951 -0.3975  0.4745  2.0039
 4007TIP3   OH233655   6.107   3.186   0.766 -0.2574 -0.9534 -0.1768
 4007TIP3    H133656   6.064   3.146   0.841 -2.6287 -4.5472 -3.0791
 4007TIP3    H233657   6.181   3.127   0.746  1.1048  0.6304 -0.0482
 4008TIP3   OH233658   1.236   1.848   8.366 -0.4583 -0.4844 -0.0855
 4008TIP3    H133659   1.317   1.888   8.398 -0.5625 -1.6309  1.7385
 4008TIP3    H233660   1.174   1.856   8.439 -1.0181 -2.3479 -0.2890
 4009TIP3   OH233661   2.065   6.273   1.598  0.1072 -0.5961  0.5538
 4009TIP3    H133662   2.069   6.356   1.644 -0.5386 -1.6954  2.7149
 4009TIP3    H233663   2.007   6.289   1.524 -0.3446  0.7578  1.1723
 4010TIP3   OH233664   5.005   1.555   0.771 -0.2178  0.0256  0.1369
 4010TIP3    H133665   4.939   1.623   0.789  0.0155  0.2197  0.2709
 4010TIP3    H233666   5.004   1.499   0.848 -0.2270  0.0294  0.1396
 4011TIP3   OH233667   0.357   0.026   0.845 -0.3666  0.3351 -0.5777
 4011TIP3    H133668   0.287   0.087   0.823  0.5591  1.4897 -0.4243
 4011TIP3    H233669   0.437   0.077   0.835  0.3834 -0.5940  0.4367
 4012TIP3   OH233670   4.520   0.173   1.495  0.2256  0.6074 -0.4776
 4012TIP3    H133671   4.604   0.217   1.510 -0.9104  3.2968 -1.4000
 4012TIP3    H233672   4.455   0.227   1.539 -1.3270  0.0840 -1.9904
 4013TIP3   OH233673   3.729   5.104   7.733  0.3642 -0.3200 -0.3369
 4013TIP3    H133674   3.695   5.075   7.648 -0.6417 -0.9813  0.2666
 4013TIP3    H233675   3.726   5.200   7.729  0.8797 -0.3280 -1.2479
 4014TIP3   OH233676   1.264   2.545   8.726  0.1333  0.1160  0.0100
 4014TIP3    H133677   1.356   2.570   8.719 -0.1911  1.1091 -1.0044
 4014TIP3    H233678   1.263   2.476   8.792  1.5224  0.5074  0.4794
 4015TIP3   OH233679   3.557   3.276   2.386 -0.5292  0.0198 -0.0756
 4015TIP3    H133680   3.577   3.310   2.473 -0.0364 -3.4747  1.3681
 4015TIP3    H233681   3.618   3.322   2.328 -0.0604  1.6353  1.6010
 4016TIP3   OH233682   5.967   6.524   7.249  0.3756 -0.1568  0.2871
 4016TIP3    H133683   5.936   6.478   7.171  1.4323  0.7710 -0.7296
 4016TIP3    H233684   6.061   6.534   7.236  0.7788 -0.9277  2.2203
 4017TIP3   OH233685   5.670   0.862   1.648  0.0516 -0.6063  0.4285
 4017TIP3    H133686   5.753   0.911   1.654  0.2793 -1.1798  2.5115
 4017TIP3    H233687   5.603   0.930   1.655  0.3701 -0.3827  1.6506
 4018TIP3   OH233688   0.819   0.359   7.748 -0.0162  0.7847 -0.4757
 4018TIP3    H133689   0.796   0.358   7.841  0.0545  2.1471 -0.4229
 4018TIP3    H233690   0.913   0.376   7.746  0.3356 -0.9622 -0.7882
 4019TIP3   OH233691   5.825   4.156   7.928  0.2715  0.1704 -0.1057
 4019TIP3    H133692   5.847   4.237   7.973  1.5400 -0.0542 -0.2962
 4019TIP3    H233693   5.902   4.100   7.939  0.4140 -0.0860 -2.0913
 4020TIP3   OH233694   5.131   0.509   0.904 -0.2828 -0.6165 -0.0568
 4020TIP3    H133695   5.162   0.594   0.872 -0.7321  0.3477  1.9159
 4020TIP3    H233696   5.037   0.510   0.886  0.0658 -1.8746 -2.4167
 4021TIP3   OH233697   1.144   6.053   8.680 -0.2201  0.0172 -0.2705
 4021TIP3    H133698   1.235   6.038   8.655  1.1876  0.1458  4.0139
 4021TIP3    H233699   1.138   6.147   8.696 -0.7828 -0.1425  0.5421
 4022TIP3   OH233700   2.218   3.500   0.119  0.1275  0.2671 -0.3978
 4022TIP3    H133701   2.156   3.430   0.096  0.3301 -0.0305 -0.0420
 4022TIP3    H233702   2.299   3.455   0.142  0.7660  0.7040 -1.7358
 4023TIP3   OH233703   1.172   6.756   8.341  0.1229 -0.1987 -0.1503
 4023TIP3    H133704   1.206   6.791   8.258 -1.4448  1.1024 -0.3066
 4023TIP3    H233705   1.220   6.803   8.408  0.4896 -0.3001 -0.3412
 4024TIP3   OH233706   2.081   2.738   7.123 -0.1368 -0.0639  0.3690
 4024TIP3    H133707   2.036   2.672   7.071  1.3801 -1.7341  1.0693
 4024TIP3    H233708   2.031   2.819   7.109 -1.8561 -1.2717 -0.7774
 4025TIP3   OH233709   5.612   5.188   8.069 -0.1350  0.0973  0.4794
 4025TIP3    H133710   5.570   5.225   7.991 -1.0781 -1.9931 -0.1040
 4025TIP3    H233711   5.706   5.195   8.051 -0.2764  1.6853  0.2070
 4026TIP3   OH233712   0.479   5.233   1.609  0.2687  0.6221  0.4311
 4026TIP3    H133713   0.558   5.190   1.577 -0.4549 -0.2256 -0.2635
 4026TIP3    H233714   0.511   5.298   1.672  1.4343 -0.4386  0.9784
 4027TIP3   OH233715   4.362   0.412   2.289  0.1149  0.3474  0.5297
 4027TIP3    H133716   4.295   0.357   2.330  1.7536 -2.4079 -0.2072
 4027TIP3    H233717   4.443   0.389   2.334  1.0465  1.4091 -0.5389
 4028TIP3   OH233718   1.963   4.461   7.850 -0.0496 -0.3369  0.2349
 4028TIP3    H133719   1.963   4.374   7.890 -0.1871 -0.4176  0.0599
 4028TIP3    H233720   1.893   4.458   7.785  1.3575 -0.8312 -1.3343
 4029TIP3   OH233721   1.869   1.599   1.202  0.1562  0.3367  0.4988
 4029TIP3    H133722   1.888   1.615   1.294 -1.7259  0.3133  0.9278
 4029TIP3    H233723   1.856   1.505   1.196  0.1550  0.3526  0.2189
 4030TIP3   OH233724   4.604   6.775   7.273  0.0350  0.0655 -0.2589
 4030TIP3    H133725   4.528   6.833   7.279 -0.1206 -0.2538  1.4704
 4030TIP3    H233726   4.629   6.759   7.364  1.3953 -0.8692 -0.7618
 4031TIP3   OH233727   4.282   4.220   8.187 -0.0789  0.0022  0.1904
 4031TIP3    H133728   4.345   4.162   8.144 -0.5768  0.7408 -1.6401
 4031TIP3    H233729   4.284   4.194   8.279 -0.3715 -2.9918 -0.5481
 4032TIP3   OH233730   4.032   5.250   1.180  0.5062 -0.1719  0.4674
 4032TIP3    H133731   4.064   5.297   1.103 -2.6011  0.8125 -0.3799
 4032TIP3    H233732   3.982   5.176   1.144  2.5523 -2.2876  1.7235
 4033TIP3   OH233733   2.811   3.175   1.926 -0.4997 -0.4140  0.4969
 4033TIP3    H133734   2.774   3.242   1.983 -0.7421  0.7654 -0.9636
 4033TIP3    H233735   2.885   3.219   1.883  0.3380 -1.5987  0.6820
 4034TIP3   OH233736   6.379   0.932   2.185 -0.5811 -0.7458  0.0780
 4034TIP3    H133737   6.463   0.955   2.224 -0.5021  1.0152 -1.0342
 4034TIP3    H233738   6.316   0.994   2.223 -1.1912 -1.3842  0.1338
 4035TIP3   OH233739   0.497   1.194   8.123  0.3458 -0.1655 -0.1959
 4035TIP3    H133740   0.465   1.264   8.067  1.1419  1.1451  0.8933
 4035TIP3    H233741   0.509   1.236   8.209  1.8849 -1.3468  0.2261
 4036TIP3   OH233742   1.683   6.532   7.377 -0.0269  0.2722 -0.9020
 4036TIP3    H133743   1.631   6.459   7.344 -0.2269  1.0561 -2.3910
 4036TIP3    H233744   1.682   6.596   7.307 -0.1415  1.8785  0.4989
 4037TIP3   OH233745   0.740   2.269   1.214 -0.0563  0.5625 -0.1332
 4037TIP3    H133746   0.776   2.206   1.276 -1.9362  1.1168  1.6344
 4037TIP3    H233747   0.658   2.230   1.185  0.2191  0.8702 -1.4077
 4038TIP3   OH233748   2.642   1.066   0.013  0.6020 -0.3821  0.3976
 4038TIP3    H133749   2.725   1.029  -0.015 -0.4191 -2.2828 -0.3400
 4038TIP3    H233750   2.612   1.007   0.083 -0.6062 -0.3802 -0.0850
 4039TIP3   OH233751   2.953   2.490   1.826  0.1175 -0.3450  0.3944
 4039TIP3    H133752   2.976   2.484   1.918  1.1764 -1.6729  0.0719
 4039TIP3    H233753   3.016   2.552   1.789 -0.3798  0.2740  0.5814
 4040TIP3   OH233754   5.143   0.156   2.020 -0.0914 -0.4742  0.2833
 4040TIP3    H133755   5.219   0.213   2.014  0.3175 -0.9864  0.4944
 4040TIP3    H233756   5.068   0.213   2.004  0.2609  0.2591  1.1844
 4041TIP3   OH233757   6.041   3.141   2.507 -0.4139  0.5244  0.2122
 4041TIP3    H133758   5.967   3.098   2.464  2.0742 -2.2199 -1.7212
 4041TIP3    H233759   6.012   3.152   2.598 -2.7979 -1.4094 -0.2087
 4042TIP3   OH233760   4.078   5.731   8.408 -0.5314 -0.1641  0.0146
 4042TIP3    H133761   4.059   5.818   8.443  0.0186  0.4118 -1.0601
 4042TIP3    H233762   4.055   5.737   8.315  1.7169 -0.4163 -0.6188
 4043TIP3   OH233763   3.645   0.575   1.055  0.3941  0.5712  0.1511
 4043TIP3    H133764   3.690   0.634   1.116  1.9006 -0.2517 -0.1134
 4043TIP3    H233765   3.631   0.628   0.977  1.0927  0.8071  0.1744
 4044TIP3   OH233766   1.621   6.098   0.798 -0.6557  0.1847  0.6673
 4044TIP3    H133767   1.553   6.110   0.864 -0.8615  0.7797  0.3532
 4044TIP3    H233768   1.615   6.176   0.743 -0.5344 -0.3352 -0.0976
 4045TIP3   OH233769   6.194   2.906   0.238 -0.2575  0.3921  0.1091
 4045TIP3    H133770   6.155   2.992   0.256 -0.3683  0.5202 -0.7209
 4045TIP3    H233771   6.211   2.906   0.144  0.4157 -0.2201  0.2157
 4046TIP3   OH233772   0.660   0.336   1.698 -0.7154  0.1841 -0.6349
 4046TIP3    H133773   0.567   0.318   1.711 -0.4205 -0.4401  0.8684
 4046TIP3    H233774   0.683   0.288   1.618 -1.1503 -1.8082  0.3612
 4047TIP3   OH233775   3.558   0.253   8.430  0.0236  0.6501  0.2314
 4047TIP3    H133776   3.534   0.337   8.469 -0.2497  0.6873 -0.0149
 4047TIP3    H233777   3.532   0.187   8.495 -0.4405  0.7110  0.1100
 4048TIP3   OH233778   2.928   4.481   8.335  0.4655 -0.2929  0.5167
 4048TIP3    H133779   3.007   4.493   8.388  0.1992 -2.6839  1.6193
 4048TIP3    H233780   2.859   4.466   8.399 -0.5551  0.0976 -0.4735
 4049TIP3   OH233781   0.917   5.856   6.847  0.2646  0.0640 -0.2739
 4049TIP3    H133782   0.936   5.898   6.931 -0.4918  1.3151 -0.6950
 4049TIP3    H233783   0.832   5.891   6.822  0.8197  0.3084 -1.9357
 4050TIP3   OH233784   6.501   3.988   0.886  0.4053  0.0802  0.5992
 4050TIP3    H133785   6.443   3.945   0.823 -0.5655 -1.0182  2.1608
 4050TIP3    H233786   6.589   3.966   0.856 -0.0499 -1.2471  0.1668
 4051TIP3   OH233787   0.742   1.605   7.795 -0.0417  0.2762 -0.7423
 4051TIP3    H133788   0.790   1.680   7.762  1.6293 -0.7954 -0.8826
 4051TIP3    H233789   0.650   1.633   7.796  0.6652  2.8688  0.7682
 4052TIP3   OH233790   2.770   5.781   8.196 -0.2848 -0.1864 -0.1815
 4052TIP3    H133791   2.774   5.848   8.264  0.2235  0.6563 -1.0169
 4052TIP3    H233792   2.707   5.815   8.133  0.4515 -0.1707 -0.9288
 4053TIP3   OH233793   4.670   6.782   8.556  0.3329  0.0286 -0.4679
 4053TIP3    H133794   4.714   6.836   8.491  1.9384 -1.3737 -0.6069
 4053TIP3    H233795   4.740   6.734   8.599 -1.0846 -3.0571 -1.3376
 4054TIP3   OH233796   5.730   0.262   2.593 -0.6636 -0.1055  0.6125
 4054TIP3    H133797   5.793   0.210   2.543 -0.2829  1.9127 -1.1296
 4054TIP3    H233798   5.781   0.299   2.665 -0.3903 -0.3079  0.5241
 4055TIP3   OH233799   6.281   3.469   0.745 -0.1950 -0.7010 -0.4823
 4055TIP3    H133800   6.262   3.557   0.714 -0.8226 -0.5316  0.3415
 4055TIP3    H233801   6.218   3.455   0.816 -0.9248 -2.2617 -1.3855
 4056TIP3   OH233802   3.074   6.128   0.015  0.1080  0.3452  0.3224
 4056TIP3    H133803   2.982   6.141   0.037 -0.6150  0.0308 -2.1899
 4056TIP3    H233804   3.083   6.163  -0.073  1.6345 -2.3685 -0.7182
 4057TIP3   OH233805   5.881   5.868   7.255  0.5353 -0.0958  0.4791
 4057TIP3    H133806   5.817   5.885   7.186  1.9823 -1.3934 -1.2718
 4057TIP3    H233807   5.951   5.818   7.212  1.9498 -0.1647  2.6805
 4058TIP3   OH233808   4.032   2.363   8.022 -0.0019  0.1708 -0.2362
 4058TIP3    H133809   4.039   2.453   8.055  0.0108  0.9137 -2.1454
 4058TIP3    H233810   4.012   2.310   8.099 -1.2202  1.9741  0.7498
 4059TIP3   OH233811   1.040   4.204   1.507 -0.1207  0.0449 -0.5680
 4059TIP3    H133812   1.039   4.245   1.594  0.8939  1.4423 -1.1600
 4059TIP3    H233813   1.132   4.209   1.480 -0.5184  0.1800 -1.9585
 4060TIP3   OH233814   6.195   0.384   8.355 -0.3887  0.4461  0.2997
 4060TIP3    H133815   6.208   0.348   8.267 -2.6046 -0.7919  0.4040
 4060TIP3    H233816   6.116   0.439   8.346 -2.3171 -1.8300  1.9741
 4061TIP3   OH233817   2.693   4.672   0.589 -0.1649  0.2471 -0.6683
 4061TIP3    H133818   2.694   4.578   0.574  2.3722  0.1969 -0.5792
 4061TIP3    H233819   2.769   4.688   0.645  0.3341  2.5098 -1.8805
 4062TIP3   OH233820   3.696   3.685   1.500 -0.1670  0.2932  0.3121
 4062TIP3    H133821   3.609   3.666   1.467 -0.2003 -0.5738  0.8739
 4062TIP3    H233822   3.729   3.754   1.442 -0.2721 -1.0508 -1.4515
 4063TIP3   OH233823   3.764   0.282   8.815 -0.2103  0.3459  0.7624
 4063TIP3    H133824   3.720   0.362   8.787  1.0896  0.7945 -0.0795
 4063TIP3    H233825   3.790   0.299   8.905 -0.1628  0.7778  0.6684
 4064TIP3   OH233826   3.054   2.448   1.097  0.0955  0.3172  0.7924
 4064TIP3    H133827   3.052   2.354   1.115  0.3041  0.1506  0.0282
 4064TIP3    H233828   2.994   2.460   1.023  1.0149  0.5696  0.0574
 4065TIP3   OH233829   1.631   1.945   8.043 -0.5259  0.1909 -0.4021
 4065TIP3    H133830   1.722   1.950   8.072  0.1520 -0.3959 -2.2745
 4065TIP3    H233831   1.629   1.997   7.962 -0.7139 -3.2658 -2.8501
 4066TIP3   OH233832   5.312   3.978   8.131  0.0354 -0.0791 -0.3660
 4066TIP3    H133833   5.395   3.977   8.178 -0.5579 -0.8431  0.7129
 4066TIP3    H233834   5.290   4.070   8.121  0.4185  0.0991  0.4138
 4067TIP3   OH233835   0.013   5.635   0.781 -0.0363  0.1430  0.0651
 4067TIP3    H133836   0.065   5.556   0.772  1.8858  1.4146 -0.8326
 4067TIP3    H233837   0.012   5.673   0.693  0.2608  1.7881  0.7317
 4068TIP3   OH233838   3.806   6.619   2.179 -0.0873 -0.4592 -0.1094
 4068TIP3    H133839   3.801   6.715   2.181  0.2323 -0.4520  1.0397
 4068TIP3    H233840   3.811   6.593   2.271  2.5053 -1.4089 -0.4120
 4069TIP3   OH233841   5.658   5.284   0.301 -0.2891  0.4411  0.4105
 4069TIP3    H133842   5.741   5.249   0.269 -0.4509  0.7516 -0.3780
 4069TIP3    H233843   5.618   5.211   0.349  0.6185  0.4213  1.1644
 4070TIP3   OH233844   4.939   4.959   0.215  0.1056  0.1459 -0.1844
 4070TIP3    H133845   4.979   4.960   0.302  0.0111  1.1356 -0.1349
 4070TIP3    H233846   4.922   4.867   0.196  2.0979 -0.2856 -0.0622
 4071TIP3   OH233847   1.582   3.012   0.057 -0.2687  0.3965  0.2760
 4071TIP3    H133848   1.499   3.058   0.051 -0.7005 -0.4793 -0.8954
 4071TIP3    H233849   1.577   2.945  -0.011  2.1550  1.5577 -1.1946
 4072TIP3   OH233850   6.171   1.750   1.209 -0.2244 -0.1745 -0.0385
 4072TIP3    H133851   6.231   1.681   1.240  1.5198  0.1072 -2.5099
 4072TIP3    H233852   6.084   1.712   1.220  0.5377 -1.7730  0.9791
 4073TIP3   OH233853   3.649   2.318   8.779 -0.0318  0.0464  0.2377
 4073TIP3    H133854   3.580   2.337   8.715 -1.9373 -0.1096  2.1419
 4073TIP3    H233855   3.701   2.398   8.782  1.6797 -0.7152 -3.1921
 4074TIP3   OH233856   1.256   1.400   8.599  0.3214 -0.4427 -0.0267
 4074TIP3    H133857   1.258   1.455   8.520 -0.5253 -0.6253 -0.1795
 4074TIP3    H233858   1.185   1.338   8.583 -1.0837  0.6493  1.6139
 4075TIP3   OH233859   6.498   1.757   8.409 -0.3477 -0.5012 -0.0572
 4075TIP3    H133860   6.552   1.685   8.377  0.2166 -0.2455  0.3180
 4075TIP3    H233861   6.438   1.716   8.471 -1.0164 -0.8901 -0.9291
 4076TIP3   OH233862   3.006   1.711   2.799  0.0358  0.2085  0.0603
 4076TIP3    H133863   3.068   1.733   2.869  0.8633 -1.3728 -0.1269
 4076TIP3    H233864   2.970   1.625   2.825 -0.9176  0.3800 -0.6246
 4077TIP3   OH233865   2.903   1.889   0.380 -0.1084  0.0532  0.4772
 4077TIP3    H133866   2.878   1.955   0.445 -1.9968 -0.1034 -0.0279
 4077TIP3    H233867   2.863   1.919   0.299  0.6106 -0.7567 -0.1981
 4078TIP3   OH233868   0.373   3.477   2.020  0.3634 -0.1067  0.4199
 4078TIP3    H133869   0.291   3.490   2.068  0.7208  0.7462  0.8069
 4078TIP3    H233870   0.420   3.559   2.030  0.7722 -0.1800 -0.7793
 4079TIP3   OH233871   3.411   5.670   7.811 -1.1404 -0.5040 -0.4543
 4079TIP3    H133872   3.436   5.762   7.802  0.0603 -0.9471 -2.1593
 4079TIP3    H233873   3.323   5.665   7.776 -1.9710  0.2783  1.3729
 4080TIP3   OH233874   6.732   5.631   1.051 -0.2933  0.2283  0.5614
 4080TIP3    H133875   6.777   5.576   1.116  0.4879  0.1069 -0.0645
 4080TIP3    H233876   6.793   5.637   0.978 -0.5351  1.6109  0.4417
 4081TIP3   OH233877   1.900   0.823   0.352 -0.2068  0.0852 -0.0961
 4081TIP3    H133878   1.914   0.728   0.345  2.2971  0.2792  1.1449
 4081TIP3    H233879   1.961   0.861   0.289 -0.8012  0.9068 -0.1877
 4082TIP3   OH233880   0.462   3.749   6.452 -0.5749 -0.4543  0.2120
 4082TIP3    H133881   0.541   3.701   6.476 -0.9045 -0.7672  0.6784
 4082TIP3    H233882   0.409   3.686   6.405  0.3136  0.3033 -1.9495
 4083TIP3   OH233883   5.805   3.684   1.043  0.0458  0.2005 -0.2866
 4083TIP3    H133884   5.723   3.640   1.062  0.2641  0.2149  0.7519
 4083TIP3    H233885   5.787   3.735   0.964 -0.7859 -0.2024 -0.3663
 4084TIP3   OH233886   6.467   4.159   0.150 -0.3208  0.6043 -0.1965
 4084TIP3    H133887   6.521   4.200   0.218 -0.7056 -1.7586  1.6925
 4084TIP3    H233888   6.385   4.209   0.150 -0.1139  0.9583  0.7255
 4085TIP3   OH233889   1.409   3.780   6.761  0.2843 -0.1394 -0.3652
 4085TIP3    H133890   1.437   3.693   6.790 -0.6967 -0.6496 -0.8842
 4085TIP3    H233891   1.482   3.812   6.707  0.5579 -0.7445 -0.3637
 4086TIP3   OH233892   5.214   0.047   8.123  0.1599  0.4257  0.2340
 4086TIP3    H133893   5.215  -0.044   8.152 -0.5650  0.2508 -0.2991
 4086TIP3    H233894   5.292   0.056   8.068  0.8749  0.4425  1.2115
 4087TIP3   OH233895   4.614   5.038   0.800 -0.1510  0.3830 -0.4745
 4087TIP3    H133896   4.705   5.057   0.819  0.2958 -0.9769 -1.1458
 4087TIP3    H233897   4.602   5.062   0.708 -0.6063  0.9817 -0.2704
 4088TIP3   OH233898   0.433   4.652   2.327  0.0417 -0.5297 -0.0198
 4088TIP3    H133899   0.341   4.634   2.345 -0.0461  0.6664  0.8362
 4088TIP3    H233900   0.471   4.671   2.413  0.1526  3.0549 -0.7082
 4089TIP3   OH233901   0.001   2.810   2.726 -0.1102  0.1756 -0.1978
 4089TIP3    H133902  -0.070   2.783   2.668  1.2568  0.9007 -2.3232
 4089TIP3    H233903   0.072   2.748   2.708  0.3855  0.4854  0.6185
 4090TIP3   OH233904   2.617   0.347   2.154 -0.4943 -0.1042 -0.3812
 4090TIP3    H133905   2.635   0.255   2.139  0.6952  0.4630 -2.9746
 4090TIP3    H233906   2.530   0.361   2.117  0.0613  0.1380 -1.6354
 4091TIP3   OH233907   6.055   1.983   2.137 -0.0094  0.0130  0.4656
 4091TIP3    H133908   6.102   2.046   2.191  0.8528 -0.1860 -0.0385
 4091TIP3    H233909   5.990   2.036   2.090  0.2823  0.4295  0.5214
 4092TIP3   OH233910   3.683   5.686   7.579  0.1638  0.4003  0.6787
 4092TIP3    H133911   3.604   5.634   7.563  0.7133 -0.4642  0.7113
 4092TIP3    H233912   3.660   5.775   7.552  0.6544 -0.6542 -4.0431
 4093TIP3   OH233913   4.450   5.811   0.632 -0.2094  0.2945  0.0291
 4093TIP3    H133914   4.389   5.837   0.563  0.8884  0.5303 -0.8910
 4093TIP3    H233915   4.471   5.720   0.612  0.0839  0.3527  0.0621
 4094TIP3   OH233916   3.227   4.123   8.122 -0.1731  0.1880  0.0639
 4094TIP3    H133917   3.242   4.068   8.046  1.0026  0.0119  0.4143
 4094TIP3    H233918   3.164   4.075   8.175 -0.0186 -0.2806 -0.1784
 4095TIP3   OH233919   2.615   0.984   1.862  0.1500 -0.4799  0.2586
 4095TIP3    H133920   2.613   0.989   1.766 -1.0354  0.1586  0.2972
 4095TIP3    H233921   2.655   1.067   1.890  0.6375 -0.7330  0.3104
 4096TIP3   OH233922   2.604   1.373   8.247  0.2525  0.0305 -0.0007
 4096TIP3    H133923   2.618   1.313   8.320  2.3917 -0.5340 -0.8132
 4096TIP3    H233924   2.692   1.393   8.215 -0.5663  1.3779 -1.5444
 4097TIP3   OH233925   0.566   0.613   7.500  0.8317  0.2324  0.4088
 4097TIP3    H133926   0.506   0.559   7.448  1.6660 -0.8483  0.5240
 4097TIP3    H233927   0.648   0.612   7.449  0.5347  2.4394 -0.2208
 4098TIP3   OH233928   0.331   1.288   7.052 -0.5186  0.0892  0.0169
 4098TIP3    H133929   0.393   1.238   7.104  0.0352  0.7385 -0.0030
 4098TIP3    H233930   0.293   1.224   6.991 -1.8347 -0.8777  1.7648
 4099TIP3   OH233931   6.186   5.305   7.633  0.0625 -0.5573 -0.1191
 4099TIP3    H133932   6.104   5.304   7.584  0.3702  0.5618 -0.6768
 4099TIP3    H233933   6.175   5.376   7.696  1.3068  0.9052 -1.4733
 4100TIP3   OH233934   3.323   2.992   1.348 -0.0882 -0.3005  0.0291
 4100TIP3    H133935   3.358   2.974   1.435  0.4668  0.0413 -0.1239
 4100TIP3    H233936   3.364   2.926   1.292  0.2574  0.0510 -0.1357
 4101TIP3   OH233937   5.387   2.568   7.263  0.1019 -0.1695 -0.0003
 4101TIP3    H133938   5.477   2.594   7.242  0.5759 -1.1678  0.7576
 4101TIP3    H233939   5.384   2.474   7.246 -0.3289 -0.4578  1.5253
 4102TIP3   OH233940   1.807   4.972   7.646 -0.2941 -0.6413  0.5293
 4102TIP3    H133941   1.839   4.918   7.718 -1.0318 -0.0173  1.3620
 4102TIP3    H233942   1.880   5.032   7.627  0.3570 -1.6152 -0.0989
 4103TIP3   OH233943   0.796   3.417   7.308 -0.2256  0.1248 -0.1039
 4103TIP3    H133944   0.765   3.455   7.390  0.4313  3.1748 -1.0990
 4103TIP3    H233945   0.891   3.423   7.314 -0.0862 -1.6708 -0.2457
 4104TIP3   OH233946   2.321   1.865   8.002 -0.1789  0.0280  0.3139
 4104TIP3    H133947   2.364   1.950   8.010  0.1767 -0.1675  0.5203
 4104TIP3    H233948   2.244   1.870   8.059  0.2315 -0.0312  0.8841
 4105TIP3   OH233949   1.479   3.193   1.400  0.4926  0.0522 -0.0165
 4105TIP3    H133950   1.422   3.254   1.447 -2.2479  0.4955 -3.4564
 4105TIP3    H233951   1.557   3.244   1.378 -0.4943  1.4608 -0.3723
 4106TIP3   OH233952   6.547   5.085   1.911 -0.4526 -0.3483  0.1496
 4106TIP3    H133953   6.459   5.101   1.876  0.1664  0.2956 -1.1831
 4106TIP3    H233954   6.533   5.066   2.004 -2.1019 -1.4591 -0.2919
 4107TIP3   OH233955   2.768   5.010   0.604 -0.4959  0.1723 -0.4203
 4107TIP3    H133956   2.817   4.994   0.523 -0.0089  0.3355 -0.1618
 4107TIP3    H233957   2.802   4.944   0.665  0.0388  0.8467  0.0259
 4108TIP3   OH233958   3.633   0.106   0.205 -0.1434  0.3060  0.0431
 4108TIP3    H133959   3.572   0.124   0.277 -0.1029  0.3231  0.0729
 4108TIP3    H233960   3.576   0.098   0.128 -0.1235  0.9442 -0.0357
 4109TIP3   OH233961   6.765   0.760   1.344  0.5519 -0.1669  0.0072
 4109TIP3    H133962   6.805   0.717   1.419 -0.4755 -0.6859  0.2742
 4109TIP3    H233963   6.837   0.808   1.303  1.8009 -2.2618 -0.4119
 4110TIP3   OH233964   3.807   6.501   1.805 -1.1452  0.1332  0.5672
 4110TIP3    H133965   3.846   6.526   1.888  1.4111 -1.5048 -0.0091
 4110TIP3    H233966   3.776   6.583   1.766 -0.6794  1.1652  2.2920
 4111TIP3   OH233967   1.692   5.665   6.946 -0.6497  0.1819  0.4298
 4111TIP3    H133968   1.752   5.731   6.914 -0.8749 -0.1656 -0.7736
 4111TIP3    H233969   1.699   5.593   6.883 -1.0733 -0.5649  1.2033
 4112TIP3   OH233970   3.130   4.703   2.538  0.0517  0.0726  0.1159
 4112TIP3    H133971   3.218   4.689   2.571  1.2174  3.5328 -1.1179
 4112TIP3    H233972   3.135   4.681   2.445 -1.0140 -1.6813  0.4233
 4113TIP3   OH233973   4.338   4.285   7.712 -0.7987  0.0768  0.3530
 4113TIP3    H133974   4.398   4.359   7.719 -1.1087  0.2757  0.9725
 4113TIP3    H233975   4.368   4.223   7.779 -0.6181 -0.3097 -0.0765
 4114TIP3   OH233976   1.553   5.645   7.601 -0.2244 -0.0655  0.3412
 4114TIP3    H133977   1.571   5.594   7.522  0.5976 -1.1642  1.1950
 4114TIP3    H233978   1.627   5.705   7.608  0.3864 -0.8747  0.9649
 4115TIP3   OH233979   6.548   6.338   7.428 -0.2284 -0.4296 -0.3843
 4115TIP3    H133980   6.554   6.250   7.464 -1.0999 -0.5848 -0.5910
 4115TIP3    H233981   6.594   6.393   7.491 -1.5341 -0.7230  0.8577
 4116TIP3   OH233982   3.039   5.897   1.787  0.0153 -0.1679 -0.4211
 4116TIP3    H133983   3.085   5.839   1.848 -2.1801  0.4767  2.0471
 4116TIP3    H233984   2.998   5.837   1.724  0.2255 -1.0954  0.2931
 4117TIP3   OH233985   4.944   0.750   7.135 -0.1729 -0.2890 -1.0361
 4117TIP3    H133986   4.987   0.834   7.147  1.0044 -0.8716 -1.0492
 4117TIP3    H233987   4.927   0.745   7.040 -1.3396  0.4308 -0.8863
 4118TIP3   OH233988   2.334   4.771   7.581 -0.0192  0.2808 -0.2992
 4118TIP3    H133989   2.265   4.785   7.647 -0.5246 -0.8433 -0.5710
 4118TIP3    H233990   2.415   4.793   7.626 -0.2918 -1.0565  0.9214
 4119TIP3   OH233991   1.954   2.222   2.401 -0.8313 -0.3854 -0.3712
 4119TIP3    H133992   2.048   2.212   2.387 -0.5326  1.4094  0.0848
 4119TIP3    H233993   1.915   2.204   2.315 -0.0512 -0.8219 -0.6465
 4120TIP3   OH233994   6.423   5.724   8.392  0.2559 -0.1206 -0.4302
 4120TIP3    H133995   6.477   5.801   8.374  0.8573 -0.6646 -1.0513
 4120TIP3    H233996   6.469   5.678   8.463 -1.3185  1.2427  1.5886
 4121TIP3   OH233997   3.576   0.816   0.926  0.0137 -0.5734 -0.5074
 4121TIP3    H133998   3.541   0.852   0.845  0.7794  2.3383  0.3496
 4121TIP3    H233999   3.619   0.890   0.969  0.7363 -2.3022  1.9722
 4122TIP3   OH234000   6.464   2.517   2.149 -0.1690 -0.3277 -0.2067
 4122TIP3    H134001   6.521   2.587   2.118 -0.0404 -0.9549 -1.4253
 4122TIP3    H234002   6.456   2.533   2.243 -1.3883  2.2162 -0.6515
 4123TIP3   OH234003   4.556   2.115   6.883  0.3143  0.1586 -0.0326
 4123TIP3    H134004   4.466   2.129   6.913  0.2600 -1.0573  0.4251
 4123TIP3    H234005   4.547   2.058   6.807  0.6624  0.5889 -0.4015
 4124TIP3   OH234006   2.330   1.659   0.795  0.2616  0.0002  0.2540
 4124TIP3    H134007   2.388   1.663   0.872 -1.3276 -0.5917  1.5334
 4124TIP3    H234008   2.289   1.746   0.793  0.9683  0.3292 -0.4973
 4125TIP3   OH234009   5.934   6.346   1.628 -0.1849 -0.1251  0.6577
 4125TIP3    H134010   5.982   6.317   1.705  1.1350 -1.7780 -0.7044
 4125TIP3    H234011   5.895   6.267   1.592 -1.1209  0.6738 -0.1650
 4126TIP3   OH234012   0.253   6.726   1.900 -0.0823  0.1166  0.2770
 4126TIP3    H134013   0.195   6.751   1.971  1.2022  0.7198  1.1471
 4126TIP3    H234014   0.340   6.724   1.939  0.3838 -1.7703 -0.7496
 4127TIP3   OH234015   0.893   6.340   1.839  0.6953 -0.0142 -0.7492
 4127TIP3    H134016   0.970   6.353   1.784 -0.1611  1.4087 -1.6862
 4127TIP3    H234017   0.928   6.331   1.928  2.0568 -1.6899 -1.4057
 4128TIP3   OH234018   2.481   5.580   1.664  0.1369 -0.2793 -0.1650
 4128TIP3    H134019   2.509   5.599   1.574 -0.9801 -2.2070 -0.9716
 4128TIP3    H234020   2.386   5.592   1.662  0.1602  0.0912  0.8785
 4129TIP3   OH234021   1.637   2.346   1.471 -0.0056 -0.1436 -0.7304
 4129TIP3    H134022   1.647   2.302   1.555  1.0983 -0.4743 -1.0321
 4129TIP3    H234023   1.645   2.277   1.406 -0.4887  0.1711 -1.1338
 4130TIP3   OH234024   3.733   3.415   1.593  0.0694  0.0393 -0.6096
 4130TIP3    H134025   3.772   3.493   1.554  0.0179  1.8927  2.7000
 4130TIP3    H234026   3.807   3.366   1.628  0.1562 -1.8246 -3.1243
 4131TIP3   OH234027   4.375   0.739   0.040  0.6753 -0.0727 -0.8201
 4131TIP3    H134028   4.388   0.834   0.046  0.2262 -0.1042  1.9140
 4131TIP3    H234029   4.281   0.729   0.030  0.5058 -0.1985  0.6085
 4132TIP3   OH234030   5.510   0.675   1.552 -0.0245  0.3119 -0.2658
 4132TIP3    H134031   5.578   0.740   1.571  0.1708 -0.1273  0.5484
 4132TIP3    H234032   5.430   0.713   1.589  0.4310 -0.7325  1.9197
 4133TIP3   OH234033   5.795   3.853   0.790  0.1264  0.2860 -0.0893
 4133TIP3    H134034   5.718   3.908   0.776 -0.5193  0.0773  2.2500
 4133TIP3    H234035   5.857   3.910   0.837 -0.0188 -0.5482  1.1544
 4134TIP3   OH234036   4.808   2.991   8.048 -0.4344  0.1944  0.3119
 4134TIP3    H134037   4.794   3.077   8.009 -0.5263 -0.3044 -0.7904
 4134TIP3    H234038   4.796   2.929   7.975 -2.3061 -0.8903  1.4554
 4135TIP3   OH234039   2.600   1.628   8.249  0.0025 -0.0239 -0.1546
 4135TIP3    H134040   2.569   1.540   8.227 -0.5912  0.1492 -0.0473
 4135TIP3    H234041   2.558   1.647   8.333  0.6972  0.0827  0.1726
 4136TIP3   OH234042   4.088   0.315   2.208 -0.5931  0.2049 -0.7294
 4136TIP3    H134043   4.041   0.340   2.128  1.3375  0.7378 -1.7905
 4136TIP3    H234044   4.128   0.397   2.238 -0.8826 -0.0942  0.5037
 4137TIP3   OH234045   0.653   2.964   6.625  0.0632 -0.1611 -0.2486
 4137TIP3    H134046   0.692   2.886   6.664  3.0889  0.5334 -1.5449
 4137TIP3    H234047   0.615   2.934   6.542  1.8349 -0.2254 -1.0780
 4138TIP3   OH234048   3.648   5.647   1.164 -0.0570  0.1259  0.3593
 4138TIP3    H134049   3.555   5.628   1.153 -0.3974  1.4175  0.8005
 4138TIP3    H234050   3.689   5.561   1.175 -1.0217 -0.5443 -0.9740
 4139TIP3   OH234051   1.542   3.115   7.791  0.8417 -0.0249 -0.2530
 4139TIP3    H134052   1.577   3.193   7.748  0.6165  1.7505  2.5564
 4139TIP3    H234053   1.450   3.137   7.809  1.2064 -0.2048  2.0606
 4140TIP3   OH234054   3.642   2.769   1.711  0.5107 -0.1128  0.0757
 4140TIP3    H134055   3.648   2.674   1.721 -0.1160 -0.3832 -1.7887
 4140TIP3    H234056   3.600   2.782   1.626 -0.2478  1.8378  0.6969
 4141TIP3   OH234057   2.452   1.037   6.542  0.0606  0.5439 -0.3090
 4141TIP3    H134058   2.492   1.110   6.590  0.3556  0.9365 -1.1373
 4141TIP3    H234059   2.361   1.035   6.571  0.1823  0.9040  0.1033
 4142TIP3   OH234060   5.711   3.937   1.193  0.5193  0.0743 -0.1106
 4142TIP3    H134061   5.631   3.958   1.145  0.1679  0.0738  0.4553
 4142TIP3    H234062   5.695   3.852   1.232  0.6925  0.1873  0.2184
 4143TIP3   OH234063   6.252   4.424   6.699 -0.2056  0.3476 -0.3844
 4143TIP3    H134064   6.196   4.483   6.749 -0.2423 -0.7271  0.9208
 4143TIP3    H234065   6.260   4.346   6.755 -0.5357 -1.0670 -2.2218
 4144TIP3   OH234066   5.788   6.061   7.624 -0.3136 -0.3284 -0.1076
 4144TIP3    H134067   5.700   6.041   7.591 -0.4175  0.0108 -0.0391
 4144TIP3    H234068   5.845   5.999   7.579 -0.2540  1.0426 -2.0356
 4145TIP3   OH234069   1.048   6.521   0.856  0.0567 -0.2632 -0.2265
 4145TIP3    H134070   0.962   6.533   0.817 -0.3519  1.7256  1.1149
 4145TIP3    H234071   1.067   6.605   0.897  2.0846 -1.0687  0.6131
 4146TIP3   OH234072   0.314   2.047   0.424  0.4102 -0.5370  0.1338
 4146TIP3    H134073   0.278   2.054   0.335  0.7995 -1.9672 -0.1598
 4146TIP3    H234074   0.382   2.115   0.428  0.5489 -0.6139 -0.7442
 4147TIP3   OH234075   1.716   0.979   8.125  0.2957 -0.1206 -0.4929
 4147TIP3    H134076   1.678   0.896   8.156  0.1496  0.0293 -0.2729
 4147TIP3    H234077   1.656   1.009   8.057 -0.0875  0.2105 -0.0180
 4148TIP3   OH234078   6.775   0.800   2.585 -0.0457 -0.0106  0.3639
 4148TIP3    H134079   6.753   0.711   2.555 -1.5440  0.5930 -0.4706
 4148TIP3    H234080   6.740   0.804   2.674 -1.0762  0.1079 -0.0312
 4149TIP3   OH234081   5.373   0.627   2.777  0.2016 -0.1261 -0.5930
 4149TIP3    H134082   5.387   0.717   2.804 -0.1781 -0.1073 -0.4497
 4149TIP3    H234083   5.460   0.587   2.780  0.3577  0.2108 -0.5759
 4150TIP3   OH234084   2.989   0.187   8.198  0.0472  0.4198 -0.7719
 4150TIP3    H134085   3.076   0.157   8.171  0.0040 -1.1297  0.6035
 4150TIP3    H234086   2.972   0.140   8.280 -2.1895  0.4989 -1.1213
 4151TIP3   OH234087   6.492   1.933   7.712  0.0424 -0.2332 -0.0052
 4151TIP3    H134088   6.487   1.871   7.784  0.2442  0.1496  0.3461
 4151TIP3    H234089   6.422   1.907   7.653  0.5346 -1.1938 -0.1865
 4152TIP3   OH234090   6.370   2.061   0.819 -0.2897  0.0626 -0.3783
 4152TIP3    H134091   6.390   2.027   0.731 -2.0258 -0.6254 -0.5346
 4152TIP3    H234092   6.286   2.106   0.809  0.0370  0.9668  0.7129
 4153TIP3   OH234093   2.865   0.379   8.464 -0.1061  0.4130 -0.0064
 4153TIP3    H134094   2.852   0.286   8.484  0.4502  0.4093  0.3693
 4153TIP3    H234095   2.910   0.414   8.542 -0.8306  1.1241  0.0986
 4154TIP3   OH234096   5.878   3.982   2.109 -0.0709  0.1491 -0.4115
 4154TIP3    H134097   5.912   3.948   2.192  1.0658  0.9429 -0.5286
 4154TIP3    H234098   5.809   3.920   2.084 -1.0702  0.3987  1.5765
 4155TIP3   OH234099   1.724   5.944   7.240 -0.5108  0.3700  0.3648
 4155TIP3    H134100   1.790   5.943   7.171 -0.9524 -0.1444 -0.0665
 4155TIP3    H234101   1.708   5.852   7.259 -0.7372  0.5018  0.8226
 4156TIP3   OH234102   0.430   2.944   0.808  0.3554  0.5516 -0.1037
 4156TIP3    H134103   0.366   2.948   0.737  0.9159  1.1946 -0.5882
 4156TIP3    H234104   0.387   2.988   0.882 -0.2140 -0.0816 -0.0539
 4157TIP3   OH234105   1.836   6.157   1.698 -0.3589 -0.2285  0.2910
 4157TIP3    H134106   1.804   6.225   1.757  0.4575  0.8492 -0.4687
 4157TIP3    H234107   1.919   6.191   1.664  2.5207 -3.3993  3.2343
 4158TIP3   OH234108   4.380   1.913   0.428  0.4380  0.1955  0.0215
 4158TIP3    H134109   4.340   1.928   0.343  0.5106 -1.4623 -0.3222
 4158TIP3    H234110   4.306   1.892   0.486  0.5934 -0.8632 -0.1510
 4159TIP3   OH234111   1.424   1.172   1.668  0.3114  0.4152  0.1979
 4159TIP3    H134112   1.402   1.240   1.732  1.3433  2.5765 -1.5869
 4159TIP3    H234113   1.513   1.146   1.690  0.8241  1.4661 -0.5437
 4160TIP3   OH234114   6.528   2.938   8.282 -1.0031 -0.3242 -0.0089
 4160TIP3    H134115   6.617   2.969   8.267 -1.6884  0.8510 -1.9843
 4160TIP3    H234116   6.534   2.843   8.279  0.1635 -0.2545 -0.1592
 4161TIP3   OH234117   5.180   2.248   7.112 -0.1828 -0.2247  0.4462
 4161TIP3    H134118   5.119   2.311   7.074 -1.7961 -1.7158  0.4614
 4161TIP3    H234119   5.138   2.163   7.099  1.3045 -1.1902  1.6183
 4162TIP3   OH234120   6.248   0.031   1.958  0.5408  0.5118 -0.0458
 4162TIP3    H134121   6.281   0.067   2.041 -1.2814 -1.2877  1.5672
 4162TIP3    H234122   6.229   0.108   1.904  2.3904  1.7126  0.9102
 4163TIP3   OH234123   3.947   5.695   8.042 -0.1734  0.2186  0.8783
 4163TIP3    H134124   3.982   5.607   8.030  0.3121  0.4081  0.8751
 4163TIP3    H234125   3.890   5.710   7.966  1.0068  0.5098  0.0229
 4164TIP3   OH234126   6.023   3.279   2.113  0.7515  0.3806 -0.3561
 4164TIP3    H134127   6.081   3.231   2.172  1.9563  1.6852 -0.4115
 4164TIP3    H234128   5.935   3.261   2.145  1.2453 -0.7383  0.4373
 4165TIP3   OH234129   3.103   2.318   7.220  0.2211 -0.1049 -0.2260
 4165TIP3    H134130   3.130   2.381   7.152  0.9826 -0.9076 -0.7016
 4165TIP3    H234131   3.053   2.252   7.172 -1.3077  0.5585  0.4102
 4166TIP3   OH234132   5.526   4.791   1.007 -0.8083 -0.5562  0.2559
 4166TIP3    H134133   5.619   4.774   1.019 -0.6894  0.0869  0.2266
 4166TIP3    H234134   5.502   4.739   0.930 -0.1146  0.5819 -0.7445
 4167TIP3   OH234135   4.855   4.962   7.223  0.1437 -1.3858  0.6894
 4167TIP3    H134136   4.868   4.996   7.134 -3.2902 -1.4680  0.0051
 4167TIP3    H234137   4.914   4.887   7.229  1.1609 -0.8026 -1.1268
 4168TIP3   OH234138   3.580   2.597   8.271 -0.5297 -0.0022 -0.1720
 4168TIP3    H134139   3.632   2.551   8.205  2.6695  0.5380  1.7630
 4168TIP3    H234140   3.569   2.685   8.235 -0.2969 -0.1868 -0.7024
 4169TIP3   OH234141   0.976   6.048   7.021  0.1828  0.4698 -0.4927
 4169TIP3    H134142   0.957   6.129   6.974 -0.9912 -1.1632 -3.0829
 4169TIP3    H234143   1.071   6.040   7.018  0.3710  1.9644  0.3197
 4170TIP3   OH234144   0.222   5.418   8.093  0.4415  0.6913  0.2955
 4170TIP3    H134145   0.152   5.447   8.033  0.9731  2.1560  0.3574
 4170TIP3    H234146   0.278   5.363   8.038 -0.2520  0.2438  0.0138
 4171TIP3   OH234147   1.089   4.529   2.102  0.0330 -0.5286 -0.2829
 4171TIP3    H134148   1.083   4.618   2.136 -0.1974 -0.8122  0.4474
 4171TIP3    H234149   1.100   4.474   2.180 -4.2289 -1.5842 -0.1683
 4172TIP3   OH234150   6.650   3.400   0.360 -0.2455  0.7439 -0.2892
 4172TIP3    H134151   6.671   3.481   0.313  0.5194  1.0803  0.6127
 4172TIP3    H234152   6.723   3.388   0.420  0.6459 -1.6546 -1.7205
 4173TIP3   OH234153   1.185   6.380   8.100  0.0550 -0.1976  0.0836
 4173TIP3    H134154   1.250   6.344   8.039 -0.1765 -0.5326  0.0352
 4173TIP3    H234155   1.196   6.328   8.180  0.3065  0.1918  0.3088
 4174TIP3   OH234156   0.952   3.117   0.539  0.3499 -0.3483  0.5616
 4174TIP3    H134157   1.026   3.097   0.482  0.5081  1.9753 -0.1630
 4174TIP3    H234158   0.911   3.033   0.556  1.1646 -1.2979 -1.7975
 4175TIP3   OH234159   4.822   3.890   1.609  0.1021 -0.6484  0.1619
 4175TIP3    H134160   4.772   3.940   1.544 -0.1287 -0.3924  0.5269
 4175TIP3    H234161   4.790   3.800   1.600 -1.5613 -0.2359  1.4154
 4176TIP3   OH234162   1.235   2.730   2.024  1.2090  0.3149  0.2081
 4176TIP3    H134163   1.182   2.737   2.103  1.3991  0.9862  0.2874
 4176TIP3    H234164   1.219   2.812   1.978  0.2930 -0.5055 -0.9769
 4177TIP3   OH234165   2.546   4.019   2.523 -0.4443  0.6442  0.0760
 4177TIP3    H134166   2.534   4.030   2.428  1.4790 -2.0805 -0.5896
 4177TIP3    H234167   2.476   3.960   2.549 -0.4038  0.6389  0.1719
 4178TIP3   OH234168   1.305   2.406   1.492 -0.0879  0.1069 -0.1503
 4178TIP3    H134169   1.365   2.477   1.517  0.7260 -0.2303 -1.0846
 4178TIP3    H234170   1.301   2.351   1.570  0.7671  0.1790 -0.0409
 4179TIP3   OH234171   0.165   0.353   1.755 -0.6210  0.2989  0.9561
 4179TIP3    H134172   0.081   0.367   1.799 -0.4244  0.9586  1.1282
 4179TIP3    H234173   0.146   0.364   1.662 -1.3981 -2.7457  0.6414
 4180TIP3   OH234174   2.647   4.994   1.014  0.4544  0.0731  0.1751
 4180TIP3    H134175   2.679   4.904   1.003 -1.3321 -0.7305  1.0960
 4180TIP3    H234176   2.570   4.999   0.958  0.9616  1.2970 -0.4434
 4181TIP3   OH234177   6.623   2.525   8.689  0.1981 -0.3675  0.2805
 4181TIP3    H134178   6.704   2.498   8.733  0.0426 -0.1173  0.7319
 4181TIP3    H234179   6.570   2.445   8.687  0.7656 -0.7410 -0.7519
 4182TIP3   OH234180   1.800   4.112   0.450 -0.1793  0.2229  0.5216
 4182TIP3    H134181   1.705   4.105   0.459 -0.0174 -0.9472  1.6532
 4182TIP3    H234182   1.820   4.068   0.368 -0.5818  0.2843  0.3883
 4183TIP3   OH234183   2.907   6.553   7.678 -0.3524 -0.0715  0.3400
 4183TIP3    H134184   2.996   6.527   7.652 -0.2130 -0.3385  1.0589
 4183TIP3    H234185   2.919   6.635   7.725 -0.5675  0.2457 -0.1535
 4184TIP3   OH234186   2.924   2.048   8.038  0.2734  0.0214  0.1050
 4184TIP3    H134187   2.996   2.087   7.989 -0.1403  1.1457  0.3629
 4184TIP3    H234188   2.963   1.976   8.088  1.0919  0.2563 -0.1987
 4185TIP3   OH234189   0.330   6.519   1.568  0.6253 -0.6196 -0.0114
 4185TIP3    H134190   0.308   6.484   1.481 -0.5398  0.2688 -0.1065
 4185TIP3    H234191   0.307   6.449   1.629  1.5499 -1.2903 -0.4127
 4186TIP3   OH234192   1.888   1.124   8.827  0.6082 -0.0466 -0.0599
 4186TIP3    H134193   1.813   1.155   8.878  0.5002  0.4761 -0.5246
 4186TIP3    H234194   1.862   1.136   8.736  1.3116  0.2884 -0.2248
 4187TIP3   OH234195   3.067   5.581   8.398  0.3837 -0.0809 -0.4470
 4187TIP3    H134196   3.046   5.652   8.459 -3.0029 -0.4744 -0.9897
 4187TIP3    H234197   2.992   5.576   8.340  0.2432 -4.3618 -0.1953
 4188TIP3   OH234198   1.649   1.339   7.431  0.6057 -0.0711 -0.0285
 4188TIP3    H134199   1.681   1.249   7.431  0.9241 -0.0052 -1.9297
 4188TIP3    H234200   1.725   1.391   7.459  0.4444 -0.3857  0.9933
 4189TIP3   OH234201   5.512   0.753   6.921  0.1581 -0.2240 -0.2443
 4189TIP3    H134202   5.478   0.828   6.872  1.1481  0.7132  0.4427
 4189TIP3    H234203   5.593   0.785   6.961  0.1399 -1.3906  0.8018
 4190TIP3   OH234204   4.850   3.286   8.242 -0.2412 -0.1742 -0.3579
 4190TIP3    H134205   4.832   3.371   8.202  0.2748  0.0030 -0.2313
 4190TIP3    H234206   4.945   3.285   8.253 -0.1731 -1.0125 -0.8944
 4191TIP3   OH234207   4.444   1.161   0.771 -0.3856 -0.1163  0.2886
 4191TIP3    H134208   4.377   1.105   0.809  1.4927 -0.8001  2.9027
 4191TIP3    H234209   4.514   1.101   0.745 -0.1788  0.6861 -1.1219
 4192TIP3   OH234210   1.378   5.466   0.261 -0.0406 -0.4863 -0.1412
 4192TIP3    H134211   1.369   5.427   0.174 -0.7403 -0.4884 -0.0721
 4192TIP3    H234212   1.301   5.521   0.271 -1.4316 -2.5794  1.5389
 4193TIP3   OH234213   4.392   2.302   8.330 -0.2107 -0.0708 -0.2509
 4193TIP3    H134214   4.479   2.262   8.321 -0.7110 -1.7615  1.4934
 4193TIP3    H234215   4.351   2.291   8.245  0.8254 -0.4446 -0.7153
 4194TIP3   OH234216   5.260   5.303   8.052 -0.8626 -0.2483  0.2718
 4194TIP3    H134217   5.198   5.255   7.996 -1.8651  0.7424  0.5055
 4194TIP3    H234218   5.297   5.236   8.110 -1.2625 -0.9538 -0.2771
 4195TIP3   OH234219   4.920   3.029   2.448 -0.3130  0.3223  0.0823
 4195TIP3    H134220   4.861   3.100   2.422 -0.5164  0.3557  0.6381
 4195TIP3    H234221   4.878   2.988   2.524  1.1111  1.3247  1.4688
 4196TIP3   OH234222   4.273   2.239   1.694  0.5670  0.1252 -0.2509
 4196TIP3    H134223   4.291   2.309   1.630 -0.8658  0.4061 -0.3653
 4196TIP3    H234224   4.229   2.171   1.643  0.4130 -0.1296  0.2203
 4197TIP3   OH234225   4.249   3.244   8.242 -0.0943  0.1493 -0.3305
 4197TIP3    H134226   4.165   3.209   8.271  0.2431 -0.0553  0.4280
 4197TIP3    H234227   4.309   3.222   8.313  0.3113  1.5060 -0.2419
 4198TIP3   OH234228   2.333   4.479   8.162 -0.9566  0.4312 -0.1030
 4198TIP3    H134229   2.280   4.399   8.161  0.4518 -0.5806 -1.6912
 4198TIP3    H234230   2.296   4.534   8.093  0.6122 -0.7692 -2.0278
 4199TIP3   OH234231   5.869   3.334   1.628 -0.2953 -0.4227 -0.0517
 4199TIP3    H134232   5.875   3.371   1.716  0.6490 -0.4003 -0.1085
 4199TIP3    H234233   5.836   3.405   1.574  0.0751 -0.1197  0.1149
 4200TIP3   OH234234   5.997   4.116   6.962 -0.1237  0.0587 -0.4328
 4200TIP3    H134235   6.083   4.143   6.932  0.1719 -0.1955  0.1613
 4200TIP3    H234236   5.941   4.121   6.884 -0.2839  3.1044 -0.2469
 4201TIP3   OH234237   1.704   6.801   0.235  0.4435  0.1081 -0.0947
 4201TIP3    H134238   1.683   6.736   0.303  3.5043 -1.0622 -0.0872
 4201TIP3    H234239   1.677   6.885   0.272  0.1216 -0.7277  1.6721
 4202TIP3   OH234240   0.877   1.483   0.695 -0.2791 -0.2778  1.0701
 4202TIP3    H134241   0.788   1.452   0.678 -1.0459  1.8162  0.9354
 4202TIP3    H234242   0.885   1.482   0.790 -0.5108 -0.3396  1.0895
 4203TIP3   OH234243   1.745   3.998   1.514  0.1486  0.1213  0.0564
 4203TIP3    H134244   1.671   4.022   1.569 -0.0205  0.2588 -0.2262
 4203TIP3    H234245   1.788   3.927   1.561 -0.7787 -0.6855 -0.2804
 4204TIP3   OH234246   1.127   3.592   8.432 -0.0762  0.4800  0.1871
 4204TIP3    H134247   1.129   3.575   8.526  2.3314  1.9696  0.5055
 4204TIP3    H234248   1.196   3.535   8.397 -0.5014  0.4332 -0.5822
 4205TIP3   OH234249   1.005   1.550   8.378  0.2435 -0.4652 -0.0908
 4205TIP3    H134250   1.099   1.561   8.363  0.6059 -3.0204 -0.2463
 4205TIP3    H234251   0.993   1.455   8.382 -2.3865 -0.2094 -0.2835
 4206TIP3   OH234252   2.575   0.237   8.131 -0.3410  0.4679  0.2077
 4206TIP3    H134253   2.509   0.295   8.093  0.0766  0.8982  0.1299
 4206TIP3    H234254   2.646   0.236   8.067 -0.1852  0.1691  0.3838
 4207TIP3   OH234255   1.018   5.969   0.832  0.0328  0.4165  0.7932
 4207TIP3    H134256   0.979   5.963   0.745 -0.1967 -1.6988  0.9942
 4207TIP3    H234257   1.110   5.944   0.819 -0.3089 -1.2626  1.3048
 4208TIP3   OH234258   5.392   2.169   1.225 -0.4386 -0.3602  0.0961
 4208TIP3    H134259   5.344   2.108   1.281 -1.3735 -1.0561 -1.4131
 4208TIP3    H234260   5.383   2.253   1.269 -1.9318 -0.7230  0.5447
 4209TIP3   OH234261   0.144   4.308   0.768 -0.0042 -0.1816 -0.2659
 4209TIP3    H134262   0.068   4.354   0.732  0.3383 -1.2363 -2.5174
 4209TIP3    H234263   0.106   4.240   0.825 -0.6646  0.2379 -0.1898
 4210TIP3   OH234264   2.533   2.633   0.745  0.0015 -0.2762  0.1538
 4210TIP3    H134265   2.509   2.720   0.713 -0.8592 -0.5845 -0.0746
 4210TIP3    H234266   2.515   2.636   0.839 -0.2177 -0.2659  0.1122
 4211TIP3   OH234267   3.834   1.572   6.783  0.3637  0.0814 -0.2108
 4211TIP3    H134268   3.812   1.486   6.745  0.7555 -0.7349  1.3284
 4211TIP3    H234269   3.750   1.608   6.811  0.4818 -1.3584  2.2320
 4212TIP3   OH234270   3.805   3.053   0.456 -0.2651 -1.1296 -0.2424
 4212TIP3    H134271   3.777   3.133   0.412 -2.0250 -0.7493  1.4477
 4212TIP3    H234272   3.768   2.983   0.402  0.1147 -0.7887 -0.9682
 4213TIP3   OH234273   3.533   2.189   1.875 -0.1695 -0.3619  0.0875
 4213TIP3    H134274   3.512   2.186   1.968 -0.2784 -0.1238  0.0700
 4213TIP3    H234275   3.461   2.142   1.832  0.5386 -1.6367  0.2324
 4214TIP3   OH234276   3.097   2.096   0.001  0.3759 -0.2312 -0.1329
 4214TIP3    H134277   3.164   2.151   0.043 -0.1425  0.1396  0.2291
 4214TIP3    H234278   3.135   2.008  -0.001 -0.6983 -0.9819  3.9268
 4215TIP3   OH234279   4.731   0.869   7.311 -0.5192 -0.4777  0.0706
 4215TIP3    H134280   4.759   0.798   7.254 -2.1381 -1.2703  0.2064
 4215TIP3    H234281   4.721   0.944   7.253  2.1274 -0.0480  0.0769
 4216TIP3   OH234282   5.516   0.007   1.669  0.0383 -0.0411  0.2397
 4216TIP3    H134283   5.492   0.100   1.660  2.3525  1.0895  3.8324
 4216TIP3    H234284   5.435  -0.035   1.698 -0.4892  1.3373  0.8979
 4217TIP3   OH234285   2.307   2.189   0.546 -0.2112 -0.2981 -0.4643
 4217TIP3    H134286   2.350   2.258   0.596  2.6195 -0.7464 -2.0525
 4217TIP3    H234287   2.213   2.205   0.558  0.3293  1.4657  2.2922
 4218TIP3   OH234288   5.242   4.231   1.362  0.1654  0.3684  0.0596
 4218TIP3    H134289   5.328   4.272   1.370  0.2223  0.6498 -1.6169
 4218TIP3    H234290   5.185   4.301   1.331 -0.6572  0.1575  1.0500
 4219TIP3   OH234291   2.538   6.470   8.433 -0.5062 -0.0094 -0.2367
 4219TIP3    H134292   2.585   6.549   8.409 -0.6753  0.1338 -0.1012
 4219TIP3    H234293   2.455   6.475   8.386 -0.0282 -0.6985 -1.1818
 4220TIP3   OH234294   6.561   3.899   0.235  0.1446 -0.1797  0.2770
 4220TIP3    H134295   6.582   3.846   0.158  0.2089 -0.8660  0.7583
 4220TIP3    H234296   6.543   3.986   0.200  2.0525  0.0087 -0.3405
 4221TIP3   OH234297   4.481   3.624   1.527 -0.7195 -0.3029 -0.2391
 4221TIP3    H134298   4.401   3.594   1.568 -0.1437  0.9897  2.0086
 4221TIP3    H234299   4.473   3.720   1.526  0.1392 -0.2238 -1.3955
 4222TIP3   OH234300   4.660   0.098   2.690 -0.0361  0.0599 -0.7396
 4222TIP3    H134301   4.691   0.188   2.702 -2.2089  0.6096  1.3862
 4222TIP3    H234302   4.577   0.107   2.643 -0.1988 -0.8500 -0.6505
 4223TIP3   OH234303   2.876   5.035   1.427 -0.1600 -0.6889 -0.1566
 4223TIP3    H134304   2.872   4.950   1.469  1.2050  0.1141  1.7351
 4223TIP3    H234305   2.970   5.054   1.420 -0.4438  0.8062 -0.2297
 4224TIP3   OH234306   1.028   6.142   8.296 -0.0938  0.7052  0.1784
 4224TIP3    H134307   0.967   6.176   8.362  0.3329 -2.5507  2.4760
 4224TIP3    H234308   1.115   6.160   8.332  0.1409 -1.2374  0.7000
 4225TIP3   OH234309   0.505   3.273   2.870 -0.1566 -0.3336 -0.5865
 4225TIP3    H134310   0.486   3.353   2.822  0.1863  0.2012  0.1641
 4225TIP3    H234311   0.600   3.268   2.871 -0.1527 -0.1619  0.3286
 4226TIP3   OH234312   6.148   1.545   0.505  0.1135  0.4730 -0.9715
 4226TIP3    H134313   6.074   1.502   0.461  2.5765 -1.3458 -3.7864
 4226TIP3    H234314   6.178   1.480   0.568  0.4671  0.3755 -1.2368
 4227TIP3   OH234315   4.565   4.401   2.100  0.9179  0.4201 -1.0310
 4227TIP3    H134316   4.606   4.366   2.179  1.2967 -0.8279 -1.7454
 4227TIP3    H234317   4.595   4.343   2.030 -1.3320 -0.0049 -1.7188
 4228TIP3   OH234318   1.543   5.481   7.364 -0.4972  0.6932  0.1086
 4228TIP3    H134319   1.451   5.472   7.339 -0.8093  1.2489  0.9787
 4228TIP3    H234320   1.561   5.404   7.417 -0.3304  0.3667 -0.4185
 4229TIP3   OH234321   3.312   0.484   0.550  0.1345  0.2771  1.0369
 4229TIP3    H134322   3.229   0.441   0.532  0.1969  0.2835  0.7272
 4229TIP3    H234323   3.320   0.483   0.645 -0.8802  1.5351  1.1585
 4230TIP3   OH234324   1.859   5.883   8.531 -0.2498 -0.6333 -0.9228
 4230TIP3    H134325   1.871   5.797   8.491  0.4410 -0.3688 -1.2935
 4230TIP3    H234326   1.944   5.904   8.570 -0.1906  0.1984 -1.4656
 4231TIP3   OH234327   2.676   1.870   1.667 -0.5865 -0.0529  0.1374
 4231TIP3    H134328   2.737   1.905   1.603  0.4248 -1.3303  0.3662
 4231TIP3    H234329   2.600   1.843   1.616  0.0239 -0.6393 -0.4782
 4232TIP3   OH234330   1.663   1.616   8.145 -0.2419 -0.2711 -0.0719
 4232TIP3    H134331   1.737   1.648   8.093 -0.7592  0.7523 -0.2004
 4232TIP3    H234332   1.657   1.676   8.219 -1.1297 -0.1411 -0.2301
 4233TIP3   OH234333   4.807   4.363   7.264  0.6843  0.1141 -0.2234
 4233TIP3    H134334   4.770   4.281   7.232 -1.1494  1.0641 -0.7147
 4233TIP3    H234335   4.828   4.412   7.184  1.9157  0.0797  0.0638
 4234TIP3   OH234336   6.815   1.919   7.507 -0.0079  0.4931 -0.2675
 4234TIP3    H134337   6.740   1.922   7.448  0.7939 -0.1911 -1.3735
 4234TIP3    H234338   6.797   1.984   7.574 -1.0811  1.0891 -1.1217
 4235TIP3   OH234339   5.477   1.093   7.888  0.0280  0.1594 -0.5052
 4235TIP3    H134340   5.504   1.185   7.899  0.7388 -0.2723  2.2099
 4235TIP3    H234341   5.554   1.049   7.854  1.4498 -0.1932  2.7500
 4236TIP3   OH234342   4.070   2.782   8.159  0.3526  0.2009  0.3275
 4236TIP3    H134343   4.012   2.718   8.200 -0.6881  0.0066 -1.3327
 4236TIP3    H234344   4.155   2.739   8.157  0.3914  0.1505  2.0568
 4237TIP3   OH234345   5.146   3.617   0.570 -0.4526 -0.0351 -0.3571
 4237TIP3    H134346   5.134   3.635   0.663  0.0259 -0.4307 -0.2134
 4237TIP3    H234347   5.241   3.616   0.558 -0.4822 -1.2680 -0.5898
 4238TIP3   OH234348   5.763   4.133   1.414  0.0251  0.4225 -0.2859
 4238TIP3    H134349   5.779   4.227   1.407  2.5774  0.0640 -0.5113
 4238TIP3    H234350   5.733   4.107   1.327 -0.1770  0.9380 -0.3740
 4239TIP3   OH234351   1.613   4.645   8.684 -0.1667 -0.0908  0.2422
 4239TIP3    H134352   1.624   4.610   8.596  0.6364 -0.7616  0.5922
 4239TIP3    H234353   1.590   4.737   8.671  0.0645 -0.1533 -0.6594
 4240TIP3   OH234354   6.349   6.444   7.296 -0.2798 -0.2539  1.1872
 4240TIP3    H134355   6.283   6.409   7.356 -0.3377 -3.1128 -0.3512
 4240TIP3    H234356   6.432   6.412   7.330 -0.3401 -2.2218 -0.2762
 4241TIP3   OH234357   0.454   3.514   2.728 -0.2446 -0.4455  0.3859
 4241TIP3    H134358   0.535   3.565   2.729 -0.6351  0.2062  2.2999
 4241TIP3    H234359   0.394   3.564   2.673  0.3996 -0.5194 -0.3886
 4242TIP3   OH234360   5.607   0.463   2.783 -0.1984 -0.1816  0.4881
 4242TIP3    H134361   5.702   0.468   2.772 -0.1993  1.0044  0.8471
 4242TIP3    H234362   5.593   0.392   2.846  0.7639  2.1969  3.5948
 4243TIP3   OH234363   3.977   2.538   7.130  0.0954  0.0198 -0.4574
 4243TIP3    H134364   4.037   2.478   7.174 -2.1550 -0.3378  2.4717
 4243TIP3    H234365   4.032   2.611   7.102  2.3217 -1.6818 -0.8388
 4244TIP3   OH234366   0.934   2.359   7.663  0.3695  0.3442 -0.1994
 4244TIP3    H134367   0.978   2.294   7.718 -0.3141  1.8393  2.2948
 4244TIP3    H234368   0.997   2.430   7.655  0.1510  0.4873 -0.6706
 4245TIP3   OH234369   5.386   0.950   6.788  0.1575 -0.3919 -0.6347
 4245TIP3    H134370   5.309   0.895   6.772 -0.3008  0.2801 -0.7481
 4245TIP3    H234371   5.353   1.024   6.839  1.0496 -0.9824  0.8758
 4246TIP3   OH234372   0.934   2.957   6.468 -0.1575 -0.2497  0.1189
 4246TIP3    H134373   0.867   2.943   6.534  2.8243 -0.3681  3.4128
 4246TIP3    H234374   0.999   2.889   6.484  0.0091 -1.4533 -4.2425
 4247TIP3   OH234375   4.945   6.791   1.730 -0.4892  0.0026  0.0677
 4247TIP3    H134376   5.034   6.825   1.737 -0.7839  0.9746 -0.7386
 4247TIP3    H234377   4.900   6.828   1.806 -0.1572 -0.6937  0.6178
 4248TIP3   OH234378   0.281   1.341   1.960  0.3278  0.4594  0.0352
 4248TIP3    H134379   0.223   1.416   1.971  0.6207  1.1294 -2.4852
 4248TIP3    H234380   0.236   1.285   1.897  0.6000 -1.0342  1.1012
 4249TIP3   OH234381   2.988   2.142   7.060  0.0290  0.2096 -0.1532
 4249TIP3    H134382   3.014   2.072   7.000 -0.3613 -1.6572  1.7164
 4249TIP3    H234383   2.902   2.171   7.028 -1.1199 -2.1525  0.5463
 4250TIP3   OH234384   5.714   3.031   2.106  0.9121 -0.1751  1.0149
 4250TIP3    H134385   5.745   2.982   2.030  1.5700 -0.7732  1.6528
 4250TIP3    H234386   5.718   3.123   2.078 -0.0763 -0.4454 -0.0967
 4251TIP3   OH234387   5.100   5.937   0.743  0.4974 -0.3935 -0.3016
 4251TIP3    H134388   5.057   6.011   0.699 -0.9818 -1.4241 -0.6943
 4251TIP3    H234389   5.193   5.952   0.730  0.1913  0.8586 -1.2697
 4252TIP3   OH234390   2.682   0.301   7.222 -0.6397  0.4442  0.0755
 4252TIP3    H134391   2.772   0.270   7.234 -0.2268  1.2248 -0.9024
 4252TIP3    H234392   2.685   0.352   7.141 -1.7864  1.1713  0.4734
 4253TIP3   OH234393   3.290   0.056   7.631  0.7101  0.4570  0.2576
 4253TIP3    H134394   3.198   0.067   7.607  1.0678 -0.9272 -2.1122
 4253TIP3    H234395   3.296  -0.034   7.662  1.1680  0.7439  1.0174
 4254TIP3   OH234396   2.554   0.570   2.292 -0.4139 -0.2591 -0.3233
 4254TIP3    H134397   2.481   0.570   2.354  0.7674 -1.4300  1.1363
 4254TIP3    H234398   2.565   0.478   2.267 -0.3023  0.0803 -1.6322
 4255TIP3   OH234399   5.644   3.240   8.590 -0.2873  0.0658 -0.1480
 4255TIP3    H134400   5.608   3.312   8.640 -0.6111  0.4828 -0.9563
 4255TIP3    H234401   5.582   3.168   8.603  0.9869 -0.7239  2.1861
 4256TIP3   OH234402   3.024   5.124   7.260  0.6495  0.1194  0.3523
 4256TIP3    H134403   2.951   5.082   7.214 -0.6183  2.2901  0.2555
 4256TIP3    H234404   2.998   5.123   7.352  1.7626 -1.4413  0.6896
 4257TIP3   OH234405   3.878   3.255   8.794  0.4857 -0.1426  0.0698
 4257TIP3    H134406   3.829   3.338   8.797  1.1914  0.5138 -2.9749
 4257TIP3    H234407   3.924   3.251   8.877 -2.2568  0.7422  1.7724
 4258TIP3   OH234408   3.673   1.212   8.349 -0.1903  0.0661 -0.0908
 4258TIP3    H134409   3.656   1.277   8.280  0.5287 -0.3704 -0.6989
 4258TIP3    H234410   3.607   1.144   8.336 -1.2934  0.9103  0.8867
 4259TIP3   OH234411   0.748   1.813   7.119  0.3304  0.5776 -0.1769
 4259TIP3    H134412   0.666   1.803   7.070 -0.5431 -0.5750  1.3675
 4259TIP3    H234413   0.809   1.754   7.076 -0.3929 -0.3530  0.0216
 4260TIP3   OH234414   6.672   5.409   1.615 -0.0032  0.1654 -0.0037
 4260TIP3    H134415   6.750   5.370   1.576 -0.2156 -0.1274 -0.1479
 4260TIP3    H234416   6.666   5.369   1.701  0.7016  1.1293  0.5021
 4261TIP3   OH234417   6.323   3.065   7.506 -0.0414 -0.5254  0.3155
 4261TIP3    H134418   6.246   3.103   7.549  0.9647 -0.3938  2.1108
 4261TIP3    H234419   6.345   2.988   7.559  0.6419 -0.9994 -0.6092
 4262TIP3   OH234420   0.584   5.843   0.506 -0.7117 -0.2315  0.7332
 4262TIP3    H134421   0.501   5.831   0.552 -1.7559  2.0276 -0.4283
 4262TIP3    H234422   0.596   5.761   0.458 -2.5676 -0.3967  0.4791
 4263TIP3   OH234423   4.204   1.221   7.972  0.2498  0.0718 -0.2406
 4263TIP3    H134424   4.253   1.177   8.041 -0.3554  0.6326  0.5742
 4263TIP3    H234425   4.121   1.174   7.967 -0.9335  1.7900  1.5251
 4264TIP3   OH234426   1.296   0.457   6.838  0.1951 -0.3576  0.0237
 4264TIP3    H134427   1.209   0.424   6.862  1.7420 -2.8888  2.8222
 4264TIP3    H234428   1.350   0.378   6.833  2.8255  1.3040  0.5786
 4265TIP3   OH234429   1.668   2.124   1.276 -0.2320 -0.3204  0.0570
 4265TIP3    H134430   1.745   2.072   1.297  0.6012  0.7978 -0.0868
 4265TIP3    H234431   1.704   2.206   1.242 -1.4521  0.8765  1.5177
 4266TIP3   OH234432   1.656   3.582   0.995  0.3245 -0.1998 -0.5401
 4266TIP3    H134433   1.638   3.654   1.056 -2.2184 -1.7374  0.7043
 4266TIP3    H234434   1.640   3.620   0.909 -1.3673  0.6880  0.1105
 4267TIP3   OH234435   0.008   0.543   0.275 -0.8696  0.1355 -0.0125
 4267TIP3    H134436   0.092   0.573   0.310 -1.1056  0.3263  0.4025
 4267TIP3    H234437   0.019   0.449   0.262 -0.8681  0.0062  0.8549
 4268TIP3   OH234438   4.489   4.990   8.215 -0.1607 -0.0346  0.4394
 4268TIP3    H134439   4.458   4.995   8.305  0.9068  0.1730  0.8102
 4268TIP3    H234440   4.452   4.908   8.182 -0.0470 -0.4368  1.2754
 4269TIP3   OH234441   3.006   6.543   0.526  0.0415 -0.1333 -0.2141
 4269TIP3    H134442   2.945   6.605   0.487 -2.3778 -1.0535  1.7664
 4269TIP3    H234443   3.044   6.590   0.601  1.8020  0.4128 -1.4010
 4270TIP3   OH234444   5.025   5.844   7.896  0.3732 -0.3192 -0.0370
 4270TIP3    H134445   5.075   5.824   7.817 -0.4447 -2.7453 -0.0519
 4270TIP3    H234446   4.941   5.877   7.864  0.6629  0.3636 -0.1087
 4271TIP3   OH234447   1.075   3.672   7.356  0.6293  0.5041  0.1714
 4271TIP3    H134448   1.102   3.726   7.281  2.5074 -3.0019 -1.9594
 4271TIP3    H234449   1.080   3.582   7.323 -3.1573 -1.0897  3.1630
 4272TIP3   OH234450   0.003   3.623   2.371  0.6932  0.5870 -0.4687
 4272TIP3    H134451   0.012   3.668   2.455 -0.4242  0.4001 -0.2280
 4272TIP3    H234452  -0.089   3.637   2.347  0.8972  0.2889 -1.4595
 4273TIP3   OH234453   6.068   2.069   8.005  0.2717 -0.4365 -0.0924
 4273TIP3    H134454   6.161   2.091   8.002  0.1988 -0.2043 -0.6978
 4273TIP3    H234455   6.065   1.975   7.989  0.3574 -0.3355 -0.6988
 4274TIP3   OH234456   6.721   2.657   0.212 -0.6009  0.4923 -0.5442
 4274TIP3    H134457   6.637   2.635   0.252 -0.6006 -1.5956 -1.5088
 4274TIP3    H234458   6.785   2.602   0.259  0.5081  3.0103  1.0782
 4275TIP3   OH234459   1.865   3.335   1.906  0.3725  0.2097  0.0028
 4275TIP3    H134460   1.799   3.274   1.940  1.5991 -0.0146  2.1533
 4275TIP3    H234461   1.815   3.414   1.883 -1.0317 -1.0249 -1.4499
 4276TIP3   OH234462   2.738   5.595   1.111 -0.0265 -0.1948  0.3864
 4276TIP3    H134463   2.795   5.613   1.036  0.4440 -0.1086  0.7617
 4276TIP3    H234464   2.719   5.502   1.105 -1.4829  0.1410 -0.8766
 4277TIP3   OH234465   2.090   2.929   1.516  0.1069  0.5735  0.0367
 4277TIP3    H134466   2.069   2.851   1.567 -1.7608  0.3352 -0.9889
 4277TIP3    H234467   2.157   2.974   1.566 -1.8529  0.5558  2.8881
 4278TIP3   OH234468   5.743   1.626   1.034 -0.0499  0.2031 -0.2179
 4278TIP3    H134469   5.806   1.618   0.962 -0.3190 -2.1471 -0.3015
 4278TIP3    H234470   5.681   1.692   1.004 -0.7651 -1.4310 -2.7066
 4279TIP3   OH234471   6.781   2.009   1.654 -0.2487  0.8262 -0.3349
 4279TIP3    H134472   6.755   1.972   1.569  0.6542  1.6465 -0.9921
 4279TIP3    H234473   6.720   1.970   1.717 -0.0716 -0.8591 -1.1483
 4280TIP3   OH234474   0.556   1.532   0.070 -0.3102  0.3254 -0.2940
 4280TIP3    H134475   0.498   1.457   0.059 -2.2765  1.7225  0.0919
 4280TIP3    H234476   0.616   1.506   0.141 -2.7821  0.1226  1.8706
 4281TIP3   OH234477   6.727   5.458   7.687  0.5465 -0.3786  0.1798
 4281TIP3    H134478   6.743   5.384   7.629 -0.1288 -0.5623  0.2190
 4281TIP3    H234479   6.634   5.450   7.711  0.6256  0.1286  0.6710
 4282TIP3   OH234480   1.695   5.324   1.957  0.1616  0.0490 -0.0238
 4282TIP3    H134481   1.731   5.239   1.981 -0.5903 -0.3523 -0.2838
 4282TIP3    H234482   1.730   5.384   2.023  0.2544 -0.5599  0.4885
 4283TIP3   OH234483   5.105   5.959   1.034  0.5487  0.3224 -0.1365
 4283TIP3    H134484   5.047   6.033   1.052  1.1655  0.5563  1.0216
 4283TIP3    H234485   5.102   5.948   0.939 -2.7305 -0.8019 -0.0393
 4284TIP3   OH234486   3.053   6.828   8.720  0.2053  0.1261 -0.5983
 4284TIP3    H134487   3.138   6.811   8.680 -0.8279 -1.3808 -2.2765
 4284TIP3    H234488   3.020   6.742   8.745 -0.5867  0.7483  0.6069
 4285TIP3   OH234489   3.482   1.010   0.439  0.1359  0.1290 -0.3743
 4285TIP3    H134490   3.535   1.070   0.388  0.9064 -0.4979 -0.3287
 4285TIP3    H234491   3.425   0.967   0.375 -1.8449  2.2663 -0.1925
 4286TIP3   OH234492   2.008   0.383   8.526 -0.5210 -0.3094 -0.0015
 4286TIP3    H134493   2.040   0.467   8.493 -1.0278  0.1377  0.6199
 4286TIP3    H234494   2.064   0.317   8.484  0.0103  0.3481 -0.3329
 4287TIP3   OH234495   1.884   0.315   7.394  0.2386 -0.0796  0.1393
 4287TIP3    H134496   1.882   0.288   7.302  2.5440 -1.6559  0.4390
 4287TIP3    H234497   1.793   0.311   7.423 -0.3657 -0.8928 -1.7256
 4288TIP3   OH234498   3.256   6.815   1.468  0.1630 -0.4172 -0.1329
 4288TIP3    H134499   3.283   6.841   1.380  1.6351 -0.2578  0.3363
 4288TIP3    H234500   3.318   6.746   1.492  0.4188  0.2442  1.1604
 4289TIP3   OH234501   2.228   2.341   0.991 -0.3291  0.8030  0.0152
 4289TIP3    H134502   2.152   2.296   0.954  0.6824 -1.0545  0.1213
 4289TIP3    H234503   2.226   2.318   1.084 -0.8762  2.6131  0.4979
 4290TIP3   OH234504   4.817   4.663   7.515  0.0287  0.4042 -0.4256
 4290TIP3    H134505   4.794   4.666   7.608 -0.5148 -1.5866 -0.4504
 4290TIP3    H234506   4.910   4.642   7.515  0.2174  1.1983 -0.3502
 4291TIP3   OH234507   2.198   3.910   0.658  0.7289  0.2596  0.9960
 4291TIP3    H134508   2.156   3.958   0.587 -0.1014 -1.5662  0.1724
 4291TIP3    H234509   2.257   3.973   0.700  0.5864  1.6093 -0.7635
 4292TIP3   OH234510   0.575   3.545   7.946 -0.0018  0.1090  0.1675
 4292TIP3    H134511   0.507   3.536   7.880 -1.0572  2.9391  0.7373
 4292TIP3    H234512   0.543   3.493   8.020 -0.8945  0.2978 -0.0726
 4293TIP3   OH234513   0.728   6.488   7.193  0.4872  0.2363 -0.2551
 4293TIP3    H134514   0.646   6.532   7.169  0.4544 -0.0872 -0.7685
 4293TIP3    H234515   0.776   6.481   7.111  2.0412  2.4085  0.3796
 4294TIP3   OH234516   0.002   4.397   2.828 -0.4063  0.2651  0.2791
 4294TIP3    H134517  -0.084   4.404   2.868 -0.9787 -0.9717 -0.6414
 4294TIP3    H234518   0.010   4.475   2.773 -0.7220  0.6320  0.7453
 4295TIP3   OH234519   1.856   4.252   8.369  0.1028  0.1792  0.4022
 4295TIP3    H134520   1.883   4.161   8.359 -0.0210  0.2768 -0.9894
 4295TIP3    H234521   1.868   4.271   8.462 -0.1298 -1.3313  0.7523
 4296TIP3   OH234522   6.650   2.023   0.649  0.1464 -0.3123 -0.0740
 4296TIP3    H134523   6.676   2.113   0.633  0.8504 -0.5738 -0.4144
 4296TIP3    H234524   6.563   2.015   0.609  0.0064  0.2533  0.1080
 4297TIP3   OH234525   4.096   0.714   8.181 -0.0340 -0.2351  0.2517
 4297TIP3    H134526   4.175   0.751   8.141  0.1347  0.0190  0.8107
 4297TIP3    H234527   4.035   0.702   8.108 -0.0655  1.0832  0.0395
 4298TIP3   OH234528   1.899   3.803   1.656 -0.7989  0.3826  0.4019
 4298TIP3    H134529   1.939   3.813   1.742 -0.1606  0.6300  0.0831
 4298TIP3    H234530   1.900   3.708   1.640 -0.6985  0.3562  0.5634
 4299TIP3   OH234531   1.843   2.633   8.266 -0.6785  0.3911 -0.6529
 4299TIP3    H134532   1.900   2.709   8.279 -0.8090  0.4178 -0.2117
 4299TIP3    H234533   1.893   2.574   8.209  0.9922 -0.8436  1.8978
 4300TIP3   OH234534   5.850   3.790   0.512  0.0873 -0.4607 -0.1071
 4300TIP3    H134535   5.838   3.882   0.537 -0.4438 -0.3556 -0.7162
 4300TIP3    H234536   5.859   3.743   0.595 -0.5880  0.0114  0.2421
 4301TIP3   OH234537   0.142   4.859   1.467  0.1133 -0.4624 -0.3221
 4301TIP3    H134538   0.104   4.931   1.417  1.5830  0.5960  0.0372
 4301TIP3    H234539   0.236   4.865   1.452  0.4381 -1.1770  1.1718
 4302TIP3   OH234540   5.202   1.156   0.294  0.2672 -0.0400 -0.1231
 4302TIP3    H134541   5.107   1.155   0.281  0.3651 -2.1964 -1.1904
 4302TIP3    H234542   5.238   1.166   0.206  0.9966 -1.7055 -0.0480
 4303TIP3   OH234543   3.391   4.355   8.552 -0.2108 -0.0610 -0.0243
 4303TIP3    H134544   3.467   4.339   8.609 -1.7521 -0.5211  2.0150
 4303TIP3    H234545   3.420   4.327   8.465  1.3638 -1.9935  1.0329
 4304TIP3   OH234546   0.960   6.687   1.979  0.0481 -1.0731 -0.0984
 4304TIP3    H134547   1.029   6.738   1.937  0.1094 -0.5142  0.6500
 4304TIP3    H234548   0.892   6.751   1.999  0.7063 -0.9803  2.0980
 4305TIP3   OH234549   3.068   2.409   7.766 -0.5281  0.6966 -0.2450
 4305TIP3    H134550   3.067   2.410   7.670  3.3718  0.1572 -0.4341
 4305TIP3    H234551   3.143   2.355   7.789 -1.0558  1.1809  3.1637
 4306TIP3   OH234552   5.441   4.494   2.626 -0.4129  0.6528  0.4574
 4306TIP3    H134553   5.363   4.494   2.572  0.0203  0.3293 -0.1764
 4306TIP3    H234554   5.502   4.551   2.580  0.3053 -0.3931  0.0835
 4307TIP3   OH234555   5.966   5.696   1.476 -0.2807 -0.3902  0.0955
 4307TIP3    H134556   5.998   5.611   1.509 -0.3656 -0.8886 -1.0493
 4307TIP3    H234557   5.980   5.756   1.549 -0.0382 -1.3456  0.8725
 4308TIP3   OH234558   5.183   2.392   2.238  0.6595 -0.5872  0.3133
 4308TIP3    H134559   5.190   2.487   2.229  0.1120 -0.4872  0.8630
 4308TIP3    H234560   5.132   2.364   2.163  0.3058 -0.3684  0.4706
 4309TIP3   OH234561   4.400   0.247   7.964 -0.5260  0.1232 -0.2686
 4309TIP3    H134562   4.407   0.206   7.878  0.2084  3.3760 -1.9249
 4309TIP3    H234563   4.491   0.255   7.994 -0.4311  2.2271 -0.9520
 4310TIP3   OH234564   3.740   5.399   8.377 -0.2068 -0.1786 -0.1868
 4310TIP3    H134565   3.800   5.324   8.378 -0.5985 -0.5560 -1.7544
 4310TIP3    H234566   3.796   5.474   8.354  0.1540  0.0158  1.2193
 4311TIP3   OH234567   1.072   5.262   0.784 -0.1096  0.7134 -0.1571
 4311TIP3    H134568   1.113   5.198   0.842  0.3874  0.3867 -0.8463
 4311TIP3    H234569   0.979   5.258   0.805  0.1686  1.2655  1.2392
 4312TIP3   OH234570   3.661   1.879   1.784  0.5364 -0.0938  0.0933
 4312TIP3    H134571   3.636   1.894   1.875 -0.4388  0.1331 -0.2050
 4312TIP3    H234572   3.704   1.961   1.758 -1.1939  0.7438 -0.3088
 4313TIP3   OH234573   0.866   1.082   7.201  0.4286 -0.3208 -0.4814
 4313TIP3    H134574   0.782   1.100   7.243  1.1206  1.4500  0.2979
 4313TIP3    H234575   0.878   1.154   7.139  1.4596 -0.3966 -0.3955
 4314TIP3   OH234576   5.154   2.501   8.036 -0.1244 -0.1715 -0.0862
 4314TIP3    H134577   5.205   2.572   7.997  0.1018 -0.9994 -1.3565
 4314TIP3    H234578   5.180   2.502   8.128  0.3960  0.9412 -0.2210
 4315TIP3   OH234579   5.539   5.549   2.208  0.1981  0.5847 -0.0249
 4315TIP3    H134580   5.564   5.459   2.229  1.3239  0.4646 -1.6983
 4315TIP3    H234581   5.443   5.547   2.207  0.2058 -0.7530 -0.5854
 4316TIP3   OH234582   4.558   2.257   7.403  0.5624  0.1039  0.1676
 4316TIP3    H134583   4.554   2.337   7.351  0.6228 -0.8786 -1.4187
 4316TIP3    H234584   4.501   2.275   7.479  1.1554  1.8790  0.2380
 4317TIP3   OH234585   4.705   3.966   0.580  0.0801 -0.2489 -0.1846
 4317TIP3    H134586   4.768   3.941   0.647  2.4063  2.7815 -0.9994
 4317TIP3    H234587   4.721   3.905   0.508 -0.7038 -1.9482  1.0456
 4318TIP3   OH234588   5.774   2.819   1.319 -0.0109  0.1943  0.4265
 4318TIP3    H134589   5.768   2.834   1.225 -0.4878  0.8539  0.5607
 4318TIP3    H234590   5.723   2.739   1.334  0.0873  0.0727  0.1264
 4319TIP3   OH234591   3.368   2.565   0.698  0.8334  0.3061  0.1244
 4319TIP3    H134592   3.438   2.512   0.660  0.1114  0.5058 -1.5624
 4319TIP3    H234593   3.409   2.607   0.774  2.8604  1.1590 -1.3438
 4320TIP3   OH234594   1.450   6.713   7.702 -0.3005  0.0194  0.1935
 4320TIP3    H134595   1.514   6.784   7.703  0.8298 -0.9407 -0.6437
 4320TIP3    H234596   1.372   6.752   7.663 -0.0086  1.0321  0.5879
 4321TIP3   OH234597   3.331   4.751   1.756  0.1511  0.0796  0.7299
 4321TIP3    H134598   3.299   4.801   1.832  1.6898  2.3415  0.0228
 4321TIP3    H234599   3.258   4.694   1.732 -1.9588  2.2894  1.4097
 4322TIP3   OH234600   6.550   5.182   7.619 -0.1132 -0.0387 -0.1575
 4322TIP3    H134601   6.645   5.193   7.626 -0.2550  0.9597  0.4757
 4322TIP3    H234602   6.529   5.115   7.684  0.3241 -1.3884 -1.3703
 4323TIP3   OH234603   4.877   5.316   0.717  1.0470  0.3154  0.4597
 4323TIP3    H134604   4.873   5.409   0.741  1.3015  0.2449  0.7652
 4323TIP3    H234605   4.970   5.295   0.715  1.0647  0.3851 -0.8424
 4324TIP3   OH234606   2.921   3.716   0.367  0.0602 -0.1263  0.3300
 4324TIP3    H134607   2.825   3.718   0.363 -0.0771 -0.0529  2.7247
 4324TIP3    H234608   2.943   3.623   0.365 -0.1563 -0.2020  1.1913
 4325TIP3   OH234609   1.623   1.917   1.894 -0.4040  0.0522  0.1611
 4325TIP3    H134610   1.699   1.930   1.951 -0.3883 -0.9198  0.3964
 4325TIP3    H234611   1.551   1.899   1.955 -0.6483  0.1986 -0.0854
 4326TIP3   OH234612   0.880   5.385   1.872 -0.2484 -0.3835 -0.5229
 4326TIP3    H134613   0.842   5.308   1.914  0.6444 -0.0767  0.8773
 4326TIP3    H234614   0.881   5.452   1.940  2.5603 -0.3022 -0.5481
 4327TIP3   OH234615   3.746   1.814   0.438 -0.3619  0.2626 -0.4683
 4327TIP3    H134616   3.809   1.821   0.367  0.5070 -2.6292 -0.1141
 4327TIP3    H234617   3.668   1.777   0.397 -1.0949  1.7197 -0.4729
 4328TIP3   OH234618   2.717   5.980   2.513 -0.2216  0.4399  0.1806
 4328TIP3    H134619   2.624   5.966   2.532 -0.1117  0.7853  1.0022
 4328TIP3    H234620   2.752   5.893   2.500 -0.2482  0.1536  1.8700
 4329TIP3   OH234621   2.363   5.978   8.454  0.3863  0.1099  0.2637
 4329TIP3    H134622   2.400   5.954   8.539 -0.5434 -0.7380  0.4440
 4329TIP3    H234623   2.421   5.938   8.390 -1.2619 -3.0008  0.5544
 4330TIP3   OH234624   2.688   3.678   2.173 -0.2419  0.3262 -0.2907
 4330TIP3    H134625   2.750   3.621   2.219 -0.2538 -0.9319 -1.7202
 4330TIP3    H234626   2.705   3.765   2.207  2.7437  0.1377 -1.0063
 4331TIP3   OH234627   4.938   2.605   2.561  0.0717  0.6961  0.0113
 4331TIP3    H134628   4.987   2.659   2.499 -2.0090  1.1189 -1.3661
 4331TIP3    H234629   4.850   2.599   2.523 -0.6547 -0.9459  1.8014
 4332TIP3   OH234630   1.426   6.185   1.005 -0.3448  0.6773  0.3272
 4332TIP3    H134631   1.481   6.189   1.084  2.9797 -0.1410 -1.7644
 4332TIP3    H234632   1.432   6.273   0.967  0.2858  0.3318 -0.3809
 4333TIP3   OH234633   0.050   5.273   0.265 -0.1797 -0.2181  0.7710
 4333TIP3    H134634   0.125   5.226   0.301  1.4099 -0.1043 -2.1489
 4333TIP3    H234635   0.081   5.363   0.254 -0.9373 -0.0300  0.1020
 4334TIP3   OH234636   3.412   0.505   8.815 -0.2498 -0.1911  0.2868
 4334TIP3    H134637   3.453   0.531   8.898  0.6311 -0.0182 -0.1838
 4334TIP3    H234638   3.321   0.487   8.837 -0.3078  0.9638  1.0788
 4335TIP3   OH234639   5.122   2.115   8.832  0.2502 -0.0929 -0.3206
 4335TIP3    H134640   5.091   2.034   8.790  0.4258  0.2178 -1.0569
 4335TIP3    H234641   5.045   2.172   8.834 -0.1973 -0.6962  1.2912
 4336TIP3   OH234642   6.746   4.613   1.714  0.3615  0.1411 -0.5218
 4336TIP3    H134643   6.691   4.597   1.791 -0.4367  0.5493 -0.9989
 4336TIP3    H234644   6.718   4.548   1.651 -0.9533  1.5784 -1.4713
 4337TIP3   OH234645   6.680   1.826   2.177  0.3290 -0.3881  0.1280
 4337TIP3    H134646   6.692   1.809   2.084  0.7929  0.6837 -0.0198
 4337TIP3    H234647   6.768   1.822   2.214  0.0138 -2.1644  0.7873
 4338TIP3   OH234648   1.765   4.449   1.280  0.7868  0.0857  0.0586
 4338TIP3    H134649   1.842   4.403   1.313  1.4269  1.1636  0.0997
 4338TIP3    H234650   1.776   4.449   1.185  0.6868 -0.0290  0.0477
 4339TIP3   OH234651   5.624   1.524   0.486 -0.2968  0.6030  0.1714
 4339TIP3    H134652   5.564   1.449   0.485 -0.1193  0.4442  0.6999
 4339TIP3    H234653   5.708   1.487   0.515  0.0610  0.8196 -0.5752
 4340TIP3   OH234654   6.250   0.075   8.541 -0.0713  0.0097 -0.3558
 4340TIP3    H134655   6.299  -0.006   8.555 -0.4688 -0.1666  0.0191
 4340TIP3    H234656   6.293   0.116   8.466  0.1196 -0.5583 -0.5614
 4341TIP3   OH234657   6.762   0.944   0.041 -0.3778 -0.4404 -0.5440
 4341TIP3    H134658   6.781   0.892  -0.036  2.2859 -1.1651  0.4966
 4341TIP3    H234659   6.846   0.951   0.087 -1.2483  2.3620  0.8491
 4342TIP3   OH234660   3.347   2.502   8.122  0.0913  0.0388 -0.2683
 4342TIP3    H134661   3.395   2.570   8.169 -1.4282  0.2467  1.0883
 4342TIP3    H234662   3.302   2.548   8.051 -0.4516  0.3683  0.2799
 4343TIP3   OH234663   1.510   2.528   0.602 -0.0572  0.3446 -0.0635
 4343TIP3    H134664   1.587   2.482   0.568 -0.7219 -1.7655  1.1570
 4343TIP3    H234665   1.547   2.599   0.655  1.0146  0.1354 -0.5026
 4344TIP3   OH234666   5.796   3.003   0.500  0.3592  0.1954 -0.4865
 4344TIP3    H134667   5.822   2.998   0.408 -0.4129 -2.4657 -0.6358
 4344TIP3    H234668   5.863   2.953   0.547  0.5280  1.1944  0.3696
 4345TIP3   OH234669   0.017   3.132   6.972  0.5286  0.1392 -0.0367
 4345TIP3    H134670   0.013   3.206   6.912  2.0279  0.6403  0.4370
 4345TIP3    H234671   0.079   3.071   6.932 -1.0622 -1.1374 -0.6709
 4346TIP3   OH234672   4.381   3.886   1.423 -0.0456  0.2283 -0.3330
 4346TIP3    H134673   4.338   3.865   1.340 -0.7537  1.1328 -0.2140
 4346TIP3    H234674   4.397   3.980   1.418  0.0029  0.2690  0.5147
 4347TIP3   OH234675   5.519   6.084   1.766  0.3728  0.0718 -0.3603
 4347TIP3    H134676   5.568   6.002   1.777 -0.3391 -0.2085  0.7739
 4347TIP3    H234677   5.459   6.066   1.693  1.3102  0.1276 -1.1745
 4348TIP3   OH234678   1.970   3.065   0.420  0.3084  0.3841  0.4627
 4348TIP3    H134679   1.929   3.082   0.336 -0.3963 -1.6411  0.3425
 4348TIP3    H234680   2.024   2.987   0.406  1.3515  0.8587  1.5444
 4349TIP3   OH234681   5.823   0.075   0.603  0.4511 -0.1322 -0.6563
 4349TIP3    H134682   5.844   0.009   0.669  1.2011  0.7068 -0.0415
 4349TIP3    H234683   5.730   0.094   0.618  0.4649 -0.3832 -0.2222
 4350TIP3   OH234684   3.351   1.666   0.242 -0.2566 -0.2067  0.5136
 4350TIP3    H134685   3.321   1.748   0.281  1.5264  1.7826 -1.9869
 4350TIP3    H234686   3.305   1.661   0.158  0.7105 -1.0511  0.0202
 4351TIP3   OH234687   0.937   4.583   1.585 -0.2675  0.4815  0.4314
 4351TIP3    H134688   0.861   4.577   1.527 -1.1762  0.9304  1.5536
 4351TIP3    H234689   1.012   4.584   1.525 -1.0109 -1.7377 -0.6200
 4352TIP3   OH234690   5.150   0.365   1.472  0.2349 -0.6587 -0.3741
 4352TIP3    H134691   5.076   0.317   1.510  0.3994 -0.5742  0.0507
 4352TIP3    H234692   5.180   0.310   1.399 -1.7909  0.4128 -2.1465
 4353TIP3   OH234693   5.672   2.853   1.043  0.4378 -0.2242  0.1265
 4353TIP3    H134694   5.669   2.838   0.949 -3.7955 -0.4642  0.1184
 4353TIP3    H234695   5.663   2.948   1.053 -0.8001 -0.3412  0.2475
 4354TIP3   OH234696   0.288   5.430   7.124 -0.1605 -0.8410  0.0982
 4354TIP3    H134697   0.338   5.356   7.160 -1.0348 -0.9738  1.1046
 4354TIP3    H234698   0.352   5.480   7.073  0.7594 -1.5623  0.5109
 4355TIP3   OH234699   0.087   0.892   1.166 -0.3413  0.2194  0.3522
 4355TIP3    H134700   0.042   0.911   1.084 -0.9658 -0.2764  0.5698
 4355TIP3    H234701   0.156   0.831   1.143 -0.8693 -0.3564  0.2792
 4356TIP3   OH234702   0.516   0.166   7.736 -0.0695 -0.3675  0.0841
 4356TIP3    H134703   0.590   0.131   7.686 -0.6804 -1.3961 -0.1308
 4356TIP3    H234704   0.461   0.089   7.755 -1.1533  0.3849  0.1081
 4357TIP3   OH234705   4.695   6.123   1.781 -0.0044  0.0232 -0.4398
 4357TIP3    H134706   4.703   6.089   1.871 -0.0467  0.4202 -0.2840
 4357TIP3    H234707   4.614   6.173   1.782 -1.8649 -2.7318 -1.6116
 4358TIP3   OH234708   5.794   5.354   6.951  0.9189  0.3862  0.1491
 4358TIP3    H134709   5.735   5.325   6.881  0.2470  0.9875  0.4540
 4358TIP3    H234710   5.805   5.276   7.005 -0.2159  0.4510  0.5021
 4359TIP3   OH234711   2.319   1.457   1.059  0.5384 -0.7968 -0.9173
 4359TIP3    H134712   2.391   1.486   1.115  0.6617  1.2308 -2.0163
 4359TIP3    H234713   2.253   1.526   1.068 -1.1952 -2.4691 -0.1488
 4360TIP3   OH234714   0.840   4.526   6.769 -0.1164 -0.0448 -0.3320
 4360TIP3    H134715   0.825   4.619   6.784 -0.0956 -0.3018  1.5761
 4360TIP3    H234716   0.935   4.515   6.779 -0.0738 -0.2097 -0.9172
 4361TIP3   OH234717   0.537   0.677   1.423  0.1393  0.0356  0.2975
 4361TIP3    H134718   0.541   0.582   1.411  0.5942 -0.0475  1.0020
 4361TIP3    H234719   0.465   0.690   1.485  0.4172  0.0944  0.6153
 4362TIP3   OH234720   2.936   3.936   0.036  0.2810  0.1259 -0.2998
 4362TIP3    H134721   2.906   3.994  -0.034 -0.6269 -1.5346 -1.3202
 4362TIP3    H234722   3.020   3.902   0.004 -0.2203 -0.7710 -0.6659
 4363TIP3   OH234723   6.211   3.225   8.227 -0.0595 -0.1090  0.1365
 4363TIP3    H134724   6.167   3.277   8.160 -0.4790  1.2640  1.3945
 4363TIP3    H234725   6.300   3.214   8.196 -0.8276 -1.5585 -1.7172
 4364TIP3   OH234726   1.080   6.611   8.037  0.1396 -0.3093 -0.2748
 4364TIP3    H134727   1.105   6.535   8.088 -0.5338  0.6308  1.5377
 4364TIP3    H234728   1.153   6.626   7.977  0.6511 -1.8282 -0.0602
 4365TIP3   OH234729   6.668   3.702   8.240 -0.0459 -0.4557 -0.3491
 4365TIP3    H134730   6.743   3.704   8.299 -0.2652 -0.3055 -0.0766
 4365TIP3    H234731   6.667   3.612   8.205  0.0677 -0.5491 -0.1091
 4366TIP3   OH234732   4.677   4.129   8.813  0.2529 -0.4740  0.4541
 4366TIP3    H134733   4.648   4.169   8.895 -0.4947  0.9796 -0.4848
 4366TIP3    H234734   4.597   4.096   8.773  0.6380 -1.3375  0.3654
 4367TIP3   OH234735   0.490   3.422   8.175 -0.4106  0.3533  0.4318
 4367TIP3    H134736   0.423   3.464   8.230 -0.0381  0.2023  1.0059
 4367TIP3    H234737   0.460   3.331   8.166 -1.6327  0.8865 -1.4613
 4368TIP3   OH234738   3.724   5.652   1.997  0.2582 -0.4187  0.1890
 4368TIP3    H134739   3.720   5.638   1.902 -1.7421 -0.4425  0.2219
 4368TIP3    H234740   3.637   5.626   2.027  0.6022  0.3829  1.9310
 4369TIP3   OH234741   3.714   4.796   1.989 -0.4339 -0.1975 -0.1533
 4369TIP3    H134742   3.750   4.787   1.901 -1.1943  1.0861 -0.6410
 4369TIP3    H234743   3.633   4.745   1.986 -0.3609 -0.3150 -0.1353
 4370TIP3   OH234744   3.737   6.556   7.698  0.1402 -0.3225  0.8870
 4370TIP3    H134745   3.816   6.516   7.662 -0.5818 -0.9527 -0.0477
 4370TIP3    H234746   3.751   6.650   7.688  0.0753 -0.4657 -0.8949
 4371TIP3   OH234747   2.829   2.062   0.168  0.0650 -0.7027 -0.0639
 4371TIP3    H134748   2.850   2.054   0.075  0.6616 -0.7772  0.0773
 4371TIP3    H234749   2.747   2.112   0.169 -0.2355 -1.1553 -0.6527
 4372TIP3   OH234750   2.598   5.365   7.469  0.3789  0.3442 -0.1086
 4372TIP3    H134751   2.634   5.297   7.525 -2.0615 -1.7043 -0.8244
 4372TIP3    H234752   2.668   5.387   7.408  0.9800 -2.2185 -0.4319
 4373TIP3   OH234753   3.414   3.506   1.241  0.0429  0.8873  0.2081
 4373TIP3    H134754   3.332   3.521   1.195 -0.2272  0.6443  0.6016
 4373TIP3    H234755   3.459   3.439   1.190 -0.5580  0.1252  0.6519
 4374TIP3   OH234756   4.750   5.899   7.778 -0.3544  0.6438 -0.1765
 4374TIP3    H134757   4.755   5.844   7.700 -0.7850  1.7526 -1.0172
 4374TIP3    H234758   4.657   5.903   7.799 -0.1580 -0.4982  1.0564
 4375TIP3   OH234759   1.511   0.603   0.340  0.3502  0.6381 -0.0926
 4375TIP3    H134760   1.574   0.668   0.307  1.0398 -0.8511 -1.8776
 4375TIP3    H234761   1.524   0.527   0.284 -2.3756 -0.0855  0.1468
 4376TIP3   OH234762   1.303   5.272   8.620 -0.3075  0.2873  0.0807
 4376TIP3    H134763   1.255   5.192   8.644 -0.5238  0.8149  1.5203
 4376TIP3    H234764   1.245   5.317   8.559  0.0771 -0.9197 -1.2278
 4377TIP3   OH234765   4.288   2.303   7.569  0.0844  0.0356 -0.5846
 4377TIP3    H134766   4.221   2.283   7.504 -1.7269 -0.0944  1.2354
 4377TIP3    H234767   4.242   2.348   7.640  2.1539  1.0598  0.2230
 4378TIP3   OH234768   2.571   0.307   0.287  0.1038  0.3063  0.2820
 4378TIP3    H134769   2.630   0.363   0.337  0.4955  0.8991 -0.8057
 4378TIP3    H234770   2.617   0.293   0.204 -0.1368 -1.3493  0.3831
 4379TIP3   OH234771   4.795   2.170   7.044  0.0756  0.4401  0.0654
 4379TIP3    H134772   4.811   2.264   7.052 -0.1169  0.4750  0.0563
 4379TIP3    H234773   4.701   2.163   7.028  0.0991  0.2492  0.0028
 4380TIP3   OH234774   3.426   1.087   7.413  0.1227  0.0273 -0.0194
 4380TIP3    H134775   3.506   1.140   7.408  1.4501 -2.0404 -3.5172
 4380TIP3    H234776   3.372   1.118   7.341 -1.7135  0.4186  1.4376
 4381TIP3   OH234777   0.817   0.057   7.895  0.6203 -0.1456  0.1583
 4381TIP3    H134778   0.869   0.091   7.822  2.8794 -1.1537  1.2216
 4381TIP3    H234779   0.746   0.121   7.906  1.1138  0.8285 -1.8952
 4382TIP3   OH234780   5.363   4.627   2.285 -0.9390 -0.2359 -0.3429
 4382TIP3    H134781   5.444   4.650   2.329 -1.7878 -1.3143  1.9719
 4382TIP3    H234782   5.306   4.596   2.356 -3.6378  1.1681 -1.7500
 4383TIP3   OH234783   2.701   3.176   1.414 -0.2046 -0.4256 -0.2553
 4383TIP3    H134784   2.750   3.231   1.476 -0.4863 -0.7174  0.2349
 4383TIP3    H234785   2.688   3.232   1.337  0.3264 -0.1261 -0.1295
 4384TIP3   OH234786   6.607   5.218   0.922  0.1163 -0.0891  0.2165
 4384TIP3    H134787   6.700   5.214   0.941 -0.0487 -0.3800  0.9825
 4384TIP3    H234788   6.568   5.261   0.998 -0.5223 -1.0725  0.4700
 4385TIP3   OH234789   2.751   1.577   7.636 -0.2945  0.4236 -0.4902
 4385TIP3    H134790   2.695   1.554   7.563 -0.3853 -2.2741  0.3173
 4385TIP3    H234791   2.691   1.591   7.710 -0.0736  0.8746 -0.3873
 4386TIP3   OH234792   6.138   3.698   0.639  0.2665 -0.3593 -0.1116
 4386TIP3    H134793   6.169   3.785   0.668 -3.1279  0.9563 -0.0124
 4386TIP3    H234794   6.153   3.697   0.545 -2.0454  1.5178 -0.5687
 4387TIP3   OH234795   3.368   2.794   8.358  0.2272  0.1493  0.4724
 4387TIP3    H134796   3.383   2.864   8.421  1.3566 -0.9280  1.4485
 4387TIP3    H234797   3.409   2.717   8.397  0.2414 -0.7453 -1.2055
 4388TIP3   OH234798   2.489   6.096   2.359 -0.1547  0.2397 -0.1147
 4388TIP3    H134799   2.441   6.063   2.284 -0.5569 -0.6354  0.5133
 4388TIP3    H234800   2.443   6.061   2.435 -0.6491  2.3001  0.6059
 4389TIP3   OH234801   6.165   3.246   0.456 -0.1239  0.7155 -0.4093
 4389TIP3    H134802   6.144   3.246   0.549  0.0257  1.6645 -0.3634
 4389TIP3    H234803   6.252   3.207   0.451  0.2212  1.4078 -0.0463
 4390TIP3   OH234804   3.130   0.646   8.493  0.7261  0.1918 -0.4316
 4390TIP3    H134805   3.064   0.653   8.424 -0.1458  0.0641  0.3728
 4390TIP3    H234806   3.089   0.591   8.559  1.8707 -0.3615 -0.1743
 4391TIP3   OH234807   2.514   3.498   3.013 -0.1185  0.6138 -0.1185
 4391TIP3    H134808   2.521   3.416   2.964 -1.6049  1.2115 -1.3867
 4391TIP3    H234809   2.449   3.480   3.081  0.2383  0.4837  0.1948
 4392TIP3   OH234810   4.616   1.751   8.238  0.1159 -0.0167  0.6629
 4392TIP3    H134811   4.586   1.678   8.184  0.0948 -0.5200  1.3473
 4392TIP3    H234812   4.568   1.827   8.204  0.6513 -0.1759 -0.5036
 4393TIP3   OH234813   0.868   4.517   8.282 -0.1796  0.2837 -0.5186
 4393TIP3    H134814   0.872   4.556   8.369 -0.0972  0.9971 -0.8430
 4393TIP3    H234815   0.835   4.428   8.298  1.6314 -0.2724  0.4576
 4394TIP3   OH234816   4.432   0.061   2.067  0.1600 -0.2234 -0.0364
 4394TIP3    H134817   4.362   0.090   2.124 -0.3155  1.6112 -1.4633
 4394TIP3    H234818   4.448  -0.030   2.093 -1.1176  0.0429  1.8762
 4395TIP3   OH234819   1.208   2.961   0.776  0.3006 -0.2671  0.0793
 4395TIP3    H134820   1.156   2.882   0.763 -0.9135  0.5282 -0.0994
 4395TIP3    H234821   1.173   3.000   0.856 -0.4017  1.0354 -0.8327
 4396TIP3   OH234822   2.659   5.613   8.696  0.0570  0.0250  0.0134
 4396TIP3    H134823   2.728   5.647   8.752 -1.2495  0.3740  1.4713
 4396TIP3    H234824   2.701   5.603   8.610  2.7548 -2.5677  1.4421
 4397TIP3   OH234825   4.558   4.100   0.257 -0.1330  0.3371  0.8427
 4397TIP3    H134826   4.486   4.163   0.247 -1.6205 -1.1579  1.5738
 4397TIP3    H234827   4.515   4.019   0.284  1.7387 -0.9711  0.0937
 4398TIP3   OH234828   3.412   4.074   0.596 -0.0196  0.1500  0.3939
 4398TIP3    H134829   3.376   3.993   0.632  0.3546 -0.0365  0.3484
 4398TIP3    H234830   3.353   4.142   0.627 -0.7029 -0.2112 -0.1008
 4399TIP3   OH234831   4.288   4.987   7.982  0.0947  0.5425 -0.5512
 4399TIP3    H134832   4.381   4.995   7.960  0.5018 -1.2982  0.3069
 4399TIP3    H234833   4.273   4.893   7.992 -1.9073  0.7876 -0.7936
 4400TIP3   OH234834   1.021   1.516   1.250 -0.0827 -0.2401  0.4078
 4400TIP3    H134835   0.998   1.586   1.188 -2.7123  0.6325  2.1931
 4400TIP3    H234836   1.040   1.441   1.194 -4.3129 -0.0947 -1.6236
 4401TIP3   OH234837   6.810   6.430   8.564  0.3013  0.0656 -0.4669
 4401TIP3    H134838   6.848   6.508   8.605 -0.3550  0.2419 -0.1785
 4401TIP3    H234839   6.841   6.433   8.474  0.2144  0.7117 -0.4812
 4402TIP3   OH234840   2.203   4.867   8.102  0.2850 -0.1154  0.4792
 4402TIP3    H134841   2.297   4.883   8.093  0.1536 -0.1919 -1.4431
 4402TIP3    H234842   2.195   4.772   8.110  0.4468 -0.0067  2.0868
 4403TIP3   OH234843   1.366   2.071   8.691  0.0768 -0.0360 -0.0091
 4403TIP3    H134844   1.300   2.129   8.653 -0.1511 -0.8335 -0.8763
 4403TIP3    H234845   1.426   2.130   8.736 -0.6627  0.7919 -0.0752
 4404TIP3   OH234846   4.243   0.583   0.311  0.4082  0.4878  0.0083
 4404TIP3    H134847   4.233   0.516   0.244  2.7999 -0.2883  0.3162
 4404TIP3    H234848   4.186   0.555   0.382  0.2675 -0.4319 -0.4607
 4405TIP3   OH234849   5.027   1.868   8.732  0.1330  0.0245 -0.5113
 4405TIP3    H134850   4.966   1.814   8.783  1.3830  0.3300  1.4471
 4405TIP3    H234851   5.101   1.810   8.715  0.3473  0.3523 -0.6994
 4406TIP3   OH234852   6.722   0.525   2.572 -0.4843  0.0802  0.0152
 4406TIP3    H134853   6.770   0.457   2.620 -0.8048 -0.6903 -0.7206
 4406TIP3    H234854   6.639   0.484   2.549  0.5191 -0.4752 -3.1997
 4407TIP3   OH234855   1.114   2.835   1.378 -0.1288  0.1992 -0.3649
 4407TIP3    H134856   1.183   2.782   1.340  1.3910  0.6972  1.5612
 4407TIP3    H234857   1.158   2.912   1.413 -1.3426 -0.2655  2.4407
 4408TIP3   OH234858   2.418   5.309   2.370 -0.3527 -0.3567  0.4775
 4408TIP3    H134859   2.491   5.350   2.324 -1.1475  0.3753 -0.1595
 4408TIP3    H234860   2.417   5.350   2.456 -1.2645  1.1746 -0.2165
 4409TIP3   OH234861   5.331   1.880   8.136 -0.4316  0.7414 -0.8635
 4409TIP3    H134862   5.328   1.931   8.055 -0.8869 -0.5387 -1.6972
 4409TIP3    H234863   5.260   1.816   8.126 -0.3635  0.4290  0.4679
 4410TIP3   OH234864   2.004   1.518   8.783 -0.6454  0.8679  0.3054
 4410TIP3    H134865   1.912   1.527   8.808 -0.9907 -0.9695 -0.2187
 4410TIP3    H234866   2.042   1.462   8.851  0.3095  2.1723  0.9190
 4411TIP3   OH234867   0.896   6.356   6.941  0.3837  0.2762 -0.8469
 4411TIP3    H134868   0.812   6.336   6.900  0.1969 -0.3716 -0.1766
 4411TIP3    H234869   0.925   6.436   6.898 -1.7435  1.9346  0.5388
 4412TIP3   OH234870   3.827   2.712   7.477  0.6702 -0.5701  0.0346
 4412TIP3    H134871   3.761   2.778   7.499  1.6809 -0.0923  1.8813
 4412TIP3    H234872   3.804   2.683   7.389 -0.5629  1.3262 -0.3242
 4413TIP3   OH234873   1.478   4.607   6.715 -0.3300 -0.4701 -0.3613
 4413TIP3    H134874   1.423   4.574   6.786 -1.3724  0.4980 -0.7040
 4413TIP3    H234875   1.430   4.681   6.679  2.1551  1.8281  0.7235
 4414TIP3   OH234876   5.363   0.347   1.970 -0.3118  0.3343  0.6402
 4414TIP3    H134877   5.434   0.375   1.912 -0.5897 -0.0183  0.1301
 4414TIP3    H234878   5.396   0.365   2.058  0.8779 -0.8634  0.4708
 4415TIP3   OH234879   2.960   1.231   2.992  0.7467 -0.8788  0.2924
 4415TIP3    H134880   2.909   1.156   2.962 -0.0534 -0.7259  1.2390
 4415TIP3    H234881   2.922   1.254   3.077  1.0056  0.5769  0.0382
 4416TIP3   OH234882   3.870   5.049   2.470 -0.2407  0.0319 -0.7974
 4416TIP3    H134883   3.863   4.961   2.507 -0.9065 -0.1447 -1.3220
 4416TIP3    H234884   3.814   5.047   2.393  0.5502  0.6106 -1.4052
 4417TIP3   OH234885   6.320   3.331   0.133  0.3593 -0.6111  0.3907
 4417TIP3    H134886   6.343   3.399   0.071  1.3855  0.6715  2.1097
 4417TIP3    H234887   6.257   3.276   0.086  1.7870 -0.2739 -2.0864
 4418TIP3   OH234888   5.530   6.478   1.522  0.7580  0.5815  0.3711
 4418TIP3    H134889   5.526   6.396   1.474  2.5420  0.7037 -0.0698
 4418TIP3    H234890   5.505   6.455   1.612  0.6213 -0.3101  0.1075
 4419TIP3   OH234891   0.713   1.440   0.286 -0.0007 -0.2413 -0.3312
 4419TIP3    H134892   0.784   1.398   0.239  0.3702 -0.9681  0.8332
 4419TIP3    H234893   0.726   1.414   0.378 -0.3942  1.5324  0.2677
 4420TIP3   OH234894   4.982   3.759   1.852 -0.2100 -0.4629 -0.2806
 4420TIP3    H134895   4.971   3.760   1.947 -2.0915  1.1554 -0.4390
 4420TIP3    H234896   4.984   3.852   1.828  1.8614 -0.8193 -1.7014
 4421TIP3   OH234897   1.570   0.096   8.595 -0.0517  0.0865 -0.0025
 4421TIP3    H134898   1.607   0.127   8.677  0.5530  0.0313 -0.2490
 4421TIP3    H234899   1.619   0.142   8.527 -0.7147  0.3186 -0.3292
 4422TIP3   OH234900   3.027   1.171   1.008  0.0117  0.5757  0.3279
 4422TIP3    H134901   3.018   1.202   1.099 -1.7144 -0.1233  0.4316
 4422TIP3    H234902   2.947   1.200   0.965 -0.2064 -0.9986 -0.3894
 4423TIP3   OH234903   5.139   2.526   0.035 -0.2524 -0.2554 -0.2412
 4423TIP3    H134904   5.082   2.506  -0.040  0.1871  0.3469 -0.7489
 4423TIP3    H234905   5.089   2.590   0.086 -0.6162 -0.7784  0.0675
 4424TIP3   OH234906   0.943   6.111   7.828  0.2329  0.0154 -0.1411
 4424TIP3    H134907   0.971   6.195   7.791 -0.8078  1.1532  1.5203
 4424TIP3    H234908   0.965   6.116   7.921  2.2124 -2.5122 -0.3461
 4425TIP3   OH234909   1.441   5.881   0.196 -0.0923 -0.5823  0.2547
 4425TIP3    H134910   1.353   5.883   0.157  0.0186 -0.1143  0.0196
 4425TIP3    H234911   1.442   5.958   0.253  1.2865  1.3808 -2.2242
 4426TIP3   OH234912   4.935   3.271   7.668 -0.0058  0.1404  0.7173
 4426TIP3    H134913   4.885   3.352   7.668 -1.6372 -0.7806  2.3243
 4426TIP3    H234914   4.934   3.241   7.577 -0.7858  1.0911  0.4066
 4427TIP3   OH234915   0.655   6.802   6.766 -0.1288 -0.3166  0.1900
 4427TIP3    H134916   0.608   6.836   6.689  0.5490 -0.3468 -0.2405
 4427TIP3    H234917   0.653   6.707   6.754  1.1071 -0.2785 -0.4806
 4428TIP3   OH234918   1.569   5.073   8.807  0.0126  0.4308  0.2346
 4428TIP3    H134919   1.534   5.156   8.776 -0.9714  0.1462  0.5379
 4428TIP3    H234920   1.663   5.079   8.791 -0.1514  1.2643 -0.5193
 4429TIP3   OH234921   0.061   2.551   0.388  0.3111  0.3806  0.0992
 4429TIP3    H134922   0.130   2.618   0.392  1.1256 -0.5134  1.6781
 4429TIP3    H234923   0.002   2.573   0.460 -0.9766  0.9959 -1.0898
 4430TIP3   OH234924   2.516   3.110   1.054  0.6886 -0.0167 -0.4778
 4430TIP3    H134925   2.589   3.169   1.073  0.0687  0.5069  0.3821
 4430TIP3    H234926   2.461   3.159   0.994  0.1932  0.2940  0.2069
 4431TIP3   OH234927   1.794   0.305   2.218 -0.0895 -0.2124 -0.2351
 4431TIP3    H134928   1.768   0.369   2.152  1.3118 -1.0376 -1.6299
 4431TIP3    H234929   1.744   0.330   2.296  0.3799  2.5587 -0.7348
 4432TIP3   OH234930   0.703   1.211   1.269  0.6783 -0.2216  0.6175
 4432TIP3    H134931   0.754   1.258   1.334  0.5258  0.0355  0.5527
 4432TIP3    H234932   0.747   1.126   1.260  0.5881 -0.3312  1.1911
 4433TIP3   OH234933   6.470   1.704   2.865  0.5786  0.1497  0.2627
 4433TIP3    H134934   6.422   1.735   2.942  0.9534 -0.0266  0.5695
 4433TIP3    H234935   6.535   1.772   2.847  1.9964 -0.8160  1.4708
 4434TIP3   OH234936   0.121   4.385   1.456 -0.7842 -0.4338  0.1322
 4434TIP3    H134937   0.083   4.459   1.409 -0.0855 -0.0200  0.2044
 4434TIP3    H234938   0.183   4.424   1.517  0.6361 -1.1365 -0.7893
 4435TIP3   OH234939   2.174   1.143   1.806  0.1164 -0.0660 -0.7409
 4435TIP3    H134940   2.204   1.156   1.895  1.3011  1.0445 -1.2699
 4435TIP3    H234941   2.084   1.177   1.805 -0.3195 -1.1121  0.2578
 4436TIP3   OH234942   2.430   6.555   0.816  0.1753  0.2516  0.2835
 4436TIP3    H134943   2.399   6.626   0.873 -0.0886  2.7202 -2.6317
 4436TIP3    H234944   2.520   6.579   0.795 -0.0715  0.0573 -1.1324
 4437TIP3   OH234945   3.252   0.792   0.584  0.1992 -0.1795 -0.1696
 4437TIP3    H134946   3.256   0.697   0.580  0.2878 -0.1799 -0.0740
 4437TIP3    H234947   3.336   0.818   0.623  1.1653  0.0851 -2.3195
 4438TIP3   OH234948   2.880   0.197   7.939  0.4433  0.6203 -0.3883
 4438TIP3    H134949   2.879   0.290   7.917  0.2007  0.4816 -1.0087
 4438TIP3    H234950   2.903   0.194   8.032 -0.2240  1.3363 -0.1871
 4439TIP3   OH234951   2.131   3.019   1.270  0.1292 -0.1883 -0.8130
 4439TIP3    H134952   2.097   2.979   1.349 -0.4244  2.1772  0.2358
 4439TIP3    H234953   2.222   3.041   1.291  0.1697 -0.1070 -1.0618
 4440TIP3   OH234954   3.840   5.917   1.795  0.8082  0.3480  0.1337
 4440TIP3    H134955   3.933   5.897   1.793  0.9246  0.3865  2.4645
 4440TIP3    H234956   3.797   5.838   1.762  1.6198 -0.1422  0.2328
 4441TIP3   OH234957   5.071   2.301   1.927  0.3174  0.3617  0.6382
 4441TIP3    H134958   5.068   2.221   1.980 -0.7754  0.6411  1.0334
 4441TIP3    H234959   5.026   2.367   1.981 -0.2970  0.8068 -0.3783
 4442TIP3   OH234960   1.396   3.889   8.253 -0.2547 -0.2720 -0.1699
 4442TIP3    H134961   1.451   3.901   8.175 -0.9798  1.6032 -0.4383
 4442TIP3    H234962   1.344   3.811   8.233 -1.3365  0.8799 -2.1498
 4443TIP3   OH234963   2.145   2.855   1.998 -0.6720 -0.0466  0.3862
 4443TIP3    H134964   2.079   2.921   2.017  0.1077  0.8456  0.0504
 4443TIP3    H234965   2.213   2.868   2.065 -1.4998 -1.9579  1.6950
 4444TIP3   OH234966   0.704   3.122   1.169 -0.4151  0.3318  0.2198
 4444TIP3    H134967   0.616   3.160   1.178 -0.9728 -1.3506  3.0965
 4444TIP3    H234968   0.692   3.048   1.109 -0.9048  0.2906  0.3642
 4445TIP3   OH234969   2.516   1.940   1.914 -0.0207  0.6011  0.3376
 4445TIP3    H134970   2.444   1.889   1.953  0.1710  0.4488  0.4928
 4445TIP3    H234971   2.564   1.877   1.861 -1.0830  1.0799 -1.2896
 4446TIP3   OH234972   3.542   2.071   8.757 -0.1854 -0.1239 -0.0579
 4446TIP3    H134973   3.581   2.155   8.781 -0.6547 -0.2289  1.1277
 4446TIP3    H234974   3.511   2.084   8.667 -0.7820  1.1626  0.3129
 4447TIP3   OH234975   1.511   4.760   0.722 -0.4267 -0.6409 -0.2312
 4447TIP3    H134976   1.501   4.846   0.682 -0.1413 -0.1174  0.7810
 4447TIP3    H234977   1.605   4.747   0.729 -0.4697 -1.0060 -0.3163
 4448TIP3   OH234978   6.783   5.762   0.490  0.0870 -0.2050  0.6211
 4448TIP3    H134979   6.690   5.782   0.487  0.0261 -0.6396 -1.8897
 4448TIP3    H234980   6.826   5.846   0.501 -0.5398  0.1560  0.3421
 4449TIP3   OH234981   1.249   0.203   1.671  0.2118 -0.0543  0.1714
 4449TIP3    H134982   1.200   0.121   1.679  0.0248 -0.0779 -1.0722
 4449TIP3    H234983   1.340   0.176   1.663  0.0582 -0.2166 -1.2564
 4450TIP3   OH234984   2.992   1.848   8.269 -0.0301 -0.3720 -0.3918
 4450TIP3    H134985   3.067   1.872   8.324  1.1075 -1.9464 -1.1718
 4450TIP3    H234986   2.934   1.799   8.328  0.7812 -1.3206 -0.3524
 4451TIP3   OH234987   6.382   4.663   2.411  0.2001 -0.2184 -0.1406
 4451TIP3    H134988   6.323   4.627   2.477  0.5278 -0.8265 -0.1751
 4451TIP3    H234989   6.390   4.594   2.345 -0.8168  0.7173 -1.2809
 4452TIP3   OH234990   3.961   2.363   0.536  0.2286 -0.2154  0.3657
 4452TIP3    H134991   3.970   2.382   0.442 -0.0689 -0.0861  0.3598
 4452TIP3    H234992   4.048   2.378   0.572  0.0688  0.9459  0.3148
 4453TIP3   OH234993   3.386   0.630   2.165  0.4340 -0.5365 -0.0602
 4453TIP3    H134994   3.443   0.616   2.089  1.2168  0.7963  0.2645
 4453TIP3    H234995   3.304   0.587   2.141  1.0361 -1.1002 -1.1936
 4454TIP3   OH234996   5.296   0.303   0.749  0.3656 -0.2653  0.1755
 4454TIP3    H134997   5.378   0.306   0.798  0.8189  0.9220 -0.6051
 4454TIP3    H234998   5.249   0.382   0.774  0.2078 -0.0959 -0.6220
 4455TIP3   OH234999   0.880   1.916   2.018  0.1594  0.3953 -0.0866
 4455TIP3    H135000   0.883   1.986   1.953  0.0741 -0.9138 -1.5682
 4455TIP3    H235001   0.792   1.878   2.008  1.1642 -1.8006 -1.4562
 4456TIP3   OH235002   4.419   5.674   7.915  0.1347  0.3604  0.6789
 4456TIP3    H135003   4.478   5.612   7.872 -0.5135  1.1240 -1.4261
 4456TIP3    H235004   4.441   5.759   7.878 -1.0892  0.9275  1.1901
 4457TIP3   OH235005   4.093   6.244   8.803  0.1586  0.3849  0.3074
 4457TIP3    H135006   4.120   6.316   8.861  0.0009  0.8530 -0.1913
 4457TIP3    H235007   4.012   6.211   8.842  0.0856  0.6619  0.3958
 4458TIP3   OH235008   0.730   1.476   2.391 -0.0394  0.2084 -0.2650
 4458TIP3    H135009   0.761   1.424   2.465  1.7899 -0.3247 -1.3240
 4458TIP3    H235010   0.804   1.534   2.371 -1.1253  1.5173 -0.6548
 4459TIP3   OH235011   1.550   3.796   2.029  0.0140 -0.1394  0.0174
 4459TIP3    H135012   1.567   3.837   2.114  0.1240 -0.8518  0.3563
 4459TIP3    H235013   1.586   3.856   1.965 -1.0750  0.9665  0.3958
 4460TIP3   OH235014   3.087   4.899   0.129  0.9579 -0.0507 -0.2982
 4460TIP3    H135015   3.081   4.833   0.198  0.7829 -0.1997 -0.4571
 4460TIP3    H235016   3.098   4.849   0.049 -0.4097  0.0590 -0.5778
 4461TIP3   OH235017   1.749   3.360   8.473  0.5760  0.1474  0.5473
 4461TIP3    H135018   1.698   3.429   8.515  0.2978 -0.9574  2.1383
 4461TIP3    H235019   1.688   3.286   8.466  1.1209 -0.2439 -0.2820
 4462TIP3   OH235020   0.899   1.064   2.318 -0.3870 -0.1595  0.0587
 4462TIP3    H135021   0.891   1.102   2.231 -0.3391  0.4392  0.3119
 4462TIP3    H235022   0.984   1.021   2.319 -0.9002 -1.2243 -0.5935
 4463TIP3   OH235023   0.224   0.044   8.543  0.0064 -0.4532 -0.1036
 4463TIP3    H135024   0.311   0.005   8.536 -0.2006 -1.0062  0.3451
 4463TIP3    H235025   0.230   0.126   8.494  0.4975 -0.9604 -0.8926
 4464TIP3   OH235026   3.530   3.693   2.113  0.7573 -0.0549 -0.2993
 4464TIP3    H135027   3.527   3.612   2.062 -0.1229 -1.6024  2.0783
 4464TIP3    H235028   3.440   3.705   2.143  1.1249  1.1709  0.3634
 4465TIP3   OH235029   0.137   6.754   2.301  0.2771  0.0448 -0.1304
 4465TIP3    H135030   0.118   6.749   2.208 -0.9748 -1.3829  0.1679
 4465TIP3    H235031   0.129   6.664   2.333 -1.7911  0.8136  1.7993
 4466TIP3   OH235032   1.465   1.421   2.356  0.1358  0.4639  0.0292
 4466TIP3    H135033   1.423   1.441   2.440  1.1621 -1.1533  0.9783
 4466TIP3    H235034   1.444   1.329   2.340  1.0619  0.3908 -0.8302
 4467TIP3   OH235035   1.169   3.627   1.182 -0.6094 -0.0887 -0.5701
 4467TIP3    H135036   1.198   3.549   1.134  0.6177 -0.1046  0.1562
 4467TIP3    H235037   1.073   3.623   1.178 -0.6144 -2.1241  0.2370
 4468TIP3   OH235038   2.469   5.806   1.926  0.5650 -0.0433 -0.1934
 4468TIP3    H135039   2.488   5.727   1.876  0.3399 -0.9269  1.0640
 4468TIP3    H235040   2.399   5.781   1.986  0.5604  1.0778  0.3048
 4469TIP3   OH235041   1.860   5.153   7.940  0.0762  0.5317  0.4470
 4469TIP3    H135042   1.942   5.104   7.948 -0.4996 -0.5200  0.0718
 4469TIP3    H235043   1.845   5.189   8.028  2.8745  4.0454 -0.2859
 4470TIP3   OH235044   4.033   4.135   1.298 -0.9458 -0.3883 -0.1045
 4470TIP3    H135045   4.069   4.180   1.374 -1.8697  0.0688  0.0742
 4470TIP3    H235046   3.951   4.181   1.279 -0.2328  0.1929 -2.0311
 4471TIP3   OH235047   0.952   4.922   7.798  0.3672  0.1593  0.1099
 4471TIP3    H135048   1.001   5.005   7.796  0.6685 -0.0254 -1.4326
 4471TIP3    H235049   0.863   4.947   7.823  0.8361  0.7318  1.2358
 4472TIP3   OH235050   4.218   0.820   1.446  0.1894  0.5478 -0.0950
 4472TIP3    H135051   4.215   0.895   1.504  0.2863  1.5241 -1.2998
 4472TIP3    H235052   4.129   0.784   1.449  0.9405 -1.4299  3.0819
 4473TIP3   OH235053   0.884   0.534   0.370 -0.0737  0.6144  0.3180
 4473TIP3    H135054   0.929   0.468   0.422  0.9113 -1.8795 -3.2605
 4473TIP3    H235055   0.871   0.608   0.429  0.8959 -1.8787  3.9292
 4474TIP3   OH235056   4.144   0.494   8.837  0.3517 -0.0401  0.1106
 4474TIP3    H135057   4.066   0.530   8.879  2.2265  0.8379  3.1978
 4474TIP3    H235058   4.182   0.437   8.903  2.6149  0.0113 -1.0563
 4475TIP3   OH235059   3.277   1.156   7.788  0.4321 -0.3313  0.5840
 4475TIP3    H135060   3.315   1.243   7.773  2.6003 -1.5788 -2.0130
 4475TIP3    H235061   3.186   1.164   7.762  0.5952  1.1675  0.3870
 4476TIP3   OH235062   5.523   3.807   8.360  0.6200  0.2290  0.1364
 4476TIP3    H135063   5.610   3.826   8.326  0.7223 -0.1848  0.1553
 4476TIP3    H235064   5.494   3.888   8.402  0.9578  0.3933  0.0484
 4477TIP3   OH235065   0.430   3.658   0.845 -0.0564  0.1790 -0.4293
 4477TIP3    H135066   0.364   3.601   0.884  0.0013 -1.5880 -2.6510
 4477TIP3    H235067   0.390   3.688   0.763  0.9916  1.0911 -0.6279
 4478TIP3   OH235068   4.741   5.707   7.546  0.1878  0.2442  0.9287
 4478TIP3    H135069   4.740   5.732   7.454 -0.1248  1.2084  1.1836
 4478TIP3    H235070   4.675   5.638   7.553 -0.4048  0.7710  0.5921
 4479TIP3   OH235071   3.464   3.487   1.702 -0.0856 -0.8871  0.3538
 4479TIP3    H135072   3.550   3.487   1.661 -0.3251 -0.0068 -0.1756
 4479TIP3    H235073   3.482   3.505   1.795  0.2583  0.1747  0.0980
 4480TIP3   OH235074   0.894   5.983   6.518 -0.4477  0.2179 -0.5849
 4480TIP3    H135075   0.912   5.926   6.443  0.4685  1.1885 -1.1352
 4480TIP3    H235076   0.981   6.014   6.545 -0.7976  0.1404  0.6734
 4481TIP3   OH235077   3.288   5.979   7.996  0.0017  0.1731 -0.0400
 4481TIP3    H135078   3.318   6.068   8.017 -1.2476  1.0786 -1.8046
 4481TIP3    H235079   3.317   5.964   7.906 -3.2058  0.4846 -1.2809
 4482TIP3   OH235080   0.836   1.519   8.807  0.9193  0.1786 -0.0128
 4482TIP3    H135081   0.817   1.542   8.716 -0.6134 -0.5209  0.0870
 4482TIP3    H235082   0.751   1.526   8.851  1.3236 -1.0002  1.0183
 4483TIP3   OH235083   4.143   4.786   6.929 -0.1309 -0.5508  0.5712
 4483TIP3    H135084   4.236   4.804   6.941 -0.5996  2.4691  0.5444
 4483TIP3    H235085   4.099   4.853   6.981 -2.3022 -1.2716 -0.2053
 4484TIP3   OH235086   5.241   4.003   6.727  0.5597 -0.3373  0.2401
 4484TIP3    H135087   5.230   4.094   6.754 -1.6967 -0.4083 -0.2134
 4484TIP3    H235088   5.170   3.955   6.771 -0.6337 -1.1632 -2.3514
 4485TIP3   OH235089   3.433   5.293   8.802  0.1882  0.1377  0.1218
 4485TIP3    H135090   3.416   5.204   8.771  1.4903 -0.0652 -0.0743
 4485TIP3    H235091   3.359   5.314   8.858 -0.3468 -0.9059 -0.1767
 4486TIP3   OH235092   2.368   5.416   6.655  0.4889 -0.1197 -0.1639
 4486TIP3    H135093   2.422   5.403   6.733 -0.0782  1.1937  0.4894
 4486TIP3    H235094   2.348   5.328   6.625 -0.7868 -0.7499  2.2574
 4487TIP3   OH235095   4.862   0.858   1.764  0.5351  0.3439 -0.9079
 4487TIP3    H135096   4.865   0.906   1.681  0.4283  1.2366 -0.4195
 4487TIP3    H235097   4.866   0.927   1.831 -0.1367 -0.3014 -0.1793
 4488TIP3   OH235098   4.106   1.852   7.557 -0.2529  0.1854  0.4118
 4488TIP3    H135099   4.145   1.917   7.615 -0.0595  0.4104  0.0278
 4488TIP3    H235100   4.139   1.873   7.470  0.1786 -0.7015  0.3478
 4489TIP3   OH235101   1.419   1.333   0.777  0.0377 -0.5704 -0.0508
 4489TIP3    H135102   1.336   1.297   0.807 -0.2311 -0.5462 -0.7364
 4489TIP3    H235103   1.397   1.381   0.697  0.5932  0.0598  0.1687
 4490TIP3   OH235104   0.807   2.945   1.983 -0.0198  0.1105 -0.1448
 4490TIP3    H135105   0.785   2.858   2.015 -2.9742  0.8599  0.1350
 4490TIP3    H235106   0.845   2.930   1.896 -2.9027 -1.3812 -1.2625
 4491TIP3   OH235107   0.579   3.868   7.479 -0.2052 -0.4719 -0.1134
 4491TIP3    H135108   0.670   3.901   7.476  0.1232 -1.3487  0.0567
 4491TIP3    H235109   0.581   3.788   7.426 -1.3720  0.6175 -1.9169
 4492TIP3   OH235110   1.047   4.864   1.547  0.3547 -0.6660  0.0808
 4492TIP3    H135111   0.986   4.793   1.530  0.8854 -0.8761 -1.0672
 4492TIP3    H235112   1.077   4.849   1.636  0.0529 -1.5744  0.0431
 4493TIP3   OH235113   3.519   2.858   0.588  0.0735 -0.2712 -0.1894
 4493TIP3    H135114   3.437   2.851   0.540  0.9505  0.1592 -1.8257
 4493TIP3    H235115   3.535   2.952   0.594  1.0912 -0.3648 -1.1019
 4494TIP3   OH235116   2.743   4.696   7.076 -0.1049  0.2096 -0.1467
 4494TIP3    H135117   2.698   4.722   6.996  0.7361  1.8944 -0.1251
 4494TIP3    H235118   2.800   4.624   7.049 -0.0738  0.5449 -1.0029
 4495TIP3   OH235119   5.489   5.799   1.492  0.9549  0.3619 -0.1354
 4495TIP3    H135120   5.454   5.882   1.461  1.8022 -0.0050 -2.2533
 4495TIP3    H235121   5.413   5.741   1.498  0.6754  0.6307 -0.9878
 4496TIP3   OH235122   1.868   6.489   2.267  0.5745  0.7440  0.1552
 4496TIP3    H135123   1.898   6.493   2.176 -0.4962 -2.0125 -0.3948
 4496TIP3    H235124   1.773   6.494   2.261  0.4946  0.5928  1.1422
 4497TIP3   OH235125   4.099   6.550   7.047 -0.6546 -0.5521 -0.0730
 4497TIP3    H135126   4.006   6.532   7.056 -0.2939 -2.9208 -0.4918
 4497TIP3    H235127   4.104   6.613   6.974 -1.8901 -0.5756 -0.1991
 4498TIP3   OH235128   0.125   4.956   8.799 -0.5781  0.1627  0.1042
 4498TIP3    H135129   0.146   4.993   8.885 -0.1712 -1.5285  0.7664
 4498TIP3    H235130   0.206   4.915   8.770 -1.2189 -0.9655 -0.1778
 4499TIP3   OH235131   4.127   3.868   1.534 -0.3242  0.0122 -0.3833
 4499TIP3    H135132   4.137   3.805   1.606 -0.5140 -0.5137 -0.8096
 4499TIP3    H235133   4.214   3.874   1.495 -0.0681  0.7880  0.2826
 4500TIP3   OH235134   0.827   4.048   0.562 -0.3569  0.4882 -0.0168
 4500TIP3    H135135   0.807   4.016   0.474 -2.7079 -0.1324  0.6656
 4500TIP3    H235136   0.906   4.000   0.588 -0.6276 -0.6072 -1.1247
 4501TIP3   OH235137   3.453   2.511   1.014  0.2599  0.0614 -0.1648
 4501TIP3    H135138   3.421   2.592   0.974  2.2035  0.9052 -0.1339
 4501TIP3    H235139   3.543   2.502   0.981  1.0479 -0.5776  1.9707
 4502TIP3   OH235140   1.142   2.134   0.429 -0.4171  0.0674 -0.0692
 4502TIP3    H135141   1.210   2.168   0.370 -0.9839 -0.7355 -1.2337
 4502TIP3    H235142   1.074   2.201   0.427 -0.5193 -0.0444 -0.5005
 4503TIP3   OH235143   1.407   4.032   7.253  0.2441  0.2110 -0.3657
 4503TIP3    H135144   1.501   4.029   7.267  0.0299 -0.5497  1.0726
 4503TIP3    H235145   1.369   4.024   7.341 -1.1537  2.2205 -0.7194
 4504TIP3   OH235146   6.252   3.384   7.342 -0.0593  0.0434 -0.1975
 4504TIP3    H135147   6.316   3.442   7.300  0.0960 -0.0313 -0.0593
 4504TIP3    H235148   6.169   3.432   7.334  0.3076  0.9565  1.2134
 4505TIP3   OH235149   3.769   5.397   7.410 -0.1873 -0.7059  0.1965
 4505TIP3    H135150   3.777   5.420   7.318  1.9719 -0.4436  0.3989
 4505TIP3    H235151   3.830   5.324   7.422 -0.4610 -0.7592  1.4049
 4506TIP3   OH235152   6.790   5.962   0.250 -0.0235 -0.2873 -0.3518
 4506TIP3    H135153   6.839   5.891   0.209 -0.8283 -0.2500 -1.3925
 4506TIP3    H235154   6.830   5.970   0.337 -0.0669 -2.1569 -0.1119
 4507TIP3   OH235155   4.463   5.598   1.130 -0.1430  0.2230  0.2820
 4507TIP3    H135156   4.383   5.642   1.099 -0.0368  0.6863  0.6715
 4507TIP3    H235157   4.435   5.550   1.208  0.2683  1.5910  1.3111
 4508TIP3   OH235158   2.126   4.462   0.217  0.1630 -0.6758  0.2730
 4508TIP3    H135159   2.048   4.505   0.252  0.2320 -1.1143  0.9774
 4508TIP3    H235160   2.113   4.461   0.123  0.2734  1.1394  0.2010
 4509TIP3   OH235161   2.064   2.690   1.643  0.4135  0.0940  0.2585
 4509TIP3    H135162   2.105   2.652   1.565 -1.4619 -0.6262 -0.4270
 4509TIP3    H235163   2.051   2.616   1.702 -1.4695 -0.0354 -0.2715
 4510TIP3   OH235164   6.100   5.336   7.182 -0.5870  0.3537  0.9618
 4510TIP3    H135165   6.094   5.380   7.097 -0.0577 -1.3840 -0.0247
 4510TIP3    H235166   6.159   5.392   7.234 -1.3391  1.7113  0.4053
 4511TIP3   OH235167   5.879   3.209   8.042 -0.2433  0.4640 -0.1418
 4511TIP3    H135168   5.913   3.183   8.128 -0.1105  1.7949  0.2319
 4511TIP3    H235169   5.836   3.130   8.008  2.8492 -1.2530 -0.4880
 4512TIP3   OH235170   3.567   1.545   7.920 -0.1342 -0.6291  0.4439
 4512TIP3    H135171   3.637   1.498   7.967 -1.4507  0.1985  3.4978
 4512TIP3    H235172   3.583   1.637   7.939  0.2307 -0.0295 -2.3258
 4513TIP3   OH235173   2.048   3.665   8.643  0.8860 -0.2458 -0.3185
 4513TIP3    H135174   2.033   3.571   8.632 -0.7199 -0.1013  0.4032
 4513TIP3    H235175   1.974   3.706   8.598 -0.0451  0.5774  1.8737
 4514TIP3   OH235176   5.166   2.443   1.501 -0.2649  0.6694 -0.0943
 4514TIP3    H135177   5.103   2.421   1.569  2.3401  0.3381  2.4355
 4514TIP3    H235178   5.220   2.512   1.540  1.8119 -0.0508 -1.4904
 4515TIP3   OH235179   3.116   2.271   8.499  0.6436  0.5079  0.1534
 4515TIP3    H135180   3.167   2.295   8.421  1.9785  0.2114  0.8991
 4515TIP3    H235181   3.151   2.186   8.526 -0.4606  0.1589  0.5366
 4516TIP3   OH235182   0.586   6.561   8.662  0.0614 -0.4623  0.8446
 4516TIP3    H135183   0.675   6.552   8.627 -0.4689  1.4497 -1.2808
 4516TIP3    H235184   0.536   6.493   8.618  0.1280 -0.3412  0.5723
 4517TIP3   OH235185   5.577   4.866   0.026 -0.0080 -0.1752  1.0799
 4517TIP3    H135186   5.483   4.853   0.024  0.1464 -1.3014 -0.0406
 4517TIP3    H235187   5.614   4.780   0.006  1.2198  0.6782 -0.5831
 4518TIP3   OH235188   0.506   5.376   8.731  0.1529  0.5089  0.8005
 4518TIP3    H135189   0.517   5.429   8.653  0.9044  0.6103  0.9696
 4518TIP3    H235190   0.461   5.297   8.700 -0.0866  0.8088  0.3773
 4519TIP3   OH235191   1.625   0.477   8.711 -0.0781  0.2610  0.0785
 4519TIP3    H135192   1.616   0.563   8.753  0.4460  0.6829 -0.6593
 4519TIP3    H235193   1.621   0.415   8.784 -2.5810  0.7346  0.4552
 4520TIP3   OH235194   0.626   4.888   1.933  0.3936 -0.7035  0.4406
 4520TIP3    H135195   0.610   4.821   1.999  1.4187 -2.0080 -0.5780
 4520TIP3    H235196   0.666   4.841   1.859 -0.3953  0.7509 -0.9882
 4521TIP3   OH235197   5.004   0.964   0.053 -0.3972  0.3852 -0.9846
 4521TIP3    H135198   5.080   1.023   0.060 -1.0647  1.1063  0.6406
 4521TIP3    H235199   5.024   0.909  -0.023  0.7294  2.0092 -1.9339
 4522TIP3   OH235200   2.850   5.515   7.730  0.0145  0.5863 -0.2774
 4522TIP3    H135201   2.802   5.476   7.803  0.9958 -0.1937 -0.0271
 4522TIP3    H235202   2.894   5.441   7.688  1.5874  1.3603 -0.0541
 4523TIP3   OH235203   5.975   1.161   1.791  0.1268  0.0084  0.2117
 4523TIP3    H135204   5.919   1.212   1.849 -0.5251 -0.7988  0.3105
 4523TIP3    H235205   5.930   1.163   1.706 -0.6917 -1.5773  0.5555
 4524TIP3   OH235206   3.143   6.210   8.634 -0.2511  0.3335  0.4445
 4524TIP3    H135207   3.222   6.255   8.606 -0.9795  1.7316  0.5582
 4524TIP3    H235208   3.082   6.220   8.561 -0.5384 -0.1950  0.6044
 4525TIP3   OH235209   5.052   1.134   7.430  0.2163  0.1567  0.1383
 4525TIP3    H135210   4.992   1.187   7.378  0.9334 -0.2587 -1.1672
 4525TIP3    H235211   5.074   1.060   7.373  1.5055 -0.0095  0.8087
 4526TIP3   OH235212   4.476   6.369   0.009 -0.8623 -0.4143 -0.3206
 4526TIP3    H135213   4.432   6.436  -0.043 -2.5710 -2.4337 -1.6421
 4526TIP3    H235214   4.426   6.367   0.091 -0.4534  0.2704 -0.0436
 4527TIP3   OH235215   6.516   0.713   2.045 -0.1146  0.0352 -0.4818
 4527TIP3    H135216   6.488   0.715   1.953 -1.3313  1.8010 -0.1226
 4527TIP3    H235217   6.469   0.786   2.086  3.1227  1.6553  0.7576
 4528TIP3   OH235218   0.520   5.523   6.992  0.0181 -0.1432  0.4186
 4528TIP3    H135219   0.491   5.568   6.912  0.8345  0.3298  0.3719
 4528TIP3    H235220   0.594   5.469   6.963 -0.9894 -1.6107  0.4616
 4529TIP3   OH235221   3.632   2.012   8.172  0.0615 -0.4824  0.0039
 4529TIP3    H135222   3.709   2.009   8.229 -0.0846 -1.7734  0.1510
 4529TIP3    H235223   3.612   2.105   8.165  0.5041 -0.2483  1.5075
 4530TIP3   OH235224   1.920   4.478   8.210  0.3423  0.2774  0.1497
 4530TIP3    H135225   1.829   4.477   8.182  0.1037 -0.3315  0.9049
 4530TIP3    H235226   1.932   4.395   8.256  1.3093  0.3021 -0.0447
 4531TIP3   OH235227   5.900   5.546   0.986 -0.5715  0.5449 -0.1333
 4531TIP3    H135228   5.872   5.455   0.994 -0.2826  0.5741  1.4634
 4531TIP3    H235229   5.874   5.571   0.897 -0.1065 -1.2685 -0.8336
 4532TIP3   OH235230   2.201   6.158   8.264  0.1462  0.0138  0.1800
 4532TIP3    H135231   2.285   6.119   8.237  0.2688 -1.0437  1.9846
 4532TIP3    H235232   2.143   6.084   8.278 -0.2321  0.5576  1.6811
 4533TIP3   OH235233   6.102   4.206   7.502  0.1785 -0.3019  0.0131
 4533TIP3    H135234   6.101   4.177   7.411  2.2270  0.4523 -0.2953
 4533TIP3    H235235   6.147   4.290   7.501 -1.2714  0.5586  1.5320
 4534TIP3   OH235236   4.503   1.791   0.951 -0.1237 -0.1908  0.0773
 4534TIP3    H135237   4.462   1.705   0.955 -0.0291 -0.2144  0.5068
 4534TIP3    H235238   4.454   1.844   1.013  0.5733 -0.2536  0.6960
 4535TIP3   OH235239   4.432   5.129   1.631  0.3001 -0.1854  0.2161
 4535TIP3    H135240   4.446   5.224   1.624  0.1223 -0.2323 -0.9890
 4535TIP3    H235241   4.370   5.109   1.561  1.0272 -1.3392 -0.1262
 4536TIP3   OH235242   0.220   2.901   7.256 -0.4916  0.3625 -0.2718
 4536TIP3    H135243   0.186   2.840   7.322  1.4343 -0.3960  0.0866
 4536TIP3    H235244   0.247   2.845   7.183  1.2756  0.7293  0.0443
 4537TIP3   OH235245   1.153   6.530   8.467 -0.0318 -0.5567 -0.0548
 4537TIP3    H135246   1.126   6.613   8.427 -1.9828 -0.7641  0.7340
 4537TIP3    H235247   1.185   6.555   8.554 -0.3220 -0.5908  0.0624
 4538TIP3   OH235248   1.313   4.285   1.490 -0.1319 -0.0831  0.1358
 4538TIP3    H135249   1.278   4.366   1.527 -0.1605  0.5250 -1.1713
 4538TIP3    H235250   1.388   4.312   1.438 -1.0264 -0.6885 -1.5358
 4539TIP3   OH235251   0.717   3.129   1.830 -0.0894 -0.5856  0.3039
 4539TIP3    H135252   0.741   3.212   1.872  0.1573 -0.2024 -0.5630
 4539TIP3    H235253   0.744   3.062   1.892  1.7440 -0.0982  0.0862
 4540TIP3   OH235254   5.816   6.524   2.450 -0.7964  0.3850  0.0075
 4540TIP3    H135255   5.731   6.539   2.409 -0.1625  0.3516 -1.3785
 4540TIP3    H235256   5.813   6.432   2.478 -1.3454  0.4859  0.2796
 4541TIP3   OH235257   2.433   4.657   1.720  0.0285 -0.2990 -0.4758
 4541TIP3    H135258   2.472   4.701   1.644  0.6134 -1.2109 -0.7205
 4541TIP3    H235259   2.370   4.596   1.682  1.4133 -1.8565 -0.3392
 4542TIP3   OH235260   1.012   2.181   1.316 -0.0720 -0.5465  0.0978
 4542TIP3    H135261   1.046   2.179   1.405  0.2537 -1.5813 -0.0320
 4542TIP3    H235262   1.090   2.193   1.261 -0.2307 -0.2705 -0.0691
 4543TIP3   OH235263   0.206   2.979   0.377  0.1928 -0.0461  0.4092
 4543TIP3    H135264   0.199   3.051   0.315 -1.4030 -0.7612 -0.2866
 4543TIP3    H235265   0.238   2.905   0.326 -0.6149 -0.4935  0.5236
 4544TIP3   OH235266   4.927   6.292   7.845 -0.3175 -0.4516 -0.0715
 4544TIP3    H135267   4.862   6.229   7.815  0.0940 -0.7634 -0.3200
 4544TIP3    H235268   5.011   6.248   7.831 -0.0884 -0.4291  1.1071
 4545TIP3   OH235269   3.478   3.944   8.337 -0.4807 -0.1535  0.1036
 4545TIP3    H135270   3.426   3.909   8.265  1.8222 -0.7948 -1.3608
 4545TIP3    H235271   3.496   4.035   8.313  2.3807 -1.0270 -1.5586
 4546TIP3   OH235272   4.976   5.168   7.874  0.3037 -0.0967  0.3901
 4546TIP3    H135273   4.909   5.134   7.815 -1.2250 -1.2912  2.6799
 4546TIP3    H235274   5.042   5.099   7.878  0.7319  0.2498 -0.3329
 4547TIP3   OH235275   4.938   1.632   0.264 -0.1041 -0.2771 -0.0857
 4547TIP3    H135276   4.948   1.678   0.348 -1.0750  1.7189 -1.0085
 4547TIP3    H235277   4.861   1.577   0.276 -0.2982  0.0719  0.3069
 4548TIP3   OH235278   2.565   2.988   0.823  0.3273  0.1602  0.8134
 4548TIP3    H135279   2.587   3.015   0.913  0.6479  2.2130  0.1800
 4548TIP3    H235280   2.585   3.066   0.770  1.5145 -1.4518 -1.2560
 4549TIP3   OH235281   2.712   1.614   7.910  0.4004  0.2040  0.1215
 4549TIP3    H135282   2.709   1.527   7.949 -2.7735  1.1604  2.4792
 4549TIP3    H235283   2.791   1.654   7.946 -0.1731 -0.4524  2.2748
 4550TIP3   OH235284   6.666   4.333   8.551  0.3917 -0.8047  0.0045
 4550TIP3    H135285   6.655   4.258   8.493 -1.2746 -1.3416  0.9817
 4550TIP3    H235286   6.630   4.407   8.502  0.9959 -0.8411 -0.5030
 4551TIP3   OH235287   4.361   4.304   7.265  0.2110 -0.4170 -0.0090
 4551TIP3    H135288   4.435   4.365   7.259 -0.6790  0.7469  0.3835
 4551TIP3    H235289   4.398   4.227   7.308  0.8142  0.8661  1.9525
 4552TIP3   OH235290   2.471   0.202   0.643 -0.2674  0.6095 -0.1350
 4552TIP3    H135291   2.529   0.143   0.690  0.1328  1.8998  1.0673
 4552TIP3    H235292   2.447   0.155   0.563  0.5885 -0.8600  0.4484
 4553TIP3   OH235293   4.373   1.540   2.753  0.6214 -0.2644  0.1041
 4553TIP3    H135294   4.387   1.573   2.665 -1.0580 -0.1078 -0.1347
 4553TIP3    H235295   4.296   1.587   2.785  0.6438 -0.9867  1.3073
 4554TIP3   OH235296   1.344   6.190   0.020 -1.0300  0.1132 -0.3569
 4554TIP3    H135297   1.305   6.152   0.099 -1.1023 -0.0624 -0.4769
 4554TIP3    H235298   1.438   6.176   0.030 -0.9957  0.5022 -0.0850
 4555TIP3   OH235299   2.882   0.322   1.011  0.0476  0.0376  0.4797
 4555TIP3    H135300   2.850   0.236   1.035 -1.0062  0.2602 -0.0508
 4555TIP3    H235301   2.824   0.351   0.940 -0.4327  1.6980  1.4795
 4556TIP3   OH235302   0.374   1.845   8.770 -0.1635 -0.0861 -0.1507
 4556TIP3    H135303   0.392   1.791   8.847  2.1119  1.5213  0.5469
 4556TIP3    H235304   0.445   1.909   8.768 -0.8470  0.7291 -2.8988
 4557TIP3   OH235305   2.774   5.051   7.854 -0.0696  0.1965 -0.3420
 4557TIP3    H135306   2.802   4.995   7.927 -0.0482 -0.3713 -0.7862
 4557TIP3    H235307   2.699   5.007   7.816 -1.7939  1.8186  0.9672
 4558TIP3   OH235308   1.250   1.221   1.176 -0.5347  0.0025  0.6491
 4558TIP3    H135309   1.263   1.153   1.243 -1.6438  0.9122  1.8526
 4558TIP3    H235310   1.327   1.216   1.121 -0.6965 -2.4153  0.5324
 4559TIP3   OH235311   6.489   6.652   7.501  0.0602  0.0357  0.5130
 4559TIP3    H135312   6.503   6.746   7.517  3.2661 -0.3975  0.9892
 4559TIP3    H235313   6.468   6.647   7.408 -1.7590  1.2732  0.7848
 4560TIP3   OH235314   0.818   6.330   2.646  0.0513 -0.1595  0.6721
 4560TIP3    H135315   0.773   6.288   2.719 -1.4979  0.1102 -0.0737
 4560TIP3    H235316   0.751   6.337   2.578  0.9541  1.2309 -0.1262
 4561TIP3   OH235317   0.050   1.076   2.386 -0.2401 -0.9329  0.1370
 4561TIP3    H135318   0.131   1.074   2.436  0.7723  0.6890 -1.2879
 4561TIP3    H235319   0.078   1.098   2.297 -2.3030  0.6270 -0.2058
 4562TIP3   OH235320   5.526   1.274   8.516  0.1456  0.0795 -1.0231
 4562TIP3    H135321   5.619   1.281   8.535 -0.0205  1.3348 -0.5618
 4562TIP3    H235322   5.494   1.364   8.521 -1.0692 -0.3214 -1.2846
 4563TIP3   OH235323   5.803   3.142   8.821 -0.4417  0.5350  0.0008
 4563TIP3    H135324   5.802   3.048   8.803 -0.0282  0.5839 -0.2979
 4563TIP3    H235325   5.736   3.178   8.763 -2.6107  0.1096  2.0783
 4564TIP3   OH235326   1.960   1.216   1.367 -0.2219  0.4460  0.1206
 4564TIP3    H135327   1.974   1.142   1.426  0.8384  0.6486  0.1450
 4564TIP3    H235328   2.046   1.233   1.329 -0.8899  0.2627 -1.5736
 4565TIP3   OH235329   3.683   0.602   2.921  0.3961 -0.1684  0.2440
 4565TIP3    H135330   3.742   0.567   2.987  1.5749  0.0526 -0.6545
 4565TIP3    H235331   3.723   0.685   2.894  0.8150 -0.9791 -1.8392
 4566TIP3   OH235332   4.731   1.700   7.643  0.0156 -0.6962 -0.3173
 4566TIP3    H135333   4.790   1.690   7.569  1.9528  1.6156  0.7822
 4566TIP3    H235334   4.677   1.775   7.620 -0.4309 -0.9228 -0.0260
 4567TIP3   OH235335   4.904   6.324   0.287 -0.7534 -0.2982  0.3847
 4567TIP3    H135336   4.898   6.315   0.192 -0.3568  0.3237  0.3007
 4567TIP3    H235337   4.997   6.332   0.305 -0.8544 -0.0114  0.7953
 4568TIP3   OH235338   2.409   0.094   2.179 -0.4855  0.4413 -0.2712
 4568TIP3    H135339   2.363   0.037   2.241  0.6492  1.0783  1.2047
 4568TIP3    H235340   2.501   0.076   2.195 -0.1446  0.1416 -2.2795
 4569TIP3   OH235341   2.705   5.532   2.071 -0.3131 -0.0231 -0.2375
 4569TIP3    H135342   2.762   5.455   2.078 -1.5851 -0.9393  0.5524
 4569TIP3    H235343   2.692   5.560   2.162  0.6396  1.5454 -0.5534
 4570TIP3   OH235344   3.579   5.428   0.803  0.4394  0.4330 -0.2708
 4570TIP3    H135345   3.490   5.461   0.821  0.0461 -0.2919 -0.8242
 4570TIP3    H235346   3.628   5.505   0.776 -0.2458  0.7087 -0.7583
 4571TIP3   OH235347   6.175   6.622   0.833  0.0816  0.6162 -0.2702
 4571TIP3    H135348   6.240   6.671   0.784  0.9840 -0.5224 -0.2436
 4571TIP3    H235349   6.092   6.664   0.812  0.6932  1.3736 -1.2041
 4572TIP3   OH235350   1.754   2.644   1.611 -0.0060  0.2673 -0.2744
 4572TIP3    H135351   1.843   2.679   1.613 -0.2023  0.7993 -0.8285
 4572TIP3    H235352   1.758   2.566   1.668  0.8673  0.1436 -0.4945
 4573TIP3   OH235353   3.411   4.332   0.419 -0.4525  0.0630 -0.1210
 4573TIP3    H135354   3.450   4.248   0.445 -0.0575 -0.0314 -0.9898
 4573TIP3    H235355   3.415   4.385   0.499 -1.0431 -0.8584  0.5367
 4574TIP3   OH235356   1.892   2.423   8.492 -0.5515 -0.2909 -0.1254
 4574TIP3    H135357   1.894   2.408   8.398 -0.1107  0.9895 -0.3336
 4574TIP3    H235358   1.916   2.515   8.503 -2.6398  0.1860  1.0858
 4575TIP3   OH235359   0.419   4.383   2.610 -0.2057 -0.5807 -0.0330
 4575TIP3    H135360   0.324   4.394   2.604 -0.0375  0.9017 -0.4919
 4575TIP3    H235361   0.431   4.302   2.659 -1.7244 -0.0895  1.2491
 4576TIP3   OH235362   5.105   4.164   0.940  0.2946 -0.1280  0.3057
 4576TIP3    H135363   5.191   4.200   0.962 -0.3994  1.8284  0.0234
 4576TIP3    H235364   5.114   4.133   0.850  0.6816  0.1781  0.2373
 4577TIP3   OH235365   0.900   6.661   1.574  0.1713 -0.0331  0.7113
 4577TIP3    H135366   0.831   6.695   1.632  1.1146  0.3151  1.6753
 4577TIP3    H235367   0.950   6.739   1.549 -0.5990 -0.0934 -1.1305
 4578TIP3   OH235368   0.265   4.653   7.477  0.0087  0.4249 -0.6951
 4578TIP3    H135369   0.196   4.590   7.496 -0.8104  1.4194 -0.3087
 4578TIP3    H235370   0.219   4.731   7.446  1.0723  0.3219 -2.7161
 4579TIP3   OH235371   2.286   4.077   7.104 -0.1496  0.6098  0.0227
 4579TIP3    H135372   2.291   4.172   7.096 -1.4702  0.7974  1.0085
 4579TIP3    H235373   2.361   4.053   7.159  2.5658  0.5412 -3.4074
 4580TIP3   OH235374   0.289   6.573   7.656  0.3179  0.3631 -0.6468
 4580TIP3    H135375   0.346   6.529   7.592  1.2566 -0.5213  0.7311
 4580TIP3    H235376   0.271   6.505   7.722  0.3978  1.5804  0.6654
 4581TIP3   OH235377   3.187   6.379   8.223 -0.6975 -0.0535  0.1827
 4581TIP3    H135378   3.256   6.335   8.175 -0.7016 -0.2875  0.3879
 4581TIP3    H235379   3.106   6.355   8.176 -1.2497 -3.6162  2.5033
 4582TIP3   OH235380   6.246   5.141   8.245  0.2721 -0.6567 -0.2816
 4582TIP3    H135381   6.284   5.224   8.275  1.5399 -1.5318  0.6349
 4582TIP3    H235382   6.155   5.144   8.273  0.6012 -0.0580  0.7747
 4583TIP3   OH235383   0.586   2.267   1.987 -0.4991  0.8709 -0.9272
 4583TIP3    H135384   0.640   2.323   1.931 -1.0803  3.0053  0.5630
 4583TIP3    H235385   0.516   2.323   2.018 -1.0642 -0.6536  0.7338
 4584TIP3   OH235386   5.305   3.693   1.183 -0.6685 -0.1907 -0.1161
 4584TIP3    H135387   5.275   3.779   1.212  1.8235  0.6120  0.4016
 4584TIP3    H235388   5.242   3.631   1.220 -1.6793  1.3241  0.7998
 4585TIP3   OH235389   3.760   1.631   0.718  0.0873  0.5110  0.4161
 4585TIP3    H135390   3.758   1.605   0.626 -1.0043  1.7201  0.0596
 4585TIP3    H235391   3.680   1.683   0.730 -1.1878 -1.7464  2.6963
 4586TIP3   OH235392   6.485   1.492   0.607 -0.2914  0.0815  0.1400
 4586TIP3    H135393   6.575   1.524   0.600  0.0868 -1.3264 -2.6029
 4586TIP3    H235394   6.491   1.398   0.594 -2.1133 -0.1636  0.7048
 4587TIP3   OH235395   1.071   6.370   7.820 -0.2478 -0.3193 -0.0363
 4587TIP3    H135396   1.076   6.415   7.736  1.3620 -2.1262 -1.0113
 4587TIP3    H235397   1.137   6.413   7.875 -0.2106 -0.1220 -0.2375
 4588TIP3   OH235398   1.070   1.538   1.935  0.2960 -0.3547 -0.3387
 4588TIP3    H135399   0.993   1.557   1.883 -0.4979  0.5903  1.1243
 4588TIP3    H235400   1.040   1.473   1.999  1.2100 -1.3733 -0.8984
 4589TIP3   OH235401   3.084   0.504   2.031  1.0394  0.4171  0.1018
 4589TIP3    H135402   3.084   0.491   1.936 -0.7299  2.1617 -0.1963
 4589TIP3    H235403   3.097   0.598   2.043 -3.2026  1.0880  1.2744
 4590TIP3   OH235404   1.302   4.275   0.005 -0.0380 -0.0468 -0.1145
 4590TIP3    H135405   1.329   4.219  -0.067 -1.6122  0.1951 -0.9299
 4590TIP3    H235406   1.330   4.363  -0.022 -1.7456  0.2434 -1.0795
 4591TIP3   OH235407   3.705   1.683   1.455  0.1292 -0.6126  0.0288
 4591TIP3    H135408   3.714   1.637   1.538  1.3885  0.0443  0.2798
 4591TIP3    H235409   3.762   1.634   1.395  1.2130  0.3782  0.2143
 4592TIP3   OH235410   4.375   0.091   7.231 -0.2244 -0.0215  0.0107
 4592TIP3    H135411   4.341   0.129   7.312  0.4586  1.1337 -0.2213
 4592TIP3    H235412   4.305   0.105   7.167 -0.3778 -0.0517  0.1717
 4593TIP3   OH235413   4.576   1.080   2.408  0.0748  0.5274 -0.2767
 4593TIP3    H135414   4.544   1.133   2.480 -2.0744 -2.0451  0.8182
 4593TIP3    H235415   4.539   1.121   2.329  0.1048  1.7278  0.3165
 4594TIP3   OH235416   6.023   1.013   1.308  0.0638 -0.3163  0.6232
 4594TIP3    H135417   6.058   1.018   1.396 -0.2108 -0.0256  0.7212
 4594TIP3    H235418   5.939   0.968   1.317 -0.2336  0.2250  0.5982
 4595TIP3   OH235419   5.290   2.015   3.156 -0.3753  0.2116  0.5768
 4595TIP3    H135420   5.347   1.946   3.120 -1.7220 -0.5249 -0.2521
 4595TIP3    H235421   5.208   1.969   3.176 -1.0525  1.4404  0.7026
 4596TIP3   OH235422   5.892   1.589   2.266  0.0396 -0.6864  0.6452
 4596TIP3    H135423   5.891   1.500   2.302  0.1262 -0.6876  0.6448
 4596TIP3    H235424   5.892   1.646   2.343  1.3941 -0.6949  0.6717
 4597TIP3   OH235425   1.060   4.107   6.832 -0.5265 -0.2153  0.2407
 4597TIP3    H135426   0.999   4.170   6.793  1.6867  1.1733 -1.1750
 4597TIP3    H235427   1.120   4.160   6.884  0.7451 -1.2427 -0.1241
 4598TIP3   OH235428   1.910   5.943   7.023  0.4909  0.5690  0.3939
 4598TIP3    H135429   1.983   5.954   6.962 -0.2213 -2.0858 -1.0960
 4598TIP3    H235430   1.923   5.857   7.061 -0.8767  0.8160  1.5134
 4599TIP3   OH235431   3.284   2.514   1.235  0.5233  0.7482  0.2945
 4599TIP3    H135432   3.338   2.487   1.161  0.0701  0.7187 -0.0298
 4599TIP3    H235433   3.194   2.506   1.203  0.1904 -1.4979  1.5754
 4600TIP3   OH235434   4.544   6.698   0.631 -0.5751  0.3207 -0.2823
 4600TIP3    H135435   4.591   6.658   0.704 -0.3327 -1.5675 -1.4070
 4600TIP3    H235436   4.613   6.729   0.572 -0.7665  2.0331  0.3386
 4601TIP3   OH235437   3.137   2.293   2.247  0.5309  0.2437  0.0394
 4601TIP3    H135438   3.225   2.259   2.259  0.9955  1.8585  1.6727
 4601TIP3    H235439   3.086   2.257   2.320 -0.2204 -0.7208 -0.9189
 4602TIP3   OH235440   4.239   2.439   0.536  0.8031 -0.1053  0.4604
 4602TIP3    H135441   4.298   2.378   0.491  0.6303 -0.5212  0.7930
 4602TIP3    H235442   4.292   2.518   0.547  1.8708 -0.9994  2.1847
 4603TIP3   OH235443   1.736   5.855   0.849  0.4629  0.5812 -0.7885
 4603TIP3    H135444   1.768   5.902   0.927 -4.0023 -0.9667  2.4086
 4603TIP3    H235445   1.695   5.923   0.796  2.1423  1.4375 -1.0792
 4604TIP3   OH235446   3.252   0.649   7.358  0.0841  0.4498  0.1414
 4604TIP3    H135447   3.325   0.646   7.295  0.4824  1.0182  0.5613
 4604TIP3    H235448   3.234   0.743   7.368 -0.8311  0.3105 -0.0869
 4605TIP3   OH235449   4.185   4.112   0.571  0.7336  0.2511  0.4738
 4605TIP3    H135450   4.217   4.038   0.624  1.8799 -1.0248 -1.8731
 4605TIP3    H235451   4.261   4.169   0.561  0.5747  0.3968  0.0806
 4606TIP3   OH235452   4.232   0.358   2.521 -0.2077 -0.2574  1.0529
 4606TIP3    H135453   4.167   0.316   2.577  0.2142 -1.1052  0.9203
 4606TIP3    H235454   4.198   0.447   2.507 -2.1282 -1.1406 -0.2870
 4607TIP3   OH235455   0.032   3.247   7.533  1.1149  0.0110 -0.2325
 4607TIP3    H135456   0.002   3.338   7.541  1.0005 -0.0440 -0.0238
 4607TIP3    H235457   0.075   3.228   7.617  0.4453 -0.3797  0.0267
 4608TIP3   OH235458   0.507   6.368   0.046  0.0891  0.1675  0.2629
 4608TIP3    H135459   0.470   6.325  -0.031  1.2021  0.9494 -0.7369
 4608TIP3    H235460   0.456   6.448   0.055 -0.1513 -0.0039  0.4525
 4609TIP3   OH235461   3.784   1.237   1.546 -0.4465 -0.3437  0.7255
 4609TIP3    H135462   3.755   1.263   1.458 -3.0998 -2.9123  0.6723
 4609TIP3    H235463   3.860   1.181   1.531  0.1551  0.5711  0.2455
 4610TIP3   OH235464   2.698   0.974   0.298  0.4604 -0.1949  0.0251
 4610TIP3    H135465   2.748   1.054   0.282 -0.0372 -0.1890 -1.8439
 4610TIP3    H235466   2.677   0.977   0.391  1.1274  1.4507  0.1694
 4611TIP3   OH235467   0.558   6.565   7.968  0.1179 -0.3928  0.0539
 4611TIP3    H135468   0.520   6.496   8.023  0.6677 -0.1488  0.7569
 4611TIP3    H235469   0.517   6.646   7.997  0.0710 -0.3170 -0.2170
 4612TIP3   OH235470   2.705   0.622   8.413  0.0985  0.0231 -0.7051
 4612TIP3    H135471   2.757   0.698   8.388 -0.0485  0.7495  1.0171
 4612TIP3    H235472   2.766   0.549   8.411  0.5655  0.4207 -1.0848
 4613TIP3   OH235473   4.113   5.090   8.655  0.2037 -0.2131 -0.1689
 4613TIP3    H135474   4.138   4.998   8.663 -0.5131 -0.4339 -0.4122
 4613TIP3    H235475   4.023   5.088   8.625  0.1559  0.5743 -0.1036
 4614TIP3   OH235476   2.401   1.317   1.692 -0.5168 -0.9651  0.1349
 4614TIP3    H135477   2.368   1.356   1.611  0.3095  0.9301  0.6554
 4614TIP3    H235478   2.336   1.250   1.715 -2.4245  0.6099 -0.4361
 4615TIP3   OH235479   5.823   2.689   7.405  0.2836 -0.7349  0.1515
 4615TIP3    H135480   5.783   2.748   7.469 -2.5732 -1.4506 -0.8143
 4615TIP3    H235481   5.875   2.628   7.456  1.0523  0.8877  1.4025
 4616TIP3   OH235482   2.390   2.354   2.252  0.2155  0.3596  0.0211
 4616TIP3    H135483   2.471   2.348   2.304 -1.3095  0.8132  2.6205
 4616TIP3    H235484   2.352   2.438   2.278 -0.9895  0.2718 -1.3606
 4617TIP3   OH235485   3.508   0.917   8.239 -0.0341  0.1057 -0.2842
 4617TIP3    H135486   3.517   0.859   8.314 -0.2876  1.5079  0.8693
 4617TIP3    H235487   3.454   0.868   8.177  0.4801 -1.2172  0.2772
 4618TIP3   OH235488   3.012   2.678   7.240  0.3148 -0.1893  0.1603
 4618TIP3    H135489   2.931   2.627   7.244 -0.1791  0.5982  0.7038
 4618TIP3    H235490   3.006   2.727   7.158 -0.2794  0.6653  0.6943
 4619TIP3   OH235491   0.712   0.100   1.926 -0.3297  0.0819  0.1691
 4619TIP3    H135492   0.769   0.104   2.002 -3.2347  2.0543  2.5080
 4619TIP3    H235493   0.714   0.189   1.889 -2.9853  0.7610  1.3872
 4620TIP3   OH235494   2.706   0.260   0.046  0.4155  0.1359 -0.4732
 4620TIP3    H135495   2.741   0.349   0.034  1.3500 -0.3214 -1.2597
 4620TIP3    H235496   2.657   0.242  -0.034  3.3930 -1.4336 -2.1309
 4621TIP3   OH235497   5.806   6.043   1.611 -0.1053 -0.0341  0.3192
 4621TIP3    H135498   5.891   6.007   1.582 -0.0160  1.3511 -1.3239
 4621TIP3    H235499   5.794   6.009   1.699  0.9383 -2.3573 -0.3665
 4622TIP3   OH235500   0.188   3.390   6.991  0.3049  0.0472 -1.0124
 4622TIP3    H135501   0.123   3.364   7.055  1.0599 -0.7381 -0.5442
 4622TIP3    H235502   0.164   3.343   6.911  1.0211 -1.2618 -0.4812
 4623TIP3   OH235503   1.770   1.059   7.382 -0.4386  0.1736  0.0956
 4623TIP3    H135504   1.774   0.970   7.416 -0.9969  1.0142  2.5548
 4623TIP3    H235505   1.831   1.059   7.309 -0.9929 -2.3981 -0.4838
 4624TIP3   OH235506   6.580   4.478   8.318 -0.2728  0.1669 -0.2820
 4624TIP3    H135507   6.514   4.418   8.285 -0.5402  0.2989  0.0117
 4624TIP3    H235508   6.554   4.564   8.285 -0.0289  0.1622 -0.4928
 4625TIP3   OH235509   1.104   2.866   0.011  0.3291  0.4279  0.8087
 4625TIP3    H135510   1.035   2.810   0.047  0.0090  0.2934  0.0101
 4625TIP3    H235511   1.114   2.837  -0.080  2.1771 -0.2507  1.1897
 4626TIP3   OH235512   0.909   3.371   8.617  0.4528  0.1516  0.3080
 4626TIP3    H135513   0.915   3.299   8.680  0.0273  0.5777  0.8488
 4626TIP3    H235514   0.877   3.331   8.537  1.7963 -0.5561  0.0891
 4627TIP3   OH235515   0.343   4.033   1.749 -0.2014  0.4395  0.1631
 4627TIP3    H135516   0.262   4.052   1.702  0.2653 -0.0131 -0.8431
 4627TIP3    H235517   0.398   3.987   1.686  1.1059  1.3219  0.6061
 4628TIP3   OH235518   4.732   2.290   1.958 -0.3596 -0.5182 -0.2308
 4628TIP3    H135519   4.733   2.251   1.870  0.0209 -0.6619 -0.1647
 4628TIP3    H235520   4.639   2.299   1.979 -0.4564 -0.3571 -0.7036
 4629TIP3   OH235521   1.040   2.065   1.644 -0.1045  0.0075  0.3862
 4629TIP3    H135522   1.130   2.053   1.673 -0.4516  0.0782  1.5279
 4629TIP3    H235523   1.033   2.011   1.565  0.9983  0.1942  0.1382
 4630TIP3   OH235524   2.354   4.335   2.422 -0.6677  0.3857 -0.0696
 4630TIP3    H135525   2.375   4.306   2.334  2.1757 -0.5438  0.7996
 4630TIP3    H235526   2.328   4.427   2.413  0.4329  0.5531 -1.7529
 4631TIP3   OH235527   3.969   4.832   7.291 -0.1869 -0.0489  0.4517
 4631TIP3    H135528   3.996   4.891   7.362  1.2727  0.6598 -0.6521
 4631TIP3    H235529   3.994   4.877   7.211  0.5587 -1.9502 -0.4487
 4632TIP3   OH235530   4.866   4.978   1.084 -0.0811 -0.4478  0.1162
 4632TIP3    H135531   4.897   4.992   0.994  0.6220  0.8687  0.5421
 4632TIP3    H235532   4.846   4.884   1.088 -0.7302 -0.4181 -1.5943
 4633TIP3   OH235533   5.494   5.745   1.787  0.2489  0.2597  0.3299
 4633TIP3    H135534   5.532   5.758   1.700 -0.6195 -0.5357 -0.2005
 4633TIP3    H235535   5.560   5.777   1.848  0.5709  1.5397 -0.6448
 4634TIP3   OH235536   2.982   2.306   0.787 -0.2632  0.5205  0.4715
 4634TIP3    H135537   2.888   2.314   0.773 -0.0629  1.4772 -0.4660
 4634TIP3    H235538   3.010   2.394   0.813  0.3311  0.1666  1.0787
 4635TIP3   OH235539   2.082   1.537   2.310 -0.3100  0.1731  0.0730
 4635TIP3    H135540   2.065   1.532   2.404 -0.8059  1.0991  0.0488
 4635TIP3    H235541   2.077   1.446   2.280 -3.8613  0.1327  0.3519
 4636TIP3   OH235542   0.705   1.693   8.190 -0.2362 -0.3949 -0.2833
 4636TIP3    H135543   0.754   1.735   8.260 -0.8535  1.2345 -0.7731
 4636TIP3    H235544   0.769   1.638   8.145  1.2572  1.8691 -1.0710
 4637TIP3   OH235545   4.466   5.292   8.060 -0.2252 -0.0557  0.1606
 4637TIP3    H135546   4.452   5.337   7.976  1.8266  0.8776  0.2757
 4637TIP3    H235547   4.423   5.207   8.048 -0.0470  0.0849 -1.8189
 4638TIP3   OH235548   3.784   0.906   1.701 -0.2930 -0.4043  0.4562
 4638TIP3    H135549   3.830   0.840   1.753  1.9174  1.4430  1.0092
 4638TIP3    H235550   3.766   0.977   1.763 -1.0944  0.2264 -0.4769
 4639TIP3   OH235551   6.538   5.452   0.283 -0.0246 -0.3984 -0.1601
 4639TIP3    H135552   6.545   5.356   0.279  0.9478 -0.3172 -0.7021
 4639TIP3    H235553   6.628   5.481   0.300 -0.0779  0.4722 -1.2581
 4640TIP3   OH235554   6.585   3.150   7.696  0.4180  0.1595 -0.4926
 4640TIP3    H135555   6.515   3.124   7.756 -0.7734  1.9670 -1.0038
 4640TIP3    H235556   6.664   3.110   7.733 -0.5303 -0.1415  1.3507
 4641TIP3   OH235557   2.597   2.612   8.148 -0.4420 -0.5407 -0.2046
 4641TIP3    H135558   2.632   2.534   8.190  1.3976  0.7289  0.7257
 4641TIP3    H235559   2.506   2.617   8.177 -0.7322 -2.5420 -0.6460
 4642TIP3   OH235560   0.678   6.267   7.922 -0.1200  0.4055  0.6560
 4642TIP3    H135561   0.742   6.210   7.880  0.3326  2.0060 -0.9580
 4642TIP3    H235562   0.593   6.235   7.892 -0.0965 -1.1973  2.1357
 4643TIP3   OH235563   4.685   2.159   1.690 -0.5547 -0.6782  0.0053
 4643TIP3    H135564   4.777   2.131   1.695 -0.4625 -0.3211  0.3822
 4643TIP3    H235565   4.637   2.079   1.669  0.0311 -0.5143 -2.0953
 4644TIP3   OH235566   4.934   0.606   8.044 -0.4723  0.1375 -0.5300
 4644TIP3    H135567   4.932   0.629   7.951 -0.1988  0.4039 -0.4695
 4644TIP3    H235568   5.021   0.568   8.057 -0.2121  0.8423 -0.2023
 4645TIP3   OH235569   0.668   4.979   1.229  0.2561  0.2506  0.1397
 4645TIP3    H135570   0.704   4.902   1.185  1.1710  0.9055 -0.2711
 4645TIP3    H235571   0.743   5.020   1.272 -0.0318  1.4657 -0.4821
 4646TIP3   OH235572   2.724   5.351   8.384  0.4618  0.5204 -0.6144
 4646TIP3    H135573   2.700   5.278   8.328 -1.1393  1.0310 -0.6545
 4646TIP3    H235574   2.669   5.340   8.462  1.6276  0.5998  0.2354
 4647TIP3   OH235575   4.173   2.310   7.201  0.0783  0.0281 -0.4808
 4647TIP3    H135576   4.107   2.245   7.177  0.5292 -0.8434  0.5936
 4647TIP3    H235577   4.256   2.263   7.198  0.3753  0.4419  0.6762
 4648TIP3   OH235578   4.895   4.851   0.635  0.0733 -0.0466 -0.6270
 4648TIP3    H135579   4.936   4.902   0.566 -1.0945  0.5356 -0.9246
 4648TIP3    H235580   4.834   4.793   0.589 -0.5428  0.1751 -0.1069
 4649TIP3   OH235581   6.334   1.972   0.133 -0.0439  0.2324  1.2510
 4649TIP3    H135582   6.372   1.914   0.199 -2.5339  0.2141  2.8222
 4649TIP3    H235583   6.325   2.056   0.178 -0.8725  0.4920  0.6197
 4650TIP3   OH235584   0.477   1.184   7.680 -0.4884 -0.3905  0.2298
 4650TIP3    H135585   0.484   1.262   7.735 -2.7827  0.4683 -0.5646
 4650TIP3    H235586   0.434   1.215   7.600  2.3120 -1.6842 -1.9181
 4651TIP3   OH235587   6.279   0.602   1.478  0.1644 -0.1368  0.2715
 4651TIP3    H135588   6.353   0.663   1.477  0.7504 -0.8006 -2.2888
 4651TIP3    H235589   6.217   0.638   1.415 -1.3618 -0.0920  1.7037
 4652TIP3   OH235590   5.125   0.487   1.926  0.1385 -0.1420 -0.1513
 4652TIP3    H135591   5.102   0.504   2.017 -0.0082 -0.7036 -0.0798
 4652TIP3    H235592   5.191   0.418   1.931  0.5215  0.1977 -0.4466
 4653TIP3   OH235593   6.311   6.745   7.923  0.2501 -0.5781 -0.2072
 4653TIP3    H135594   6.334   6.720   7.833 -0.7783  0.0639 -0.6599
 4653TIP3    H235595   6.391   6.784   7.958  1.4923 -3.1570  0.0597
 4654TIP3   OH235596   5.934   0.365   8.816 -0.2193 -0.0087  0.7623
 4654TIP3    H135597   5.995   0.364   8.743 -0.3086 -0.6286  0.6835
 4654TIP3    H235598   5.884   0.446   8.806 -1.3095 -0.8254 -0.7799
 4655TIP3   OH235599   5.693   1.352   1.132 -0.6078 -0.0666 -0.0516
 4655TIP3    H135600   5.653   1.342   1.046 -0.6418  0.6834 -0.1343
 4655TIP3    H235601   5.673   1.442   1.157 -0.4929 -0.2386  0.6902
 4656TIP3   OH235602   5.929   6.613   8.412 -0.0677  0.9996  0.1980
 4656TIP3    H135603   5.867   6.634   8.342 -1.5758  0.7450  1.3964
 4656TIP3    H235604   5.941   6.696   8.459 -0.7529  0.7002  0.9127
 4657TIP3   OH235605   1.517   5.842   1.219  0.5992  0.1620 -0.1562
 4657TIP3    H135606   1.504   5.762   1.169  0.1033  0.6228 -0.7692
 4657TIP3    H235607   1.599   5.828   1.266 -0.1314 -1.2428  0.7885
 4658TIP3   OH235608   6.827   2.621   8.222 -0.2094  0.3680  0.3506
 4658TIP3    H135609   6.767   2.596   8.292  1.5402  0.0277  1.7976
 4658TIP3    H235610   6.827   2.546   8.162 -2.0045  0.8154 -0.2769
 4659TIP3   OH235611   0.675   5.296   6.879 -0.1214 -0.3789  0.2171
 4659TIP3    H135612   0.705   5.222   6.826  1.0135  0.1214  0.1319
 4659TIP3    H235613   0.665   5.259   6.967  1.9020 -0.3563  0.5225
 4660TIP3   OH235614   5.180   4.544   2.478  0.2713 -0.1497  0.7474
 4660TIP3    H135615   5.108   4.496   2.438 -0.3224  0.8464  0.5714
 4660TIP3    H235616   5.137   4.612   2.530  1.0795  0.0585  1.1702
 4661TIP3   OH235617   4.271   3.983   0.828  0.2141  0.1362  0.1737
 4661TIP3    H135618   4.314   3.903   0.858 -0.1491 -0.2316 -0.2951
 4661TIP3    H235619   4.328   4.053   0.860  0.7395 -0.3198  0.2528
 4662TIP3   OH235620   2.186   2.557   1.413  0.3067 -0.4766  0.2010
 4662TIP3    H135621   2.195   2.617   1.338  0.2820 -1.4206 -0.5793
 4662TIP3    H235622   2.222   2.474   1.382 -0.6070 -1.1566  0.8963
 4663TIP3   OH235623   6.100   0.905   0.895  0.4770  0.0276 -0.8897
 4663TIP3    H135624   6.185   0.932   0.862  0.6398 -0.9288 -1.2867
 4663TIP3    H235625   6.038   0.964   0.852  1.1179  3.4179  2.3327
 4664TIP3   OH235626   1.081   0.034   1.424  0.2249  0.4632  0.4187
 4664TIP3    H135627   1.124   0.117   1.405  0.0862  0.2478 -0.8893
 4664TIP3    H235628   1.152  -0.025   1.449  0.4528  0.6710  0.2628
 4665TIP3   OH235629   0.151   3.794   2.197 -0.3717  0.6865  0.4833
 4665TIP3    H135630   0.117   3.732   2.261  0.8364  0.2682  0.7579
 4665TIP3    H235631   0.129   3.880   2.232  0.9670  0.4950  1.9053
 4666TIP3   OH235632   4.186   2.178   2.662  0.0440  0.1231  0.2451
 4666TIP3    H135633   4.280   2.167   2.673 -0.1823 -0.8772  1.3088
 4666TIP3    H235634   4.174   2.272   2.645  1.1422  0.4088  1.0043
 4667TIP3   OH235635   1.816   0.196   1.034 -0.1246  0.1213 -0.0998
 4667TIP3    H135636   1.799   0.212   1.127 -1.0758  2.1576 -0.5582
 4667TIP3    H235637   1.889   0.135   1.032 -0.3946 -0.3193  1.9822
 4668TIP3   OH235638   6.257   2.898   1.749 -0.2303 -0.5736  0.5877
 4668TIP3    H135639   6.266   2.856   1.663  0.2323  0.7878 -0.0667
 4668TIP3    H235640   6.263   2.826   1.812  0.2230 -1.5098 -0.4851
 4669TIP3   OH235641   0.846   2.691   0.956  0.3360  0.0332 -0.2446
 4669TIP3    H135642   0.938   2.711   0.973  0.6877 -1.3403 -0.3994
 4669TIP3    H235643   0.818   2.639   1.031  0.4654 -1.8053 -1.4188
 4670TIP3   OH235644   3.372   1.860   0.556 -0.3203 -0.0335  0.6929
 4670TIP3    H135645   3.324   1.782   0.586  0.2545 -0.5040  0.4279
 4670TIP3    H235646   3.444   1.868   0.619 -0.0724 -0.0361  0.4100
 4671TIP3   OH235647   4.411   4.802   6.974 -0.2273 -0.0543 -0.6149
 4671TIP3    H135648   4.440   4.817   6.884 -0.5713 -0.6364 -0.8289
 4671TIP3    H235649   4.484   4.833   7.028  0.1315 -0.0356 -1.1037
 4672TIP3   OH235650   2.622   2.368   8.273  0.0021  0.1390 -0.5259
 4672TIP3    H135651   2.704   2.382   8.320 -0.2456  0.2386 -0.1246
 4672TIP3    H235652   2.645   2.307   8.203  0.5899  0.7681 -0.8945
 4673TIP3   OH235653   2.327   0.809   7.496 -0.0455  0.4391  0.2566
 4673TIP3    H135654   2.255   0.854   7.451  0.7268  0.4954 -0.9622
 4673TIP3    H235655   2.296   0.719   7.505 -1.8416  1.1742  3.2130
 4674TIP3   OH235656   5.150   0.422   8.010  0.0058  0.2802 -0.1780
 4674TIP3    H135657   5.245   0.409   8.017  0.2826  1.2765 -1.6398
 4674TIP3    H235658   5.119   0.345   7.962 -0.3193 -1.2039  2.2530
 4675TIP3   OH235659   0.437   5.452   1.876  0.1547 -0.2999 -0.3913
 4675TIP3    H135660   0.343   5.439   1.868 -0.1782  1.3087  0.3428
 4675TIP3    H235661   0.467   5.380   1.931 -1.2684  0.9175  2.1948
 4676TIP3   OH235662   5.012   4.873   1.678 -0.4403  0.1710  0.1294
 4676TIP3    H135663   4.962   4.938   1.728  0.4320  1.2280 -0.3206
 4676TIP3    H235664   5.080   4.844   1.738 -2.0472 -1.9488  1.0600
 4677TIP3   OH235665   1.829   1.330   1.169 -0.7107  0.4311  0.1728
 4677TIP3    H135666   1.871   1.283   1.241 -0.6993  1.7565  1.0603
 4677TIP3    H235667   1.736   1.308   1.177 -0.5028 -0.8322 -0.5232
 4678TIP3   OH235668   1.842   2.902   1.131  0.2095 -0.2255  0.0123
 4678TIP3    H135669   1.926   2.907   1.084  0.0742  0.2822 -0.1809
 4678TIP3    H235670   1.861   2.848   1.208  0.3386 -1.3924 -0.8168
 4679TIP3   OH235671   2.149   2.614   0.605  0.2344 -0.4755 -0.6952
 4679TIP3    H135672   2.148   2.530   0.561  2.4766 -0.8433 -0.1825
 4679TIP3    H235673   2.115   2.596   0.693  0.0975 -0.6992 -0.7939
 4680TIP3   OH235674   5.477   4.400   1.626  0.0790  0.1289 -0.7073
 4680TIP3    H135675   5.450   4.365   1.711  0.9140 -1.5417 -1.0977
 4680TIP3    H235676   5.536   4.473   1.648  0.7790 -0.6714  0.1613
 4681TIP3   OH235677   0.961   5.018   7.203 -0.3613 -0.0714  0.0625
 4681TIP3    H135678   1.013   5.085   7.246 -0.2968 -0.5019  0.6634
 4681TIP3    H235679   0.983   4.937   7.249 -1.9423 -0.1883  0.6625
 4682TIP3   OH235680   2.989   4.234   8.681 -0.1317  0.1161  0.6336
 4682TIP3    H135681   3.064   4.196   8.726 -0.1889 -1.0429 -0.1977
 4682TIP3    H235682   2.981   4.323   8.717  1.5634  0.2208  0.8121
 4683TIP3   OH235683   6.241   4.084   1.026 -0.2375  0.2213 -0.0327
 4683TIP3    H135684   6.301   4.032   0.972  1.0168 -0.1593  1.6060
 4683TIP3    H235685   6.273   4.071   1.116 -0.6615  2.8062  0.5801
 4684TIP3   OH235686   6.641   0.475   8.291 -1.0932 -0.5933  0.6739
 4684TIP3    H135687   6.603   0.501   8.207  0.3547 -0.5240 -0.0020
 4684TIP3    H235688   6.588   0.519   8.357  0.0939  2.6870 -0.3367
 4685TIP3   OH235689   6.435   4.299   8.746  0.5212 -0.2140  0.2129
 4685TIP3    H135690   6.467   4.240   8.814  0.4302 -0.7174 -0.1802
 4685TIP3    H235691   6.513   4.324   8.697  0.4721 -0.5330 -0.0309
 4686TIP3   OH235692   3.731   5.767   7.872 -0.1142  0.8292  1.0274
 4686TIP3    H135693   3.776   5.810   7.799  0.0172  2.2753  1.9162
 4686TIP3    H235694   3.671   5.705   7.830 -0.9011  2.4571 -0.3804
 4687TIP3   OH235695   3.807   0.215   1.617 -0.0562  0.5209  0.1749
 4687TIP3    H135696   3.771   0.185   1.701  1.7058  1.3532  1.3013
 4687TIP3    H235697   3.826   0.308   1.631  0.0183  0.7443 -1.2663
 4688TIP3   OH235698   4.881   5.523   7.122  0.2372  0.1371  0.6692
 4688TIP3    H135699   4.802   5.571   7.099  1.1945  1.3880 -0.1704
 4688TIP3    H235700   4.853   5.459   7.188 -0.9370  2.4107  2.4936
 4689TIP3   OH235701   1.690   4.021   1.928 -0.8113 -0.6114  0.0751
 4689TIP3    H135702   1.734   4.096   1.968  1.2077 -1.9098  0.4537
 4689TIP3    H235703   1.632   4.059   1.862  0.3306  1.2688  0.0836
 4690TIP3   OH235704   0.935   5.725   1.182  0.2401 -0.0346  0.0098
 4690TIP3    H135705   0.990   5.669   1.128 -2.7743 -0.8977 -2.4597
 4690TIP3    H235706   0.901   5.791   1.122 -1.9700 -0.0140  1.1909
 4691TIP3   OH235707   1.091   2.208   6.746 -0.2846  1.3295 -0.2029
 4691TIP3    H135708   1.139   2.127   6.729  0.7272  1.9656 -0.4607
 4691TIP3    H235709   1.052   2.231   6.662 -1.0860  0.8099  0.0082
 4692TIP3   OH235710   5.692   0.947   0.340  0.1497  0.0130  0.1595
 4692TIP3    H135711   5.762   0.998   0.299  0.5049 -1.7590 -1.5501
 4692TIP3    H235712   5.661   0.888   0.272 -0.1112 -2.2163  2.0792
 4693TIP3   OH235713   0.320   4.344   0.357 -0.8384 -0.2275  0.1780
 4693TIP3    H135714   0.310   4.439   0.361  2.7453  0.2984 -0.0370
 4693TIP3    H235715   0.309   4.323   0.264 -1.2056  0.0148  0.1622
 4694TIP3   OH235716   0.931   0.381   1.871  0.3271 -0.0998  0.6006
 4694TIP3    H135717   0.944   0.420   1.784  0.4397  0.5948  0.9190
 4694TIP3    H235718   0.838   0.360   1.874  0.4057 -0.5527  0.1473
 4695TIP3   OH235719   6.284   2.208   2.635 -0.4188  0.1474  0.1294
 4695TIP3    H135720   6.257   2.166   2.717 -0.3201 -0.0447  0.0640
 4695TIP3    H235721   6.202   2.232   2.593 -0.4862 -0.2220  0.0424
 4696TIP3   OH235722   0.748   1.886   0.696  0.0747 -0.5569  0.4348
 4696TIP3    H135723   0.681   1.857   0.758 -0.7857  2.7568  1.2714
 4696TIP3    H235724   0.831   1.863   0.739 -0.5132  0.9123  2.5364
 4697TIP3   OH235725   2.156   5.036   8.333 -0.3093 -0.5459 -0.1337
 4697TIP3    H135726   2.069   5.025   8.373 -0.2187 -1.5180 -0.1880
 4697TIP3    H235727   2.141   5.023   8.240  0.1032 -2.0043 -0.0096
 4698TIP3   OH235728   4.986   0.565   1.244 -0.0339  1.0322  0.2382
 4698TIP3    H135729   5.073   0.531   1.267 -0.7154 -0.5147  0.6824
 4698TIP3    H235730   4.982   0.557   1.149 -0.0181  0.2059  0.2959
 4699TIP3   OH235731   2.479   5.460   7.695 -0.9142  0.0320 -0.1044
 4699TIP3    H135732   2.476   5.388   7.758  1.9254 -0.1737 -0.0945
 4699TIP3    H235733   2.521   5.422   7.618 -0.3355  1.4130 -0.4878
 4700TIP3   OH235734   2.084   5.919   8.312  0.1775 -0.5462  0.9036
 4700TIP3    H135735   2.075   5.888   8.402  2.8427 -0.2685  1.3516
 4700TIP3    H235736   2.088   5.840   8.260  0.8870 -0.8069  1.3313
 4701TIP3   OH235737   0.980   5.275   6.740 -0.2440 -0.1554  0.9319
 4701TIP3    H135738   0.923   5.351   6.756 -0.5291 -0.0213 -0.5467
 4701TIP3    H235739   1.058   5.312   6.699 -0.6298 -0.6852 -0.3454
 4702TIP3   OH235740   5.862   1.464   0.626  0.6961 -0.1454  0.2806
 4702TIP3    H135741   5.814   1.397   0.673  2.4083 -2.0464 -0.5367
 4702TIP3    H235742   5.903   1.517   0.695  0.0010 -0.4213  0.9186
 4703TIP3   OH235743   1.518   6.635   8.269  0.1502 -0.0700 -0.1093
 4703TIP3    H135744   1.498   6.664   8.357 -1.7051  0.3958 -0.6275
 4703TIP3    H235745   1.612   6.617   8.269 -0.0516 -1.5402  2.3647
 4704TIP3   OH235746   4.120   4.529   8.496  0.1031  0.8480 -0.9034
 4704TIP3    H135747   4.053   4.579   8.543  0.0728  1.2286 -1.3502
 4704TIP3    H235748   4.169   4.485   8.565  0.6282  2.1014 -0.4501
 4705TIP3   OH235749   6.547   3.279   6.711  0.4447  0.0962  0.5035
 4705TIP3    H135750   6.465   3.241   6.678  1.2073 -1.1019 -0.1140
 4705TIP3    H235751   6.545   3.262   6.805  0.5982 -1.2170  0.2930
 4706TIP3   OH235752   5.946   2.414   1.402  0.2819  0.1863 -0.5443
 4706TIP3    H135753   5.877   2.365   1.447  0.9493 -1.8198 -1.5869
 4706TIP3    H235754   6.018   2.420   1.465 -0.9102  2.7517  0.7455
 4707TIP3   OH235755   0.863   3.222   0.258  0.2661 -0.4438  0.1245
 4707TIP3    H135756   0.874   3.127   0.271  1.3521 -0.1792  1.3020
 4707TIP3    H235757   0.940   3.261   0.300 -1.1144  1.0633  1.3901
 4708TIP3   OH235758   3.293   4.774   0.557  0.2087 -0.8098 -0.6211
 4708TIP3    H135759   3.326   4.758   0.469  0.2181  0.6278 -0.8935
 4708TIP3    H235760   3.366   4.815   0.603 -0.5618  0.7101 -0.6893
 4709TIP3   OH235761   1.804   3.412   2.846  0.2791 -0.5237 -0.2572
 4709TIP3    H135762   1.832   3.322   2.835  1.1338 -0.2527 -0.3949
 4709TIP3    H235763   1.885   3.463   2.847  0.2084 -0.1097  3.9098
 4710TIP3   OH235764   1.042   2.055   0.184  0.0212  0.0619  0.8749
 4710TIP3    H135765   0.994   1.987   0.137  0.8186 -0.1789  0.3996
 4710TIP3    H235766   1.068   2.013   0.266 -1.0916  0.3848  1.4215
 4711TIP3   OH235767   5.453   3.523   7.116  0.4794  0.2730 -0.0222
 4711TIP3    H135768   5.457   3.579   7.038  1.7064 -0.2360 -0.3364
 4711TIP3    H235769   5.543   3.521   7.149 -0.2605  1.8047  2.3882
 4712TIP3   OH235770   6.759   3.231   8.499  0.6201  0.4798  0.6870
 4712TIP3    H135771   6.833   3.262   8.448  0.0992 -1.2233 -1.2492
 4712TIP3    H235772   6.686   3.286   8.471  0.0509 -1.2647 -1.5199
 4713TIP3   OH235773   6.019   1.078   2.418 -0.3094 -0.2080  0.0492
 4713TIP3    H135774   6.081   1.089   2.346  0.2374 -0.6472  0.4469
 4713TIP3    H235775   5.947   1.137   2.396 -0.3421 -0.6316 -1.0621
 4714TIP3   OH235776   0.616   1.794   6.748 -0.5188 -0.1600 -0.0107
 4714TIP3    H135777   0.589   1.847   6.823 -0.5696  0.1780 -0.2656
 4714TIP3    H235778   0.693   1.839   6.714 -0.2930 -0.5040  0.0453
 4715TIP3   OH235779   0.742   1.431   7.578  0.1889 -0.5424  0.0669
 4715TIP3    H135780   0.712   1.490   7.648  0.7651 -0.7993  0.5346
 4715TIP3    H235781   0.837   1.438   7.580  0.2968 -1.8376  0.4397
 4716TIP3   OH235782   1.630   2.786   7.826 -0.1628 -0.3561 -0.3689
 4716TIP3    H135783   1.554   2.841   7.844  0.1771  0.6989 -1.9947
 4716TIP3    H235784   1.603   2.728   7.756  0.3043 -0.4495 -0.4783
 4717TIP3   OH235785   2.788   4.139   2.445  0.3907 -0.8332 -0.2453
 4717TIP3    H135786   2.834   4.127   2.528 -1.7337 -0.8684  1.0116
 4717TIP3    H235787   2.731   4.063   2.439  0.8700 -1.0869 -2.0298
 4718TIP3   OH235788   5.912   0.651   8.729 -0.1666  0.0220 -0.2714
 4718TIP3    H135789   5.870   0.734   8.752  0.4686 -0.0281  1.2455
 4718TIP3    H235790   6.001   0.675   8.705 -0.5200 -0.0494 -1.7068
 4719TIP3   OH235791   0.480   3.801   7.174  0.3907 -0.2371 -0.4838
 4719TIP3    H135792   0.555   3.747   7.148  0.0967 -0.5313 -0.7229
 4719TIP3    H235793   0.427   3.743   7.229  0.7511  0.2238  0.3739
 4720TIP3   OH235794   5.737   5.273   2.067  0.5838  0.5706 -0.6051
 4720TIP3    H135795   5.811   5.317   2.110  0.9292 -0.2235 -0.3715
 4720TIP3    H235796   5.670   5.267   2.135  0.9797 -0.3192 -0.2726
 4721TIP3   OH235797   1.257   5.834   0.720  0.0909  0.0896  0.0735
 4721TIP3    H135798   1.285   5.786   0.642 -1.7751 -0.5325 -0.2622
 4721TIP3    H235799   1.271   5.773   0.793 -0.2125 -0.1463 -0.0641
 4722TIP3   OH235800   6.166   6.241   8.435 -0.2159  0.0054 -0.0188
 4722TIP3    H135801   6.208   6.159   8.461  0.5073  0.1398 -0.7305
 4722TIP3    H235802   6.089   6.214   8.386 -0.1803 -0.2509  0.0649
 4723TIP3   OH235803   6.628   1.936   7.294  0.1115 -0.2997  0.4825
 4723TIP3    H135804   6.679   1.921   7.215  0.5341 -1.8827  1.0322
 4723TIP3    H235805   6.542   1.963   7.263  0.8678  1.1368 -0.4698
 4724TIP3   OH235806   5.078   4.608   8.480  0.0983 -0.3652  0.1666
 4724TIP3    H135807   4.985   4.617   8.460  0.0893 -2.6877 -1.2602
 4724TIP3    H235808   5.082   4.600   8.575 -1.0916  0.2418  0.2787
 4725TIP3   OH235809   5.632   4.287   2.650  0.1398 -0.9691  0.2192
 4725TIP3    H135810   5.570   4.358   2.633  0.1478 -1.0441 -0.1225
 4725TIP3    H235811   5.699   4.297   2.583 -0.2959 -1.8035 -0.3619
 4726TIP3   OH235812   6.329   4.363   1.608  0.8385  0.2236  0.1733
 4726TIP3    H135813   6.327   4.277   1.567  0.3184  0.1446  0.3557
 4726TIP3    H235814   6.254   4.364   1.667  0.1754  1.2107 -0.6546
 4727TIP3   OH235815   6.234   0.779   1.706 -0.0076 -0.1325 -0.3502
 4727TIP3    H135816   6.242   0.683   1.710 -0.0760 -0.3067 -2.7801
 4727TIP3    H235817   6.318   0.811   1.738 -0.1227 -0.9825  0.8428
 4728TIP3   OH235818   6.060   5.969   1.533 -0.2719  0.2713 -0.5133
 4728TIP3    H135819   6.075   6.018   1.453  2.2435 -1.9411 -1.5515
 4728TIP3    H235820   6.148   5.953   1.568 -1.0449 -2.1017  0.5553
 4729TIP3   OH235821   4.247   6.163   7.788 -0.1095  0.1146 -0.7458
 4729TIP3    H135822   4.339   6.170   7.813  0.0708  1.0679 -1.6159
 4729TIP3    H235823   4.216   6.084   7.833  0.8609  0.3350  0.3546
 4730TIP3   OH235824   6.317   2.773   0.706  0.3092 -0.2207 -0.0157
 4730TIP3    H135825   6.348   2.862   0.720 -0.0862  0.3777 -2.5719
 4730TIP3    H235826   6.283   2.772   0.617 -2.1223 -2.2635  0.8032
 4731TIP3   OH235827   3.620   1.208   7.821  0.3216 -0.1208 -0.0713
 4731TIP3    H135828   3.648   1.136   7.764  0.7692 -0.9349  1.1268
 4731TIP3    H235829   3.701   1.249   7.849  0.0324  2.0984 -2.2033
 4732TIP3   OH235830   2.523   5.133   7.184  0.4158  0.6540  0.3118
 4732TIP3    H135831   2.561   5.219   7.163  3.1181 -0.7529 -1.1481
 4732TIP3    H235832   2.491   5.100   7.100  2.5265 -1.0738  0.0880
 4733TIP3   OH235833   3.853   2.319   2.821 -0.2063  0.1839 -0.1949
 4733TIP3    H135834   3.780   2.378   2.842  0.4974  0.5701  1.2819
 4733TIP3    H235835   3.811   2.235   2.799 -1.0831 -0.1190  2.3662
 4734TIP3   OH235836   2.493   3.251   7.360  0.2102 -0.4317  0.1900
 4734TIP3    H135837   2.408   3.284   7.330 -0.4291 -0.6802  1.6391
 4734TIP3    H235838   2.472   3.173   7.410  1.3493 -0.7651  0.1665
 4735TIP3   OH235839   6.362   1.325   6.612 -0.3030 -0.1195  0.7612
 4735TIP3    H135840   6.417   1.258   6.654 -2.1210 -2.7678 -0.7604
 4735TIP3    H235841   6.322   1.372   6.685  1.8565  0.1112  1.8871
 4736TIP3   OH235842   4.623   4.586   0.933  0.2410 -0.5976 -0.1908
 4736TIP3    H135843   4.573   4.662   0.903  0.4734 -0.1760  0.4877
 4736TIP3    H235844   4.682   4.566   0.860  1.7315  1.2348  0.4511
 4737TIP3   OH235845   6.120   0.490   0.241 -0.3685 -0.4017 -0.3990
 4737TIP3    H135846   6.148   0.442   0.319 -1.3238  0.4452  0.4903
 4737TIP3    H235847   6.122   0.582   0.266  1.1457  0.0586 -1.9927
 4738TIP3   OH235848   3.692   2.538   1.904 -0.1322 -0.0149  0.1241
 4738TIP3    H135849   3.712   2.493   1.987  0.3557  0.6126  0.3538
 4738TIP3    H235850   3.722   2.628   1.918  1.1458 -0.2073 -1.1896
 4739TIP3   OH235851   1.198   4.752   8.104  0.3615  0.3414  0.6402
 4739TIP3    H135852   1.197   4.676   8.162  1.1222  2.4712  3.6984
 4739TIP3    H235853   1.116   4.797   8.122 -0.2821  0.1192 -1.4569
 4740TIP3   OH235854   1.282   3.380   1.497  0.3702  0.9780 -0.4068
 4740TIP3    H135855   1.300   3.375   1.591  0.2008 -1.7184 -0.4277
 4740TIP3    H235856   1.245   3.467   1.484 -1.6498  0.6935  2.4307
 4741TIP3   OH235857   1.686   1.785   0.424  0.2787 -0.3001 -0.1660
 4741TIP3    H135858   1.641   1.733   0.358  0.4203  1.1014 -1.4117
 4741TIP3    H235859   1.622   1.794   0.495 -0.4055 -0.6167 -0.7353
 4742TIP3   OH235860   2.911   1.468   0.085  0.3095  0.5858 -0.6678
 4742TIP3    H135861   2.976   1.437   0.147  0.1250  1.5743  0.0421
 4742TIP3    H235862   2.952   1.544   0.043  1.3853 -1.3632 -3.5090
 4743TIP3   OH235863   3.400   6.002   0.856  0.4045  0.5454 -0.0242
 4743TIP3    H135864   3.352   5.996   0.773  1.0633 -0.3967 -0.3577
 4743TIP3    H235865   3.336   6.036   0.919 -0.8649 -1.1666 -0.3190
 4744TIP3   OH235866   0.883   1.805   6.613  0.0940  0.1138 -0.2081
 4744TIP3    H135867   0.900   1.879   6.554 -1.8596  0.7266 -0.0670
 4744TIP3    H235868   0.883   1.728   6.556 -0.5882  0.5566 -0.8190
 4745TIP3   OH235869   5.505   1.841   0.678 -0.2205  0.6746  0.4493
 4745TIP3    H135870   5.497   1.930   0.646  1.8810  0.7736  0.0307
 4745TIP3    H235871   5.495   1.786   0.600 -0.4065  0.6087  0.5195
 4746TIP3   OH235872   5.653   0.266   2.195  0.0813  0.1774 -0.1653
 4746TIP3    H135873   5.746   0.250   2.211  0.1734  1.0585  0.1868
 4746TIP3    H235874   5.639   0.236   2.104  0.2698 -1.7329  0.3852
 4747TIP3   OH235875   4.996   2.448   8.680 -0.4723  0.6285 -0.1325
 4747TIP3    H135876   5.013   2.377   8.617  2.1732  1.3725 -0.3795
 4747TIP3    H235877   4.932   2.503   8.637 -2.2444 -1.3029 -0.1399
 4748TIP3   OH235878   2.162   5.548   8.420  0.2306  0.2860  0.3545
 4748TIP3    H135879   2.173   5.467   8.370  0.0554  0.8431 -0.5980
 4748TIP3    H235880   2.146   5.518   8.510  1.7279 -0.7053  0.3362
 4749TIP3   OH235881   1.124   3.069   0.187 -0.2488 -0.2414  0.0493
 4749TIP3    H135882   1.170   3.040   0.265 -0.6302  1.5172  0.9828
 4749TIP3    H235883   1.109   2.989   0.136 -2.5683 -1.9799  3.1404
 4750TIP3   OH235884   5.972   5.261   2.355 -0.0969  0.0130  0.0449
 4750TIP3    H135885   5.968   5.331   2.291 -0.2058  0.1567  0.2076
 4750TIP3    H235886   5.882   5.251   2.386 -0.0098  0.0788  0.3194
 4751TIP3   OH235887   0.987   1.167   2.069 -0.1007  0.3042 -0.3885
 4751TIP3    H135888   1.047   1.124   2.007 -0.1967  0.1940 -0.4035
 4751TIP3    H235889   1.031   1.250   2.090 -0.4351  0.6984 -1.2079
 4752TIP3   OH235890   2.117   1.645   1.965 -0.1070 -0.0698 -0.5811
 4752TIP3    H135891   2.037   1.685   1.934 -0.4644  2.0335  2.5431
 4752TIP3    H235892   2.091   1.557   1.993 -1.1105  0.2612 -0.4495
 4753TIP3   OH235893   3.235   1.141   8.205 -0.3806 -0.0849 -0.1386
 4753TIP3    H135894   3.307   1.203   8.193 -0.0420 -0.6973 -1.5187
 4753TIP3    H235895   3.268   1.078   8.268 -0.4827  0.7583  0.7779
 4754TIP3   OH235896   3.578   3.952   0.813  0.1271 -0.3413 -0.0587
 4754TIP3    H135897   3.639   3.998   0.755  0.4063  0.8952  1.1847
 4754TIP3    H235898   3.606   3.974   0.901 -0.9303 -1.3611  0.5645
 4755TIP3   OH235899   1.569   3.879   8.036  0.0205 -0.0724 -0.0369
 4755TIP3    H135900   1.538   3.964   8.004  0.4152  0.3760  0.7403
 4755TIP3    H235901   1.562   3.821   7.961 -1.3047  0.3758 -0.2839
 4756TIP3   OH235902   3.513   4.358   1.281  0.0682  0.7668  0.1983
 4756TIP3    H135903   3.474   4.298   1.344  0.6634 -0.0269 -0.1807
 4756TIP3    H235904   3.468   4.337   1.198  2.6094 -1.6022 -0.7417
 4757TIP3   OH235905   2.369   1.093   0.012  0.5784  0.5971  0.0006
 4757TIP3    H135906   2.342   1.047  -0.067  1.3494 -1.7781  1.0402
 4757TIP3    H235907   2.462   1.111  -0.001  0.0533  3.0206 -0.8770
 4758TIP3   OH235908   0.161   3.164   7.289  0.4942  0.2256 -0.2754
 4758TIP3    H135909   0.158   3.070   7.276 -2.6344  0.4454 -2.1325
 4758TIP3    H235910   0.124   3.178   7.376 -1.2370 -0.2093 -0.9128
 4759TIP3   OH235911   1.206   1.038   8.546  0.0747 -0.2651 -0.2725
 4759TIP3    H135912   1.221   1.118   8.496 -1.8334 -0.4544 -1.2688
 4759TIP3    H235913   1.221   1.063   8.637 -1.3325  1.5200 -0.4628
 4760TIP3   OH235914   0.406   0.218   1.741  0.1934  0.1995  0.0228
 4760TIP3    H135915   0.398   0.136   1.692 -0.1754 -3.0299  4.7700
 4760TIP3    H235916   0.317   0.254   1.741 -0.0429 -0.3517 -0.6269
 4761TIP3   OH235917   6.379   6.327   1.280 -0.3549 -0.6079 -0.5277
 4761TIP3    H135918   6.418   6.249   1.242  0.9174  0.4841 -1.5591
 4761TIP3    H235919   6.321   6.294   1.349 -0.6993 -2.4953 -1.6539
 4762TIP3   OH235920   2.417   1.279   2.413 -0.3508 -0.4654 -0.1880
 4762TIP3    H135921   2.409   1.346   2.480  1.4124  0.5065 -0.8864
 4762TIP3    H235922   2.400   1.197   2.459  0.8628  0.1709  1.4848
 4763TIP3   OH235923   1.524   3.432   2.852  0.4215  0.9815  0.0057
 4763TIP3    H135924   1.620   3.435   2.853  0.5389 -1.0872  0.2130
 4763TIP3    H235925   1.503   3.352   2.804 -1.1738  0.9325  0.7050
 4764TIP3   OH235926   0.386   4.255   0.872 -0.0004  0.5842  0.6777
 4764TIP3    H135927   0.395   4.162   0.892 -0.1266  0.8410  2.0081
 4764TIP3    H235928   0.296   4.265   0.843 -0.4432  0.5274  1.9880
 4765TIP3   OH235929   1.260   4.057   1.639  0.3125  0.3662 -0.4207
 4765TIP3    H135930   1.294   4.145   1.622 -0.0005  0.6961  0.5898
 4765TIP3    H235931   1.258   4.015   1.553 -0.8678  1.8264 -1.1463
 4766TIP3   OH235932   5.014   5.152   7.458  0.1216  0.0860 -0.3972
 4766TIP3    H135933   5.038   5.063   7.436 -0.7558 -0.4540  0.6913
 4766TIP3    H235934   5.000   5.150   7.553 -1.5614  0.9463 -0.5804
 4767TIP3   OH235935   0.129   6.009   0.500 -0.1102 -0.6156  0.2269
 4767TIP3    H135936   0.201   5.988   0.559  0.5597  0.2992 -0.2327
 4767TIP3    H235937   0.060   6.044   0.557 -0.8376 -2.9394  0.8641
 4768TIP3   OH235938   6.331   2.015   1.269 -0.3219 -0.6369  0.4191
 4768TIP3    H135939   6.410   2.012   1.216 -0.3321  1.5475  0.1914
 4768TIP3    H235940   6.330   1.932   1.317  1.1102 -1.4769 -0.9523
 4769TIP3   OH235941   1.461   1.423   0.251  0.2109  0.3979 -0.0352
 4769TIP3    H135942   1.382   1.397   0.298  0.1578 -1.0585 -0.8479
 4769TIP3    H235943   1.530   1.423   0.317 -0.4143  1.4729  0.6365
 4770TIP3   OH235944   2.665   0.847   6.512  0.1779 -0.6904 -0.1757
 4770TIP3    H135945   2.663   0.806   6.426 -0.5508 -1.0280 -0.0098
 4770TIP3    H235946   2.606   0.923   6.503  0.2890 -0.5875 -0.0396
 4771TIP3   OH235947   5.469   3.761   0.933  0.2534 -0.9417 -0.6384
 4771TIP3    H135948   5.493   3.747   1.025  3.1695 -1.4896 -1.3592
 4771TIP3    H235949   5.493   3.852   0.916 -2.8817  0.0732 -0.2570
 4772TIP3   OH235950   6.820   1.036   7.255  0.3767  0.3592 -1.1947
 4772TIP3    H135951   6.866   0.961   7.293 -0.0891 -0.6712 -2.5785
 4772TIP3    H235952   6.832   1.026   7.161 -1.1293  1.0856 -1.4888
 4773TIP3   OH235953   0.893   6.054   2.338 -0.2806  0.6764 -0.1215
 4773TIP3    H135954   0.800   6.047   2.316 -0.7407  0.3811  1.7693
 4773TIP3    H235955   0.936   5.987   2.285 -1.2764  0.2195 -0.3627
 4774TIP3   OH235956   1.766   5.793   1.293 -0.1730  0.5139  0.2893
 4774TIP3    H135957   1.829   5.812   1.223 -0.4273  1.1048  0.2179
 4774TIP3    H235958   1.777   5.699   1.310 -0.6150  0.1961 -1.0529
 4775TIP3   OH235959   4.105   0.282   7.322 -0.0142 -0.4554 -0.0505
 4775TIP3    H135960   4.182   0.329   7.289 -0.8893  0.0659 -1.4243
 4775TIP3    H235961   4.052   0.263   7.245 -1.3200 -0.7267  0.8618
 4776TIP3   OH235962   2.210   6.061   7.233 -0.1304  0.2632 -0.5555
 4776TIP3    H135963   2.173   6.125   7.172  1.6413  2.0102  0.0920
 4776TIP3    H235964   2.261   6.002   7.178 -0.1744  0.6179 -0.9816
 4777TIP3   OH235965   3.660   5.276   2.000 -0.5831  0.1521 -0.0266
 4777TIP3    H135966   3.735   5.227   2.035  1.0032  2.6407  0.3005
 4777TIP3    H235967   3.597   5.276   2.072 -0.2414 -0.6373  0.2910
 4778TIP3   OH235968   1.596   4.589   0.461  0.3936  0.0651 -0.0513
 4778TIP3    H135969   1.613   4.681   0.481 -1.3196 -0.0488  2.4502
 4778TIP3    H235970   1.503   4.577   0.482  0.7610 -2.3868  0.4557
 4779TIP3   OH235971   6.014   6.201   2.412  0.0277 -0.1412 -0.3337
 4779TIP3    H135972   6.042   6.133   2.473 -1.2257 -0.8818 -0.5431
 4779TIP3    H235973   5.921   6.213   2.431  0.1856  1.4428 -0.3889
 4780TIP3   OH235974   2.508   0.654   8.614 -0.0839  0.1912  0.2380
 4780TIP3    H135975   2.558   0.706   8.677 -0.4846  0.1409  0.6029
 4780TIP3    H235976   2.564   0.650   8.537 -0.8579  2.9803 -0.6131
 4781TIP3   OH235977   3.007   5.663   0.442 -0.4346 -0.2289  0.0680
 4781TIP3    H135978   3.077   5.728   0.452 -0.3169 -0.0798 -1.5663
 4781TIP3    H235979   2.943   5.687   0.510 -0.3112  1.5093 -0.3781
 4782TIP3   OH235980   2.231   1.040   1.546 -0.2592  0.4592 -0.4147
 4782TIP3    H135981   2.295   0.969   1.548 -1.1756 -0.4053 -0.7547
 4782TIP3    H235982   2.221   1.065   1.638 -1.1239 -0.9925 -0.0734
 4783TIP3   OH235983   5.592   5.237   7.802 -0.0534  0.1004 -0.1678
 4783TIP3    H135984   5.643   5.308   7.764  0.7281  0.0275  0.6842
 4783TIP3    H235985   5.552   5.193   7.727 -0.9628  1.7187 -0.6697
 4784TIP3   OH235986   2.715   5.217   1.633 -0.4822  0.3639 -0.0319
 4784TIP3    H135987   2.741   5.184   1.547 -0.4067  2.0530 -0.6891
 4784TIP3    H235988   2.790   5.198   1.690 -1.0900 -2.0636  0.0629
 4785TIP3   OH235989   4.174   5.934   7.898  0.3632 -0.1622  0.1671
 4785TIP3    H135990   4.081   5.931   7.920 -0.0883 -0.7409 -1.6172
 4785TIP3    H235991   4.215   5.867   7.953 -0.3774 -0.3243  0.5217
 4786TIP3   OH235992   1.199   1.093   7.951  0.1532  0.1463  0.1498
 4786TIP3    H135993   1.198   1.011   8.000  0.2227  0.2953  0.3990
 4786TIP3    H235994   1.200   1.065   7.859  2.9086 -0.1854  0.1884
 4787TIP3   OH235995   1.623   6.096   1.458  0.3450  0.2837  0.3613
 4787TIP3    H135996   1.668   6.109   1.541  0.8591  1.4045 -0.0769
 4787TIP3    H235997   1.664   6.019   1.420  3.6083  2.5011 -1.0742
 4788TIP3   OH235998   2.751   3.158   8.826 -0.3763 -0.1354 -0.3417
 4788TIP3    H135999   2.750   3.152   8.730 -0.8596 -1.0660 -0.2892
 4788TIP3    H236000   2.837   3.196   8.847 -0.5376  0.7366 -1.1668
 4789TIP3   OH236001   0.926   3.153   8.796 -0.0802  0.4335  0.2233
 4789TIP3    H136002   0.872   3.076   8.781  0.1623  0.1352  0.8427
 4789TIP3    H236003   0.987   3.127   8.865 -0.6216  1.4710  1.1393
 4790TIP3   OH236004   5.115   2.257   7.406  0.1824 -0.1916  0.2249
 4790TIP3    H136005   5.038   2.206   7.379 -0.4855  0.1334  1.4356
 4790TIP3    H236006   5.122   2.326   7.340  1.0474 -1.7465 -1.3848
 4791TIP3   OH236007   6.059   4.103   7.226 -0.3063  0.1066  0.0611
 4791TIP3    H136008   6.142   4.063   7.200  0.2129  1.3378 -0.2344
 4791TIP3    H236009   6.008   4.107   7.146  0.3173  1.5862 -0.2937
 4792TIP3   OH236010   4.118   4.264   0.890 -0.1167  0.0688 -0.3417
 4792TIP3    H136011   4.170   4.224   0.960 -0.2979  0.6177  0.1108
 4792TIP3    H236012   4.042   4.208   0.881  0.3221 -0.4779 -0.6832
 4793TIP3   OH236013   2.189   5.372   1.254  0.5156  0.1096  0.1080
 4793TIP3    H136014   2.146   5.315   1.318  0.0718  1.0489  0.6568
 4793TIP3    H236015   2.203   5.315   1.178 -2.0333 -0.1492 -0.2509
 4794TIP3   OH236016   4.947   5.055   2.253 -0.4495 -0.5350  0.5835
 4794TIP3    H136017   4.865   5.039   2.299  0.1193 -1.9618  1.1406
 4794TIP3    H236018   5.015   5.020   2.311  0.3779 -1.2703 -0.7701
 4795TIP3   OH236019   2.908   3.506   7.450 -0.2862 -0.0491  0.6419
 4795TIP3    H136020   2.925   3.509   7.356 -2.2581 -0.4968  0.2300
 4795TIP3    H236021   2.876   3.594   7.472 -1.3735 -0.4025  0.5402
 4796TIP3   OH236022   4.777   5.747   1.852  0.3239  0.7188  0.7163
 4796TIP3    H136023   4.687   5.741   1.885 -0.0625 -0.5964 -0.4966
 4796TIP3    H236024   4.831   5.744   1.931 -0.6929  3.0141  1.5922
 4797TIP3   OH236025   5.327   4.991   1.671  0.0384  0.2248 -0.1158
 4797TIP3    H136026   5.281   4.927   1.616 -2.1015  0.9647  0.7529
 4797TIP3    H236027   5.364   5.054   1.608 -0.0179 -0.4343 -0.8289
 4798TIP3   OH236028   4.260   0.005   6.608  0.4863  0.6140 -0.6711
 4798TIP3    H136029   4.335   0.029   6.663  1.5926 -0.7868 -1.4942
 4798TIP3    H236030   4.248   0.081   6.551 -0.0734  1.6942  0.8187
 4799TIP3   OH236031   2.985   1.150   2.575 -0.2099  0.4823  0.6137
 4799TIP3    H136032   2.969   1.155   2.480 -0.3432  2.2859  0.7108
 4799TIP3    H236033   2.921   1.210   2.614  0.4764  0.4865  1.7750
 4800TIP3   OH236034   2.003   6.819   0.235 -0.3156  0.3004  0.0607
 4800TIP3    H136035   1.908   6.811   0.230 -0.1960 -1.1634 -0.2765
 4800TIP3    H236036   2.036   6.732   0.213  1.2040  1.4670 -2.8664
 4801TIP3   OH236037   2.588   6.330   2.170 -0.0391 -0.2118 -0.5186
 4801TIP3    H136038   2.494   6.322   2.183  0.1669 -0.6694  0.9299
 4801TIP3    H236039   2.603   6.308   2.079 -1.1671 -1.6659 -0.3769
 4802TIP3   OH236040   2.197   0.882   0.336 -0.0647  0.5414 -0.3815
 4802TIP3    H136041   2.146   0.883   0.255  1.6484  1.2065 -1.5138
 4802TIP3    H236042   2.135   0.908   0.404 -1.7867 -0.9113 -1.2918
 4803TIP3   OH236043   1.177   3.253   8.463  0.1003 -0.1180  0.2570
 4803TIP3    H136044   1.234   3.198   8.516  0.0331  1.0581  1.6091
 4803TIP3    H236045   1.094   3.255   8.511 -0.5330 -0.4144 -0.7952
 4804TIP3   OH236046   1.881   2.907   7.874 -0.3425 -0.2862 -0.0551
 4804TIP3    H136047   1.791   2.902   7.845  0.0053  0.5903 -1.3371
 4804TIP3    H236048   1.885   2.986   7.928 -0.5275 -0.8249  0.7752
 4805TIP3   OH236049   0.006   6.111   8.447  0.4784  0.1103  0.0910
 4805TIP3    H136050   0.064   6.153   8.384 -0.3619  2.4877  0.7950
 4805TIP3    H236051   0.053   6.031   8.473  1.2661 -0.4753 -2.7568
 4806TIP3   OH236052   0.262   6.673   7.273 -0.5279  0.4992  0.0140
 4806TIP3    H136053   0.285   6.653   7.182 -1.4758 -0.7809  0.0307
 4806TIP3    H236054   0.268   6.768   7.279  1.5890  0.4591 -0.8155
 4807TIP3   OH236055   6.475   5.026   8.133 -0.5617 -0.5483 -0.3393
 4807TIP3    H136056   6.397   5.079   8.153 -0.3524  0.3403 -1.7462
 4807TIP3    H236057   6.521   5.020   8.216 -2.9071 -2.4857  0.9520
 4808TIP3   OH236058   2.813   4.842   8.000  0.0498  0.7543  0.1609
 4808TIP3    H136059   2.834   4.763   7.950 -0.0921  0.9783 -0.2541
 4808TIP3    H236060   2.847   4.824   8.088 -2.3674 -0.9163  0.8751
 4809TIP3   OH236061   3.995   1.466   8.348  0.0496 -0.2529  0.0158
 4809TIP3    H136062   3.993   1.557   8.317  1.1530 -0.5290 -0.9514
 4809TIP3    H236063   3.943   1.467   8.428  0.9368  1.4931  0.6422
 4810TIP3   OH236064   6.577   6.307   1.809  0.1471 -0.3209  0.0095
 4810TIP3    H136065   6.545   6.245   1.875 -0.9996  0.0247 -0.2079
 4810TIP3    H236066   6.565   6.262   1.726  3.4650 -1.5997  0.0637
 4811TIP3   OH236067   6.598   0.875   8.389  0.0378 -0.6292 -0.4121
 4811TIP3    H136068   6.546   0.835   8.319 -0.8300  1.8676 -1.3089
 4811TIP3    H236069   6.685   0.885   8.352 -0.8212  2.2956 -1.9775
 4812TIP3   OH236070   2.253   5.571   7.579  0.2481  0.4255  0.0314
 4812TIP3    H136071   2.341   5.546   7.607  1.2461  1.4740 -1.9047
 4812TIP3    H236072   2.251   5.667   7.588 -0.4487  0.4749 -0.5354
 4813TIP3   OH236073   2.028   5.433   0.847 -0.2777  0.1210  0.4844
 4813TIP3    H136074   1.986   5.489   0.912 -0.8995 -1.2199  1.2810
 4813TIP3    H236075   1.965   5.429   0.775 -1.4223 -1.5723  1.5123
 4814TIP3   OH236076   1.699   0.638   1.183  0.4574  0.2838  0.1093
 4814TIP3    H136077   1.706   0.731   1.164  2.6624 -0.0440 -1.1072
 4814TIP3    H236078   1.776   0.619   1.237  0.4639 -0.9530 -0.3036
 4815TIP3   OH236079   6.018   6.632   0.214  0.4661  0.8925  0.0522
 4815TIP3    H136080   6.087   6.587   0.263  0.2691 -0.2005 -0.6360
 4815TIP3    H236081   6.047   6.628   0.123 -1.4583 -1.4925 -0.5442
 4816TIP3   OH236082   4.860   4.706   0.127  0.8763 -0.0936  0.0148
 4816TIP3    H136083   4.859   4.632   0.188  2.0275 -0.5961 -0.5384
 4816TIP3    H236084   4.780   4.698   0.076 -0.8953  1.1886  2.4071
 4817TIP3   OH236085   5.429   3.025   2.115  0.5766  0.2545 -0.4996
 4817TIP3    H136086   5.521   3.019   2.088  0.3940  0.3073 -1.1454
 4817TIP3    H236087   5.419   2.954   2.178  0.6442 -0.8300 -1.6579
 4818TIP3   OH236088   6.380   4.999   0.769  0.6597  0.1800 -0.6802
 4818TIP3    H136089   6.345   5.086   0.788 -1.9507  0.0553 -4.0454
 4818TIP3    H236090   6.449   5.014   0.704  0.8697 -0.2279 -0.5596
 4819TIP3   OH236091   4.089   4.960   2.286 -0.0387 -0.2100 -0.4122
 4819TIP3    H136092   4.046   4.884   2.326  2.6075 -1.6912 -0.1316
 4819TIP3    H236093   4.122   5.011   2.360  0.5390 -0.2608 -0.6291
 4820TIP3   OH236094   4.867   2.503   1.408  0.4054 -0.1875  0.2615
 4820TIP3    H136095   4.806   2.562   1.453  0.5841 -0.5703  1.0171
 4820TIP3    H236096   4.928   2.474   1.476  1.3592  0.0826 -0.4596
 4821TIP3   OH236097   1.444   3.304   2.625  0.3963  0.3105  0.9670
 4821TIP3    H136098   1.523   3.340   2.586  0.3140 -0.1715  0.3309
 4821TIP3    H236099   1.459   3.209   2.626 -1.2485 -0.0700 -1.7209
 4822TIP3   OH236100   2.518   3.935   0.373  0.2246  0.0705  0.3327
 4822TIP3    H136101   2.576   3.931   0.297  0.8137 -0.8584  0.8196
 4822TIP3    H236102   2.439   3.888   0.345 -0.1955  1.0784 -0.2268
 4823TIP3   OH236103   4.417   3.921   2.252 -0.2130 -0.6030 -0.5199
 4823TIP3    H136104   4.460   4.002   2.276  0.2324 -1.1218  0.5088
 4823TIP3    H236105   4.428   3.914   2.157  3.3295 -1.4241 -0.1961
 4824TIP3   OH236106   3.709   3.320   0.410  0.5008  0.0818 -0.3126
 4824TIP3    H136107   3.785   3.340   0.355  0.1125 -1.2403 -1.3960
 4824TIP3    H236108   3.635   3.361   0.364  0.4110  0.4728  0.1744
 4825TIP3   OH236109   5.887   5.016   7.328 -0.7820 -0.3688 -0.5576
 4825TIP3    H136110   5.833   4.960   7.273 -1.8401 -1.9947  1.9272
 4825TIP3    H236111   5.975   4.977   7.323 -1.3592 -1.9259  0.6045
 4826TIP3   OH236112   6.418   6.265   6.898 -0.2371  0.4928 -0.2755
 4826TIP3    H136113   6.414   6.359   6.916 -0.6041  0.4535 -0.1268
 4826TIP3    H236114   6.495   6.234   6.945  1.4727  1.1724 -2.4798
 4827TIP3   OH236115   3.263   3.825   1.188 -0.6322  0.2661 -0.8693
 4827TIP3    H136116   3.198   3.889   1.158 -0.0825  0.1428 -2.4433
 4827TIP3    H236117   3.241   3.745   1.140 -0.4117 -0.3050 -0.0334
 4828TIP3   OH236118   6.681   6.401   7.660 -0.3209  0.2267  0.0579
 4828TIP3    H136119   6.711   6.364   7.744 -0.0028  1.0596  0.3159
 4828TIP3    H236120   6.706   6.493   7.664 -1.5683  0.6035 -0.3683
 4829TIP3   OH236121   4.323   0.419   2.962  0.5466 -0.3465  0.1053
 4829TIP3    H136122   4.251   0.470   2.999 -1.0188 -1.6635 -0.9673
 4829TIP3    H236123   4.361   0.477   2.894  0.6522  0.4215  0.8010
 4830TIP3   OH236124   1.978   4.991   0.500  0.1907 -0.1317 -0.0442
 4830TIP3    H136125   2.003   4.998   0.592 -0.6915  1.2572  0.1272
 4830TIP3    H236126   2.001   4.901   0.475  3.8274  0.5334  0.4680
 4831TIP3   OH236127   5.161   2.191   0.682  0.0404 -0.6832  0.1143
 4831TIP3    H136128   5.197   2.103   0.691  1.3482 -0.0954  0.8540
 4831TIP3    H236129   5.206   2.243   0.749 -2.4433  0.0186  1.3718
 4832TIP3   OH236130   0.825   4.187   8.246  0.0268  0.6622 -0.2977
 4832TIP3    H136131   0.791   4.238   8.172 -0.8273  0.7357  0.1338
 4832TIP3    H236132   0.843   4.101   8.209  0.7113  1.0263 -0.8493
 4833TIP3   OH236133   2.843   3.464   0.065 -0.4071 -0.1116 -0.1906
 4833TIP3    H136134   2.885   3.486   0.149 -2.1456 -0.3153  0.7963
 4833TIP3    H236135   2.912   3.476  -0.000  0.9182  0.3918  1.2245
 4834TIP3   OH236136   2.289   1.753   1.736 -0.0848  0.3792  0.5063
 4834TIP3    H136137   2.240   1.832   1.756  1.3592  1.4382  0.0325
 4834TIP3    H236138   2.361   1.783   1.681  2.7409 -0.5832  3.3610
 4835TIP3   OH236139   5.131   5.292   0.754  0.1191  0.2884  0.3094
 4835TIP3    H136140   5.183   5.214   0.734 -1.0197 -0.1455 -1.2296
 4835TIP3    H236141   5.128   5.296   0.849 -1.1479 -2.5520  0.4971
 4836TIP3   OH236142   5.013   6.096   7.617 -0.5596 -0.1065  0.1233
 4836TIP3    H136143   5.021   6.013   7.570 -0.3955  1.0773 -2.0616
 4836TIP3    H236144   4.967   6.154   7.556 -1.2473  1.2511  1.8373
 4837TIP3   OH236145   5.045   2.379   1.209 -0.0316 -0.7639  0.2368
 4837TIP3    H136146   5.041   2.285   1.226 -0.5522 -0.3776  2.5545
 4837TIP3    H236147   5.041   2.420   1.295 -0.5603  1.4216 -0.7384
 4838TIP3   OH236148   1.766   5.375   1.208  0.6699  0.8717  0.0025
 4838TIP3    H136149   1.705   5.428   1.156 -0.6405  1.5005  2.0650
 4838TIP3    H236150   1.766   5.416   1.295  1.5166 -1.0734  0.9881
 4839TIP3   OH236151   0.911   5.393   7.007  0.9064 -0.5964  0.1691
 4839TIP3    H136152   0.829   5.350   6.984  0.0481  0.4550  1.1797
 4839TIP3    H236153   0.917   5.467   6.946  0.5478 -0.0401  0.8003
 4840TIP3   OH236154   1.312   1.759   8.104  0.8205 -0.2722  0.2444
 4840TIP3    H136155   1.397   1.743   8.063  0.5021  1.9288 -1.4765
 4840TIP3    H236156   1.331   1.824   8.172  0.4802  0.5738 -0.4540
 4841TIP3   OH236157   5.305   0.718   8.302 -0.0241 -0.5376  0.3943
 4841TIP3    H136158   5.353   0.666   8.367  2.6492  0.6245 -0.5162
 4841TIP3    H236159   5.306   0.664   8.223  1.2856  0.1417 -0.0805
 4842TIP3   OH236160   4.914   2.468   2.070 -0.0263 -0.5091  0.4269
 4842TIP3    H136161   4.837   2.432   2.025 -0.5935 -0.9770  1.7237
 4842TIP3    H236162   4.888   2.556   2.094 -0.3137 -0.7968  1.1999
 4843TIP3   OH236163   0.576   6.520   0.596  0.5443  0.2171 -0.1617
 4843TIP3    H136164   0.557   6.575   0.521 -0.2843  1.9327  1.2348
 4843TIP3    H236165   0.670   6.501   0.589  0.5299  0.5521 -1.4539
 4844TIP3   OH236166   3.008   5.464   7.402 -0.7245 -1.1752 -0.2202
 4844TIP3    H136167   2.977   5.543   7.445 -1.4079 -0.6654 -1.6211
 4844TIP3    H236168   2.936   5.435   7.347  0.3125 -1.4831 -1.4769
 4845TIP3   OH236169   2.479   3.638   1.992 -0.3786  0.6632 -0.3333
 4845TIP3    H136170   2.546   3.646   2.059  2.6793  0.2175 -3.0999
 4845TIP3    H236171   2.456   3.728   1.969 -0.6720  0.8142  0.4903
 4846TIP3   OH236172   5.431   3.580   6.662  0.1180 -0.3479  0.2031
 4846TIP3    H136173   5.353   3.596   6.716  0.4111  0.6590  0.3499
 4846TIP3    H236174   5.454   3.666   6.628  0.9496 -0.7045 -0.1524
 4847TIP3   OH236175   0.831   3.291   7.902 -0.4223  0.2929  0.4690
 4847TIP3    H136176   0.755   3.287   7.961 -0.6330 -0.9731  0.1526
 4847TIP3    H236177   0.803   3.243   7.824 -0.1083  1.8464 -0.6340
 4848TIP3   OH236178   6.176   6.333   7.973  0.1611  0.0639  0.3053
 4848TIP3    H136179   6.091   6.289   7.980  0.7616 -1.1718 -0.0008
 4848TIP3    H236180   6.204   6.345   8.063  1.2424 -2.7441  0.4522
 4849TIP3   OH236181   6.790   6.152   7.810  0.1714  0.2562  1.1187
 4849TIP3    H136182   6.740   6.081   7.849  0.6029 -0.4953  0.3525
 4849TIP3    H236183   6.749   6.231   7.842 -0.0809 -0.3365  2.3022
 4850TIP3   OH236184   6.417   3.557   0.523 -0.5308  0.1987  0.5704
 4850TIP3    H136185   6.353   3.509   0.575 -1.5520 -0.5787 -1.2894
 4850TIP3    H236186   6.470   3.489   0.481  0.4788  0.8017  0.8273
 4851TIP3   OH236187   1.224   0.605   0.329 -0.0711 -0.2006  0.0294
 4851TIP3    H136188   1.319   0.602   0.327  0.0483  2.1329 -0.1863
 4851TIP3    H236189   1.200   0.565   0.412  1.0319 -1.3919 -0.1989
 4852TIP3   OH236190   6.507   1.212   0.635 -0.2358 -0.3738 -0.0643
 4852TIP3    H136191   6.539   1.203   0.545 -0.9584 -0.2915 -0.3375
 4852TIP3    H236192   6.458   1.131   0.651 -2.0068  0.5549 -0.5491
 4853TIP3   OH236193   3.100   3.999   0.905 -0.2588 -0.4320 -0.2256
 4853TIP3    H136194   3.174   3.942   0.882  1.0468  0.8438  0.6333
 4853TIP3    H236195   3.112   4.017   0.999 -0.7170  1.1001 -0.4358
 4854TIP3   OH236196   5.147   0.352   2.564  0.6210  0.1785 -0.6672
 4854TIP3    H136197   5.055   0.335   2.544  0.3574  0.6869  0.0818
 4854TIP3    H236198   5.192   0.271   2.541 -0.1256 -0.3421 -0.3209
 4855TIP3   OH236199   5.511   3.835   6.331 -0.4522 -0.1995  0.1292
 4855TIP3    H136200   5.454   3.769   6.293  0.2242 -0.7883  0.1049
 4855TIP3    H236201   5.492   3.832   6.425  0.1090 -0.9933  0.2367
 4856TIP3   OH236202   5.769   0.576   0.133  0.2016 -0.0084  0.8007
 4856TIP3    H136203   5.819   0.652   0.102  0.3828 -1.3629 -2.7270
 4856TIP3    H236204   5.684   0.613   0.159  0.5573  1.5112 -0.0528
 4857TIP3   OH236205   5.653   4.433   1.312 -0.1394 -0.0534 -0.0307
 4857TIP3    H136206   5.746   4.418   1.330  0.2463  0.8245 -1.1322
 4857TIP3    H236207   5.631   4.510   1.363 -0.0738  0.1431 -0.2956
 4858TIP3   OH236208   1.378   4.286   7.172 -0.6571  0.0671 -0.0723
 4858TIP3    H136209   1.311   4.285   7.103 -0.8814  1.1659  0.1119
 4858TIP3    H236210   1.383   4.195   7.201 -2.1269 -0.0451 -0.0573
 4859TIP3   OH236211   4.186   3.566   8.656  0.3304  0.4664 -0.0391
 4859TIP3    H136212   4.151   3.520   8.579  1.2886 -0.8852  0.2962
 4859TIP3    H236213   4.258   3.510   8.686  0.9695  1.7688  0.9237
 4860TIP3   OH236214   0.964   5.136   7.475 -0.1166 -0.3734  0.2401
 4860TIP3    H136215   0.928   5.057   7.515 -1.5972  0.2643  0.2301
 4860TIP3    H236216   1.058   5.132   7.495 -0.6268 -0.5036  3.1477
 4861TIP3   OH236217   6.506   6.273   0.262 -0.1109  0.6244  0.0563
 4861TIP3    H136218   6.540   6.307   0.344 -0.3087  0.0343  0.3861
 4861TIP3    H236219   6.411   6.278   0.270 -0.2220 -1.5892  0.8298
 4862TIP3   OH236220   1.114   0.814   0.125  0.4969 -0.2663  0.1963
 4862TIP3    H136221   1.202   0.807   0.088 -0.1743  0.7644 -1.7451
 4862TIP3    H236222   1.112   0.749   0.195  2.0250 -2.0164 -1.2855
 4863TIP3   OH236223   6.262   4.318   0.191 -0.3285  0.0338  0.5983
 4863TIP3    H136224   6.187   4.329   0.251  0.3203  1.4523  1.2037
 4863TIP3    H236225   6.315   4.396   0.206  2.9038 -2.2778  2.4896
 4864TIP3   OH236226   6.317   1.948   7.512 -0.3259 -0.1975  0.2158
 4864TIP3    H136227   6.340   2.002   7.437  3.5183 -2.9533 -0.9653
 4864TIP3    H236228   6.257   1.882   7.477 -2.6160  1.3789  0.9464
 4865TIP3   OH236229   0.143   5.582   8.341  0.1190 -0.2935 -0.1320
 4865TIP3    H136230   0.091   5.582   8.261 -1.1827  2.5075  0.5826
 4865TIP3    H236231   0.216   5.641   8.323 -0.2011  0.3910  0.7285
 4866TIP3   OH236232   6.618   0.187   8.618  0.0153  0.6701 -0.0613
 4866TIP3    H136233   6.549   0.241   8.657 -1.4295 -0.0213 -1.5230
 4866TIP3    H236234   6.700   0.225   8.650 -0.9752 -0.2788  4.2034
 4867TIP3   OH236235   3.752   2.447   1.476  0.1390 -0.7276 -0.0502
 4867TIP3    H136236   3.842   2.465   1.501  0.8250 -1.8400 -1.5605
 4867TIP3    H236237   3.706   2.434   1.559  0.7555  2.2461  0.8830
 4868TIP3   OH236238   1.775   6.357   1.882  0.4944  0.0954 -1.2444
 4868TIP3    H136239   1.795   6.438   1.836 -0.0656  1.0256  0.0848
 4868TIP3    H236240   1.695   6.376   1.930  0.5172 -1.1543 -0.6767
 4869TIP3   OH236241   4.414   1.595   1.145 -0.1237  0.4119  0.0177
 4869TIP3    H136242   4.369   1.601   1.229  0.7231  1.0950  0.4450
 4869TIP3    H236243   4.395   1.507   1.113 -0.7704  0.2836  0.7373
 4870TIP3   OH236244   1.698   4.361   7.632 -0.0713 -0.0277  0.4813
 4870TIP3    H136245   1.778   4.339   7.586  1.1785  1.7436  1.6522
 4870TIP3    H236246   1.630   4.310   7.589  1.7904 -2.1976 -0.0421
 4871TIP3   OH236247   3.467   6.646   7.987 -0.2630 -0.1506  0.3805
 4871TIP3    H136248   3.491   6.565   7.943  1.0157  0.5879 -0.3563
 4871TIP3    H236249   3.393   6.680   7.937 -0.1949 -0.3901  0.1152
 4872TIP3   OH236250   4.563   4.054   8.398  0.1251 -0.2212  0.2491
 4872TIP3    H136251   4.522   4.061   8.312  0.0433  1.6202  0.3956
 4872TIP3    H236252   4.490   4.065   8.459  0.4022  0.0237  0.5369
 4873TIP3   OH236253   5.374   3.027   8.085 -0.0755 -0.5059  0.2737
 4873TIP3    H136254   5.416   3.108   8.057 -0.9666  0.3692  1.3421
 4873TIP3    H236255   5.317   3.004   8.012  0.5227 -0.4235 -0.2263
 4874TIP3   OH236256   2.486   5.861   8.694 -0.3414 -0.3785 -0.1375
 4874TIP3    H136257   2.417   5.848   8.759  0.2278 -1.2998  0.3068
 4874TIP3    H236258   2.546   5.788   8.708  0.3925  0.0509 -0.9419
 4875TIP3   OH236259   6.818   1.217   0.668 -0.6289 -0.6279 -0.1383
 4875TIP3    H136260   6.830   1.142   0.610 -0.9995  0.1826 -1.2989
 4875TIP3    H236261   6.760   1.185   0.737  0.6482 -1.9036  0.3894
 4876TIP3   OH236262   3.030   5.150   0.292  0.9664 -0.2678 -0.0776
 4876TIP3    H136263   2.958   5.086   0.290 -1.1664  1.9388  0.7055
 4876TIP3    H236264   3.077   5.131   0.373 -1.7381  1.1174  1.9896
 4877TIP3   OH236265   4.249   5.939   7.038 -0.1967  0.0815  0.3060
 4877TIP3    H136266   4.156   5.962   7.036 -0.0047  0.8405 -0.2227
 4877TIP3    H236267   4.252   5.850   7.003 -0.4750  1.0127 -2.3225
 4878TIP3   OH236268   1.945   3.627   1.887 -0.1274 -0.0911  0.0398
 4878TIP3    H136269   2.011   3.563   1.914  0.5531  0.4817 -0.2461
 4878TIP3    H236270   1.928   3.678   1.967 -0.9931 -0.8949  0.3834
 4879TIP3   OH236271   4.632   3.266   0.130 -0.1270 -0.1095 -0.0801
 4879TIP3    H136272   4.704   3.329   0.129 -0.9599  0.9344  1.3270
 4879TIP3    H236273   4.614   3.248   0.038  0.9615  0.7448 -0.4772
 4880TIP3   OH236274   4.485   6.170   2.540  0.1357  0.3535  0.5993
 4880TIP3    H136275   4.521   6.241   2.594 -1.2228  1.4263  0.1716
 4880TIP3    H236276   4.523   6.185   2.453  0.7004 -0.1193  0.7588
 4881TIP3   OH236277   2.785   3.181   8.285 -0.6685 -0.5420 -0.4908
 4881TIP3    H136278   2.842   3.104   8.280 -0.3685 -0.2616 -2.0316
 4881TIP3    H236279   2.845   3.255   8.279 -0.9239 -0.1522  1.3268
 4882TIP3   OH236280   3.563   6.344   0.046 -0.4358 -0.6632  0.1156
 4882TIP3    H136281   3.655   6.320   0.057 -0.1611 -0.8047 -2.1298
 4882TIP3    H236282   3.516   6.261   0.048 -0.3327 -0.7320 -0.2061
 4883TIP3   OH236283   6.546   1.616   2.314  0.5555 -0.1424  0.1686
 4883TIP3    H136284   6.608   1.600   2.385  1.3090  2.7657  0.2795
 4883TIP3    H236285   6.588   1.683   2.259 -1.8744  0.9556 -0.5039
 4884TIP3   OH236286   5.860   5.160   1.160 -0.8583 -0.0369 -0.5169
 4884TIP3    H136287   5.882   5.180   1.069  0.5546  2.5459  0.3041
 4884TIP3    H236288   5.945   5.159   1.206 -1.6941  0.9711  1.1472
 4885TIP3   OH236289   2.460   2.889   8.165  0.3157 -0.2525  0.0784
 4885TIP3    H136290   2.436   2.799   8.188  1.2619 -0.3542  0.7037
 4885TIP3    H236291   2.477   2.885   8.070 -2.1003 -0.1635 -0.4119
 4886TIP3   OH236292   3.825   0.166   7.957 -0.4900 -0.2289 -0.4711
 4886TIP3    H136293   3.733   0.161   7.983 -1.0486  0.7006 -2.0905
 4886TIP3    H236294   3.834   0.102   7.887 -0.1048  0.2038 -0.8270
 4887TIP3   OH236295   4.275   1.148   1.450 -0.0084  0.4188 -0.4515
 4887TIP3    H136296   4.369   1.145   1.462 -0.0838 -3.0281  0.1983
 4887TIP3    H236297   4.239   1.162   1.538 -0.1013 -0.8212 -0.2721
 4888TIP3   OH236298   6.767   3.491   6.843  0.0339  0.2640 -0.6410
 4888TIP3    H136299   6.821   3.416   6.815  0.5626  1.0038 -1.6922
 4888TIP3    H236300   6.720   3.516   6.764  1.2870  2.2070 -0.8434
 4889TIP3   OH236301   6.539   1.532   1.432 -0.4857  0.1865 -0.8968
 4889TIP3    H136302   6.521   1.519   1.525 -0.5574  1.9429 -0.6195
 4889TIP3    H236303   6.610   1.470   1.413 -0.0736  0.1797  0.4784
 4890TIP3   OH236304   2.081   2.060   2.062 -0.2993  0.2594 -0.4041
 4890TIP3    H136305   2.119   2.035   1.978 -0.5207  0.0500 -0.4440
 4890TIP3    H236306   2.152   2.102   2.109 -0.1684  0.3637 -0.6898
 4891TIP3   OH236307   0.823   2.131   1.818  0.2609  0.6280 -0.3301
 4891TIP3    H136308   0.809   2.216   1.860  0.3702  0.0530  0.8807
 4891TIP3    H236309   0.912   2.138   1.781  0.5063  0.8272  0.2871
 4892TIP3   OH236310   3.028   1.405   7.869  0.0774  0.0253 -0.4349
 4892TIP3    H136311   3.121   1.414   7.887 -0.2331  0.9550  0.8150
 4892TIP3    H236312   3.006   1.481   7.815 -0.1614  0.4120  0.1911
 4893TIP3   OH236313   2.571   3.906   7.798 -0.1452  0.1077 -0.0819
 4893TIP3    H136314   2.572   3.868   7.711 -0.4628 -1.7542  0.6690
 4893TIP3    H236315   2.481   3.936   7.811 -0.4717 -0.8945  0.0882
 4894TIP3   OH236316   2.945   1.194   2.273  0.0292  0.5113  0.3518
 4894TIP3    H136317   2.903   1.168   2.191 -0.6141  1.7875  0.2675
 4894TIP3    H236318   3.037   1.171   2.260 -0.1828  0.0456 -0.4447
 4895TIP3   OH236319   3.589   1.341   0.717 -0.1819 -0.1241  0.1677
 4895TIP3    H136320   3.559   1.399   0.787  0.7150 -0.1506  0.5917
 4895TIP3    H236321   3.541   1.370   0.640 -0.2559  0.7353  0.5239
 4896TIP3   OH236322   2.690   0.159   6.580 -0.1060 -0.7377 -0.3703
 4896TIP3    H136323   2.650   0.237   6.618  1.1749 -0.3982  0.3029
 4896TIP3    H236324   2.615   0.103   6.558 -0.9694 -0.6737  2.0473
 4897TIP3   OH236325   0.351   5.775   0.907  0.1743  0.0984  0.1830
 4897TIP3    H136326   0.323   5.721   0.982 -0.7608 -0.1475 -0.3284
 4897TIP3    H236327   0.444   5.792   0.923  0.1807 -0.6286  0.9899
 4898TIP3   OH236328   2.396   1.866   8.307  0.6616  0.5330 -0.1155
 4898TIP3    H136329   2.350   1.782   8.306 -0.5246  1.1341  0.5627
 4898TIP3    H236330   2.488   1.844   8.298  0.3081 -0.7891 -0.6631
 4899TIP3   OH236331   4.496   4.188   2.360 -0.3189 -0.1954  0.2351
 4899TIP3    H136332   4.421   4.203   2.419  0.0573  1.3766  0.3566
 4899TIP3    H236333   4.550   4.267   2.370  0.7485 -0.7823 -0.7555
 4900TIP3   OH236334   4.855   5.892   2.284  0.0529 -0.0289  0.0164
 4900TIP3    H136335   4.864   5.981   2.317  1.2432  0.5548 -1.7362
 4900TIP3    H236336   4.762   5.885   2.259 -0.1127  0.6173  0.4177
 4901TIP3   OH236337   1.833   5.997   6.741  0.0204 -0.2851 -0.2819
 4901TIP3    H136338   1.922   6.029   6.758  0.6794 -1.8719 -0.5977
 4901TIP3    H236339   1.841   5.902   6.739 -1.1103 -0.4301 -3.3946
 4902TIP3   OH236340   0.592   2.343   7.243  0.2769  0.1967 -0.8996
 4902TIP3    H136341   0.606   2.347   7.338  1.1454 -0.7294 -0.9779
 4902TIP3    H236342   0.649   2.411   7.207  0.3319  0.2040 -0.7995
 4903TIP3   OH236343   6.269   4.785   0.428  0.5033 -0.2541 -0.1300
 4903TIP3    H136344   6.176   4.790   0.448  0.2384 -0.5249 -1.2358
 4903TIP3    H236345   6.312   4.781   0.513 -0.5109 -0.4104  0.3845
 4904TIP3   OH236346   5.054   1.180   2.333  0.7803  0.1006 -0.1495
 4904TIP3    H136347   5.003   1.099   2.340  0.9812 -0.0204 -0.0517
 4904TIP3    H236348   4.996   1.248   2.365  1.1036 -0.2107  1.1513
 4905TIP3   OH236349   2.200   0.170   1.022 -0.0606  0.1321 -0.4514
 4905TIP3    H136350   2.164   0.198   1.107  2.0655  2.9981 -0.3425
 4905TIP3    H236351   2.128   0.182   0.960 -1.0875 -0.2158  0.6475
 4906TIP3   OH236352   2.400   3.901   1.323 -0.3242 -0.2850  0.4078
 4906TIP3    H136353   2.379   3.981   1.371 -2.1365  0.3182 -1.2389
 4906TIP3    H236354   2.421   3.930   1.235  3.0148 -1.3579  0.7121
 4907TIP3   OH236355   5.024   4.723   1.333 -0.1874 -0.1035 -0.0581
 4907TIP3    H136356   4.966   4.727   1.408  0.6324  1.1116  0.5627
 4907TIP3    H236357   4.966   4.716   1.257 -1.0903  0.0654  0.6041
 4908TIP3   OH236358   0.060   5.290   7.075 -0.2033  0.2856  0.4012
 4908TIP3    H136359   0.085   5.198   7.066 -1.3707 -0.1311  1.0842
 4908TIP3    H236360   0.138   5.333   7.111  0.3951 -0.4005 -0.0487
 4909TIP3   OH236361   5.795   1.117   7.928  0.1136  0.1745  0.0888
 4909TIP3    H136362   5.779   1.185   7.994  0.2264  0.0609  0.2354
 4909TIP3    H236363   5.777   1.159   7.845 -2.3613 -0.3151  0.2869
 4910TIP3   OH236364   1.803   1.150   8.555  0.2969 -0.4649 -0.5322
 4910TIP3    H136365   1.836   1.233   8.521 -0.7543 -0.6390 -2.0803
 4910TIP3    H236366   1.709   1.156   8.545 -0.3247 -0.0638  3.5718
 4911TIP3   OH236367   5.940   4.341   8.070 -0.3826 -0.0799 -0.4805
 4911TIP3    H136368   6.014   4.395   8.044  1.0183 -0.1053  2.8474
 4911TIP3    H236369   5.883   4.400   8.119 -1.1341 -0.6803 -0.6027
 4912TIP3   OH236370   2.878   6.800   0.809 -0.3408 -0.2095 -0.1483
 4912TIP3    H136371   2.937   6.845   0.748 -0.4657  0.7111  0.3974
 4912TIP3    H236372   2.884   6.851   0.890 -1.4710 -0.4263  0.0795
 4913TIP3   OH236373   4.558   2.740   0.831 -0.1850  0.0836 -0.1369
 4913TIP3    H136374   4.647   2.772   0.812 -0.3203  0.4739 -0.1198
 4913TIP3    H236375   4.572   2.663   0.886  0.2225 -1.2823 -2.0598
 4914TIP3   OH236376   1.980   4.029   8.109 -0.2580 -0.6212 -0.4430
 4914TIP3    H136377   2.010   3.952   8.061 -0.5934 -0.8326 -0.3219
 4914TIP3    H236378   1.955   3.995   8.195 -0.0575 -0.3148 -0.2652
 4915TIP3   OH236379   3.322   0.911   7.623  0.3075 -0.0761  0.0037
 4915TIP3    H136380   3.380   0.965   7.570  1.1897 -0.5659  0.4415
 4915TIP3    H236381   3.297   0.966   7.697 -0.1889  0.2965 -0.4293
 4916TIP3   OH236382   1.053   4.900   0.197 -0.1879 -0.7550  0.6556
 4916TIP3    H136383   0.992   4.826   0.190 -2.5452  1.0799  0.6931
 4916TIP3    H236384   1.029   4.943   0.279 -0.2054  1.1352 -0.2891
 4917TIP3   OH236385   6.780   2.727   2.041  0.0551 -0.7375  0.1508
 4917TIP3    H136386   6.737   2.707   1.958  3.8371  0.9012 -2.4770
 4917TIP3    H236387   6.752   2.816   2.061  0.8132 -0.3089 -0.6251
 4918TIP3   OH236388   0.316   4.073   0.530  0.0833  0.1876  0.2833
 4918TIP3    H136389   0.262   4.079   0.451 -0.8648 -0.3282  0.8686
 4918TIP3    H236390   0.322   4.163   0.561 -0.9294  0.1904  0.5130
 4919TIP3   OH236391   6.193   4.683   1.623  0.4471  0.2606 -0.5176
 4919TIP3    H136392   6.228   4.722   1.542 -0.9697  0.9074 -0.8467
 4919TIP3    H236393   6.100   4.702   1.620 -0.0449 -1.8125  0.1046
 4920TIP3   OH236394   3.232   1.318   0.755  0.7462 -0.1921 -0.4003
 4920TIP3    H136395   3.226   1.223   0.751 -0.2321 -0.2693  1.5550
 4920TIP3    H236396   3.167   1.349   0.692  0.0522 -0.8607 -0.0345
 4921TIP3   OH236397   2.910   2.737   1.289  0.5796  0.2434  0.3692
 4921TIP3    H136398   2.833   2.788   1.313  0.9409  0.8180  0.3239
 4921TIP3    H236399   2.903   2.657   1.341  0.7405  0.9507  1.5156
 4922TIP3   OH236400   1.065   3.447   2.159  0.6957  0.1109 -0.8091
 4922TIP3    H136401   1.041   3.525   2.109  0.4421  0.6498  0.1266
 4922TIP3    H236402   1.101   3.482   2.241 -1.9334 -0.7469  0.8146
 4923TIP3   OH236403   2.520   3.488   7.478 -0.1247  0.0345 -0.3915
 4923TIP3    H136404   2.567   3.525   7.403 -0.1006 -1.0929 -0.9470
 4923TIP3    H236405   2.498   3.399   7.451  2.1599 -1.3676  1.8925
 4924TIP3   OH236406   5.564   2.302   7.839 -0.0814 -0.2987  0.0377
 4924TIP3    H136407   5.602   2.388   7.820 -0.0454 -0.1251  0.8639
 4924TIP3    H236408   5.507   2.317   7.914 -0.9383 -0.7852 -0.5028
 4925TIP3   OH236409   0.869   2.174   8.406 -0.2108  0.1704  0.4107
 4925TIP3    H136410   0.834   2.178   8.317 -1.1498  0.0426  0.7644
 4925TIP3    H236411   0.873   2.081   8.426 -0.3853  0.2162  0.6553
 4926TIP3   OH236412   0.574   6.136   0.210  0.0959 -0.2718  0.1806
 4926TIP3    H136413   0.524   6.207   0.168  0.7686  0.0660 -0.0705
 4926TIP3    H236414   0.571   6.064   0.147 -1.5019 -0.8613  0.9017
 4927TIP3   OH236415   2.666   0.048   7.623  0.2602 -0.1799  0.2551
 4927TIP3    H136416   2.746   0.030   7.572 -0.7601 -0.2951 -1.3644
 4927TIP3    H236417   2.655  -0.030   7.677  0.2791 -0.9412 -0.8169
 4928TIP3   OH236418   3.647   1.861   7.127 -0.4764  0.1467 -0.1608
 4928TIP3    H136419   3.743   1.863   7.132 -0.4376 -1.7082  0.9513
 4928TIP3    H236420   3.628   1.804   7.053 -0.6862 -0.6901  0.5250
 4929TIP3   OH236421   2.940   5.742   7.858  0.2776  0.4465 -0.1616
 4929TIP3    H136422   3.010   5.718   7.918 -0.1926  0.4046  0.3835
 4929TIP3    H236423   2.912   5.659   7.820 -1.5202  0.0060  1.9129
 4930TIP3   OH236424   2.367   6.296   0.789 -0.7177  0.2183  0.3305
 4930TIP3    H136425   2.285   6.302   0.838  0.0690  0.5899  1.6365
 4930TIP3    H236426   2.391   6.388   0.773 -1.6673  0.1349 -2.0366
 4931TIP3   OH236427   6.005   3.012   0.968 -0.2847 -0.2227  0.3184
 4931TIP3    H136428   5.953   2.934   0.949 -1.7229  0.8446 -0.3517
 4931TIP3    H236429   6.088   2.978   1.001 -0.4019 -2.0533 -1.1172
 4932TIP3   OH236430   1.532   6.328   7.275  0.5308 -0.1480  0.7341
 4932TIP3    H136431   1.469   6.320   7.203  1.1147  0.9180  0.0764
 4932TIP3    H236432   1.534   6.241   7.315 -0.0118 -0.6887 -0.3717
 4933TIP3   OH236433   4.445   4.323   0.530  0.0083 -0.3669 -0.2154
 4933TIP3    H136434   4.425   4.328   0.624 -0.3468  0.0711 -0.3093
 4933TIP3    H236435   4.536   4.293   0.526  0.0984 -0.1654  0.2763
 4934TIP3   OH236436   5.652   2.556   7.251  0.3628  0.4607  0.1139
 4934TIP3    H136437   5.689   2.601   7.326 -2.1206  0.4778  1.4420
 4934TIP3    H236438   5.657   2.463   7.274 -0.8562  0.4887  0.6029
 4935TIP3   OH236439   1.852   2.322   1.198 -0.4570  0.6046  0.2255
 4935TIP3    H136440   1.908   2.310   1.274 -1.7373 -0.9050  0.9908
 4935TIP3    H236441   1.884   2.403   1.157 -0.5058  2.1671  3.0336
 4936TIP3   OH236442   3.486   2.263   8.203  0.5835 -0.2718  0.3959
 4936TIP3    H136443   3.497   2.356   8.187  1.0414 -0.0534  1.8234
 4936TIP3    H236444   3.447   2.229   8.123 -1.7301  1.5312  0.6463
 4937TIP3   OH236445   4.173   5.684   8.679 -0.1738  0.1194 -0.0282
 4937TIP3    H136446   4.157   5.700   8.586  0.9360 -3.1561 -0.9324
 4937TIP3    H236447   4.258   5.639   8.681 -0.7610 -1.0493  2.4476
 4938TIP3   OH236448   3.213   3.025   0.619  0.4165 -0.0593  0.6075
 4938TIP3    H136449   3.153   2.978   0.677  0.2594  1.1950  1.5009
 4938TIP3    H236450   3.176   3.113   0.613  1.7764  0.5364  0.5973
 4939TIP3   OH236451   3.094   0.716   7.754  0.2528 -0.6460  0.1386
 4939TIP3    H136452   3.107   0.784   7.820 -0.9118  0.1393 -0.4008
 4939TIP3    H236453   3.007   0.735   7.717  0.3586 -1.7996 -0.7592
 4940TIP3   OH236454   2.358   2.885   2.714 -0.5257  0.3181  0.5373
 4940TIP3    H136455   2.343   2.840   2.631 -0.2502 -2.3220  1.8401
 4940TIP3    H236456   2.273   2.920   2.738 -1.0701 -0.7028  0.1402
 4941TIP3   OH236457   5.924   2.896   1.978 -0.1088  0.4278 -0.4621
 4941TIP3    H136458   5.977   2.916   2.056 -0.6963 -1.0403  0.3435
 4941TIP3    H236459   5.868   2.824   2.005 -0.8657  0.3947 -2.0367
 4942TIP3   OH236460   6.429   1.270   7.459  0.1956 -0.8588 -0.0545
 4942TIP3    H136461   6.494   1.229   7.402  1.2991  1.1410 -0.3146
 4942TIP3    H236462   6.460   1.251   7.548 -0.0948 -1.7724 -0.1403
 4943TIP3   OH236463   4.076   6.184   7.536 -0.2675 -0.1144 -0.8503
 4943TIP3    H136464   4.136   6.189   7.610 -0.5821  2.0244 -0.6790
 4943TIP3    H236465   4.081   6.093   7.507  2.7263 -0.1324 -0.5842
 4944TIP3   OH236466   3.969   4.219   1.597 -0.1543  0.0694 -0.3577
 4944TIP3    H136467   4.022   4.141   1.583 -0.2022 -0.3045  1.3000
 4944TIP3    H236468   3.962   4.227   1.692 -2.4300  0.5459 -0.4958
 4945TIP3   OH236469   4.183   3.125   1.957 -0.4229  0.2007 -0.3855
 4945TIP3    H136470   4.110   3.125   2.018 -0.3170  1.6072 -0.2220
 4945TIP3    H236471   4.183   3.037   1.919 -0.1040 -0.9384  2.0635
 4946TIP3   OH236472   4.859   2.891   0.397  0.2268 -0.7315 -0.3237
 4946TIP3    H136473   4.793   2.946   0.355 -0.1892  0.0435  1.2520
 4946TIP3    H236474   4.809   2.819   0.435  0.4170 -0.7254 -0.0549
 4947TIP3   OH236475   5.277   4.834   1.441  0.2628  0.7571 -0.5668
 4947TIP3    H136476   5.205   4.818   1.380  1.8964 -0.9327 -2.1778
 4947TIP3    H236477   5.355   4.838   1.386  1.6055  1.0189  1.2587
 4948TIP3   OH236478   3.846   1.349   7.886 -0.1404 -0.1732 -0.4026
 4948TIP3    H136479   3.901   1.386   7.956 -1.0333 -0.7017  0.6078
 4948TIP3    H236480   3.855   1.411   7.814  1.4188 -0.0174 -0.1116
 4949TIP3   OH236481   4.329   0.778   7.798 -0.2529 -0.2190 -0.7146
 4949TIP3    H136482   4.270   0.823   7.736 -0.7545 -0.5186 -0.4623
 4949TIP3    H236483   4.403   0.750   7.745 -0.0131  0.7464 -0.9151
 4950TIP3   OH236484   0.244   5.900   0.255  0.2064 -0.5256 -0.5338
 4950TIP3    H136485   0.258   5.970   0.192 -1.3475 -1.2309 -1.7611
 4950TIP3    H236486   0.196   5.941   0.327 -0.0159 -0.1582 -0.8880
 4951TIP3   OH236487   5.690   1.646   7.247  0.2011 -0.1297 -0.2809
 4951TIP3    H136488   5.685   1.665   7.341  0.4967  1.9756 -0.6558
 4951TIP3    H236489   5.783   1.630   7.231  0.7658  2.9907 -0.7550
 4952TIP3   OH236490   5.591   2.941   6.502 -0.6636  0.7965  0.3169
 4952TIP3    H136491   5.555   2.861   6.465 -0.0370  1.1437 -1.1137
 4952TIP3    H236492   5.683   2.941   6.474 -0.6036  1.9026  0.4664
 4953TIP3   OH236493   3.651   4.980   7.280  0.2429 -0.4152  0.2868
 4953TIP3    H136494   3.737   5.023   7.281  0.5100 -0.9484  0.5198
 4953TIP3    H236495   3.645   4.941   7.193  0.0102  0.0595  0.0832
 4954TIP3   OH236496   3.057   1.117   8.536 -0.5041  0.3953  0.5514
 4954TIP3    H136497   2.995   1.136   8.465 -0.7937  0.3436  0.7942
 4954TIP3    H236498   3.100   1.036   8.509  0.8882  1.4438 -0.6000
 4955TIP3   OH236499   3.012   4.083   2.174 -0.1661  0.2062  0.4022
 4955TIP3    H136500   3.026   4.176   2.190  0.0563  0.0489  1.1868
 4955TIP3    H236501   3.054   4.039   2.248 -3.2184 -0.3861  1.9855
 4956TIP3   OH236502   5.011   5.731   7.618 -0.4843 -0.2905  0.4386
 4956TIP3    H136503   4.932   5.677   7.611 -1.0712  0.5211  0.7093
 4956TIP3    H236504   5.017   5.777   7.534 -1.8086  1.6633  1.3475
 4957TIP3   OH236505   1.721   1.380   8.849 -0.0550  0.3952 -0.0205
 4957TIP3    H136506   1.669   1.332   8.786 -0.9241 -0.6453  1.4364
 4957TIP3    H236507   1.657   1.427   8.902  0.6768  1.5389 -0.1154
 4958TIP3   OH236508   2.773   0.551   2.474 -0.3480  0.6350  0.1028
 4958TIP3    H136509   2.726   0.476   2.509  0.5649  0.7577  1.6885
 4958TIP3    H236510   2.756   0.549   2.380 -1.2527 -0.8916  0.2751
 4959TIP3   OH236511   6.454   3.476   1.950  0.1888 -0.5399 -0.0787
 4959TIP3    H136512   6.510   3.462   1.874  0.1623 -0.4034 -0.1246
 4959TIP3    H236513   6.426   3.389   1.976 -0.6666 -0.5154 -0.8771
 4960TIP3   OH236514   1.500   0.452   7.084 -0.7338 -0.2557 -0.2565
 4960TIP3    H136515   1.469   0.509   7.154 -0.8257 -0.0164 -0.4874
 4960TIP3    H236516   1.550   0.510   7.026  0.9068 -0.8014  0.5526
 4961TIP3   OH236517   4.033   5.591   1.330  0.1115 -0.2089  0.8601
 4961TIP3    H136518   3.960   5.528   1.326  1.7987 -2.1951 -0.9755
 4961TIP3    H236519   4.021   5.646   1.252  0.5056 -0.4739  0.6106
 4962TIP3   OH236520   3.548   5.508   2.344 -0.2392  0.3133 -0.2077
 4962TIP3    H136521   3.511   5.497   2.431 -0.6969 -1.0478 -0.5566
 4962TIP3    H236522   3.639   5.534   2.360 -0.0956 -0.6852  0.6932
 4963TIP3   OH236523   2.107   3.925   6.966  0.2545  0.4590  0.1540
 4963TIP3    H136524   2.180   3.978   6.998  3.2233 -2.0704 -1.8723
 4963TIP3    H236525   2.074   3.973   6.889  0.7074  0.9114  0.2382
 4964TIP3   OH236526   1.599   1.278   8.410 -0.1648 -0.3214 -0.1731
 4964TIP3    H136527   1.623   1.273   8.318  1.2040 -0.4519  0.1695
 4964TIP3    H236528   1.603   1.372   8.431 -1.1899 -0.2167 -0.4169
 4965TIP3   OH236529   1.193   1.861   1.198  0.0125  0.6998  0.2363
 4965TIP3    H136530   1.098   1.874   1.195  0.3330  3.2371 -0.6546
 4965TIP3    H236531   1.218   1.840   1.108  0.1493 -1.7331  0.7736
 4966TIP3   OH236532   3.801   3.117   1.059  0.2169 -0.1004  0.1512
 4966TIP3    H136533   3.789   3.075   0.974  1.0728  0.2617 -0.1619
 4966TIP3    H236534   3.861   3.059   1.106  0.1431 -0.0443  0.3143
 4967TIP3   OH236535   1.306   3.331   7.741 -0.9000  0.4003  0.1885
 4967TIP3    H136536   1.384   3.359   7.694 -1.8150  0.6260 -1.2682
 4967TIP3    H236537   1.233   3.371   7.693 -2.1168 -2.2813 -0.3749
 4968TIP3   OH236538   4.014   0.069   1.462 -0.2544 -0.1586  0.1700
 4968TIP3    H136539   3.937   0.095   1.512 -0.2308 -0.6869  0.4946
 4968TIP3    H236540   4.085   0.071   1.526 -0.1426 -0.4193  0.0555
 4969TIP3   OH236541   3.167   4.484   8.477 -0.0162  0.0353  0.1101
 4969TIP3    H136542   3.234   4.416   8.489 -0.4971 -0.4883 -0.0933
 4969TIP3    H236543   3.204   4.562   8.518 -0.1187 -0.7614  1.7776
 4970TIP3   OH236544   1.926   0.309   0.370  0.0327 -0.2968  0.1495
 4970TIP3    H136545   1.831   0.312   0.360 -0.0139 -0.2723  0.5687
 4970TIP3    H236546   1.940   0.262   0.452  0.3337  0.9667  0.8499
 4971TIP3   OH236547   2.496   3.669   0.904 -0.1490 -0.1507  0.7322
 4971TIP3    H136548   2.405   3.695   0.891  0.0229 -0.1233 -0.6601
 4971TIP3    H236549   2.501   3.580   0.870  0.2588 -0.3010  1.1804
 4972TIP3   OH236550   4.419   3.378   0.297  0.0103  0.7920  0.1390
 4972TIP3    H136551   4.495   3.329   0.265  0.9578  1.4536  1.2811
 4972TIP3    H236552   4.457   3.444   0.355 -1.4050  1.5490  0.2188
 4973TIP3   OH236553   6.258   5.120   1.500  0.2991  0.3155  0.0869
 4973TIP3    H136554   6.184   5.111   1.560 -0.2207  0.0590 -0.5828
 4973TIP3    H236555   6.330   5.076   1.545 -0.2410 -0.4118  0.2589
 4974TIP3   OH236556   1.747   2.780   8.694  0.4800 -0.4878 -0.4468
 4974TIP3    H136557   1.784   2.700   8.731  0.5400 -0.1938  0.1414
 4974TIP3    H236558   1.818   2.844   8.701 -0.7996  0.8021  3.0092
 4975TIP3   OH236559   4.624   0.509   1.531 -0.3058 -0.2650  0.2669
 4975TIP3    H136560   4.658   0.519   1.442 -1.0858  0.9229  0.0804
 4975TIP3    H236561   4.562   0.581   1.542 -1.5710 -1.4304  1.1520
 4976TIP3   OH236562   5.641   1.034   7.457  0.0129  0.2741  0.5926
 4976TIP3    H136563   5.630   1.054   7.364  1.4168 -0.8083  0.1684
 4976TIP3    H236564   5.574   1.087   7.501 -0.8441  0.6032 -1.0458
 4977TIP3   OH236565   3.344   4.963   1.240  0.1213  0.3632 -0.5568
 4977TIP3    H136566   3.271   4.993   1.295 -2.4250 -1.5400 -2.6261
 4977TIP3    H236567   3.418   4.954   1.300 -1.1350  2.9235  1.5672
 4978TIP3   OH236568   0.528   6.556   1.163  0.1460 -0.6644  0.4053
 4978TIP3    H136569   0.495   6.471   1.192 -0.6889 -1.2860 -2.0996
 4978TIP3    H236570   0.622   6.542   1.150  0.1778 -0.9220  0.8828
 4979TIP3   OH236571   1.551   1.061   7.918  0.3272  0.0796  0.0439
 4979TIP3    H136572   1.494   0.985   7.905 -0.7495  1.1282 -1.7468
 4979TIP3    H236573   1.492   1.136   7.922  1.4647  1.0100  0.1068
 4980TIP3   OH236574   1.083   2.515   2.442 -0.0042  0.5125 -0.0341
 4980TIP3    H136575   0.995   2.546   2.462  0.1633  0.9546  0.0174
 4980TIP3    H236576   1.126   2.589   2.399  0.6494  0.6135  0.7762
 4981TIP3   OH236577   6.011   0.597   0.795 -0.2810  0.9834  0.3379
 4981TIP3    H136578   5.968   0.539   0.732 -0.2778  1.1461  0.1850
 4981TIP3    H236579   5.977   0.684   0.774  0.7888  1.2509 -0.3649
 4982TIP3   OH236580   2.132   1.255   0.050  1.0365  0.2778  0.3439
 4982TIP3    H136581   2.056   1.199   0.066  0.4449  1.0873  0.4410
 4982TIP3    H236582   2.207   1.199   0.066  0.4618 -0.6110  0.0145
 4983TIP3   OH236583   5.435   0.557   8.501  0.6188  0.1742  0.6838
 4983TIP3    H136584   5.466   0.594   8.584  0.6178 -1.6313  1.5283
 4983TIP3    H236585   5.469   0.468   8.500  0.4944  0.1062 -1.2157
 4984TIP3   OH236586   2.079   2.460   7.762 -0.3618 -0.4813 -0.4413
 4984TIP3    H136587   2.148   2.489   7.703 -0.9282 -0.4859 -1.1231
 4984TIP3    H236588   2.069   2.367   7.744 -1.1979 -0.2860 -1.0439
 4985TIP3   OH236589   3.522   6.606   8.861 -0.0796  0.2472 -0.4074
 4985TIP3    H136590   3.602   6.637   8.904  0.4900 -0.9950 -0.5358
 4985TIP3    H236591   3.522   6.512   8.876 -1.2985  0.1759 -0.7984
 4986TIP3   OH236592   1.011   0.061   1.153 -0.0223 -0.5511  0.2400
 4986TIP3    H136593   1.031   0.021   1.238  0.5138  0.7124  0.7450
 4986TIP3    H236594   1.096   0.073   1.111  0.0112  1.3339  0.7389
 4987TIP3   OH236595   2.483   3.551   7.934  0.7712  0.3228 -0.3479
 4987TIP3    H136596   2.485   3.500   8.015 -3.5928 -0.3122 -0.4256
 4987TIP3    H236597   2.456   3.639   7.962 -3.1980 -0.4761 -1.0879
 4988TIP3   OH236598   2.205   3.083   0.127 -0.0529 -0.5204 -0.8848
 4988TIP3    H136599   2.153   3.025   0.072 -1.8419 -0.4881  0.6819
 4988TIP3    H236600   2.172   3.171   0.108 -0.3250 -0.4585 -0.1435
 4989TIP3   OH236601   5.983   4.476   1.073  0.9808 -0.1663 -0.1631
 4989TIP3    H136602   6.012   4.549   1.128  0.0864 -0.0766  0.2094
 4989TIP3    H236603   6.054   4.413   1.078  0.9616 -0.1214  1.0464
 4990TIP3   OH236604   3.484   3.128   0.660 -0.4122  0.1984 -0.2207
 4990TIP3    H136605   3.400   3.084   0.648  0.0406 -0.2940 -2.0122
 4990TIP3    H236606   3.471   3.216   0.624 -0.2770  0.2449 -0.1575
 4991TIP3   OH236607   5.069   6.362   1.779 -0.4742  0.9045  0.1330
 4991TIP3    H136608   5.015   6.296   1.734  0.0122 -0.4713  1.4633
 4991TIP3    H236609   5.006   6.425   1.814 -1.1238  0.0785  0.4897
 4992TIP3   OH236610   4.514   0.780   0.706  0.4159 -1.2886  0.1570
 4992TIP3    H136611   4.546   0.870   0.706  0.0882 -1.1657  0.8183
 4992TIP3    H236612   4.456   0.775   0.630 -1.5232 -0.2149  1.5015
 4993TIP3   OH236613   2.212   5.709   8.748  0.5440 -1.0854  0.1330
 4993TIP3    H136614   2.235   5.619   8.769 -2.0346 -1.9087 -0.2358
 4993TIP3    H236615   2.188   5.749   8.832 -0.0547 -1.3075  0.0711
 4994TIP3   OH236616   4.937   2.089   0.799 -0.4074 -0.2287  0.4294
 4994TIP3    H136617   4.979   2.007   0.823 -1.1260 -0.2770  1.5978
 4994TIP3    H236618   5.009   2.145   0.770  0.2661 -0.8239  0.9118
 4995TIP3   OH236619   3.172   0.053   0.908  0.0448  0.7205 -0.1715
 4995TIP3    H136620   3.168   0.061   1.003 -1.6328  0.8450 -0.2097
 4995TIP3    H236621   3.130   0.133   0.876 -1.5114 -0.3349 -0.9331
 4996TIP3   OH236622   3.637   1.523   7.282 -0.4946  0.4029 -0.0922
 4996TIP3    H136623   3.561   1.552   7.231 -1.2078 -2.0461 -0.5639
 4996TIP3    H236624   3.667   1.445   7.236  1.4453  0.4982  0.9308
 4997TIP3   OH236625   2.533   4.718   2.425 -0.2557 -0.3445 -0.5344
 4997TIP3    H136626   2.564   4.702   2.514  0.7466  0.3116 -0.7449
 4997TIP3    H236627   2.572   4.802   2.401 -0.9987 -0.2269 -1.3777
 4998TIP3   OH236628   1.216   2.084   7.524  0.8306 -0.5835 -0.2302
 4998TIP3    H136629   1.122   2.100   7.532  1.0574  0.3092  0.8222
 4998TIP3    H236630   1.222   2.005   7.470 -0.4766  0.3188 -1.8032
 4999TIP3   OH236631   2.964   0.892   2.396  0.2181  0.5150 -0.3790
 4999TIP3    H136632   2.906   0.837   2.345  1.0853  0.3285 -1.1961
 4999TIP3    H236633   3.049   0.885   2.352  0.1838  3.1301 -0.9935
 5000TIP3   OH236634   0.713   0.211   2.364  0.9625  0.2239  0.1296
 5000TIP3    H136635   0.732   0.202   2.458 -0.1620 -0.8674  0.2832
 5000TIP3    H236636   0.686   0.302   2.353  2.0549  0.6358  0.6647
 5001TIP3   OH236637   5.645   3.119   1.067  0.5376 -0.1211  0.2691
 5001TIP3    H136638   5.644   3.206   1.107 -1.3244  0.1104 -0.2011
 5001TIP3    H236639   5.703   3.128   0.992  1.2500  0.3968  0.8625
 5002TIP3   OH236640   6.289   3.923   0.636  0.8403  0.1616 -0.1216
 5002TIP3    H136641   6.232   3.965   0.572  1.3224 -0.2634 -0.8510
 5002TIP3    H236642   6.365   3.895   0.585  0.8024 -1.0428  0.4480
 5003TIP3   OH236643   4.407   5.272   0.844 -0.9327  0.5626 -0.8454
 5003TIP3    H136644   4.427   5.365   0.837 -0.8302  0.4227 -3.0679
 5003TIP3    H236645   4.491   5.228   0.831 -0.7773  0.1227  1.2869
 5004TIP3   OH236646   5.190   1.692   8.563  0.4896 -0.1760 -0.2955
 5004TIP3    H136647   5.286   1.693   8.566  0.5454  1.9899 -0.9125
 5004TIP3    H236648   5.168   1.606   8.527  2.1996 -0.6880 -0.2046
 5005TIP3   OH236649   4.577   2.666   1.260 -0.8715  0.2660 -0.0734
 5005TIP3    H136650   4.502   2.673   1.320 -1.9093  1.2884 -1.4165
 5005TIP3    H236651   4.557   2.589   1.207 -0.0290 -0.5451  0.7394
 5006TIP3   OH236652   2.295   1.950   8.529 -0.2268  0.2453 -0.4913
 5006TIP3    H136653   2.336   1.911   8.452  1.3985  1.9225 -0.5449
 5006TIP3    H236654   2.277   2.040   8.503 -2.0648  0.1338  0.2583
 5007TIP3   OH236655   5.554   3.182   0.571 -0.7731  0.2179 -0.4098
 5007TIP3    H136656   5.485   3.178   0.505 -1.1298 -1.2614  0.0204
 5007TIP3    H236657   5.632   3.146   0.527 -0.9165 -0.4204 -0.1497
 5008TIP3   OH236658   5.938   1.907   7.284 -0.2136  0.2704  0.3234
 5008TIP3    H136659   5.861   1.961   7.266 -1.1041 -0.2481  2.3808
 5008TIP3    H236660   5.904   1.825   7.318  1.2342 -0.3426  0.3821
 5009TIP3   OH236661   2.652   1.229   8.495  0.0301 -0.1758 -0.5530
 5009TIP3    H136662   2.736   1.203   8.456  0.1648 -1.2095  0.3761
 5009TIP3    H236663   2.628   1.156   8.552 -0.0858  1.3179  1.4209
 5010TIP3   OH236664   1.723   3.028   2.881 -0.0696  0.0808  0.7700
 5010TIP3    H136665   1.800   3.079   2.858 -0.4635  0.5184  0.3847
 5010TIP3    H236666   1.673   3.084   2.939 -0.6148  0.2355  0.1669
 5011TIP3   OH236667   4.174   0.955   0.496  0.2716 -0.0278 -0.3370
 5011TIP3    H136668   4.135   1.042   0.483  2.1384  1.2741  1.9405
 5011TIP3    H236669   4.161   0.936   0.589  0.9051 -1.6609 -0.5479
 5012TIP3   OH236670   6.401   5.816   1.042 -0.2228  0.1210  0.3807
 5012TIP3    H136671   6.307   5.829   1.032 -0.5004 -0.0277  2.4321
 5012TIP3    H236672   6.436   5.828   0.953 -2.3335 -1.5920 -0.7774
 5013TIP3   OH236673   0.176   5.149   7.802  0.8221  0.2597  0.4523
 5013TIP3    H136674   0.108   5.198   7.848  0.3200  1.1952 -1.2205
 5013TIP3    H236675   0.203   5.081   7.864 -1.2574  0.1898  1.3420
 5014TIP3   OH236676   2.796   4.347   2.996  0.2374  0.0740 -0.2616
 5014TIP3    H136677   2.739   4.347   3.073 -0.6391 -1.4971 -0.8636
 5014TIP3    H236678   2.801   4.439   2.970  0.1776  0.5761  1.3837
 5015TIP3   OH236679   2.804   5.738   0.627 -0.4225  0.0552 -0.0076
 5015TIP3    H136680   2.759   5.813   0.666  0.4522 -0.5840  2.3697
 5015TIP3    H236681   2.733   5.681   0.598 -1.0964  1.3018 -0.9059
 5016TIP3   OH236682   6.563   5.211   1.349  0.2529 -0.9558  0.1770
 5016TIP3    H136683   6.537   5.251   1.266  1.2887  0.5735  0.5475
 5016TIP3    H236684   6.506   5.251   1.414  1.8518  0.6827  0.6689
 5017TIP3   OH236685   2.326   6.033   0.633 -0.0796 -0.2225 -0.2634
 5017TIP3    H136686   2.293   5.965   0.692 -0.1134 -0.6643 -0.7884
 5017TIP3    H236687   2.388   6.083   0.687 -1.0733  0.1906  0.5325
 5018TIP3   OH236688   4.689   2.017   0.307 -0.1018  0.4235 -0.3099
 5018TIP3    H136689   4.612   2.075   0.309  1.0626  2.1362 -1.8155
 5018TIP3    H236690   4.723   2.020   0.396 -0.0526  2.1890 -0.3370
 5019TIP3   OH236691   0.325   0.793   2.426 -0.0949  0.2048 -0.6218
 5019TIP3    H136692   0.290   0.740   2.355 -0.0386 -1.3181  0.4177
 5019TIP3    H236693   0.382   0.732   2.475  1.1687  1.6393 -0.2162
 5020TIP3   OH236694   3.249   2.277   0.157 -0.1663 -0.3185  0.2388
 5020TIP3    H136695   3.215   2.352   0.109 -0.0610  0.2270  0.9926
 5020TIP3    H236696   3.197   2.275   0.238  0.4042 -0.5316  0.6108
 5021TIP3   OH236697   0.021   1.102   1.319 -0.1972 -0.5060 -0.3914
 5021TIP3    H136698   0.067   1.029   1.276  0.2719  0.6476 -1.9271
 5021TIP3    H236699  -0.071   1.078   1.315 -0.0420 -1.0503 -0.8261
 5022TIP3   OH236700   0.700   0.752   8.012  0.0842 -0.2660 -0.1770
 5022TIP3    H136701   0.793   0.730   8.005  0.2571  0.1215  0.7491
 5022TIP3    H236702   0.662   0.725   7.928  0.5340 -2.8431  0.3539
 5023TIP3   OH236703   1.277   1.140   6.854 -0.2697 -0.4372  0.5297
 5023TIP3    H136704   1.207   1.141   6.788 -0.0868  1.8571  0.3013
 5023TIP3    H236705   1.233   1.112   6.934 -0.8928 -1.4228 -0.1179
 5024TIP3   OH236706   3.267   5.846   1.987  0.2503  0.0637  0.4847
 5024TIP3    H136707   3.285   5.769   2.041 -0.0241 -0.5936 -0.3277
 5024TIP3    H236708   3.304   5.824   1.901  1.2647  1.3574  0.5691
 5025TIP3   OH236709   2.553   4.254   2.100  0.1491  0.4356  0.5684
 5025TIP3    H136710   2.589   4.262   2.012 -2.1186 -1.0848 -0.5774
 5025TIP3    H236711   2.542   4.344   2.130 -0.7327  1.0513 -1.4581
 5026TIP3   OH236712   2.378   2.967   7.132  0.4265 -0.5779 -0.0278
 5026TIP3    H136713   2.472   2.956   7.117  0.9892  1.9363  1.1297
 5026TIP3    H236714   2.355   3.046   7.083 -0.7244 -0.2499  0.9914
 5027TIP3   OH236715   1.065   3.903   0.541  0.5162  0.0301  0.9326
 5027TIP3    H136716   1.128   3.867   0.604 -0.2737  0.4231  1.9807
 5027TIP3    H236717   1.017   3.826   0.509  0.4875 -0.1097  1.3012
 5028TIP3   OH236718   5.368   6.466   6.976  0.1134  0.2348  0.6740
 5028TIP3    H136719   5.422   6.405   6.926 -1.5149 -0.0862 -0.7925
 5028TIP3    H236720   5.380   6.550   6.933  1.5755  0.7767  2.0775
 5029TIP3   OH236721   2.686   0.382   1.355 -0.5898 -0.3698  0.2755
 5029TIP3    H136722   2.696   0.348   1.444  0.0420  0.3785  0.4953
 5029TIP3    H236723   2.602   0.346   1.326 -0.5005 -1.1507  0.9299
 5030TIP3   OH236724   2.931   2.351   1.592 -0.2553  1.1693  0.2210
 5030TIP3    H136725   2.924   2.410   1.667 -1.8605  0.1775  0.8956
 5030TIP3    H236726   2.881   2.274   1.617  1.9175 -0.6058 -0.5748
 5031TIP3   OH236727   1.398   3.995   7.766  0.2349  0.0994  0.3780
 5031TIP3    H136728   1.448   3.914   7.766 -1.4411 -1.0377 -2.1538
 5031TIP3    H236729   1.316   3.973   7.811  0.3288  0.8308  0.9413
 5032TIP3   OH236730   3.293   2.582   7.654  0.3959  0.3165 -0.1427
 5032TIP3    H136731   3.257   2.523   7.588  1.8539  0.1318 -0.8150
 5032TIP3    H236732   3.359   2.530   7.699  0.2405  0.8122  0.6832
 5033TIP3   OH236733   2.084   4.687   0.801  0.2973  0.0600 -0.8237
 5033TIP3    H136734   2.063   4.734   0.721 -1.2573  0.7064 -0.0660
 5033TIP3    H236735   2.001   4.652   0.832  0.3818  1.8343  1.7492
 5034TIP3   OH236736   3.914   0.364   0.182 -0.2194  0.7385  0.4398
 5034TIP3    H136737   3.856   0.439   0.195 -0.4996  0.3160  1.7980
 5034TIP3    H236738   3.922   0.325   0.268 -2.9557 -2.8836 -0.6683
 5035TIP3   OH236739   5.260   0.893   2.194  0.0669 -0.3939  0.1750
 5035TIP3    H136740   5.344   0.879   2.236  0.4790  2.1064  0.3189
 5035TIP3    H236741   5.196   0.856   2.255  1.0208 -2.7957 -0.1803
 5036TIP3   OH236742   2.772   4.198   8.253  0.3637 -0.3305  0.3058
 5036TIP3    H136743   2.857   4.242   8.246  1.2986 -2.0766  0.1539
 5036TIP3    H236744   2.756   4.162   8.165  0.1429 -1.1811  0.6830
 5037TIP3   OH236745   5.342   1.177   2.244 -0.6915  0.4876 -0.6723
 5037TIP3    H136746   5.247   1.181   2.249 -0.6600 -0.3199  1.1637
 5037TIP3    H236747   5.362   1.083   2.246  0.2002  0.6745  1.1703
 5038TIP3   OH236748   0.742   1.038   8.250  0.1097  0.0128 -0.1667
 5038TIP3    H136749   0.760   1.008   8.339  1.1547  0.1004 -0.3359
 5038TIP3    H236750   0.747   1.134   8.255  1.6096 -0.0145 -0.5826
 5039TIP3   OH236751   3.032   2.625   0.591 -0.3298 -0.7137 -0.1924
 5039TIP3    H136752   3.030   2.559   0.661  0.1879 -1.8327 -1.2056
 5039TIP3    H236753   2.979   2.587   0.521 -2.7394  1.3567  0.3627
 5040TIP3   OH236754   4.364   1.953   1.105 -1.0044 -0.0760  0.1481
 5040TIP3    H136755   4.305   1.893   1.152  0.5557 -0.8186  1.2525
 5040TIP3    H236756   4.363   2.033   1.157  1.7178 -1.3213  2.3916
 5041TIP3   OH236757   3.949   6.571   1.471  0.6210 -0.4289 -0.2857
 5041TIP3    H136758   3.923   6.616   1.552  0.0439  0.4374 -0.9404
 5041TIP3    H236759   3.886   6.601   1.406  2.5199  0.7722 -1.6526
 5042TIP3   OH236760   2.252   2.380   0.169  0.8567  0.1378 -0.6070
 5042TIP3    H136761   2.189   2.376   0.097  1.0252  1.2771 -0.8273
 5042TIP3    H236762   2.333   2.411   0.129  0.9105  0.9425  0.0992
 5043TIP3   OH236763   5.207   0.518   6.681 -0.1281  0.5337  0.2765
 5043TIP3    H136764   5.203   0.451   6.612 -1.5516  0.9427 -0.0758
 5043TIP3    H236765   5.298   0.516   6.711  0.2618 -0.4032 -0.8683
 5044TIP3   OH236766   4.331   6.264   7.112  0.1003  0.0705  0.4888
 5044TIP3    H136767   4.278   6.191   7.143  1.3350 -0.7630  0.6889
 5044TIP3    H236768   4.387   6.287   7.186  0.3505  0.6248  0.1366
 5045TIP3   OH236769   6.808   5.970   8.149 -0.6397 -0.6606 -0.1956
 5045TIP3    H136770   6.742   5.950   8.083 -0.1580 -1.6836 -0.3963
 5045TIP3    H236771   6.891   5.946   8.107 -0.0588  1.2985 -0.2288
 5046TIP3   OH236772   6.505   3.567   2.188  0.0402 -0.0036  0.0705
 5046TIP3    H136773   6.420   3.607   2.167  0.7813  0.8344 -1.5115
 5046TIP3    H236774   6.520   3.503   2.118  0.7502 -0.0880  0.2879
 5047TIP3   OH236775   5.517   6.388   8.470 -0.2681 -0.0214  0.0686
 5047TIP3    H136776   5.608   6.361   8.460 -0.5319 -0.9973  0.1704
 5047TIP3    H236777   5.471   6.345   8.398 -0.8400 -0.5698  0.7355
 5048TIP3   OH236778   2.080   1.165   6.966 -0.1865 -0.2191  0.1767
 5048TIP3    H136779   2.089   1.070   6.958  1.2691 -0.0650 -0.2098
 5048TIP3    H236780   2.146   1.201   6.908 -0.2269  1.0397  0.8650
 5049TIP3   OH236781   5.210   1.474   1.870  0.1235 -0.0074  0.4738
 5049TIP3    H136782   5.132   1.440   1.913 -0.8095  1.2814 -0.1123
 5049TIP3    H236783   5.278   1.409   1.886 -0.8256 -0.6951  1.8074
 5050TIP3   OH236784   3.218   6.726   7.870 -0.2861  0.3316  0.6324
 5050TIP3    H136785   3.142   6.784   7.863  0.0899  0.7667  0.0445
 5050TIP3    H236786   3.218   6.676   7.788 -0.3437 -0.1683  0.9378
 5051TIP3   OH236787   4.886   1.695   1.737 -0.1234  0.3140  0.5578
 5051TIP3    H136788   4.818   1.732   1.681 -1.1890  0.7440  2.0494
 5051TIP3    H236789   4.864   1.602   1.745  1.0845 -0.1573 -1.1475
 5052TIP3   OH236790   4.397   1.727   2.498  0.5419 -0.1341  0.4464
 5052TIP3    H136791   4.396   1.777   2.416 -1.6883  1.0896  1.1529
 5052TIP3    H236792   4.428   1.789   2.564 -0.4921 -0.2115  1.0179
 5053TIP3   OH236793   3.682   4.425   1.676  0.0452  0.2256  0.3308
 5053TIP3    H136794   3.610   4.392   1.622  0.3444 -0.3158  0.2580
 5053TIP3    H236795   3.670   4.520   1.675  1.2653  0.4582 -2.4496
 5054TIP3   OH236796   3.151   3.965   0.246  0.2550  0.2598 -0.2717
 5054TIP3    H136797   3.056   3.972   0.237  0.2275 -0.5010 -0.6552
 5054TIP3    H236798   3.163   3.913   0.326  0.3609  0.7680  0.0460
 5055TIP3   OH236799   5.495   1.126   8.746 -0.0291  0.3079 -0.1731
 5055TIP3    H136800   5.506   1.108   8.652  0.0710 -1.2885  0.1196
 5055TIP3    H236801   5.529   1.215   8.757 -0.8040  0.8520 -1.7787
 5056TIP3   OH236802   4.749   2.786   7.874  0.2746 -0.4462 -0.5292
 5056TIP3    H136803   4.806   2.710   7.887 -0.0888 -0.8339 -1.1314
 5056TIP3    H236804   4.784   2.829   7.796  0.0800 -0.3795 -0.5806
 5057TIP3   OH236805   5.946   0.809   8.185  0.1452 -0.5099  0.1690
 5057TIP3    H136806   5.998   0.749   8.132 -0.1127 -0.4203 -0.1924
 5057TIP3    H236807   5.860   0.810   8.143  0.5628  1.2463 -0.7560
 5058TIP3   OH236808   4.315   5.506   7.220 -0.2776  0.1388  0.0352
 5058TIP3    H136809   4.275   5.447   7.283  0.5442  0.5815  0.9894
 5058TIP3    H236810   4.247   5.519   7.154 -1.0828 -0.4911  0.7164
 5059TIP3   OH236811   3.656   3.085   1.377  0.0689 -0.2998  0.1138
 5059TIP3    H136812   3.608   3.129   1.307 -0.0963 -0.6936 -0.0268
 5059TIP3    H236813   3.595   3.083   1.450  0.1701 -0.0645  0.2048
 5060TIP3   OH236814   3.536   5.433   0.248 -0.1548 -0.0240  0.2816
 5060TIP3    H136815   3.627   5.406   0.237  0.4196  1.9572 -0.1321
 5060TIP3    H236816   3.514   5.476   0.165 -1.5778 -0.7276  0.2692
 5061TIP3   OH236817   6.669   2.779   7.473 -0.2327  0.3060 -0.2169
 5061TIP3    H136818   6.625   2.861   7.498  1.2316  0.9590  0.3456
 5061TIP3    H236819   6.637   2.760   7.385 -1.3107  0.9736  0.0117
 5062TIP3   OH236820   4.656   4.676   8.241  0.3023 -0.0188  0.3433
 5062TIP3    H136821   4.581   4.735   8.235  0.1659 -0.3200 -2.7710
 5062TIP3    H236822   4.621   4.598   8.284 -1.2665 -0.1387 -1.0223
 5063TIP3   OH236823   3.683   4.958   0.979  0.2759  0.2107  0.1358
 5063TIP3    H136824   3.777   4.941   0.992  0.3881 -2.2784 -2.6914
 5063TIP3    H236825   3.640   4.885   1.024 -0.2567  0.6456  0.3397
 5064TIP3   OH236826   5.502   4.312   8.833  0.0709  0.1754 -0.2172
 5064TIP3    H136827   5.519   4.327   8.740 -1.5374 -1.5728 -0.8498
 5064TIP3    H236828   5.501   4.217   8.844 -2.0266  0.2522  1.0657
 5065TIP3   OH236829   4.199   2.636   0.819 -0.1076 -0.3776  0.2671
 5065TIP3    H136830   4.111   2.620   0.787 -0.0539 -0.5813  0.2199
 5065TIP3    H236831   4.256   2.624   0.743  0.0547 -1.2154  0.5056
 5066TIP3   OH236832   0.208   5.707   1.765 -0.9071 -0.0296  0.2976
 5066TIP3    H136833   0.118   5.683   1.787 -0.5172 -3.0515 -0.9686
 5066TIP3    H236834   0.260   5.630   1.789  0.8938  0.4384 -1.7549
 5067TIP3   OH236835   2.784   5.174   8.159 -0.0280 -0.1315  0.2039
 5067TIP3    H136836   2.723   5.117   8.207 -1.1187 -0.7640 -1.8155
 5067TIP3    H236837   2.864   5.171   8.210 -1.4758  0.2842  2.6677
 5068TIP3   OH236838   2.870   0.739   2.194  0.4917 -0.4190 -0.1267
 5068TIP3    H136839   2.800   0.691   2.151  0.1906 -1.1317  1.1103
 5068TIP3    H236840   2.942   0.739   2.131 -0.4348 -0.1088 -1.2121
 5069TIP3   OH236841   4.940   0.053   0.800  0.6069 -0.1745 -0.4334
 5069TIP3    H136842   4.990   0.029   0.722  0.2558 -0.8627 -0.4525
 5069TIP3    H236843   4.874   0.115   0.768 -0.8545 -1.9757 -1.0956
 5070TIP3   OH236844   6.036   0.541   7.164 -0.0797  0.0637  0.3495
 5070TIP3    H136845   6.121   0.525   7.123  0.9840  0.2514  2.3409
 5070TIP3    H236846   6.004   0.622   7.125  1.5677  1.0077  0.8911
 5071TIP3   OH236847   2.241   3.227   8.068 -0.1033  1.0133 -0.5289
 5071TIP3    H136848   2.291   3.176   8.004 -0.5975 -0.9458  0.5744
 5071TIP3    H236849   2.298   3.230   8.145 -0.2148  1.8990 -0.4712
 5072TIP3   OH236850   0.199   3.011   7.982  0.3799 -0.1029  0.2696
 5072TIP3    H136851   0.170   2.933   8.029 -1.6534 -0.2200 -1.0762
 5072TIP3    H236852   0.288   2.990   7.953  0.4078 -1.3300  1.1841
 5073TIP3   OH236853   2.994   5.947   1.373 -0.4322  0.4287  0.3076
 5073TIP3    H136854   2.963   6.029   1.335  2.2878  1.2207 -0.4498
 5073TIP3    H236855   3.083   5.966   1.403 -1.2905 -1.0032  4.4289
 5074TIP3   OH236856   6.827   1.601   8.284 -0.1441  0.8840  0.0490
 5074TIP3    H136857   6.850   1.567   8.371  0.9501 -1.3828 -1.0605
 5074TIP3    H236858   6.751   1.550   8.257 -0.3182  1.3942 -0.4512
 5075TIP3   OH236859   6.635   5.537   8.198  0.2471 -0.5020  0.3528
 5075TIP3    H136860   6.594   5.606   8.145 -0.8704 -1.2095  0.2733
 5075TIP3    H236861   6.615   5.456   8.152  1.6152 -0.8958  0.4110
 5076TIP3   OH236862   1.641   0.712   2.178 -0.1004  0.3193 -0.2973
 5076TIP3    H136863   1.666   0.799   2.149 -1.5324  0.8790  0.0633
 5076TIP3    H236864   1.702   0.653   2.132  0.4297  1.4457 -1.0929
 5077TIP3   OH236865   0.227   2.864   8.621 -0.5460  0.1414  0.5597
 5077TIP3    H136866   0.233   2.860   8.717 -1.2081  2.1226  0.7309
 5077TIP3    H236867   0.134   2.877   8.604 -0.2461  1.3807 -0.2449
 5078TIP3   OH236868   2.620   0.936   8.584  0.3390 -0.3439  0.3877
 5078TIP3    H136869   2.630   0.913   8.676 -1.3844 -1.3305  0.3722
 5078TIP3    H236870   2.682   0.879   8.538  0.3150 -0.7369  0.8359
 5079TIP3   OH236871   5.122   1.736   1.883  0.0933  0.1953 -0.3061
 5079TIP3    H136872   5.028   1.740   1.870 -0.1815 -2.0619  0.5325
 5079TIP3    H236873   5.146   1.646   1.863  1.2241 -0.7133  4.0201
 5080TIP3   OH236874   1.280   3.944   1.399  0.3445  0.4520  0.4212
 5080TIP3    H136875   1.363   3.973   1.360  1.0117 -1.2527  0.4685
 5080TIP3    H236876   1.218   3.941   1.327  0.3706  1.4679  0.3336
 5081TIP3   OH236877   0.173   5.406   1.832  0.7946 -0.0364 -0.0336
 5081TIP3    H136878   0.088   5.415   1.877  1.4233 -0.0225  1.1877
 5081TIP3    H236879   0.176   5.314   1.806 -0.0821  0.2136 -1.1395
 5082TIP3   OH236880   4.627   2.863   7.273 -0.3304  0.2786  0.0288
 5082TIP3    H136881   4.689   2.852   7.344 -2.0456  0.7418  1.6848
 5082TIP3    H236882   4.561   2.795   7.288 -2.5283  2.4766  0.9753
 5083TIP3   OH236883   6.499   4.254   0.981  0.2618 -0.0784  0.5631
 5083TIP3    H136884   6.512   4.163   0.953 -0.1374 -0.4258  1.4790
 5083TIP3    H236885   6.510   4.252   1.076  0.7446  0.9259  0.5489
 5084TIP3   OH236886   3.110   5.319   1.975  0.3262  0.2848  0.3331
 5084TIP3    H136887   3.098   5.305   1.881  0.1328  0.7989  0.2741
 5084TIP3    H236888   3.204   5.332   1.986  0.5069 -0.9484  0.3874
 5085TIP3   OH236889   6.645   3.177   1.493 -0.0626 -0.2291 -0.2196
 5085TIP3    H136890   6.741   3.171   1.498  0.0999  1.4289 -0.6414
 5085TIP3    H236891   6.616   3.162   1.583  0.4901 -1.8025 -0.2660
 5086TIP3   OH236892   4.106   1.197   2.187 -0.4547 -0.1880 -0.6800
 5086TIP3    H136893   4.018   1.178   2.221  0.2551 -1.1684  0.7213
 5086TIP3    H236894   4.112   1.292   2.187 -0.8600 -0.1204  1.0949
 5087TIP3   OH236895   0.762   6.005   8.210  0.0089 -0.2871 -0.4263
 5087TIP3    H136896   0.731   5.924   8.171  1.9301 -0.9426 -0.6674
 5087TIP3    H236897   0.844   6.024   8.165  1.8206 -0.5205  2.4935
 5088TIP3   OH236898   3.104   2.505   8.641  0.4998 -0.4592 -0.4049
 5088TIP3    H136899   3.114   2.573   8.575  2.1909  0.4882  0.7554
 5088TIP3    H236900   3.118   2.423   8.592 -0.0040  0.0897 -1.5144
 5089TIP3   OH236901   2.354   3.245   0.885 -0.5140 -0.0330 -0.0178
 5089TIP3    H136902   2.261   3.267   0.888 -0.8959 -1.3194 -1.4384
 5089TIP3    H236903   2.388   3.295   0.811 -0.7670 -1.8657 -1.4289
 5090TIP3   OH236904   5.344   2.951   8.350 -0.1402  0.4707  0.2678
 5090TIP3    H136905   5.368   2.989   8.266  0.3748  1.7520  0.9536
 5090TIP3    H236906   5.363   2.858   8.341  0.4064  0.6750 -0.8526
 5091TIP3   OH236907   6.701   1.866   2.819 -0.1335 -0.5035 -0.8101
 5091TIP3    H136908   6.750   1.948   2.822  0.0782 -0.6192 -1.0414
 5091TIP3    H236909   6.768   1.798   2.819 -0.2822 -0.6591 -1.3318
 5092TIP3   OH236910   5.309   4.226   8.063  0.0419 -0.0972  0.4818
 5092TIP3    H136911   5.399   4.231   8.033 -0.1003 -0.9133 -0.0995
 5092TIP3    H236912   5.280   4.318   8.067 -0.4487  0.0895 -3.5193
 5093TIP3   OH236913   5.553   4.827   1.667 -0.0162 -0.1073  0.1861
 5093TIP3    H136914   5.610   4.880   1.611 -0.1578  0.5871  0.6909
 5093TIP3    H236915   5.474   4.879   1.676 -0.4169 -0.7076  0.1510
 5094TIP3   OH236916   0.773   5.788   0.724  0.3836 -0.4124 -0.4013
 5094TIP3    H136917   0.699   5.754   0.673 -1.3681  3.3575 -0.7021
 5094TIP3    H236918   0.818   5.849   0.665 -0.1256  2.0863  1.5977
 5095TIP3   OH236919   2.862   2.567   6.972  0.4705 -0.3806 -0.1404
 5095TIP3    H136920   2.949   2.531   6.955  0.8477 -0.0022  0.8843
 5095TIP3    H236921   2.876   2.662   6.977 -0.1948 -0.2241 -1.0048
 5096TIP3   OH236922   3.609   1.648   8.578 -0.0192 -0.2613  0.0333
 5096TIP3    H136923   3.643   1.709   8.643  0.1632  0.8468 -1.0785
 5096TIP3    H236924   3.637   1.562   8.610  2.6308  0.4808 -0.0902
 5097TIP3   OH236925   0.521   3.157   1.637 -0.3416 -0.1396  0.0544
 5097TIP3    H136926   0.547   3.204   1.558 -0.3469  0.9204  0.6632
 5097TIP3    H236927   0.594   3.169   1.698 -0.5588 -0.5117  0.3966
 5098TIP3   OH236928   4.412   5.405   7.816 -0.0007 -0.6957 -0.0948
 5098TIP3    H136929   4.437   5.463   7.744  1.0399 -1.9703 -0.7896
 5098TIP3    H236930   4.316   5.405   7.815 -0.0435  1.2075  0.1161
 5099TIP3   OH236931   1.090   4.340   1.219 -0.4834  0.2564  0.3129
 5099TIP3    H136932   1.118   4.402   1.286  0.6841 -0.7486  0.7781
 5099TIP3    H236933   0.998   4.324   1.240 -0.9061  2.0079  0.0079
 5100TIP3   OH236934   0.116   3.581   1.230 -0.3458 -0.2510  0.4561
 5100TIP3    H136935   0.051   3.599   1.162  0.6093 -0.2683 -0.4920
 5100TIP3    H236936   0.144   3.668   1.259  0.4627 -0.2127 -0.3902
 5101TIP3   OH236937   5.047   4.099   2.339 -0.0938 -0.1675  0.2120
 5101TIP3    H136938   5.105   4.036   2.382  0.1610 -0.2308 -0.2209
 5101TIP3    H236939   4.964   4.091   2.386 -0.3219 -1.4256 -0.3578
 5102TIP3   OH236940   1.784   0.526   2.009 -0.1534 -0.4568  0.7299
 5102TIP3    H136941   1.744   0.521   1.923  0.6106  1.5628  0.2030
 5102TIP3    H236942   1.873   0.493   1.996 -0.8957 -3.0453  1.4760
 5103TIP3   OH236943   1.724   1.074   2.217  0.6558 -0.0615 -0.2980
 5103TIP3    H136944   1.726   1.140   2.287  0.0179 -0.5524  0.1935
 5103TIP3    H236945   1.808   1.028   2.226  1.2214  0.8364 -0.8099
 5104TIP3   OH236946   6.748   0.245   1.353 -0.5124  0.6055  0.2417
 5104TIP3    H136947   6.818   0.180   1.350 -0.6569  0.4663 -0.8070
 5104TIP3    H236948   6.678   0.206   1.300 -1.2378  0.9051  0.9632
 5105TIP3   OH236949   4.883   0.812   1.332  0.2486 -0.1141 -0.0254
 5105TIP3    H136950   4.922   0.728   1.307  1.3309  0.5877 -0.8023
 5105TIP3    H236951   4.882   0.863   1.251  0.7490  1.0348  0.6626
 5106TIP3   OH236952   4.135   3.668   0.546 -0.3898  0.0173 -0.4822
 5106TIP3    H136953   4.200   3.673   0.616  0.1041 -0.2471 -0.9143
 5106TIP3    H236954   4.060   3.624   0.585  0.0135 -0.4364 -0.2138
 5107TIP3   OH236955   0.218   1.401   2.428  0.0330  0.7095 -0.4383
 5107TIP3    H136956   0.261   1.354   2.357 -1.5318 -1.0545 -0.3146
 5107TIP3    H236957   0.126   1.375   2.421 -0.2724  0.9443  1.8625
 5108TIP3   OH236958   1.271   4.382   7.420 -0.0054  0.0636  0.1105
 5108TIP3    H136959   1.294   4.470   7.449  2.0370 -0.1084 -0.7986
 5108TIP3    H236960   1.329   4.365   7.346  0.6484 -2.5372  1.1079
 5109TIP3   OH236961   3.788   4.179   2.800  0.3884  0.2510 -0.0008
 5109TIP3    H136962   3.839   4.210   2.874  1.2925  1.7583 -1.1921
 5109TIP3    H236963   3.767   4.088   2.821 -1.4319  1.2585  3.1588
 5110TIP3   OH236964   6.202   4.861   7.296  0.1651  0.0741 -0.4953
 5110TIP3    H136965   6.254   4.781   7.283  1.6416  0.8069  0.5919
 5110TIP3    H236966   6.146   4.840   7.371  2.8644  1.0076  2.0099
 5111TIP3   OH236967   4.851   0.264   1.507  0.7882 -0.3118  0.3267
 5111TIP3    H136968   4.793   0.338   1.488 -0.0071 -0.7439  1.0117
 5111TIP3    H236969   4.892   0.287   1.591  0.2887 -0.8022  0.7025
 5112TIP3   OH236970   2.928   2.863   0.706  0.1497  0.8997  0.2193
 5112TIP3    H136971   2.955   2.787   0.655  0.0674 -0.3291  1.9453
 5112TIP3    H236972   2.921   2.831   0.795 -1.1976  2.6244  0.7792
 5113TIP3   OH236973   6.615   6.045   7.563  0.3429  0.0900 -0.4291
 5113TIP3    H136974   6.564   6.007   7.634  0.9924 -1.2727 -0.6592
 5113TIP3    H236975   6.695   6.076   7.604 -0.0327  0.9257 -0.3011
 5114TIP3   OH236976   2.142   2.575   8.003  0.0180 -0.2263 -0.2779
 5114TIP3    H136977   2.176   2.517   7.935 -1.6889 -0.3821 -1.0528
 5114TIP3    H236978   2.135   2.661   7.961 -0.5981 -0.2199 -0.1831
 5115TIP3   OH236979   2.046   1.337   0.980  0.1415 -0.4295 -0.1463
 5115TIP3    H136980   1.993   1.342   1.059 -0.9925  1.1311 -0.9497
 5115TIP3    H236981   2.042   1.425   0.943  1.8790 -0.7349 -1.1679
 5116TIP3   OH236982   5.343   0.344   2.927 -0.1769  0.2183  0.0633
 5116TIP3    H136983   5.361   0.401   2.852  0.1181 -0.0303 -0.0590
 5116TIP3    H236984   5.248   0.335   2.929 -0.1301 -0.5692 -0.8741
 5117TIP3   OH236985   1.551   5.750   2.537  0.5456  0.0027 -0.1299
 5117TIP3    H136986   1.566   5.660   2.564  0.9706  0.4307  1.1198
 5117TIP3    H236987   1.632   5.796   2.559  0.2060  0.7657 -0.4354
 5118TIP3   OH236988   1.636   2.060   3.031  0.5055  0.0767  0.2704
 5118TIP3    H136989   1.703   2.129   3.028  0.3084  0.2492 -0.3394
 5118TIP3    H236990   1.682   1.984   3.067  0.9596  0.2756  0.1238
 5119TIP3   OH236991   3.792   4.684   0.172 -0.6215  0.1661  0.0388
 5119TIP3    H136992   3.845   4.676   0.093 -0.7244  1.4646 -0.1796
 5119TIP3    H236993   3.754   4.597   0.184  0.6547 -0.4949 -0.4275
 5120TIP3   OH236994   2.957   0.789   0.568 -0.0843 -0.9108  0.5087
 5120TIP3    H136995   2.950   0.879   0.601  0.4661 -0.3297 -0.8826
 5120TIP3    H236996   3.050   0.778   0.548 -0.4509 -1.0463 -1.2764
 5121TIP3   OH236997   0.674   0.904   8.477  0.1473  0.0115  0.5018
 5121TIP3    H136998   0.675   0.817   8.439  0.3496 -0.0384  0.6188
 5121TIP3    H236999   0.705   0.892   8.567  5.1851  0.8023 -0.8221
 5122TIP3   OH237000   6.505   0.532   0.489 -0.8984  0.2195  0.0739
 5122TIP3    H137001   6.441   0.473   0.449 -0.0486 -0.6467 -0.0417
 5122TIP3    H237002   6.587   0.511   0.446 -0.9790  3.3679 -1.9757
 5123TIP3   OH237003   6.073   1.721   8.637  0.4647 -0.5898  0.0995
 5123TIP3    H137004   6.091   1.808   8.671  2.5439 -0.8174 -0.2845
 5123TIP3    H237005   6.104   1.662   8.706  0.6831 -1.0167 -0.3541
 5124TIP3   OH237006   2.669   3.899   0.030  0.3496  0.7945  0.7440
 5124TIP3    H137007   2.764   3.887   0.033  0.2717  0.3199  1.5121
 5124TIP3    H237008   2.634   3.826   0.080 -0.3226  2.1652  2.3517
 5125TIP3   OH237009   1.263   3.552   0.865  0.4422 -0.3046 -0.4252
 5125TIP3    H137010   1.345   3.550   0.816  0.5857 -0.7805 -0.1690
 5125TIP3    H237011   1.272   3.482   0.930  0.6610  0.9357  0.9337
 5126TIP3   OH237012   2.501   2.018   7.352 -0.4349 -0.4128  0.1672
 5126TIP3    H137013   2.419   2.066   7.360  0.3123  0.7717  1.4428
 5126TIP3    H237014   2.501   1.957   7.426 -0.3449 -0.6959 -0.0636
 5127TIP3   OH237015   6.200   6.174   6.747 -0.3710  0.7134  0.6164
 5127TIP3    H137016   6.275   6.215   6.791  0.5148  1.1511 -1.2109
 5127TIP3    H237017   6.183   6.230   6.672 -1.0228 -0.6750 -0.2966
 5128TIP3   OH237018   0.278   2.248   3.282 -0.4306  0.2001 -0.0333
 5128TIP3    H137019   0.279   2.177   3.347 -2.8521 -0.5843 -0.7241
 5128TIP3    H237020   0.365   2.246   3.243 -0.3631 -2.3584  0.0404
 5129TIP3   OH237021   2.087   0.967   7.515 -0.8299  0.1271  0.1383
 5129TIP3    H137022   1.995   0.944   7.507 -0.6995 -1.2254  2.0198
 5129TIP3    H237023   2.109   0.950   7.607  0.7227  2.6529  0.3510
 5130TIP3   OH237024   5.430   4.380   0.692 -0.3042 -0.4806  0.3028
 5130TIP3    H137025   5.504   4.440   0.685 -0.4723 -0.4288 -1.1430
 5130TIP3    H237026   5.451   4.308   0.632 -1.5696 -0.3113 -0.3659
 5131TIP3   OH237027   3.739   1.435   8.172  0.1335 -0.0139 -0.0643
 5131TIP3    H137028   3.819   1.437   8.119  0.8285 -1.0380  0.9085
 5131TIP3    H237029   3.753   1.501   8.240  0.2104 -0.3140  0.2079
 5132TIP3   OH237030   2.012   0.565   0.335 -0.6812  0.2513 -0.3749
 5132TIP3    H137031   1.990   0.474   0.353 -0.8789  0.2402 -0.6739
 5132TIP3    H237032   2.039   0.601   0.420 -2.9130  0.5828  0.2495
 5133TIP3   OH237033   3.715   4.114   1.528  0.1456 -1.4794  0.2322
 5133TIP3    H137034   3.736   4.058   1.453  0.7089  0.1803 -0.9300
 5133TIP3    H237035   3.780   4.185   1.523 -1.8572  0.4572  0.3086
 5134TIP3   OH237036   0.482   4.238   7.519 -0.6505  0.3024  0.0137
 5134TIP3    H137037   0.478   4.167   7.583  0.6692  0.3579  0.1882
 5134TIP3    H237038   0.572   4.270   7.524 -0.8854  1.1795 -0.9397
 5135TIP3   OH237039   4.965   3.291   1.352  0.1166 -0.1949  0.0930
 5135TIP3    H137040   4.967   3.217   1.292  2.3445 -1.0556  1.1264
 5135TIP3    H237041   4.975   3.253   1.439  1.3905  1.2642  0.6529
 5136TIP3   OH237042   3.485   6.268   1.726  0.6926 -0.1199  0.1557
 5136TIP3    H137043   3.565   6.259   1.779  0.5002 -0.5514  0.3776
 5136TIP3    H237044   3.414   6.261   1.789  0.4646 -0.3664 -0.1272
 5137TIP3   OH237045   1.336   3.274   7.211 -0.3811  0.7067  0.4080
 5137TIP3    H137046   1.372   3.339   7.152 -0.2716 -0.8494 -1.3386
 5137TIP3    H237047   1.313   3.200   7.155 -0.1935 -0.9045  2.3200
 5138TIP3   OH237048   5.626   0.620   8.704 -0.1478 -0.1994 -0.4708
 5138TIP3    H137049   5.710   0.593   8.740  1.0191  2.0739 -1.2518
 5138TIP3    H237050   5.606   0.702   8.749 -0.3456  0.9077 -2.4333
 5139TIP3   OH237051   5.176   0.614   2.592  0.1677  0.3218 -0.4678
 5139TIP3    H137052   5.155   0.522   2.580  0.0624 -0.1452  2.6605
 5139TIP3    H237053   5.233   0.616   2.669  1.3028  2.7645 -1.2635
 5140TIP3   OH237054   3.861   2.169   8.542 -0.7414 -0.1109 -0.0331
 5140TIP3    H137055   3.906   2.188   8.624 -1.3192  0.6498  0.1118
 5140TIP3    H237056   3.769   2.181   8.561 -0.7724  2.3786 -1.3682
 5141TIP3   OH237057   4.527   4.729   1.623 -0.2787 -0.1500  0.6405
 5141TIP3    H137058   4.472   4.674   1.678 -0.9124 -0.4482 -0.2769
 5141TIP3    H237059   4.554   4.801   1.681  1.4738 -1.9352  2.1917
 5142TIP3   OH237060   2.106   3.954   8.454 -0.6883  0.2400 -0.5383
 5142TIP3    H137061   2.191   3.963   8.411 -0.3356 -1.3808 -0.2282
 5142TIP3    H237062   2.099   3.861   8.475 -2.1558  0.4969  0.2454
 5143TIP3   OH237063   2.410   4.119   0.562  0.1107  0.3328 -0.6917
 5143TIP3    H137064   2.336   4.176   0.542 -0.2429  0.1662  0.1412
 5143TIP3    H237065   2.462   4.120   0.481  0.1729  1.9103 -0.6695
 5144TIP3   OH237066   4.478   4.428   1.819 -0.0811  0.0620 -0.0201
 5144TIP3    H137067   4.411   4.430   1.887 -0.0301 -0.0698  0.0353
 5144TIP3    H237068   4.552   4.476   1.856  0.1658 -0.5202  0.2546
 5145TIP3   OH237069   2.563   3.507   1.776  0.1201  0.1000 -0.0956
 5145TIP3    H137070   2.569   3.563   1.699  1.1225  1.0680  0.6464
 5145TIP3    H237071   2.537   3.566   1.847  1.2426 -0.3367  0.7110
 5146TIP3   OH237072   3.925   4.482   2.136 -0.3767 -0.7928  0.2775
 5146TIP3    H137073   4.006   4.509   2.180  0.2537 -1.0167 -0.6871
 5146TIP3    H237074   3.865   4.555   2.149 -0.3728 -1.0537  1.8738
 5147TIP3   OH237075   2.710   3.343   1.192 -0.0866 -0.5392  0.0715
 5147TIP3    H137076   2.721   3.384   1.106 -0.0155 -0.9962 -0.1403
 5147TIP3    H237077   2.671   3.412   1.247 -0.9948 -0.5339 -0.5642
 5148TIP3   OH237078   4.236   0.086   2.251 -0.3323 -0.3430  0.2534
 5148TIP3    H137079   4.180   0.162   2.235 -1.5632 -1.5813 -1.7443
 5148TIP3    H237080   4.219   0.063   2.342  1.6303  2.8869  1.6347
 5149TIP3   OH237081   2.039   5.312   6.767 -0.0595 -0.3167  0.3639
 5149TIP3    H137082   1.980   5.237   6.760 -0.8010 -0.0028  2.5678
 5149TIP3    H237083   2.108   5.283   6.826  0.6928  0.1341 -0.2734
 5150TIP3   OH237084   6.681   2.354   1.944  0.0561 -0.1143  0.0795
 5150TIP3    H137085   6.653   2.308   1.865 -2.8127 -0.6005  1.2355
 5150TIP3    H237086   6.612   2.419   1.960  1.5988  1.3470  1.0998
 5151TIP3   OH237087   4.802   6.484   7.652  0.5848  0.2254  0.2538
 5151TIP3    H137088   4.880   6.488   7.597  1.8383  1.3606  2.0161
 5151TIP3    H237089   4.822   6.417   7.718 -0.2758 -0.0678  0.2269
 5152TIP3   OH237090   2.723   0.727   8.115  0.2982 -0.1319  0.0762
 5152TIP3    H137091   2.766   0.772   8.042 -0.8426  0.9460  0.0357
 5152TIP3    H237092   2.754   0.636   8.108 -0.0674 -0.1541 -1.9928
 5153TIP3   OH237093   6.529   6.223   7.144 -0.4700 -0.6087 -0.2978
 5153TIP3    H137094   6.535   6.128   7.153 -0.7489 -0.6906 -0.9416
 5153TIP3    H237095   6.518   6.255   7.234  2.4139 -0.9570  0.2704
 5154TIP3   OH237096   0.622   2.493   0.546  0.9559  0.5978  0.2289
 5154TIP3    H137097   0.640   2.530   0.460  0.9256  0.1672  0.0336
 5154TIP3    H237098   0.678   2.542   0.606  1.6633  0.2799 -0.1652
 5155TIP3   OH237099   6.505   4.937   7.838  0.6371  0.5164 -0.4120
 5155TIP3    H137100   6.504   4.989   7.919  0.0260  1.3976 -0.9693
 5155TIP3    H237101   6.588   4.960   7.796  1.4602 -0.7500  0.4489
 5156TIP3   OH237102   2.252   3.341   7.254 -0.2245  0.4980 -0.0720
 5156TIP3    H137103   2.180   3.295   7.211 -0.1151  0.5592 -0.3215
 5156TIP3    H237104   2.278   3.408   7.191 -0.8429  1.3554  0.5695
 5157TIP3   OH237105   3.034   3.586   0.693 -0.5730 -0.5997 -0.0883
 5157TIP3    H137106   2.977   3.658   0.666  0.9679 -0.2019 -2.5485
 5157TIP3    H237107   2.980   3.507   0.682 -0.8417 -0.1936 -2.0107
 5158TIP3   OH237108   2.538   3.748   1.518  0.3869  0.2403  0.6958
 5158TIP3    H137109   2.496   3.811   1.578 -1.2323 -0.3183  0.1802
 5158TIP3    H237110   2.503   3.770   1.432 -0.6505 -1.7033  0.5801
 5159TIP3   OH237111   6.609   6.360   0.549 -0.2542 -0.2150 -0.2860
 5159TIP3    H137112   6.518   6.343   0.571 -0.3018  0.2346 -0.1383
 5159TIP3    H237113   6.615   6.455   0.542  0.4348 -0.1739  0.7030
 5160TIP3   OH237114   2.049   3.535   2.806  0.0882 -0.0964 -0.1263
 5160TIP3    H137115   2.107   3.603   2.772 -2.3817  2.1802 -0.0636
 5160TIP3    H237116   2.074   3.456   2.758  2.9224  0.8129 -0.3418
 5161TIP3   OH237117   0.232   1.244   1.439 -0.5206 -0.0811 -0.1713
 5161TIP3    H137118   0.215   1.332   1.406 -0.4650 -0.2695 -0.7127
 5161TIP3    H237119   0.156   1.193   1.412  0.2398 -0.6019 -1.3888
 5162TIP3   OH237120   3.123   0.135   1.626  0.6092  0.2643  0.3057
 5162TIP3    H137121   3.106   0.200   1.558  1.6455  0.6219  0.3724
 5162TIP3    H237122   3.146   0.055   1.579  0.6996  0.3336  0.2320
 5163TIP3   OH237123   5.885   3.437   1.870 -0.5676  0.1138 -0.1464
 5163TIP3    H137124   5.860   3.512   1.924 -1.1982 -0.0165 -0.2513
 5163TIP3    H237125   5.950   3.391   1.922 -1.5334 -0.2936  0.7369
 5164TIP3   OH237126   4.360   0.123   0.855  0.1812  0.1279  0.0539
 5164TIP3    H137127   4.398   0.125   0.943  2.0972 -1.5298 -0.6439
 5164TIP3    H237128   4.418   0.180   0.803  1.0040 -1.3630 -0.7425
 5165TIP3   OH237129   3.264   4.431   6.962  0.3194 -0.7428 -0.4514
 5165TIP3    H137130   3.324   4.488   7.010  0.7364 -0.5902 -1.1424
 5165TIP3    H237131   3.320   4.368   6.918 -0.1202 -1.4736  0.0170
 5166TIP3   OH237132   0.507   4.485   0.702  0.2820  0.0743  0.0490
 5166TIP3    H137133   0.444   4.430   0.748  0.5048  0.4182  0.7914
 5166TIP3    H237134   0.551   4.425   0.641 -0.1806 -0.3413  0.1147
 5167TIP3   OH237135   1.183   5.100   1.718  0.0093  0.0408 -0.1990
 5167TIP3    H137136   1.118   5.157   1.676 -0.7472  0.3974  1.3558
 5167TIP3    H237137   1.150   5.012   1.705  0.2907  0.0712 -1.1624
 5168TIP3   OH237138   5.658   0.470   7.085 -0.0488  0.3571  0.2432
 5168TIP3    H137139   5.692   0.554   7.115  3.0989 -0.6206 -0.2614
 5168TIP3    H237140   5.707   0.451   7.005 -2.1201 -1.0693 -0.7928
 5169TIP3   OH237141   0.831   3.809   0.848 -0.1955  0.1131 -0.2077
 5169TIP3    H137142   0.902   3.873   0.855  0.0094 -0.0879 -0.4237
 5169TIP3    H237143   0.876   3.725   0.836 -0.3914 -0.4512  2.5112
 5170TIP3   OH237144   0.651   5.822   8.044  0.1750  0.5613 -0.1443
 5170TIP3    H137145   0.610   5.737   8.062  1.2477  0.2792  1.1335
 5170TIP3    H237146   0.686   5.814   7.955 -1.3589  0.3587 -0.7608
 5171TIP3   OH237147   6.741   0.257   0.148  0.3004  0.1347  0.6807
 5171TIP3    H137148   6.808   0.190   0.162  0.2994 -0.2529 -0.9856
 5171TIP3    H237149   6.765   0.299   0.066 -1.5212 -0.0591 -0.0018
 5172TIP3   OH237150   6.747   6.355   0.817  0.0343 -0.0463 -0.5284
 5172TIP3    H137151   6.815   6.343   0.750  0.5105 -0.9544  0.1038
 5172TIP3    H237152   6.694   6.427   0.783  1.1139  0.4707 -1.1932
 5173TIP3   OH237153   0.349   1.776   7.254  0.4785 -0.5456  0.2130
 5173TIP3    H137154   0.341   1.832   7.331 -1.1925 -1.7396  0.9636
 5173TIP3    H237155   0.288   1.814   7.190  1.6753  0.2947 -0.4743
 5174TIP3   OH237156   3.687   1.981   0.934  0.0877 -0.3201  0.2451
 5174TIP3    H137157   3.684   1.928   1.013 -0.9795 -0.5743  0.0518
 5174TIP3    H237158   3.646   2.064   0.958  0.1724 -0.2294  0.0836
 5175TIP3   OH237159   0.551   3.029   0.448 -0.1328  0.8686  0.7519
 5175TIP3    H137160   0.491   3.084   0.498  1.1482  3.1113 -0.0236
 5175TIP3    H237161   0.634   3.076   0.450  0.6370 -0.2481 -1.2843
 5176TIP3   OH237162   3.880   5.936   7.691 -0.2165 -0.5484 -0.2000
 5176TIP3    H137163   3.843   5.892   7.615  0.5829 -2.6453  0.5508
 5176TIP3    H237164   3.975   5.923   7.682 -0.0859 -0.4290  0.8949
 5177TIP3   OH237165   6.221   5.346   8.757  0.0887 -0.3513 -0.0760
 5177TIP3    H137166   6.132   5.357   8.791  0.0206 -0.4947 -0.2023
 5177TIP3    H237167   6.244   5.432   8.721 -0.4928 -0.6299 -1.1971
 5178TIP3   OH237168   6.279   1.664   3.078 -0.7487  0.0732  0.0854
 5178TIP3    H137169   6.199   1.717   3.079 -1.1221 -0.3557  3.2259
 5178TIP3    H237170   6.347   1.723   3.114 -0.3624 -0.4730  0.2669
 5179TIP3   OH237171   1.308   3.595   8.061 -0.8484  0.8092  0.3925
 5179TIP3    H137172   1.304   3.548   8.145  0.0230  2.7329  1.5929
 5179TIP3    H237173   1.402   3.597   8.040 -0.9151  1.6177  0.1538
 5180TIP3   OH237174   2.264   0.553   8.521  0.8552 -0.2231 -0.4127
 5180TIP3    H137175   2.276   0.479   8.580  1.5590 -1.3775 -1.9458
 5180TIP3    H237176   2.347   0.600   8.525  0.5187  0.3347  0.3186
 5181TIP3   OH237177   2.781   2.501   0.748 -0.0870  0.7255  0.4265
 5181TIP3    H137178   2.733   2.571   0.793  1.0977  0.5932  1.9501
 5181TIP3    H237179   2.730   2.486   0.667 -1.5748  1.8203  1.1060
 5182TIP3   OH237180   2.610   3.433   0.386  0.1787 -0.1783  0.3748
 5182TIP3    H137181   2.676   3.364   0.381  1.2735  0.8855 -0.4221
 5182TIP3    H237182   2.530   3.387   0.413  1.0319 -1.6286  0.5837
 5183TIP3   OH237183   5.602   5.497   0.501 -0.3692  0.0421 -0.1455
 5183TIP3    H137184   5.547   5.420   0.487  0.6253 -0.6574 -0.3535
 5183TIP3    H237185   5.691   5.466   0.481  0.6321  0.1140  3.5505
 5184TIP3   OH237186   0.395   5.183   7.204 -0.1794 -0.1923 -0.1446
 5184TIP3    H137187   0.461   5.114   7.206  0.7257  0.6481 -0.3615
 5184TIP3    H237188   0.312   5.136   7.196  0.4029 -1.2589 -0.1163
 5185TIP3   OH237189   3.296   0.167   0.405 -0.1648  0.1349  0.0336
 5185TIP3    H137190   3.303   0.178   0.500 -1.5456  0.3620  0.1251
 5185TIP3    H237191   3.305   0.073   0.391  0.0693  0.1035  0.3872
 5186TIP3   OH237192   6.458   2.898   2.731 -0.2782 -0.5902 -0.5193
 5186TIP3    H137193   6.512   2.891   2.810 -1.1218  0.2611  0.1598
 5186TIP3    H237194   6.444   2.807   2.704 -0.2901 -0.9258  0.5369
 5187TIP3   OH237195   4.098   1.771   8.704  0.4949  0.8550  0.1590
 5187TIP3    H137196   4.173   1.713   8.713 -1.0213 -1.0070  1.4799
 5187TIP3    H237197   4.030   1.717   8.665 -0.5739  2.1132  0.2187
 5188TIP3   OH237198   5.953   5.952   2.202  0.0371 -0.1327  0.2996
 5188TIP3    H137199   5.971   5.997   2.285  0.1949  0.8018 -0.2236
 5188TIP3    H237200   5.921   5.866   2.228  0.9730 -0.1960  1.3250
 5189TIP3   OH237201   6.498   2.299   8.646  0.1652  0.2603  1.0150
 5189TIP3    H137202   6.569   2.243   8.678  1.7546  0.7911 -1.3258
 5189TIP3    H237203   6.447   2.242   8.588  0.2287  0.5680  0.6592
 5190TIP3   OH237204   6.596   2.744   1.092  0.1656  0.3869 -0.2126
 5190TIP3    H137205   6.670   2.684   1.096  0.6687  0.6615 -3.2690
 5190TIP3    H237206   6.519   2.687   1.097  0.6239 -0.3073 -0.8201
 5191TIP3   OH237207   3.803   2.051   2.244 -0.0123  0.4915 -0.0883
 5191TIP3    H137208   3.839   2.137   2.222  0.1726  0.4075 -0.1112
 5191TIP3    H237209   3.712   2.054   2.212 -0.5267  1.2588  1.3552
 5192TIP3   OH237210   2.469   1.519   1.277  0.0970  0.0300  0.5012
 5192TIP3    H137211   2.516   1.600   1.299 -1.3948  2.2272 -3.2577
 5192TIP3    H237212   2.538   1.458   1.251  1.2209  0.2072  2.7728
 5193TIP3   OH237213   3.479   1.965   7.323  0.8506  0.4784  0.1817
 5193TIP3    H137214   3.439   1.878   7.323  1.9172 -0.0387  1.3553
 5193TIP3    H237215   3.562   1.953   7.276  0.7987  0.9739 -0.0448
 5194TIP3   OH237216   4.178   3.684   1.079  0.2790  0.2373 -0.0165
 5194TIP3    H137217   4.227   3.706   0.999  0.8551 -0.2950  0.1818
 5194TIP3    H237218   4.173   3.766   1.127 -0.5742  0.6941 -0.8640
 5195TIP3   OH237219   6.286   4.603   0.220 -0.1423 -0.0658 -0.2226
 5195TIP3    H137220   6.195   4.629   0.206 -0.4784 -1.6097 -1.1068
 5195TIP3    H237221   6.313   4.649   0.299 -1.0943  1.8676 -0.9671
 5196TIP3   OH237222   0.255   4.526   6.880  0.0433  0.1412  0.2506
 5196TIP3    H137223   0.293   4.442   6.852  0.4343  0.3610  0.1217
 5196TIP3    H237224   0.241   4.516   6.974 -0.9435 -0.4700  0.0624
 5197TIP3   OH237225   6.427   4.115   8.418  0.5317 -0.3701 -0.4330
 5197TIP3    H137226   6.438   4.161   8.335 -0.2790 -0.8906 -0.8451
 5197TIP3    H237227   6.362   4.047   8.399 -1.0173  0.6158  1.0644
 5198TIP3   OH237228   3.813   4.295   8.145 -0.0979 -0.5809 -0.1525
 5198TIP3    H137229   3.797   4.369   8.086 -1.1265  0.1106  0.9420
 5198TIP3    H237230   3.871   4.332   8.213  0.4955 -1.1685 -0.3324
 5199TIP3   OH237231   4.541   6.242   1.096 -0.1285  0.0971  0.7195
 5199TIP3    H137232   4.521   6.160   1.052 -0.1303  0.3650  0.2161
 5199TIP3    H237233   4.595   6.217   1.171 -2.1721 -0.6208  2.0323
 5200TIP3   OH237234   6.736   1.181   7.833 -0.1781  1.1136 -0.0619
 5200TIP3    H137235   6.804   1.148   7.774  0.4572  0.9922  0.7205
 5200TIP3    H237236   6.741   1.277   7.824 -1.6900  1.0796 -1.9578
 5201TIP3   OH237237   2.350   0.507   7.565  0.4075  0.0056  0.0162
 5201TIP3    H137238   2.291   0.443   7.525 -0.6028 -0.8536  2.7062
 5201TIP3    H237239   2.426   0.457   7.593  1.3125  0.6776 -1.1331
 5202TIP3   OH237240   1.143   4.205   0.494  0.3617 -0.2876  0.2336
 5202TIP3    H137241   1.213   4.233   0.435 -0.3433  0.7102 -0.1618
 5202TIP3    H237242   1.150   4.109   0.496  1.8858 -0.2009  0.4159
 5203TIP3   OH237243   5.571   0.746   1.207 -0.1960  0.1709 -0.5566
 5203TIP3    H137244   5.497   0.742   1.147 -2.3079  1.2240  1.7695
 5203TIP3    H237245   5.567   0.664   1.256  0.0906  0.2749 -0.3554
 5204TIP3   OH237246   6.089   4.119   0.105 -0.3621 -0.3024 -0.0140
 5204TIP3    H137247   6.134   4.202   0.119  1.4651 -1.3424  0.5591
 5204TIP3    H237248   6.007   4.128   0.154 -0.0900  1.0527  0.2366
 5205TIP3   OH237249   6.015   2.637   1.245 -0.0850 -0.5277 -0.0572
 5205TIP3    H137250   5.942   2.623   1.185 -0.6048 -1.1561  0.7024
 5205TIP3    H237251   6.021   2.555   1.295 -0.4738  0.4061  1.6052
 5206TIP3   OH237252   1.174   1.240   0.850 -0.1011 -0.8193  0.0962
 5206TIP3    H137253   1.125   1.278   0.923  0.3418 -0.3082  0.1352
 5206TIP3    H237254   1.184   1.148   0.872 -0.1377 -0.7059  0.5899
 5207TIP3   OH237255   1.016   4.892   1.095 -0.0632 -0.7473 -0.6395
 5207TIP3    H137256   1.079   4.821   1.104 -1.5395 -1.8629  1.7894
 5207TIP3    H237257   1.060   4.956   1.038  2.4635 -2.2815 -0.5499
 5208TIP3   OH237258   1.976   4.687   8.370 -0.4637  0.4174 -0.0962
 5208TIP3    H137259   1.964   4.633   8.292 -1.6019  1.9118 -1.0082
 5208TIP3    H237260   1.976   4.624   8.442  0.3968 -0.9788 -1.2516
 5209TIP3   OH237261   3.203   0.242   2.067 -0.3174 -0.2932  0.1577
 5209TIP3    H137262   3.263   0.212   1.998  1.1087  0.4309  1.0425
 5209TIP3    H237263   3.198   0.337   2.054  0.2299 -0.1083  1.2390
 5210TIP3   OH237264   2.892   0.318   7.511  0.0063 -0.1656 -0.6218
 5210TIP3    H137265   2.813   0.372   7.513  0.8428  1.0609  1.0892
 5210TIP3    H237266   2.964   0.379   7.527  1.2478 -1.3851 -1.3193
 5211TIP3   OH237267   6.377   6.652   1.626  0.1756  0.2868  0.8444
 5211TIP3    H137268   6.427   6.731   1.608  0.5462  0.1989  1.4442
 5211TIP3    H237269   6.370   6.608   1.541  3.9043 -1.2979  1.1547
 5212TIP3   OH237270   5.247   2.378   0.252 -0.2451  0.0047  0.1674
 5212TIP3    H137271   5.216   2.396   0.163  0.6851 -0.4963 -0.2736
 5212TIP3    H237272   5.342   2.370   0.243 -0.2315 -1.0912  1.0288
 5213TIP3   OH237273   5.432   3.351   7.430 -0.0262  0.3102 -0.1416
 5213TIP3    H137274   5.523   3.324   7.440  0.6261  2.2590 -0.3189
 5213TIP3    H237275   5.404   3.313   7.347  0.3914 -0.8602  0.2376
 5214TIP3   OH237276   5.338   6.669   7.609  0.5202  0.3905  0.7429
 5214TIP3    H137277   5.298   6.680   7.696  2.1979 -2.3225  1.9881
 5214TIP3    H237278   5.336   6.575   7.593 -1.8916  0.9344 -3.3794
 5215TIP3   OH237279   4.157   1.600   0.840 -0.1695 -0.4542 -0.2352
 5215TIP3    H137280   4.116   1.534   0.784 -0.7191 -0.0040 -0.3764
 5215TIP3    H237281   4.084   1.636   0.891  0.3054 -0.8013  0.7257
 5216TIP3   OH237282   2.435   0.279   0.927  0.5370  0.0199 -0.1989
 5216TIP3    H137283   2.455   0.236   0.844 -1.3152  1.6756 -1.5880
 5216TIP3    H237284   2.348   0.246   0.950 -1.1427  3.1350 -1.5240
 5217TIP3   OH237285   5.140   2.846   0.436  0.1690  0.3848 -0.1911
 5217TIP3    H137286   5.044   2.848   0.442  0.1133  1.7755 -1.0514
 5217TIP3    H237287   5.168   2.934   0.462  1.1215  0.3892 -1.1485
 5218TIP3   OH237288   4.605   0.263   8.372  0.0799 -0.3744 -0.4342
 5218TIP3    H137289   4.665   0.335   8.393 -0.4740  0.0156 -0.1347
 5218TIP3    H237290   4.661   0.194   8.338  0.8226 -0.3819  0.7408
 5219TIP3   OH237291   0.011   0.195   8.411  0.2499  0.3988 -0.1629
 5219TIP3    H137292   0.004   0.111   8.455  2.5779  0.1726 -0.1199
 5219TIP3    H237293  -0.066   0.244   8.441  0.5451 -0.5471  2.3743
 5220TIP3   OH237294   4.616   6.239   2.294 -0.2081  0.5488  0.3956
 5220TIP3    H137295   4.697   6.199   2.327  0.0309 -1.0178 -1.9309
 5220TIP3    H237296   4.646   6.318   2.248 -0.2109  0.9282  1.0300
 5221TIP3   OH237297   0.421   5.108   0.794 -1.1265  0.0374  0.2813
 5221TIP3    H137298   0.462   5.110   0.881  2.9245 -0.5429 -1.4013
 5221TIP3    H237299   0.417   5.015   0.772  0.4821  0.2704 -1.1667
 5222TIP3   OH237300   2.040   4.743   6.996  0.1404 -0.4075 -0.2902
 5222TIP3    H137301   2.117   4.687   7.001  1.4536  1.3388 -0.2104
 5222TIP3    H237302   2.070   4.823   6.954 -1.8525 -0.0020 -1.0713
 5223TIP3   OH237303   1.996   4.198   0.188  0.0621  0.1107 -0.1831
 5223TIP3    H137304   1.921   4.252   0.163  0.4080  0.4174 -0.5873
 5223TIP3    H237305   2.073   4.251   0.162  0.4082 -0.3506 -0.1083
 5224TIP3   OH237306   3.484   5.928   7.761  0.1137  0.1208  0.1841
 5224TIP3    H137307   3.490   5.960   7.671 -0.1752 -0.3207  0.0043
 5224TIP3    H237308   3.562   5.962   7.804  1.1497 -1.0660 -0.6815
 5225TIP3   OH237309   1.341   2.360   0.759  0.0359 -0.1040 -0.9712
 5225TIP3    H137310   1.388   2.439   0.731  0.7565 -0.6880 -1.4375
 5225TIP3    H237311   1.253   2.392   0.781 -0.1523  0.6199 -2.5580
 5226TIP3   OH237312   6.207   6.621   7.148  0.1926 -0.4640 -0.0950
 5226TIP3    H137313   6.237   6.677   7.077  1.1892 -0.9351 -0.0608
 5226TIP3    H237314   6.286   6.579   7.181 -0.6229 -2.6631 -0.7785
 5227TIP3   OH237315   4.022   5.390   2.199  0.3456  0.4472  0.3521
 5227TIP3    H137316   3.968   5.363   2.273  0.7184 -0.2526  0.3737
 5227TIP3    H237317   4.082   5.455   2.235  2.4467 -1.8992  1.3760
 5228TIP3   OH237318   0.435   1.814   8.095  0.2283  0.0480  0.0095
 5228TIP3    H137319   0.370   1.744   8.096  1.7869 -1.6450 -3.0795
 5228TIP3    H237320   0.513   1.774   8.135  0.0932  1.2931  1.5903
 5229TIP3   OH237321   6.431   4.336   2.136 -0.5163  0.3212  0.1036
 5229TIP3    H137322   6.493   4.403   2.109 -2.1530  1.0058 -2.2135
 5229TIP3    H237323   6.486   4.260   2.159  1.2006  1.3987 -0.2981
 5230TIP3   OH237324   4.866   1.823   2.438  0.3581  0.0339  0.4876
 5230TIP3    H137325   4.925   1.821   2.514  0.7372 -0.2917  0.1927
 5230TIP3    H237326   4.799   1.759   2.458  0.3804  0.0482  0.6092
 5231TIP3   OH237327   1.778   4.841   7.116 -0.0023  0.4730 -0.4315
 5231TIP3    H137328   1.819   4.865   7.199  0.7509 -0.3704 -0.5532
 5231TIP3    H237329   1.844   4.788   7.070  0.9903  3.5727 -3.0328
 5232TIP3   OH237330   4.221   1.358   1.763  0.6435  0.0793 -0.4403
 5232TIP3    H137331   4.135   1.385   1.732  0.5162 -0.0756 -0.2315
 5232TIP3    H237332   4.202   1.297   1.835  0.9075 -1.1512 -1.3863
 5233TIP3   OH237333   1.840   1.943   2.119  0.6038 -0.2200 -0.1276
 5233TIP3    H137334   1.850   1.871   2.181  1.3644  0.2791  0.3575
 5233TIP3    H237335   1.928   1.979   2.110 -0.1244  2.3140  1.7304
 5234TIP3   OH237336   4.551   3.058   7.599  0.0527 -0.2694  0.4949
 5234TIP3    H137337   4.637   3.038   7.634  0.9181  3.2504  0.7399
 5234TIP3    H237338   4.545   3.154   7.603 -2.9133 -0.2207 -1.7539
 5235TIP3   OH237339   0.454   5.974   1.262 -0.7269  0.1150  0.6011
 5235TIP3    H137340   0.397   5.902   1.236 -1.5980  0.6244  1.0701
 5235TIP3    H237341   0.458   5.967   1.358 -0.8050  0.6777  0.6485
 5236TIP3   OH237342   6.344   1.779   2.390 -0.2706  0.7685  0.2854
 5236TIP3    H137343   6.333   1.738   2.304  0.3863 -2.5037  1.6259
 5236TIP3    H237344   6.437   1.769   2.410 -0.8406 -1.2362  2.4857
 5237TIP3   OH237345   5.223   6.673   1.211  0.0443  1.0164  0.8016
 5237TIP3    H137346   5.302   6.623   1.194  0.0796  0.4361  2.4417
 5237TIP3    H237347   5.226   6.691   1.305 -2.4186 -0.1835  1.2005
 5238TIP3   OH237348   4.402   2.984   0.225  0.3054 -0.2268  0.1009
 5238TIP3    H137349   4.482   3.021   0.263  1.2799 -1.5525 -0.5513
 5238TIP3    H237350   4.431   2.949   0.140 -1.1117 -0.1974 -0.4124
 5239TIP3   OH237351   3.406   6.505   1.048 -0.0114 -0.4519  0.0895
 5239TIP3    H137352   3.329   6.471   1.002  0.6752 -0.5988 -0.9766
 5239TIP3    H237353   3.418   6.593   1.012 -0.5059  0.1202  1.2797
 5240TIP3   OH237354   3.313   3.800   8.140 -0.2909 -0.7398  0.0571
 5240TIP3    H137355   3.280   3.862   8.075  2.7249  1.4479  0.3734
 5240TIP3    H237356   3.257   3.723   8.130 -2.1225  0.7533 -2.7232
 5241TIP3   OH237357   0.617   4.484   6.467  0.0080 -0.6083  0.2070
 5241TIP3    H137358   0.621   4.578   6.481 -0.8185 -0.3719 -1.0035
 5241TIP3    H237359   0.707   4.454   6.478  0.5324  0.5436 -0.8388
 5242TIP3   OH237360   0.823   3.033   8.116 -0.9801 -0.5109  0.3338
 5242TIP3    H137361   0.906   3.065   8.152 -0.6534 -1.5883  0.5706
 5242TIP3    H237362   0.792   2.970   8.181 -0.8407 -1.8177 -0.8249
 5243TIP3   OH237363   3.951   1.113   8.762  0.1872 -0.3761 -0.1671
 5243TIP3    H137364   3.962   1.096   8.668  1.7627 -0.0417 -0.0587
 5243TIP3    H237365   3.857   1.101   8.777  0.0594 -1.4206 -1.5852
 5244TIP3   OH237366   5.438   2.776   2.264  0.4561  0.2616 -0.3485
 5244TIP3    H137367   5.450   2.744   2.354  1.2763 -1.3289 -0.9807
 5244TIP3    H237368   5.488   2.714   2.210 -1.1083  0.3801 -2.0263
 5245TIP3   OH237369   1.446   4.567   7.251 -0.4319  0.0249  0.0190
 5245TIP3    H137370   1.425   4.482   7.214 -1.9451 -0.4000  1.7283
 5245TIP3    H237371   1.416   4.630   7.185 -2.4006 -0.7201  0.1463
 5246TIP3   OH237372   3.205   6.056   1.032  0.3635 -0.3251  0.0568
 5246TIP3    H137373   3.241   6.025   1.115  0.9467  0.0609 -0.0458
 5246TIP3    H237374   3.195   6.150   1.044  0.8117 -0.2119 -0.4407
 5247TIP3   OH237375   0.016   3.390   0.133 -0.2095 -0.4758 -0.3151
 5247TIP3    H137376  -0.030   3.472   0.150  1.4020 -0.0799  3.0561
 5247TIP3    H237377  -0.048   3.322   0.152 -1.1709 -0.0506 -1.8571
 5248TIP3   OH237378   0.383   1.887   0.627  0.3073  0.5293  0.0232
 5248TIP3    H137379   0.379   1.955   0.559 -2.2530 -1.0596 -1.5952
 5248TIP3    H237380   0.334   1.814   0.590 -1.1835 -0.4928  3.5974
 5249TIP3   OH237381   2.619   6.492   1.926 -0.0072 -0.5398 -0.2503
 5249TIP3    H137382   2.651   6.553   1.992  0.7926  2.0639 -2.8276
 5249TIP3    H237383   2.694   6.435   1.908  0.2449 -0.2988  0.0252
 5250TIP3   OH237384   5.895   0.132   2.426  0.3183 -0.1066  0.4161
 5250TIP3    H137385   5.969   0.162   2.372  0.9203 -0.3223  1.1114
 5250TIP3    H237386   5.891   0.038   2.411 -0.6827  0.0757 -0.6626
 5251TIP3   OH237387   2.973   1.896   1.867  0.1022 -0.0919  0.2060
 5251TIP3    H137388   2.899   1.928   1.919  0.0409 -0.0227  0.0780
 5251TIP3    H237389   2.955   1.929   1.779 -0.4169 -1.2102 -0.1208
 5252TIP3   OH237390   5.398   0.787   7.675  0.5128  0.4683  0.3689
 5252TIP3    H137391   5.380   0.702   7.715  3.3827 -0.9378 -1.0501
 5252TIP3    H237392   5.325   0.801   7.615  0.5138 -1.5215 -0.1453
 5253TIP3   OH237393   0.226   0.935   8.083  0.6143 -0.4117 -0.4888
 5253TIP3    H137394   0.299   0.983   8.122 -0.2931  1.1933 -0.6550
 5253TIP3    H237395   0.254   0.918   7.993  0.9696 -0.2270 -0.4173
 5254TIP3   OH237396   5.992   4.905   0.869 -0.0643 -0.2109 -0.2121
 5254TIP3    H137397   6.062   4.946   0.921  0.3647 -1.0922 -0.0896
 5254TIP3    H237398   6.002   4.943   0.782 -0.6929  1.1694  0.2801
 5255TIP3   OH237399   5.148   3.397   7.365 -0.5400 -0.4477  0.2676
 5255TIP3    H137400   5.241   3.411   7.385 -0.5722 -0.8404  0.7008
 5255TIP3    H237401   5.138   3.302   7.362 -1.3198 -0.4593  2.1533
 5256TIP3   OH237402   3.411   4.654   2.597  0.8374  0.0108  0.4224
 5256TIP3    H137403   3.404   4.581   2.659  0.6152 -0.5065 -0.1982
 5256TIP3    H237404   3.496   4.694   2.617  1.8066 -1.5229 -0.3883
 5257TIP3   OH237405   5.975   1.177   7.577  0.1437  0.6786  0.0300
 5257TIP3    H137406   5.961   1.137   7.491 -1.3565 -3.1986  1.8266
 5257TIP3    H237407   5.892   1.221   7.597 -1.1664 -1.9927  1.0150
 5258TIP3   OH237408   5.630   2.143   7.635  0.2369  0.2543 -0.4664
 5258TIP3    H137409   5.565   2.155   7.565  0.3858  2.8462 -0.2505
 5258TIP3    H237410   5.602   2.203   7.704  0.9526 -1.1571  1.1073
 5259TIP3   OH237411   4.128   2.553   1.781  0.1698  0.1965 -0.0870
 5259TIP3    H137412   4.175   2.629   1.813 -1.4051  1.1064  0.1883
 5259TIP3    H237413   4.100   2.578   1.693  1.9611 -1.1566 -1.1104
 5260TIP3   OH237414   6.182   1.403   7.595  0.0024 -0.2484  0.6029
 5260TIP3    H137415   6.103   1.348   7.589  0.0807 -0.4716  1.5539
 5260TIP3    H237416   6.246   1.357   7.541 -0.4793 -0.1198 -0.0956
 5261TIP3   OH237417   0.694   3.015   0.876  0.3116 -0.2881  0.1883
 5261TIP3    H137418   0.609   3.018   0.832  1.1250  1.3710 -1.3830
 5261TIP3    H237419   0.755   2.987   0.809  1.4404  1.3707  0.4480
 5262TIP3   OH237420   0.054   4.128   7.816  0.0794 -0.0028  0.1936
 5262TIP3    H137421   0.032   4.148   7.906  2.1350 -2.6186  1.4419
 5262TIP3    H237422  -0.028   4.137   7.768 -0.7266  3.0496  1.9360
 5263TIP3   OH237423   4.384   2.614   1.980  0.0405  0.3455  0.0874
 5263TIP3    H137424   4.370   2.696   1.933  0.0018  0.4125  0.2151
 5263TIP3    H237425   4.402   2.549   1.911 -0.5790  0.3225 -0.0585
 5264TIP3   OH237426   5.065   1.853   0.512 -0.3336  0.3447 -0.6411
 5264TIP3    H137427   5.087   1.924   0.572  1.6770  0.9303 -1.9687
 5264TIP3    H237428   5.124   1.781   0.537 -0.4172  0.1347 -1.0311
 5265TIP3   OH237429   2.780   0.534   8.840  0.3792 -0.1924 -0.3098
 5265TIP3    H137430   2.791   0.529   8.935  0.8097  1.4656 -0.2498
 5265TIP3    H237431   2.709   0.597   8.827  0.2948 -0.4343 -1.0886
 5266TIP3   OH237432   5.171   3.688   0.841  0.0746  0.2110 -0.1075
 5266TIP3    H137433   5.242   3.717   0.898 -0.1092  1.8628 -0.6612
 5266TIP3    H237434   5.091   3.716   0.885 -0.2843 -1.7983  0.5994
 5267TIP3   OH237435   6.061   6.640   8.784  0.7015  0.2081 -0.2630
 5267TIP3    H137436   6.075   6.598   8.699  0.6986 -0.1378 -0.0929
 5267TIP3    H237437   6.042   6.732   8.762  0.6059  0.1009 -0.6408
 5268TIP3   OH237438   2.343   5.130   0.243 -0.2619 -0.7583  0.5095
 5268TIP3    H137439   2.314   5.100   0.329 -0.4263 -1.1574  0.3164
 5268TIP3    H237440   2.351   5.050   0.191 -0.7325 -0.4698 -0.0216
 5269TIP3   OH237441   4.632   0.492   0.557 -0.1073  0.0188 -0.8005
 5269TIP3    H137442   4.541   0.469   0.576  0.2638 -0.1975  0.9094
 5269TIP3    H237443   4.648   0.570   0.610  0.6709  0.1524 -1.2196
 5270TIP3   OH237444   0.764   2.046   7.750 -0.0151  0.0382 -0.2214
 5270TIP3    H137445   0.713   1.999   7.685 -1.1758 -0.8098  1.2268
 5270TIP3    H237446   0.760   1.991   7.828  0.8856  1.2494  0.7293
 5271TIP3   OH237447   3.838   6.828   7.723 -0.2799  0.0710  0.3576
 5271TIP3    H137448   3.850   6.839   7.629 -0.0096  0.7861  0.4628
 5271TIP3    H237449   3.920   6.789   7.753 -1.8032 -4.1798 -0.2443
 5272TIP3   OH237450   2.530   0.791   2.653 -0.3861  0.7622  0.1813
 5272TIP3    H137451   2.451   0.797   2.706 -0.8436 -0.8655 -0.2637
 5272TIP3    H237452   2.535   0.699   2.626  0.7622  1.1678 -1.1539
 5273TIP3   OH237453   6.280   2.847   8.533 -0.6994  0.6233 -0.0494
 5273TIP3    H137454   6.315   2.790   8.464 -0.5322 -0.5551  0.9708
 5273TIP3    H237455   6.329   2.822   8.611  0.3707  3.1569  0.1858
 5274TIP3   OH237456   2.913   6.821   1.760  0.0378 -0.2343 -0.0589
 5274TIP3    H137457   2.990   6.845   1.708  0.2061 -0.4768  0.0764
 5274TIP3    H237458   2.872   6.749   1.710 -0.4535  0.3097 -0.4526
 5275TIP3   OH237459   5.322   2.610   1.677  0.6705  0.7369  0.0971
 5275TIP3    H137460   5.344   2.627   1.769 -0.1725  1.1188  0.2477
 5275TIP3    H237461   5.322   2.697   1.637 -0.3675  0.7438  0.0802
 5276TIP3   OH237462   3.608   0.076   0.641 -0.1415 -0.4719  0.1689
 5276TIP3    H137463   3.619   0.047   0.551 -0.6718 -1.4147  0.3961
 5276TIP3    H237464   3.673   0.025   0.691  1.3752  1.3019  0.1037
 5277TIP3   OH237465   3.438   2.162   7.947 -0.4811  0.1295  0.2738
 5277TIP3    H137466   3.491   2.109   7.887  0.5202 -0.6470  1.7667
 5277TIP3    H237467   3.415   2.240   7.896  0.5906 -0.3451 -1.0135
 5278TIP3   OH237468   3.574   4.303   0.818 -0.9307  0.4681 -0.7781
 5278TIP3    H137469   3.649   4.262   0.861 -0.8257 -0.1734 -1.5540
 5278TIP3    H237470   3.574   4.267   0.730 -1.6691  1.0916 -1.0444
 5279TIP3   OH237471   3.632   2.589   1.286  0.0589  0.3819 -0.1485
 5279TIP3    H137472   3.644   2.508   1.335  0.7880 -0.1804 -1.2372
 5279TIP3    H237473   3.695   2.650   1.325  0.6909 -0.0879 -0.4079
 5280TIP3   OH237474   3.938   2.991   0.699  0.0060  0.1414  0.1341
 5280TIP3    H137475   4.024   2.965   0.665 -0.1242 -0.4207  0.2199
 5280TIP3    H237476   3.892   3.028   0.624 -0.8734 -2.5549 -0.7607
 5281TIP3   OH237477   0.113   2.421   8.441  0.2744 -0.1471  0.0226
 5281TIP3    H137478   0.087   2.463   8.523  0.3136  0.7099 -0.3876
 5281TIP3    H237479   0.043   2.444   8.379  1.3188  1.0940 -0.7525
 5282TIP3   OH237480   5.935   4.353   8.529  0.3231  0.5404 -0.0997
 5282TIP3    H137481   6.021   4.314   8.546 -0.7250 -1.1185  1.7637
 5282TIP3    H237482   5.877   4.278   8.517 -1.2589  1.5732  0.7946
 5283TIP3   OH237483   6.279   1.120   2.714 -0.4218  0.3245  0.9768
 5283TIP3    H137484   6.367   1.083   2.711 -0.3405  0.5445 -1.7093
 5283TIP3    H237485   6.273   1.159   2.801  1.1490 -1.9383  2.2094
 5284TIP3   OH237486   1.528   2.609   8.520 -0.0570  0.3900 -0.2303
 5284TIP3    H137487   1.587   2.680   8.495 -0.6288  0.6118 -0.9978
 5284TIP3    H237488   1.516   2.559   8.440 -1.7206  0.9561 -0.3743
 5285TIP3   OH237489   4.523   1.948   8.459 -0.1758 -0.6363  0.0658
 5285TIP3    H137490   4.556   1.990   8.379  0.5580  0.1988  0.7948
 5285TIP3    H237491   4.592   1.961   8.523 -1.5876  0.4952  1.4295
 5286TIP3   OH237492   4.947   2.460   2.987 -1.1867 -0.3464 -0.4965
 5286TIP3    H137493   5.007   2.389   2.966 -0.9817 -0.4199  0.3246
 5286TIP3    H237494   4.878   2.419   3.038 -1.9197 -0.2507 -1.3767
 5287TIP3   OH237495   5.407   0.650   2.385 -0.4761 -0.3808  0.1902
 5287TIP3    H137496   5.350   0.608   2.449 -1.5115  0.0343 -0.4247
 5287TIP3    H237497   5.477   0.690   2.437  0.2957 -2.4409  0.8203
 5288TIP3   OH237498   5.084   6.444   6.738 -0.3729  0.0637 -0.1952
 5288TIP3    H137499   5.091   6.512   6.805  0.7982 -0.8730  0.7047
 5288TIP3    H237500   4.999   6.404   6.753 -0.7911  0.8912 -0.3078
 5289TIP3   OH237501   0.392   2.266   2.965  0.5055  0.4337  0.6172
 5289TIP3    H137502   0.396   2.221   2.881  0.7485  0.5487  0.5656
 5289TIP3    H237503   0.451   2.217   3.022  0.9416  0.8129  0.4979
 5290TIP3   OH237504   5.919   4.775   8.046  0.4295  0.0667  0.2750
 5290TIP3    H137505   5.889   4.812   7.964  1.1592 -3.2029 -1.6679
 5290TIP3    H237506   5.999   4.823   8.066  0.4534  0.6809 -1.1749
 5291TIP3   OH237507   2.048   0.213   0.773 -0.5757  0.4496  1.0177
 5291TIP3    H137508   2.074   0.161   0.697  1.1055  1.1849  1.0507
 5291TIP3    H237509   1.954   0.230   0.758  0.0247  1.9935 -1.7880
 5292TIP3   OH237510   1.632   6.185   7.659 -0.9236  0.4425 -0.4200
 5292TIP3    H137511   1.629   6.103   7.708 -0.5641  0.0277 -1.0742
 5292TIP3    H237512   1.545   6.223   7.670 -0.5256  0.8990  1.4114
 5293TIP3   OH237513   6.307   5.549   0.211 -0.1158 -0.0943  0.4612
 5293TIP3    H137514   6.325   5.528   0.119 -2.0406  2.8283 -0.7406
 5293TIP3    H237515   6.393   5.543   0.254  1.1176 -0.1990 -1.8331
 5294TIP3   OH237516   1.056   0.964   0.786  0.0233 -0.5400  0.4060
 5294TIP3    H137517   1.037   1.015   0.707  0.6923  1.2141  1.3408
 5294TIP3    H237518   1.145   0.932   0.773 -0.2281 -1.1064  0.0265
 5295TIP3   OH237519   2.905   5.357   2.149 -0.5890  0.4565 -0.2347
 5295TIP3    H137520   2.957   5.331   2.225  0.1119  2.6213  0.0843
 5295TIP3    H237521   2.964   5.346   2.074 -1.3452 -1.8806 -0.5832
 5296TIP3   OH237522   3.652   3.873   1.673  0.1106 -0.3539 -0.5800
 5296TIP3    H137523   3.685   3.942   1.615 -0.7555  0.6449  0.0713
 5296TIP3    H237524   3.689   3.792   1.638  1.3391  0.4626 -1.2348
 5297TIP3   OH237525   1.782   0.526   7.786  0.3251  0.6374  0.1316
 5297TIP3    H137526   1.723   0.451   7.793  1.5304 -0.2066  1.6332
 5297TIP3    H237527   1.841   0.504   7.713 -0.6056  1.0926 -0.7929
 5298TIP3   OH237528   2.111   0.672   1.491  0.6203  0.2106  0.2927
 5298TIP3    H137529   2.059   0.620   1.429  1.5634 -0.3764 -0.0334
 5298TIP3    H237530   2.174   0.719   1.436  2.0698 -1.0079  0.8130
 5299TIP3   OH237531   2.497   3.207   2.069  0.2785 -0.2723 -0.0597
 5299TIP3    H137532   2.577   3.259   2.081  0.6519 -0.5718 -1.1276
 5299TIP3    H237533   2.526   3.117   2.081  0.4020 -0.4868 -1.6704
 5300TIP3   OH237534   4.328   2.316   0.217 -0.2935  0.4877  0.0885
 5300TIP3    H137535   4.375   2.270   0.286 -1.5235  0.5084  0.9815
 5300TIP3    H237536   4.302   2.248   0.155 -0.8654  0.1630  0.6698
 5301TIP3   OH237537   5.979   2.789   1.503 -0.1588  0.1136 -0.1522
 5301TIP3    H137538   5.942   2.867   1.545 -0.9620 -1.1745  1.7041
 5301TIP3    H237539   5.932   2.782   1.420  0.7247  2.1692 -0.9025
 5302TIP3   OH237540   3.708   2.475   0.197 -0.4174 -0.3884 -0.2946
 5302TIP3    H137541   3.711   2.520   0.113  2.0846 -1.8434 -1.0800
 5302TIP3    H237542   3.628   2.423   0.193 -0.6926  0.0897 -1.4946
 5303TIP3   OH237543   5.252   3.131   8.843 -0.1810  0.7078  0.2383
 5303TIP3    H137544   5.161   3.151   8.819  0.0345  2.2360  0.6218
 5303TIP3    H237545   5.245   3.053   8.897 -0.8896 -1.6256 -2.9291
 5304TIP3   OH237546   2.775   3.335   1.656  0.0044 -0.4218  0.2219
 5304TIP3    H137547   2.855   3.345   1.707 -0.1056  2.3985  0.0151
 5304TIP3    H237548   2.706   3.372   1.712 -0.4132  1.0426 -1.1808
 5305TIP3   OH237549   6.765   0.556   8.559 -0.2819 -0.4821 -0.0051
 5305TIP3    H137550   6.673   0.557   8.531 -0.0222  2.1566 -1.0725
 5305TIP3    H237551   6.814   0.561   8.477  0.7723 -0.3848  0.6214
 5306TIP3   OH237552   2.854   2.390   0.155 -0.4503  0.3210  0.0586
 5306TIP3    H137553   2.769   2.430   0.137 -0.3916  0.1630 -0.5956
 5306TIP3    H237554   2.867   2.327   0.084 -0.1669 -0.2690  0.6199
 5307TIP3   OH237555   5.988   0.054   8.444 -0.0211 -0.1439  0.2331
 5307TIP3    H137556   6.049   0.044   8.371  0.7089  1.6440  0.5428
 5307TIP3    H237557   6.044   0.060   8.521 -0.6532  0.2203  0.6720
 5308TIP3   OH237558   0.423   3.249   0.011 -0.2646  0.4849  0.4403
 5308TIP3    H137559   0.425   3.161   0.049 -1.5876  0.2917  0.1134
 5308TIP3    H237560   0.482   3.244  -0.064 -1.1174 -0.4459 -0.1966
 5309TIP3   OH237561   4.709   2.942   2.892 -0.9258  0.0009 -0.1483
 5309TIP3    H137562   4.668   2.881   2.953 -2.4474  0.9443 -0.1641
 5309TIP3    H237563   4.747   3.010   2.949 -0.2077 -0.3701 -0.1745
 5310TIP3   OH237564   4.721   1.994   7.926 -0.8305  0.1135  0.4308
 5310TIP3    H137565   4.812   1.971   7.946 -0.2112  0.1849 -2.0299
 5310TIP3    H237566   4.676   1.910   7.918 -0.7982  0.0584  0.7929
 5311TIP3   OH237567   5.379   1.286   1.396 -0.3190 -0.9495  0.0116
 5311TIP3    H137568   5.284   1.277   1.404 -0.4197  0.4093  0.4986
 5311TIP3    H237569   5.394   1.309   1.304 -0.5797  0.0292  0.2019
 5312TIP3   OH237570   4.032   5.882   6.867 -0.3486  0.1468  0.0185
 5312TIP3    H137571   3.988   5.874   6.782 -0.6903 -1.0270  0.2746
 5312TIP3    H237572   4.096   5.810   6.867  0.8305  1.1677  0.0917
 5313TIP3   OH237573   3.727   3.035   1.774 -0.7221  0.2456  0.0603
 5313TIP3    H137574   3.675   2.978   1.718 -2.6952  0.4848  1.5555
 5313TIP3    H237575   3.811   2.989   1.783 -0.9416 -0.5942 -1.6830
 5314TIP3   OH237576   6.184   6.461   8.239 -1.0565 -0.2196 -0.5931
 5314TIP3    H137577   6.106   6.514   8.221 -1.0881 -0.1061 -0.1384
 5314TIP3    H237578   6.251   6.525   8.265 -0.7309 -0.2905 -1.2423
 5315TIP3   OH237579   4.454   0.177   2.545 -0.3139 -0.1799  0.9656
 5315TIP3    H137580   4.513   0.219   2.483  0.9987  0.2688  2.4570
 5315TIP3    H237581   4.372   0.227   2.539  0.4324  1.0653  0.9831
 5316TIP3   OH237582   4.225   4.848   2.641 -0.0203 -0.4661 -0.1761
 5316TIP3    H137583   4.233   4.928   2.588 -2.2863  0.6861  1.0639
 5316TIP3    H237584   4.268   4.870   2.724  2.3244 -1.7905 -0.9503
 5317TIP3   OH237585   0.079   0.887   0.883  0.1490  0.0256 -0.2844
 5317TIP3    H137586   0.023   0.887   0.805 -0.0031 -1.7131 -0.2233
 5317TIP3    H237587   0.167   0.874   0.849  0.5328  2.3222 -0.3458
 5318TIP3   OH237588   1.083   1.812   7.120 -0.6086 -0.2519 -0.8295
 5318TIP3    H137589   1.124   1.891   7.086  0.3654 -0.1578  0.4872
 5318TIP3    H237590   1.037   1.774   7.045 -0.5639  1.2146 -1.6267
 5319TIP3   OH237591   5.434   0.037   1.077 -0.3863  0.1398 -0.7258
 5319TIP3    H137592   5.509  -0.021   1.071  0.2933  0.9682 -0.4852
 5319TIP3    H237593   5.359  -0.021   1.089  0.3169 -0.6532 -0.0998
 5320TIP3   OH237594   0.194   0.309   0.390  0.2397 -0.0998  0.2023
 5320TIP3    H137595   0.264   0.304   0.325 -1.3019 -1.2141 -1.4643
 5320TIP3    H237596   0.120   0.265   0.349 -2.0264  2.5156  1.1865
 5321TIP3   OH237597   6.724   6.109   0.647  0.0101  0.2558 -0.3462
 5321TIP3    H137598   6.711   6.095   0.740 -0.8329  1.1493 -0.3130
 5321TIP3    H237599   6.676   6.189   0.627  2.2613  1.5311 -1.0542
 5322TIP3   OH237600   3.163   5.562   7.704  0.2783  0.4251 -0.6933
 5322TIP3    H137601   3.238   5.508   7.677  0.8903  0.7958  0.2424
 5322TIP3    H237602   3.109   5.568   7.625  0.0640 -1.7346 -0.7915
 5323TIP3   OH237603   3.507   0.368   1.669 -0.0491 -0.2373  0.4600
 5323TIP3    H137604   3.594   0.343   1.701 -0.6859 -2.1431  0.8744
 5323TIP3    H237605   3.457   0.385   1.749 -0.5692 -1.1198  0.3386
 5324TIP3   OH237606   4.732   5.408   1.264 -0.0484  0.1133  0.1151
 5324TIP3    H137607   4.785   5.399   1.184  0.3658 -3.4554  0.6294
 5324TIP3    H237608   4.654   5.355   1.246 -1.7011  2.1585  0.8393
 5325TIP3   OH237609   1.592   3.844   2.322 -0.3549 -0.0013 -0.2460
 5325TIP3    H137610   1.590   3.789   2.400  3.3338  2.8504  2.2448
 5325TIP3    H237611   1.521   3.906   2.334  0.7660  1.0315  1.5332
 5326TIP3   OH237612   5.796   5.246   1.633  0.8169  0.1772  0.3719
 5326TIP3    H137613   5.763   5.334   1.651 -1.7306 -0.4730 -0.6924
 5326TIP3    H237614   5.730   5.188   1.670  0.6263 -1.2328 -2.0138
 5327TIP3   OH237615   3.681   6.131   0.199  0.3049 -1.1919  0.5648
 5327TIP3    H137616   3.739   6.060   0.171 -1.2701 -2.9656  1.5926
 5327TIP3    H237617   3.612   6.088   0.249 -3.8599  0.3024 -3.2585
 5328TIP3   OH237618   1.053   1.913   8.575  0.6332  0.8455  0.7000
 5328TIP3    H137619   1.091   1.997   8.600  0.8565  0.4710  1.6529
 5328TIP3    H237620   1.058   1.859   8.654  0.7269 -0.1531  0.0344
 5329TIP3   OH237621   5.716   0.439   1.151  1.0803 -0.3519 -0.2297
 5329TIP3    H137622   5.753   0.403   1.232  0.2714  0.4633  0.5175
 5329TIP3    H237623   5.630   0.472   1.177  0.5678 -0.5985 -1.5566
 5330TIP3   OH237624   6.746   4.914   1.891  0.0055 -0.0628 -0.4230
 5330TIP3    H137625   6.673   4.975   1.900 -0.2256 -0.4933  0.9894
 5330TIP3    H237626   6.762   4.909   1.797 -1.3353  0.5710 -0.7154
 5331TIP3   OH237627   5.170   0.993   0.698 -0.6399  0.2038  0.2937
 5331TIP3    H137628   5.160   0.984   0.603  2.6416 -0.9380 -0.0534
 5331TIP3    H237629   5.228   1.068   0.710  1.6929 -1.6157  1.1010
 5332TIP3   OH237630   4.524   3.756   0.947 -0.1264  0.0914 -0.5583
 5332TIP3    H137631   4.548   3.848   0.931 -1.5704  0.4527 -0.7706
 5332TIP3    H237632   4.566   3.735   1.031  0.0878  1.0016 -0.4220
 5333TIP3   OH237633   5.190   5.444   7.585 -0.2425  0.3491  0.1649
 5333TIP3    H137634   5.209   5.493   7.665  1.1541  0.4821 -0.2218
 5333TIP3    H237635   5.242   5.365   7.592 -1.8766 -0.7675  0.4095
 5334TIP3   OH237636   3.399   2.439   7.000 -0.2784  0.3028  0.0754
 5334TIP3    H137637   3.486   2.406   7.022 -0.0288 -0.0221 -1.3334
 5334TIP3    H237638   3.382   2.507   7.066  0.2604 -0.8699  1.4671
 5335TIP3   OH237639   5.344   1.802   2.064 -0.1189  0.7542 -0.7673
 5335TIP3    H137640   5.306   1.838   2.144  0.1166  1.0353 -0.7787
 5335TIP3    H237641   5.282   1.736   2.035  1.1864 -1.5206  1.2810
 5336TIP3   OH237642   2.139   1.202   7.403  0.3114 -0.2331 -0.5313
 5336TIP3    H137643   2.142   1.242   7.490 -0.1200  0.4297 -0.8148
 5336TIP3    H237644   2.106   1.114   7.418 -2.6615  0.8218 -0.3356
 5337TIP3   OH237645   6.289   0.200   0.695 -0.1273 -0.2012 -0.0841
 5337TIP3    H137646   6.383   0.211   0.679 -0.2661  0.9892 -0.1374
 5337TIP3    H237647   6.264   0.278   0.744 -1.2936 -0.0224 -0.9323
 5338TIP3   OH237648   5.623   1.337   7.955 -0.5632 -0.0946 -0.1885
 5338TIP3    H137649   5.672   1.397   7.900 -2.9812  1.8491 -0.4070
 5338TIP3    H237650   5.604   1.387   8.035 -0.2584 -1.5689  0.8518
 5339TIP3   OH237651   6.756   0.079   1.808  0.1045 -0.3363 -0.0106
 5339TIP3    H137652   6.697   0.152   1.790 -0.3238 -0.4001  1.0243
 5339TIP3    H237653   6.745   0.020   1.734 -1.5523 -0.6098  0.4151
 5340TIP3   OH237654   5.119   5.614   1.976  0.1991  0.4281  0.1593
 5340TIP3    H137655   5.044   5.648   2.025 -0.0495  0.1519 -0.0282
 5340TIP3    H237656   5.099   5.522   1.961 -0.3607  0.8054 -1.6338
 5341TIP3   OH237657   3.827   2.763   2.018 -0.1275  0.7466 -0.0601
 5341TIP3    H137658   3.853   2.796   2.104 -0.8977 -1.5954  1.1655
 5341TIP3    H237659   3.865   2.825   1.955  2.1292  1.4501  1.8709
 5342TIP3   OH237660   5.964   0.801   1.812  0.0833  0.2167  0.1893
 5342TIP3    H137661   6.054   0.801   1.781  0.7367 -0.9548  1.9585
 5342TIP3    H237662   5.949   0.889   1.844  0.0691  0.8494 -1.4708
 5343TIP3   OH237663   4.654   2.000   8.724 -1.0113  0.0894  0.4213
 5343TIP3    H137664   4.707   2.072   8.760  1.3210 -1.2416 -0.1943
 5343TIP3    H237665   4.678   1.924   8.777 -2.2542 -0.5888  0.0411
 5344TIP3   OH237666   6.715   5.957   8.650  0.7396 -0.2914 -0.6008
 5344TIP3    H137667   6.747   6.046   8.638  1.5184 -0.8043 -2.7735
 5344TIP3    H237668   6.789   5.909   8.685  0.2642 -0.0974  0.7519
 5345TIP3   OH237669   2.411   3.774   8.127 -0.2294 -0.5265 -0.3125
 5345TIP3    H137670   2.464   3.716   8.181 -0.1698 -0.7980 -0.6565
 5345TIP3    H237671   2.406   3.856   8.177  1.4395 -0.1154 -0.7623
 5346TIP3   OH237672   5.587   0.172   8.729 -0.1583  0.0405 -0.2003
 5346TIP3    H137673   5.526   0.106   8.697 -0.0489  0.0196 -0.3673
 5346TIP3    H237674   5.596   0.234   8.657  2.0659 -1.3645 -1.2479
 5347TIP3   OH237675   5.721   2.024   1.755 -0.7470  0.2869  0.0325
 5347TIP3    H137676   5.745   1.955   1.816  0.0755  0.9864  0.5270
 5347TIP3    H237677   5.680   1.979   1.682  0.8215 -0.8361 -0.1997
 5348TIP3   OH237678   3.451   3.918   0.227 -0.0734 -0.7309  0.2157
 5348TIP3    H137679   3.460   3.906   0.132  0.4672  2.8442 -0.3505
 5348TIP3    H237680   3.357   3.935   0.239 -0.1072 -0.9652  0.2760
 5349TIP3   OH237681   4.576   4.162   1.738 -0.4944 -0.1711  0.3507
 5349TIP3    H137682   4.602   4.078   1.777 -4.4253 -0.9291  1.8953
 5349TIP3    H237683   4.580   4.224   1.811 -2.7864 -0.3834  0.7514
 5350TIP3   OH237684   3.523   0.488   7.432 -0.2731 -0.5113 -0.3941
 5350TIP3    H137685   3.469   0.510   7.508 -1.5235 -1.0230 -1.1125
 5350TIP3    H237686   3.498   0.551   7.365  1.2931  0.3571 -0.2297
 5351TIP3   OH237687   0.839   1.851   0.062  0.3102  0.0075  0.4373
 5351TIP3    H137688   0.914   1.824   0.010 -0.6826 -0.9697 -0.5432
 5351TIP3    H237689   0.837   1.789   0.135  0.7702  0.3946  0.7896
 5352TIP3   OH237690   6.291   0.702   8.632  0.2485  0.3576 -0.1556
 5352TIP3    H137691   6.363   0.749   8.674 -0.2148  1.9978 -1.0738
 5352TIP3    H237692   6.257   0.644   8.699  0.9738  1.2382  1.0115
 5353TIP3   OH237693   5.779   4.028   7.700 -0.1917 -1.0405 -0.2509
 5353TIP3    H137694   5.784   4.076   7.783  0.3484  2.5507 -2.1379
 5353TIP3    H237695   5.688   4.039   7.671 -0.1410 -1.4206 -0.5692
 5354TIP3   OH237696   4.456   2.148   0.893 -0.6875 -0.0490 -0.3702
 5354TIP3    H137697   4.426   2.070   0.939 -0.3876  0.6404  1.0396
 5354TIP3    H237698   4.545   2.163   0.926  0.3028 -0.6056 -2.5867
 5355TIP3   OH237699   3.566   0.169   1.365 -0.6477 -0.8957 -0.0714
 5355TIP3    H137700   3.558   0.196   1.457  0.8047 -0.5222 -0.0363
 5355TIP3    H237701   3.516   0.087   1.360 -1.1629 -0.6570  0.9265
 5356TIP3   OH237702   0.160   4.910   7.990 -0.1320  0.2723 -0.0647
 5356TIP3    H137703   0.158   4.856   7.911  1.6723  2.3701 -1.6665
 5356TIP3    H237704   0.108   4.861   8.053 -0.6889 -2.0735 -2.1641
 5357TIP3   OH237705   5.194   3.999   2.559  0.5802  0.6849 -0.7233
 5357TIP3    H137706   5.257   3.929   2.576 -0.8986 -0.3533  0.7490
 5357TIP3    H237707   5.169   4.030   2.645 -0.1412  1.8264 -1.3234
 5358TIP3   OH237708   0.839   0.104   0.619 -0.0125 -0.5145 -0.0817
 5358TIP3    H137709   0.803   0.119   0.706  1.1959  1.2022  0.1764
 5358TIP3    H237710   0.804   0.176   0.566  2.0429  0.5539 -0.0879
 5359TIP3   OH237711   3.922   1.906   8.849  0.0081 -0.5004 -0.2793
 5359TIP3    H137712   3.941   1.907   8.942 -1.1649 -1.7804  0.0136
 5359TIP3    H237713   3.985   1.844   8.812  1.5087  1.1539 -0.6417
 5360TIP3   OH237714   1.770   3.537   7.399  0.2625  0.3353 -0.1990
 5360TIP3    H137715   1.805   3.495   7.320 -1.7884 -0.4531 -0.7453
 5360TIP3    H237716   1.741   3.623   7.370 -1.6669 -0.4255 -0.6601
 5361TIP3   OH237717   0.178   4.176   2.797  0.4597 -0.4153 -0.0516
 5361TIP3    H137718   0.196   4.147   2.887  1.3967  1.5780  0.4586
 5361TIP3    H237719   0.118   4.249   2.807  0.0581 -0.5849 -1.1192
 5362TIP3   OH237720   1.252   0.021   7.583  0.3928 -0.5430  0.5230
 5362TIP3    H137721   1.214   0.096   7.538  0.5463 -0.9979 -0.3873
 5362TIP3    H237722   1.193   0.006   7.657 -0.7168 -0.6747 -0.3514
 5363TIP3   OH237723   1.222   4.522   8.267  0.6032  0.0396  0.3886
 5363TIP3    H137724   1.151   4.474   8.226  0.7590  1.3032 -1.5272
 5363TIP3    H237725   1.299   4.466   8.257  0.4099 -0.1433 -0.0757
 5364TIP3   OH237726   4.304   2.971   1.490  0.5173  0.1519  0.9920
 5364TIP3    H137727   4.281   2.983   1.582 -1.2269 -0.5892  0.6946
 5364TIP3    H237728   4.327   2.879   1.482  0.2222  0.1069  0.6131
 5365TIP3   OH237729   6.750   1.221   0.054  0.3314  0.1757 -0.0632
 5365TIP3    H137730   6.829   1.231   0.001 -0.8624  0.3009 -1.9003
 5365TIP3    H237731   6.716   1.135   0.032 -0.6928  0.6078 -0.2263
 5366TIP3   OH237732   6.693   1.684   1.178  0.0215  0.8614 -0.0547
 5366TIP3    H137733   6.611   1.733   1.186  0.3343  1.2294  0.9545
 5366TIP3    H237734   6.678   1.625   1.104 -1.6822 -0.0807  0.9879
 5367TIP3   OH237735   0.890   4.603   1.860 -0.1793  0.0253 -0.2495
 5367TIP3    H137736   0.830   4.530   1.875 -0.1250 -0.0050 -0.1791
 5367TIP3    H237737   0.922   4.591   1.771 -1.0001  0.5660 -0.6255
 5368TIP3   OH237738   5.656   2.364   1.860  0.5675 -0.2861  0.9498
 5368TIP3    H137739   5.619   2.360   1.772  2.2525 -1.2463  0.2414
 5368TIP3    H237740   5.594   2.314   1.914  1.6303 -3.5566 -0.5716
 5369TIP3   OH237741   5.228   6.661   8.318 -0.0596 -0.2095 -0.2437
 5369TIP3    H137742   5.290   6.644   8.390 -0.6268  1.0319  0.5790
 5369TIP3    H237743   5.146   6.621   8.348  0.1170 -1.1623 -0.9819
 5370TIP3   OH237744   3.908   2.019   1.967 -0.4678  0.1504 -0.4397
 5370TIP3    H137745   3.914   2.100   2.016  1.1345  0.5541 -1.2290
 5370TIP3    H237746   3.866   1.957   2.027 -0.1918  1.0997  0.7719
 5371TIP3   OH237747   0.317   5.639   1.148 -0.0257  0.0815 -0.3890
 5371TIP3    H137748   0.255   5.580   1.103  0.4979 -1.4597  0.8068
 5371TIP3    H237749   0.267   5.674   1.221 -0.4504  1.4812 -1.3118
 5372TIP3   OH237750   3.739   5.209   1.079  0.3840 -0.3063  0.1257
 5372TIP3    H137751   3.670   5.142   1.074 -1.8094  1.8055  0.3972
 5372TIP3    H237752   3.772   5.214   0.990 -1.1315 -0.1104 -0.4658
 5373TIP3   OH237753   2.434   2.155   1.764  0.3720 -0.4913 -0.1875
 5373TIP3    H137754   2.400   2.171   1.852  0.2985 -1.4930 -0.0244
 5373TIP3    H237755   2.478   2.070   1.770  0.1178 -0.7121 -1.1786
 5374TIP3   OH237756   1.609   3.577   1.654 -0.1318  0.2090 -0.7652
 5374TIP3    H137757   1.607   3.571   1.750  1.7397 -1.4980 -0.7821
 5374TIP3    H237758   1.531   3.530   1.626 -1.3022  1.6579 -0.1148
 5375TIP3   OH237759   5.657   6.410   1.251  0.2140  0.0721  0.1777
 5375TIP3    H137760   5.723   6.377   1.312  1.5396  2.1068 -0.0454
 5375TIP3    H237761   5.610   6.477   1.301  0.2502  0.6225 -0.5101
 5376TIP3   OH237762   1.034   4.296   7.408  0.3340  0.9078  0.3244
 5376TIP3    H137763   1.036   4.206   7.441 -0.0767  0.3532 -1.0735
 5376TIP3    H237764   1.120   4.331   7.428  0.4055  0.3085  1.1435
 5377TIP3   OH237765   2.622   6.415   1.404 -0.2215  0.2524 -0.2423
 5377TIP3    H137766   2.568   6.340   1.427  0.3465  0.0436  0.4579
 5377TIP3    H237767   2.566   6.491   1.420 -0.5110  0.0175 -0.1276
 5378TIP3   OH237768   3.910   1.556   8.642 -0.0418 -0.5624  0.2779
 5378TIP3    H137769   3.956   1.528   8.722 -1.3522 -0.1257  1.2282
 5378TIP3    H237770   3.847   1.487   8.625  0.7147 -1.0029 -0.8328
 5379TIP3   OH237771   5.695   5.244   2.428 -0.0143 -0.5420 -0.0179
 5379TIP3    H137772   5.690   5.316   2.492 -0.7143 -0.4026 -0.2226
 5379TIP3    H237773   5.617   5.255   2.374  0.4411 -0.8086 -0.7467
 5380TIP3   OH237774   3.725   6.178   1.881  0.4108 -0.8533 -0.0728
 5380TIP3    H137775   3.768   6.103   1.839 -0.8510  0.3368 -3.9904
 5380TIP3    H237776   3.788   6.250   1.871  0.3066 -0.6629  0.6265
 5381TIP3   OH237777   6.773   4.428   6.799 -0.2306  0.0965  0.6064
 5381TIP3    H137778   6.803   4.404   6.886  0.4902 -0.1721  0.2958
 5381TIP3    H237779   6.844   4.401   6.741 -0.6596  0.3541 -0.0549
 5382TIP3   OH237780   2.897   3.358   8.545  0.0398 -0.5562 -0.3942
 5382TIP3    H137781   2.860   3.278   8.583 -1.0246  0.4542  0.8087
 5382TIP3    H237782   2.963   3.386   8.609 -1.6735  1.0870  0.7605
 5383TIP3   OH237783   4.629   0.776   1.426 -0.3784 -0.1324  0.1502
 5383TIP3    H137784   4.566   0.725   1.375 -1.5022  0.5834  0.7762
 5383TIP3    H237785   4.714   0.755   1.387 -0.8883 -1.8261 -0.1336
 5384TIP3   OH237786   4.361   0.768   0.479  0.1170 -0.8101 -0.2655
 5384TIP3    H137787   4.288   0.822   0.451  0.9934 -0.1194 -1.3088
 5384TIP3    H237788   4.346   0.683   0.438 -1.5247 -1.6003  1.7713
 5385TIP3   OH237789   4.180   0.959   7.635 -0.1679 -0.1352 -0.3595
 5385TIP3    H137790   4.123   1.022   7.593 -0.8593 -1.2401 -1.1321
 5385TIP3    H237791   4.158   0.964   7.728 -0.2864  0.6689 -0.4275
 5386TIP3   OH237792   6.413   0.480   7.488 -0.2227 -0.5214 -0.1170
 5386TIP3    H137793   6.367   0.419   7.430 -1.1573  0.2711 -0.2409
 5386TIP3    H237794   6.365   0.562   7.478 -0.7237 -0.4924  2.1536
 5387TIP3   OH237795   2.370   3.492   7.008 -0.2777  0.4107  0.1023
 5387TIP3    H137796   2.460   3.464   6.994 -0.7269 -0.4063 -1.3392
 5387TIP3    H237797   2.358   3.565   6.947 -0.3258  1.1284  0.9561
 5388TIP3   OH237798   6.138   3.992   8.418  0.0535  0.2697  0.2352
 5388TIP3    H137799   6.103   4.023   8.335  1.3899  3.2350  0.6808
 5388TIP3    H237800   6.069   4.013   8.482  0.4157  1.1830  0.3406
 5389TIP3   OH237801   3.212   3.541   8.146 -0.2276  0.0445 -0.1548
 5389TIP3    H137802   3.263   3.462   8.130  1.3444  0.7047  1.3212
 5389TIP3    H237803   3.159   3.521   8.223 -0.3473  0.2001 -0.1936
 5390TIP3   OH237804   0.312   2.105   1.025 -0.0212 -0.0675 -0.4102
 5390TIP3    H137805   0.250   2.057   0.971 -0.9117  2.2248 -1.5531
 5390TIP3    H237806   0.280   2.195   1.025  2.8659  1.0796 -0.4413
 5391TIP3   OH237807   0.138   0.387   1.477  0.1931 -0.3144 -0.4728
 5391TIP3    H137808   0.184   0.444   1.415  1.8256 -0.0639  0.9110
 5391TIP3    H237809   0.142   0.300   1.437 -1.7968  0.3493 -2.3196
 5392TIP3   OH237810   3.889   3.116   8.539 -0.2129  0.2130 -0.1774
 5392TIP3    H137811   3.923   3.034   8.575  0.4587  0.7430  0.4365
 5392TIP3    H237812   3.862   3.166   8.616  0.7551  1.1584 -0.4314
 5393TIP3   OH237813   3.872   5.344   2.400  0.0157 -0.1726 -0.5152
 5393TIP3    H137814   3.911   5.274   2.453  0.3057 -0.4265 -1.0605
 5393TIP3    H237815   3.788   5.363   2.443  0.1548 -0.5209 -0.0872
 5394TIP3   OH237816   1.287   6.658   1.498 -0.0536  0.0372 -0.4554
 5394TIP3    H137817   1.351   6.656   1.427 -0.4467 -0.1048 -0.8033
 5394TIP3    H237818   1.299   6.574   1.543  0.3689  0.2325 -0.1970
 5395TIP3   OH237819   0.997   6.546   7.610  0.1872  0.5333 -0.0767
 5395TIP3    H137820   0.986   6.483   7.538 -0.2141  1.2728 -0.6783
 5395TIP3    H237821   0.964   6.628   7.574  1.0848  1.1831  0.5576
 5396TIP3   OH237822   6.344   0.355   1.376  0.3604 -0.4923 -0.2266
 5396TIP3    H137823   6.301   0.427   1.421  0.8337  0.4028 -1.1682
 5396TIP3    H237824   6.361   0.291   1.445 -1.2850 -0.3207  0.3915
 5397TIP3   OH237825   0.519   1.203   2.426  0.1448 -0.0279  0.6132
 5397TIP3    H137826   0.459   1.130   2.444  0.2054 -0.1769  0.2205
 5397TIP3    H237827   0.512   1.217   2.331  0.8293 -0.1377  0.5383
 5398TIP3   OH237828   5.841   5.066   7.006  0.2396 -0.1532  0.0213
 5398TIP3    H137829   5.903   4.999   6.977  0.0675 -0.8149  1.0983
 5398TIP3    H237830   5.756   5.023   7.000  0.1306 -0.0549  0.7701
 5399TIP3   OH237831   1.863   2.072   8.191  0.3492 -0.1632  0.2484
 5399TIP3    H137832   1.940   2.124   8.167  0.6019  0.0098  1.3383
 5399TIP3    H237833   1.900   1.994   8.232  0.0431 -2.3298 -3.2826
 5400TIP3   OH237834   5.308   3.756   2.058  0.9319 -0.0851  0.1218
 5400TIP3    H137835   5.230   3.807   2.083  1.3461 -0.5606  2.5913
 5400TIP3    H237836   5.311   3.765   1.963 -1.9675  0.1961 -0.0601
 5401TIP3   OH237837   3.789   6.650   0.552  0.0641 -0.1757  0.2258
 5401TIP3    H137838   3.757   6.586   0.488 -2.7838  1.1992  0.1266
 5401TIP3    H237839   3.832   6.717   0.499 -0.0378 -0.2915 -0.0049
 5402TIP3   OH237840   1.662   0.040   7.681  0.2678  0.2564 -0.1080
 5402TIP3    H137841   1.652   0.073   7.591  0.0829  1.5278  0.3629
 5402TIP3    H237842   1.722  -0.034   7.672 -1.9526 -1.4794 -1.6692
 5403TIP3   OH237843   2.946   1.128   6.725  0.0126  0.7447 -0.2713
 5403TIP3    H137844   3.041   1.118   6.726  0.0542  1.1274 -0.3883
 5403TIP3    H237845   2.928   1.196   6.791 -0.2011  0.4913 -0.0648
 5404TIP3   OH237846   4.849   6.811   1.984 -0.3350 -0.2071 -0.4818
 5404TIP3    H137847   4.830   6.903   2.001  0.9772  0.0265 -0.1958
 5404TIP3    H237848   4.784   6.764   2.037  0.4018  0.5476  1.1635
 5405TIP3   OH237849   2.293   0.496   1.219 -0.0812 -0.0620  0.0319
 5405TIP3    H137850   2.271   0.543   1.139 -0.2204  0.2604  0.2564
 5405TIP3    H237851   2.277   0.559   1.289  0.5658 -0.1533  0.2745
 5406TIP3   OH237852   1.941   3.926   1.964  0.2977 -0.5102 -0.0445
 5406TIP3    H137853   1.848   3.937   1.944  0.4330  0.4772 -0.2032
 5406TIP3    H237854   1.951   3.961   2.052  0.6012 -0.1229 -0.2257
 5407TIP3   OH237855   0.725   1.072   7.688  0.1583  0.4132 -0.3854
 5407TIP3    H137856   0.738   1.047   7.780 -0.3371  0.8609 -0.1893
 5407TIP3    H237857   0.633   1.099   7.683  0.3108  0.8535 -0.9046
 5408TIP3   OH237858   3.992   2.237   2.121 -0.2427 -0.5500  0.1111
 5408TIP3    H137859   4.056   2.183   2.167  0.8903  2.1991  2.0622
 5408TIP3    H237860   4.046   2.297   2.069 -1.3749 -0.2600 -0.7539
 5409TIP3   OH237861   1.928   1.685   0.244  0.4080 -0.5142  0.1133
 5409TIP3    H137862   1.926   1.684   0.339  0.9577  1.2547  0.1794
 5409TIP3    H237863   2.020   1.698   0.221  0.1332  0.2774 -0.6077
 5410TIP3   OH237864   5.993   1.207   8.514  0.0533 -0.1389  0.6672
 5410TIP3    H137865   6.020   1.183   8.603  1.5565 -0.9784  0.0177
 5410TIP3    H237866   6.015   1.131   8.461 -1.5564  0.0490 -0.3342
 5411TIP3   OH237867   4.544   3.574   0.433  0.4716  0.1661  0.2115
 5411TIP3    H137868   4.565   3.562   0.526 -0.3835  0.8439  0.5103
 5411TIP3    H237869   4.572   3.664   0.414 -0.9099  0.6425  0.2903
 5412TIP3   OH237870   6.259   0.700   7.496  0.0487  0.2397  0.3901
 5412TIP3    H137871   6.301   0.774   7.540 -0.5798 -0.0042  1.4411
 5412TIP3    H237872   6.189   0.674   7.555  0.2030 -1.1464 -0.0037
 5413TIP3   OH237873   4.501   0.619   7.023 -0.0722  0.3952  0.4612
 5413TIP3    H137874   4.548   0.698   6.995 -0.5785  1.1544  1.6597
 5413TIP3    H237875   4.519   0.555   6.954 -0.3959  1.8274 -1.0284
 5414TIP3   OH237876   6.133   6.758   1.685  0.4589  0.3869 -0.3016
 5414TIP3    H137877   6.183   6.802   1.753  0.4270  0.5470 -0.3825
 5414TIP3    H237878   6.191   6.688   1.654  0.3458  0.1054  0.1194
 5415TIP3   OH237879   1.420   4.736   7.031  0.3393 -0.6599 -0.0235
 5415TIP3    H137880   1.444   4.804   6.967  0.0893 -1.7818 -1.3684
 5415TIP3    H237881   1.359   4.680   6.983 -1.5930 -0.3315  1.9222
 5416TIP3   OH237882   4.494   1.812   1.347 -0.3803  0.0720 -0.2798
 5416TIP3    H137883   4.422   1.783   1.291 -0.1183 -2.1635  0.4337
 5416TIP3    H237884   4.566   1.831   1.286 -1.2227  1.3473 -0.9191
 5417TIP3   OH237885   2.430   6.593   0.256 -0.1686  0.1092 -0.3261
 5417TIP3    H137886   2.459   6.518   0.309  0.8270  0.6656 -0.0641
 5417TIP3    H237887   2.401   6.554   0.173 -0.2218 -0.6157  0.0217
 5418TIP3   OH237888   3.571   4.582   8.656 -0.7283 -0.3536  0.0160
 5418TIP3    H137889   3.636   4.647   8.632 -1.1918  0.9123  1.9319
 5418TIP3    H237890   3.619   4.500   8.664  0.1720  0.0793 -0.8308
 5419TIP3   OH237891   5.834   5.831   1.279  0.2148 -0.1424  0.5472
 5419TIP3    H137892   5.778   5.754   1.273  1.5852 -1.1454  0.2884
 5419TIP3    H237893   5.903   5.807   1.341  0.3215  1.1052  0.9433
 5420TIP3   OH237894   4.065   1.457   0.013 -0.4974  0.4146 -0.0112
 5420TIP3    H137895   4.119   1.405  -0.045  0.2962  1.3270 -0.1193
 5420TIP3    H237896   4.127   1.497   0.075 -1.0891  1.1007  0.1611
 5421TIP3   OH237897   5.288   3.638   2.602  0.2945  0.6086 -0.7660
 5421TIP3    H137898   5.340   3.603   2.529  0.0607  0.2633 -0.7689
 5421TIP3    H237899   5.335   3.609   2.681 -0.2617 -0.3154 -0.7508
 5422TIP3   OH237900   1.093   2.769   8.599  0.0785  0.3120 -0.1523
 5422TIP3    H137901   1.153   2.696   8.612 -0.4508  0.1644  1.9648
 5422TIP3    H237902   1.123   2.812   8.519  1.4712 -1.1805 -0.4763
 5423TIP3   OH237903   2.076   5.400   1.573  0.2536  0.0801  0.3850
 5423TIP3    H137904   2.099   5.491   1.595  1.3034 -0.0373 -0.1824
 5423TIP3    H237905   2.040   5.406   1.485  0.6294 -0.0931  0.2184
 5424TIP3   OH237906   4.231   1.961   0.193  0.3062 -0.0347  0.4186
 5424TIP3    H137907   4.219   2.028   0.125 -1.5969 -2.0407 -1.3723
 5424TIP3    H237908   4.274   1.888   0.149 -0.7180 -1.2978  1.4170
 5425TIP3   OH237909   1.796   1.213   6.795  0.3111 -0.4024 -0.6826
 5425TIP3    H137910   1.839   1.280   6.742 -1.0398  1.5080  0.4985
 5425TIP3    H237911   1.714   1.194   6.750  0.3103 -0.6312 -0.5871
 5426TIP3   OH237912   3.913   3.427   8.485 -0.3855  0.0094 -0.5339
 5426TIP3    H137913   3.823   3.409   8.512  0.1493 -0.7942  0.8136
 5426TIP3    H237914   3.964   3.354   8.520  1.1228  1.5553  0.6478
 5427TIP3   OH237915   5.729   6.122   1.369  0.0655  0.1208  0.5828
 5427TIP3    H137916   5.823   6.120   1.349 -0.0976 -0.0978 -0.1942
 5427TIP3    H237917   5.723   6.082   1.456  0.6420 -0.3787  0.4061
 5428TIP3   OH237918   4.597   3.605   0.711  0.1354 -0.0226 -0.7797
 5428TIP3    H137919   4.613   3.663   0.785  0.7070  2.1217 -2.4635
 5428TIP3    H237920   4.638   3.522   0.735 -0.1728  0.4325  1.4813
 5429TIP3   OH237921   2.319   3.075   0.614 -0.0383 -0.3970 -0.1354
 5429TIP3    H137922   2.343   3.082   0.707 -0.3142  1.1685 -0.1567
 5429TIP3    H237923   2.322   2.981   0.596  1.5890 -0.6161  1.0303
 5430TIP3   OH237924   6.409   1.076   8.676  0.1437 -0.4872 -0.9153
 5430TIP3    H137925   6.405   1.110   8.766  0.0486 -1.8425 -0.3786
 5430TIP3    H237926   6.500   1.049   8.664  0.8518  2.1409 -2.2271
 5431TIP3   OH237927   3.943   6.374   8.414 -0.1580  0.5939 -0.1603
 5431TIP3    H137928   3.970   6.296   8.366  2.3145  1.3951 -0.2049
 5431TIP3    H237929   3.873   6.344   8.472  0.2095 -1.4699 -0.7149
 5432TIP3   OH237930   3.833   0.056   2.211  0.9802 -0.0022 -0.1993
 5432TIP3    H137931   3.902   0.123   2.208  0.0451  0.9590 -1.0324
 5432TIP3    H237932   3.793   0.067   2.297  0.6980  0.6635 -0.4071
 5433TIP3   OH237933   4.550   3.506   7.835  0.0598  0.3973 -0.4148
 5433TIP3    H137934   4.612   3.479   7.903  1.0236  1.6601 -0.7304
 5433TIP3    H237935   4.484   3.557   7.882  0.7043  1.2397 -0.4003
 5434TIP3   OH237936   3.652   6.584   6.452  0.2971 -0.3597  0.2919
 5434TIP3    H137937   3.597   6.505   6.445 -0.3840 -0.0560  1.8593
 5434TIP3    H237938   3.632   6.633   6.372 -3.1094  0.5602  1.5321
 5435TIP3   OH237939   1.866   1.468   7.514 -0.7640  0.2574  0.9947
 5435TIP3    H137940   1.932   1.502   7.575  0.0900  0.9443 -0.2786
 5435TIP3    H237941   1.816   1.546   7.488  0.3918  0.3987 -0.9699
 5436TIP3   OH237942   0.639   1.266   0.014  0.1082  0.1309 -0.1438
 5436TIP3    H137943   0.730   1.236   0.024  0.0679 -0.2997 -0.9764
 5436TIP3    H237944   0.630   1.286  -0.079 -1.2739 -2.0065 -0.5590
 5437TIP3   OH237945   3.332   5.817   8.578 -0.4946 -0.3272 -0.3990
 5437TIP3    H137946   3.334   5.752   8.508  3.6119  0.3879 -1.1688
 5437TIP3    H237947   3.329   5.901   8.533  2.9837  0.1713  0.0750
 5438TIP3   OH237948   5.982   4.663   8.712 -0.6500  0.2235  0.0432
 5438TIP3    H137949   5.950   4.736   8.660 -1.0366 -0.9104 -1.3993
 5438TIP3    H237950   6.067   4.642   8.674 -0.1110  0.5140  1.0669
 5439TIP3   OH237951   4.211   3.508   2.054  0.1199 -0.4427  0.5414
 5439TIP3    H137952   4.242   3.585   2.007 -0.8658 -1.9455 -2.9363
 5439TIP3    H237953   4.166   3.543   2.131  0.2849  2.3895 -0.5225
 5440TIP3   OH237954   5.869   0.824   2.309  0.0492  0.4272 -0.3964
 5440TIP3    H137955   5.826   0.739   2.320 -0.7020  0.7059 -1.0604
 5440TIP3    H237956   5.911   0.841   2.393 -1.3198  0.2323  0.3407
 5441TIP3   OH237957   2.303   5.084   1.837  0.5196 -0.0097 -0.0659
 5441TIP3    H137958   2.290   5.119   1.925  0.3282  0.2768 -0.2054
 5441TIP3    H237959   2.369   5.141   1.798  0.4048  0.0299 -0.2021
 5442TIP3   OH237960   0.736   2.653   1.682 -0.3997 -0.0971 -0.1745
 5442TIP3    H137961   0.715   2.733   1.633 -0.9253  0.1931  0.5014
 5442TIP3    H237962   0.700   2.582   1.629 -1.0938  0.2226 -0.1489
 5443TIP3   OH237963   1.939   1.415   1.999  0.6795 -0.3650 -0.0401
 5443TIP3    H137964   1.974   1.386   2.084  1.0904 -2.2892 -0.8136
 5443TIP3    H237965   1.930   1.334   1.949 -0.3579  0.6491 -1.5530
 5444TIP3   OH237966   2.946   5.584   8.126  0.1211 -0.5940  0.0910
 5444TIP3    H137967   3.020   5.632   8.089  1.3237 -1.3684  1.3859
 5444TIP3    H237968   2.883   5.651   8.150 -0.1195  0.0216 -2.0369
 5445TIP3   OH237969   5.656   5.746   0.379  0.1914 -0.6518 -0.0851
 5445TIP3    H137970   5.626   5.658   0.405  0.2139 -0.4717  0.5777
 5445TIP3    H237971   5.714   5.772   0.450 -0.9092  0.4824  0.4284
 5446TIP3   OH237972   2.423   0.577   0.428 -0.0027 -0.2470  0.2087
 5446TIP3    H137973   2.417   0.668   0.457  0.3709 -0.4920  1.0842
 5446TIP3    H237974   2.355   0.532   0.478  0.9548 -0.7624  1.0818
 5447TIP3   OH237975   2.378   6.660   7.059 -0.0657 -0.4561 -0.7348
 5447TIP3    H137976   2.345   6.747   7.039  1.8013 -0.1697 -2.9016
 5447TIP3    H237977   2.315   6.601   7.018 -0.5443 -0.0975 -0.5275
 5448TIP3   OH237978   4.336   0.835   8.043  0.2712 -0.0862  0.3638
 5448TIP3    H137979   4.406   0.783   8.083  0.0964 -0.0572  0.7124
 5448TIP3    H237980   4.323   0.796   7.957  0.6462 -0.1565  0.3358
 5449TIP3   OH237981   4.974   6.754   7.231 -0.3866 -0.0950  0.0899
 5449TIP3    H137982   4.947   6.689   7.166  0.1427 -0.4804  0.2538
 5449TIP3    H237983   5.067   6.735   7.247 -0.1518  0.8740 -0.0677
 5450TIP3   OH237984   2.471   0.798   8.052 -0.1566  0.0370 -0.3703
 5450TIP3    H137985   2.404   0.756   8.106  0.9153 -1.0641  0.1252
 5450TIP3    H237986   2.554   0.773   8.091  0.5925  0.8519 -1.3666
 5451TIP3   OH237987   5.184   0.366   7.476  0.4599 -0.0432  0.5734
 5451TIP3    H137988   5.234   0.286   7.458 -0.8007 -0.5143 -0.9746
 5451TIP3    H237989   5.204   0.424   7.403 -1.1520 -0.2140 -0.0436
 5452TIP3   OH237990   2.698   0.640   1.050  0.6927  0.5809 -0.4614
 5452TIP3    H137991   2.688   0.590   0.970  1.5810  0.2909 -0.4089
 5452TIP3    H237992   2.761   0.590   1.102 -1.0322 -0.0622  1.1080
 5453TIP3   OH237993   5.517   6.409   2.457  0.2020  0.3296 -0.1553
 5453TIP3    H137994   5.423   6.406   2.473 -0.3911  1.9177 -2.7235
 5453TIP3    H237995   5.538   6.502   2.454  1.9962  0.0051  0.8391
 5454TIP3   OH237996   0.530   5.495   1.006  0.5774 -0.4234 -0.3765
 5454TIP3    H137997   0.608   5.547   0.986  0.6496 -0.2857  0.2556
 5454TIP3    H237998   0.496   5.532   1.087 -1.1514  0.6557 -1.5292
 5455TIP3   OH237999   3.465   2.980   1.623 -0.3581 -0.0548  0.6272
 5455TIP3    H138000   3.396   2.971   1.689  0.0649  0.8862  1.2144
 5455TIP3    H238001   3.478   3.074   1.613  2.5652 -0.1461  2.4034
 5456TIP3   OH238002   5.065   4.428   1.304 -0.2850 -0.4368 -0.0341
 5456TIP3    H138003   4.979   4.432   1.345  0.0710 -1.3125  0.8493
 5456TIP3    H238004   5.101   4.516   1.317  0.6343 -1.1770  3.5260
 5457TIP3   OH238005   1.308   2.067   1.813  0.1910  0.1022  0.1681
 5457TIP3    H138006   1.351   2.106   1.736  2.0407  0.8366  1.4849
 5457TIP3    H238007   1.320   1.973   1.803  1.5197  0.2548  0.1154
 5458TIP3   OH238008   1.367   0.011   8.153 -0.1476 -0.2398  0.2774
 5458TIP3    H138009   1.423   0.089   8.159 -0.7189  0.2376 -0.3763
 5458TIP3    H238010   1.423  -0.061   8.180  1.2942 -0.0191 -1.8634
 5459TIP3   OH238011   5.029   4.859   8.148  0.1327 -0.4662  0.3976
 5459TIP3    H138012   5.115   4.816   8.150  0.3996  0.0559  0.2891
 5459TIP3    H238013   4.995   4.840   8.060  0.1232 -0.6983  0.4507
 5460TIP3   OH238014   1.260   0.051   0.056 -0.1694 -0.1103 -0.8068
 5460TIP3    H138015   1.241   0.142   0.031  1.7057  0.2388 -1.0504
 5460TIP3    H238016   1.290   0.057   0.146 -1.0543 -0.6434 -0.4617
 5461TIP3   OH238017   0.757   5.465   0.275  0.3328 -0.0634  0.1122
 5461TIP3    H138018   0.777   5.430   0.188 -0.9174 -0.7470  0.0682
 5461TIP3    H238019   0.793   5.553   0.275  2.3791 -0.8544 -0.2679
 5462TIP3   OH238020   4.870   2.279   7.890 -0.0863 -0.2573 -0.6410
 5462TIP3    H138021   4.929   2.215   7.930 -1.5589 -1.1557  0.2119
 5462TIP3    H238022   4.913   2.304   7.809  0.9070 -1.7586 -0.6218
 5463TIP3   OH238023   4.783   2.513   0.852 -0.5872 -0.6423  0.3390
 5463TIP3    H138024   4.809   2.547   0.767 -0.7816  1.3209  1.0190
 5463TIP3    H238025   4.864   2.481   0.892 -0.1505  0.2796  0.2078
 5464TIP3   OH238026   5.202   4.821   1.850  0.2106 -0.1106 -0.3572
 5464TIP3    H138027   5.252   4.875   1.789  0.5720 -1.7418 -1.5748
 5464TIP3    H238028   5.249   4.828   1.933  0.7025  0.7808 -0.7007
 5465TIP3   OH238029   6.157   5.644   0.933 -0.1012  0.2090 -0.0473
 5465TIP3    H138030   6.088   5.587   0.967  0.0660 -0.0646 -0.1657
 5465TIP3    H238031   6.112   5.700   0.870  0.0066 -0.8494 -1.1136
 5466TIP3   OH238032   3.665   3.275   7.642 -0.6929  1.1935  0.0823
 5466TIP3    H138033   3.633   3.329   7.570 -1.5233  1.8264  0.9036
 5466TIP3    H238034   3.610   3.299   7.717  0.6073  1.0670  1.1172
 5467TIP3   OH238035   5.760   6.030   0.807 -0.7878 -0.5024 -0.9829
 5467TIP3    H138036   5.817   5.979   0.864 -0.9800 -2.4398 -2.4229
 5467TIP3    H238037   5.685   6.054   0.862 -0.0809 -0.6364  0.0642
 5468TIP3   OH238038   3.840   0.325   8.372  0.0061 -0.1380  0.3156
 5468TIP3    H138039   3.816   0.415   8.348  0.1965 -0.2291 -0.2190
 5468TIP3    H238040   3.762   0.292   8.418  0.1574  0.4969  1.0665
 5469TIP3   OH238041   5.206   6.451   1.530 -0.6616 -0.2024  0.1130
 5469TIP3    H138042   5.123   6.412   1.556  0.4225 -2.1144  0.9652
 5469TIP3    H238043   5.253   6.381   1.485  1.7758 -0.3403  2.5598
 5470TIP3   OH238044   3.607   0.412   8.168 -0.0682  0.0004 -0.2724
 5470TIP3    H138045   3.618   0.461   8.249  1.7529 -3.0336  1.5016
 5470TIP3    H238046   3.678   0.442   8.111  0.8608 -0.3249  0.6869
 5471TIP3   OH238047   5.531   3.188   1.628 -0.4026  0.4964 -0.2352
 5471TIP3    H138048   5.473   3.252   1.587 -1.1030 -0.4860 -0.8480
 5471TIP3    H238049   5.473   3.136   1.684 -0.1901 -0.6524 -1.0418
 5472TIP3   OH238050   0.591   2.355   0.873 -0.4384 -0.0325 -0.0796
 5472TIP3    H138051   0.619   2.400   0.953  2.1131  1.6110 -1.7221
 5472TIP3    H238052   0.507   2.395   0.851 -1.4317 -0.8421  1.9160
 5473TIP3   OH238053   1.514   0.210   1.606  0.0586  0.0265  0.1433
 5473TIP3    H138054   1.510   0.302   1.581  3.8952  0.1908 -0.4223
 5473TIP3    H238055   1.525   0.163   1.524  2.1005 -0.4766  0.6531
 5474TIP3   OH238056   6.136   5.627   8.449  0.5209 -0.1668  0.8733
 5474TIP3    H138057   6.071   5.690   8.480 -0.6203 -1.3981  1.0266
 5474TIP3    H238058   6.193   5.613   8.525 -0.6231 -1.0812  1.5842
 5475TIP3   OH238059   4.181   1.603   7.638 -0.5823  0.3815  0.2569
 5475TIP3    H138060   4.139   1.681   7.603 -2.8851 -0.6378  0.6005
 5475TIP3    H238061   4.270   1.631   7.660 -0.6233  2.2843 -1.7513
 5476TIP3   OH238062   5.592   6.813   0.768  0.7095 -0.2479  0.1421
 5476TIP3    H138063   5.590   6.881   0.835  0.3262  0.1247 -0.2436
 5476TIP3    H238064   5.538   6.743   0.803 -0.2683  0.3348 -0.1832
 5477TIP3   OH238065   0.017   3.225   0.516 -0.1445 -0.3765  0.3966
 5477TIP3    H138066   0.043   3.206   0.426 -1.1100 -1.4303  0.3153
 5477TIP3    H238067   0.099   3.246   0.561  0.2096  1.6012 -1.0309
 5478TIP3   OH238068   1.757   0.801   7.248  0.9733 -0.3178 -0.2555
 5478TIP3    H138069   1.757   0.779   7.155 -0.3008  0.9545 -0.5829
 5478TIP3    H238070   1.848   0.825   7.266  0.5880  3.0763 -2.1430
 5479TIP3   OH238071   1.340   2.465   0.386  0.2179  0.3125  0.8796
 5479TIP3    H138072   1.401   2.507   0.447 -0.0745 -0.6159  1.8298
 5479TIP3    H238073   1.370   2.374   0.380 -0.5102  0.0805  0.6268
 5480TIP3   OH238074   5.597   6.715   2.414 -0.2687 -0.0029 -0.3212
 5480TIP3    H138075   5.578   6.788   2.473 -3.2726 -0.9615  0.0436
 5480TIP3    H238076   5.639   6.757   2.338  1.6410  1.5275  1.4456
 5481TIP3   OH238077   5.863   2.338   0.847  0.1811 -0.2553 -0.1792
 5481TIP3    H138078   5.890   2.247   0.837 -1.1589 -0.4800 -2.3444
 5481TIP3    H238079   5.925   2.388   0.793 -0.0850 -0.0719 -0.3162
 5482TIP3   OH238080   1.739   0.287   8.480  0.0024  0.6779 -0.0845
 5482TIP3    H138081   1.800   0.238   8.425 -1.1171 -0.5567 -0.2722
 5482TIP3    H238082   1.792   0.356   8.519  1.8860 -1.2906  0.9898
 5483TIP3   OH238083   1.340   0.681   1.562 -0.2310 -0.3155 -0.2274
 5483TIP3    H138084   1.280   0.725   1.502  1.1437  0.4342 -1.0881
 5483TIP3    H238085   1.350   0.743   1.635 -0.0659 -0.2032 -0.3467
 5484TIP3   OH238086   4.819   6.676   0.946 -0.4527  0.1844 -0.2464
 5484TIP3    H138087   4.843   6.749   0.890 -0.6632 -0.3801 -1.1008
 5484TIP3    H238088   4.836   6.706   1.035 -1.5878  1.6691 -0.4987
 5485TIP3   OH238089   0.718   3.299   0.503  0.6214 -0.0640 -0.0551
 5485TIP3    H138090   0.742   3.322   0.413 -0.2776 -0.4127 -0.3889
 5485TIP3    H238091   0.792   3.248   0.535  0.2408 -1.3556 -1.1568
 5486TIP3   OH238092   0.688   4.850   1.651  0.1780 -0.1330 -0.1459
 5486TIP3    H138093   0.645   4.934   1.641 -1.4476 -1.0308 -1.1682
 5486TIP3    H238094   0.766   4.856   1.595  1.0137  1.2370  1.1086
 5487TIP3   OH238095   1.282   4.191   1.114  0.2363  0.1638 -0.0930
 5487TIP3    H138096   1.207   4.246   1.136  0.6662  1.1137 -0.9239
 5487TIP3    H238097   1.358   4.238   1.148  0.5285 -0.4297  0.0989
 5488TIP3   OH238098   1.128   3.147   6.414  0.0253 -0.4278 -0.0054
 5488TIP3    H138099   1.213   3.112   6.443  0.4357 -0.7000 -1.4714
 5488TIP3    H238100   1.066   3.076   6.430  0.1660 -0.4356  0.5433
 5489TIP3   OH238101   0.446   0.257   0.986  0.0708  0.1111  0.0396
 5489TIP3    H138102   0.364   0.277   1.030 -0.1310  0.6320 -0.5570
 5489TIP3    H238103   0.491   0.341   0.977  0.2862 -0.0445 -0.3904
 5490TIP3   OH238104   6.115   1.036   8.253 -0.2751  0.5729  0.5643
 5490TIP3    H138105   6.082   0.949   8.230  0.3801  0.7354 -1.0922
 5490TIP3    H238106   6.173   1.020   8.328 -1.0796 -0.2335  1.0406
 5491TIP3   OH238107   4.048   6.539   8.110 -0.2021  0.8147  0.2525
 5491TIP3    H138108   4.095   6.493   8.040 -0.8400  0.4706  0.0331
 5491TIP3    H238109   4.115   6.586   8.158  0.7105 -1.4633  1.3632
 5492TIP3   OH238110   3.795   5.906   7.005  0.2082 -0.5519  0.0894
 5492TIP3    H138111   3.869   5.882   6.949  1.9286  3.2626  0.4060
 5492TIP3    H238112   3.836   5.930   7.089 -2.0180 -3.3506  2.1900
 5493TIP3   OH238113   5.816   4.176   8.837 -0.2486  0.1077  0.3901
 5493TIP3    H138114   5.747   4.177   8.770  0.6525 -1.8173 -0.6320
 5493TIP3    H238115   5.844   4.268   8.843 -0.7965  0.4386 -1.4090
 5494TIP3   OH238116   3.324   5.141   2.182  0.0100 -0.1070  0.4063
 5494TIP3    H138117   3.346   5.068   2.239  0.4786 -0.6935 -0.5171
 5494TIP3    H238118   3.228   5.138   2.175 -0.1194  0.4061  1.7169
 5495TIP3   OH238119   2.067   2.982   0.996 -0.3608 -1.1350  0.2316
 5495TIP3    H138120   2.125   2.922   0.949 -0.2387 -0.7034 -0.1744
 5495TIP3    H238121   2.095   2.976   1.087  0.3726 -0.8782  0.0302
 5496TIP3   OH238122   6.014   5.791   6.950  0.1260  0.3140 -0.1214
 5496TIP3    H138123   6.086   5.783   6.887  0.2220  0.8234 -0.0774
 5496TIP3    H238124   6.017   5.710   7.000 -1.7744 -1.5344 -2.6822
 5497TIP3   OH238125   5.711   2.229   1.417 -0.2020  0.1653 -0.4093
 5497TIP3    H138126   5.653   2.290   1.463  1.0064  1.1812 -0.1616
 5497TIP3    H238127   5.676   2.143   1.436 -1.4691  0.7335 -0.0567
 5498TIP3   OH238128   4.078   5.209   2.612  0.0420 -0.0399 -0.0023
 5498TIP3    H138129   4.002   5.151   2.607 -0.8151  0.9917  0.5879
 5498TIP3    H238130   4.142   5.170   2.553 -1.2996 -0.4231 -1.2785
 5499TIP3   OH238131   5.732   2.828   7.666  0.2343 -0.2760  0.1589
 5499TIP3    H138132   5.793   2.902   7.668 -1.0079  0.7845 -0.0183
 5499TIP3    H238133   5.703   2.817   7.757  1.2242 -1.2735  0.3808
 5500TIP3   OH238134   4.758   5.106   7.719  0.2266  0.2818 -0.3428
 5500TIP3    H138135   4.720   5.187   7.683 -1.8913  0.2409  1.5831
 5500TIP3    H238136   4.772   5.050   7.642 -1.6612  1.1438 -1.3788
 5501TIP3   OH238137   1.125   5.599   2.444 -0.1225  0.6583  0.1508
 5501TIP3    H138138   1.094   5.607   2.354  0.1326 -0.4998 -0.0643
 5501TIP3    H238139   1.166   5.683   2.463 -0.4057  1.0069 -0.7272
 5502TIP3   OH238140   3.045   5.123   8.252  0.3701 -0.7263 -0.2624
 5502TIP3    H138141   3.052   5.091   8.162  0.5550  1.4281 -1.0737
 5502TIP3    H238142   3.118   5.184   8.262  0.1306 -0.6373  1.2279
 5503TIP3   OH238143   2.414   4.102   0.868 -0.1287 -0.7710  0.2005
 5503TIP3    H138144   2.326   4.130   0.842  1.1338  0.5611 -3.3137
 5503TIP3    H238145   2.465   4.183   0.869  0.8632 -1.2567  3.8267
 5504TIP3   OH238146   2.450   4.453   0.317  0.5824  0.2138 -0.5548
 5504TIP3    H138147   2.390   4.499   0.258  0.3011 -0.2762 -0.6575
 5504TIP3    H238148   2.535   4.458   0.274  0.3848 -0.1044 -0.9824
 5505TIP3   OH238149   5.838   4.881   1.257 -0.3656 -0.2255 -0.2683
 5505TIP3    H138150   5.860   4.806   1.202  1.1065 -0.7655  0.9776
 5505TIP3    H238151   5.854   4.958   1.202 -2.5291 -0.7637 -1.7851
 5506TIP3   OH238152   4.259   3.636   0.266  0.7609  0.0412 -0.1439
 5506TIP3    H138153   4.223   3.604   0.348  0.2345  0.5211 -0.1825
 5506TIP3    H238154   4.239   3.567   0.202 -0.5499  0.5077 -0.2744
 5507TIP3   OH238155   4.109   6.734   0.063  0.4896 -0.4048  0.0366
 5507TIP3    H138156   4.072   6.708   0.147 -1.0088 -1.3441 -0.8824
 5507TIP3    H238157   4.075   6.822   0.048 -1.1780 -1.1337 -0.6460
 5508TIP3   OH238158   1.291   0.224   0.404 -0.0934  0.3184  0.5608
 5508TIP3    H138159   1.229   0.250   0.472 -0.2556 -1.3600  1.1086
 5508TIP3    H238160   1.277   0.130   0.394  0.4923  0.3853 -1.2375
 5509TIP3   OH238161   6.546   0.373   1.149  0.7054 -0.2851  0.4664
 5509TIP3    H138162   6.626   0.400   1.193 -0.0767  0.9964  1.1659
 5509TIP3    H238163   6.482   0.363   1.220 -0.0968  0.0138 -0.2026
 5510TIP3   OH238164   2.657   0.064   1.285 -0.2277 -0.5469 -0.0986
 5510TIP3    H138165   2.609   0.130   1.234  0.2631 -1.8167 -2.3433
 5510TIP3    H238166   2.741   0.106   1.304 -0.6726  0.2006  0.2794
 5511TIP3   OH238167   1.479   2.609   1.592  0.8745  0.9299  0.0388
 5511TIP3    H138168   1.570   2.611   1.564  0.3690  0.4134 -1.8114
 5511TIP3    H238169   1.482   2.622   1.686  3.3177 -4.4646  1.0689
 5512TIP3   OH238170   3.349   4.152   1.335 -0.5984 -0.2681 -0.8891
 5512TIP3    H138171   3.313   4.122   1.419 -1.1628 -0.3351 -1.1556
 5512TIP3    H238172   3.308   4.096   1.270 -0.8772  0.4084 -1.2986
 5513TIP3   OH238173   5.849   3.754   7.271 -0.5416 -0.0902  0.1466
 5513TIP3    H138174   5.830   3.834   7.222  0.3183 -1.9809 -3.7007
 5513TIP3    H238175   5.779   3.748   7.335 -0.6923  3.6025  0.5873
 5514TIP3   OH238176   2.673   5.329   1.079 -0.0374  0.0494 -0.2897
 5514TIP3    H138177   2.713   5.248   1.049 -0.4070 -0.4362  0.5204
 5514TIP3    H238178   2.592   5.337   1.027  0.1776  0.0913 -0.6211
 5515TIP3   OH238179   2.675   3.587   8.738  0.0671 -0.0863  0.4585
 5515TIP3    H138180   2.581   3.607   8.743  0.0791  0.1458 -0.1208
 5515TIP3    H238181   2.690   3.525   8.809  0.1403  2.3194  2.6974
 5516TIP3   OH238182   2.628   0.074   8.349 -0.4184  0.0543 -0.4386
 5516TIP3    H138183   2.653   0.118   8.267  0.8899 -0.8864 -0.5738
 5516TIP3    H238184   2.533   0.083   8.353 -0.4607  0.4682 -1.8509
 5517TIP3   OH238185   2.671   6.286   1.675  0.4618 -0.4167  0.3340
 5517TIP3    H138186   2.705   6.237   1.601  0.2976  1.7164 -1.2369
 5517TIP3    H238187   2.745   6.337   1.706 -0.2831  1.3538 -0.6645
 5518TIP3   OH238188   3.137   5.786   8.109 -0.1898 -0.1976 -0.0319
 5518TIP3    H138189   3.114   5.826   8.194  0.2885  1.2633 -0.5470
 5518TIP3    H238190   3.190   5.853   8.066  1.5660 -1.8290 -0.5430
 5519TIP3   OH238191   4.725   0.497   1.286 -0.3031 -0.0689  0.2914
 5519TIP3    H138192   4.815   0.521   1.264 -0.5052  0.0810 -0.3941
 5519TIP3    H238193   4.696   0.442   1.213 -1.0824  0.6695  0.0268
 5520TIP3   OH238194   3.783   5.244   0.816  0.0764  0.1759 -0.3485
 5520TIP3    H138195   3.747   5.187   0.748  1.3022 -0.3111 -0.6114
 5520TIP3    H238196   3.722   5.318   0.821 -2.2784 -1.6793  0.8268
 5521TIP3   OH238197   3.405   5.016   8.746 -1.1264 -0.0055  0.3333
 5521TIP3    H138198   3.445   5.010   8.659 -1.0312 -0.3774  0.4029
 5521TIP3    H238199   3.392   4.925   8.774  2.4604 -0.0947  2.3637
 5522TIP3   OH238200   3.004   2.666   7.532 -0.5832 -0.1331 -0.3255
 5522TIP3    H138201   2.991   2.722   7.456  1.7224  2.3463  0.9244
 5522TIP3    H238202   2.998   2.577   7.498 -1.6244  0.8659 -2.9767
 5523TIP3   OH238203   5.654   2.249   1.152 -0.8542  0.4848  0.5296
 5523TIP3    H138204   5.564   2.218   1.154 -0.4822 -0.6700 -0.2386
 5523TIP3    H238205   5.692   2.218   1.235 -1.0028  0.4946  0.6013
 5524TIP3   OH238206   6.348   4.608   1.005  0.3488  0.2323 -1.1933
 5524TIP3    H138207   6.272   4.554   0.984 -0.2737  0.0784  1.1945
 5524TIP3    H238208   6.315   4.676   1.064  2.0911 -0.1003  0.2820
 5525TIP3   OH238209   3.690   1.138   1.297  0.5919  0.2629 -0.2161
 5525TIP3    H138210   3.684   1.061   1.353  0.1366  0.1302 -0.4410
 5525TIP3    H238211   3.599   1.169   1.289  0.7763  0.8450 -0.0917
 5526TIP3   OH238212   1.599   6.251   0.567  0.3243  0.2531  0.7115
 5526TIP3    H138213   1.675   6.279   0.516 -0.1686  0.8286  0.2759
 5526TIP3    H238214   1.541   6.327   0.567 -2.0178 -1.2994 -2.2713
 5527TIP3   OH238215   4.970   0.620   7.373  0.1809  0.2422 -0.1216
 5527TIP3    H138216   4.959   0.653   7.284 -1.2444 -1.0045 -0.4482
 5527TIP3    H238217   4.957   0.526   7.366  0.8134  0.0225  1.2956
 5528TIP3   OH238218   0.907   5.547   7.270 -0.6171 -0.1813  0.3729
 5528TIP3    H138219   0.874   5.634   7.247  0.1679  0.1162  0.3325
 5528TIP3    H238220   0.904   5.498   7.188  0.6394  0.3757 -0.0312
 5529TIP3   OH238221   4.976   1.401   0.976 -0.4918  0.0326  0.2676
 5529TIP3    H138222   4.943   1.315   1.001  0.8772 -0.3259  0.9001
 5529TIP3    H238223   4.926   1.462   1.032  0.6396 -0.5841  2.0261
 5530TIP3   OH238224   6.805   3.006   7.778  0.1807 -0.2125 -0.1378
 5530TIP3    H138225   6.872   3.039   7.837  1.2462 -0.2700 -1.2728
 5530TIP3    H238226   6.841   2.924   7.744 -0.0297  0.2293 -1.4872
 5531TIP3   OH238227   4.784   6.582   0.695  0.4521  0.1340  0.1793
 5531TIP3    H138228   4.856   6.520   0.698  1.7809  1.6242  0.8158
 5531TIP3    H238229   4.768   6.606   0.787 -1.5110 -0.8473  0.1420
 5532TIP3   OH238230   1.696   3.855   0.169  0.2173 -0.2071  0.4507
 5532TIP3    H138231   1.706   3.926   0.106 -0.3231 -2.4490 -2.4063
 5532TIP3    H238232   1.784   3.820   0.180  0.5038  0.9020  1.9534
 5533TIP3   OH238233   0.771   4.361   8.047 -0.3594  0.5971  0.2275
 5533TIP3    H138234   0.689   4.376   8.000 -0.6918 -0.0382  0.5913
 5533TIP3    H238235   0.816   4.446   8.045 -0.7122  0.7681 -0.5642
 5534TIP3   OH238236   1.296   3.631   7.745  0.3389  0.2185 -0.3035
 5534TIP3    H138237   1.262   3.588   7.823  0.0243  0.1194 -0.4940
 5534TIP3    H238238   1.390   3.643   7.763  0.2514  0.2715  0.1195
 5535TIP3   OH238239   0.658   6.234   0.756 -0.0308  0.2162 -0.1126
 5535TIP3    H138240   0.653   6.138   0.757  1.2413  0.0931  2.3609
 5535TIP3    H238241   0.733   6.253   0.701  0.0461 -0.2266 -0.1696
 5536TIP3   OH238242   4.287   3.694   8.286  0.0988 -0.1770 -0.7246
 5536TIP3    H138243   4.235   3.767   8.319 -0.3032 -0.5958 -0.4163
 5536TIP3    H238244   4.224   3.624   8.270  0.6112 -0.8646  0.1336
 5537TIP3   OH238245   0.760   0.118   7.613 -0.1482  0.0109 -0.3450
 5537TIP3    H138246   0.762   0.201   7.659 -2.3673 -0.1580  0.1781
 5537TIP3    H238247   0.790   0.138   7.525 -0.3679  1.2981 -0.1364
 5538TIP3   OH238248   2.657   3.500   1.437 -0.3431  0.0730 -0.1490
 5538TIP3    H138249   2.686   3.581   1.480 -0.4179 -0.1099  0.2467
 5538TIP3    H238250   2.663   3.433   1.505 -3.0023  0.2695  0.3586
 5539TIP3   OH238251   5.949   4.931   8.552  0.2588 -0.7456  0.6968
 5539TIP3    H138252   6.014   5.000   8.539  0.4231 -0.8310  1.0411
 5539TIP3    H238253   5.878   4.973   8.599 -0.9810 -0.0737 -1.6200
 5540TIP3   OH238254   1.241   3.057   1.446  0.0872 -0.0762 -0.1314
 5540TIP3    H138255   1.256   3.026   1.535 -0.2941 -0.8141 -0.3103
 5540TIP3    H238256   1.325   3.094   1.418  0.5355 -0.8458  0.1513
 5541TIP3   OH238257   3.828   1.472   0.204  0.3265  0.0986 -0.2110
 5541TIP3    H138258   3.756   1.532   0.188  0.7298  0.8419  0.5992
 5541TIP3    H238259   3.883   1.478   0.126  0.4073  0.8770 -0.1053
 5542TIP3   OH238260   2.231   1.591   8.477 -0.3143 -0.4290  0.6361
 5542TIP3    H138261   2.224   1.593   8.381  0.3926  0.4126  0.5839
 5542TIP3    H238262   2.229   1.498   8.499  1.2378 -0.7509 -0.3596
 5543TIP3   OH238263   1.397   6.318   7.709  0.2309  0.5588  0.1396
 5543TIP3    H138264   1.351   6.272   7.639  1.7642  0.0612 -0.5888
 5543TIP3    H238265   1.350   6.400   7.719 -0.9447 -0.0259 -0.4016
 5544TIP3   OH238266   3.576   0.387   2.082  0.2377  0.3177  0.0806
 5544TIP3    H138267   3.629   0.466   2.081  0.0739  0.4388  0.6668
 5544TIP3    H238268   3.592   0.346   1.996 -0.7181  1.6734 -0.7885
 5545TIP3   OH238269   3.011   0.954   0.834  0.0478 -0.2513  0.0546
 5545TIP3    H138270   3.088   0.978   0.782 -0.3677 -0.3974 -0.6464
 5545TIP3    H238271   3.012   1.014   0.908 -0.6275  1.5595 -1.3248
 5546TIP3   OH238272   4.849   1.778   8.094 -0.0455  0.2131 -0.1122
 5546TIP3    H138273   4.864   1.722   8.018 -0.5613  1.1539 -0.9381
 5546TIP3    H238274   4.775   1.738   8.139 -0.7600  0.4921 -0.9921
 5547TIP3   OH238275   0.310   2.339   6.584 -0.0560  0.0637 -0.0769
 5547TIP3    H138276   0.394   2.370   6.620 -0.7684  0.1766  1.5775
 5547TIP3    H238277   0.284   2.407   6.521  0.8756  0.2360 -0.2938
 5548TIP3   OH238278   6.697   3.231   2.632  0.0978 -0.3931 -0.3673
 5548TIP3    H138279   6.674   3.283   2.709  1.0525  0.4471 -0.6279
 5548TIP3    H238280   6.615   3.191   2.605 -0.3111 -0.4764  0.9143
 5549TIP3   OH238281   1.568   3.364   7.651  0.0803 -0.5742  0.0359
 5549TIP3    H138282   1.631   3.435   7.662  0.5816 -0.6701 -1.8098
 5549TIP3    H238283   1.578   3.337   7.559  1.0435 -4.0840  0.9922
 5550TIP3   OH238284   2.452   5.193   8.197 -0.0088 -0.5207  0.1431
 5550TIP3    H138285   2.470   5.106   8.160  3.8023  0.5914 -1.0565
 5550TIP3    H238286   2.489   5.190   8.285  0.5819  0.0214 -0.0850
 5551TIP3   OH238287   0.388   6.771   7.777 -0.1830  0.4331  0.2001
 5551TIP3    H138288   0.349   6.709   7.715 -0.4512 -1.0495  1.7864
 5551TIP3    H238289   0.324   6.779   7.847  0.2247  1.8712  0.4422
 5552TIP3   OH238290   6.037   3.605   7.799 -0.2113  0.4455  0.0289
 5552TIP3    H138291   5.963   3.576   7.745  0.1749 -0.0783 -0.2260
 5552TIP3    H238292   5.996   3.638   7.879 -0.7565  0.6966 -0.3413
 5553TIP3   OH238293   1.320   1.463   0.566 -0.2320 -0.5536  0.3109
 5553TIP3    H138294   1.250   1.512   0.608  0.4515  0.2541  0.5355
 5553TIP3    H238295   1.275   1.401   0.508 -1.1344  1.3572 -1.1515
 5554TIP3   OH238296   5.128   5.975   8.118 -0.3167  0.5381 -0.4875
 5554TIP3    H138297   5.127   5.947   8.027  0.6627  1.6191 -0.8561
 5554TIP3    H238298   5.205   5.933   8.155 -1.3255 -0.7998  0.1686
 5555TIP3   OH238299   1.504   0.477   1.505 -0.1091  0.0237  0.5969
 5555TIP3    H138300   1.431   0.538   1.514 -1.3727 -1.4370  0.5921
 5555TIP3    H238301   1.539   0.493   1.418 -1.7535 -0.6572 -0.2196
 5556TIP3   OH238302   2.707   1.606   1.879 -0.6222  0.2764  0.2850
 5556TIP3    H138303   2.751   1.571   1.801 -1.0961  0.2300  0.0366
 5556TIP3    H238304   2.617   1.574   1.872 -1.2281  2.0010 -0.2592
 5557TIP3   OH238305   6.138   1.045   7.742 -0.3550  0.3074 -0.0730
 5557TIP3    H138306   6.065   1.094   7.703 -0.0217  1.6591  0.9280
 5557TIP3    H238307   6.137   1.071   7.834  0.7204 -0.5045  0.1733
 5558TIP3   OH238308   0.148   2.169   0.604  0.1612  0.1239  0.3540
 5558TIP3    H138309   0.194   2.107   0.548  0.1707 -0.5311  1.0708
 5558TIP3    H238310   0.169   2.255   0.567 -0.4175 -0.3269 -1.0702
 5559TIP3   OH238311   5.026   4.043   1.893  0.5517 -0.3055 -0.3206
 5559TIP3    H138312   5.050   3.974   1.953  0.1367  0.1422  0.3778
 5559TIP3    H238313   5.027   4.123   1.946 -2.3968 -0.2371 -0.1855
 5560TIP3   OH238314   4.431   5.945   7.545 -0.2669  0.5482 -0.0705
 5560TIP3    H138315   4.364   5.980   7.487  0.4284  1.1941 -0.5076
 5560TIP3    H238316   4.473   5.876   7.495  0.4854  1.2581 -0.4450
 5561TIP3   OH238317   0.476   4.203   2.952 -0.3248  0.2034 -0.4568
 5561TIP3    H138318   0.485   4.147   2.875 -1.7681  1.0158 -1.2671
 5561TIP3    H238319   0.410   4.161   3.006  0.2257 -0.0330  0.0449
 5562TIP3   OH238320   5.908   3.647   8.293 -0.0281 -0.3475 -0.0538
 5562TIP3    H138321   5.883   3.563   8.331 -0.7122  0.3343  1.0427
 5562TIP3    H238322   5.998   3.662   8.322  1.3239 -2.1559 -2.8733
 5563TIP3   OH238323   2.548   3.237   2.970 -0.2944  0.0078 -0.5667
 5563TIP3    H138324   2.477   3.173   2.978 -1.2359  0.6679 -2.8928
 5563TIP3    H238325   2.617   3.203   3.027 -2.9853  0.1769  3.2213
 5564TIP3   OH238326   3.738   3.612   0.581 -0.3974 -0.3854  0.1478
 5564TIP3    H138327   3.783   3.529   0.598 -1.2391 -0.4596  2.1765
 5564TIP3    H238328   3.691   3.596   0.499  2.6425 -0.5098 -1.7523
 5565TIP3   OH238329   5.529   0.471   1.772  0.2782  0.3205 -0.5498
 5565TIP3    H138330   5.508   0.548   1.720 -0.0266  0.3000 -0.4588
 5565TIP3    H238331   5.609   0.495   1.819  0.2987  0.5054 -0.6780
 5566TIP3   OH238332   4.903   5.315   6.917  0.3272 -0.3208  0.6636
 5566TIP3    H138333   4.867   5.391   6.962  0.8568 -1.5752  3.4161
 5566TIP3    H238334   4.867   5.240   6.964 -1.1699 -1.9199 -2.7348
 5567TIP3   OH238335   0.122   6.658   1.054  0.6809  0.0707 -0.2438
 5567TIP3    H138336   0.158   6.574   1.025 -0.6039 -0.9259  0.8896
 5567TIP3    H238337   0.028   6.651   1.038  0.4441  0.9498  0.6498
 5568TIP3   OH238338   6.690   3.182   6.517 -0.0444 -0.0391  0.9282
 5568TIP3    H138339   6.771   3.231   6.503 -0.7381  0.8063 -0.2936
 5568TIP3    H238340   6.640   3.235   6.579 -1.1284  1.2682 -0.9849
 5569TIP3   OH238341   0.676   4.990   7.076  0.3398 -0.5317  0.1166
 5569TIP3    H138342   0.662   5.005   6.982  1.2300 -0.8290 -0.0768
 5569TIP3    H238343   0.686   4.895   7.083  3.4284 -0.3226  0.0040
 5570TIP3   OH238344   6.625   4.695   0.543 -0.1906 -0.1078 -0.3434
 5570TIP3    H138345   6.537   4.664   0.565 -0.6299  1.3399  0.0449
 5570TIP3    H238346   6.611   4.762   0.476  0.7102 -0.5639 -1.0185
 5571TIP3   OH238347   5.008   4.725   7.210 -0.5283 -0.2133 -0.0236
 5571TIP3    H138348   5.094   4.684   7.224  0.4998  2.1172  0.9732
 5571TIP3    H238349   4.948   4.651   7.200  0.9300 -2.0646  3.1522
 5572TIP3   OH238350   1.255   1.853   1.472 -0.0880 -0.1245 -0.2064
 5572TIP3    H138351   1.166   1.841   1.506  0.4857  0.6925  1.7237
 5572TIP3    H238352   1.243   1.864   1.377 -2.2767  2.0393  0.2022
 5573TIP3   OH238353   0.718   3.547   1.474 -0.1678  0.7297  0.0002
 5573TIP3    H138354   0.699   3.611   1.542  0.8681 -1.3374  2.4031
 5573TIP3    H238355   0.752   3.471   1.521 -0.6399 -1.3495 -2.7332
 5574TIP3   OH238356   2.472   3.286   8.851  0.4617 -0.0291 -0.3333
 5574TIP3    H138357   2.565   3.288   8.876  0.4908 -1.6474 -0.1673
 5574TIP3    H238358   2.473   3.270   8.756  0.3428  1.0211 -0.5192
 5575TIP3   OH238359   6.426   3.094   6.539 -0.3558  0.2921  0.0553
 5575TIP3    H138360   6.435   3.033   6.612 -0.5051 -1.5999 -1.4393
 5575TIP3    H238361   6.516   3.120   6.518 -0.3275  0.9889  1.0058
 5576TIP3   OH238362   6.033   0.075   1.464  0.1577 -0.6996  0.5242
 5576TIP3    H138363   6.038   0.023   1.544 -1.1825 -1.5009  0.1238
 5576TIP3    H238364   5.950   0.123   1.472 -0.1914 -1.0823 -0.5222
 5577TIP3   OH238365   0.640   5.625   7.387 -0.3360  0.0754 -0.4126
 5577TIP3    H138366   0.558   5.673   7.392 -1.0383 -0.8850 -1.9457
 5577TIP3    H238367   0.614   5.533   7.389  0.8993 -0.2845  1.4797
 5578TIP3   OH238368   6.469   1.668   7.902  0.0067  0.3997 -0.2765
 5578TIP3    H138369   6.507   1.593   7.949  0.4037 -0.2596 -1.6064
 5578TIP3    H238370   6.385   1.636   7.870 -0.6402  1.1116  0.6392
 5579TIP3   OH238371   4.938   2.615   0.622 -0.0653  0.1278 -0.1076
 5579TIP3    H138372   5.000   2.556   0.579 -0.2429 -1.2649  1.4210
 5579TIP3    H238373   4.989   2.658   0.690 -0.5178 -0.2602  0.4884
 5580TIP3   OH238374   4.954   4.153   1.407  0.1527 -0.1016  0.5176
 5580TIP3    H138375   5.043   4.186   1.393  0.9466 -2.0993  0.4701
 5580TIP3    H238376   4.928   4.191   1.491  1.1227  0.3655  0.6308
 5581TIP3   OH238377   0.150   2.179   1.509  0.0790 -0.2673 -0.1255
 5581TIP3    H138378   0.107   2.122   1.573  0.3910 -0.1494  0.1953
 5581TIP3    H238379   0.084   2.195   1.442 -0.6513  0.6080  0.7877
 5582TIP3   OH238380   3.279   1.694   8.801 -0.5515 -0.2037  0.3404
 5582TIP3    H138381   3.187   1.711   8.782 -1.0029 -1.8669  0.8309
 5582TIP3    H238382   3.316   1.779   8.824 -1.9714  0.4804  0.1507
 5583TIP3   OH238383   3.865   5.973   2.595 -0.3760  0.3244 -0.0078
 5583TIP3    H138384   3.821   5.889   2.582 -0.7742  0.5944 -0.3764
 5583TIP3    H238385   3.949   5.949   2.635 -0.0078 -0.3463 -1.1317
 5584TIP3   OH238386   0.155   5.183   0.837  0.3237 -0.4302  0.0578
 5584TIP3    H138387   0.196   5.263   0.871 -0.6802 -1.1703  3.4114
 5584TIP3    H238388   0.223   5.141   0.786  1.2369  1.9900 -0.8457
 5585TIP3   OH238389   2.881   5.057   2.606 -0.1631 -0.1474  0.6802
 5585TIP3    H138390   2.912   5.146   2.594 -2.4063  0.4879 -1.1216
 5585TIP3    H238391   2.933   5.005   2.545 -1.9485  0.7758 -1.7801
 5586TIP3   OH238392   4.787   4.457   1.442 -0.0985 -0.6058 -0.1789
 5586TIP3    H138393   4.809   4.547   1.467  1.0226 -0.2766 -2.1317
 5586TIP3    H238394   4.790   4.408   1.524  3.2067  0.4141  0.4555
 5587TIP3   OH238395   3.575   1.501   0.934 -0.3528  0.1918  0.1235
 5587TIP3    H138396   3.562   1.543   1.019 -0.7708  0.7286 -0.1987
 5587TIP3    H238397   3.666   1.472   0.935 -0.9411 -1.8779  1.6633
 5588TIP3   OH238398   3.232   2.973   8.015  0.1309  0.5556  0.4418
 5588TIP3    H138399   3.148   3.004   8.050 -0.5585  0.4088 -0.9869
 5588TIP3    H238400   3.298   3.016   8.068 -0.8226  2.6432  0.0209
 5589TIP3   OH238401   6.328   2.535   1.619  0.4959  1.0057 -0.1024
 5589TIP3    H138402   6.243   2.499   1.647  1.2693 -0.1531  0.8354
 5589TIP3    H238403   6.323   2.535   1.523 -1.2830  2.7704 -0.0767
 5590TIP3   OH238404   2.623   2.421   2.915  0.0436 -0.4238  0.0508
 5590TIP3    H138405   2.621   2.480   2.990 -0.0402 -2.4662  1.7521
 5590TIP3    H238406   2.715   2.420   2.887  0.8611 -2.2384  2.4275
 5591TIP3   OH238407   6.338   6.648   8.608  1.0602 -0.6128  0.0200
 5591TIP3    H138408   6.277   6.586   8.568  0.2847  0.0909  0.0854
 5591TIP3    H238409   6.416   6.596   8.629  0.9940 -1.2552 -1.2597
 5592TIP3   OH238410   2.681   4.653   1.836  0.5000  0.5226  0.1515
 5592TIP3    H138411   2.700   4.560   1.832  1.9301  0.7519  1.0813
 5592TIP3    H238412   2.613   4.667   1.769 -0.9438 -1.4454  1.1145
 5593TIP3   OH238413   2.784   3.166   2.303  0.1670  0.5815 -0.1692
 5593TIP3    H138414   2.795   3.088   2.357 -2.6740  1.0268  1.2148
 5593TIP3    H238415   2.845   3.230   2.341  1.0598 -0.3101 -0.0609
 5594TIP3   OH238416   5.198   2.894   7.588 -0.2136 -0.4485 -0.1849
 5594TIP3    H138417   5.133   2.828   7.566  0.4872 -1.3721  0.4760
 5594TIP3    H238418   5.272   2.875   7.530 -0.4867  0.5715 -0.9054
 5595TIP3   OH238419   0.149   2.340   0.195  0.2980 -0.1201  0.3099
 5595TIP3    H138420   0.153   2.248   0.221  0.6184 -0.3878 -0.6488
 5595TIP3    H238421   0.120   2.386   0.274 -1.4579 -1.2320  0.3716
 5596TIP3   OH238422   6.230   2.828   0.990  0.1968  0.0540  0.8490
 5596TIP3    H138423   6.172   2.775   0.936  0.2843  0.7572  0.0556
 5596TIP3    H238424   6.296   2.766   1.023  0.3604 -0.3136 -0.1511
 5597TIP3   OH238425   1.503   4.562   1.088 -0.5942  0.7322  0.2034
 5597TIP3    H138426   1.589   4.595   1.060  0.4639  0.1344  2.4823
 5597TIP3    H238427   1.442   4.592   1.020  1.3995  1.1803 -1.4903
 5598TIP3   OH238428   5.236   0.302   8.554 -0.4738  0.2940  0.3507
 5598TIP3    H138429   5.224   0.334   8.644 -0.7605  0.6389  0.1923
 5598TIP3    H238430   5.184   0.362   8.500 -0.4330 -0.0090 -0.0294
 5599TIP3   OH238431   6.336   6.427   2.584 -0.1656  0.2713  0.1943
 5599TIP3    H138432   6.282   6.410   2.507 -0.5474  1.4581  0.1713
 5599TIP3    H238433   6.277   6.411   2.658 -0.3699  0.9516  0.1846
 5600TIP3   OH238434   2.974   6.692   1.338  0.1917  0.8121  0.7948
 5600TIP3    H138435   2.976   6.733   1.425  1.0382  0.5781  0.8952
 5600TIP3    H238436   2.948   6.602   1.355 -0.6351  1.0199  0.6866
 5601TIP3   OH238437   3.791   2.871   2.513 -0.6505  0.1872  0.0898
 5601TIP3    H138438   3.713   2.912   2.475 -0.1698  2.1417  1.1045
 5601TIP3    H238439   3.786   2.891   2.606 -0.1783 -1.8224  0.5996
 5602TIP3   OH238440   1.120   0.920   2.399 -0.2335  0.1116 -0.1124
 5602TIP3    H138441   1.146   0.828   2.405  0.4233  0.1899 -1.3422
 5602TIP3    H238442   1.095   0.944   2.488 -0.5541 -1.2943  0.2026
 5603TIP3   OH238443   4.488   5.538   0.849 -0.3623 -0.0714 -0.1712
 5603TIP3    H138444   4.553   5.567   0.784 -2.5375  1.7565 -1.6817
 5603TIP3    H238445   4.510   5.585   0.928  1.7405 -1.5793  0.2352
 5604TIP3   OH238446   5.227   0.723   7.473 -0.3287 -0.2835  0.2359
 5604TIP3    H138447   5.270   0.648   7.432 -1.1836 -0.0331 -1.1863
 5604TIP3    H238448   5.145   0.733   7.424 -0.1503  1.7024  0.2547
 5605TIP3   OH238449   3.180   6.567   1.621  0.2104 -0.4628  0.3636
 5605TIP3    H138450   3.085   6.556   1.620  0.2317 -1.2238 -2.7553
 5605TIP3    H238451   3.214   6.480   1.603  1.3750  0.2767 -1.1513
 5606TIP3   OH238452   2.077   1.269   2.464  0.3125 -0.3218 -0.4504
 5606TIP3    H138453   1.987   1.244   2.486  0.4631 -0.4188  0.0520
 5606TIP3    H238454   2.112   1.306   2.545  0.9404 -0.8952 -0.4575
 5607TIP3   OH238455   1.129   4.586   1.378  0.0208 -0.6227  0.1088
 5607TIP3    H138456   1.169   4.628   1.302 -0.8623  0.7991  0.3872
 5607TIP3    H238457   1.197   4.590   1.446 -0.7038  2.4288  0.8012
 5608TIP3   OH238458   5.830   2.529   1.066  0.2928  0.7373 -0.0109
 5608TIP3    H138459   5.791   2.490   0.987  0.2346  1.9096 -0.5869
 5608TIP3    H238460   5.771   2.505   1.137  2.0889 -3.3304  0.4062
 5609TIP3   OH238461   2.622   2.626   2.334  0.2210 -0.2722  0.3918
 5609TIP3    H138462   2.535   2.584   2.332  0.6258 -1.1603  1.0014
 5609TIP3    H238463   2.644   2.631   2.427  1.4190 -1.3219  0.1845
 5610TIP3   OH238464   6.520   0.338   0.268  0.3441 -0.1815 -0.2406
 5610TIP3    H138465   6.601   0.305   0.228 -0.5760 -2.1453 -0.6359
 5610TIP3    H238466   6.488   0.264   0.319 -0.9480  0.7365  0.3204
 5611TIP3   OH238467   4.420   4.683   8.745  0.2978 -0.3399  0.0502
 5611TIP3    H138468   4.420   4.591   8.771  1.1726 -0.0253  1.2490
 5611TIP3    H238469   4.370   4.727   8.814  2.0257  0.4054  0.8992
 5612TIP3   OH238470   0.518   2.248   0.479  0.2958 -0.2635  0.4347
 5612TIP3    H138471   0.559   2.325   0.517 -0.5595 -0.3963  1.6924
 5612TIP3    H238472   0.590   2.187   0.463  0.9749  0.7574 -0.5498
 5613TIP3   OH238473   0.378   5.707   7.500 -0.1653 -0.5398  0.6131
 5613TIP3    H138474   0.343   5.619   7.512  0.0459 -0.5677  1.0341
 5613TIP3    H238475   0.408   5.733   7.587 -2.3675  0.8750  1.0298
 5614TIP3   OH238476   4.028   0.299   8.175 -0.2991  0.4539 -0.4783
 5614TIP3    H138477   3.991   0.261   8.096 -1.1157 -0.0792  0.1354
 5614TIP3    H238478   3.955   0.299   8.238  0.7730 -0.8365  0.8470
 5615TIP3   OH238479   6.417   3.494   7.918  0.0754 -0.6735  0.4114
 5615TIP3    H138480   6.337   3.537   7.951  0.2880  0.4910 -0.5304
 5615TIP3    H238481   6.483   3.563   7.921  1.0823 -1.6389  1.2119
 5616TIP3   OH238482   1.503   6.076   7.356 -0.7442  0.0168 -0.7704
 5616TIP3    H138483   1.569   6.031   7.304 -0.4143 -0.3818 -0.0235
 5616TIP3    H238484   1.523   6.052   7.446 -1.1771  0.8575 -0.4363
 5617TIP3   OH238485   0.662   3.521   7.564 -0.4039  0.0855  0.3151
 5617TIP3    H138486   0.631   3.443   7.609  1.5329 -1.5552 -1.0252
 5617TIP3    H238487   0.695   3.577   7.634  0.4755 -1.4141  1.1640
 5618TIP3   OH238488   4.469   0.192   1.784  0.0854  0.2939  0.0212
 5618TIP3    H138489   4.495   0.284   1.793  3.7297 -0.4897 -0.8667
 5618TIP3    H238490   4.483   0.155   1.871 -0.9667  0.4386  0.2679
 5619TIP3   OH238491   2.409   1.033   8.429  0.0205 -0.6698  0.1630
 5619TIP3    H138492   2.364   1.060   8.509 -0.1308 -1.2441  0.2717
 5619TIP3    H238493   2.492   0.996   8.460  0.5319  0.2574 -0.0258
 5620TIP3   OH238494   1.803   2.123   2.618  0.4375 -0.6296 -0.3098
 5620TIP3    H138495   1.863   2.155   2.550  0.8293  0.8499  0.6839
 5620TIP3    H238496   1.765   2.202   2.656 -0.6417 -1.4686  0.4405
 5621TIP3   OH238497   3.187   6.274   1.578  0.2028  0.7649 -0.1093
 5621TIP3    H138498   3.104   6.228   1.564  0.5737  0.0101  0.0665
 5621TIP3    H238499   3.208   6.257   1.670  1.2866 -0.3444 -0.5328
 5622TIP3   OH238500   2.856   1.589   1.587 -0.3855 -0.0925  0.0122
 5622TIP3    H138501   2.824   1.671   1.626 -0.6908 -1.2841  2.4769
 5622TIP3    H238502   2.948   1.607   1.565  0.3029  0.2529  2.8252
 5623TIP3   OH238503   0.193   0.539   8.449  0.0219  0.5189  0.5529
 5623TIP3    H138504   0.246   0.459   8.453 -0.7282 -0.0135  0.2190
 5623TIP3    H238505   0.221   0.582   8.368  0.5293  0.6671  0.8071
 5624TIP3   OH238506   1.665   1.129   3.172 -0.5841  0.3077 -0.7599
 5624TIP3    H138507   1.617   1.131   3.089  2.0286  1.5971 -2.3663
 5624TIP3    H238508   1.715   1.048   3.170 -3.9952 -2.1823  1.9047
 5625TIP3   OH238509   5.538   6.242   6.887 -0.2846  0.3685 -0.2778
 5625TIP3    H138510   5.598   6.311   6.858  1.2561  0.0199  1.7985
 5625TIP3    H238511   5.592   6.162   6.887 -0.8259 -0.0309  1.2878
 5626TIP3   OH238512   1.360   4.145   0.868 -0.4964 -0.2322  0.0451
 5626TIP3    H138513   1.322   4.059   0.850 -0.6222 -0.3483  0.8604
 5626TIP3    H238514   1.370   4.148   0.963  0.4895  0.2407 -0.0609
 5627TIP3   OH238515   5.882   3.540   1.266  0.7274  0.7684  0.3690
 5627TIP3    H138516   5.969   3.551   1.305  0.6293  0.8698  0.5604
 5627TIP3    H238517   5.882   3.597   1.189  1.6837 -1.0471 -1.0508
 5628TIP3   OH238518   2.290   0.598   2.808  0.1805  0.1088  0.1488
 5628TIP3    H138519   2.293   0.693   2.794 -0.0774  0.2778  1.1406
 5628TIP3    H238520   2.375   0.566   2.776  0.7718  0.8469  0.9279
 5629TIP3   OH238521   0.329   5.257   0.339 -0.1326 -0.3492  0.2075
 5629TIP3    H138522   0.407   5.275   0.286 -1.1149  0.8745 -0.9005
 5629TIP3    H238523   0.362   5.249   0.429  1.8418 -4.1624 -0.6344
 5630TIP3   OH238524   5.622   3.827   2.114 -0.8734 -0.1245 -0.3583
 5630TIP3    H138525   5.594   3.846   2.204 -2.2999  1.2004 -1.0237
 5630TIP3    H238526   5.541   3.808   2.068  0.0044 -2.4792 -1.0369
 5631TIP3   OH238527   5.096   1.483   2.254  0.0362  0.2075 -0.4073
 5631TIP3    H138528   5.188   1.507   2.264  0.2239 -0.2858 -0.8797
 5631TIP3    H238529   5.071   1.449   2.340  0.3031  0.3086 -0.2873
 5632TIP3   OH238530   6.061   3.948   8.727  0.0351  0.1255 -0.2624
 5632TIP3    H138531   6.079   3.952   8.821 -2.4740  0.6372  0.2830
 5632TIP3    H238532   6.035   4.038   8.705 -0.2956 -0.2031 -1.2284
 5633TIP3   OH238533   2.919   5.428   1.432 -0.0791  0.1078 -0.0056
 5633TIP3    H138534   2.952   5.517   1.420 -1.0369  0.4345 -0.3043
 5633TIP3    H238535   2.960   5.397   1.513  1.1620  0.3891 -0.5161
 5634TIP3   OH238536   2.269   4.061   8.656  0.3464 -0.2540  0.0228
 5634TIP3    H138537   2.352   4.106   8.669  2.2695 -3.5172  0.1980
 5634TIP3    H238538   2.241   4.088   8.568  2.2254  0.0473 -0.5356
 5635TIP3   OH238539   2.436   1.559   1.861 -0.0090  0.2524  0.1521
 5635TIP3    H138540   2.428   1.470   1.825  0.7671  0.6510 -1.0626
 5635TIP3    H238541   2.375   1.611   1.809  0.4626  0.6569 -0.0093
 5636TIP3   OH238542   4.496   1.126   7.049  0.0013  0.3667  0.4439
 5636TIP3    H138543   4.516   1.165   6.964 -0.7639 -1.9588 -0.8877
 5636TIP3    H238544   4.580   1.092   7.080 -0.1158 -0.9636 -0.6050
 5637TIP3   OH238545   3.643   6.111   0.835  0.0010 -0.0524  0.0267
 5637TIP3    H138546   3.614   6.202   0.838 -1.3069 -0.3107 -2.2616
 5637TIP3    H238547   3.562   6.060   0.833  0.6404 -1.1009 -1.2149
 5638TIP3   OH238548   1.251   4.440   0.306 -0.3698 -1.1179 -0.0637
 5638TIP3    H138549   1.182   4.436   0.240  1.1245 -0.6941 -1.7383
 5638TIP3    H238550   1.264   4.533   0.322  2.2925 -0.9030 -2.6390
 5639TIP3   OH238551   4.835   5.945   1.174  0.4187  0.0599 -0.4925
 5639TIP3    H138552   4.812   6.036   1.193  0.2143  0.1733 -1.2594
 5639TIP3    H238553   4.823   5.899   1.258 -1.0457  0.4312 -0.4803
 5640TIP3   OH238554   0.983   5.280   1.626 -0.0835 -0.6386  0.2650
 5640TIP3    H138555   1.011   5.321   1.707  2.4988 -2.3014  0.3571
 5640TIP3    H238556   0.981   5.352   1.562 -0.7390  0.4359  1.4541
 5641TIP3   OH238557   4.416   6.818   0.425  0.2351 -0.8324  0.0522
 5641TIP3    H138558   4.434   6.781   0.512  1.4488 -1.4790 -0.4492
 5641TIP3    H238559   4.417   6.743   0.366  0.7075 -0.2553 -0.7021
 5642TIP3   OH238560   2.872   4.612   2.110  0.2928 -0.2559  0.2659
 5642TIP3    H138561   2.800   4.610   2.173  1.9495 -0.9823  2.2478
 5642TIP3    H238562   2.951   4.613   2.164  1.7929  0.3805 -1.8208
 5643TIP3   OH238563   1.521   1.400   8.163  0.1328  0.7348  0.0803
 5643TIP3    H138564   1.549   1.491   8.154 -0.7945  1.0091 -0.1561
 5643TIP3    H238565   1.472   1.381   8.083  1.0168 -0.2448 -0.2523
 5644TIP3   OH238566   3.483   5.607   2.103 -0.2797 -0.2565  0.2429
 5644TIP3    H138567   3.389   5.606   2.120 -0.2846  2.0080  0.6597
 5644TIP3    H238568   3.522   5.563   2.178 -1.0409 -3.1243 -0.9093
 5645TIP3   OH238569   0.756   0.647   7.223  0.2551  0.8840  0.1573
 5645TIP3    H138570   0.759   0.610   7.311 -0.7189 -0.7840 -0.4686
 5645TIP3    H238571   0.791   0.578   7.167 -1.0133  1.1316 -0.9856
 5646TIP3   OH238572   6.514   5.194   7.273  0.1889  0.2969 -0.7774
 5646TIP3    H138573   6.520   5.112   7.223  0.5478 -0.4736  0.4801
 5646TIP3    H238574   6.455   5.173   7.345  1.7995  0.5093  0.6763
 5647TIP3   OH238575   1.856   1.428   8.537 -0.0787 -0.2877  0.7547
 5647TIP3    H138576   1.899   1.401   8.617  0.0110 -1.2339  0.4024
 5647TIP3    H238577   1.829   1.519   8.553  1.0642 -0.0473  1.3676
 5648TIP3   OH238578   4.347   4.862   0.103  0.1233 -0.3494  0.2913
 5648TIP3    H138579   4.365   4.828   0.190  0.7444 -1.1292 -0.1193
 5648TIP3    H238580   4.305   4.946   0.117 -0.3807 -0.7621  1.3470
 5649TIP3   OH238581   1.336   2.616   2.569  0.7044 -0.6323 -0.2909
 5649TIP3    H138582   1.264   2.633   2.629  1.6163 -1.4817  1.1183
 5649TIP3    H238583   1.355   2.700   2.528  0.6309  0.1874  1.2950
 5650TIP3   OH238584   1.063   0.103   1.889  0.1788 -0.4150  0.4327
 5650TIP3    H138585   1.123   0.090   1.963 -0.0677  1.0251  0.9100
 5650TIP3    H238586   1.027   0.190   1.902 -0.0667 -0.2320 -1.2757
 5651TIP3   OH238587   0.347   3.964   0.793  0.1220  0.1148  0.1879
 5651TIP3    H138588   0.310   3.979   0.706  0.4198  1.4501  0.2698
 5651TIP3    H238589   0.438   3.991   0.785  0.2181  0.0037  0.8543
 5652TIP3   OH238590   2.375   1.189   8.211  0.0171  0.7043 -0.1685
 5652TIP3    H138591   2.367   1.118   8.274  0.9251  1.0144  0.3174
 5652TIP3    H238592   2.448   1.242   8.244  0.3244  1.0253 -1.3305
 5653TIP3   OH238593   4.464   1.706   8.617 -0.0644  0.2456  0.5616
 5653TIP3    H138594   4.434   1.762   8.546  0.7477 -1.2983 -1.0872
 5653TIP3    H238595   4.558   1.722   8.621  0.3301 -1.5567 -0.5279
 5654TIP3   OH238596   5.435   4.476   8.024 -0.2962  0.0403  0.7780
 5654TIP3    H138597   5.448   4.461   7.930 -0.2192  3.0038  0.2347
 5654TIP3    H238598   5.516   4.517   8.053 -1.3572  1.7436  1.4699
 5655TIP3   OH238599   3.290   2.066   1.827 -0.0395  0.4720  0.2842
 5655TIP3    H138600   3.232   2.117   1.770  1.0927  1.4753 -0.0202
 5655TIP3    H238601   3.243   2.061   1.910  0.5803  3.8550  1.0159
 5656TIP3   OH238602   0.765   2.087   7.018  0.6738 -0.6106 -0.3861
 5656TIP3    H138603   0.817   2.164   6.996 -1.1396  0.8557  0.2246
 5656TIP3    H238604   0.830   2.023   7.048  2.2531  0.5870 -1.0664
 5657TIP3   OH238605   6.387   5.423   7.510  0.0592  0.1291 -0.9238
 5657TIP3    H138606   6.305   5.389   7.544  0.7430 -0.3754  0.2594
 5657TIP3    H238607   6.441   5.345   7.494  0.8096  0.5115 -0.3430
 5658TIP3   OH238608   6.297   2.516   1.334 -0.1763  0.5873 -0.3830
 5658TIP3    H138609   6.217   2.568   1.346  0.0322  1.0169 -0.8104
 5658TIP3    H238610   6.343   2.560   1.263 -0.3461 -0.5988 -1.2593
 5659TIP3   OH238611   5.199   4.223   0.650  0.0100  0.0204 -0.5680
 5659TIP3    H138612   5.238   4.301   0.689 -1.8525  1.0223 -0.6228
 5659TIP3    H238613   5.170   4.251   0.563 -1.3228 -0.5195 -0.3199
 5660TIP3   OH238614   5.210   4.168   0.081  0.5733 -0.0902  0.0378
 5660TIP3    H138615   5.250   4.188  -0.004  1.7957 -2.8575 -0.1226
 5660TIP3    H238616   5.142   4.104   0.061  0.2588 -0.0859  1.0554
 5661TIP3   OH238617   4.636   1.573   0.148 -0.1713 -0.1026 -0.2809
 5661TIP3    H138618   4.629   1.480   0.129 -1.2671 -0.0313 -0.3335
 5661TIP3    H238619   4.642   1.578   0.243 -1.4005 -0.1928 -0.1792
 5662TIP3   OH238620   2.030   0.943   0.571  0.2871  0.4727  0.1004
 5662TIP3    H138621   1.943   0.957   0.533 -0.1032  1.1294  1.1986
 5662TIP3    H238622   2.041   0.848   0.571  0.6455  0.4398 -2.3630
 5663TIP3   OH238623   2.080   1.572   2.569 -0.5080  0.0616 -0.0335
 5663TIP3    H138624   2.137   1.519   2.626  0.4876 -0.8153 -1.7554
 5663TIP3    H238625   1.994   1.565   2.609 -0.1003 -1.6327  0.6443
 5664TIP3   OH238626   3.191   0.193   8.511 -0.2539 -0.2902 -0.0808
 5664TIP3    H138627   3.228   0.114   8.550 -1.0726 -0.1916  0.9377
 5664TIP3    H238628   3.196   0.178   8.417 -0.6067 -1.6558  0.1033
 5665TIP3   OH238629   0.676   0.085   8.843 -0.2232  0.0991 -0.1603
 5665TIP3    H138630   0.619   0.091   8.766 -2.4350 -0.3818  1.3549
 5665TIP3    H238631   0.743   0.151   8.827 -0.3414 -0.2799 -2.6833
 5666TIP3   OH238632   0.036   0.646   6.863 -0.4689  0.4656  0.3050
 5666TIP3    H138633   0.109   0.590   6.836  0.8836  2.1951  0.1899
 5666TIP3    H238634  -0.032   0.585   6.891  0.3657 -1.2556 -1.2179
 5667TIP3   OH238635   2.476   0.851   0.870 -0.4069  0.4367 -0.8978
 5667TIP3    H138636   2.553   0.907   0.871 -0.3198  0.3417  1.2124
 5667TIP3    H238637   2.506   0.767   0.905 -1.1086 -0.1299 -1.6185
 5668TIP3   OH238638   5.420   1.504   1.587  0.2489  0.0364  0.4962
 5668TIP3    H138639   5.400   1.446   1.660 -2.4741 -0.7415 -0.7148
 5668TIP3    H238640   5.433   1.445   1.513 -3.8432  0.7351 -1.0549
 5669TIP3   OH238641   6.253   2.436   2.383 -0.4418 -0.3263  0.8322
 5669TIP3    H138642   6.259   2.350   2.342  0.0880 -0.5543  1.3762
 5669TIP3    H238643   6.342   2.456   2.411 -0.4925  0.5664  0.3895
 5670TIP3   OH238644   1.731   0.573   8.175  0.4092  0.2837  0.3389
 5670TIP3    H138645   1.665   0.625   8.221  0.9979  0.0863  1.4335
 5670TIP3    H238646   1.783   0.637   8.126  1.0031  0.7395  1.5164
 5671TIP3   OH238647   0.744   2.807   8.293  0.3847 -0.1087  0.4907
 5671TIP3    H138648   0.797   2.808   8.373  0.3600  1.5113  0.5178
 5671TIP3    H238649   0.728   2.714   8.276  1.2371 -0.5223  1.8019
 5672TIP3   OH238650   2.298   4.895   1.077 -0.4982 -0.0927 -0.7304
 5672TIP3    H138651   2.305   4.930   0.988  0.3971 -0.1834 -0.7105
 5672TIP3    H238652   2.319   4.969   1.134  0.3550 -0.3731 -0.6551
 5673TIP3   OH238653   5.986   3.463   7.348 -0.2778  0.2291 -0.4410
 5673TIP3    H138654   5.921   3.405   7.309  1.4200 -1.6825 -0.5499
 5673TIP3    H238655   5.948   3.551   7.339 -1.8676 -0.5931 -2.4376
 5674TIP3   OH238656   2.503   1.865   7.584  0.4716 -0.3189  0.7376
 5674TIP3    H138657   2.458   1.780   7.586 -0.1806  0.0466  2.5951
 5674TIP3    H238658   2.456   1.920   7.646 -0.2464  2.0532 -1.7130
 5675TIP3   OH238659   5.572   6.001   2.450 -0.0096 -0.1523  0.3585
 5675TIP3    H138660   5.502   6.036   2.505  0.7819 -0.0225  1.3089
 5675TIP3    H238661   5.572   5.907   2.467  1.4408  0.1150  2.0443
 5676TIP3   OH238662   4.154   2.208   8.400  0.1175 -0.0998  0.1902
 5676TIP3    H138663   4.130   2.124   8.439 -0.3043 -0.6131 -1.1157
 5676TIP3    H238664   4.250   2.205   8.394  0.0044 -1.7960 -2.4937
 5677TIP3   OH238665   2.399   2.374   0.742  0.3909  0.4388 -0.2517
 5677TIP3    H138666   2.430   2.463   0.761  0.6045  0.6529 -1.5284
 5677TIP3    H238667   2.337   2.355   0.813 -0.2360  1.9033 -0.3704
 5678TIP3   OH238668   4.937   3.745   7.754  0.0638  0.0197 -0.0420
 5678TIP3    H138669   4.988   3.668   7.782  0.1710 -0.1864 -0.7894
 5678TIP3    H238670   4.896   3.718   7.672 -2.0115 -0.1359  0.9771
 5679TIP3   OH238671   2.883   1.816   0.838  0.2412 -0.3250 -0.5669
 5679TIP3    H138672   2.870   1.761   0.761  0.3688 -0.4481 -0.5023
 5679TIP3    H238673   2.961   1.867   0.818  0.0909 -0.1276 -0.6490
 5680TIP3   OH238674   3.385   0.030   8.301 -0.0604 -0.6250  0.5159
 5680TIP3    H138675   3.405  -0.052   8.347 -0.4774 -0.4673  0.9804
 5680TIP3    H238676   3.328   0.004   8.229 -2.1596 -0.4626  2.0497
 5681TIP3   OH238677   2.568   4.285   0.715  0.1129 -0.8433 -0.3984
 5681TIP3    H138678   2.540   4.210   0.663  1.4376 -0.0727 -2.3528
 5681TIP3    H238679   2.610   4.344   0.652  0.5130  0.8347  1.3248
 5682TIP3   OH238680   1.741   3.242   8.772 -0.1896  0.4979  0.2341
 5682TIP3    H138681   1.688   3.236   8.692  1.4846 -2.3374 -0.8003
 5682TIP3    H238682   1.677   3.241   8.843 -1.6696  1.8330 -0.9942
 5683TIP3   OH238683   6.486   1.462   2.742  0.2710  0.6833  0.0633
 5683TIP3    H138684   6.536   1.494   2.666  1.4056 -0.9491  0.0638
 5683TIP3    H238685   6.481   1.537   2.801 -1.6665  2.3726 -2.0742
 5684TIP3   OH238686   0.970   4.060   0.013 -0.1689 -0.2419  0.0591
 5684TIP3    H138687   0.888   4.097   0.046 -0.1939 -0.0574 -0.2093
 5684TIP3    H238688   1.034   4.079   0.083 -0.6970 -1.8705  1.0362
 5685TIP3   OH238689   4.156   0.885   0.749 -0.2086 -0.0904 -0.4812
 5685TIP3    H138690   4.072   0.861   0.787  0.0042  0.6007  0.4527
 5685TIP3    H238691   4.217   0.886   0.823  0.7109 -0.9176 -1.1896
 5686TIP3   OH238692   0.405   3.552   6.925  0.8180 -0.1043 -0.4145
 5686TIP3    H138693   0.323   3.503   6.937  0.9004 -0.3784 -0.9364
 5686TIP3    H238694   0.459   3.527   7.000 -0.6847  2.4478  1.6999
 5687TIP3   OH238695   0.873   2.885   2.478  0.3641  0.7254 -0.0213
 5687TIP3    H138696   0.811   2.815   2.499  1.1552 -0.7021 -2.0879
 5687TIP3    H238697   0.835   2.927   2.400  0.7226  1.5314  0.2336
 5688TIP3   OH238698   4.635   5.447   6.952  0.3102 -0.0372  0.0868
 5688TIP3    H138699   4.555   5.498   6.942  0.3868  0.1480  0.4090
 5688TIP3    H238700   4.657   5.420   6.862  0.5388  0.9201 -0.1581
 5689TIP3   OH238701   0.359   2.908   1.716  0.2252 -0.2640 -0.4344
 5689TIP3    H138702   0.400   2.847   1.778 -0.7702  1.0644  1.6743
 5689TIP3    H238703   0.412   2.988   1.724 -1.6810  0.9470  1.1410
 5690TIP3   OH238704   5.393   2.659   8.343 -0.3589 -0.3275 -0.5942
 5690TIP3    H138705   5.328   2.597   8.310 -0.6134 -0.0121 -0.6953
 5690TIP3    H238706   5.477   2.622   8.317 -0.2953 -2.1822  1.9168
 5691TIP3   OH238707   6.155   5.500   2.729  0.2406  0.0512  0.3754
 5691TIP3    H138708   6.091   5.530   2.793 -0.7438  0.5378 -0.8026
 5691TIP3    H238709   6.104   5.445   2.669  1.5446 -2.1911  1.1790
 5692TIP3   OH238710   1.528   1.564   8.468 -0.6880  0.3140  0.4016
 5692TIP3    H138711   1.509   1.605   8.552  0.7705  0.5279  0.6520
 5692TIP3    H238712   1.591   1.623   8.426 -0.3738 -0.4658 -0.2488
 5693TIP3   OH238713   4.665   6.367   0.560  0.3085 -0.0397 -0.0926
 5693TIP3    H138714   4.744   6.326   0.524  0.5559  0.9400 -0.7192
 5693TIP3    H238715   4.696   6.449   0.597 -0.4636  0.5364 -0.6849
 5694TIP3   OH238716   5.976   5.424   0.003 -0.0311  0.0444  0.1364
 5694TIP3    H138717   5.907   5.473  -0.041  1.0132  0.8968 -0.6327
 5694TIP3    H238718   5.991   5.471   0.085  1.3175  1.4062 -0.8245
 5695TIP3   OH238719   2.157   0.662   7.847  0.5053 -0.7173  0.6750
 5695TIP3    H138720   2.067   0.658   7.878  0.4834 -2.3846  0.4947
 5695TIP3    H238721   2.209   0.628   7.920  0.9800  0.0746  0.7173
 5696TIP3   OH238722   3.426   3.595   0.053  0.2704  0.0848  0.6432
 5696TIP3    H138723   3.356   3.648   0.092 -0.5382  0.1531 -0.8227
 5696TIP3    H238724   3.381   3.535  -0.006  1.3259 -1.1260  1.0273
 5697TIP3   OH238725   0.260   5.178   1.175 -0.1403 -0.1258  0.3757
 5697TIP3    H138726   0.302   5.173   1.261 -0.4163 -2.3775  0.4464
 5697TIP3    H238727   0.333   5.175   1.113 -0.0532 -1.5969  0.5228
 5698TIP3   OH238728   0.008   4.047   1.303 -0.2760  0.0481 -0.5800
 5698TIP3    H138729  -0.022   4.127   1.260  0.4498  0.8947  0.4322
 5698TIP3    H238730  -0.071   3.994   1.313 -0.8091  0.7374 -1.0327
 5699TIP3   OH238731   6.487   1.153   7.733  0.0572  0.1419 -0.1169
 5699TIP3    H138732   6.443   1.143   7.817  1.7025  1.5010  0.9695
 5699TIP3    H238733   6.569   1.198   7.754  1.2471 -0.8853 -2.2398
 5700TIP3   OH238734   1.832   1.218   8.140 -0.5426  0.3837 -0.4790
 5700TIP3    H138735   1.806   1.128   8.156 -0.8979  0.6558  0.5728
 5700TIP3    H238736   1.781   1.244   8.063  0.3430 -0.6167 -1.4346
 5701TIP3   OH238737   6.330   6.672   3.194 -0.1874  0.0670 -0.3861
 5701TIP3    H138738   6.309   6.595   3.247 -0.0086 -0.4920 -1.1118
 5701TIP3    H238739   6.285   6.744   3.238  2.1543  0.1319  2.1043
 5702TIP3   OH238740   4.260   1.475   7.866  0.7055 -0.4288  0.2893
 5702TIP3    H138741   4.211   1.393   7.870  2.1250 -1.2628  1.8114
 5702TIP3    H238742   4.244   1.508   7.778  0.0349 -2.3073 -0.3461
 5703TIP3   OH238743   6.720   4.102   8.688 -0.5064 -0.0376 -0.1453
 5703TIP3    H138744   6.706   4.193   8.660 -1.3815  0.2438  1.1281
 5703TIP3    H238745   6.815   4.096   8.704 -0.5986  1.0298  0.9486
 5704TIP3   OH238746   3.773   2.150   0.195 -0.2336 -1.0685  0.1836
 5704TIP3    H138747   3.763   2.195   0.279  4.6692 -0.0797  0.5639
 5704TIP3    H238748   3.829   2.075   0.215 -0.4735 -1.8733 -1.9406
 5705TIP3   OH238749   6.408   2.175   6.746 -0.3191  0.0966  0.5297
 5705TIP3    H138750   6.427   2.082   6.747  0.5835  0.2432 -0.6801
 5705TIP3    H238751   6.488   2.216   6.712 -0.7714  1.2868  0.8316
 5706TIP3   OH238752   5.967   0.358   7.684 -0.0812 -0.0583  0.3518
 5706TIP3    H138753   5.986   0.265   7.675 -0.2663 -0.0590 -0.0845
 5706TIP3    H238754   5.881   0.361   7.726  0.5698 -0.0606  1.7527
 5707TIP3   OH238755   2.730   5.989   8.369 -0.5238  0.1511 -0.2241
 5707TIP3    H138756   2.766   5.964   8.454 -1.7915 -0.9042  0.0422
 5707TIP3    H238757   2.709   6.082   8.378  2.4349  0.9263 -0.5409
 5708TIP3   OH238758   4.126   3.408   1.069 -0.7589 -0.3385 -0.8097
 5708TIP3    H138759   4.193   3.344   1.093 -1.2101  0.0110  1.7514
 5708TIP3    H238760   4.173   3.491   1.065 -0.8292 -0.2453  0.0073
 5709TIP3   OH238761   1.850   0.557   0.096  0.9479  0.0459  0.0503
 5709TIP3    H138762   1.873   0.478   0.047 -0.8211 -1.5678  1.6307
 5709TIP3    H238763   1.901   0.551   0.177  0.8850  0.6024  0.1360
 5710TIP3   OH238764   6.340   4.807   1.434  0.6657 -0.6895 -0.4828
 5710TIP3    H138765   6.407   4.838   1.495  2.0714 -2.4334 -1.0874
 5710TIP3    H238766   6.364   4.846   1.350 -1.7186  2.3685  0.0748
 5711TIP3   OH238767   0.378   5.172   6.899  0.1288  0.3941  0.2532
 5711TIP3    H138768   0.350   5.081   6.904  0.5001  0.1063 -1.8737
 5711TIP3    H238769   0.390   5.199   6.990 -1.3356 -1.2324  0.9904
 5712TIP3   OH238770   3.413   4.454   1.617 -0.5313  0.3207 -0.4854
 5712TIP3    H138771   3.424   4.443   1.522  2.5273 -3.2721  0.0295
 5712TIP3    H238772   3.439   4.544   1.634 -1.5059  1.1742 -3.0504
 5713TIP3   OH238773   3.490   6.054   1.534  0.5242 -0.2269 -0.1736
 5713TIP3    H138774   3.479   6.141   1.572  1.0977 -0.2635  0.0900
 5713TIP3    H238775   3.482   5.994   1.608  2.8800 -0.2274  0.1532
 5714TIP3   OH238776   4.891   6.833   1.475 -0.6939  0.0172  0.1402
 5714TIP3    H138777   4.907   6.810   1.566  1.0430 -1.1913 -0.3999
 5714TIP3    H238778   4.885   6.928   1.474  2.1079  0.2903  1.1875
 5715TIP3   OH238779   0.427   0.359   7.581  0.2413 -0.6808  0.0471
 5715TIP3    H138780   0.456   0.291   7.642  0.4594 -0.1727  0.5214
 5715TIP3    H238781   0.498   0.422   7.580 -0.4235  0.0998  0.4771
 5716TIP3   OH238782   3.961   1.792   0.258  0.2670 -0.4186  0.7448
 5716TIP3    H138783   3.983   1.701   0.278  0.3317 -0.7164 -0.5809
 5716TIP3    H238784   4.036   1.842   0.290 -0.2330 -0.7016  2.4315
 5717TIP3   OH238785   0.525   3.867   0.527  0.6185 -0.1502  0.5286
 5717TIP3    H138786   0.582   3.902   0.595  1.7013  0.8544 -0.8260
 5717TIP3    H238787   0.468   3.941   0.504 -0.1289 -0.6543  0.7240
 5718TIP3   OH238788   0.920   5.903   0.540  0.0865  0.0140 -0.6566
 5718TIP3    H138789   1.008   5.919   0.504  0.3301 -0.1149 -0.1300
 5718TIP3    H238790   0.862   5.909   0.465  0.7003 -1.2735 -1.2684
 5719TIP3   OH238791   2.292   6.424   8.285 -0.1785 -0.5486 -0.7306
 5719TIP3    H138792   2.220   6.468   8.332  0.3510 -0.0828 -0.3439
 5719TIP3    H238793   2.271   6.331   8.293 -0.3816 -0.4518 -0.0197
 5720TIP3   OH238794   5.187   2.877   0.116  0.0612 -0.1353  0.2407
 5720TIP3    H138795   5.163   2.849   0.204 -0.9288 -1.5259 -0.4299
 5720TIP3    H238796   5.275   2.842   0.102 -0.1941 -0.8192  0.3093
 5721TIP3   OH238797   3.198   4.142   7.695 -0.1085  0.4444 -0.3868
 5721TIP3    H138798   3.133   4.159   7.763 -0.2863  0.9418 -0.6767
 5721TIP3    H238799   3.266   4.208   7.709 -0.5544  1.1007 -1.2010
 5722TIP3   OH238800   0.791   3.363   1.959 -0.5833 -0.3417 -0.3458
 5722TIP3    H138801   0.760   3.453   1.972 -1.5586 -0.5707 -0.9192
 5722TIP3    H238802   0.886   3.369   1.966 -0.6253  0.7612 -0.4950
 5723TIP3   OH238803   4.108   3.499   8.319 -0.5401 -0.0696 -0.0526
 5723TIP3    H138804   4.096   3.425   8.259 -0.2574 -1.7856  1.8935
 5723TIP3    H238805   4.045   3.483   8.390 -1.0491  2.0328  0.0399
 5724TIP3   OH238806   1.474   1.686   1.127 -0.2396 -0.5232 -0.5764
 5724TIP3    H138807   1.525   1.607   1.110 -0.5081 -0.9524  0.5304
 5724TIP3    H238808   1.389   1.669   1.087 -0.2318 -0.7111 -0.5110
 5725TIP3   OH238809   6.143   4.974   0.628  0.3754 -0.5843 -0.8636
 5725TIP3    H138810   6.216   4.943   0.682 -0.0055  0.2960  0.1917
 5725TIP3    H238811   6.185   5.020   0.555  0.8854 -0.2844 -0.3897
 5726TIP3   OH238812   4.773   1.630   8.623  0.1330 -0.0882  0.1929
 5726TIP3    H138813   4.839   1.640   8.692 -0.7771 -0.5226  1.1515
 5726TIP3    H238814   4.816   1.662   8.544  0.7706  1.7080  1.2068
 5727TIP3   OH238815   6.659   5.406   7.164 -0.1714 -0.1110  0.0243
 5727TIP3    H138816   6.739   5.359   7.139  0.3534 -0.0994  1.5972
 5727TIP3    H238817   6.605   5.339   7.206 -1.1884 -0.2105 -1.3695
 5728TIP3   OH238818   5.831   6.189   2.018  0.3591  0.3666 -0.0772
 5728TIP3    H138819   5.881   6.178   2.099 -0.4854 -0.6962  0.3331
 5728TIP3    H238820   5.892   6.230   1.957  1.7503 -0.9025  0.3831
 5729TIP3   OH238821   0.379   6.338   0.809  0.6060 -0.4510 -0.0191
 5729TIP3    H138822   0.390   6.420   0.856 -0.7684  0.3765 -1.0661
 5729TIP3    H238823   0.441   6.343   0.737 -0.0615  0.0746 -0.5725
 5730TIP3   OH238824   1.119   5.423   8.492  0.6370  0.0808  0.0659
 5730TIP3    H138825   1.128   5.515   8.470  0.2994  0.5620  1.7450
 5730TIP3    H238826   1.054   5.422   8.563  0.9811 -1.3886  0.3918
 5731TIP3   OH238827   5.265   4.133   7.342  0.4367  0.5742 -0.0416
 5731TIP3    H138828   5.359   4.144   7.329  0.7483 -0.9122  0.7272
 5731TIP3    H238829   5.258   4.061   7.405 -1.2401 -0.6647 -1.5303
 5732TIP3   OH238830   6.369   1.764   1.610  0.0043 -0.0077  0.6453
 5732TIP3    H138831   6.360   1.850   1.651 -0.9122  0.2992 -0.1508
 5732TIP3    H238832   6.426   1.778   1.535 -1.0631  0.1711 -0.1571
 5733TIP3   OH238833   2.145   0.227   1.657  0.0200  0.2983 -0.3619
 5733TIP3    H138834   2.130   0.310   1.702  2.3790  0.1433  0.8475
 5733TIP3    H238835   2.105   0.162   1.714 -2.4538  0.5462 -1.6474
 5734TIP3   OH238836   2.636   3.907   8.601 -0.0293  0.0942  0.2550
 5734TIP3    H138837   2.623   3.893   8.695 -1.0258 -0.6327  0.0269
 5734TIP3    H238838   2.676   3.993   8.595  3.2719 -1.1642  1.5663
 5735TIP3   OH238839   5.029   3.636   0.306 -0.2588  0.6589  0.1841
 5735TIP3    H138840   5.104   3.596   0.349  2.0491 -0.2014 -4.0829
 5735TIP3    H238841   4.962   3.568   0.307  0.7354 -0.3443  0.0019
 5736TIP3   OH238842   0.418   0.441   2.873 -0.0202  0.1860 -0.3252
 5736TIP3    H138843   0.356   0.392   2.818  1.3914  1.8628 -3.6814
 5736TIP3    H238844   0.504   0.421   2.836  1.4175 -0.7505  3.1555
 5737TIP3   OH238845   0.781   6.559   0.763 -0.4953  0.3118 -0.5645
 5737TIP3    H138846   0.687   6.553   0.745 -0.2748  1.3656 -2.2450
 5737TIP3    H238847   0.791   6.641   0.811 -0.5998 -0.6036  1.0923
 5738TIP3   OH238848   3.681   1.055   8.806  0.6675 -0.1435 -0.6079
 5738TIP3    H138849   3.642   1.137   8.834  2.7232  0.9491 -0.7250
 5738TIP3    H238850   3.704   1.010   8.888 -0.8675 -0.8569 -0.5371
 5739TIP3   OH238851   0.869   0.130   2.586 -0.4028 -0.2243 -0.2165
 5739TIP3    H138852   0.962   0.109   2.582 -0.2232  0.6842 -1.2359
 5739TIP3    H238853   0.866   0.225   2.600 -1.1824 -0.2914  0.1408
 5740TIP3   OH238854   2.718   4.955   8.627  0.4443  0.4302  0.1736
 5740TIP3    H138855   2.793   5.009   8.605  1.5312  0.0377  2.5786
 5740TIP3    H238856   2.700   4.974   8.719  1.6381 -3.9549  1.5878
 5741TIP3   OH238857   4.045   3.697   2.173 -0.3420 -0.7148 -0.1661
 5741TIP3    H138858   4.054   3.792   2.163 -0.2938 -0.7811 -0.8002
 5741TIP3    H238859   3.960   3.685   2.216 -0.0766 -0.3596  0.4679
 5742TIP3   OH238860   4.133   1.962   8.517  0.6530  0.4156  0.6512
 5742TIP3    H138861   4.104   1.916   8.596  1.0066  2.0749  1.7972
 5742TIP3    H238862   4.184   1.896   8.469  0.5561 -0.5951  1.8733
 5743TIP3   OH238863   4.982   3.259   1.616 -0.2444  0.2542  0.0940
 5743TIP3    H138864   5.039   3.205   1.669  0.2356 -0.8428 -1.4737
 5743TIP3    H238865   4.893   3.239   1.647  0.0465  0.0080  0.7795
 5744TIP3   OH238866   0.311   4.510   1.619  0.1912 -0.3430  0.4658
 5744TIP3    H138867   0.339   4.442   1.680  0.8167  0.1901  0.7846
 5744TIP3    H238868   0.392   4.557   1.597 -0.3289  0.7535  0.8259
 5745TIP3   OH238869   1.260   2.544   8.022  0.1898 -0.2380 -0.7113
 5745TIP3    H138870   1.299   2.590   8.096 -1.5003 -1.3575  0.9609
 5745TIP3    H238871   1.316   2.467   8.010  0.6590  0.1171 -0.8109
 5746TIP3   OH238872   0.393   4.544   6.639 -0.3167 -0.6946  0.0971
 5746TIP3    H138873   0.346   4.612   6.591 -0.9388 -1.1288  0.0700
 5746TIP3    H238874   0.472   4.527   6.587  0.6317  1.0639  0.8929
 5747TIP3   OH238875   3.839   1.546   1.255  0.3564  0.3391  0.0372
 5747TIP3    H138876   3.877   1.583   1.175 -1.0294  1.5348 -0.1153
 5747TIP3    H238877   3.903   1.481   1.284  1.9762  1.5066 -0.7620
 5748TIP3   OH238878   6.293   2.751   2.331  0.4765 -0.6632  0.3205
 5748TIP3    H138879   6.334   2.675   2.373 -0.6627 -0.3602  2.0990
 5748TIP3    H238880   6.314   2.824   2.390 -0.4321 -0.0365 -0.1204
 5749TIP3   OH238881   2.838   4.324   7.728  0.6391 -0.0335  0.0277
 5749TIP3    H138882   2.819   4.290   7.641 -0.6682 -0.0448  0.3073
 5749TIP3    H238883   2.860   4.417   7.713 -0.1606  0.1166 -0.2565
 5750TIP3   OH238884   4.783   0.064   8.311  0.1257 -0.0349 -0.0725
 5750TIP3    H138885   4.785   0.001   8.239  0.5416  1.6605 -1.6364
 5750TIP3    H238886   4.873   0.099   8.313  0.3043 -0.5398  1.7509
 5751TIP3   OH238887   5.960   2.976   1.715  0.5291  0.1184  0.3594
 5751TIP3    H138888   5.938   2.940   1.801 -0.0088  0.0369  0.1956
 5751TIP3    H238889   6.054   2.965   1.707  0.6220  0.3664  1.0473
 5752TIP3   OH238890   5.889   4.435   0.172 -0.4850  0.3823  0.2960
 5752TIP3    H138891   5.955   4.427   0.104  1.5977  0.5402  2.1752
 5752TIP3    H238892   5.881   4.347   0.208  0.2177  0.7244  1.3535
 5753TIP3   OH238893   1.260   4.620   7.601 -0.0960 -0.1116  0.0784
 5753TIP3    H138894   1.184   4.643   7.548  0.3556  2.0797  0.2847
 5753TIP3    H238895   1.240   4.653   7.688  1.2009  0.8467  0.0481
 5754TIP3   OH238896   0.126   4.409   6.577 -0.7340 -0.1139 -0.4997
 5754TIP3    H138897   0.174   4.326   6.584 -0.0979  0.2071 -0.9911
 5754TIP3    H238898   0.193   4.474   6.554 -0.8477  0.9507  1.9406
 5755TIP3   OH238899   2.973   5.369   8.620 -0.0022  0.3095 -0.3077
 5755TIP3    H138900   3.015   5.437   8.568  1.2743 -0.4045 -0.2399
 5755TIP3    H238901   2.936   5.415   8.694  0.1579  1.0348 -0.6714
 5756TIP3   OH238902   0.207   6.306   7.672 -0.5106 -0.4155 -0.0034
 5756TIP3    H138903   0.133   6.302   7.732  0.0721 -0.2087  0.7553
 5756TIP3    H238904   0.181   6.252   7.598 -0.6810 -1.9197  1.0880
 5757TIP3   OH238905   1.783   6.214   1.145  0.0500  0.0469  0.6005
 5757TIP3    H138906   1.765   6.265   1.066 -0.5999 -1.1919 -0.0705
 5757TIP3    H238907   1.704   6.221   1.197 -0.2504 -0.6962  0.2596
 5758TIP3   OH238908   5.905   5.353   2.687  0.1095 -0.4034  0.2696
 5758TIP3    H138909   5.815   5.345   2.655  0.0776 -0.9959  0.4982
 5758TIP3    H238910   5.926   5.267   2.724  0.4964 -0.0463  0.9187
 5759TIP3   OH238911   2.955   0.292   7.104 -0.1336  0.1602  0.2250
 5759TIP3    H138912   3.005   0.293   7.022  0.7640 -0.5724  0.7420
 5759TIP3    H238913   2.957   0.201   7.132  1.9846  0.7681  2.4510
 5760TIP3   OH238914   0.291   3.773   1.839 -0.6388  1.0505  0.2475
 5760TIP3    H138915   0.350   3.736   1.904  0.0385  0.8192 -0.4744
 5760TIP3    H238916   0.324   3.862   1.824 -1.1886  1.3304  0.6962
 5761TIP3   OH238917   3.761   3.973   7.168 -0.4383  0.1420  0.1547
 5761TIP3    H138918   3.687   4.011   7.216 -0.7692  0.1226 -0.3319
 5761TIP3    H238919   3.767   4.026   7.089 -1.8574 -1.7141 -1.2757
 5762TIP3   OH238920   1.264   1.847   0.385  0.5157 -0.0546 -0.5909
 5762TIP3    H138921   1.188   1.903   0.404  0.0106 -1.0688  0.5575
 5762TIP3    H238922   1.308   1.838   0.470  0.9984 -0.7912 -0.9117
 5763TIP3   OH238923   1.729   2.698   6.959 -0.3885 -0.0732  1.3369
 5763TIP3    H138924   1.659   2.649   7.002 -0.6957  0.2120  1.1720
 5763TIP3    H238925   1.810   2.655   6.987 -0.7010 -1.4337  0.2495
 5764TIP3   OH238926   6.021   2.253   8.655 -0.5016  0.5367 -0.2206
 5764TIP3    H138927   6.089   2.274   8.719 -0.9796 -0.8038  0.7707
 5764TIP3    H238928   6.046   2.302   8.577  1.1177  0.7631  0.4021
 5765TIP3   OH238929   4.697   3.278   8.483  0.5275 -0.4005 -0.7321
 5765TIP3    H138930   4.707   3.276   8.388 -3.2266 -0.3163 -1.3102
 5765TIP3    H238931   4.742   3.358   8.510  0.4391  0.3632 -2.6692
 5766TIP3   OH238932   0.806   1.342   1.481 -0.3390  0.6672 -0.4248
 5766TIP3    H138933   0.841   1.430   1.490 -1.3914  0.9567  1.4397
 5766TIP3    H238934   0.881   1.284   1.495  0.3285  1.2518 -1.5145
 5767TIP3   OH238935   1.927   6.150   8.241 -0.1977 -0.1798 -0.0177
 5767TIP3    H138936   2.011   6.190   8.262 -0.0582 -0.4898  0.0140
 5767TIP3    H238937   1.948   6.060   8.219 -0.2424  0.2889 -2.2269
 5768TIP3   OH238938   3.892   2.256   0.849 -0.6228 -0.2034  0.0621
 5768TIP3    H138939   3.911   2.178   0.902  0.3372  0.0488  0.1075
 5768TIP3    H238940   3.961   2.258   0.783 -0.3369  0.8714  0.3660
 5769TIP3   OH238941   4.293   1.793   8.342  0.4323  0.2962 -0.4078
 5769TIP3    H138942   4.357   1.864   8.333  0.2881  0.3249 -1.3115
 5769TIP3    H238943   4.339   1.715   8.312  0.2113  0.2270 -0.5720
 5770TIP3   OH238944   0.733   6.252   7.361 -0.7940  0.0797  0.4910
 5770TIP3    H138945   0.744   6.335   7.315 -2.0293  1.1942  2.0982
 5770TIP3    H238946   0.664   6.206   7.314  0.6881 -0.6241 -1.1093
 5771TIP3   OH238947   5.480   0.492   1.326 -0.1604  0.0966 -0.4465
 5771TIP3    H138948   5.453   0.402   1.344  2.2482 -0.7365 -0.6243
 5771TIP3    H238949   5.489   0.532   1.413 -1.8411  0.4177 -0.3822
 5772TIP3   OH238950   0.320   4.460   8.762 -0.0166  0.1237 -0.1684
 5772TIP3    H138951   0.394   4.417   8.719 -1.4077 -0.5269 -2.0934
 5772TIP3    H238952   0.277   4.509   8.691 -1.1755  0.8087  0.9725
 5773TIP3   OH238953   5.400   1.501   1.114  0.1825  0.3985 -0.5924
 5773TIP3    H138954   5.403   1.545   1.029 -0.9940  2.3998  0.3355
 5773TIP3    H238955   5.448   1.560   1.173 -0.9835  0.1952  0.6008
 5774TIP3   OH238956   3.065   3.159   8.118  0.0632 -0.0598 -0.2251
 5774TIP3    H138957   3.157   3.185   8.110  0.0900 -0.1773 -0.3035
 5774TIP3    H238958   3.062   3.106   8.197  0.3988 -1.5026 -1.1356
 5775TIP3   OH238959   5.064   5.012   8.839  0.2722 -0.4807  0.3489
 5775TIP3    H138960   5.014   5.004   8.920 -1.7422  1.6386 -0.5817
 5775TIP3    H238961   5.097   5.101   8.840 -1.1819  0.1677 -1.8314
 5776TIP3   OH238962   2.609   4.440   7.979  0.0452 -0.5782  0.0479
 5776TIP3    H138963   2.554   4.367   8.007 -0.9443  0.0271 -0.2202
 5776TIP3    H238964   2.629   4.488   8.059 -0.5326 -0.3428  0.0600
 5777TIP3   OH238965   6.815   1.428   1.688 -0.1712  0.3402  0.3208
 5777TIP3    H138966   6.839   1.520   1.691  2.4621 -0.2591  3.0033
 5777TIP3    H238967   6.727   1.425   1.726  0.4296  1.6311  1.9275
 5778TIP3   OH238968   3.775   3.631   2.229 -0.1044  0.2093  0.3541
 5778TIP3    H138969   3.691   3.654   2.190 -0.4562 -0.8417  0.4854
 5778TIP3    H238970   3.766   3.657   2.321 -0.1914  0.3215  0.3148
 5779TIP3   OH238971   3.496   0.745   8.440 -0.1346  0.5259  0.7874
 5779TIP3    H138972   3.510   0.793   8.522 -0.3652 -0.6296  1.5404
 5779TIP3    H238973   3.453   0.663   8.468  0.9016 -0.4431 -0.3510
 5780TIP3   OH238974   2.167   0.213   7.730  0.4171 -0.1636  0.1013
 5780TIP3    H138975   2.124   0.128   7.728 -0.7016  0.3970 -0.3903
 5780TIP3    H238976   2.259   0.194   7.710  0.2666 -1.2864  0.4005
 5781TIP3   OH238977   5.834   1.945   8.721 -0.4963  0.3846 -0.4472
 5781TIP3    H138978   5.923   1.964   8.753 -0.0680 -1.0630 -0.6917
 5781TIP3    H238979   5.826   1.999   8.642 -0.2969  1.4240  0.2141
 5782TIP3   OH238980   0.339   4.112   1.130 -0.0981  0.0567  0.2259
 5782TIP3    H138981   0.331   4.038   1.191  0.9758  0.6703  1.1497
 5782TIP3    H238982   0.262   4.166   1.148  0.1372  0.1603  0.9479
 5783TIP3   OH238983   3.792   0.371   1.266 -0.5966 -0.0336 -0.2449
 5783TIP3    H138984   3.739   0.448   1.243  1.4832  1.4300 -0.4846
 5783TIP3    H238985   3.732   0.313   1.312 -2.8059  0.7518 -1.9166
 5784TIP3   OH238986   4.708   2.170   0.988 -0.8105  0.4438  0.5965
 5784TIP3    H138987   4.793   2.159   0.945 -0.2340 -1.6762  2.0574
 5784TIP3    H238988   4.730   2.197   1.077 -1.8075  1.7963  0.4621
 5785TIP3   OH238989   6.166   5.076   0.999 -0.3371 -0.3432  0.0450
 5785TIP3    H138990   6.157   5.069   1.094  0.6858 -0.5861  0.1387
 5785TIP3    H238991   6.203   5.163   0.985 -0.0097 -0.4996 -0.0831
 5786TIP3   OH238992   5.081   2.716   0.836 -0.1325  0.4448 -0.2249
 5786TIP3    H138993   5.148   2.764   0.885  0.3855  0.9466 -1.3689
 5786TIP3    H238994   5.072   2.633   0.881  0.0359  1.0356  0.9338
 5787TIP3   OH238995   3.393   6.462   2.010  0.1380  0.3012  0.4383
 5787TIP3    H138996   3.416   6.440   2.101  0.5002 -1.8175 -0.1077
 5787TIP3    H238997   3.457   6.528   1.985 -1.1428  2.3715  2.2859
 5788TIP3   OH238998   6.166   4.954   1.259  0.1080  0.0324  0.0649
 5788TIP3    H138999   6.254   4.983   1.235 -0.2018  2.3677  1.4560
 5788TIP3    H239000   6.168   4.949   1.355 -1.6177  1.5096  0.2270
 5789TIP3   OH239001   2.270   0.784   1.300  0.1971  0.1417  0.0293
 5789TIP3    H139002   2.261   0.797   1.206  1.7094  0.5419 -0.0927
 5789TIP3    H239003   2.300   0.869   1.333  1.7215 -0.5686  0.5498
 5790TIP3   OH239004   1.379   2.726   8.239 -0.5613 -0.1473 -0.1750
 5790TIP3    H139005   1.464   2.687   8.217 -1.2003 -1.9152  0.3138
 5790TIP3    H239006   1.367   2.796   8.174  1.9564  1.2457  0.7278
 5791TIP3   OH239007   2.702   1.337   0.001  0.1088  0.1007  0.2248
 5791TIP3    H139008   2.682   1.245   0.017  0.8183 -0.4045 -1.6157
 5791TIP3    H239009   2.783   1.353   0.049  0.8987 -0.7146 -0.8110
 5792TIP3   OH239010   2.378   5.574   7.130 -0.5498  0.6240  0.5225
 5792TIP3    H139011   2.397   5.646   7.069 -1.2789  1.2425  0.9932
 5792TIP3    H239012   2.462   5.533   7.146 -0.1465  1.2513  0.0811
 5793TIP3   OH239013   5.956   2.613   8.084  0.4435  0.1820  0.3703
 5793TIP3    H139014   5.884   2.666   8.050 -0.7869 -0.0338  2.4620
 5793TIP3    H239015   5.936   2.523   8.056  0.2527  0.2172  0.3948
 5794TIP3   OH239016   4.539   3.346   0.976  0.0458  0.1819 -0.0630
 5794TIP3    H139017   4.621   3.348   0.927 -0.3374 -0.5230 -0.7409
 5794TIP3    H239018   4.471   3.355   0.910 -0.5142 -1.6129  0.2206
 5795TIP3   OH239019   5.588   3.517   8.646 -0.3236 -0.4185 -0.1464
 5795TIP3    H139020   5.544   3.568   8.579  2.0616  1.3454 -0.4958
 5795TIP3    H239021   5.518   3.489   8.705 -1.7811  4.2981  0.7676
 5796TIP3   OH239022   4.665   2.485   8.103  0.1230 -0.2142  0.2024
 5796TIP3    H139023   4.599   2.518   8.042  2.7256  1.0910 -2.1986
 5796TIP3    H239024   4.733   2.552   8.102  2.5577 -2.5055  0.5852
 5797TIP3   OH239025   2.062   6.189   8.525 -0.7042  0.1660 -0.1776
 5797TIP3    H139026   2.146   6.167   8.484 -0.6174  1.0350 -0.4792
 5797TIP3    H239027   2.031   6.105   8.560 -0.0607 -0.3081 -0.6938
 5798TIP3   OH239028   6.106   5.402   7.881  0.0042 -0.0379 -0.1462
 5798TIP3    H139029   6.067   5.488   7.867 -0.5780 -0.1706  0.5946
 5798TIP3    H239030   6.143   5.405   7.969 -1.9801 -1.2389  0.7897
 5799TIP3   OH239031   3.885   3.814   0.715 -0.1128 -0.2008  0.2466
 5799TIP3    H139032   3.911   3.870   0.642  3.0436 -1.2720  0.4254
 5799TIP3    H239033   3.832   3.745   0.674 -1.3173  1.0709 -0.4315
 5800TIP3   OH239034   2.349   4.745   8.476  0.5923  0.3032 -0.1377
 5800TIP3    H139035   2.306   4.807   8.535  0.6572  0.9563 -0.7563
 5800TIP3    H239036   2.282   4.681   8.455  0.1709  0.8182 -0.3910
 5801TIP3   OH239037   0.339   3.095   2.127  0.4800  0.2328 -0.7686
 5801TIP3    H139038   0.417   3.149   2.144  0.5170 -0.0763  0.0676
 5801TIP3    H239039   0.374   3.009   2.105  0.3814  0.1232 -0.5019
 5802TIP3   OH239040   1.508   0.135   0.893 -0.2586  0.0504  0.1567
 5802TIP3    H139041   1.578   0.196   0.915 -1.7247  1.5179  0.9821
 5802TIP3    H239042   1.519   0.063   0.955 -0.2581  0.8946  1.1565
 5803TIP3   OH239043   1.458   1.101   1.035 -0.0345 -0.2998  0.2216
 5803TIP3    H139044   1.384   1.043   1.053 -0.1605 -0.0376  0.5734
 5803TIP3    H239045   1.497   1.067   0.955 -0.2575 -0.7177  0.2884
 5804TIP3   OH239046   2.486   0.885   2.356  0.4994  0.3063 -0.3432
 5804TIP3    H139047   2.524   0.798   2.346 -0.3422  0.1665 -3.1052
 5804TIP3    H239048   2.495   0.905   2.449  3.1524 -1.5754 -0.0949
 5805TIP3   OH239049   1.261   5.345   8.141  0.3242 -0.1561  0.2672
 5805TIP3    H139050   1.238   5.433   8.172 -0.1448 -0.0698 -0.2988
 5805TIP3    H239051   1.239   5.287   8.214 -1.7235 -0.0781 -0.2148
 5806TIP3   OH239052   6.158   5.823   7.876 -0.1472  0.6036 -0.2676
 5806TIP3    H139053   6.170   5.790   7.965 -0.8873 -0.3781 -0.5270
 5806TIP3    H239054   6.083   5.776   7.842  1.3384 -0.5680 -2.1457
 5807TIP3   OH239055   0.935   3.894   7.742  0.3652 -0.1323  0.0646
 5807TIP3    H139056   1.014   3.864   7.698 -0.2073  0.5038 -1.4316
 5807TIP3    H239057   0.882   3.815   7.753 -0.1459 -0.0756 -1.7883
 5808TIP3   OH239058   2.892   6.307   7.782 -0.0684 -0.2843 -0.0284
 5808TIP3    H139059   2.807   6.290   7.824  0.1358  0.5027  0.7361
 5808TIP3    H239060   2.881   6.393   7.742  0.2954 -0.2806 -0.1159
 5809TIP3   OH239061   4.479   3.387   8.185 -0.8984 -0.5837 -0.1071
 5809TIP3    H139062   4.547   3.321   8.198  0.0845  0.4096 -0.0046
 5809TIP3    H239063   4.400   3.348   8.221 -0.2818 -1.5888  0.2067
 5810TIP3   OH239064   6.482   0.114   0.465  0.1383 -0.4230 -0.0222
 5810TIP3    H139065   6.508   0.039   0.410  2.0116  0.0682  0.1297
 5810TIP3    H239066   6.559   0.133   0.518 -0.6426  1.0093  0.6623
 5811TIP3   OH239067   0.621   0.428   8.447 -0.0021  0.4354  0.6930
 5811TIP3    H139068   0.644   0.516   8.419 -0.8988  0.7572  0.9413
 5811TIP3    H239069   0.688   0.372   8.407  0.3669  1.1866  0.2393
 5812TIP3   OH239070   5.493   3.440   0.307  0.4795 -0.3196 -0.0635
 5812TIP3    H139071   5.584   3.465   0.324  0.1500  1.0114 -0.1858
 5812TIP3    H239072   5.488   3.431   0.212  0.6931 -1.2743  0.0077
 5813TIP3   OH239073   0.218   0.453   7.731 -0.8557 -0.7096  0.3198
 5813TIP3    H139074   0.247   0.541   7.755 -1.0455 -0.5419 -0.0726
 5813TIP3    H239075   0.274   0.428   7.658 -1.5432 -0.4762 -0.2891
 5814TIP3   OH239076   5.537   5.463   1.009 -0.1794  0.2825  0.5004
 5814TIP3    H139077   5.541   5.496   0.919 -0.2159  0.5411  0.5910
 5814TIP3    H239078   5.583   5.380   1.006  1.1932  1.0148  0.5561
 5815TIP3   OH239079   1.996   5.767   6.768  0.3649  0.2620  0.1985
 5815TIP3    H139080   2.040   5.698   6.718  0.5058 -0.1321  0.8568
 5815TIP3    H239081   2.038   5.764   6.855 -1.3074 -0.4671  1.0239
 5816TIP3   OH239082   3.194   5.929   7.598 -0.3799  0.2935 -0.0749
 5816TIP3    H139083   3.216   5.994   7.664 -0.9343  1.3680 -0.9188
 5816TIP3    H239084   3.278   5.906   7.558 -0.2147  0.7379  0.0099
 5817TIP3   OH239085   2.036   4.327   2.460 -0.3954 -0.0649 -0.4365
 5817TIP3    H139086   1.950   4.305   2.495 -0.7773 -1.9289 -2.3949
 5817TIP3    H239087   2.067   4.398   2.517 -3.9590  1.9650 -0.7664
 5818TIP3   OH239088   1.988   4.621   7.348  0.1150 -0.4443  0.1238
 5818TIP3    H139089   1.901   4.620   7.389 -0.3485  0.7539 -0.7544
 5818TIP3    H239090   2.039   4.556   7.397 -1.3520 -1.3680  0.4855
 5819TIP3   OH239091   1.357   2.739   1.074 -0.2648 -0.2836 -0.3241
 5819TIP3    H139092   1.369   2.732   1.169  0.1385 -0.2883 -0.3726
 5819TIP3    H239093   1.431   2.791   1.044  0.8841 -2.1652 -0.9082
 5820TIP3   OH239094   3.024   4.523   8.787 -0.6013  0.8164 -0.4421
 5820TIP3    H139095   3.018   4.502   8.880  1.4466 -0.8426 -0.5857
 5820TIP3    H239096   3.079   4.601   8.783  1.6816 -0.6799 -0.2714
 5821TIP3   OH239097   6.137   4.146   8.173 -0.1134  0.3620 -0.1374
 5821TIP3    H139098   6.138   4.082   8.102  0.1973 -0.8241  0.8941
 5821TIP3    H239099   6.057   4.196   8.160 -2.1470 -2.4103  0.8598
 5822TIP3   OH239100   4.090   4.991   1.310 -0.4457  0.3057 -0.3854
 5822TIP3    H139101   4.095   5.085   1.295 -0.1675  0.2958 -0.3667
 5822TIP3    H239102   4.146   4.976   1.386 -0.7504  0.1684 -0.1906
 5823TIP3   OH239103   1.520   1.842   2.147 -0.9769  0.1561  0.0226
 5823TIP3    H139104   1.539   1.752   2.176  2.6621  0.0719 -1.9924
 5823TIP3    H239105   1.570   1.897   2.207 -0.2416  0.5419 -0.9270
 5824TIP3   OH239106   5.940   4.748   1.549 -0.5527 -0.1839  0.2596
 5824TIP3    H139107   5.903   4.700   1.475 -0.2771  1.4263 -0.9724
 5824TIP3    H239108   5.897   4.834   1.546  2.0962  1.2062 -0.2933
 5825TIP3   OH239109   6.798   2.913   0.662 -0.7629  0.1677  0.7262
 5825TIP3    H139110   6.808   2.831   0.710  2.0154  1.1027  1.9758
 5825TIP3    H239111   6.782   2.887   0.572 -0.1731 -1.7573  1.1326
 5826TIP3   OH239112   3.033   0.216   6.618  0.7688 -0.1240  0.7608
 5826TIP3    H139113   3.064   0.237   6.530  1.8007 -0.6808  0.9864
 5826TIP3    H239114   2.939   0.200   6.606  0.5997  1.2117  0.0156
 5827TIP3   OH239115   5.294   1.578   7.775 -0.1540 -0.2649 -0.1519
 5827TIP3    H139116   5.272   1.670   7.790  0.4560 -0.3476  1.5192
 5827TIP3    H239117   5.245   1.531   7.843 -0.9935 -1.2654 -1.4005
 5828TIP3   OH239118   6.511   1.899   8.100 -0.1122  0.2982 -0.1853
 5828TIP3    H139119   6.455   1.855   8.164  0.3031 -0.0381 -0.0500
 5828TIP3    H239120   6.505   1.845   8.021 -1.3405  1.2035 -0.7357
 5829TIP3   OH239121   3.479   2.019   3.085  0.4729  0.3092 -0.2490
 5829TIP3    H139122   3.475   2.034   2.990  0.5247 -2.7351 -0.8509
 5829TIP3    H239123   3.561   1.971   3.097  0.8487  1.3066  1.5007
 5830TIP3   OH239124   6.266   4.928   1.901  0.4161  0.0246 -0.3060
 5830TIP3    H139125   6.187   4.877   1.881  0.8831 -1.0432  0.4876
 5830TIP3    H239126   6.338   4.871   1.878  0.9577  0.3378  0.5607
 5831TIP3   OH239127   5.139   0.237   0.996  0.1265  0.4932 -0.5630
 5831TIP3    H139128   5.174   0.218   0.909  1.2087 -0.8476  0.1430
 5831TIP3    H239129   5.111   0.329   0.990  2.3207  1.1715 -1.6509
 5832TIP3   OH239130   1.546   1.809   0.210  0.1244  1.1436 -0.0565
 5832TIP3    H139131   1.587   1.879   0.261  0.6256 -1.9027  4.2608
 5832TIP3    H239132   1.454   1.810   0.237  0.5159 -0.8842  1.6506
 5833TIP3   OH239133   1.057   5.279   7.216 -0.0220  0.8431  0.5553
 5833TIP3    H139134   0.987   5.265   7.279 -1.0877 -2.4290 -1.1178
 5833TIP3    H239135   1.015   5.323   7.143  0.0535  0.4608  0.2756
 5834TIP3   OH239136   5.199   4.880   1.103  0.4200  0.1434  0.0861
 5834TIP3    H139137   5.194   4.874   1.008 -0.6843 -1.9879  0.2102
 5834TIP3    H239138   5.114   4.849   1.134  0.0391  2.5895  1.7788
 5835TIP3   OH239139   3.957   0.517   2.064  0.1918  0.0457 -0.5615
 5835TIP3    H139140   4.013   0.528   1.987  1.1007  0.8347  0.1828
 5835TIP3    H239141   4.010   0.551   2.136 -0.7825 -0.3568  0.3567
 5836TIP3   OH239142   4.579   6.533   7.922 -0.0602 -0.2259  0.0492
 5836TIP3    H139143   4.553   6.465   7.859  2.9893 -0.8867 -0.7026
 5836TIP3    H239144   4.514   6.603   7.910 -1.1294 -1.4438 -1.9161
 5837TIP3   OH239145   1.932   4.292   7.515  0.1106  0.0271 -0.7158
 5837TIP3    H139146   2.022   4.311   7.489 -0.7357  1.6425 -2.7518
 5837TIP3    H239147   1.892   4.252   7.438 -1.5467  1.6597 -0.7770
 5838TIP3   OH239148   2.807   3.720   2.458  0.0358  0.0390  0.2956
 5838TIP3    H139149   2.863   3.660   2.407  1.8337  0.0403  2.1470
 5838TIP3    H239150   2.802   3.799   2.404  2.6489  0.3837  0.4276
 5839TIP3   OH239151   0.594   3.300   8.624  0.6239  0.5769  0.5081
 5839TIP3    H139152   0.618   3.389   8.648 -1.8951  2.0871 -1.8580
 5839TIP3    H239153   0.615   3.294   8.530 -0.7477 -0.6773  0.2298
 5840TIP3   OH239154   6.397   1.792   8.795  0.1031 -0.0928 -0.4556
 5840TIP3    H139155   6.377   1.856   8.862  1.1773  0.7345 -0.8890
 5840TIP3    H239156   6.347   1.714   8.819  0.0673  0.3616  0.9921
 5841TIP3   OH239157   0.908   5.953   8.819 -0.2122 -0.4816  0.5606
 5841TIP3    H139158   0.967   6.011   8.772 -0.9580 -0.2238 -0.0903
 5841TIP3    H239159   0.900   5.991   8.906  1.7795 -1.3787  1.1884
 5842TIP3   OH239160   0.411   5.019   8.019  0.4852 -0.1633 -0.4694
 5842TIP3    H139161   0.326   4.975   8.011  0.0539  0.6650 -0.5009
 5842TIP3    H239162   0.473   4.957   7.981  0.1865 -1.6396  1.3072
 5843TIP3   OH239163   2.141   1.441   0.297 -0.8360 -0.5691  0.5081
 5843TIP3    H139164   2.164   1.364   0.246 -0.4483 -0.9400  1.2307
 5843TIP3    H239165   2.137   1.512   0.232 -0.6841 -1.0928 -0.0833
 5844TIP3   OH239166   6.486   0.515   7.221 -0.1622 -0.0494  0.1060
 5844TIP3    H139167   6.534   0.436   7.243  0.1579  0.7906  2.7572
 5844TIP3    H239168   6.493   0.570   7.299 -3.4492  1.0827 -0.2357
 5845TIP3   OH239169   6.793   1.834   8.574 -0.4881  0.3572  0.2724
 5845TIP3    H139170   6.760   1.845   8.484  0.6886  0.5676 -0.1616
 5845TIP3    H239171   6.716   1.845   8.629 -1.8867 -2.7712 -0.7942
 5846TIP3   OH239172   1.860   2.562   7.964 -0.4375 -0.1733 -0.2464
 5846TIP3    H139173   1.837   2.638   7.911 -0.7711  1.7909  2.5025
 5846TIP3    H239174   1.952   2.546   7.946 -0.6292  0.1953 -1.6475
 5847TIP3   OH239175   1.999   5.361   1.812  0.2874 -0.4064  0.0405
 5847TIP3    H139176   1.960   5.442   1.846  0.9201 -0.0781  0.0014
 5847TIP3    H239177   2.018   5.380   1.720  1.1414 -0.3216  0.2222
 5848TIP3   OH239178   1.280   0.010   2.130  0.0041 -0.3604 -0.3906
 5848TIP3    H139179   1.347   0.072   2.101 -0.9293  0.8795  0.0005
 5848TIP3    H239180   1.322  -0.075   2.124  1.4287  0.3302 -0.6858
 5849TIP3   OH239181   5.340   0.705   1.750 -0.5610  0.1998  0.6977
 5849TIP3    H139182   5.256   0.661   1.765 -0.3355 -0.6632 -0.4184
 5849TIP3    H239183   5.388   0.692   1.831 -1.4740  0.6504  1.3316
 5850TIP3   OH239184   4.657   3.847   8.120  0.4673  0.4145  0.3673
 5850TIP3    H139185   4.734   3.791   8.113 -0.9645 -1.5194 -1.0843
 5850TIP3    H239186   4.653   3.893   8.037  0.8529  1.6887  1.0233
 5851TIP3   OH239187   6.356   6.252   8.200 -0.0803  0.3161 -0.3740
 5851TIP3    H139188   6.286   6.307   8.234 -0.1328 -0.5730  1.0185
 5851TIP3    H239189   6.375   6.288   8.114 -2.3319  0.5088 -0.8506
 5852TIP3   OH239190   3.649   0.809   7.664 -0.1186 -0.5421 -0.0488
 5852TIP3    H139191   3.658   0.759   7.745  2.0756  0.0971  0.1574
 5852TIP3    H239192   3.701   0.761   7.599 -0.7698 -0.3378 -0.7400
 5853TIP3   OH239193   2.065   0.733   8.744  0.2838 -0.0309 -0.1840
 5853TIP3    H139194   1.973   0.750   8.763  0.1319 -1.3069  0.3451
 5853TIP3    H239195   2.069   0.728   8.648  0.0674  1.3381 -0.2749
 5854TIP3   OH239196   0.773   0.221   1.167  0.1283 -0.0577 -0.3179
 5854TIP3    H139197   0.847   0.160   1.158 -0.3281 -0.7601  0.5403
 5854TIP3    H239198   0.705   0.170   1.210  0.3431  1.5436  2.0912
 5855TIP3   OH239199   1.937   6.260   2.459  0.1756  0.5170 -0.0614
 5855TIP3    H139200   1.924   6.343   2.412 -2.4166 -0.3537 -1.0448
 5855TIP3    H239201   1.849   6.228   2.476  1.1037 -1.4989  1.3614
 5856TIP3   OH239202   4.705   0.314   0.020  0.2256  0.0429 -0.3230
 5856TIP3    H139203   4.640   0.268  -0.034  1.0576 -3.3044  1.2699
 5856TIP3    H239204   4.655   0.344   0.096 -0.0581  0.5249 -0.6923
 5857TIP3   OH239205   2.935   5.590   8.813  0.5152 -0.1256 -0.0355
 5857TIP3    H139206   2.953   5.648   8.888  1.2262  0.5752 -0.7231
 5857TIP3    H239207   3.019   5.587   8.766 -0.4736  1.1992 -1.9974
 5858TIP3   OH239208   2.032   5.876   7.854 -0.0409 -0.3031  0.1582
 5858TIP3    H139209   2.070   5.834   7.931  1.4685  0.5274 -0.0988
 5858TIP3    H239210   2.104   5.924   7.815 -1.0233  0.1068 -1.2246
 5859TIP3   OH239211   3.267   5.792   0.440  0.2120 -0.7059  0.1940
 5859TIP3    H139212   3.320   5.713   0.452 -0.2161 -0.8396  1.3877
 5859TIP3    H239213   3.287   5.822   0.351 -1.5019 -3.6139 -1.3558
 5860TIP3   OH239214   1.259   1.747   6.578 -0.2644 -0.7407  0.0721
 5860TIP3    H139215   1.220   1.662   6.597 -0.0863 -0.8591 -0.0888
 5860TIP3    H239216   1.351   1.728   6.560  0.0502 -0.3656  1.2215
 5861TIP3   OH239217   3.899   6.078   2.068 -0.3209 -0.1162  0.2709
 5861TIP3    H139218   3.942   6.133   2.003 -0.7279  0.7871  0.7520
 5861TIP3    H239219   3.806   6.085   2.048 -0.5449  1.0486  1.5980
 5862TIP3   OH239220   2.198   0.313   8.289  0.5663 -0.3314 -0.1486
 5862TIP3    H139221   2.207   0.245   8.356 -0.4634 -0.6606 -0.3210
 5862TIP3    H239222   2.216   0.267   8.206  3.7641  0.4825 -0.0325
 5863TIP3   OH239223   2.059   1.023   1.084 -0.2995 -0.0451 -0.4584
 5863TIP3    H139224   2.112   1.101   1.101 -1.5094  0.7137 -0.0558
 5863TIP3    H239225   2.031   1.032   0.993 -1.3601  0.5780 -0.0818
 5864TIP3   OH239226   5.849   4.475   1.701  0.2453  0.0293  0.0119
 5864TIP3    H139227   5.798   4.446   1.776 -2.3713  0.7386 -1.3747
 5864TIP3    H239228   5.884   4.560   1.727  2.7561 -1.4073  1.7843
 5865TIP3   OH239229   5.752   0.904   1.365 -0.2586 -0.2485  0.2994
 5865TIP3    H139230   5.694   0.980   1.367  0.5387  0.3490  1.0503
 5865TIP3    H239231   5.698   0.835   1.325 -0.5044  1.0868 -1.8442
 5866TIP3   OH239232   1.902   6.403   0.584 -0.2346 -0.2812 -1.0848
 5866TIP3    H139233   1.884   6.309   0.586 -0.6738 -0.1921 -0.8278
 5866TIP3    H239234   1.985   6.410   0.537  0.2372 -0.8727 -0.3641
 5867TIP3   OH239235   0.021   4.535   8.076  0.1581  0.3666 -0.4120
 5867TIP3    H139236  -0.014   4.449   8.053  0.4335  0.5255 -1.4916
 5867TIP3    H239237  -0.027   4.596   8.019 -0.1982  0.9578  0.5053
 5868TIP3   OH239238   2.638   0.512   1.821  0.1380  0.2350  0.2541
 5868TIP3    H139239   2.712   0.474   1.773 -0.0805 -2.4669  1.8121
 5868TIP3    H239240   2.564   0.456   1.799 -0.7748  1.1183  0.9770
 5869TIP3   OH239241   3.832   0.456   8.006  0.1491 -0.3748 -0.1396
 5869TIP3    H139242   3.926   0.437   8.008  0.1292 -0.7681  3.4831
 5869TIP3    H239243   3.791   0.372   7.985  0.5315 -0.4581 -0.5784
 5870TIP3   OH239244   5.603   6.270   6.607 -0.4083  0.0411  0.5964
 5870TIP3    H139245   5.644   6.353   6.584  1.8259 -0.8152  1.2199
 5870TIP3    H239246   5.526   6.294   6.658  2.4267  1.8649  4.5639
 5871TIP3   OH239247   4.149   5.888   0.026 -0.0360  0.0806 -0.0683
 5871TIP3    H139248   4.240   5.913   0.037 -0.2816  0.6409  0.7995
 5871TIP3    H239249   4.147   5.839  -0.056  0.8623  0.9488 -0.6199
 5872TIP3   OH239250   0.364   5.665   8.635  0.3625 -0.9474 -0.0722
 5872TIP3    H139251   0.292   5.607   8.611 -1.9913  1.1297  1.4415
 5872TIP3    H239252   0.389   5.637   8.723 -0.2504 -0.2138  0.3488
 5873TIP3   OH239253   1.627   6.704   1.869  0.1611 -0.6357  0.4271
 5873TIP3    H139254   1.646   6.625   1.919  0.3981 -1.4558 -0.8950
 5873TIP3    H239255   1.691   6.768   1.899  0.6287 -1.2702  0.7953
 5874TIP3   OH239256   1.225   4.743   1.132 -0.3883  0.8779 -0.1131
 5874TIP3    H139257   1.261   4.704   1.053  0.2048 -2.2689  1.5434
 5874TIP3    H239258   1.301   4.783   1.175 -0.5218  1.6919 -0.6163
 5875TIP3   OH239259   6.326   1.671   0.810 -0.4559  0.2220 -0.6010
 5875TIP3    H139260   6.417   1.676   0.781 -0.6936 -0.4372 -1.5264
 5875TIP3    H239261   6.288   1.601   0.757 -1.0286 -0.8129  1.1126
 5876TIP3   OH239262   3.150   4.374   0.376  0.5206  0.2144 -0.0609
 5876TIP3    H139263   3.245   4.375   0.366  0.4235 -0.8014 -1.3308
 5876TIP3    H239264   3.131   4.288   0.413  0.0793  0.3852  0.1208
 5877TIP3   OH239265   4.134   6.324   6.834 -0.3734  0.9344 -0.1026
 5877TIP3    H139266   4.038   6.316   6.836 -0.2409 -1.1967  1.8898
 5877TIP3    H239267   4.151   6.411   6.868 -1.6059  0.4140  2.0341
 5878TIP3   OH239268   6.629   6.770   0.306 -0.0627  0.4150 -0.5475
 5878TIP3    H139269   6.553   6.713   0.299  0.7391 -0.8045  0.3413
 5878TIP3    H239270   6.665   6.775   0.218 -1.4825  1.4984 -1.1098
 5879TIP3   OH239271   1.610   5.025   8.007  0.3807 -0.5112 -0.1583
 5879TIP3    H139272   1.698   5.051   7.978  1.5296 -0.4891  2.9479
 5879TIP3    H239273   1.600   4.936   7.975  0.8426 -0.0195 -1.8286
 5880TIP3   OH239274   5.756   5.079   8.787 -0.6769  0.3391  0.3321
 5880TIP3    H139275   5.797   5.117   8.865 -0.5646 -0.2774  0.5780
 5880TIP3    H239276   5.696   5.013   8.821 -1.1910  0.5906 -0.0724
 5881TIP3   OH239277   2.396   6.044   1.817 -1.0921  0.0492  0.0315
 5881TIP3    H139278   2.387   6.030   1.723 -2.5034 -0.6524  0.2476
 5881TIP3    H239279   2.425   5.959   1.852 -0.4868  0.3293  0.2383
 5882TIP3   OH239280   0.831   1.616   2.695  0.5906  0.1798  0.2489
 5882TIP3    H139281   0.856   1.663   2.616 -0.7410  0.3566 -0.0770
 5882TIP3    H239282   0.748   1.654   2.722 -0.2065 -1.5217  0.3389
 5883TIP3   OH239283   2.119   6.460   8.575  0.3394 -0.2077 -0.6429
 5883TIP3    H139284   2.094   6.367   8.572  0.0936 -0.1251 -1.3617
 5883TIP3    H239285   2.059   6.499   8.638 -0.1115 -0.3723 -0.9718
 5884TIP3   OH239286   1.190   1.091   8.800  0.3675  0.1425 -0.1335
 5884TIP3    H139287   1.131   1.166   8.812 -0.6155 -0.5467 -0.6016
 5884TIP3    H239288   1.151   1.021   8.853 -0.1935 -0.8307 -1.7726
 5885TIP3   OH239289   0.203   2.101   8.745 -0.0756  0.3793 -0.1574
 5885TIP3    H139290   0.186   2.126   8.654  0.7429  0.2541 -0.3514
 5885TIP3    H239291   0.254   2.021   8.739  1.2867  1.1686  0.3698
 5886TIP3   OH239292   6.785   1.517   0.558 -0.2353 -0.1577 -0.2753
 5886TIP3    H139293   6.801   1.443   0.617 -0.4790 -2.0491 -2.4272
 5886TIP3    H239294   6.863   1.521   0.502 -0.5614  0.7217 -0.6835
 5887TIP3   OH239295   0.663   5.746   0.985  0.9999 -0.1575  0.3715
 5887TIP3    H139296   0.717   5.771   0.909 -0.9921 -0.8148 -1.3622
 5887TIP3    H239297   0.727   5.730   1.055  2.9355  0.5537 -1.1278
 5888TIP3   OH239298   2.863   4.223   0.107 -0.4253  0.0537  0.2256
 5888TIP3    H139299   2.950   4.181   0.105 -0.5037 -0.0973 -0.2119
 5888TIP3    H239300   2.805   4.154   0.139 -0.3433  0.2335  0.7616
 5889TIP3   OH239301   2.640   2.569   7.889  0.5338  0.1530 -0.7302
 5889TIP3    H139302   2.578   2.637   7.861  0.6203  0.1878 -0.8381
 5889TIP3    H239303   2.642   2.577   7.985 -0.9342 -0.9829 -0.5600
 5890TIP3   OH239304   0.045   0.873   7.008  0.6427 -0.5678 -0.6244
 5890TIP3    H139305  -0.020   0.931   6.968  0.4768  0.0601  0.4935
 5890TIP3    H239306   0.034   0.790   6.963 -0.7182 -0.3772 -0.6971
 5891TIP3   OH239307   6.779   4.055   2.055 -0.3510  0.4092 -0.5407
 5891TIP3    H139308   6.731   3.973   2.069 -0.6072  0.4315 -1.2527
 5891TIP3    H239309   6.854   4.048   2.114 -1.5376  0.6632  1.0870
 5892TIP3   OH239310   4.929   3.025   1.129  0.0948 -0.1479  0.7944
 5892TIP3    H139311   4.952   3.055   1.041 -0.0324 -0.2025  0.7425
 5892TIP3    H239312   4.855   2.966   1.116 -0.7551  0.8231  1.0463
 5893TIP3   OH239313   5.370   2.248   1.538 -0.9468 -0.2337  0.2797
 5893TIP3    H139314   5.338   2.160   1.517 -1.6391 -0.0290  0.4452
 5893TIP3    H239315   5.291   2.301   1.543 -0.4739  0.6263 -0.8516
 5894TIP3   OH239316   0.586   5.586   7.808 -0.5770 -0.1308  0.3404
 5894TIP3    H139317   0.525   5.517   7.783  0.0591 -0.7338  0.3908
 5894TIP3    H239318   0.665   5.568   7.757 -0.7020  1.0953 -0.3101
 5895TIP3   OH239319   5.855   5.053   0.382 -0.1265  0.5980  0.3285
 5895TIP3    H139320   5.876   5.076   0.292  1.0526 -1.8911 -0.1221
 5895TIP3    H239321   5.935   5.073   0.431 -0.5892  1.4687  0.7497
 5896TIP3   OH239322   4.705   5.711   7.245  0.2713 -0.2092 -0.2833
 5896TIP3    H139323   4.655   5.736   7.167  0.2558 -0.5768 -0.3927
 5896TIP3    H239324   4.662   5.632   7.277 -0.1392  0.3128  0.4929
 5897TIP3   OH239325   5.937   0.121   1.868 -0.1636 -0.1388  0.2191
 5897TIP3    H139326   5.935   0.199   1.813 -0.0619  1.0523  1.8282
 5897TIP3    H239327   5.847   0.112   1.900 -0.6243 -1.8015 -1.3831
 5898TIP3   OH239328   4.917   6.796   8.692  0.3676  0.1347 -0.0019
 5898TIP3    H139329   4.874   6.882   8.693  1.2354  0.6019  2.0989
 5898TIP3    H239330   4.987   6.805   8.627  1.4231  1.5860  1.2450
 5899TIP3   OH239331   1.587   3.129   8.486  0.0803 -0.0760 -0.2476
 5899TIP3    H139332   1.595   3.039   8.453 -0.7239  0.2002 -1.2669
 5899TIP3    H239333   1.495   3.136   8.513  0.0620  0.5298 -0.4638
 5900TIP3   OH239334   0.999   4.406   0.612  0.0381  0.2768  0.0201
 5900TIP3    H139335   0.980   4.444   0.526  2.2276 -0.0865 -0.7040
 5900TIP3    H239336   1.037   4.321   0.592  0.4183  0.1062  1.3618
 5901TIP3   OH239337   4.612   3.892   8.631  0.2801 -0.2492 -0.5019
 5901TIP3    H139338   4.611   3.945   8.552 -1.5698 -0.3440 -0.5914
 5901TIP3    H239339   4.605   3.801   8.600 -0.8143 -0.2675 -0.2517
 5902TIP3   OH239340   0.666   0.655   8.276 -0.1030 -0.3966  0.2802
 5902TIP3    H139341   0.736   0.590   8.290 -0.5593 -0.4521  2.6651
 5902TIP3    H239342   0.685   0.692   8.190  2.4964 -0.8742  0.5651
 5903TIP3   OH239343   4.476   5.900   7.795 -0.1851 -0.1881  0.4492
 5903TIP3    H139344   4.476   5.935   7.706  2.6811 -0.9910  0.0294
 5903TIP3    H239345   4.422   5.961   7.845 -2.3267  0.0053 -1.8793
 5904TIP3   OH239346   6.446   1.324   2.451 -0.3048 -0.0752 -0.5802
 5904TIP3    H139347   6.425   1.402   2.400  1.3530 -0.7084 -2.3742
 5904TIP3    H239348   6.537   1.337   2.479 -0.2559 -1.0080 -0.2511
 5905TIP3   OH239349   0.590   6.685   7.041  0.2060 -0.5440 -0.2990
 5905TIP3    H139350   0.607   6.698   6.948  1.3095 -2.2028 -0.3771
 5905TIP3    H239351   0.508   6.635   7.044 -0.4905  0.5607 -0.2923
 5906TIP3   OH239352   5.094   0.405   8.783  0.0209  0.6444 -0.8806
 5906TIP3    H139353   5.077   0.498   8.797  2.6532  1.1653 -0.6317
 5906TIP3    H239354   5.102   0.368   8.871  0.8557  0.6106 -0.9596
 5907TIP3   OH239355   2.268   4.444   1.676 -0.1291  0.2778  0.0872
 5907TIP3    H139356   2.248   4.350   1.680 -0.7580  0.3621 -0.7776
 5907TIP3    H239357   2.280   4.462   1.583  0.0501  1.0486  0.2530
 5908TIP3   OH239358   5.405   6.183   7.967  0.0172  0.1740  0.0436
 5908TIP3    H139359   5.485   6.216   7.926  0.9063 -0.7244  1.0077
 5908TIP3    H239360   5.347   6.164   7.894  0.5337  1.1989 -0.6562
 5909TIP3   OH239361   3.546   5.781   8.135  0.5280  0.3402  0.3047
 5909TIP3    H139362   3.610   5.757   8.068  1.2188  0.8928  0.7489
 5909TIP3    H239363   3.498   5.854   8.097  1.2704  1.0002  0.5884
 5910TIP3   OH239364   6.621   5.222   0.362 -0.1405 -0.7741  0.1963
 5910TIP3    H139365   6.713   5.203   0.341 -0.4550 -3.2895  0.7534
 5910TIP3    H239366   6.618   5.221   0.458 -0.6232  0.1792  0.2044
 5911TIP3   OH239367   3.003   0.543   7.252 -0.4195 -0.0237  0.3712
 5911TIP3    H139368   3.092   0.545   7.289 -0.2364 -0.3422 -0.0470
 5911TIP3    H239369   2.993   0.455   7.217 -0.4429  0.3809 -0.6928
 5912TIP3   OH239370   3.579   2.901   1.995  0.7302 -0.2896 -0.0878
 5912TIP3    H139371   3.632   2.890   1.916 -0.4677  3.8070 -1.7405
 5912TIP3    H239372   3.492   2.870   1.970 -0.4070  3.5557 -1.6747
 5913TIP3   OH239373   0.044   1.691   1.658  0.6352  0.2974  0.1529
 5913TIP3    H139374   0.012   1.752   1.592  0.9299  1.8732  1.4228
 5913TIP3    H239375   0.137   1.711   1.666  1.1305 -1.4850 -0.5918
 5914TIP3   OH239376   1.200   2.842   7.552  0.3355  0.4466 -0.2769
 5914TIP3    H139377   1.165   2.914   7.604  1.7998  0.8970  0.1409
 5914TIP3    H239378   1.197   2.874   7.462  1.2408  1.1711 -0.0636
 5915TIP3   OH239379   1.885   0.340   1.420 -0.5326  0.1590 -0.5090
 5915TIP3    H139380   1.978   0.316   1.409 -0.5004 -0.0186  0.1106
 5915TIP3    H239381   1.874   0.417   1.364 -0.1834 -0.2301 -1.1281
 5916TIP3   OH239382   2.426   5.447   8.780 -0.2100 -0.0170 -0.2686
 5916TIP3    H139383   2.501   5.472   8.727  0.0428  0.0741  0.1292
 5916TIP3    H239384   2.461   5.385   8.844 -0.1513  1.1525  0.8759
 5917TIP3   OH239385   4.165   1.839   1.249 -0.4765  0.0320 -0.2236
 5917TIP3    H139386   4.159   1.746   1.273 -0.6086 -0.1873 -1.0827
 5917TIP3    H239387   4.079   1.861   1.215  0.0466 -0.0051 -1.6436
 5918TIP3   OH239388   5.148   3.562   1.791  0.9189  0.2139 -0.0714
 5918TIP3    H139389   5.122   3.507   1.717 -0.2980 -0.8346  1.0775
 5918TIP3    H239390   5.079   3.628   1.796 -0.9620 -1.7506  2.1424
 5919TIP3   OH239391   4.306   3.357   1.356  0.2599 -0.0531 -0.0145
 5919TIP3    H139392   4.242   3.422   1.387  0.7873  0.7573 -0.5859
 5919TIP3    H239393   4.258   3.275   1.357 -0.6125  0.4387  0.1484
 5920TIP3   OH239394   4.546   0.261   8.687 -0.2730 -0.3252 -0.2532
 5920TIP3    H139395   4.601   0.251   8.609 -1.0680 -0.2746 -0.8294
 5920TIP3    H239396   4.507   0.349   8.677  1.6805  0.8336  1.5426
 5921TIP3   OH239397   5.419   1.591   8.099 -0.1331 -0.0699 -0.0879
 5921TIP3    H139398   5.451   1.641   8.025 -0.0841 -0.8806 -0.6263
 5921TIP3    H239399   5.396   1.505   8.062 -0.3830 -0.3843  0.7741
 5922TIP3   OH239400   2.669   3.571   7.267  0.0885  0.2204 -0.0669
 5922TIP3    H139401   2.674   3.666   7.272 -1.4205  0.3223 -0.0835
 5922TIP3    H239402   2.760   3.543   7.257  0.5618  1.6469  0.0005
 5923TIP3   OH239403   3.151   3.508   2.885 -0.1642  0.8204  0.0100
 5923TIP3    H139404   3.066   3.503   2.929 -0.4847  0.7856 -0.6007
 5923TIP3    H239405   3.129   3.523   2.793  0.4936  0.8086 -0.1509
 5924TIP3   OH239406   4.782   3.794   0.383  0.0041  0.3246  0.4295
 5924TIP3    H139407   4.815   3.710   0.352  2.0761  1.4373 -0.5464
 5924TIP3    H239408   4.740   3.833   0.306 -1.2890  0.0544  0.9773
 5925TIP3   OH239409   6.128   3.242   7.584 -0.1909 -0.0432 -0.0538
 5925TIP3    H139410   6.071   3.282   7.649 -0.2595  0.8825 -0.6605
 5925TIP3    H239411   6.134   3.308   7.514  1.2140 -0.3219 -0.2219
 5926TIP3   OH239412   0.361   1.404   7.967 -0.1205 -0.1750  0.5029
 5926TIP3    H139413   0.310   1.479   7.996 -1.4058 -0.4245 -0.9839
 5926TIP3    H239414   0.296   1.339   7.940  0.8450 -0.0188 -2.6804
 5927TIP3   OH239415   2.653   5.497   3.011  0.0194 -0.6248  0.1108
 5927TIP3    H139416   2.706   5.570   3.044  1.0682 -0.3030 -2.0657
 5927TIP3    H239417   2.715   5.424   3.005 -0.6178 -1.2147  0.6913
 5928TIP3   OH239418   0.805   0.772   0.474  0.0438 -0.0454  0.1462
 5928TIP3    H139419   0.869   0.832   0.435 -0.4557  0.7300  0.5065
 5928TIP3    H239420   0.745   0.829   0.523  0.3597 -0.9331  1.6347
 5929TIP3   OH239421   2.186   3.987   1.520 -0.1909 -0.6797  0.1736
 5929TIP3    H139422   2.178   3.894   1.543 -1.8209 -0.1363  2.1212
 5929TIP3    H239423   2.108   4.004   1.467 -1.3368  0.1072  2.0210
 5930TIP3   OH239424   4.877   1.675   8.394 -0.2620  0.0589  0.3625
 5930TIP3    H139425   4.923   1.609   8.340  0.0832 -0.6111  1.4313
 5930TIP3    H239426   4.787   1.672   8.363 -0.2318 -0.8580  0.3253
 5931TIP3   OH239427   3.040   6.609   2.788  0.4575 -0.3870 -0.4151
 5931TIP3    H139428   3.068   6.631   2.699  2.3600 -0.8749  0.0064
 5931TIP3    H239429   2.961   6.660   2.802  0.7315  0.5337 -2.0006
 5932TIP3   OH239430   5.217   2.658   2.137 -0.1970  0.4918  0.2335
 5932TIP3    H139431   5.139   2.699   2.099 -0.2470  0.8816  0.7462
 5932TIP3    H239432   5.254   2.726   2.194  0.4692  0.2776  0.0592
 5933TIP3   OH239433   0.646   3.674   8.217 -0.1700 -0.1216  0.1791
 5933TIP3    H139434   0.738   3.657   8.239  0.2117  0.6752 -0.7339
 5933TIP3    H239435   0.612   3.589   8.190  0.0387 -0.6048  1.3432
 5934TIP3   OH239436   3.507   0.269   7.745  0.4147  0.9712  0.1369
 5934TIP3    H139437   3.546   0.326   7.679 -0.8381  3.2058  1.2391
 5934TIP3    H239438   3.439   0.220   7.698  1.1308  0.7727 -0.7060
 5935TIP3   OH239439   5.211   0.989   7.918 -0.8834  0.1065  0.4913
 5935TIP3    H139440   5.182   0.985   7.827 -0.2038  1.0157  0.2215
 5935TIP3    H239441   5.301   1.022   7.913 -0.2960 -1.2347  1.3937
 5936TIP3   OH239442   3.544   6.111   2.070 -0.5201 -0.3488 -0.3977
 5936TIP3    H139443   3.454   6.129   2.042 -0.4073  0.3104 -0.3393
 5936TIP3    H239444   3.597   6.173   2.022  0.1159 -1.8852 -1.7832
 5937TIP3   OH239445   2.082   2.093   7.833 -0.4174  0.5041 -0.0325
 5937TIP3    H139446   2.157   2.103   7.773  0.6979  0.0896  1.2415
 5937TIP3    H239447   2.005   2.098   7.776  0.6211 -0.9417 -1.6552
 5938TIP3   OH239448   2.469   6.178   8.702  0.6268 -0.4299 -0.7746
 5938TIP3    H139449   2.417   6.128   8.766  1.2192  0.3683  0.3720
 5938TIP3    H239450   2.413   6.252   8.680 -0.0794 -1.3226 -2.1573
 5939TIP3   OH239451   5.075   3.901   0.186 -0.2380 -0.0167  0.2212
 5939TIP3    H139452   5.049   3.812   0.211 -2.6291  0.4595 -0.3415
 5939TIP3    H239453   4.994   3.951   0.188  0.9915  2.0998  0.1652
 5940TIP3   OH239454   0.729   0.745   2.288 -0.9024 -0.1881 -0.3645
 5940TIP3    H139455   0.704   0.795   2.210 -0.7713 -0.2304 -0.4336
 5940TIP3    H239456   0.798   0.797   2.329 -0.9577 -0.1754 -0.2868
 5941TIP3   OH239457   1.698   6.584   7.663 -0.1519 -0.3300 -0.2828
 5941TIP3    H139458   1.603   6.577   7.675 -0.2310  1.1247  0.1327
 5941TIP3    H239459   1.716   6.532   7.585 -1.1186 -1.5448  0.2582
 5942TIP3   OH239460   4.392   2.941   8.340 -0.1116  0.7777  0.1198
 5942TIP3    H139461   4.385   2.877   8.269  0.1762 -0.5400  1.2368
 5942TIP3    H239462   4.308   2.934   8.386  0.2395  0.5732  0.7440
 5943TIP3   OH239463   2.798   1.300   0.943 -0.2998  0.1211  0.6830
 5943TIP3    H139464   2.854   1.372   0.915 -0.5718  0.3730  0.7757
 5943TIP3    H239465   2.743   1.281   0.867 -0.5127  0.2921  0.7924
 5944TIP3   OH239466   1.669   4.362   8.758  0.1795 -0.3448  0.0609
 5944TIP3    H139467   1.638   4.452   8.761  1.1749  0.0754 -1.2365
 5944TIP3    H239468   1.591   4.309   8.745 -0.4277  0.3008  0.9491
 5945TIP3   OH239469   4.825   6.512   1.761 -0.2070 -0.3036 -0.1741
 5945TIP3    H139470   4.855   6.601   1.744 -1.9438  0.0874 -1.4779
 5945TIP3    H239471   4.844   6.497   1.854 -0.4969  1.6744  0.2458
 5946TIP3   OH239472   4.920   3.814   8.719 -0.2857 -0.2292 -0.0659
 5946TIP3    H139473   4.878   3.833   8.803 -0.8170  0.3768 -0.4671
 5946TIP3    H239474   4.848   3.798   8.659  0.1074 -1.1868 -0.2929
 5947TIP3   OH239475   6.610   2.720   1.831 -0.2248 -0.0535  0.5854
 5947TIP3    H139476   6.593   2.754   1.743 -0.5797 -1.8203 -0.0686
 5947TIP3    H239477   6.525   2.688   1.861 -0.2664  1.2118  1.9150
 5948TIP3   OH239478   6.524   5.313   0.683  0.0481 -0.0503 -0.8399
 5948TIP3    H139479   6.616   5.328   0.660  0.3767 -0.2023  0.3265
 5948TIP3    H239480   6.527   5.268   0.767 -1.1147  0.8608 -0.2793
 5949TIP3   OH239481   0.345   0.204   8.206 -0.9897  0.4161 -0.4507
 5949TIP3    H139482   0.404   0.135   8.176 -1.5004 -0.6862  0.9790
 5949TIP3    H239483   0.316   0.248   8.126  1.0891  0.4588 -1.2356
 5950TIP3   OH239484   4.897   1.660   0.008 -0.3280 -0.1275 -0.0260
 5950TIP3    H139485   4.933   1.647   0.095 -2.1165  2.3061  1.2017
 5950TIP3    H239486   4.802   1.659   0.020 -0.6186  1.2138 -1.7455
 5951TIP3   OH239487   0.862   6.384   1.489 -0.3527  0.3473 -0.8482
 5951TIP3    H139488   0.799   6.340   1.546  0.9568 -1.2619 -0.5676
 5951TIP3    H239489   0.868   6.473   1.524 -0.7522 -0.1496  0.5580
 5952TIP3   OH239490   0.327   1.288   0.105  0.1715 -0.1810 -0.8183
 5952TIP3    H139491   0.320   1.212   0.048 -0.0654 -0.8903  0.1365
 5952TIP3    H239492   0.237   1.320   0.113  0.4450  1.2396 -2.5339
 5953TIP3   OH239493   6.077   0.596   8.074  0.2921 -0.3928  0.2067
 5953TIP3    H139494   6.131   0.565   8.001 -2.1911  0.7975 -2.3812
 5953TIP3    H239495   6.036   0.517   8.109  0.3402 -0.8717 -0.7760
 5954TIP3   OH239496   0.641   2.242   0.109  0.2785 -0.2478 -0.7510
 5954TIP3    H139497   0.648   2.307   0.179 -1.0630 -0.0316 -0.7843
 5954TIP3    H239498   0.654   2.292   0.029  3.1541 -0.7057 -0.6942
 5955TIP3   OH239499   0.865   0.807   2.545  0.0193  0.2920 -0.3226
 5955TIP3    H139500   0.934   0.863   2.580  0.4321  0.3498 -1.2039
 5955TIP3    H239501   0.821   0.772   2.623  0.1570  1.3295  0.2485
 5956TIP3   OH239502   0.260   4.568   8.179  0.3582 -0.8247  0.5696
 5956TIP3    H139503   0.175   4.538   8.148 -0.7923  1.5976  1.0814
 5956TIP3    H239504   0.245   4.660   8.204  2.3974 -1.1647  3.5386
 5957TIP3   OH239505   4.615   2.673   1.755 -0.5746  0.3599 -0.0347
 5957TIP3    H139506   4.633   2.589   1.713 -0.3787  0.3119  0.1428
 5957TIP3    H239507   4.527   2.697   1.725 -0.7313 -0.0271  0.1112
 5958TIP3   OH239508   1.748   5.814   1.961  0.3500  0.0310  0.0835
 5958TIP3    H139509   1.663   5.849   1.933 -0.1143  0.7543  2.2260
 5958TIP3    H239510   1.761   5.849   2.049  2.3827 -0.9582  0.2433
 5959TIP3   OH239511   5.614   2.561   8.211  0.3733 -0.2751 -1.1002
 5959TIP3    H139512   5.636   2.621   8.141  0.5367  0.7449 -0.1956
 5959TIP3    H239513   5.593   2.479   8.167  0.7852  0.2560 -2.3067
 5960TIP3   OH239514   4.777   0.203   1.219  0.4119  0.2885  0.1109
 5960TIP3    H139515   4.783   0.219   1.313  1.1306  3.0880 -0.3194
 5960TIP3    H239516   4.825   0.121   1.206  1.9658  0.8155  1.9950
 5961TIP3   OH239517   2.769   6.158   8.847 -0.0237  0.6326  0.3493
 5961TIP3    H139518   2.702   6.130   8.909  0.2856  0.5891  0.6648
 5961TIP3    H239519   2.723   6.216   8.786 -0.1640  1.2818  1.0636
 5962TIP3   OH239520   3.556   0.730   0.474 -0.8198 -0.9019 -0.1327
 5962TIP3    H139521   3.539   0.820   0.446  1.7598 -0.5097 -0.6417
 5962TIP3    H239522   3.511   0.675   0.410 -2.0140  0.0041 -0.0916
 5963TIP3   OH239523   5.693   6.633   7.219 -0.4411  0.7396 -0.0101
 5963TIP3    H139524   5.764   6.589   7.266  0.3998  1.4177 -0.6328
 5963TIP3    H239525   5.687   6.587   7.135  1.1204  2.3744 -1.0894
 5964TIP3   OH239526   1.207   3.015   0.458 -0.1368  0.1373 -0.0725
 5964TIP3    H139527   1.235   3.072   0.530  1.4486  0.8253 -1.1880
 5964TIP3    H239528   1.268   2.942   0.460  0.6649  0.7388 -1.4045
 5965TIP3   OH239529   2.883   1.762   2.363  0.2712 -0.1711  0.3413
 5965TIP3    H139530   2.877   1.668   2.344  1.5968 -0.3579  0.7581
 5965TIP3    H239531   2.794   1.794   2.351 -0.0188 -1.2951 -0.7704
 5966TIP3   OH239532   4.911   2.786   7.035 -0.3571 -0.4754  0.4928
 5966TIP3    H139533   4.874   2.716   6.981 -0.8894  0.5844 -0.5630
 5966TIP3    H239534   4.993   2.809   6.992 -0.4744 -0.0585  0.4829
 5967TIP3   OH239535   4.725   4.184   6.993 -0.0941  0.3693  0.3210
 5967TIP3    H139536   4.631   4.194   7.011  0.0894  1.2547  0.8554
 5967TIP3    H239537   4.745   4.254   6.932  0.5032  1.0902  1.3160
 5968TIP3   OH239538   1.739   3.134   1.041  0.0767 -0.2891  0.2626
 5968TIP3    H139539   1.771   3.069   1.103  0.3452 -0.3748  0.0326
 5968TIP3    H239540   1.809   3.143   0.977 -0.8850 -1.4521 -1.0029
 5969TIP3   OH239541   2.210   5.299   8.295  0.3289 -0.1350 -0.0187
 5969TIP3    H139542   2.172   5.213   8.311 -0.5934 -0.2376 -2.3794
 5969TIP3    H239543   2.294   5.281   8.253  0.9197  0.1369  1.0083
 5970TIP3   OH239544   4.975   2.476   7.292 -0.0560 -1.1369  0.1571
 5970TIP3    H139545   4.914   2.410   7.325 -3.1495  1.4906  0.0953
 5970TIP3    H239546   4.972   2.466   7.197  0.3564 -1.5743  0.1831
 5971TIP3   OH239547   3.644   4.947   0.125  0.0461 -0.0716 -0.4813
 5971TIP3    H139548   3.688   4.894   0.192  0.5784  1.4309  0.4155
 5971TIP3    H239549   3.708   4.954   0.054 -0.3725 -1.3523 -1.0101
 5972TIP3   OH239550   0.415   3.729   2.108  0.0615  0.3255  0.0138
 5972TIP3    H139551   0.473   3.761   2.177 -0.4162  0.3486  0.4116
 5972TIP3    H239552   0.327   3.736   2.145 -0.1273 -0.5995 -0.2144
 5973TIP3   OH239553   6.349   6.731   0.068 -0.3301  0.1147 -0.2993
 5973TIP3    H139554   6.427   6.752   0.017  0.3134 -0.4849  0.4039
 5973TIP3    H239555   6.279   6.724   0.003  0.0650  1.2408 -0.8771
 5974TIP3   OH239556   0.428   2.877   1.194 -0.3098  0.0148  0.6371
 5974TIP3    H139557   0.480   2.797   1.207 -3.2013 -2.4578 -1.3339
 5974TIP3    H239558   0.372   2.882   1.271 -0.5112 -0.2340  0.5109
 5975TIP3   OH239559   2.430   2.340   8.487 -0.6014  0.4844  0.1296
 5975TIP3    H139560   2.492   2.291   8.542 -2.2561 -1.0339  0.7473
 5975TIP3    H239561   2.477   2.354   8.405  0.7001 -0.2544  0.7101
 5976TIP3   OH239562   6.760   3.951   0.807 -0.0633 -0.3147  0.8279
 5976TIP3    H139563   6.819   3.998   0.866  0.0532 -2.1007  2.2547
 5976TIP3    H239564   6.818   3.900   0.751 -0.2083  0.3237  0.0836
 5977TIP3   OH239565   2.392   3.300   8.584 -0.1020  0.6981  0.1874
 5977TIP3    H139566   2.311   3.309   8.533 -0.0631  0.6275  0.1140
 5977TIP3    H239567   2.433   3.386   8.580 -0.6294  0.9927  0.9885
 5978TIP3   OH239568   1.230   0.863   8.086 -0.0573 -0.0999 -0.1630
 5978TIP3    H139569   1.284   0.903   8.155 -1.2136  0.7443  0.2862
 5978TIP3    H239570   1.293   0.817   8.030  1.1855  1.2004  0.0979
 5979TIP3   OH239571   1.359   2.171   1.261  0.1842 -0.3705  0.3488
 5979TIP3    H139572   1.428   2.237   1.260 -0.7676  0.6545 -0.7311
 5979TIP3    H239573   1.393   2.100   1.207 -0.5072  1.1870 -2.3400
 5980TIP3   OH239574   0.567   5.258   0.233 -0.4003 -0.0490  0.4041
 5980TIP3    H139575   0.602   5.180   0.190 -0.9414 -1.0837  1.7700
 5980TIP3    H239576   0.643   5.316   0.242  0.1882 -0.7492  0.0717
 5981TIP3   OH239577   6.802   5.294   0.632  0.2941 -0.1548  0.1762
 5981TIP3    H139578   6.874   5.331   0.582 -0.2257 -0.9352 -1.2256
 5981TIP3    H239579   6.842   5.226   0.687  0.6662 -0.4656 -0.4649
 5982TIP3   OH239580   1.299   4.939   7.216  0.2022  0.4131  0.2310
 5982TIP3    H139581   1.359   4.881   7.169  0.4590 -0.8200  1.9892
 5982TIP3    H239582   1.237   4.880   7.258 -0.8081  1.5505  0.3729
 5983TIP3   OH239583   2.929   4.245   0.921 -0.2279 -0.2718  0.9787
 5983TIP3    H139584   2.858   4.195   0.962  1.3569 -1.5257  2.3472
 5983TIP3    H239585   2.981   4.179   0.875 -0.5838  0.7970 -1.0935
 5984TIP3   OH239586   4.079   3.265   2.705  0.0119 -0.2384 -0.2085
 5984TIP3    H139587   4.083   3.190   2.764 -0.5656  0.3799  0.6371
 5984TIP3    H239588   3.987   3.292   2.706  0.0509 -0.0463 -1.1763
 5985TIP3   OH239589   3.036   1.122   1.357  0.0514 -0.3733  0.2458
 5985TIP3    H139590   3.108   1.157   1.409 -0.6201 -0.5534  1.3069
 5985TIP3    H239591   3.056   1.028   1.348 -0.4170 -0.5663  1.1614
 5986TIP3   OH239592   1.136   0.949   7.378 -0.2543 -0.0079 -0.1087
 5986TIP3    H139593   1.119   1.041   7.359 -0.7210 -0.2035 -0.6720
 5986TIP3    H239594   1.056   0.904   7.353  0.2484 -0.6627 -0.5643
 5987TIP3   OH239595   4.756   4.056   2.377  0.0156 -0.6367 -0.0569
 5987TIP3    H139596   4.707   4.138   2.385 -0.7699 -1.1814  0.8620
 5987TIP3    H239597   4.712   3.995   2.436  0.2662 -1.8848 -1.1089
 5988TIP3   OH239598   5.313   3.245   0.738  0.3284 -0.3530 -0.2482
 5988TIP3    H139599   5.328   3.329   0.782 -0.7024 -0.1525 -0.2646
 5988TIP3    H239600   5.399   3.202   0.738  0.7614  0.4994  0.1763
 5989TIP3   OH239601   6.754   2.174   0.138  0.5957 -0.0655  0.0978
 5989TIP3    H139602   6.817   2.245   0.133  1.4011 -0.8136 -0.4597
 5989TIP3    H239603   6.695   2.188   0.064  2.4956 -1.5986 -1.8072
 5990TIP3   OH239604   1.204   6.230   7.539 -0.3487  0.1495  0.4364
 5990TIP3    H139605   1.164   6.145   7.554  0.6320 -0.4406 -0.1593
 5990TIP3    H239606   1.133   6.284   7.504 -1.0140 -0.3796  0.9532
 5991TIP3   OH239607   5.424   0.273   1.602  0.1055 -0.1131  0.6852
 5991TIP3    H139608   5.353   0.297   1.542  1.1748  0.0557 -0.5668
 5991TIP3    H239609   5.449   0.355   1.644 -1.6111 -0.4630  2.5143
 5992TIP3   OH239610   3.540   1.225   2.643  0.1740 -0.2076  0.5223
 5992TIP3    H139611   3.538   1.317   2.620 -1.2161 -0.6021 -1.1295
 5992TIP3    H239612   3.618   1.191   2.598  0.2739  0.0200  0.5233
 5993TIP3   OH239613   5.585   2.413   0.945  0.1982  0.4456 -0.1539
 5993TIP3    H139614   5.618   2.357   1.015  1.9304  0.9018 -0.5520
 5993TIP3    H239615   5.641   2.392   0.869 -0.3969  1.3066 -0.8519
 5994TIP3   OH239616   6.720   4.446   0.665  0.2742 -0.1112  0.7834
 5994TIP3    H139617   6.706   4.530   0.620 -0.0208 -0.4600  0.2088
 5994TIP3    H239618   6.666   4.452   0.744 -1.3553 -0.5109 -0.2390
 5995TIP3   OH239619   2.123   2.124   8.103  0.3072  0.2572  0.0824
 5995TIP3    H139620   2.216   2.142   8.110  0.4912 -0.6406  0.0002
 5995TIP3    H239621   2.109   2.096   8.013  0.1755 -0.7603  0.4021
 5996TIP3   OH239622   0.123   3.845   2.975 -0.1838 -0.6659  0.0265
 5996TIP3    H139623   0.136   3.781   3.045  1.0721 -2.6474 -1.9286
 5996TIP3    H239624   0.130   3.796   2.894 -0.9309  1.6673 -1.5767
 5997TIP3   OH239625   3.369   1.208   0.090  0.5131 -0.4204 -0.2962
 5997TIP3    H139626   3.327   1.132   0.129  0.3434 -0.6986 -1.0089
 5997TIP3    H239627   3.297   1.262   0.057  0.6146  0.2085  0.4747
 5998TIP3   OH239628   1.478   0.397   2.228  0.0876 -0.3452 -0.3867
 5998TIP3    H139629   1.486   0.324   2.166  1.3138  1.7689 -2.9515
 5998TIP3    H239630   1.539   0.376   2.298  0.7930 -1.5616 -1.3208
 5999TIP3   OH239631   6.548   1.310   0.907 -0.4981  0.0030 -0.3605
 5999TIP3    H139632   6.537   1.264   0.824  0.6585 -2.0337  0.5457
 5999TIP3    H239633   6.620   1.264   0.951 -0.6671  1.4021  1.5119
 6000TIP3   OH239634   4.581   5.057   0.544  0.3986 -0.4281  0.1376
 6000TIP3    H139635   4.637   5.029   0.472  1.2968  1.2834  0.1227
 6000TIP3    H239636   4.492   5.036   0.514  0.8480 -0.8410 -0.9545
 6001TIP3   OH239637   5.503   0.265   0.909 -0.2325  0.1340  0.5102
 6001TIP3    H139638   5.591   0.289   0.935 -0.1035  1.0497 -0.6890
 6001TIP3    H239639   5.464   0.226   0.987  0.6033  1.4393  1.6183
 6002TIP3   OH239640   5.337   3.761   1.783 -0.1388  0.0272  0.4151
 6002TIP3    H139641   5.398   3.777   1.711  1.7670  0.9057  2.1357
 6002TIP3    H239642   5.282   3.688   1.752 -0.6284  1.5097 -2.6050
 6003TIP3   OH239643   6.671   5.479   8.764  0.1976  0.0472 -0.0302
 6003TIP3    H139644   6.575   5.481   8.771  0.2577 -0.3671  1.2700
 6003TIP3    H239645   6.694   5.390   8.792  0.9194 -0.0922 -1.0468
 6004TIP3   OH239646   1.746   4.881   1.771  0.0208 -0.0957 -0.3007
 6004TIP3    H139647   1.806   4.951   1.795 -0.3526  0.2912 -0.4886
 6004TIP3    H239648   1.792   4.800   1.795  1.6269  0.0529 -2.6047
 6005TIP3   OH239649   1.813   6.009   7.982  0.0710 -0.0397 -0.1088
 6005TIP3    H139650   1.870   5.958   7.924 -0.0798 -0.1820 -0.1316
 6005TIP3    H239651   1.815   5.962   8.065  0.7892  0.5067  0.1980
 6006TIP3   OH239652   1.117   0.714   2.798  0.3866 -0.5204 -0.1459
 6006TIP3    H139653   1.196   0.660   2.804  0.9975  0.4408  1.1144
 6006TIP3    H239654   1.064   0.687   2.872  0.3151 -0.0054 -0.0006
 6007TIP3   OH239655   6.796   1.783   1.405  0.1410 -0.1520  0.2288
 6007TIP3    H139656   6.771   1.737   1.325 -0.8742 -0.6980  0.8341
 6007TIP3    H239657   6.864   1.844   1.378  2.1764 -2.5800 -0.4752
 6008TIP3   OH239658   3.638   2.416   7.164  0.5092  0.1472 -0.7542
 6008TIP3    H139659   3.645   2.407   7.259  0.6318  0.6388 -0.7156
 6008TIP3    H239660   3.728   2.425   7.134  0.3872  2.5748 -0.6439
 6009TIP3   OH239661   5.905   2.341   1.719  0.5568 -0.4017 -0.4195
 6009TIP3    H139662   5.932   2.432   1.706 -0.5371 -0.1897 -1.2781
 6009TIP3    H239663   5.814   2.347   1.747  0.4906 -1.2391 -0.4445
 6010TIP3   OH239664   4.533   2.006   2.016  0.2056  0.6747  0.2320
 6010TIP3    H139665   4.485   2.089   2.019 -0.6067  0.2286  0.0090
 6010TIP3    H239666   4.479   1.946   2.067  0.3498  0.0771 -0.3105
 6011TIP3   OH239667   2.483   4.122   8.146 -0.0232 -0.1707  0.1272
 6011TIP3    H139668   2.425   4.083   8.081 -2.1284  1.5285  0.8545
 6011TIP3    H239669   2.569   4.126   8.103 -0.4966 -2.3810 -1.1587
 6012TIP3   OH239670   3.491   4.427   7.998  0.0826 -0.0775  0.7638
 6012TIP3    H139671   3.471   4.485   8.071  0.2511 -1.2517  1.7639
 6012TIP3    H239672   3.540   4.482   7.937 -2.3712  1.6945  0.2092
 6013TIP3   OH239673   0.518   4.281   6.733  0.2046  0.4242  0.0687
 6013TIP3    H139674   0.496   4.314   6.646 -0.9940  1.5602  0.7581
 6013TIP3    H239675   0.434   4.276   6.778  0.6657 -1.1965  0.8386
 6014TIP3   OH239676   2.385   2.780   1.432 -0.4713  0.1289 -0.4307
 6014TIP3    H139677   2.370   2.875   1.425  1.0683  0.5185  1.0140
 6014TIP3    H239678   2.325   2.752   1.502  0.3522  0.3819  0.3898
 6015TIP3   OH239679   6.576   1.505   8.305 -0.4105  0.1950 -0.0338
 6015TIP3    H139680   6.574   1.411   8.322 -1.0794  0.2965  0.4691
 6015TIP3    H239681   6.508   1.519   8.239  0.9794  0.0641 -1.5652
 6016TIP3   OH239682   0.859   5.712   0.184  0.3397 -0.2227  0.2334
 6016TIP3    H139683   0.780   5.714   0.130  1.1140 -0.4776 -0.9620
 6016TIP3    H239684   0.880   5.804   0.199 -0.0156 -0.1507  0.2896
 6017TIP3   OH239685   6.825   3.979   0.435  0.0658  0.1245 -0.3223
 6017TIP3    H139686   6.733   3.990   0.461  0.5067  1.1920  0.9120
 6017TIP3    H239687   6.843   4.054   0.378  0.4925  0.6216  0.4459
 6018TIP3   OH239688   0.603   6.287   6.930 -0.5052 -0.3547  0.5236
 6018TIP3    H139689   0.513   6.298   6.960 -1.0185 -0.3864 -0.9197
 6018TIP3    H239690   0.611   6.193   6.911 -0.4179 -0.2347 -0.0625
 6019TIP3   OH239691   3.061   1.064   0.204  0.0857  0.0755  0.1408
 6019TIP3    H139692   3.026   1.058   0.115 -0.0931  0.5185  0.1774
 6019TIP3    H239693   2.983   1.073   0.260  0.2287  3.5426  0.0305
 6020TIP3   OH239694   2.025   2.390   8.183  0.0129  0.0298  0.1229
 6020TIP3    H139695   2.072   2.309   8.163  1.9850  1.0246  0.4930
 6020TIP3    H239696   2.070   2.457   8.131 -0.7478  1.1089  0.8165
 6021TIP3   OH239697   2.680   1.583   0.804  0.9415 -0.4485  0.4131
 6021TIP3    H139698   2.776   1.582   0.801  1.0459  1.2820  1.6025
 6021TIP3    H239699   2.655   1.491   0.796  2.7432 -1.0664  1.1977
 6022TIP3   OH239700   5.427   3.850   2.332 -0.3160 -0.1607  0.0282
 6022TIP3    H139701   5.431   3.757   2.354 -2.5923 -0.5547 -0.8909
 6022TIP3    H239702   5.335   3.864   2.307 -0.1181  2.4195  0.5093
 6023TIP3   OH239703   4.376   2.245   2.098 -0.1987  0.4466  0.1499
 6023TIP3    H139704   4.339   2.166   2.136 -1.1465  0.1815 -1.2599
 6023TIP3    H239705   4.305   2.309   2.103  0.2970  0.9827  0.5289
 6024TIP3   OH239706   5.323   4.534   1.417 -0.5665 -0.9352  0.5749
 6024TIP3    H139707   5.389   4.526   1.486  2.4532  1.3676 -1.7189
 6024TIP3    H239708   5.299   4.626   1.418  2.5451  0.2763 -3.5391
 6025TIP3   OH239709   6.147   0.722   8.408 -0.0285  0.4749  0.5193
 6025TIP3    H139710   6.200   0.710   8.487  0.5474  1.8961  0.3599
 6025TIP3    H239711   6.073   0.662   8.421 -0.2428  1.0704  2.4206
 6026TIP3   OH239712   1.233   6.227   1.256  0.6961 -0.0723 -0.3237
 6026TIP3    H139713   1.208   6.289   1.188  1.9798 -0.5744 -1.2784
 6026TIP3    H239714   1.150   6.186   1.282  0.0272  0.9909 -0.6944
 6027TIP3   OH239715   6.058   1.155   7.994 -0.1647 -0.1162 -0.4437
 6027TIP3    H139716   5.973   1.130   7.959 -0.1095 -0.2661 -0.4724
 6027TIP3    H239717   6.058   1.122   8.083 -0.3379  0.3366 -0.2720
 6028TIP3   OH239718   3.219   6.306   0.161 -0.3467  0.1151 -0.4504
 6028TIP3    H139719   3.190   6.230   0.109 -0.9276 -0.0465  0.0979
 6028TIP3    H239720   3.293   6.342   0.112 -0.3135 -0.5773 -0.9191
 6029TIP3   OH239721   5.363   3.505   2.018 -0.2893 -0.1658 -0.5791
 6029TIP3    H139722   5.367   3.595   2.050  0.8675 -0.0870 -0.9011
 6029TIP3    H239723   5.311   3.511   1.937  0.6410  0.3947 -1.1552
 6030TIP3   OH239724   5.449   6.367   2.140  0.0848 -0.3169 -0.1513
 6030TIP3    H139725   5.481   6.378   2.230  0.6825 -0.4952 -0.3357
 6030TIP3    H239726   5.528   6.352   2.089 -0.2329  0.0223 -0.7486
 6031TIP3   OH239727   4.378   0.108   8.830  0.1633  0.3254 -0.2497
 6031TIP3    H139728   4.412   0.112   8.919  0.3740  1.7673 -0.3631
 6031TIP3    H239729   4.451   0.138   8.775  0.7343 -2.4499 -1.1637
 6032TIP3   OH239730   0.248   5.444   7.396 -0.3298  0.5560 -0.3120
 6032TIP3    H139731   0.244   5.351   7.418  0.2074  0.3765 -0.9260
 6032TIP3    H239732   0.228   5.448   7.302  1.0833  0.8986 -0.6175
 6033TIP3   OH239733   3.845   2.624   7.856  0.5331  0.2427  0.2295
 6033TIP3    H139734   3.912   2.644   7.791  0.5979  1.2757  0.5874
 6033TIP3    H239735   3.783   2.696   7.849 -0.0410 -0.2167  0.5456
 6034TIP3   OH239736   4.445   3.142   0.736 -0.4366  0.3653 -0.0020
 6034TIP3    H139737   4.521   3.117   0.787 -1.0487 -0.9926  0.2883
 6034TIP3    H239738   4.389   3.191   0.797 -0.5012  0.0138  0.2220
 6035TIP3   OH239739   5.822   6.113   8.578 -0.3377  0.1555 -0.6904
 6035TIP3    H139740   5.863   6.066   8.650 -0.8371  0.4827 -0.1804
 6035TIP3    H239741   5.817   6.204   8.608 -0.3700  0.3346 -1.2190
 6036TIP3   OH239742   4.285   5.052   0.963 -0.3694 -0.0119 -0.2873
 6036TIP3    H139743   4.312   5.133   0.919  0.3823  0.2517  0.6217
 6036TIP3    H239744   4.221   5.013   0.903  0.0445  0.7132 -1.2412
 6037TIP3   OH239745   5.238   3.663   8.047  0.5502 -0.1006 -0.0117
 6037TIP3    H139746   5.160   3.684   7.996 -0.1160  1.3050  1.5120
 6037TIP3    H239747   5.284   3.746   8.057  0.3977 -0.2194  2.0801
 6038TIP3   OH239748   0.822   4.252   6.737  0.1490  0.1057 -0.4533
 6038TIP3    H139749   0.843   4.345   6.740  0.0644  0.1038  0.6821
 6038TIP3    H239750   0.727   4.248   6.736  0.0363  0.0450  2.2340
 6039TIP3   OH239751   5.391   5.893   0.317  0.4319 -0.2181 -0.8717
 6039TIP3    H139752   5.469   5.869   0.367  1.0240  2.5559 -0.3154
 6039TIP3    H239753   5.425   5.945   0.244 -0.7876 -0.2313 -1.4689
 6040TIP3   OH239754   0.694   3.503   0.972  0.4465  0.4705  0.1405
 6040TIP3    H139755   0.767   3.451   0.939  1.2775  0.7869  1.4059
 6040TIP3    H239756   0.655   3.542   0.894  0.6891 -0.8914 -0.6919
 6041TIP3   OH239757   4.626   4.944   2.774 -0.4533 -0.0531  0.0669
 6041TIP3    H139758   4.690   4.953   2.703 -0.4482 -2.3276 -0.2787
 6041TIP3    H239759   4.632   5.027   2.822  3.0773 -0.2752  0.3008
 6042TIP3   OH239760   6.717   4.258   1.632 -0.1108 -0.2495 -0.4267
 6042TIP3    H139761   6.670   4.329   1.588  0.9751  1.1151  0.5106
 6042TIP3    H239762   6.803   4.256   1.588 -0.1183 -0.9875 -0.4260
 6043TIP3   OH239763   4.934   3.821   2.656  0.5207 -0.4905  0.0784
 6043TIP3    H139764   5.010   3.868   2.691  1.1598 -0.6779 -1.0080
 6043TIP3    H239765   4.858   3.872   2.685  1.0910  0.0354  0.6723
 6044TIP3   OH239766   5.776   6.108   8.189  1.0396  0.2240  0.1858
 6044TIP3    H139767   5.682   6.101   8.172  1.3606 -0.5433 -1.5224
 6044TIP3    H239768   5.802   6.191   8.149  1.2863 -0.1535 -0.4535
 6045TIP3   OH239769   1.824   5.089   1.528  0.6995  0.4103  0.4379
 6045TIP3    H139770   1.835   5.081   1.623  0.6761 -2.6585  0.2740
 6045TIP3    H239771   1.791   5.004   1.500 -1.4424  1.9079 -2.0992
 6046TIP3   OH239772   1.298   6.381   1.536  0.0566  0.3672 -0.2141
 6046TIP3    H139773   1.217   6.332   1.518  0.1497  1.0016 -2.7005
 6046TIP3    H239774   1.359   6.350   1.469  2.0372 -0.3395  1.8264
 6047TIP3   OH239775   3.491   3.589   8.005  0.0144 -0.3172 -0.1442
 6047TIP3    H139776   3.416   3.618   7.953 -1.0895 -2.2081  0.3154
 6047TIP3    H239777   3.455   3.566   8.090  1.4386  0.4699  0.7168
 6048TIP3   OH239778   6.481   6.556   2.993  0.1130 -0.3628  0.0897
 6048TIP3    H139779   6.446   6.584   3.077  2.2320  0.9933  0.5808
 6048TIP3    H239780   6.447   6.619   2.930  1.5808  0.9940  0.5765
 6049TIP3   OH239781   3.729   4.064   8.828 -0.5289 -0.5609 -0.1320
 6049TIP3    H139782   3.824   4.068   8.842 -0.6601 -2.1431  1.7503
 6049TIP3    H239783   3.718   4.014   8.748  0.2351 -1.1365  0.1101
 6050TIP3   OH239784   2.489   6.540   7.533  0.4020  0.3275 -0.2159
 6050TIP3    H139785   2.570   6.527   7.485  0.4148  0.7107 -0.3000
 6050TIP3    H239786   2.424   6.487   7.485  0.6904 -0.3315  0.1106
 6051TIP3   OH239787   4.755   2.037   0.560 -0.7468 -0.2348  0.3837
 6051TIP3    H139788   4.720   1.966   0.615  1.3947 -1.9055 -0.2872
 6051TIP3    H239789   4.828   2.073   0.610 -1.0360  0.6700  0.1690
 6052TIP3   OH239790   6.215   2.710   7.464  0.1357  0.5036 -0.2520
 6052TIP3    H139791   6.286   2.676   7.518 -0.7233 -0.9499  0.0177
 6052TIP3    H239792   6.259   2.752   7.390  1.2950 -0.5334 -0.1881
 6053TIP3   OH239793   4.762   5.473   0.463 -0.2131 -0.3234 -0.4857
 6053TIP3    H139794   4.762   5.529   0.385 -2.3282 -0.4974 -0.6773
 6053TIP3    H239795   4.806   5.393   0.435 -1.4278 -0.6058 -1.7296
 6054TIP3   OH239796   3.525   4.611   7.533 -0.7618  0.3854  0.2819
 6054TIP3    H139797   3.519   4.678   7.601 -0.9588 -1.1194  1.8469
 6054TIP3    H239798   3.592   4.643   7.473  0.7495  0.9891  2.1801
 6055TIP3   OH239799   4.624   5.024   0.270  0.2482 -0.3551  0.2745
 6055TIP3    H139800   4.650   5.097   0.214 -3.2503  0.1987 -0.8993
 6055TIP3    H239801   4.669   4.948   0.234 -0.4979  0.2993 -2.2199
 6056TIP3   OH239802   6.597   1.111   2.201  0.4584  0.3727  0.6052
 6056TIP3    H139803   6.596   1.076   2.290  0.9859 -0.3447  0.3342
 6056TIP3    H239804   6.539   1.188   2.205 -0.4102 -0.2940  1.3021
 6057TIP3   OH239805   0.684   4.661   0.881  0.3126 -0.3675  0.2591
 6057TIP3    H139806   0.774   4.630   0.875  0.3458 -0.3179  0.4936
 6057TIP3    H239807   0.632   4.593   0.837  0.5696  0.1190 -0.8428
 6058TIP3   OH239808   0.342   2.349   8.167 -0.2645  0.1471  0.4103
 6058TIP3    H139809   0.410   2.359   8.101 -0.3622 -1.5273 -0.0093
 6058TIP3    H239810   0.361   2.264   8.208 -1.3820  0.2196  1.1302
 6059TIP3   OH239811   0.550   2.692   1.864 -0.5785  0.2952  0.2284
 6059TIP3    H139812   0.618   2.693   1.797 -0.6199  1.8109  0.1697
 6059TIP3    H239813   0.483   2.633   1.829  0.7589 -1.4200  0.4044
 6060TIP3   OH239814   2.898   1.690   0.588 -0.0723 -0.6313 -0.1876
 6060TIP3    H139815   2.950   1.614   0.560  1.3619  0.1878  0.1423
 6060TIP3    H239816   2.915   1.757   0.523 -0.3141 -0.1794  0.2067
 6061TIP3   OH239817   2.919   3.705   8.631  0.0822 -0.0323 -0.3587
 6061TIP3    H139818   2.982   3.637   8.653  1.2901  0.7718 -1.1702
 6061TIP3    H239819   2.838   3.679   8.675  1.3191 -0.4195  1.8408
 6062TIP3   OH239820   4.597   6.446   8.587  0.1574  0.1279  0.1666
 6062TIP3    H139821   4.509   6.468   8.615  0.0556  1.4254 -1.0523
 6062TIP3    H239822   4.585   6.393   8.508  0.4788 -0.2153  0.3400
 6063TIP3   OH239823   0.839   0.186   1.530  0.0296 -0.2080  0.2714
 6063TIP3    H139824   0.855   0.150   1.617 -1.1702 -1.1639  0.1207
 6063TIP3    H239825   0.902   0.140   1.474 -2.0522 -2.9334 -0.0785
 6064TIP3   OH239826   5.753   3.303   2.149  0.0698 -0.8497  0.0721
 6064TIP3    H139827   5.788   3.388   2.120  1.2014 -1.4036 -0.2450
 6064TIP3    H239828   5.676   3.325   2.200 -0.9743  0.2724 -1.8789
 6065TIP3   OH239829   1.439   0.215   6.960  0.4409  0.5501 -0.5129
 6065TIP3    H139830   1.526   0.181   6.982  0.1527 -0.0809 -0.3480
 6065TIP3    H239831   1.438   0.303   6.998  1.3728  0.9631 -1.3695
 6066TIP3   OH239832   1.403   5.914   1.994 -0.1835  0.6388 -0.4294
 6066TIP3    H139833   1.415   5.895   2.087 -0.0854  1.5404 -0.2491
 6066TIP3    H239834   1.403   6.010   1.989 -0.4259  0.5992 -1.3271
 6067TIP3   OH239835   2.653   2.473   1.835  0.2415 -0.7227  0.6064
 6067TIP3    H139836   2.684   2.400   1.888  1.5353  0.2924  1.2834
 6067TIP3    H239837   2.669   2.551   1.888  2.0531  0.3955 -1.4181
 6068TIP3   OH239838   0.718   4.086   7.848 -0.3661  0.1290 -0.4381
 6068TIP3    H139839   0.781   4.019   7.824 -0.5521 -0.2492  0.0943
 6068TIP3    H239840   0.768   4.167   7.852 -0.1138  0.0014 -0.9582
 6069TIP3   OH239841   2.352   6.617   8.093 -0.2602 -0.5409 -0.0722
 6069TIP3    H139842   2.318   6.538   8.135  0.4874 -0.6774  0.2881
 6069TIP3    H239843   2.445   6.599   8.080  0.1364  0.6788  0.9329
 6070TIP3   OH239844   3.710   4.760   7.407  0.0973  1.0156  0.2538
 6070TIP3    H139845   3.797   4.746   7.368 -0.2773  0.6587 -0.4698
 6070TIP3    H239846   3.680   4.843   7.371 -0.9432 -0.0852 -1.5720
 6071TIP3   OH239847   1.663   3.681   1.422  0.1794  0.0852 -0.5519
 6071TIP3    H139848   1.579   3.710   1.387  0.4599 -0.6885 -1.9183
 6071TIP3    H239849   1.642   3.649   1.510 -1.0847 -0.7268 -1.1233
 6072TIP3   OH239850   5.045   0.661   1.718 -0.2367  1.0068  0.2601
 6072TIP3    H139851   4.976   0.728   1.722  0.1861  1.4498  0.2897
 6072TIP3    H239852   5.044   0.621   1.805 -2.9288 -1.5561 -0.8296
 6073TIP3   OH239853   6.166   3.093   7.864  0.1519 -0.1100  0.5017
 6073TIP3    H139854   6.134   3.172   7.822 -0.9783  1.1371  3.4254
 6073TIP3    H239855   6.096   3.029   7.851  0.0194  0.1155  0.1065
 6074TIP3   OH239856   6.600   1.426   6.785  0.3852  0.0292  0.4042
 6074TIP3    H139857   6.693   1.426   6.809  0.3792 -1.3511  0.5097
 6074TIP3    H239858   6.578   1.333   6.776 -1.1834  0.2966  1.1613
 6075TIP3   OH239859   4.199   2.303   0.782 -0.5158 -0.0907 -0.0019
 6075TIP3    H139860   4.279   2.258   0.808 -1.9184 -2.6429  0.2240
 6075TIP3    H239861   4.226   2.359   0.709  1.5645 -0.4038  0.4644
 6076TIP3   OH239862   5.951   6.724   2.577 -0.4120  0.4504 -0.3103
 6076TIP3    H139863   5.896   6.655   2.542 -0.8257  0.6773 -0.1170
 6076TIP3    H239864   5.896   6.769   2.641  0.3394  0.0189  0.6629
 6077TIP3   OH239865   4.304   2.817   0.411 -0.0330 -0.2757 -0.0886
 6077TIP3    H139866   4.343   2.871   0.342 -0.1611  0.2849  0.2750
 6077TIP3    H239867   4.246   2.757   0.364  0.6495 -0.5753 -0.5572
 6078TIP3   OH239868   6.574   0.239   7.250 -0.5375 -0.1624  0.4285
 6078TIP3    H139869   6.665   0.243   7.219 -1.1660  0.1976 -1.4444
 6078TIP3    H239870   6.526   0.197   7.179 -1.7494 -1.0077  1.6833
 6079TIP3   OH239871   2.666   2.886   1.392 -0.4830 -0.0957  0.2758
 6079TIP3    H139872   2.680   2.980   1.403 -1.0656 -0.0127  0.3016
 6079TIP3    H239873   2.612   2.860   1.466 -1.4372 -0.1971 -0.4370
 6080TIP3   OH239874   6.646   3.030   1.756 -0.0922 -0.0746  0.4137
 6080TIP3    H139875   6.612   2.967   1.820 -1.9218  0.6228  0.1855
 6080TIP3    H239876   6.568   3.073   1.722  0.8824  0.0557 -1.7957
 6081TIP3   OH239877   4.140   3.884   2.877 -0.4756 -0.0513 -0.1691
 6081TIP3    H139878   4.127   3.887   2.972  1.0872 -0.0160  0.0744
 6081TIP3    H239879   4.059   3.845   2.843 -0.0015 -2.7298  1.4495
 6082TIP3   OH239880   4.017   5.470   8.478  0.3893  0.1605 -0.5175
 6082TIP3    H139881   4.109   5.445   8.485 -0.1160 -2.1636 -1.1275
 6082TIP3    H239882   4.019   5.563   8.457  2.6405 -0.0461 -1.5222
 6083TIP3   OH239883   2.507   4.211   7.699  0.1923  0.1209 -0.7817
 6083TIP3    H139884   2.435   4.172   7.649 -1.1127  1.8170 -0.3285
 6083TIP3    H239885   2.464   4.270   7.761  1.8354 -0.7396  1.3297
 6084TIP3   OH239886   2.151   0.536   1.734 -0.9142  0.2703  0.2778
 6084TIP3    H139887   2.220   0.590   1.771  0.1083 -1.0328  0.3670
 6084TIP3    H239888   2.123   0.583   1.655  0.8050  0.3356 -0.3343
 6085TIP3   OH239889   2.280   5.575   0.158 -0.2282 -0.3145 -0.5199
 6085TIP3    H139890   2.350   5.599   0.218 -1.9500  0.9229  1.1223
 6085TIP3    H239891   2.323   5.526   0.088  1.8709 -1.7754  1.6861
 6086TIP3   OH239892   5.481   3.517   8.153 -0.7505  0.5187 -0.0344
 6086TIP3    H139893   5.545   3.573   8.197  2.1083 -2.2999 -0.2616
 6086TIP3    H239894   5.474   3.552   8.065 -1.2442  2.1202  0.5966
 6087TIP3   OH239895   4.437   0.690   2.363  0.2001  0.1030  0.0700
 6087TIP3    H139896   4.366   0.754   2.362  0.0313 -0.0769  0.4410
 6087TIP3    H239897   4.403   0.616   2.313  0.0467 -0.0713  0.4367
 6088TIP3   OH239898   6.305   5.363   0.506 -0.2648  0.0686 -0.4557
 6088TIP3    H139899   6.378   5.353   0.567 -0.8011 -2.5028 -0.1070
 6088TIP3    H239900   6.346   5.383   0.422  0.6329  1.2401  0.2298
 6089TIP3   OH239901   1.556   5.935   6.757  0.0254 -0.7745  0.0839
 6089TIP3    H139902   1.626   5.981   6.710 -1.5623  1.4535 -0.2500
 6089TIP3    H239903   1.549   5.983   6.840 -1.8690 -0.1478 -0.3895
 6090TIP3   OH239904   4.829   0.845   8.122  0.3148  0.2068 -0.0833
 6090TIP3    H139905   4.736   0.828   8.139  0.3703  0.5928  0.6528
 6090TIP3    H239906   4.866   0.760   8.100 -0.0225 -0.1127  0.5699
 6091TIP3   OH239907   2.262   1.549   0.517  0.0119  0.0768 -0.5675
 6091TIP3    H139908   2.310   1.626   0.490 -2.1563  0.8987 -2.4090
 6091TIP3    H239909   2.245   1.501   0.436 -2.5152  0.0484 -0.1196
 6092TIP3   OH239910   0.646   5.701   0.023 -0.4424 -0.0172 -0.4353
 6092TIP3    H139911   0.563   5.661   0.050 -1.4367  0.6842 -2.2309
 6092TIP3    H239912   0.625   5.793   0.009 -0.3653 -0.3957 -4.2633
 6093TIP3   OH239913   2.493   0.290   1.187  0.4730 -1.0945 -1.1206
 6093TIP3    H139914   2.431   0.363   1.190  1.1335 -0.5635 -0.1949
 6093TIP3    H239915   2.492   0.262   1.095 -1.3033 -1.2496 -1.0872
 6094TIP3   OH239916   3.957   0.744   1.530  0.3537  0.1327 -0.2685
 6094TIP3    H139917   3.888   0.678   1.538  0.9816 -0.4623  0.3908
 6094TIP3    H239918   3.919   0.823   1.568  0.1703 -0.2961  0.4683
 6095TIP3   OH239919   1.306   2.321   7.277 -0.6438  0.1450  0.6930
 6095TIP3    H139920   1.380   2.369   7.315  0.6712 -0.2310 -1.2599
 6095TIP3    H239921   1.316   2.232   7.309 -1.0464  0.3784  1.4957
 6096TIP3   OH239922   0.239   5.516   0.646 -0.5343 -0.3854 -0.1900
 6096TIP3    H139923   0.303   5.445   0.656 -1.2512 -1.0039  0.0960
 6096TIP3    H239924   0.215   5.514   0.553  2.0895  1.8355 -1.0354
 6097TIP3   OH239925   4.619   4.187   1.092  0.2424  0.2065  0.0387
 6097TIP3    H139926   4.582   4.276   1.090 -0.4426 -0.0870 -0.9816
 6097TIP3    H239927   4.713   4.200   1.078  0.1919  0.7829  0.1865
 6098TIP3   OH239928   4.624   5.315   6.700 -0.5392 -0.2308 -0.2347
 6098TIP3    H139929   4.661   5.238   6.742 -1.3357 -0.5232 -0.0584
 6098TIP3    H239930   4.574   5.281   6.626  0.8652  0.2748 -1.4738
 6099TIP3   OH239931   3.143   3.204   1.278  0.7486  0.4055  0.5618
 6099TIP3    H139932   3.151   3.257   1.357 -0.5906 -0.3284  1.2328
 6099TIP3    H239933   3.222   3.150   1.277  1.9028  2.0232  0.1176
 6100TIP3   OH239934   1.514   5.043   1.809  0.0151 -0.0929  0.1762
 6100TIP3    H139935   1.589   4.995   1.773 -1.2955 -3.4054  1.5344
 6100TIP3    H239936   1.533   5.052   1.902 -0.5427  0.5710  0.2339
 6101TIP3   OH239937   0.523   2.683   7.653 -0.0275 -0.0252 -0.5286
 6101TIP3    H139938   0.486   2.740   7.720  0.7487  1.5728 -1.3948
 6101TIP3    H239939   0.599   2.643   7.694 -0.3981 -0.2207 -0.0127
 6102TIP3   OH239940   4.410   0.061   7.737 -0.2888 -0.1015 -0.0410
 6102TIP3    H139941   4.371   0.089   7.654 -0.4664  0.7793  0.3210
 6102TIP3    H239942   4.492   0.019   7.712 -1.3826 -1.9067 -0.8108
 6103TIP3   OH239943   0.376   3.375   7.202  0.5635  0.4654  0.4329
 6103TIP3    H139944   0.321   3.392   7.125  0.1168  2.6465  1.1628
 6103TIP3    H239945   0.331   3.304   7.249 -0.7134  1.0681  0.1476
 6104TIP3   OH239946   5.930   6.470   1.367  0.4503 -0.4613 -0.5212
 6104TIP3    H139947   5.939   6.443   1.459  0.6083 -0.9702 -0.6820
 6104TIP3    H239948   5.877   6.550   1.371  0.0632 -0.7328 -0.0225
 6105TIP3   OH239949   4.383   0.455   1.246 -0.7903 -0.0724 -0.3902
 6105TIP3    H139950   4.431   0.402   1.182  0.0402  0.2681 -0.0546
 6105TIP3    H239951   4.372   0.397   1.321  0.2837  0.2774  0.0495
 6106TIP3   OH239952   0.529   3.008   8.665  0.0088 -0.2692 -0.0350
 6106TIP3    H139953   0.478   3.032   8.588 -0.8208 -0.3627  0.4736
 6106TIP3    H239954   0.608   3.062   8.660  1.3355 -2.1774 -2.4179
 6107TIP3   OH239955   1.631   2.108   7.810 -0.1227 -0.1426  0.0328
 6107TIP3    H139956   1.677   2.176   7.860  1.7558  0.3482 -2.1822
 6107TIP3    H239957   1.592   2.154   7.736 -1.5013 -1.0604  0.1628
 6108TIP3   OH239958   0.464   4.076   8.118 -0.3062 -0.2061  0.3568
 6108TIP3    H139959   0.422   4.162   8.121 -1.1002 -0.4043 -2.3882
 6108TIP3    H239960   0.532   4.080   8.185 -0.9736  2.1920  0.9781
 6109TIP3   OH239961   2.574   4.137   1.670  0.2872 -0.0914  0.1928
 6109TIP3    H139962   2.500   4.077   1.659  0.8543 -0.9068  0.7176
 6109TIP3    H239963   2.536   4.214   1.711 -0.3798 -0.2601 -0.0857
 6110TIP3   OH239964   2.896   5.728   1.618 -0.0806  0.1541  1.1183
 6110TIP3    H139965   2.825   5.697   1.675 -0.4226  1.9865  1.7418
 6110TIP3    H239966   2.851   5.769   1.544  0.3245  0.8284  1.2404
 6111TIP3   OH239967   3.112   2.657   8.406  0.0591 -0.1281 -0.1797
 6111TIP3    H139968   3.183   2.714   8.380  0.5128 -0.8044 -0.4595
 6111TIP3    H239969   3.090   2.608   8.327 -1.0620  0.4219 -0.2310
 6112TIP3   OH239970   5.263   2.050   6.869 -0.3176  0.0738 -1.0172
 6112TIP3    H139971   5.194   2.030   6.932 -1.5131  1.2166 -1.9031
 6112TIP3    H239972   5.329   1.982   6.882 -0.0682  0.7553  2.0661
 6113TIP3   OH239973   0.187   1.660   0.071  0.9519 -0.2068 -0.1336
 6113TIP3    H139974   0.116   1.598   0.087  1.8807 -1.4821 -0.7777
 6113TIP3    H239975   0.143   1.744   0.059 -0.3019 -0.6164  1.2727
 6114TIP3   OH239976   2.586   5.404   1.370  0.0830  0.0566 -0.1773
 6114TIP3    H139977   2.676   5.423   1.395  0.4482 -0.4585 -1.0690
 6114TIP3    H239978   2.592   5.369   1.281 -1.2300  2.3805 -1.2575
 6115TIP3   OH239979   2.368   2.810   2.145 -0.1272  0.2124  0.0268
 6115TIP3    H139980   2.435   2.862   2.190 -1.7440  1.1977  1.4435
 6115TIP3    H239981   2.366   2.727   2.194  1.7193 -0.8605 -1.5790
 6116TIP3   OH239982   4.751   0.484   7.561 -0.0158  0.2804 -0.5493
 6116TIP3    H139983   4.777   0.495   7.470  0.4561 -1.2506 -0.6347
 6116TIP3    H239984   4.833   0.463   7.607 -0.1281  1.7367  0.3825
 6117TIP3   OH239985   2.597   5.578   0.228  0.1141  0.3791 -0.0272
 6117TIP3    H139986   2.645   5.510   0.181 -0.2441  1.5451 -2.2399
 6117TIP3    H239987   2.607   5.656   0.173 -1.0136  1.6458  1.4746
 6118TIP3   OH239988   3.456   5.516   2.703  0.4293 -0.3419  0.4073
 6118TIP3    H139989   3.432   5.500   2.794 -1.0067 -0.5959  0.0210
 6118TIP3    H239990   3.405   5.593   2.678 -0.1591 -1.0034 -0.5112
 6119TIP3   OH239991   4.706   4.728   7.769  0.2257  0.4859  0.4901
 6119TIP3    H139992   4.736   4.780   7.843  1.1403 -1.3957  1.5146
 6119TIP3    H239993   4.681   4.644   7.808  4.1263 -1.9325 -1.6346
 6120TIP3   OH239994   1.130   2.064   8.148  0.4310  0.3630  0.1920
 6120TIP3    H139995   1.175   2.117   8.214  0.9941  1.1511 -0.7773
 6120TIP3    H239996   1.124   1.977   8.186 -0.7148  1.1488  1.9362
 6121TIP3   OH239997   6.358   3.498   7.096 -0.1297 -1.0135 -0.0131
 6121TIP3    H139998   6.322   3.544   7.020  0.7740 -0.1452  0.0771
 6121TIP3    H239999   6.452   3.512   7.091 -0.1404  0.2185  1.9964
 6122TIP3   OH240000   5.272   5.093   8.592  0.0448  0.0024 -0.3534
 6122TIP3    H140001   5.202   5.110   8.656  0.3062  0.0199 -0.0673
 6122TIP3    H240002   5.249   5.010   8.552  0.0778 -0.1954  0.0385
 6123TIP3   OH240003   5.300   0.875   1.394 -0.5741 -0.2962  0.0635
 6123TIP3    H140004   5.264   0.794   1.429 -1.4272 -0.0455 -0.2116
 6123TIP3    H240005   5.378   0.848   1.345 -1.7904 -1.1525 -1.4416
 6124TIP3   OH240006   2.422   6.275   0.270 -0.2954 -0.5685 -0.5755
 6124TIP3    H140007   2.484   6.317   0.330 -0.4585 -0.3330 -0.5680
 6124TIP3    H240008   2.354   6.240   0.327 -0.2531 -0.6824 -0.5956
 6125TIP3   OH240009   4.577   0.819   8.202 -0.0303  0.2005  0.6237
 6125TIP3    H140010   4.558   0.890   8.263 -0.8775 -0.3715  1.0446
 6125TIP3    H240011   4.616   0.751   8.257  0.1708  0.0813  0.3359
 6126TIP3   OH240012   0.036   3.621   7.883  0.2306  0.3477  1.0060
 6126TIP3    H140013   0.111   3.566   7.863 -1.5436 -1.6299 -0.6373
 6126TIP3    H240014   0.030   3.682   7.809 -0.6710 -0.5880  0.2685
 6127TIP3   OH240015   0.614   3.848   1.308  0.5296  0.5294  0.3726
 6127TIP3    H140016   0.688   3.882   1.257  0.2368  0.2208 -0.2605
 6127TIP3    H240017   0.627   3.753   1.308 -0.2502  0.4169 -0.3450
 6128TIP3   OH240018   5.985   3.655   1.632  0.3012 -0.2224 -0.0058
 6128TIP3    H140019   6.055   3.593   1.614 -0.6827 -1.2913 -0.3009
 6128TIP3    H240020   5.907   3.616   1.592 -0.3360  1.2751 -0.3213
 6129TIP3   OH240021   4.346   2.727   8.522  0.8535  0.2993  0.0358
 6129TIP3    H140022   4.389   2.667   8.582 -0.4623 -0.3144  0.3931
 6129TIP3    H240023   4.378   2.701   8.435  1.5215  0.1439  0.3228
 6130TIP3   OH240024   2.286   4.436   8.422 -0.0246  0.2944  0.5619
 6130TIP3    H140025   2.360   4.378   8.436  0.3773  0.8545  0.7552
 6130TIP3    H240026   2.297   4.469   8.333 -0.2771  0.0473  0.4357
 6131TIP3   OH240027   1.387   5.052   2.583  0.0237  0.0019  0.4597
 6131TIP3    H140028   1.417   4.971   2.625 -1.6722 -2.1574 -2.1619
 6131TIP3    H240029   1.295   5.035   2.562 -0.6124  2.9380  0.4018
 6132TIP3   OH240030   4.550   2.944   6.998 -0.2402 -0.0380 -0.0041
 6132TIP3    H140031   4.595   2.899   7.070  0.2408  0.6433  0.1291
 6132TIP3    H240032   4.458   2.920   7.008  0.3050 -3.4371 -1.6753
 6133TIP3   OH240033   1.109   6.320   2.668  0.3202 -0.2994  0.1776
 6133TIP3    H140034   1.014   6.327   2.654  0.3024 -0.1889  0.3547
 6133TIP3    H240035   1.132   6.236   2.630  0.3639  0.2383 -1.0463
 6134TIP3   OH240036   1.732   4.603   7.421  0.4674 -0.0703  0.5279
 6134TIP3    H140037   1.713   4.526   7.475 -0.8313 -0.1251  0.0291
 6134TIP3    H240038   1.663   4.666   7.444 -0.6349 -0.4105 -1.6329
 6135TIP3   OH240039   4.348   3.330   3.056  0.2730  0.6208 -0.2722
 6135TIP3    H140040   4.291   3.257   3.034 -0.6813  1.1725  0.3048
 6135TIP3    H240041   4.301   3.378   3.124  1.8170  0.6012  0.8790
 6136TIP3   OH240042   3.150   0.557   8.003  1.4862  1.0820 -0.6978
 6136TIP3    H140043   3.086   0.527   7.939  1.8917 -1.2200 -0.1082
 6136TIP3    H240044   3.235   0.545   7.960  1.9246 -2.4195  0.8088
 6137TIP3   OH240045   3.296   4.559   7.350  0.0011  0.1346  0.9870
 6137TIP3    H140046   3.276   4.623   7.418  0.5780 -1.0511  2.3332
 6137TIP3    H240047   3.384   4.529   7.371  0.5443  0.3509 -0.8189
 6138TIP3   OH240048   0.006   3.708   8.454 -0.0264 -0.0980 -0.3196
 6138TIP3    H140049  -0.014   3.623   8.494 -0.7126  1.3632  2.7572
 6138TIP3    H240050   0.083   3.739   8.502 -0.1497  1.2758 -0.9616
 6139TIP3   OH240051   2.595   4.888   6.909  0.5247  0.2992  0.5364
 6139TIP3    H140052   2.541   4.965   6.926  1.1037  0.7824  0.2375
 6139TIP3    H240053   2.647   4.912   6.832  0.8010 -0.3423  0.5156
 6140TIP3   OH240054   6.791   5.144   7.315  0.2785  0.5773 -0.1991
 6140TIP3    H140055   6.795   5.205   7.241  0.8207 -1.3441 -1.8472
 6140TIP3    H240056   6.720   5.083   7.292 -0.3063  0.5888  1.4350
 6141TIP3   OH240057   0.593   4.709   7.940  0.2663  0.5201 -0.4870
 6141TIP3    H140058   0.666   4.681   7.884  1.3082  2.2612 -0.0672
 6141TIP3    H240059   0.593   4.804   7.934 -1.0253  0.6312  0.7387
 6142TIP3   OH240060   6.518   2.721   1.589 -0.3729  0.1790  0.8206
 6142TIP3    H140061   6.479   2.759   1.511 -0.7377 -1.2528  0.2777
 6142TIP3    H240062   6.466   2.643   1.607  0.7011 -0.4055  1.5382
 6143TIP3   OH240063   4.040   3.676   0.027 -0.1204  0.1875  0.4713
 6143TIP3    H140064   4.086   3.634  -0.046 -0.5603  1.2396 -0.4518
 6143TIP3    H240065   4.096   3.750   0.051 -0.6210  0.6247  0.3033
 6144TIP3   OH240066   2.335   0.879   8.700 -0.3026  0.2114  0.2758
 6144TIP3    H140067   2.380   0.805   8.660  0.4043  0.5690  0.3957
 6144TIP3    H240068   2.250   0.844   8.726 -0.1851 -0.4145 -0.1615
 6145TIP3   OH240069   4.929   6.662   0.080 -0.3545 -0.0239  0.0202
 6145TIP3    H140070   4.837   6.636   0.091 -0.8292  2.3929  2.9638
 6145TIP3    H240071   4.932   6.699  -0.009 -1.9192 -1.1692 -0.5615
 6146TIP3   OH240072   4.527   5.553   8.148  0.2789 -0.6656 -1.2343
 6146TIP3    H140073   4.498   5.463   8.132  2.2005 -1.5414 -0.1372
 6146TIP3    H240074   4.621   5.552   8.129  0.5877  0.7701  0.0113
 6147TIP3   OH240075   2.441   3.019   8.583 -0.4024 -0.0550  0.1926
 6147TIP3    H140076   2.481   2.987   8.663 -1.1407  0.3810  0.7516
 6147TIP3    H240077   2.423   3.112   8.601  0.6481  0.4055 -0.9650
 6148TIP3   OH240078   1.387   5.104   7.836  0.2129  0.3725  0.6599
 6148TIP3    H140079   1.463   5.070   7.883 -1.0022 -2.1118  1.0178
 6148TIP3    H240080   1.398   5.072   7.746  0.9959  2.5212 -0.0772
 6149TIP3   OH240081   3.174   5.380   7.189 -0.0139  0.0997 -0.1800
 6149TIP3    H140082   3.145   5.291   7.209  1.2652 -0.0015  1.4103
 6149TIP3    H240083   3.118   5.437   7.242  0.5465  0.0944  0.4329
 6150TIP3   OH240084   2.555   0.614   1.511  0.4916  0.2673  0.3848
 6150TIP3    H140085   2.571   0.522   1.492 -0.5779  0.3812 -1.2532
 6150TIP3    H240086   2.613   0.662   1.452  1.7281  0.6989  1.8654
 6151TIP3   OH240087   6.502   1.214   1.828 -0.4597 -0.3161  0.3655
 6151TIP3    H140088   6.596   1.200   1.819 -0.6502 -1.4390 -0.0533
 6151TIP3    H240089   6.486   1.214   1.922 -0.0075  0.2150  0.4489
 6152TIP3   OH240090   6.691   2.180   7.954 -0.3718 -0.1108  0.1059
 6152TIP3    H140091   6.703   2.087   7.933 -1.7310  0.1308 -1.9792
 6152TIP3    H240092   6.692   2.224   7.869 -0.8061  1.6697  0.9803
 6153TIP3   OH240093   3.574   3.106   7.252 -0.0361  0.4127 -0.6269
 6153TIP3    H140094   3.599   3.028   7.302 -3.2760 -0.0555  0.4912
 6153TIP3    H240095   3.551   3.072   7.166  0.4491  0.4606 -0.7813
 6154TIP3   OH240096   6.518   4.090   2.188  0.3069 -0.2421 -1.0516
 6154TIP3    H140097   6.594   4.049   2.231 -0.3446 -1.7826 -1.3262
 6154TIP3    H240098   6.444   4.066   2.243 -0.0355  1.1359 -0.8715
 6155TIP3   OH240099   2.780   2.295   2.145  0.2874 -0.2614 -0.1385
 6155TIP3    H140100   2.809   2.334   2.063 -0.5044  3.1979  1.0718
 6155TIP3    H240101   2.822   2.348   2.213 -3.0783  0.3766  1.6383
 6156TIP3   OH240102   2.863   2.787   8.795  0.3698 -0.0946  0.5628
 6156TIP3    H140103   2.883   2.816   8.706  0.4600 -0.0776  0.5888
 6156TIP3    H240104   2.930   2.828   8.849 -0.6791  1.2923  0.8635
 6157TIP3   OH240105   4.861   5.060   8.193  0.1780 -0.1031 -0.3303
 6157TIP3    H140106   4.920   4.985   8.193  0.0218 -0.2258 -0.1399
 6157TIP3    H240107   4.793   5.038   8.257  1.1739  1.0231  1.2073
 6158TIP3   OH240108   3.735   4.072   7.974  0.3091 -0.3461 -0.5881
 6158TIP3    H140109   3.695   3.985   7.975  0.2476 -0.3160 -0.3682
 6158TIP3    H240110   3.736   4.099   8.065 -3.3375  1.5548 -0.8942
 6159TIP3   OH240111   4.354   2.702   7.661 -0.5272  0.1527  0.1659
 6159TIP3    H140112   4.437   2.749   7.666 -0.8653  0.6284  2.2745
 6159TIP3    H240113   4.358   2.655   7.578  0.5972  2.4316 -1.1692
 6160TIP3   OH240114   0.298   3.510   0.012  0.0582  0.4520  0.0307
 6160TIP3    H140115   0.368   3.451   0.038 -0.5717  0.6772  2.4741
 6160TIP3    H240116   0.219   3.474   0.054 -1.1930  0.5911 -2.0770
 6161TIP3   OH240117   4.714   6.757   0.381  0.5057  0.1142 -0.3441
 6161TIP3    H140118   4.802   6.745   0.415  1.3329  1.2948 -1.9669
 6161TIP3    H240119   4.705   6.691   0.313  0.0978 -0.0614 -0.1224
 6162TIP3   OH240120   5.477   5.077   0.407 -0.6901 -0.0259 -0.4908
 6162TIP3    H140121   5.433   5.032   0.335 -0.0190  1.1221 -1.6579
 6162TIP3    H240122   5.421   5.152   0.426  0.3348  1.0362 -1.4933
 6163TIP3   OH240123   1.894   3.405   0.943 -0.1773 -0.6624  0.2748
 6163TIP3    H140124   1.879   3.370   1.031  0.6984  0.2158  0.7936
 6163TIP3    H240125   1.837   3.481   0.938  0.4171 -0.2033  0.4158
 6164TIP3   OH240126   3.970   3.219   2.403  0.5042 -0.4228 -0.2946
 6164TIP3    H140127   3.911   3.227   2.479  1.6189  3.5628  0.3659
 6164TIP3    H240128   3.933   3.278   2.338  0.9872 -1.8623 -1.9477
 6165TIP3   OH240129   5.068   4.413   7.946  0.0601 -0.2428 -0.7895
 6165TIP3    H140130   5.012   4.345   7.984  0.6558 -0.2393  0.1310
 6165TIP3    H240131   5.032   4.495   7.981 -0.8930 -0.0203 -2.1962
 6166TIP3   OH240132   0.505   5.787   8.418  0.3840 -0.0716 -0.2691
 6166TIP3    H140133   0.519   5.881   8.407  0.5300 -0.0158  0.4082
 6166TIP3    H240134   0.467   5.778   8.505 -2.9223 -0.2995 -1.5521
 6167TIP3   OH240135   4.059   2.119   1.033 -0.1533 -0.2462 -0.3788
 6167TIP3    H140136   4.009   2.082   1.106  0.3944  0.6487  0.4827
 6167TIP3    H240137   4.133   2.060   1.023 -0.7203 -0.8944 -0.8478
 6168TIP3   OH240138   3.784   5.879   1.090  0.5235  0.2494  0.1058
 6168TIP3    H140139   3.827   5.873   1.005  1.8511  1.6801  0.6227
 6168TIP3    H240140   3.744   5.793   1.104 -0.8142  0.3650 -2.4893
 6169TIP3   OH240141   5.135   4.249   0.350  0.0759 -0.0819  0.8376
 6169TIP3    H140142   5.167   4.211   0.268 -0.4779 -0.5904  0.8549
 6169TIP3    H240143   5.179   4.334   0.355  0.5684 -0.2974  0.3106
 6170TIP3   OH240144   5.719   5.277   8.563  0.2441 -0.4879 -0.1309
 6170TIP3    H140145   5.627   5.280   8.537  0.0785 -0.6104  0.4178
 6170TIP3    H240146   5.722   5.207   8.629  0.7501 -0.5591 -0.2307
 6171TIP3   OH240147   2.038   0.818   1.775 -0.2037 -0.3286  0.2400
 6171TIP3    H140148   2.035   0.770   1.692  0.2738  2.3397 -1.4764
 6171TIP3    H240149   2.131   0.821   1.798 -0.3213 -0.9429  0.7911
 6172TIP3   OH240150   1.776   1.283   7.860 -0.7057  0.7848  0.4898
 6172TIP3    H140151   1.716   1.357   7.860 -1.5515  0.1248  1.5032
 6172TIP3    H240152   1.734   1.218   7.805 -0.9088  0.3479  1.1437
 6173TIP3   OH240153   1.538   3.329   1.074  0.5393 -0.3923 -0.2450
 6173TIP3    H140154   1.573   3.411   1.039 -0.6505  0.1154 -0.2754
 6173TIP3    H240155   1.600   3.263   1.044  0.8944  0.3500 -1.2121
 6174TIP3   OH240156   5.262   6.783   2.253  0.0064 -0.1705 -0.0764
 6174TIP3    H140157   5.222   6.814   2.172 -1.5668  0.9773  1.0864
 6174TIP3    H240158   5.265   6.688   2.244 -1.2161 -0.1373 -0.9907
 6175TIP3   OH240159   5.225   1.931   0.764  0.2565 -0.1216 -0.2824
 6175TIP3    H140160   5.256   1.911   0.852  1.4480  0.1015 -0.6341
 6175TIP3    H240161   5.247   1.854   0.712 -1.7718 -0.8782 -0.1106
 6176TIP3   OH240162   4.918   2.585   7.886  0.4131 -0.1836  0.0082
 6176TIP3    H140163   5.003   2.606   7.923 -0.9384  2.2579  2.0801
 6176TIP3    H240164   4.900   2.495   7.915  2.3521 -0.8664 -0.7722
 6177TIP3   OH240165   4.089   0.343   7.894  0.0447 -0.1037 -0.2167
 6177TIP3    H140166   4.104   0.250   7.909  0.3506 -0.1601 -0.8395
 6177TIP3    H240167   4.164   0.371   7.841  0.3766  0.6772  0.6353
 6178TIP3   OH240168   0.297   0.742   8.640  0.2991 -0.0115 -0.1386
 6178TIP3    H140169   0.336   0.816   8.594  2.0243  0.0549  1.3055
 6178TIP3    H240170   0.310   0.668   8.581 -0.2625  0.5805 -1.0320
 6179TIP3   OH240171   0.589   4.150   1.324 -0.5216 -0.4356 -0.5524
 6179TIP3    H140172   0.528   4.199   1.269 -1.3053 -0.0063  0.6499
 6179TIP3    H240173   0.602   4.067   1.279 -0.0547  0.4235 -2.0648
 6180TIP3   OH240174   4.082   5.192   0.756  0.0389  0.0288  0.2045
 6180TIP3    H140175   4.003   5.167   0.804 -1.1376 -1.6660 -2.4084
 6180TIP3    H240176   4.118   5.109   0.723  2.2871  0.8736  0.3297
 6181TIP3   OH240177   5.631   1.858   0.924  0.3195 -0.1584  0.1516
 6181TIP3    H140178   5.580   1.848   0.843 -1.4748  1.6246  0.9738
 6181TIP3    H240179   5.713   1.899   0.895 -0.2122  0.2791 -0.8028
 6182TIP3   OH240180   2.294   2.095   7.657 -0.1459 -0.5498 -0.6473
 6182TIP3    H140181   2.293   2.051   7.572  1.2946  1.6170 -1.8960
 6182TIP3    H240182   2.349   2.172   7.643  0.8321 -0.5407  2.5101
 6183TIP3   OH240183   6.323   2.453   7.357  0.0596 -0.4396  0.0868
 6183TIP3    H140184   6.327   2.449   7.262  2.7875 -1.5892  0.1405
 6183TIP3    H240185   6.232   2.435   7.378 -1.0480  1.6866 -2.2952
 6184TIP3   OH240186   1.394   4.237   2.042  0.5404  0.0521 -0.3286
 6184TIP3    H140187   1.430   4.210   2.126 -0.1437 -2.3304 -0.7394
 6184TIP3    H240188   1.361   4.326   2.057  0.5948 -0.2604  1.8575
 6185TIP3   OH240189   0.991   2.672   8.173 -0.2670  0.1677 -0.4160
 6185TIP3    H140190   0.972   2.588   8.215 -0.9406 -0.2452 -1.4940
 6185TIP3    H240191   1.030   2.726   8.242 -0.0045 -0.9639  0.3389
 6186TIP3   OH240192   0.235   0.725   0.074 -0.0801  0.0885  0.2618
 6186TIP3    H140193   0.236   0.819   0.055 -0.6410  0.0722  0.1482
 6186TIP3    H240194   0.229   0.683  -0.012  0.5038 -0.0629  0.2901
 6187TIP3   OH240195   4.746   6.196   1.324 -0.2084 -0.4126 -0.0500
 6187TIP3    H140196   4.771   6.267   1.383 -1.3787 -1.1343  1.3977
 6187TIP3    H240197   4.711   6.128   1.382 -1.9064 -0.9560 -1.6117
 6188TIP3   OH240198   6.169   2.357   8.156  0.6112  0.7447 -0.5204
 6188TIP3    H140199   6.161   2.263   8.140  1.5293  0.7059 -0.8076
 6188TIP3    H240200   6.191   2.394   8.070  1.6990  1.0352 -0.1270
 6189TIP3   OH240201   0.758   1.125   7.957 -0.4099  0.1627 -0.0112
 6189TIP3    H140202   0.840   1.166   7.984 -0.9213  1.1104  0.1542
 6189TIP3    H240203   0.697   1.198   7.948 -1.3804 -0.5783  0.3960
 6190TIP3   OH240204   6.832   4.310   1.215  0.7194  0.0107  0.0375
 6190TIP3    H140205   6.870   4.314   1.303  2.5296 -0.8758 -0.6347
 6190TIP3    H240206   6.876   4.380   1.166 -0.1596  0.4040 -0.1976
 6191TIP3   OH240207   3.318   0.591   1.294  0.4909  0.2723 -0.7381
 6191TIP3    H140208   3.306   0.649   1.219  0.4570  0.5400 -0.5273
 6191TIP3    H240209   3.398   0.543   1.275 -0.0251 -0.3370 -1.3848
 6192TIP3   OH240210   1.200   0.078   8.593  0.1776 -0.9089 -1.0601
 6192TIP3    H140211   1.279   0.089   8.645 -0.5623  0.9999 -0.2218
 6192TIP3    H240212   1.143   0.025   8.648 -0.7337  1.3844  0.3980
 6193TIP3   OH240213   4.378   1.064   8.677 -0.2842  0.3675  0.4803
 6193TIP3    H140214   4.360   1.041   8.768 -2.3549  1.1342  0.3032
 6193TIP3    H240215   4.322   1.006   8.625  0.2028  0.5539 -0.2732
 6194TIP3   OH240216   6.039   1.803   7.969 -0.3039  0.2197  0.7389
 6194TIP3    H140217   6.085   1.723   7.998 -1.1096 -0.4716  0.1499
 6194TIP3    H240218   5.970   1.815   8.035 -1.4455 -0.7327 -0.2271
 6195TIP3   OH240219   4.188   0.138   0.364 -0.1511 -0.1538  0.9564
 6195TIP3    H140220   4.257   0.072   0.364  0.6143  0.6061  2.3502
 6195TIP3    H240221   4.171   0.155   0.457 -1.9744 -0.0622  0.6425
 6196TIP3   OH240222   5.120   6.096   0.331  0.5699  0.4299 -0.1141
 6196TIP3    H140223   5.131   6.179   0.378  1.2304  0.2029  0.1473
 6196TIP3    H240224   5.200   6.087   0.278  0.6087 -0.1429  0.0282
 6197TIP3   OH240225   2.931   6.609   8.169 -0.4006 -0.5854  0.4796
 6197TIP3    H140226   2.893   6.638   8.086 -1.7230  0.5548  1.4476
 6197TIP3    H240227   2.929   6.514   8.164 -1.9293 -0.5484 -0.1667
 6198TIP3   OH240228   4.952   2.415   0.381 -0.1612 -0.0657  0.1741
 6198TIP3    H140229   4.858   2.426   0.396 -0.1670 -1.3068  1.2059
 6198TIP3    H240230   4.965   2.442   0.290 -1.3247  1.1401  0.3490
 6199TIP3   OH240231   3.231   3.494   0.523 -0.6390  0.2834 -0.0350
 6199TIP3    H140232   3.301   3.470   0.583 -1.1219 -0.1426  0.3769
 6199TIP3    H240233   3.160   3.524   0.580 -1.1780 -0.3104 -0.3736
 6200TIP3   OH240234   5.158   6.659   0.890  0.2325 -0.6164 -0.9169
 6200TIP3    H140235   5.145   6.638   0.982  1.2201 -0.7378 -0.7983
 6200TIP3    H240236   5.110   6.740   0.876  0.7944 -0.1336 -0.0819
 6201TIP3   OH240237   2.671   5.793   0.088  0.3249 -0.0986  0.2070
 6201TIP3    H140238   2.766   5.797   0.105  0.8847 -0.4770 -2.3636
 6201TIP3    H240239   2.644   5.885   0.087  0.6281  0.0134  1.0271
 6202TIP3   OH240240   6.189   5.269   2.149  0.0579  0.2339 -0.0194
 6202TIP3    H140241   6.105   5.308   2.172  0.2160  0.0019  1.0092
 6202TIP3    H240242   6.250   5.302   2.214  0.4267 -0.8318  0.2094
 6203TIP3   OH240243   4.597   0.905   7.885  0.0054 -0.3318  0.1143
 6203TIP3    H140244   4.516   0.908   7.936  0.0240  0.0280  0.1228
 6203TIP3    H240245   4.588   0.977   7.822 -0.7965 -1.8115 -1.5627
 6204TIP3   OH240246   3.460   5.179   0.775  0.3350  0.2687 -0.1964
 6204TIP3    H140247   3.403   5.209   0.704 -2.2330 -1.1982  1.0748
 6204TIP3    H240248   3.504   5.258   0.807 -2.5712  1.9240  0.0229
 6205TIP3   OH240249   6.421   6.548   7.737 -0.0370  0.3511 -0.3794
 6205TIP3    H140250   6.445   6.561   7.645 -0.8458 -1.7224 -0.9403
 6205TIP3    H240251   6.420   6.453   7.748  2.3453  0.4855  2.4130
 6206TIP3   OH240252   4.166   1.145   1.939 -0.0334  0.6701 -0.4422
 6206TIP3    H140253   4.158   1.158   2.034  2.1466  0.1439 -0.1128
 6206TIP3    H240254   4.218   1.065   1.930 -0.7578  0.3459 -2.1104
 6207TIP3   OH240255   0.777   2.046   1.475  0.0169 -0.1493  0.3998
 6207TIP3    H140256   0.694   2.016   1.513  0.3241 -0.6701  0.6601
 6207TIP3    H240257   0.808   2.114   1.536  0.2432 -0.6077  0.7986
 6208TIP3   OH240258   0.846   2.750   6.693  0.5811 -0.2039  0.3943
 6208TIP3    H140259   0.895   2.716   6.768 -2.0681 -1.5928  1.6460
 6208TIP3    H240260   0.824   2.673   6.641 -1.7970  0.0531  0.8994
 6209TIP3   OH240261   4.833   4.300   8.370 -0.0542  0.1306  0.3105
 6209TIP3    H140262   4.820   4.209   8.344 -2.3879  0.9045 -1.5525
 6209TIP3    H240263   4.835   4.297   8.466  0.7619 -1.9265  0.2912
 6210TIP3   OH240264   5.624   2.563   1.281 -0.5881 -0.0222 -0.3392
 6210TIP3    H140265   5.536   2.552   1.246  0.3251 -0.0399 -2.8544
 6210TIP3    H240266   5.637   2.486   1.337 -1.5772 -0.9296 -1.2924
 6211TIP3   OH240267   4.328   0.358   0.590  0.0469 -0.7119  0.0892
 6211TIP3    H140268   4.346   0.410   0.668  1.7035  0.5432 -1.0522
 6211TIP3    H240269   4.232   0.360   0.580 -0.1260 -0.3406  1.6874
 6212TIP3   OH240270   5.043   6.026   8.639  0.1584  0.3595  0.9929
 6212TIP3    H140271   5.041   6.104   8.693 -0.8477  0.5126  0.7629
 6212TIP3    H240272   5.136   6.005   8.629  0.4017  1.1055  1.6474
 6213TIP3   OH240273   6.430   3.105   1.639  0.2032 -0.0261  0.1108
 6213TIP3    H140274   6.376   3.173   1.597  0.2972  1.1280  1.7858
 6213TIP3    H240275   6.367   3.041   1.670 -0.0095  0.0813 -0.0920
 6214TIP3   OH240276   4.668   0.681   8.427  1.0138 -0.1018 -0.3828
 6214TIP3    H140277   4.624   0.674   8.511  1.0559  2.9365  0.0298
 6214TIP3    H240278   4.734   0.612   8.428  2.5507  1.1803  3.1388
 6215TIP3   OH240279   4.551   4.983   7.853 -0.2631  0.1916 -0.0798
 6215TIP3    H140280   4.586   4.908   7.902 -1.4586 -0.6101 -0.3842
 6215TIP3    H240281   4.623   5.012   7.798  0.0534 -1.1908 -0.4475
 6216TIP3   OH240282   0.792   2.936   0.253  0.4039 -0.1957  0.0378
 6216TIP3    H140283   0.703   2.926   0.220  0.0653  2.0047  0.1022
 6216TIP3    H240284   0.847   2.938   0.175  0.1091  0.6995 -0.1563
 6217TIP3   OH240285   1.967   0.961   2.235  0.0732  0.6451  0.3964
 6217TIP3    H140286   2.060   0.962   2.256  0.1218 -2.6972  0.8757
 6217TIP3    H240287   1.923   0.940   2.317 -0.6845 -1.6749 -0.5032
 6218TIP3   OH240288   1.168   3.646   0.055  0.0676  0.2692 -0.1430
 6218TIP3    H140289   1.179   3.552   0.038 -1.0540  0.1988 -0.5779
 6218TIP3    H240290   1.206   3.688  -0.022 -1.4213  0.0792 -1.0133
 6219TIP3   OH240291   6.387   0.026   1.040  0.2873 -0.4601  0.1113
 6219TIP3    H140292   6.328   0.100   1.053  1.5712  0.3462  1.6091
 6219TIP3    H240293   6.330  -0.051   1.045 -0.8656  0.3480 -0.1345
 6220TIP3   OH240294   5.732   5.433   7.381 -0.7234 -0.2062 -0.5080
 6220TIP3    H140295   5.721   5.514   7.331 -0.8361  1.3114  1.8128
 6220TIP3    H240296   5.644   5.400   7.394 -0.8450  0.3583  0.1449
 6221TIP3   OH240297   1.046   4.568   8.700  0.8910 -0.5224 -0.8076
 6221TIP3    H140298   1.054   4.600   8.789  0.9161 -0.8420 -0.6925
 6221TIP3    H240299   1.017   4.477   8.710 -0.7655 -0.0649 -1.1482
 6222TIP3   OH240300   3.381   4.653   7.091 -0.9158  0.1094 -0.5406
 6222TIP3    H140301   3.425   4.663   7.176 -1.0576 -0.7923 -0.3544
 6222TIP3    H240302   3.385   4.740   7.052  0.7482  0.1277 -0.3886
 6223TIP3   OH240303   3.442   3.929   8.803 -0.3615  0.0919  0.2733
 6223TIP3    H140304   3.494   3.966   8.731  0.4318 -1.4785 -0.0027
 6223TIP3    H240305   3.444   3.835   8.788  0.6505 -0.3829  2.9020
 6224TIP3   OH240306   3.682   1.581   1.719 -0.4557  0.1526  1.0658
 6224TIP3    H140307   3.657   1.538   1.801 -0.9511 -0.3821  0.6475
 6224TIP3    H240308   3.678   1.674   1.738 -1.7934  0.0611  1.3173
 6225TIP3   OH240309   1.971   2.552   1.109 -0.1233  0.2963 -0.0331
 6225TIP3    H140310   1.970   2.603   1.190 -1.2534  0.7769 -0.3265
 6225TIP3    H240311   2.038   2.593   1.055  1.5772 -0.8385  1.1366
 6226TIP3   OH240312   2.576   4.518   2.225  0.0609  0.1353 -0.2207
 6226TIP3    H140313   2.557   4.541   2.134  1.2288 -0.7343 -0.7042
 6226TIP3    H240314   2.567   4.600   2.273 -1.6183  0.4075 -0.9233
 6227TIP3   OH240315   6.739   5.919   2.298 -0.4361 -0.4446 -0.1815
 6227TIP3    H140316   6.704   5.970   2.371 -0.6318 -0.0929 -0.5124
 6227TIP3    H240317   6.788   5.848   2.339 -0.6586 -0.3306  0.2883
 6228TIP3   OH240318   4.579   1.083   1.394 -0.2902 -0.5210 -0.3298
 6228TIP3    H140319   4.543   0.994   1.381  1.3759 -1.2997  0.1804
 6228TIP3    H240320   4.606   1.084   1.486 -0.4855  0.6083 -0.2811
 6229TIP3   OH240321   5.933   1.312   2.104  0.5626  0.4435  0.1400
 6229TIP3    H140322   5.892   1.266   2.177 -0.0817  0.6142 -0.1106
 6229TIP3    H240323   5.871   1.380   2.080  1.5596  1.5335  0.5736
 6230TIP3   OH240324   1.612   4.244   7.885  0.0046 -0.1080  0.0671
 6230TIP3    H140325   1.616   4.159   7.842 -1.1712  0.0385 -0.3753
 6230TIP3    H240326   1.634   4.307   7.816  0.5151 -0.0255  0.3013
 6231TIP3   OH240327   0.722   2.069   0.468 -0.5601  0.1689  0.1484
 6231TIP3    H140328   0.797   2.115   0.505 -0.1535 -0.4097  0.0557
 6231TIP3    H240329   0.699   2.003   0.534 -0.7682  0.1172  0.0269
 6232TIP3   OH240330   5.575   5.438   1.470 -0.2609  0.1148 -0.0840
 6232TIP3    H140331   5.528   5.508   1.516 -0.5845  0.0447 -0.3071
 6232TIP3    H240332   5.642   5.484   1.419  1.1167  0.1067  1.6066
 6233TIP3   OH240333   2.989   6.727   8.390  0.1339  0.5234 -0.0421
 6233TIP3    H140334   2.972   6.681   8.308 -1.3817  1.1147 -0.0948
 6233TIP3    H240335   3.062   6.680   8.430 -0.8538 -1.4558 -0.4372
 6234TIP3   OH240336   1.988   0.338   8.814  0.2237 -0.5521  0.1005
 6234TIP3    H140337   2.030   0.365   8.732  0.8086  0.5107  0.7418
 6234TIP3    H240338   2.060   0.314   8.871 -0.2317 -2.9689 -0.2124
 6235TIP3   OH240339   3.746   0.157   1.964 -0.0046 -0.1858  0.2657
 6235TIP3    H140340   3.749   0.114   2.050 -1.1404  0.9467  0.9011
 6235TIP3    H240341   3.833   0.144   1.928  0.2965 -1.2513  1.3129
 6236TIP3   OH240342   4.165   4.882   0.355  0.2085  0.0358  0.3547
 6236TIP3    H140343   4.152   4.816   0.424 -1.7703 -0.4382 -0.3973
 6236TIP3    H240344   4.203   4.956   0.401 -1.1200 -0.2369  2.0354
 6237TIP3   OH240345   0.854   1.205   1.793 -0.1650  0.0552 -0.2194
 6237TIP3    H140346   0.838   1.142   1.724 -1.9949  0.2557 -0.0371
 6237TIP3    H240347   0.907   1.273   1.753  1.4198 -1.3261 -0.5474
 6238TIP3   OH240348   0.217   4.689   0.852  0.0565 -0.2867 -0.1254
 6238TIP3    H140349   0.303   4.726   0.833 -0.0869  0.1125 -0.0094
 6238TIP3    H240350   0.155   4.746   0.808 -0.3707  1.3816  2.4171
 6239TIP3   OH240351   1.447   1.304   6.721 -0.0735  0.0466  0.4118
 6239TIP3    H140352   1.515   1.251   6.678 -0.9010 -0.1332 -0.7335
 6239TIP3    H240353   1.397   1.242   6.773 -0.1170 -0.0415  0.2662
 6240TIP3   OH240354   1.102   1.647   0.260 -0.1443 -0.5371 -0.5905
 6240TIP3    H140355   1.007   1.657   0.268  0.0460  0.7912  0.1877
 6240TIP3    H240356   1.138   1.698   0.332  1.1846 -0.7535 -1.0787
 6241TIP3   OH240357   4.682   1.838   0.089 -0.5938  0.0534 -0.4666
 6241TIP3    H140358   4.684   1.894   0.166 -1.1492 -0.2478 -0.2221
 6241TIP3    H240359   4.650   1.754   0.121 -1.6787  0.1729 -1.1696
 6242TIP3   OH240360   5.643   2.876   8.488 -0.5002  0.4382 -0.3393
 6242TIP3    H140361   5.645   2.873   8.392 -0.0747  1.0846 -0.3610
 6242TIP3    H240362   5.577   2.942   8.508  0.6708  1.6201 -0.2400
 6243TIP3   OH240363   1.321   5.487   7.897 -0.5768 -0.4180 -0.2411
 6243TIP3    H140364   1.315   5.435   7.977 -0.9875 -3.3676 -2.0368
 6243TIP3    H240365   1.251   5.453   7.840  1.9096 -1.0805 -3.1867
 6244TIP3   OH240366   6.400   4.284   7.963  0.0017  0.2206 -0.7432
 6244TIP3    H140367   6.447   4.282   8.047 -1.0545  1.1768 -0.1039
 6244TIP3    H240368   6.383   4.192   7.944 -1.4095  0.0380  1.0950
 6245TIP3   OH240369   1.289   4.951   8.439 -0.0018 -0.3016 -0.8691
 6245TIP3    H140370   1.250   5.004   8.370 -1.8996  0.9035  1.0100
 6245TIP3    H240371   1.260   4.861   8.419 -1.8808  0.2522 -0.8148
 6246TIP3   OH240372   1.857   4.109   0.812 -0.6312 -0.2221 -0.2950
 6246TIP3    H140373   1.778   4.133   0.763  0.0659  1.2151 -0.7725
 6246TIP3    H240374   1.873   4.017   0.789 -1.6916 -0.2864 -0.8307
 6247TIP3   OH240375   1.290   1.931   0.906  0.0955  0.5139 -0.1770
 6247TIP3    H140376   1.366   1.937   0.964 -2.2576 -0.7249  3.3960
 6247TIP3    H240377   1.267   2.022   0.887  0.7574  0.9874  1.1552
 6248TIP3   OH240378   1.815   5.893   1.709  0.1497 -0.4087  0.0830
 6248TIP3    H140379   1.836   5.986   1.710  0.1009 -0.3482 -1.5882
 6248TIP3    H240380   1.775   5.876   1.794  2.4955  0.5049  1.4552
 6249TIP3   OH240381   5.682   2.873   1.660  0.2848  0.3320 -0.4867
 6249TIP3    H140382   5.691   2.781   1.688  1.0881  0.7035  0.5428
 6249TIP3    H240383   5.626   2.869   1.582 -0.6495 -0.9247  0.2069
 6250TIP3   OH240384   5.761   1.007   2.137 -0.2307 -0.0845  0.1857
 6250TIP3    H140385   5.795   0.931   2.184 -2.4863 -1.0234  0.4258
 6250TIP3    H240386   5.774   1.080   2.197  0.1859 -0.6144  0.7567
 6251TIP3   OH240387   5.968   2.088   0.828 -0.0914 -0.0347 -0.4419
 6251TIP3    H140388   5.915   2.061   0.904 -1.4009 -1.2492 -1.7203
 6251TIP3    H240389   6.038   2.023   0.823 -0.4719 -0.4237 -0.7363
 6252TIP3   OH240390   2.825   1.860   1.095  0.0822  0.4458 -0.4678
 6252TIP3    H140391   2.846   1.778   1.139 -1.4162  0.7330  0.8543
 6252TIP3    H240392   2.853   1.846   1.005  0.6620 -1.1946 -0.0706
 6253TIP3   OH240393   4.195   2.169   0.014 -0.3610  0.4175  0.0404
 6253TIP3    H140394   4.111   2.201  -0.019 -0.2025  1.2775  0.4588
 6253TIP3    H240395   4.240   2.137  -0.064 -0.2491  1.8480 -0.5169
 6254TIP3   OH240396   0.793   4.513   2.113 -0.3804  0.6286 -0.3681
 6254TIP3    H140397   0.833   4.481   2.194 -0.1018 -0.8376 -1.0588
 6254TIP3    H240398   0.864   4.558   2.067  0.1281 -0.6844 -0.9091
 6255TIP3   OH240399   6.691   1.946   2.522 -0.0668 -0.9389 -0.1764
 6255TIP3    H140400   6.634   2.021   2.539  1.7137  1.0551 -2.3175
 6255TIP3    H240401   6.688   1.894   2.602 -2.2621  0.8191  0.9652
 6256TIP3   OH240402   5.720   4.026   1.808 -0.2121  0.0164  0.7323
 6256TIP3    H140403   5.739   4.038   1.715  0.0627 -0.0828  0.7733
 6256TIP3    H240404   5.689   3.936   1.815 -1.3699  0.3907  0.5640
 6257TIP3   OH240405   2.835   0.816   1.476  0.5319 -0.8879 -0.8332
 6257TIP3    H140406   2.917   0.782   1.441  0.8101 -1.4417  0.2969
 6257TIP3    H240407   2.781   0.834   1.399  0.5585 -3.4574 -1.5581
 6258TIP3   OH240408   0.779   1.417   2.077  0.0717 -0.0517  0.2919
 6258TIP3    H140409   0.785   1.462   2.162 -1.1459  1.3062 -0.3011
 6258TIP3    H240410   0.714   1.467   2.028  0.0761 -1.3682 -1.1222
 6259TIP3   OH240411   3.101   3.530   2.080  0.2247 -0.1140 -0.1820
 6259TIP3    H140412   3.085   3.602   2.019  0.2775  0.3556  0.3594
 6259TIP3    H240413   3.179   3.555   2.129 -1.5201  1.0019  2.2493
 6260TIP3   OH240414   4.208   1.971   1.566  0.0815 -0.1795  0.6758
 6260TIP3    H140415   4.175   1.945   1.480  0.3103 -1.3651  0.9256
 6260TIP3    H240416   4.188   1.897   1.623  0.5252  0.3112  1.4921
 6261TIP3   OH240417   5.640   0.021   8.443  0.3685  0.7564  0.4811
 6261TIP3    H140418   5.586   0.090   8.403  0.0801  1.6965  2.3610
 6261TIP3    H240419   5.581  -0.053   8.452  0.5917  0.3262 -1.2819
 6262TIP3   OH240420   0.199   1.383   7.589  0.2080 -0.1510 -0.7867
 6262TIP3    H140421   0.125   1.370   7.530 -1.0591  1.5210  0.3550
 6262TIP3    H240422   0.174   1.338   7.669  1.3030 -1.2012 -1.0036
 6263TIP3   OH240423   0.153   1.860   2.065  0.3317  0.4293 -0.0373
 6263TIP3    H140424   0.203   1.930   2.022 -0.3945  0.1064 -1.4573
 6263TIP3    H240425   0.151   1.886   2.157  1.4048  1.4741 -0.2815
 6264TIP3   OH240426   2.040   2.433   7.378 -0.0875 -0.3883  0.2244
 6264TIP3    H140427   2.035   2.340   7.398  1.0950 -1.0424 -2.1083
 6264TIP3    H240428   2.107   2.467   7.438  0.7116 -1.4265 -0.0539
 6265TIP3   OH240429   2.479   0.505   2.618 -0.2071 -0.5864 -0.1408
 6265TIP3    H140430   2.498   0.413   2.635 -0.6065 -0.5793  0.3364
 6265TIP3    H240431   2.460   0.508   2.524  0.5356 -0.8611 -0.3117
 6266TIP3   OH240432   1.870   2.974   1.804  0.4824  0.8124  0.8762
 6266TIP3    H140433   1.840   3.036   1.872 -1.0799  0.1472  0.8348
 6266TIP3    H240434   1.914   3.029   1.740  0.0358  1.7508  1.3494
 6267TIP3   OH240435   5.946   3.574   0.782  0.5804  0.2280 -0.7243
 6267TIP3    H140436   5.934   3.636   0.854  0.2344 -2.0648  1.3227
 6267TIP3    H240437   6.028   3.601   0.740  1.9214  0.4906  1.8501
 6268TIP3   OH240438   2.253   2.802   8.750 -0.1507 -0.1344  0.6759
 6268TIP3    H140439   2.281   2.878   8.699 -0.8292  0.4431  1.1416
 6268TIP3    H240440   2.330   2.777   8.800 -0.5509  1.7890  2.3778
 6269TIP3   OH240441   0.627   2.071   0.899  1.0836 -0.5440  0.6307
 6269TIP3    H140442   0.700   2.056   0.839 -0.3713 -1.5603 -0.9619
 6269TIP3    H240443   0.605   2.164   0.887  1.8551 -0.3203  0.8687
 6270TIP3   OH240444   3.978   2.838   0.274  0.1559  0.2197 -0.5313
 6270TIP3    H140445   4.027   2.773   0.325  1.6831 -0.3316 -2.5627
 6270TIP3    H240446   3.886   2.819   0.295  0.5642 -2.2666 -0.6160
 6271TIP3   OH240447   2.233   1.765   1.108 -0.0314  0.3307  0.4043
 6271TIP3    H140448   2.306   1.725   1.060 -0.0678 -1.9957  2.1048
 6271TIP3    H240449   2.176   1.800   1.039  1.0338 -0.8077 -1.1337
 6272TIP3   OH240450   3.985   3.542   7.433 -0.9770  0.1743 -0.5057
 6272TIP3    H140451   4.014   3.507   7.518 -2.9061  0.0958  0.1710
 6272TIP3    H240452   3.940   3.468   7.391 -2.2098  0.8917 -0.4912
 6273TIP3   OH240453   0.522   0.366   8.788  0.4721  0.1331 -0.1149
 6273TIP3    H140454   0.603   0.316   8.773 -0.5484 -1.5065 -0.3457
 6273TIP3    H240455   0.553   0.455   8.810  2.3037 -0.2285 -1.0209
 6274TIP3   OH240456   6.200   6.605   1.369 -0.0532 -0.5993 -0.0299
 6274TIP3    H140457   6.230   6.599   1.279 -0.0977 -0.8402 -0.0274
 6274TIP3    H240458   6.108   6.577   1.367 -0.0208 -0.7196  0.1081
 6275TIP3   OH240459   0.464   0.889   8.242  0.3220  0.0617 -0.0143
 6275TIP3    H140460   0.414   0.933   8.311 -1.0484 -1.8749  0.3036
 6275TIP3    H240461   0.517   0.824   8.287  2.7319  1.6068 -0.4321
 6276TIP3   OH240462   2.795   3.050   7.575  0.2308  0.4304 -0.2751
 6276TIP3    H140463   2.779   3.132   7.529 -0.5381 -1.7704 -4.3830
 6276TIP3    H240464   2.855   3.002   7.519 -1.7764 -3.0135  0.2259
 6277TIP3   OH240465   1.139   3.843   6.756 -0.1683 -0.2430  0.0102
 6277TIP3    H140466   1.126   3.938   6.759  1.6029  0.0871 -1.2314
 6277TIP3    H240467   1.232   3.831   6.773 -0.1794 -1.6952 -0.8152
 6278TIP3   OH240468   2.631   5.001   8.339  0.0867  0.4449 -0.2750
 6278TIP3    H140469   2.544   5.005   8.378  0.3604  2.4165  0.2782
 6278TIP3    H240470   2.691   5.010   8.414  0.7477  0.0138 -0.7357
 6279TIP3   OH240471   3.116   2.163   1.583  0.2833  0.0571 -0.1196
 6279TIP3    H140472   3.053   2.234   1.567 -0.9469 -0.9507  0.0215
 6279TIP3    H240473   3.197   2.193   1.544 -0.2146  1.5341 -0.0772
 6280TIP3   OH240474   4.280   1.504   8.679  0.1833  0.1300 -0.2239
 6280TIP3    H140475   4.338   1.580   8.686  1.1886 -0.7587  2.2324
 6280TIP3    H240476   4.334   1.430   8.707 -1.0820 -1.3660 -1.5061
 6281TIP3   OH240477   4.809   4.645   8.507  0.7172 -0.1684  0.2652
 6281TIP3    H140478   4.724   4.660   8.466  1.3159 -2.1915 -1.9260
 6281TIP3    H240479   4.840   4.733   8.530 -1.4569  0.6938  0.1359
 6282TIP3   OH240480   3.510   4.607   2.045 -0.4411 -0.8301 -0.1183
 6282TIP3    H140481   3.509   4.573   2.135  0.5596  0.4470  0.4211
 6282TIP3    H240482   3.423   4.587   2.010 -0.6083 -1.9742  0.8817
 6283TIP3   OH240483   6.328   0.032   1.442 -0.1294  0.1583  0.7280
 6283TIP3    H140484   6.298  -0.053   1.410 -0.4969  1.0321 -1.3930
 6283TIP3    H240485   6.247   0.077   1.469 -0.4125  1.1286 -1.5324
 6284TIP3   OH240486   4.469   0.038   8.154  0.0978  0.4784  0.2297
 6284TIP3    H140487   4.465   0.002   8.242 -0.7939 -0.0819 -0.0231
 6284TIP3    H240488   4.436  -0.032   8.097 -0.9444  1.4091 -0.3562
 6285TIP3   OH240489   4.104   0.770   8.689  0.2322 -0.1714 -0.1319
 6285TIP3    H140490   4.039   0.832   8.655  0.2418 -0.1889 -0.1837
 6285TIP3    H240491   4.060   0.727   8.762  1.0307  1.5170  1.3950
 6286TIP3   OH240492   4.461   2.205   2.735  0.3603 -0.0518 -0.3070
 6286TIP3    H140493   4.489   2.269   2.669  1.0272 -1.6970 -1.7041
 6286TIP3    H240494   4.521   2.219   2.809  0.0848  1.3331 -0.3242
 6287TIP3   OH240495   6.268   4.593   8.151 -0.7417 -0.4291  0.3673
 6287TIP3    H140496   6.211   4.664   8.122  0.1801 -0.0165 -0.4598
 6287TIP3    H240497   6.352   4.635   8.168 -0.5661 -1.0949  1.2363
 6288TIP3   OH240498   1.208   3.843   7.119  0.2450 -0.3888  0.1711
 6288TIP3    H140499   1.258   3.904   7.174  0.1144  1.6424 -1.8273
 6288TIP3    H240500   1.269   3.819   7.049 -0.7894  0.2244 -0.9709
 6289TIP3   OH240501   4.168   2.761   7.870  0.2986  0.2828  0.2938
 6289TIP3    H140502   4.217   2.730   7.794  0.1385 -1.0272  0.6873
 6289TIP3    H240503   4.105   2.691   7.887 -0.4174  1.0656  0.9598
 6290TIP3   OH240504   4.568   5.219   7.121  0.5419 -0.5268  0.1288
 6290TIP3    H140505   4.581   5.303   7.078 -1.0032 -0.1298  0.3773
 6290TIP3    H240506   4.615   5.156   7.066  2.6149  0.6013  0.5125
 6291TIP3   OH240507   5.459   6.256   8.239 -0.3787 -0.3167 -0.2597
 6291TIP3    H140508   5.430   6.236   8.150 -1.5052 -0.3403  0.1013
 6291TIP3    H240509   5.448   6.173   8.286  1.7441 -0.7719 -0.4518
 6292TIP3   OH240510   2.065   0.649   7.320  0.1919  0.1346 -0.1157
 6292TIP3    H140511   2.110   0.591   7.382  0.5123 -0.0973 -0.5667
 6292TIP3    H240512   2.013   0.590   7.266 -0.5464  0.3833  0.2958
 6293TIP3   OH240513   3.818   4.958   8.754  0.1486 -0.4714 -0.8090
 6293TIP3    H140514   3.859   4.885   8.708 -0.8158 -1.0361 -0.7853
 6293TIP3    H240515   3.831   5.033   8.695  2.0197 -0.4090 -0.3850
 6294TIP3   OH240516   4.491   1.774   1.863 -0.1857 -0.1619 -0.3645
 6294TIP3    H140517   4.534   1.779   1.777  1.9423 -0.7142  0.5930
 6294TIP3    H240518   4.499   1.863   1.898  0.3525 -0.2980 -0.1278
 6295TIP3   OH240519   5.365   6.115   0.119  0.2752  0.0661 -0.6079
 6295TIP3    H140520   5.404   6.072   0.044 -1.1840 -0.1253 -1.2849
 6295TIP3    H240521   5.366   6.208   0.096  1.4626  0.2095 -0.0654
 6296TIP3   OH240522   5.532   1.431   7.385 -0.0489  0.3566  0.0101
 6296TIP3    H140523   5.534   1.419   7.480 -0.7249 -0.4898 -0.0675
 6296TIP3    H240524   5.444   1.405   7.360 -0.1156  1.2900 -0.7734
 6297TIP3   OH240525   0.466   6.352   8.112 -0.2840  0.7931 -0.2023
 6297TIP3    H140526   0.387   6.374   8.161 -0.4275  2.3110 -1.0372
 6297TIP3    H240527   0.450   6.265   8.077 -1.1240  0.6363  0.5541
 6298TIP3   OH240528   4.338   1.741   0.074  0.1510  0.3683  0.4321
 6298TIP3    H140529   4.391   1.671   0.111  0.6503  0.5539  0.0883
 6298TIP3    H240530   4.389   1.772  -0.001 -0.1875  0.9182  0.4223
 6299TIP3   OH240531   0.885   0.427   0.998 -0.4218  0.2035  0.5839
 6299TIP3    H140532   0.867   0.349   1.051  0.2305 -0.9971 -0.8756
 6299TIP3    H240533   0.978   0.444   1.011  0.6815 -2.2544 -2.7207
 6300TIP3   OH240534   4.526   5.901   2.622  0.2568 -0.2851 -0.2407
 6300TIP3    H140535   4.491   5.987   2.600  1.5771  0.1230 -0.8454
 6300TIP3    H240536   4.619   5.917   2.641 -0.1351 -1.0781  2.8679
 6301TIP3   OH240537   2.293   2.663   1.182 -0.7171  0.5794 -0.1506
 6301TIP3    H140538   2.351   2.628   1.113 -0.3487 -1.8756  1.3039
 6301TIP3    H240539   2.351   2.718   1.235 -0.2197 -0.0647 -0.0046
 6302TIP3   OH240540   4.899   0.160   0.126 -0.2864  0.4166  0.0432
 6302TIP3    H140541   4.884   0.153   0.221 -1.5974  2.8987  0.0993
 6302TIP3    H240542   4.826   0.213   0.094  0.1203 -0.3707 -2.3971
 6303TIP3   OH240543   6.826   4.632   7.327  0.0853 -0.9483 -0.2474
 6303TIP3    H140544   6.764   4.653   7.257  1.9111  1.4080 -1.2850
 6303TIP3    H240545   6.783   4.662   7.407 -0.9213 -1.2574 -0.6507
 6304TIP3   OH240546   3.047   2.007   0.698 -0.6174  0.0570 -0.4308
 6304TIP3    H140547   3.111   1.994   0.628 -0.2438  1.5242 -0.3856
 6304TIP3    H240548   3.005   2.090   0.677 -1.9849 -0.4941 -0.0319
 6305TIP3   OH240549   2.066   0.492   2.010 -0.2470  0.0072 -0.3452
 6305TIP3    H140550   2.110   0.556   2.067  0.0275 -0.2059 -0.3174
 6305TIP3    H240551   2.078   0.527   1.922  0.0038 -0.0641 -0.3408
 6306TIP3   OH240552   4.008   3.434   1.370  0.2599 -0.3132 -0.4364
 6306TIP3    H140553   3.962   3.353   1.393 -1.0185  0.2767 -0.8298
 6306TIP3    H240554   3.992   3.445   1.276 -0.2900  0.8223 -0.2243
 6307TIP3   OH240555   0.460   6.067   8.054  0.4866 -0.0686 -0.4705
 6307TIP3    H140556   0.544   6.024   8.067 -0.0641 -1.6128 -1.6185
 6307TIP3    H240557   0.456   6.084   7.960 -0.2838  0.4239 -0.3603
 6308TIP3   OH240558   3.354   0.978   1.545 -0.8738 -0.7283 -0.4189
 6308TIP3    H140559   3.323   1.037   1.613 -0.0662 -1.5373  0.6798
 6308TIP3    H240560   3.354   1.031   1.465 -2.2212  0.1184  0.1105
 6309TIP3   OH240561   5.411   4.395   1.198  0.0431 -0.8535  0.6204
 6309TIP3    H140562   5.359   4.462   1.244 -0.4665 -0.9660  0.2220
 6309TIP3    H240563   5.491   4.388   1.249  0.6722  0.9904 -0.0401
 6310TIP3   OH240564   3.707   5.034   2.133  0.1818 -0.1325 -0.0525
 6310TIP3    H140565   3.719   4.965   2.068  1.9095  0.5326 -0.5042
 6310TIP3    H240566   3.796   5.061   2.156 -0.4308  1.9960  0.0399
 6311TIP3   OH240567   2.902   5.599   0.877 -0.2807 -0.0739 -0.6450
 6311TIP3    H140568   2.996   5.606   0.896 -0.6580  0.0232  1.3960
 6311TIP3    H240569   2.891   5.646   0.795  1.6457 -1.1933 -1.6176
 6312TIP3   OH240570   2.561   0.672   2.045 -0.1232 -0.5033  0.4426
 6312TIP3    H140571   2.533   0.638   2.130 -0.8872  0.1368  0.4676
 6312TIP3    H240572   2.588   0.595   1.995 -3.4458 -1.4788 -0.1321
 6313TIP3   OH240573   2.174   0.935   7.792 -0.6353 -0.2556  0.0500
 6313TIP3    H140574   2.181   0.843   7.818  0.3742  0.2213  1.6474
 6313TIP3    H240575   2.265   0.966   7.790 -0.9659  0.7295 -0.3800
 6314TIP3   OH240576   2.101   3.822   2.366  0.6526 -0.0673  0.2154
 6314TIP3    H140577   2.142   3.777   2.440 -1.4595 -3.7127 -0.5927
 6314TIP3    H240578   2.011   3.837   2.394  0.4068  0.4879 -0.8426
 6315TIP3   OH240579   2.772   3.918   2.235  0.3632 -0.2840 -0.4434
 6315TIP3    H140580   2.834   3.955   2.172 -0.3262  0.1437 -0.8902
 6315TIP3    H240581   2.694   3.973   2.227 -0.9447 -2.1758 -1.5980
 6316TIP3   OH240582   6.775   4.774   8.676 -0.1512  0.3395  0.3762
 6316TIP3    H140583   6.838   4.827   8.724 -0.4698  0.4155  0.7205
 6316TIP3    H240584   6.692   4.822   8.685  0.0111  0.9927 -1.2766
 6317TIP3   OH240585   1.986   2.859   8.279  0.5949  0.2441 -0.3513
 6317TIP3    H140586   2.080   2.859   8.299  0.3284  0.6528  1.0150
 6317TIP3    H240587   1.972   2.939   8.229  0.9703  0.1849 -0.5558
 6318TIP3   OH240588   2.013   2.686   8.766  0.2006  0.4527 -0.2795
 6318TIP3    H140589   1.982   2.718   8.682  1.7029  1.5061 -0.4767
 6318TIP3    H240590   2.105   2.712   8.769  0.6186 -1.0168  0.9904
 6319TIP3   OH240591   0.530   0.932   1.709  0.0641 -0.4845 -0.3418
 6319TIP3    H140592   0.596   0.993   1.677  1.6331 -2.2581 -0.6551
 6319TIP3    H240593   0.574   0.847   1.710 -1.2606 -1.2654  2.3518
 6320TIP3   OH240594   3.298   4.049   7.449 -0.2516  0.1004 -0.0436
 6320TIP3    H140595   3.259   4.079   7.531  1.0468  0.3086  0.5235
 6320TIP3    H240596   3.265   3.960   7.437 -0.3574  0.0216  0.7728
 6321TIP3   OH240597   0.438   4.768   7.271  0.0389 -0.1317  0.3074
 6321TIP3    H140598   0.514   4.710   7.270  0.3917  0.3181  0.5819
 6321TIP3    H240599   0.379   4.731   7.336 -0.9521 -1.6905 -1.3891
 6322TIP3   OH240600   4.685   0.712   0.957 -0.0812 -0.2373 -0.5849
 6322TIP3    H140601   4.666   0.806   0.962  0.1442 -0.1602 -1.1236
 6322TIP3    H240602   4.614   0.670   1.007 -2.2015 -0.0281 -3.1816
 6323TIP3   OH240603   2.272   2.788   7.297  0.2865 -0.0529 -0.3931
 6323TIP3    H140604   2.309   2.855   7.239  1.2222 -0.3803 -0.1806
 6323TIP3    H240605   2.181   2.778   7.266 -0.1211  1.8479  0.0508
 6324TIP3   OH240606   2.506   5.922   1.015  0.1862 -0.1088 -0.0868
 6324TIP3    H140607   2.489   5.834   1.050 -1.5520  0.3692  0.3419
 6324TIP3    H240608   2.584   5.911   0.960  0.5913 -1.7060  0.7424
 6325TIP3   OH240609   3.026   2.210   0.325  0.0636  0.0890 -0.0871
 6325TIP3    H140610   2.985   2.295   0.338 -1.3430 -0.4948 -0.5018
 6325TIP3    H240611   2.969   2.165   0.263  0.4825 -1.3534  0.5183
 6326TIP3   OH240612   3.069   4.351   2.275 -0.4343  0.4886  0.0633
 6326TIP3    H140613   2.976   4.368   2.259 -0.2316  0.9858 -0.6492
 6326TIP3    H240614   3.112   4.436   2.263  0.4712 -0.2364 -2.5024
 6327TIP3   OH240615   3.020   3.350   1.799  0.0796  0.0437 -0.3572
 6327TIP3    H140616   3.105   3.323   1.764  0.5723 -2.0309  2.1096
 6327TIP3    H240617   3.041   3.412   1.869 -0.0212 -2.5397  2.1856
 6328TIP3   OH240618   5.484   3.096   6.943  0.0740 -0.5130  0.0809
 6328TIP3    H140619   5.565   3.131   6.977  0.9453 -2.0357 -0.3218
 6328TIP3    H240620   5.471   3.140   6.859  0.4201 -0.1926  0.1952
 6329TIP3   OH240621   6.542   0.705   1.762 -0.7195 -0.1173  0.7337
 6329TIP3    H140622   6.478   0.638   1.740  0.7853 -1.0833 -1.0113
 6329TIP3    H240623   6.549   0.759   1.683  0.4824  0.0473  0.9261
 6330TIP3   OH240624   0.212   1.923   1.397 -0.1714 -0.0019  0.2864
 6330TIP3    H140625   0.290   1.914   1.452 -0.3595  0.2175  0.5926
 6330TIP3    H240626   0.183   2.013   1.411  0.0630  0.2126 -0.5589
 6331TIP3   OH240627   5.340   5.147   8.279 -0.1501 -0.6164  0.3467
 6331TIP3    H140628   5.391   5.182   8.352 -0.0818 -1.3895  0.6769
 6331TIP3    H240629   5.251   5.179   8.294  0.5550  2.4490 -1.3211
 6332TIP3   OH240630   5.410   6.493   1.109  0.1248 -0.2078  0.4712
 6332TIP3    H140631   5.366   6.414   1.077  0.1666  0.6984 -2.0476
 6332TIP3    H240632   5.501   6.467   1.118  0.1290 -0.4767 -0.2913
 6333TIP3   OH240633   3.890   3.860   1.138 -0.1945  0.7353 -0.4350
 6333TIP3    H140634   3.880   3.771   1.106 -1.7920  0.2787  1.1549
 6333TIP3    H240635   3.952   3.901   1.078 -2.0788 -0.3798 -3.3480
 6334TIP3   OH240636   4.481   3.677   8.502 -0.4352 -0.2064  0.0496
 6334TIP3    H140637   4.558   3.672   8.445  0.6540 -3.0812  1.5913
 6334TIP3    H240638   4.408   3.649   8.447 -0.1010  0.7124 -0.8989
 6335TIP3   OH240639   4.718   4.988   8.480 -0.4816  0.1452 -0.3456
 6335TIP3    H140640   4.629   4.955   8.469 -0.8495  1.7496 -2.6168
 6335TIP3    H240641   4.715   5.079   8.452  1.8094  0.3740 -0.0866
 6336TIP3   OH240642   0.858   1.513   8.046 -0.5200 -0.0963 -0.1451
 6336TIP3    H140643   0.845   1.539   7.954  2.6622  0.5992 -0.5157
 6336TIP3    H240644   0.878   1.419   8.042 -0.8718 -0.1779 -0.0740
 6337TIP3   OH240645   4.276   2.514   1.178 -0.2044  0.8650  0.0370
 6337TIP3    H140646   4.218   2.577   1.135  1.1945  1.9161 -0.4060
 6337TIP3    H240647   4.300   2.453   1.108 -0.2949  0.8005  0.0628
 6338TIP3   OH240648   3.927   3.924   3.062  0.2635 -0.1870 -0.9550
 6338TIP3    H140649   3.952   4.006   3.104 -2.0699 -0.2564  0.7343
 6338TIP3    H240650   3.878   3.951   2.985  0.7985 -0.0393 -1.2530
 6339TIP3   OH240651   2.651   0.948   7.574  0.0531 -0.4976  0.7398
 6339TIP3    H140652   2.575   0.926   7.627  1.2151 -1.0969  2.2149
 6339TIP3    H240653   2.682   1.032   7.610 -0.2950  0.1109 -0.3217
 6340TIP3   OH240654   3.100   4.263   3.016 -0.8274 -0.1805  0.1871
 6340TIP3    H140655   3.014   4.304   3.025 -0.2849  1.0556 -0.0512
 6340TIP3    H240656   3.082   4.179   2.973 -2.0113 -0.3956  1.0575
 6341TIP3   OH240657   3.713   0.780   2.258 -0.1221  0.0540  0.0054
 6341TIP3    H140658   3.753   0.699   2.290 -1.1125 -0.2377  0.5300
 6341TIP3    H240659   3.786   0.830   2.222  0.4310 -1.3215 -0.8557
 6342TIP3   OH240660   5.777   0.832   1.042 -0.3744 -0.9087  0.0537
 6342TIP3    H140661   5.743   0.841   1.131  1.7187  0.0994  0.8003
 6342TIP3    H240662   5.844   0.764   1.048  0.3524 -0.2630 -0.5608
 6343TIP3   OH240663   5.048   0.779   2.777 -0.1387  0.0779  0.4951
 6343TIP3    H140664   5.092   0.718   2.718 -1.7687 -1.7911  1.0939
 6343TIP3    H240665   5.118   0.823   2.824  1.1575  0.3753 -1.5839
 6344TIP3   OH240666   6.267   5.983   8.503  0.0530 -0.1151  0.6173
 6344TIP3    H140667   6.177   5.969   8.473 -0.2058  2.1337  0.1768
 6344TIP3    H240668   6.317   5.912   8.463 -1.2078 -0.2655 -0.7529
 6345TIP3   OH240669   4.634   5.395   8.844 -0.4628 -0.2317  0.6135
 6345TIP3    H140670   4.676   5.453   8.781  1.2387 -0.9333  1.0610
 6345TIP3    H240671   4.706   5.356   8.893 -1.7085 -0.4899  2.3098
 6346TIP3   OH240672   5.148   3.710   8.644 -0.4846 -0.4358 -0.0365
 6346TIP3    H140673   5.156   3.682   8.553 -0.2987  1.4153 -0.6326
 6346TIP3    H240674   5.054   3.718   8.659 -0.5467 -1.5557  0.2117
 6347TIP3   OH240675   3.263   5.322   0.162  0.2316  0.1386  0.4925
 6347TIP3    H140676   3.348   5.337   0.203  0.2759  0.1353  0.4004
 6347TIP3    H240677   3.210   5.398   0.187  0.6824  0.8276 -0.6015
 6348TIP3   OH240678   2.157   3.831   1.834  0.8275 -0.2297  0.1794
 6348TIP3    H140679   2.093   3.877   1.889 -1.0274  0.3869 -2.3288
 6348TIP3    H240680   2.152   3.740   1.863 -1.8980 -0.3808 -0.4250
 6349TIP3   OH240681   4.738   4.708   2.088  0.1074 -0.0321  0.4569
 6349TIP3    H140682   4.717   4.688   1.996 -1.1215 -0.9579  0.9212
 6349TIP3    H240683   4.824   4.668   2.101  0.4948  0.4733 -0.3918
 6350TIP3   OH240684   6.202   3.740   0.386  0.2389  0.1626 -0.1198
 6350TIP3    H140685   6.238   3.798   0.318  1.8280 -0.1445  0.4347
 6350TIP3    H240686   6.201   3.653   0.345  1.2398 -0.0306  0.2482
 6351TIP3   OH240687   5.652   3.395   1.090 -0.0609 -0.1122  0.0308
 6351TIP3    H140688   5.740   3.426   1.070  0.4022  0.7327  2.8733
 6351TIP3    H240689   5.621   3.454   1.159 -3.1393 -0.0017 -1.2769
 6352TIP3   OH240690   4.714   1.943   1.261  0.0507  0.4662  0.1950
 6352TIP3    H140691   4.742   1.922   1.172 -0.5449  0.3725  0.0258
 6352TIP3    H240692   4.730   2.037   1.270  0.7371  0.3508  0.2220
 6353TIP3   OH240693   1.786   5.301   0.050 -0.2919  0.2019  0.3455
 6353TIP3    H140694   1.863   5.331   0.002 -1.5396  0.8741 -1.3525
 6353TIP3    H240695   1.821   5.257   0.127  1.7854  0.0492 -0.6184
 6354TIP3   OH240696   2.029   5.078   0.034  0.3592 -0.1608 -0.3525
 6354TIP3    H140697   2.082   5.135   0.090 -2.8377  2.3192  0.4924
 6354TIP3    H240698   1.962   5.043   0.092 -1.7862  0.7873 -2.0948
 6355TIP3   OH240699   4.044   5.322   0.507 -0.4234 -0.6550  0.2911
 6355TIP3    H140700   4.036   5.282   0.593  3.2542  0.1423  1.1970
 6355TIP3    H240701   3.998   5.405   0.515  1.3816  0.2728  2.2535
 6356TIP3   OH240702   0.400   6.598   0.927  0.7543  0.1476  0.4466
 6356TIP3    H140703   0.377   6.689   0.909 -1.7246 -0.3437  0.7097
 6356TIP3    H240704   0.435   6.598   1.016  0.5201  0.7978  0.5415
 6357TIP3   OH240705   3.218   4.928   7.316 -0.3456  0.0757  0.3171
 6357TIP3    H140706   3.163   4.856   7.286 -0.3292  0.1370  0.1358
 6357TIP3    H240707   3.161   5.005   7.309 -0.8315 -0.1124  1.8535
 6358TIP3   OH240708   5.807   0.617   1.673 -0.2983 -0.1280  0.3066
 6358TIP3    H140709   5.775   0.653   1.591 -0.0606 -1.0221 -0.1972
 6358TIP3    H240710   5.837   0.693   1.723  1.5616  0.3007 -1.3203
 6359TIP3   OH240711   1.269   3.530   2.615 -0.3295  0.3648  0.1561
 6359TIP3    H140712   1.316   3.603   2.655 -0.3334  0.1870  0.4882
 6359TIP3    H240713   1.320   3.452   2.640 -1.0261  0.1261  0.8707
 6360TIP3   OH240714   3.607   6.392   0.848 -0.5664  0.3731  0.0867
 6360TIP3    H140715   3.611   6.403   0.943  2.8226  0.1770  0.0822
 6360TIP3    H240716   3.598   6.480   0.814  0.3359  0.6620  0.5706
 6361TIP3   OH240717   3.960   6.488   7.500  0.1330  0.7739 -0.4868
 6361TIP3    H140718   3.975   6.402   7.463  0.6413  0.7191 -0.1543
 6361TIP3    H240719   3.923   6.539   7.428  0.6279  0.5219 -0.9232
 6362TIP3   OH240720   2.585   2.819   0.245  0.0193 -0.1112 -0.4110
 6362TIP3    H140721   2.592   2.824   0.340 -0.1040 -1.7685 -0.2822
 6362TIP3    H240722   2.491   2.821   0.227  0.0606  1.6123 -0.6385
 6363TIP3   OH240723   3.415   3.760   3.078  0.2548 -0.3302  0.5130
 6363TIP3    H140724   3.493   3.812   3.098 -0.3499  0.9251 -0.2214
 6363TIP3    H240725   3.428   3.731   2.988  0.0329 -0.4082  0.5063
 6364TIP3   OH240726   1.833   2.247   8.700  0.4306 -0.0051  0.7611
 6364TIP3    H140727   1.837   2.274   8.608 -0.2922 -0.1588  0.6756
 6364TIP3    H240728   1.888   2.169   8.704  0.3064 -0.1136  0.4140
 6365TIP3   OH240729   0.355   3.671   0.563  0.0396  0.6813 -0.3559
 6365TIP3    H140730   0.400   3.747   0.526  2.5203  0.9178  2.7689
 6365TIP3    H240731   0.422   3.604   0.570 -1.2383 -0.5831  0.3065
 6366TIP3   OH240732   5.328   1.110   7.233 -0.0806 -0.4822 -0.2236
 6366TIP3    H140733   5.323   1.170   7.158 -0.3532  0.5501  0.5987
 6366TIP3    H240734   5.418   1.118   7.264 -0.0928 -0.5658 -0.1679
 6367TIP3   OH240735   6.004   4.185   0.659  0.0928 -0.0733  0.8947
 6367TIP3    H140736   5.923   4.135   0.646  1.0252 -1.3466 -0.4617
 6367TIP3    H240737   6.065   4.147   0.595  1.1242  2.2812  0.3940
 6368TIP3   OH240738   5.203   0.159   0.545 -0.2903  0.2602  0.3419
 6368TIP3    H140739   5.258   0.195   0.615  0.5401  0.1946 -0.2702
 6368TIP3    H240740   5.188   0.068   0.572 -0.4994  0.4050  0.7387
 6369TIP3   OH240741   4.780   0.716   7.781  0.6070  0.5436 -0.6098
 6369TIP3    H140742   4.767   0.763   7.698 -1.0232 -0.2115 -0.8229
 6369TIP3    H240743   4.724   0.762   7.843  0.9399  0.4084 -0.2098
 6370TIP3   OH240744   1.518   0.774   7.389  0.0136  0.0659  0.2299
 6370TIP3    H140745   1.592   0.769   7.328  0.2570  0.2129  0.5096
 6370TIP3    H240746   1.465   0.697   7.367 -0.5493  0.7779 -0.9769
 6371TIP3   OH240747   5.510   2.461   2.125  0.0181 -0.3355  0.1446
 6371TIP3    H140748   5.450   2.410   2.070  1.5840 -1.7609 -0.3320
 6371TIP3    H240749   5.543   2.398   2.189  1.9505  0.0774 -0.3988
 6372TIP3   OH240750   4.893   6.456   2.033  0.0361  0.1547 -0.1666
 6372TIP3    H140751   4.937   6.393   2.090  2.5858  2.3360  0.5270
 6372TIP3    H240752   4.808   6.471   2.074  1.4103  0.9143  2.6646
 6373TIP3   OH240753   3.783   5.910   8.792 -0.0578  0.4174 -0.4363
 6373TIP3    H140754   3.856   5.918   8.730 -0.9107  2.3363 -1.2719
 6373TIP3    H240755   3.812   5.959   8.869 -0.9519  2.5010 -1.3328
 6374TIP3   OH240756   5.315   5.144   1.120 -0.3996  0.1810 -0.3888
 6374TIP3    H140757   5.225   5.177   1.110 -0.3802 -0.2448 -2.4261
 6374TIP3    H240758   5.303   5.054   1.150 -0.8130 -0.5667 -2.5676
 6375TIP3   OH240759   5.433   5.649   1.204  0.1626 -0.4068  0.3397
 6375TIP3    H140760   5.420   5.604   1.120  1.0868 -0.4600  0.2194
 6375TIP3    H240761   5.391   5.592   1.268  1.9308 -1.8501  0.2956
 6376TIP3   OH240762   2.260   5.062   0.547 -0.3782  0.2869 -0.1321
 6376TIP3    H140763   2.285   4.982   0.501  0.4851  0.7827 -0.5495
 6376TIP3    H240764   2.339   5.089   0.593 -1.5155 -0.8673  2.7306
 6377TIP3   OH240765   4.604   0.682   8.717  0.1565 -0.6275 -0.2655
 6377TIP3    H140766   4.526   0.638   8.752 -1.2072  0.0092 -2.2774
 6377TIP3    H240767   4.612   0.763   8.768  1.3655 -2.0873  1.9719
 6378TIP3   OH240768   2.561   3.110   0.193 -0.8405 -0.0274 -0.2921
 6378TIP3    H140769   2.522   3.121   0.106  1.5887  0.8187 -1.3576
 6378TIP3    H240770   2.580   3.017   0.200  1.2967  0.2276 -1.8235
 6379TIP3   OH240771   2.967   4.559   0.845  0.4556 -0.0916 -0.0508
 6379TIP3    H140772   2.991   4.516   0.764 -0.1290  0.6731 -0.6473
 6379TIP3    H240773   2.929   4.490   0.900 -1.1250 -0.2395 -1.2566
 6380TIP3   OH240774   3.524   2.281   0.210  0.0104  0.1948 -0.0113
 6380TIP3    H140775   3.442   2.248   0.172 -0.0214  0.2133  0.0403
 6380TIP3    H240776   3.593   2.231   0.167  0.0239  0.7699 -0.6919
 6381TIP3   OH240777   5.322   3.868   0.338 -0.4665 -0.1279 -0.5290
 6381TIP3    H140778   5.251   3.868   0.274  1.6521 -3.1582 -3.2058
 6381TIP3    H240779   5.327   3.778   0.369  0.4744  0.6377  1.7729
 6382TIP3   OH240780   1.378   0.959   8.285 -0.3734 -0.1258 -0.7027
 6382TIP3    H140781   1.359   1.052   8.295 -1.7482 -0.3115 -1.3883
 6382TIP3    H240782   1.364   0.922   8.372  0.9780  0.4180 -0.2292
 6383TIP3   OH240783   6.825   5.172   1.634  0.1385 -0.0278  0.1038
 6383TIP3    H140784   6.905   5.145   1.678  0.4640  0.9204  0.1209
 6383TIP3    H240785   6.764   5.195   1.704 -0.7335 -2.2020  0.1540
 6384TIP3   OH240786   6.514   5.963   8.839  0.4693  0.3048 -0.1424
 6384TIP3    H140787   6.557   5.910   8.906  0.0626 -0.5105 -0.5146
 6384TIP3    H240788   6.572   5.957   8.763  0.4544  0.4522 -0.1664
 6385TIP3   OH240789   2.587   2.894   7.928  0.0128 -1.0206 -0.3558
 6385TIP3    H140790   2.543   2.835   7.867 -0.5136 -0.5199 -0.4734
 6385TIP3    H240791   2.601   2.974   7.878 -0.8087 -0.4484  0.2887
 6386TIP3   OH240792   3.212   1.063   0.666  0.1302  0.4594  0.2064
 6386TIP3    H140793   3.133   1.069   0.613 -0.6157 -0.8582  1.0978
 6386TIP3    H240794   3.251   0.979   0.642 -0.3236 -0.2526  1.8386
 6387TIP3   OH240795   3.807   0.649   7.514 -0.2962  0.4027 -0.1782
 6387TIP3    H140796   3.755   0.668   7.436 -0.1323  1.1358 -0.1185
 6387TIP3    H240797   3.828   0.556   7.508  1.7082  0.9060 -2.2243
 6388TIP3   OH240798   4.785   0.658   0.188  0.1217 -0.3987 -0.2882
 6388TIP3    H140799   4.712   0.601   0.215  0.5460 -1.0717 -0.5382
 6388TIP3    H240800   4.802   0.633   0.098  1.9288 -1.6304  0.3401
 6389TIP3   OH240801   0.771   4.344   1.750  0.4483  0.5688  0.0883
 6389TIP3    H140802   0.751   4.277   1.685  1.2255  1.3926 -1.0325
 6389TIP3    H240803   0.860   4.373   1.729  0.5376  1.2034  1.2144
 6390TIP3   OH240804   4.671   3.955   7.877 -0.1847  0.3797 -0.2823
 6390TIP3    H140805   4.737   4.020   7.852 -0.7753  0.6768 -1.1341
 6390TIP3    H240806   4.657   3.903   7.797  1.3320 -1.7784  0.7627
 6391TIP3   OH240807   5.704   6.817   2.735  0.1637  0.2291 -0.1740
 6391TIP3    H140808   5.636   6.816   2.803  1.2621  0.4453  0.9654
 6391TIP3    H240809   5.710   6.909   2.709  0.1092  0.2361 -0.1616
 6392TIP3   OH240810   0.582   3.104   7.407 -0.1001  0.3630 -0.8283
 6392TIP3    H140811   0.556   3.148   7.487 -2.0055 -1.1720 -0.5209
 6392TIP3    H240812   0.676   3.088   7.417 -0.1528  0.9073  0.7288
 6393TIP3   OH240813   1.600   5.609   2.202 -0.4546 -0.1227  0.3734
 6393TIP3    H140814   1.643   5.537   2.247 -1.2895 -1.0289 -0.2220
 6393TIP3    H240815   1.647   5.687   2.230 -0.4705 -0.7262  2.2028
 6394TIP3   OH240816   0.646   3.362   0.158  0.1546 -0.2037  0.2794
 6394TIP3    H140817   0.580   3.307   0.116  0.2446 -0.0525 -0.0689
 6394TIP3    H240818   0.712   3.301   0.190  0.5528 -0.2620 -0.6361
 6395TIP3   OH240819   4.720   2.262   6.656  0.0613  0.6688 -0.5324
 6395TIP3    H140820   4.808   2.269   6.693  0.4955 -2.9545 -0.5123
 6395TIP3    H240821   4.668   2.223   6.727 -0.9929  0.6881 -1.2776
 6396TIP3   OH240822   4.958   3.573   7.262 -0.1397  0.0515  0.6979
 6396TIP3    H140823   5.014   3.505   7.300 -1.8424 -1.5634  0.4678
 6396TIP3    H240824   4.995   3.590   7.175  1.3539  0.7889  1.4315
 6397TIP3   OH240825   1.171   0.278   7.420  0.0293 -0.1506  0.3362
 6397TIP3    H140826   1.158   0.314   7.332  0.4391 -1.0123 -0.0880
 6397TIP3    H240827   1.234   0.338   7.461 -1.8272  1.5262  0.8597
 6398TIP3   OH240828   4.145   1.074   8.464 -0.5352 -0.4299 -0.0846
 6398TIP3    H140829   4.095   1.154   8.445  1.4732  0.6253 -1.2737
 6398TIP3    H240830   4.175   1.044   8.378  1.8236 -0.3076  0.6142
 6399TIP3   OH240831   0.446   5.820   7.751 -0.3720 -0.1167  0.6673
 6399TIP3    H140832   0.519   5.851   7.698 -0.3876 -3.4105 -1.6212
 6399TIP3    H240833   0.481   5.744   7.798 -1.2242  0.8729  3.0807
 6400TIP3   OH240834   6.194   5.760   8.156 -0.1931 -0.1157 -0.0957
 6400TIP3    H140835   6.121   5.756   8.217  0.1576  2.6186  0.6494
 6400TIP3    H240836   6.253   5.826   8.193 -0.0809  1.8923 -3.4215
 6401TIP3   OH240837   3.340   1.297   7.195  0.5078 -0.5386 -0.1173
 6401TIP3    H140838   3.256   1.276   7.155  0.3018  0.0817 -0.0261
 6401TIP3    H240839   3.360   1.385   7.163  0.6833 -0.3241  0.5776
 6402TIP3   OH240840   5.662   5.053   1.913  0.5873 -0.4560  0.0176
 6402TIP3    H140841   5.587   5.019   1.963  0.4295 -0.7041 -0.3873
 6402TIP3    H240842   5.688   5.132   1.961 -2.0703  1.6208 -1.6646
 6403TIP3   OH240843   0.368   0.992   2.169 -0.6184  0.6124 -0.3671
 6403TIP3    H140844   0.394   0.991   2.077 -0.2165 -2.2939 -0.3307
 6403TIP3    H240845   0.272   0.989   2.167 -0.5982  0.0176 -0.7186
 6404TIP3   OH240846   1.501   3.204   6.950  0.0023  0.0182 -0.8611
 6404TIP3    H140847   1.457   3.231   6.869 -0.1035 -0.7049 -1.0506
 6404TIP3    H240848   1.565   3.139   6.921 -0.1278 -0.3396 -0.3400
 6405TIP3   OH240849   5.736   1.460   3.003  0.1506 -0.2942  0.3996
 6405TIP3    H140850   5.760   1.384   2.951  2.0397 -1.4343  2.7705
 6405TIP3    H240851   5.691   1.518   2.941 -1.0013 -3.0956 -1.5797
 6406TIP3   OH240852   2.669   4.152   7.948  0.1819  0.3256  0.0375
 6406TIP3    H140853   2.661   4.238   7.906  1.0827  0.6062  0.4318
 6406TIP3    H240854   2.660   4.089   7.875  2.1829  0.8129 -0.6872
 6407TIP3   OH240855   2.778   0.644   0.717  0.1310  0.3228  0.0303
 6407TIP3    H140856   2.710   0.596   0.670  0.6517 -0.9668  0.5403
 6407TIP3    H240857   2.815   0.704   0.652 -0.0027 -0.5496 -0.8661
 6408TIP3   OH240858   6.467   4.959   1.623  0.2599 -0.0733  0.4896
 6408TIP3    H140859   6.561   4.943   1.612  0.1133 -0.5993 -0.0171
 6408TIP3    H240860   6.443   4.905   1.698  0.0418 -1.2229 -0.3824
 6409TIP3   OH240861   5.033   1.606   7.590 -0.2118 -0.0223 -0.1363
 6409TIP3    H140862   4.986   1.656   7.524 -0.8792  1.8531  1.6352
 6409TIP3    H240863   5.076   1.673   7.644  0.0937 -1.4483  1.4675
 6410TIP3   OH240864   0.591   1.875   0.279 -0.3924 -0.2635  0.3651
 6410TIP3    H140865   0.504   1.914   0.286 -0.1527 -0.0331  3.1833
 6410TIP3    H240866   0.649   1.948   0.261 -0.5796 -0.1431  0.2540
 6411TIP3   OH240867   2.180   2.000   1.802 -0.3815 -0.5624 -0.2714
 6411TIP3    H140868   2.087   2.008   1.780 -0.7036 -1.2628  0.7389
 6411TIP3    H240869   2.225   2.050   1.734 -1.4642 -0.5822 -1.0358
 6412TIP3   OH240870   5.144   6.443   7.099 -0.2706 -0.5458  0.3580
 6412TIP3    H140871   5.215   6.459   7.036  0.2302 -0.3718  0.9571
 6412TIP3    H240872   5.074   6.502   7.071  0.5507  0.7593  0.9226
 6413TIP3   OH240873   6.227   0.441   0.808  0.3762 -0.1344  0.5398
 6413TIP3    H140874   6.145   0.491   0.810  1.2955  1.4973 -0.3750
 6413TIP3    H240875   6.279   0.477   0.880  1.3601  0.8810 -0.6228
 6414TIP3   OH240876   5.569   3.662   0.705 -0.2226 -0.6431 -0.1002
 6414TIP3    H140877   5.522   3.734   0.747 -0.6578 -0.2980 -1.1427
 6414TIP3    H240878   5.662   3.683   0.717 -0.3452 -0.1676  0.0265
 6415TIP3   OH240879   2.308   2.886   0.302 -0.3083 -0.0473 -0.1171
 6415TIP3    H140880   2.275   2.965   0.260 -1.1227 -0.7596 -0.8467
 6415TIP3    H240881   2.236   2.856   0.357  0.0375 -0.2248  0.2435
 6416TIP3   OH240882   1.569   2.539   7.692  0.5075  1.1990 -0.4015
 6416TIP3    H140883   1.652   2.526   7.647  0.1396  0.4849 -0.8928
 6416TIP3    H240884   1.506   2.490   7.640  0.0614  0.3735  0.8712
 6417TIP3   OH240885   1.496   6.211   8.217 -0.4813  0.2527  0.4005
 6417TIP3    H140886   1.429   6.223   8.284 -1.4619  1.3432 -0.7367
 6417TIP3    H240887   1.457   6.246   8.137  0.1347 -2.2071 -1.0945
 6418TIP3   OH240888   2.551   3.364   7.748 -0.2227 -0.2231  0.4422
 6418TIP3    H140889   2.533   3.432   7.812  0.2057  0.0919  0.2370
 6418TIP3    H240890   2.557   3.410   7.664 -0.1316 -0.5382  0.2713
 6419TIP3   OH240891   3.867   1.575   7.704 -0.2768 -0.4120 -0.0034
 6419TIP3    H140892   3.888   1.647   7.763  0.4278 -0.2005 -0.4886
 6419TIP3    H240893   3.792   1.607   7.653  0.5110  0.3208 -0.7568
 6420TIP3   OH240894   6.674   1.556   2.559 -0.0493 -0.1914  0.4105
 6420TIP3    H140895   6.704   1.491   2.496  0.7567  0.5433  0.0061
 6420TIP3    H240896   6.750   1.614   2.571 -0.1427 -0.3702  2.1395
 6421TIP3   OH240897   4.712   4.237   1.954  0.0911  0.5849 -0.2753
 6421TIP3    H140898   4.804   4.263   1.954 -0.1843  1.6361  0.2283
 6421TIP3    H240899   4.707   4.167   2.020  0.8320 -0.7671 -1.5902
 6422TIP3   OH240900   6.149   1.011   1.544 -0.7087  0.0767  0.3997
 6422TIP3    H140901   6.196   1.093   1.554 -0.7365  0.1224  0.1523
 6422TIP3    H240902   6.187   0.953   1.610 -1.3190  0.5656  1.1989
 6423TIP3   OH240903   2.848   5.122   1.863 -0.8888 -0.4922 -0.0990
 6423TIP3    H140904   2.896   5.076   1.932 -1.6160  0.5168  1.1283
 6423TIP3    H240905   2.767   5.073   1.853  1.1836 -3.7492 -3.9661
 6424TIP3   OH240906   0.164   1.708   7.671 -0.3114  1.0589 -0.0347
 6424TIP3    H140907   0.204   1.640   7.617  0.2780  2.0729 -0.9136
 6424TIP3    H240908   0.097   1.746   7.615 -2.2090 -0.2504  1.2319
 6425TIP3   OH240909   6.545   3.491   1.652  0.0284 -0.2888 -0.1667
 6425TIP3    H140910   6.637   3.466   1.646 -0.0243 -0.4077 -0.4587
 6425TIP3    H240911   6.504   3.452   1.575 -0.0430  0.7513 -0.6606
 6426TIP3   OH240912   3.278   1.239   2.000 -0.2412 -0.0929 -0.0498
 6426TIP3    H140913   3.218   1.311   1.983  0.2756  0.8736  1.8989
 6426TIP3    H240914   3.250   1.204   2.085  0.6054 -1.0582 -0.1442
 6427TIP3   OH240915   1.755   6.203   2.118 -0.5069  0.5387 -0.2099
 6427TIP3    H140916   1.773   6.262   2.191 -2.2253  0.3486  0.4080
 6427TIP3    H240917   1.762   6.259   2.040  0.2073  0.9977  0.1704
 6428TIP3   OH240918   2.475   5.415   0.430  0.2078 -0.3233 -0.3323
 6428TIP3    H140919   2.448   5.326   0.411 -2.0850  0.4277 -0.9358
 6428TIP3    H240920   2.543   5.434   0.364  0.2599 -1.3825 -0.6050
 6429TIP3   OH240921   2.583   0.250   8.637 -0.3307 -0.5574  0.2471
 6429TIP3    H140922   2.561   0.216   8.550 -0.8241 -1.8635  0.8564
 6429TIP3    H240923   2.668   0.211   8.657  0.5657  1.0378 -0.2974
 6430TIP3   OH240924   6.498   2.153   1.907 -0.3085  0.1198  0.0207
 6430TIP3    H140925   6.577   2.116   1.947  0.0906 -0.8887 -1.5860
 6430TIP3    H240926   6.526   2.180   1.819 -2.2735 -3.0130 -1.7671
 6431TIP3   OH240927   6.595   4.451   7.433 -0.0661  0.3526 -0.5812
 6431TIP3    H140928   6.688   4.473   7.444 -0.1189 -0.3764  1.9693
 6431TIP3    H240929   6.575   4.395   7.508 -1.3763 -3.6276 -3.5233
 6432TIP3   OH240930   0.956   2.446   1.101 -0.1272 -0.4357  0.2275
 6432TIP3    H140931   0.871   2.411   1.128  0.7101 -2.9531 -0.1424
 6432TIP3    H240932   1.015   2.424   1.172  0.5628 -0.2189 -0.2714
 6433TIP3   OH240933   2.616   3.406   2.379  0.1334  0.2802 -0.2613
 6433TIP3    H140934   2.664   3.330   2.346  0.6428  1.3090 -2.0354
 6433TIP3    H240935   2.654   3.424   2.464 -2.9884 -4.0876  2.4775
 6434TIP3   OH240936   0.088   0.280   2.137 -0.3346  0.4059  0.9379
 6434TIP3    H140937   0.095   0.372   2.111 -1.4714  0.5281  1.0084
 6434TIP3    H240938   0.002   0.273   2.177 -0.2906 -0.7071  0.8699
 6435TIP3   OH240939   5.876   6.615   1.780 -0.7306  0.2336 -0.3300
 6435TIP3    H140940   5.959   6.661   1.766 -0.1688 -0.5078  0.4899
 6435TIP3    H240941   5.879   6.542   1.718  1.0164 -2.0758  2.2592
 6436TIP3   OH240942   1.067   6.227   0.165 -0.0200 -0.3394 -0.2333
 6436TIP3    H140943   1.118   6.240   0.084 -1.1770 -1.1861 -1.1287
 6436TIP3    H240944   0.984   6.270   0.148  0.4947  1.4428  1.4085
 6437TIP3   OH240945   3.186   4.477   7.881 -0.3031  0.0924  0.2730
 6437TIP3    H140946   3.254   4.438   7.827 -0.2946  0.0076  0.3440
 6437TIP3    H240947   3.197   4.436   7.967 -1.1977 -0.8165 -0.0261
 6438TIP3   OH240948   5.967   0.392   1.712 -0.3753  0.4337 -0.0095
 6438TIP3    H140949   6.001   0.387   1.623 -3.7657 -1.5054 -1.3971
 6438TIP3    H240950   5.927   0.479   1.718 -2.4975 -0.3468 -1.4974
 6439TIP3   OH240951   5.766   6.764   8.225 -0.0991  0.0353 -0.4663
 6439TIP3    H140952   5.750   6.831   8.291 -0.4039 -0.4205 -0.0685
 6439TIP3    H240953   5.682   6.720   8.215  0.1110 -0.3215 -0.6844
 6440TIP3   OH240954   3.615   6.094   1.274  0.3662 -0.4748  0.3109
 6440TIP3    H140955   3.590   6.185   1.257 -0.0134 -0.8684 -1.4014
 6440TIP3    H240956   3.568   6.071   1.354 -0.4396  0.4864  0.1363
 6441TIP3   OH240957   3.162   5.855   8.808 -0.4364 -0.7794  0.1698
 6441TIP3    H140958   3.143   5.948   8.818  0.0987 -0.6813  0.3124
 6441TIP3    H240959   3.228   5.851   8.739 -1.2827 -1.1522 -0.6427
 6442TIP3   OH240960   0.218   1.210   0.843 -0.2714  0.3874 -0.1189
 6442TIP3    H140961   0.298   1.195   0.893  0.5927  2.0010 -0.9362
 6442TIP3    H240962   0.237   1.175   0.756 -0.4988  0.6667 -0.2830
 6443TIP3   OH240963   6.415   4.263   0.633  0.5406  0.5194  1.1771
 6443TIP3    H140964   6.463   4.309   0.702  1.4316  1.9448 -0.3303
 6443TIP3    H240965   6.470   4.188   0.611  1.0762  0.9971  0.8748
 6444TIP3   OH240966   3.671   2.792   1.028  0.5984  0.1657  0.1414
 6444TIP3    H140967   3.724   2.850   0.973  0.2605 -0.0621 -0.4442
 6444TIP3    H240968   3.734   2.744   1.081  0.8376  1.6707  1.2604
 6445TIP3   OH240969   1.624   1.110   7.621  0.6179  0.1024 -0.3499
 6445TIP3    H140970   1.555   1.078   7.562  0.3463  2.7130 -1.5873
 6445TIP3    H240971   1.704   1.103   7.569  0.6661  0.6422 -0.3552
 6446TIP3   OH240972   6.689   1.300   8.642  0.2673 -0.0844 -0.4593
 6446TIP3    H140973   6.615   1.353   8.613 -0.4846 -0.9102 -0.0847
 6446TIP3    H240974   6.667   1.211   8.615 -1.2982 -1.2636  3.8947
 6447TIP3   OH240975   1.524   4.843   1.170 -0.3639  0.4192 -0.1430
 6447TIP3    H140976   1.616   4.830   1.147  0.5388  0.5206  2.9047
 6447TIP3    H240977   1.507   4.935   1.148  1.1360  1.1841  1.6237
 6448TIP3   OH240978   5.637   3.910   6.772  0.0281  0.0428 -0.1158
 6448TIP3    H140979   5.697   3.954   6.712 -0.8887 -0.4735 -1.4646
 6448TIP3    H240980   5.678   3.918   6.858  0.5330  2.3818 -0.4988
 6449TIP3   OH240981   5.694   4.628   8.143 -0.2211  0.7331 -0.8223
 6449TIP3    H140982   5.690   4.713   8.186  0.3897  1.3368 -1.9337
 6449TIP3    H240983   5.786   4.618   8.117 -0.8990  1.4137 -3.9134
 6450TIP3   OH240984   1.011   5.205   1.093  0.2370  0.4956 -0.1599
 6450TIP3    H140985   1.086   5.147   1.079 -0.0403  0.2453 -0.6791
 6450TIP3    H240986   1.049   5.291   1.108  0.6192  0.5764 -1.4536
 6451TIP3   OH240987   5.234   6.702   7.307 -0.3135  0.2858  0.2061
 6451TIP3    H140988   5.253   6.623   7.256 -0.4399 -0.1629  0.8358
 6451TIP3    H240989   5.284   6.691   7.388 -3.5729 -1.2477  2.2169
 6452TIP3   OH240990   4.446   4.397   8.745  0.1236  0.6138  0.0933
 6452TIP3    H140991   4.441   4.302   8.738  0.3713  0.6381 -0.4617
 6452TIP3    H240992   4.538   4.418   8.728 -0.1766  1.0470 -1.0972
 6453TIP3   OH240993   1.869   5.552   2.583 -0.1846 -0.3613  0.2347
 6453TIP3    H140994   1.911   5.489   2.524  0.3811  0.0735  0.1614
 6453TIP3    H240995   1.920   5.632   2.572 -0.4848 -0.0851  0.8298
 6454TIP3   OH240996   3.272   6.298   0.435  0.0947 -0.0698  0.2564
 6454TIP3    H140997   3.308   6.213   0.410  2.4790  1.1040 -0.5884
 6454TIP3    H240998   3.223   6.327   0.358 -0.1751 -0.3888  0.3066
 6455TIP3   OH240999   1.820   6.330   8.466 -0.4715  0.6437 -0.3713
 6455TIP3    H141000   1.832   6.423   8.481 -2.3149  0.7849  0.3968
 6455TIP3    H241001   1.900   6.290   8.500 -0.2406  1.8310  0.5221
 6456TIP3   OH241002   1.626   1.672   7.538  0.0033 -0.3046 -0.3716
 6456TIP3    H141003   1.673   1.738   7.488 -0.7594  3.3526  3.2573
 6456TIP3    H241004   1.533   1.691   7.524 -0.2397 -0.7137  0.5359
 6457TIP3   OH241005   2.004   2.337   2.056  0.1661  0.1822 -0.1738
 6457TIP3    H141006   2.063   2.377   1.992 -0.1423  0.4004 -0.3227
 6457TIP3    H241007   2.017   2.243   2.044  1.3724  0.2367  0.6265
 6458TIP3   OH241008   4.243   3.929   1.189  0.0622  0.0152 -0.1651
 6458TIP3    H141009   4.160   3.968   1.218 -0.5040 -1.1422 -0.1564
 6458TIP3    H241010   4.277   3.990   1.124 -1.4226 -0.0594 -1.0614
 6459TIP3   OH241011   0.111   5.557   8.601  0.2862  0.0722  0.2204
 6459TIP3    H141012   0.024   5.517   8.613 -1.4097  3.3352 -0.1981
 6459TIP3    H241013   0.122   5.561   8.506  1.6990 -1.6917  0.2443
 6460TIP3   OH241014   3.955   2.888   1.147  0.0791  0.3200 -0.7381
 6460TIP3    H141015   4.044   2.881   1.112  1.1731 -1.6502  2.0749
 6460TIP3    H241016   3.907   2.817   1.104  0.8030 -0.6845  0.0564
 6461TIP3   OH241017   5.989   6.272   0.957  0.7347 -0.7153  0.3071
 6461TIP3    H141018   6.039   6.191   0.947  1.5965 -0.0352 -1.2828
 6461TIP3    H241019   6.006   6.321   0.876 -3.1006 -0.7459 -0.6928
 6462TIP3   OH241020   0.465   2.783   8.102 -0.0123 -0.2129  0.3999
 6462TIP3    H141021   0.376   2.792   8.136  0.3509 -0.3947  1.4420
 6462TIP3    H241022   0.509   2.727   8.166  1.5191  1.7918  1.1760
 6463TIP3   OH241023   2.622   4.883   2.026 -0.4540 -0.1745  1.0703
 6463TIP3    H141024   2.608   4.794   1.993  1.0700  0.8115 -2.7418
 6463TIP3    H241025   2.631   4.872   2.121 -1.1558 -3.9145  0.8675
 6464TIP3   OH241026   1.703   1.155   0.175  0.3902 -0.1533  0.1327
 6464TIP3    H141027   1.703   1.170   0.269  1.8992  1.5824 -0.0796
 6464TIP3    H241028   1.654   1.074   0.163 -0.2748 -0.1295  2.3483
 6465TIP3   OH241029   1.618   2.521   1.274  0.2089  0.2086 -0.3470
 6465TIP3    H141030   1.542   2.551   1.323  0.1674  1.4556 -1.1317
 6465TIP3    H241031   1.648   2.443   1.320 -1.7175 -0.4811 -0.1920
 6466TIP3   OH241032   2.682   1.898   8.522 -0.2791 -0.5722  0.3805
 6466TIP3    H141033   2.601   1.862   8.558 -0.6709 -0.6188 -0.5371
 6466TIP3    H241034   2.725   1.938   8.597 -1.6354  0.3659  0.6938
 6467TIP3   OH241035   5.547   4.129   8.241  0.0099  0.2082  0.3290
 6467TIP3    H141036   5.587   4.211   8.269  0.2017  0.2496 -0.0660
 6467TIP3    H241037   5.610   4.091   8.180 -0.4351  0.1532 -0.1060
 6468TIP3   OH241038   1.040   4.828   1.835  0.2474  0.4150  0.1511
 6468TIP3    H141039   1.018   4.878   1.914  1.3115 -1.2759  1.5832
 6468TIP3    H241040   1.000   4.742   1.849  1.1280 -0.1601 -0.7685
 6469TIP3   OH241041   3.407   0.881   1.850  0.6739  0.1227  0.1701
 6469TIP3    H141042   3.412   0.813   1.783 -0.2561  1.5070 -1.3626
 6469TIP3    H241043   3.476   0.858   1.913  0.4611 -2.1430 -0.3497
 6470TIP3   OH241044   3.067   6.426   2.006 -0.6914 -0.2636  0.6391
 6470TIP3    H141045   3.098   6.353   2.060 -0.9914 -1.5688 -0.9050
 6470TIP3    H241046   3.144   6.452   1.955 -0.7969 -0.0052  0.6103
 6471TIP3   OH241047   5.619   0.507   2.051 -0.2160 -0.7545 -0.9882
 6471TIP3    H141048   5.710   0.534   2.041 -0.1954  0.5342  1.8692
 6471TIP3    H241049   5.619   0.447   2.125 -1.9696  1.3745  0.8582
 6472TIP3   OH241050   1.681   0.608   6.880  0.1247  0.0295 -0.4706
 6472TIP3    H141051   1.725   0.549   6.820 -0.9819 -0.5220 -0.7646
 6472TIP3    H241052   1.752   0.654   6.925  1.0439 -1.9558  0.2162
 6473TIP3   OH241053   3.251   1.376   1.488  0.3800 -0.0204  0.0090
 6473TIP3    H141054   3.325   1.419   1.532  0.8175 -0.7910  0.0447
 6473TIP3    H241055   3.247   1.418   1.402  0.2826  0.6529  0.3320
 6474TIP3   OH241056   3.820   0.993   0.882  0.2101 -0.2801 -0.1574
 6474TIP3    H141057   3.819   1.057   0.811 -0.6338 -1.0416 -0.8745
 6474TIP3    H241058   3.849   1.041   0.959 -3.2273  1.8083  0.0650
 6475TIP3   OH241059   4.876   5.254   7.231  0.7524  0.0566  0.4898
 6475TIP3    H141060   4.842   5.173   7.193 -0.6496  0.4379  0.8726
 6475TIP3    H241061   4.908   5.228   7.318  2.0534 -0.4207 -0.1087
 6476TIP3   OH241062   2.825   1.676   8.430  0.0838  0.2236 -0.2975
 6476TIP3    H141063   2.748   1.731   8.441  0.7264  0.8463  1.3518
 6476TIP3    H241064   2.825   1.619   8.507  0.5638 -0.6905 -0.9461
 6477TIP3   OH241065   1.388   2.739   1.343 -0.1022  0.1449 -0.4628
 6477TIP3    H141066   1.368   2.704   1.430 -3.0060  2.4559 -0.0314
 6477TIP3    H241067   1.450   2.810   1.359  0.1730 -0.1036 -0.4211
 6478TIP3   OH241068   1.494   5.240   0.759 -0.0114  0.8153  0.5247
 6478TIP3    H141069   1.555   5.168   0.771 -1.4226 -0.3936  0.7698
 6478TIP3    H241070   1.489   5.252   0.664  1.4412  1.7173  0.5295
 6479TIP3   OH241071   4.247   5.988   7.358 -0.1894  0.1610 -0.2625
 6479TIP3    H141072   4.179   5.939   7.404 -0.8348  1.4568  0.2222
 6479TIP3    H241073   4.200   6.047   7.299  0.5726 -0.0404 -1.0977
 6480TIP3   OH241074   1.896   3.007   2.248 -0.3600 -0.5005  0.0860
 6480TIP3    H141075   1.803   2.989   2.235 -0.0555 -2.4714  0.4452
 6480TIP3    H241076   1.915   2.977   2.336  0.2776  1.5404  0.7177
 6481TIP3   OH241077   0.192   3.834   1.017 -0.3630 -0.0130  0.0125
 6481TIP3    H141078   0.253   3.829   1.091  0.2463  0.7989 -0.4212
 6481TIP3    H241079   0.247   3.851   0.941 -1.0280 -0.3689 -0.5594
 6482TIP3   OH241080   6.478   3.063   8.599  0.4824 -0.3707  0.2159
 6482TIP3    H141081   6.423   3.011   8.541  0.8319 -1.7999  1.1166
 6482TIP3    H241082   6.509   3.136   8.544  0.0859 -1.1788 -1.1225
 6483TIP3   OH241083   0.053   0.654   1.552 -0.1254  0.5375  0.0907
 6483TIP3    H141084   0.085   0.573   1.513  0.0535  0.5904  0.1257
 6483TIP3    H241085   0.012   0.628   1.634 -0.0104  0.4892  0.1331
 6484TIP3   OH241086   0.271   4.889   6.667  0.2961 -0.0341 -0.4473
 6484TIP3    H141087   0.261   4.984   6.659 -0.6653 -0.0984 -0.0844
 6484TIP3    H241088   0.348   4.878   6.723  0.5120  0.5187 -0.6237
 6485TIP3   OH241089   2.362   3.981   8.337 -0.0460  0.7000  0.3325
 6485TIP3    H141090   2.378   4.069   8.303 -1.8276  1.0931  0.4413
 6485TIP3    H241091   2.446   3.954   8.375  0.2411  2.8096  1.3181
 6486TIP3   OH241092   4.942   6.244   1.035  0.0883  0.3853 -0.5115
 6486TIP3    H141093   4.869   6.258   0.976 -1.3754  0.2043  1.1740
 6486TIP3    H241094   4.931   6.309   1.104  1.6553  0.5036 -0.3360
 6487TIP3   OH241095   0.953   3.923   7.213  0.0544  0.5118  0.2869
 6487TIP3    H141096   1.044   3.925   7.181 -0.0836 -0.3386 -0.1941
 6487TIP3    H241097   0.915   4.005   7.183  0.6682  0.8805  0.5028
 6488TIP3   OH241098   1.129   5.864   1.469 -0.6233 -0.0908 -0.3063
 6488TIP3    H141099   1.187   5.933   1.438 -1.4199  0.7981  0.1013
 6488TIP3    H241100   1.149   5.856   1.562 -0.4266 -0.5283 -0.3836
 6489TIP3   OH241101   5.551   4.961   7.906 -0.2420  0.2355 -0.0552
 6489TIP3    H141102   5.564   5.047   7.944  0.2517 -0.1523  0.6822
 6489TIP3    H241103   5.478   4.924   7.954  0.5921 -0.3838  0.7822
 6490TIP3   OH241104   5.415   3.151   0.328 -0.3600 -0.2711 -0.4493
 6490TIP3    H141105   5.483   3.115   0.271  0.1159  1.1575 -0.8108
 6490TIP3    H241106   5.386   3.231   0.284 -2.0924 -0.6976 -0.1626
 6491TIP3   OH241107   5.204   4.408   7.709 -0.1969 -0.3569  0.1360
 6491TIP3    H141108   5.160   4.480   7.664 -1.3414 -1.4988 -0.6357
 6491TIP3    H241109   5.148   4.389   7.783  0.1587 -0.4006  0.3966
 6492TIP3   OH241110   4.121   6.267   8.209  0.0781 -0.2523  0.1755
 6492TIP3    H141111   4.091   6.356   8.191 -0.8575 -0.5633  0.1199
 6492TIP3    H241112   4.212   6.266   8.182 -0.0973  0.5004 -0.4806
 6493TIP3   OH241113   2.644   6.223   8.463 -0.1521  0.2267 -0.2574
 6493TIP3    H141114   2.596   6.189   8.538  0.2330  2.4509  1.0892
 6493TIP3    H241115   2.601   6.306   8.443  1.6854  1.1602 -0.4802
 6494TIP3   OH241116   0.134   5.848   8.458  0.2620 -0.6322  0.2929
 6494TIP3    H141117   0.109   5.756   8.447 -2.6323 -0.1209  1.6454
 6494TIP3    H241118   0.191   5.848   8.535 -1.7107 -1.1225  1.8484
 6495TIP3   OH241119   6.105   5.091   7.839  0.0017  0.2104 -0.2781
 6495TIP3    H141120   6.123   5.185   7.839 -0.0478  0.3052  2.4257
 6495TIP3    H241121   6.010   5.085   7.830 -0.2035  0.5689  1.3095
 6496TIP3   OH241122   0.250   4.780   8.356  0.2283  0.0745 -0.1975
 6496TIP3    H141123   0.240   4.692   8.392  0.4411 -0.0104 -0.3417
 6496TIP3    H241124   0.336   4.809   8.386 -0.3224  0.6974  0.8296
 6497TIP3   OH241125   5.462   6.498   7.922  0.3063  0.0826 -0.3807
 6497TIP3    H141126   5.505   6.455   7.848  1.0978  0.8425 -0.3739
 6497TIP3    H241127   5.502   6.585   7.927  0.3601  0.0029  1.0273
 6498TIP3   OH241128   0.721   5.427   0.013  0.2819  0.4472 -0.1231
 6498TIP3    H141129   0.652   5.392  -0.044 -1.1754  1.2335  1.0906
 6498TIP3    H241130   0.716   5.522   0.000  1.5803  0.4795 -0.4781
 6499TIP3   OH241131   3.320   6.052   8.393 -0.2684 -0.0125 -0.2930
 6499TIP3    H141132   3.240   6.020   8.352 -0.8921 -1.1549  1.6950
 6499TIP3    H241133   3.377   6.074   8.319 -1.9593 -0.2811 -1.7499
 6500TIP3   OH241134   0.541   1.642   6.509 -0.0103 -0.6036  0.4310
 6500TIP3    H141135   0.569   1.665   6.598 -1.3566 -0.4812  0.8449
 6500TIP3    H241136   0.617   1.661   6.454  0.3868  0.6442  1.3725
 6501TIP3   OH241137   0.674   0.873   0.232  0.3151 -0.1239 -0.0110
 6501TIP3    H141138   0.616   0.923   0.290 -1.9703 -2.5253 -0.0025
 6501TIP3    H241139   0.705   0.801   0.287  0.9597 -0.4949 -0.8430
 6502TIP3   OH241140   0.343   5.965   7.376 -0.2745 -0.3984 -0.2165
 6502TIP3    H141141   0.369   5.979   7.285 -1.2970  0.5688 -0.3693
 6502TIP3    H241142   0.385   5.882   7.400  0.5433 -0.3298 -1.3537
 6503TIP3   OH241143   0.067   3.408   7.271  0.5078 -0.3401  0.2328
 6503TIP3    H141144  -0.016   3.393   7.316  0.0670 -1.8168 -1.0116
 6503TIP3    H241145   0.113   3.324   7.276  1.0548 -0.1156 -0.8384
 6504TIP3   OH241146   3.804   6.602   1.175  0.1634 -0.1245  0.1868
 6504TIP3    H141147   3.769   6.537   1.235 -0.9544  0.3464  0.0714
 6504TIP3    H241148   3.873   6.557   1.128 -2.0154 -1.9626 -1.4638
 6505TIP3   OH241149   2.180   0.238   8.009 -0.1065  0.0104  0.3364
 6505TIP3    H141150   2.164   0.150   8.045  0.8995  0.0649  0.9289
 6505TIP3    H241151   2.188   0.223   7.915 -0.7322 -0.4132  0.3367
 6506TIP3   OH241152   6.776   5.700   1.328 -0.3705 -0.4673  0.3429
 6506TIP3    H141153   6.815   5.768   1.383 -0.1239 -1.1037  0.9728
 6506TIP3    H241154   6.833   5.624   1.340 -1.3501 -1.1685  0.6397
 6507TIP3   OH241155   3.506   6.625   2.477  0.1088 -0.9312 -0.2391
 6507TIP3    H141156   3.456   6.707   2.480  0.1711 -0.8201 -1.5992
 6507TIP3    H241157   3.443   6.557   2.500 -0.4692 -0.6940 -1.0580
 6508TIP3   OH241158   3.574   6.348   7.652 -0.6951 -0.2309 -0.1023
 6508TIP3    H141159   3.612   6.434   7.670 -0.7965 -0.2800  0.3468
 6508TIP3    H241160   3.497   6.344   7.707  0.2287 -1.2877  1.1814
 6509TIP3   OH241161   4.752   3.071   0.908  0.6100  0.5694  0.1925
 6509TIP3    H141162   4.733   3.025   0.990  2.6294  0.0320  0.4156
 6509TIP3    H241163   4.770   3.001   0.846  1.3394  1.0006 -0.0939
 6510TIP3   OH241164   3.329   5.678   7.389  0.6268 -0.3891 -0.4301
 6510TIP3    H141165   3.386   5.749   7.420  2.1881 -2.2283  1.2090
 6510TIP3    H241166   3.366   5.600   7.429 -0.9893 -2.1587 -2.2169
 6511TIP3   OH241167   1.575   1.253   1.247  0.5033  0.0866  0.4252
 6511TIP3    H141168   1.580   1.181   1.185 -0.7164  1.2632 -1.1263
 6511TIP3    H241169   1.493   1.238   1.295  0.2997  0.3782  0.1718
 6512TIP3   OH241170   2.167   4.165   2.292 -0.0889 -0.0258 -0.5965
 6512TIP3    H141171   2.152   4.203   2.206 -2.5868  0.5194  0.0003
 6512TIP3    H241172   2.137   4.232   2.354 -2.5340 -2.0091  0.5383
 6513TIP3   OH241173   4.155   6.412   8.591 -0.8893  0.5141  0.9506
 6513TIP3    H141174   4.090   6.391   8.524 -0.4295 -1.1335  0.9844
 6513TIP3    H241175   4.119   6.376   8.672 -0.3153  0.3210  1.1226
 6514TIP3   OH241176   5.153   4.875   7.017 -0.1630  0.3936  0.2258
 6514TIP3    H141177   5.099   4.840   7.088 -1.0326  1.2135 -0.0043
 6514TIP3    H241178   5.226   4.814   7.010 -0.3866 -0.0343  1.4137
 6515TIP3   OH241179   1.318   3.198   0.662 -0.1182 -0.2245  0.0632
 6515TIP3    H141180   1.399   3.178   0.615 -0.4508  0.1605 -0.6912
 6515TIP3    H241181   1.307   3.125   0.723  1.4718  0.3667  1.1065
 6516TIP3   OH241182   5.049   1.339   0.139 -0.1860 -0.3139  0.2290
 6516TIP3    H141183   5.131   1.363   0.182  0.4498 -0.4361 -0.8658
 6516TIP3    H241184   5.046   1.394   0.060  0.1736 -2.1188 -1.1284
 6517TIP3   OH241185   5.407   0.506   0.103 -0.1803 -0.5469  0.0819
 6517TIP3    H141186   5.349   0.538   0.034 -0.9957 -1.4199  0.3439
 6517TIP3    H241187   5.481   0.468   0.057 -0.0018  0.2195 -0.2700
 6518TIP3   OH241188   3.344   2.229   7.702 -0.7563 -0.1025 -0.3451
 6518TIP3    H141189   3.313   2.175   7.629 -0.5118  0.3256 -0.7709
 6518TIP3    H241190   3.414   2.282   7.664 -0.8543  0.3681  0.1221
 6519TIP3   OH241191   6.156   4.350   0.450  0.6467 -0.1566 -0.1049
 6519TIP3    H141192   6.187   4.330   0.538 -0.4324 -1.0630  0.0999
 6519TIP3    H241193   6.121   4.439   0.456  2.4202  0.5803 -0.1534
 6520TIP3   OH241194   1.472   5.721   1.809  0.0846 -0.3175 -0.4896
 6520TIP3    H141195   1.452   5.788   1.875  3.1986  0.8859 -0.5841
 6520TIP3    H241196   1.458   5.638   1.854 -1.9215  0.3758  0.2787
 6521TIP3   OH241197   2.613   2.167   7.585  0.1984 -0.0441  0.8616
 6521TIP3    H141198   2.559   2.117   7.523 -0.0166 -1.8654  2.4348
 6521TIP3    H241199   2.555   2.237   7.616  1.7863  4.5875 -4.7877
 6522TIP3   OH241200   0.423   4.470   2.938 -0.2571  0.7118  0.1642
 6522TIP3    H141201   0.446   4.377   2.942 -1.0660  0.5513  1.6505
 6522TIP3    H241202   0.412   4.487   2.844  0.1472 -0.6230 -0.1576
 6523TIP3   OH241203   1.201   4.354   2.306 -0.4251  0.6033  0.4113
 6523TIP3    H141204   1.196   4.263   2.277 -0.5913  0.9516 -0.7223
 6523TIP3    H241205   1.143   4.359   2.382 -1.0581 -0.0594 -0.0143
 6524TIP3   OH241206   5.739   1.977   0.182 -0.4074 -0.4460  0.5259
 6524TIP3    H141207   5.777   2.054   0.139 -0.3280 -0.3983  0.6809
 6524TIP3    H241208   5.696   1.928   0.111  0.9958 -1.1442  0.1296
 6525TIP3   OH241209   2.297   1.186   2.037 -0.3120  0.5434  0.4211
 6525TIP3    H141210   2.365   1.247   2.065 -0.1291  0.2342  0.6560
 6525TIP3    H241211   2.345   1.111   2.003 -0.4917 -0.6868  2.7179
 6526TIP3   OH241212   5.917   3.344   0.640  0.4047  0.3208  0.0168
 6526TIP3    H141213   5.909   3.426   0.690  0.2885 -0.0578  0.6239
 6526TIP3    H241214   5.968   3.287   0.697 -1.0077 -0.6413  0.3576
 6527TIP3   OH241215   4.440   5.422   1.663 -0.1259 -0.4534 -0.3146
 6527TIP3    H141216   4.376   5.484   1.701  0.3180 -1.2411  1.8892
 6527TIP3    H241217   4.507   5.478   1.625  1.4227  0.6712  3.5430
 6528TIP3   OH241218   3.291   2.796   0.459  0.0390 -0.2712  0.0940
 6528TIP3    H141219   3.253   2.868   0.508  1.0316  2.0555 -2.2818
 6528TIP3    H241220   3.233   2.722   0.475 -2.3351  1.6434  0.8808
 6529TIP3   OH241221   3.351   5.316   0.548 -0.1687 -0.0504 -0.2728
 6529TIP3    H141222   3.284   5.248   0.543  0.5476 -0.8855  0.8589
 6529TIP3    H241223   3.420   5.286   0.489 -0.3514  0.3034 -0.6724
 6530TIP3   OH241224   0.484   0.795   1.984  0.2426 -0.1597 -0.2609
 6530TIP3    H141225   0.482   0.771   1.891  0.0736  0.7274 -0.5010
 6530TIP3    H241226   0.399   0.766   2.018 -0.0244  0.2136 -0.5835
 6531TIP3   OH241227   2.225   4.085   7.715 -0.3199  0.0388 -0.6585
 6531TIP3    H141228   2.129   4.084   7.721 -0.4278  2.4722 -1.2092
 6531TIP3    H241229   2.243   4.091   7.622  0.3092  0.9295 -0.4944
 6532TIP3   OH241230   6.133   3.275   1.619  0.1154  0.1075  0.2173
 6532TIP3    H141231   6.141   3.303   1.710 -1.2034  0.4031  0.2687
 6532TIP3    H241232   6.041   3.290   1.598  0.0330 -1.4150 -0.6766
 6533TIP3   OH241233   3.658   5.150   2.788  0.0702  0.1058  0.9383
 6533TIP3    H141234   3.663   5.065   2.744 -0.1563  0.1787  0.7644
 6533TIP3    H241235   3.707   5.139   2.869 -1.1120 -0.6016  1.5752
 6534TIP3   OH241236   6.645   3.769   0.035 -0.3952 -0.3089 -0.0718
 6534TIP3    H141237   6.712   3.790  -0.031  0.2132  0.1763  0.6779
 6534TIP3    H241238   6.670   3.683   0.068 -1.8942 -1.5348 -1.9087
 6535TIP3   OH241239   4.001   4.961   1.830  0.2978  0.0501  0.1638
 6535TIP3    H141240   4.020   4.868   1.842 -2.1815 -0.6002 -0.5551
 6535TIP3    H241241   3.981   4.992   1.918  0.5387 -0.2308  0.3217
 6536TIP3   OH241242   5.146   1.843   7.768 -0.1231  0.4824  0.0661
 6536TIP3    H141243   5.112   1.903   7.702  0.7495  0.3421 -0.5446
 6536TIP3    H241244   5.195   1.899   7.829 -0.2315  0.5200  0.1178
 6537TIP3   OH241245   2.203   0.817   0.843 -0.4190  0.0239 -0.4801
 6537TIP3    H141246   2.197   0.893   0.785 -0.5949  0.6465  0.3325
 6537TIP3    H241247   2.277   0.836   0.901 -1.6172  0.4827  0.9661
 6538TIP3   OH241248   0.975   4.340   0.221 -0.1667  0.1066  0.2507
 6538TIP3    H141249   1.040   4.292   0.273 -1.2977 -0.4536  1.1791
 6538TIP3    H241250   0.906   4.276   0.204  0.1857  0.2417 -2.0482
 6539TIP3   OH241251   4.671   0.408   7.818 -0.4180  0.2221 -0.8838
 6539TIP3    H141252   4.700   0.317   7.810  3.8648  1.2582  0.4738
 6539TIP3    H241253   4.701   0.449   7.737  1.7968  1.2255  0.3506
 6540TIP3   OH241254   5.184   5.794   0.490  0.1554  0.2306  0.1435
 6540TIP3    H141255   5.193   5.874   0.542  1.5939  0.1788  0.0215
 6540TIP3    H241256   5.222   5.817   0.405  1.6683 -0.8882  0.4688
 6541TIP3   OH241257   5.328   3.508   8.716  0.2563 -0.1832 -0.1735
 6541TIP3    H141258   5.255   3.448   8.729  0.2748 -0.1635  0.0201
 6541TIP3    H241259   5.288   3.594   8.703  0.3012  0.4107  2.9427
 6542TIP3   OH241260   3.334   3.066   2.178 -0.6624  0.1799  0.5099
 6542TIP3    H141261   3.326   3.038   2.269  1.8563 -1.1578  0.4032
 6542TIP3    H241262   3.403   3.010   2.141 -1.5298  0.7355 -2.2079
 6543TIP3   OH241263   6.095   1.940   7.700  0.5092  0.9863 -0.4965
 6543TIP3    H141264   6.149   2.016   7.722 -0.2603  1.1743  0.8874
 6543TIP3    H241265   6.097   1.886   7.779  1.7773 -0.9345 -1.7404
 6544TIP3   OH241266   4.837   0.126   7.337  0.2426 -0.0716 -0.1068
 6544TIP3    H141267   4.751   0.109   7.298  0.0223 -0.5361  0.5668
 6544TIP3    H241268   4.893   0.058   7.302  0.5389  0.6796 -1.1459
 6545TIP3   OH241269   6.173   2.769   8.198 -0.0154  0.7169  0.2252
 6545TIP3    H141270   6.130   2.847   8.233 -1.7416 -0.7321  1.4852
 6545TIP3    H241271   6.103   2.718   8.158  1.2130  0.1234 -1.3095
 6546TIP3   OH241272   2.347   6.268   1.488  0.2892 -0.0327 -0.3520
 6546TIP3    H141273   2.363   6.299   1.577  0.8986  0.1529 -0.5219
 6546TIP3    H241274   2.256   6.292   1.471  1.0330  2.8740 -0.9127
 6547TIP3   OH241275   1.487   1.755   1.586 -0.1462  0.4784  0.3350
 6547TIP3    H141276   1.400   1.794   1.581  0.2455  1.2310 -1.2499
 6547TIP3    H241277   1.544   1.817   1.539  1.2171 -0.0664  1.2116
 6548TIP3   OH241278   1.990   0.865   8.221 -0.3027 -0.6811 -0.9236
 6548TIP3    H141279   2.053   0.893   8.155 -0.0751 -0.4864 -0.6277
 6548TIP3    H241280   1.908   0.905   8.195  0.2758  1.3460  0.1827
 6549TIP3   OH241281   0.433   2.403   8.508  0.2266 -0.4182 -0.4283
 6549TIP3    H141282   0.421   2.343   8.581 -1.3486  1.5494  1.0680
 6549TIP3    H241283   0.350   2.401   8.460  0.6255 -0.3880 -1.1484
 6550TIP3   OH241284   6.215   3.652   8.003  0.2956 -0.1093 -0.2634
 6550TIP3    H141285   6.191   3.689   8.088 -0.6567 -0.6143 -0.2932
 6550TIP3    H241286   6.143   3.676   7.945  1.1263  0.5632 -1.0322
 6551TIP3   OH241287   5.357   5.199   7.534 -0.2101 -0.9574 -0.5341
 6551TIP3    H141288   5.348   5.110   7.567  1.1043 -1.2737 -0.9966
 6551TIP3    H241289   5.431   5.196   7.474 -1.3557  0.0283 -2.0626
 6552TIP3   OH241290   2.747   6.091   1.491 -0.0314 -0.7703 -0.2007
 6552TIP3    H141291   2.681   6.115   1.426 -0.6135 -1.5950  0.0676
 6552TIP3    H241292   2.752   5.996   1.486  1.5457 -0.6874 -0.5923
 6553TIP3   OH241293   1.815   2.659   0.520  0.3347  0.1824 -0.2287
 6553TIP3    H141294   1.781   2.670   0.431 -3.3135  0.5904  1.0155
 6553TIP3    H241295   1.820   2.565   0.533 -1.2344  0.0572 -0.2729
 6554TIP3   OH241296   1.112   6.473   1.781 -0.3182 -0.3569 -0.1913
 6554TIP3    H141297   1.049   6.535   1.744  0.1142  1.1395  1.4119
 6554TIP3    H241298   1.186   6.474   1.719 -0.0432  1.2673  0.1277
 6555TIP3   OH241299   4.496   3.057   2.699  0.2622  0.0469  0.6437
 6555TIP3    H141300   4.402   3.051   2.712 -0.1674 -0.4524 -2.1250
 6555TIP3    H241301   4.531   3.079   2.786 -2.5837  2.8531  1.2669
 6556TIP3   OH241302   6.444   0.504   8.456  0.1258 -0.1090 -0.0587
 6556TIP3    H141303   6.383   0.431   8.459  1.0141 -0.8442  0.7337
 6556TIP3    H241304   6.398   0.576   8.500  0.6183 -1.2879  2.5676
 6557TIP3   OH241305   6.043   2.505   0.740  0.3585 -0.2181 -0.1294
 6557TIP3    H141306   6.000   2.536   0.661 -0.5110  0.8961  0.7606
 6557TIP3    H241307   6.018   2.567   0.808  1.7231 -0.6953  0.8708
 6558TIP3   OH241308   6.765   0.942   1.888  0.5715  0.3759 -1.1829
 6558TIP3    H141309   6.684   0.985   1.916  2.5104  2.3369  1.9399
 6558TIP3    H241310   6.771   0.963   1.794  0.0839  5.0029 -0.4290
 6559TIP3   OH241311   4.946   3.402   0.620  0.0050  0.7148 -0.2076
 6559TIP3    H141312   4.947   3.340   0.548 -0.1196  1.4596 -0.8644
 6559TIP3    H241313   5.017   3.463   0.600  1.0340  0.0153  1.1428
 6560TIP3   OH241314   5.462   0.514   6.826 -0.3405  0.1692 -0.2011
 6560TIP3    H141315   5.470   0.606   6.851  0.6473 -0.1802  0.8675
 6560TIP3    H241316   5.552   0.482   6.822 -0.6918 -0.9186  0.1342
 6561TIP3   OH241317   2.482   6.428   7.920 -0.1215 -0.3543  0.6897
 6561TIP3    H141318   2.523   6.383   7.846 -0.4003  0.0316  0.2983
 6561TIP3    H241319   2.403   6.377   7.938 -1.1910  0.7406 -0.6578
 6562TIP3   OH241320   1.530   2.275   2.869 -0.1713  0.3004 -0.0554
 6562TIP3    H141321   1.562   2.233   2.949 -0.1794 -0.8778 -0.6632
 6562TIP3    H241322   1.579   2.358   2.865  0.1387  0.1844  0.9366
 6563TIP3   OH241323   1.410   0.995   7.492 -0.1949  0.5824  0.2726
 6563TIP3    H141324   1.456   0.914   7.471 -0.2691  0.1401  1.7221
 6563TIP3    H241325   1.318   0.976   7.471  0.0356  0.9340 -1.1294
 6564TIP3   OH241326   1.826   0.049   1.911 -0.1281  0.4952  0.1117
 6564TIP3    H141327   1.902   0.060   1.968 -0.4131  0.9824  0.4046
 6564TIP3    H241328   1.847   0.098   1.832  0.6429 -0.9013 -0.5966
 6565TIP3   OH241329   5.274   2.786   8.604  0.0212 -0.2254 -0.3829
 6565TIP3    H141330   5.349   2.777   8.662 -0.5792 -1.2608  0.2581
 6565TIP3    H241331   5.305   2.753   8.519  0.9906  1.5831 -0.7634
 6566TIP3   OH241332   0.758   6.300   8.667 -0.2090  0.5825 -0.4594
 6566TIP3    H141333   0.686   6.239   8.651 -0.3315  0.9311 -1.3479
 6566TIP3    H241334   0.786   6.326   8.579 -0.9021  2.6462 -0.1433
 6567TIP3   OH241335   3.999   4.237   8.607 -0.5164 -0.2171  0.3860
 6567TIP3    H141336   4.074   4.295   8.619 -1.6093  1.2541  0.5210
 6567TIP3    H241337   3.998   4.182   8.685 -0.4834  0.8705  1.1871
 6568TIP3   OH241338   4.180   0.894   1.021  0.2622 -0.0544 -0.3423
 6568TIP3    H141339   4.193   0.989   1.028  1.5529 -0.2900  0.8179
 6568TIP3    H241340   4.125   0.871   1.096  1.2271 -0.4286  0.2596
 6569TIP3   OH241341   4.048   0.538   0.522  0.1242  0.6651 -0.4775
 6569TIP3    H141342   3.963   0.581   0.513  0.7352  2.0088 -0.1914
 6569TIP3    H241343   4.080   0.566   0.608  0.5331 -0.4249 -0.2622
 6570TIP3   OH241344   0.275   4.976   0.188 -0.3340  0.4096  0.8746
 6570TIP3    H141345   0.262   4.903   0.249 -1.2771  0.0722  0.2983
 6570TIP3    H241346   0.274   5.054   0.242  0.3007  0.0292  1.4578
 6571TIP3   OH241347   0.797   4.141   0.197  0.0427 -0.0232 -0.0427
 6571TIP3    H141348   0.807   4.066   0.255  0.6318  1.9783  2.6155
 6571TIP3    H241349   0.702   4.156   0.193  0.0475  0.6054  1.5637
 6572TIP3   OH241350   1.735   3.071   2.563  0.0903  0.1761 -0.5105
 6572TIP3    H141351   1.801   3.103   2.624  0.7692  0.8062 -1.5312
 6572TIP3    H241352   1.731   2.977   2.577  0.9359  0.1887 -0.1759
 6573TIP3   OH241353   5.562   0.736   0.209  0.1218 -0.1889  0.4678
 6573TIP3    H141354   5.505   0.743   0.286  1.6701  0.3617  1.6169
 6573TIP3    H241355   5.501   0.727   0.136 -1.7404  4.1004  1.1358
 6574TIP3   OH241356   1.579   2.480   7.273  0.2508  0.3471  0.0533
 6574TIP3    H141357   1.525   2.521   7.206 -1.6937 -1.2786  0.5365
 6574TIP3    H241358   1.650   2.439   7.224  0.0723  0.9976 -0.7786
 6575TIP3   OH241359   5.880   6.328   8.099 -0.1634 -0.1291  0.0263
 6575TIP3    H141360   5.880   6.397   8.166  1.2783 -1.7650  1.8143
 6575TIP3    H241361   5.863   6.375   8.017  2.2471  2.6145  0.9324
 6576TIP3   OH241362   4.257   1.041   8.202  0.1304  0.1440  0.1904
 6576TIP3    H141363   4.274   0.985   8.127  0.5408  0.3696  0.1137
 6576TIP3    H241364   4.338   1.038   8.253 -0.0571  0.1899  0.4922
 6577TIP3   OH241365   2.012   6.829   7.715 -0.1160  0.3650  0.4503
 6577TIP3    H141366   2.072   6.765   7.754 -0.9510 -0.3914  0.5320
 6577TIP3    H241367   1.950   6.848   7.785 -0.5608  0.3773  0.0523
 6578TIP3   OH241368   5.223   1.651   0.646  1.0561 -0.0867  0.0139
 6578TIP3    H141369   5.268   1.573   0.612 -0.4345 -0.0647 -2.2475
 6578TIP3    H241370   5.140   1.618   0.681 -0.0432  0.5145 -1.8857
 6579TIP3   OH241371   6.235   0.245   1.118 -0.1927  0.4682  0.1420
 6579TIP3    H141372   6.230   0.318   1.181 -0.9208 -0.3712  1.0906
 6579TIP3    H241373   6.147   0.241   1.080 -0.9003 -1.3268  1.7827
 6580TIP3   OH241374   2.300   6.632   1.401 -0.4925 -0.5175  0.8391
 6580TIP3    H141375   2.208   6.608   1.410 -0.5824 -0.2904  0.5272
 6580TIP3    H241376   2.340   6.558   1.356 -0.8089 -0.0300 -0.2979
 6581TIP3   OH241377   4.022   3.363   8.064  0.2948 -0.0546 -0.2307
 6581TIP3    H141378   3.966   3.432   8.031  1.8276  1.7644  0.7739
 6581TIP3    H241379   4.101   3.369   8.010  0.7250 -0.5391  0.3330
 6582TIP3   OH241380   4.430   6.476   1.253  0.1123 -0.3052  0.4003
 6582TIP3    H141381   4.473   6.428   1.183  1.5636 -1.3639  1.9417
 6582TIP3    H241382   4.486   6.552   1.268 -0.4198  0.1439  0.1528
 6583TIP3   OH241383   2.526   4.507   0.874 -0.0617 -0.3152  0.0587
 6583TIP3    H141384   2.433   4.485   0.868  0.0183 -0.5992 -0.1758
 6583TIP3    H241385   2.571   4.433   0.833  0.1598  0.6944 -1.6467
 6584TIP3   OH241386   0.270   4.262   6.888  0.2062 -0.4279 -0.1232
 6584TIP3    H141387   0.175   4.256   6.894 -0.0457  1.9223 -0.5947
 6584TIP3    H241388   0.302   4.215   6.965 -1.2240 -2.4138 -0.6501
 6585TIP3   OH241389   3.576   4.921   2.353  0.0763  0.4050 -0.3534
 6585TIP3    H141390   3.606   4.964   2.273  0.6672  2.2648  0.8081
 6585TIP3    H241391   3.627   4.840   2.358  0.5030  0.5916 -1.4964
 6586TIP3   OH241392   3.013   3.764   1.482 -0.4277  0.2548 -0.2129
 6586TIP3    H141393   3.081   3.701   1.502 -0.6716 -0.2872 -1.0590
 6586TIP3    H241394   3.045   3.846   1.520  0.4447 -0.1069 -0.1388
 6587TIP3   OH241395   1.659   5.434   1.655 -0.2603  0.4345 -0.0462
 6587TIP3    H141396   1.583   5.381   1.678 -0.4948  0.9007  0.2758
 6587TIP3    H241397   1.685   5.477   1.737  0.1849  0.4886 -0.2103
 6588TIP3   OH241398   4.839   4.967   2.586 -0.2753  0.3535  0.0206
 6588TIP3    H141399   4.927   4.999   2.566 -1.0202  2.7614  0.2961
 6588TIP3    H241400   4.812   4.920   2.508  0.8828  0.4615 -0.4548
 6589TIP3   OH241401   3.654   3.374   8.555  0.7843 -0.0575 -0.0408
 6589TIP3    H141402   3.607   3.305   8.507 -0.7823  0.8925  0.0479
 6589TIP3    H241403   3.591   3.405   8.619  0.7718  2.6491 -1.2151
 6590TIP3   OH241404   5.422   2.807   0.689 -0.7426  0.2405  0.0121
 6590TIP3    H141405   5.407   2.719   0.724  0.2777 -0.4184 -1.1230
 6590TIP3    H241406   5.369   2.864   0.745 -0.1687 -0.8862  1.8078
 6591TIP3   OH241407   5.150   0.888   8.446  0.0781 -0.0767 -0.5218
 6591TIP3    H141408   5.074   0.914   8.394 -0.1451  0.9105  0.2685
 6591TIP3    H241409   5.205   0.839   8.385 -1.3412 -1.1019 -1.0130
 6592TIP3   OH241410   6.648   5.509   8.467 -0.6010  0.2813 -0.7704
 6592TIP3    H141411   6.617   5.506   8.376 -0.8826 -2.3094 -0.6563
 6592TIP3    H241412   6.729   5.458   8.466  0.0952  1.3107  0.2387
 6593TIP3   OH241413   1.362   4.522   2.052 -0.3162  0.2408  0.2170
 6593TIP3    H141414   1.383   4.611   2.023 -1.6857  0.4015 -0.3797
 6593TIP3    H241415   1.267   4.523   2.064 -0.3358 -1.1205  0.2978
 6594TIP3   OH241416   0.470   1.861   6.968 -0.3541 -0.0250 -0.3331
 6594TIP3    H141417   0.480   1.954   6.989  0.0145  0.1793 -1.3642
 6594TIP3    H241418   0.378   1.842   6.986 -0.9604  1.0603 -2.0549
 6595TIP3   OH241419   3.134   1.776   1.620  0.2341 -0.1256 -0.4373
 6595TIP3    H141420   3.187   1.802   1.696  0.2079 -0.0398 -0.4486
 6595TIP3    H241421   3.054   1.829   1.627  0.6441  0.5862 -1.0582
 6596TIP3   OH241422   4.645   1.832   0.711 -0.1215 -0.1786  0.1887
 6596TIP3    H141423   4.592   1.806   0.636 -0.0964  0.5048 -0.0680
 6596TIP3    H241424   4.586   1.827   0.786  0.3320 -2.7691  0.4733
 6597TIP3   OH241425   1.933   4.587   1.595  0.0469  0.2448  0.6529
 6597TIP3    H141426   1.964   4.510   1.548  0.2842  1.0768 -0.6030
 6597TIP3    H241427   1.928   4.559   1.686 -1.3393 -1.7018  0.0316
 6598TIP3   OH241428   6.388   1.987   0.526  0.7503  0.3448 -0.0122
 6598TIP3    H141429   6.351   2.048   0.462  1.0083  0.2945 -0.2115
 6598TIP3    H241430   6.340   1.905   0.512  1.1852  0.1683 -0.5263
 6599TIP3   OH241431   5.615   3.968   2.453  0.1727 -0.0822 -0.1122
 6599TIP3    H141432   5.538   3.935   2.407  1.4183 -1.2096 -1.5120
 6599TIP3    H241433   5.653   4.032   2.392  0.5692  0.1478  0.3726
 6600TIP3   OH241434   2.679   5.181   2.169 -0.0664  0.5204 -0.3537
 6600TIP3    H141435   2.735   5.252   2.200  2.2699 -1.0881 -0.6637
 6600TIP3    H241436   2.686   5.183   2.074 -0.2738  0.0967 -0.3836
 6601TIP3   OH241437   4.402   2.314   8.620 -0.1628  0.1210  0.0997
 6601TIP3    H141438   4.404   2.222   8.645 -2.0643  0.5510  2.1470
 6601TIP3    H241439   4.386   2.313   8.525 -0.9572 -1.6555  0.2173
 6602TIP3   OH241440   3.425   6.118   0.009 -0.5804  0.2716 -0.0130
 6602TIP3    H141441   3.457   6.029   0.021  1.7178  0.9593 -0.4451
 6602TIP3    H241442   3.424   6.131  -0.085  1.7418  1.4953  0.0598
 6603TIP3   OH241443   0.922   1.003   1.280 -0.0768 -0.1186  0.5247
 6603TIP3    H141444   0.839   0.969   1.316  0.7201 -0.2954  2.3167
 6603TIP3    H241445   0.948   0.938   1.215  0.2295 -1.8115  2.2377
 6604TIP3   OH241446   3.172   4.801   8.015  0.0850  0.3884  0.0732
 6604TIP3    H141447   3.115   4.748   7.959  1.1891 -1.2583  0.4453
 6604TIP3    H241448   3.154   4.891   7.989  0.1003 -0.2730 -2.5117
 6605TIP3   OH241449   4.703   3.860   0.083  0.3948 -0.2626  0.5326
 6605TIP3    H141450   4.627   3.878   0.028  0.6336 -1.0729 -0.0864
 6605TIP3    H241451   4.733   3.946   0.112 -0.1722  0.1278 -0.0183
 6606TIP3   OH241452   2.498   1.443   7.171  0.2366 -0.3356  0.4468
 6606TIP3    H141453   2.556   1.414   7.100 -1.0594  0.1884 -0.8818
 6606TIP3    H241454   2.436   1.371   7.181  0.8914 -0.7523  1.6337
 6607TIP3   OH241455   0.703   1.880   1.792 -0.7972 -0.2311  0.3230
 6607TIP3    H141456   0.620   1.908   1.754 -1.1404 -1.3085  0.2408
 6607TIP3    H241457   0.769   1.936   1.751 -1.3236 -0.3287 -0.6857
 6608TIP3   OH241458   4.909   6.431   1.232  0.7323 -0.2035  0.3253
 6608TIP3    H141459   4.990   6.432   1.283  1.2061 -0.0210 -0.4074
 6608TIP3    H241460   4.875   6.520   1.237  0.0496 -0.5104  1.4326
 6609TIP3   OH241461   0.250   3.440   2.423 -0.3404 -0.1442 -0.2973
 6609TIP3    H141462   0.255   3.518   2.478  0.6440 -0.5896  0.2580
 6609TIP3    H241463   0.239   3.474   2.334 -1.0419  0.5959  0.0604
 6610TIP3   OH241464   2.454   3.709   2.320 -0.2010  0.1199 -0.0579
 6610TIP3    H141465   2.542   3.688   2.288 -0.5081 -1.1261 -0.1609
 6610TIP3    H241466   2.436   3.640   2.384 -0.5492  1.1807  1.0307
 6611TIP3   OH241467   4.368   6.666   7.516  0.0143 -0.1906 -0.1428
 6611TIP3    H141468   4.323   6.646   7.434 -1.7673 -0.5060  0.8747
 6611TIP3    H241469   4.382   6.761   7.513 -0.5622 -0.1161 -0.5498
 6612TIP3   OH241470   5.526   2.226   2.679  0.2439 -0.5354 -0.1764
 6612TIP3    H141471   5.482   2.169   2.741 -0.8163  1.0297  0.5649
 6612TIP3    H241472   5.479   2.309   2.684  1.2309  0.1808 -1.7973
 6613TIP3   OH241473   4.080   6.171   0.755  0.5549  0.1919  0.5967
 6613TIP3    H141474   4.026   6.238   0.714  1.0750 -0.0990 -0.6276
 6613TIP3    H241475   4.119   6.215   0.831 -0.0100  0.9192  0.4807
 6614TIP3   OH241476   3.844   4.233   2.282  0.9218  0.3622 -0.3366
 6614TIP3    H141477   3.896   4.268   2.210 -1.2900  1.7047 -1.3989
 6614TIP3    H241478   3.826   4.142   2.256  1.6418  0.2904 -0.5888
 6615TIP3   OH241479   0.602   0.278   7.303 -0.2969  0.1580  0.2940
 6615TIP3    H141480   0.556   0.341   7.249 -0.7656 -0.9883 -0.6844
 6615TIP3    H241481   0.663   0.235   7.244  1.5656  1.1334  1.4090
 6616TIP3   OH241482   6.379   2.028   7.225  0.1428  0.3896  0.3771
 6616TIP3    H141483   6.293   2.025   7.183  0.4084  1.2285 -0.2613
 6616TIP3    H241484   6.417   2.110   7.195  1.1782  0.0196  0.6399
 6617TIP3   OH241485   0.962   2.678   0.121  0.1574  0.1849  0.3714
 6617TIP3    H141486   0.903   2.655   0.049 -0.9591  2.0263  0.6560
 6617TIP3    H241487   0.947   2.609   0.186 -1.0211  0.1208  0.0619
 6618TIP3   OH241488   5.362   3.367   1.701 -0.2594  0.2044  0.3411
 6618TIP3    H141489   5.310   3.384   1.780 -0.5054  0.9441  0.0284
 6618TIP3    H241490   5.312   3.405   1.630  0.9963  1.5645  0.1187
 6619TIP3   OH241491   3.989   5.668   1.581 -0.0957  0.5126  0.7314
 6619TIP3    H141492   3.894   5.658   1.592 -0.3234  2.5813  0.9007
 6619TIP3    H241493   4.006   5.640   1.491 -0.4719 -2.0822  1.3835
 6620TIP3   OH241494   5.119   1.399   8.493  0.0440  0.0993  0.0174
 6620TIP3    H141495   5.026   1.380   8.506 -0.3356 -1.3642 -3.5680
 6620TIP3    H241496   5.162   1.314   8.493  1.3886  0.7287  1.2785
 6621TIP3   OH241497   4.476   1.996   1.534 -0.3779 -0.5895 -0.0500
 6621TIP3    H141498   4.388   1.996   1.572 -0.4877 -0.0681 -0.2931
 6621TIP3    H241499   4.472   1.931   1.463 -1.1182  0.7562 -1.2783
 6622TIP3   OH241500   3.982   0.738   7.910  0.2787  1.1031  0.4601
 6622TIP3    H141501   4.019   0.678   7.845  1.2548  0.5078  1.5265
 6622TIP3    H241502   3.889   0.717   7.912  0.1379  1.4521 -1.0500
 6623TIP3   OH241503   5.753   5.409   7.678  0.2443 -0.4272  0.4976
 6623TIP3    H141504   5.783   5.412   7.587  0.5107  1.5286  0.6083
 6623TIP3    H241505   5.703   5.490   7.689  2.1853  0.5795  2.7123
 6624TIP3   OH241506   1.634   4.638   2.111  0.1624  0.8649  0.2162
 6624TIP3    H141507   1.712   4.692   2.099 -0.0971  1.4224  0.9506
 6624TIP3    H241508   1.571   4.674   2.048  0.9135 -0.4778 -1.3804
 6625TIP3   OH241509   0.077   3.692   1.654  0.2061 -0.5217  0.0456
 6625TIP3    H141510   0.170   3.713   1.660 -0.0382  0.4427  0.6936
 6625TIP3    H241511   0.049   3.681   1.745 -0.4690 -0.0710 -0.0984
 6626TIP3   OH241512   6.777   4.845   8.158  0.6426  0.4029  0.0989
 6626TIP3    H141513   6.731   4.927   8.174  0.2237  0.2650 -0.3896
 6626TIP3    H241514   6.785   4.805   8.245  1.1243  1.1000  0.3803
 6627TIP3   OH241515   5.781   3.907   0.094 -0.1417 -0.3454  0.5779
 6627TIP3    H141516   5.802   3.993   0.057  1.1975  0.2711  2.6164
 6627TIP3    H241517   5.742   3.859   0.021  0.3223  1.5224 -0.9942
 6628TIP3   OH241518   4.864   5.695   2.093  0.0845  0.2462 -0.3626
 6628TIP3    H141519   4.830   5.617   2.137 -0.7779  0.1967 -1.0905
 6628TIP3    H241520   4.847   5.767   2.155 -2.9227  0.5023 -1.3224
 6629TIP3   OH241521   2.694   4.530   8.225  0.1636  0.6361  0.3462
 6629TIP3    H141522   2.787   4.523   8.244  0.4201  0.0181 -1.0147
 6629TIP3    H241523   2.657   4.573   8.302  1.4060 -0.0067  1.3423
 6630TIP3   OH241524   6.037   5.120   1.698 -0.4814 -0.0108  0.2944
 6630TIP3    H141525   5.947   5.153   1.688 -0.2603  0.4899 -0.0688
 6630TIP3    H241526   6.075   5.177   1.765 -0.7774 -0.9373  1.2763
 6631TIP3   OH241527   2.382   5.059   7.893  0.4959  0.0461 -0.3856
 6631TIP3    H141528   2.421   5.006   7.962 -0.8196  1.4092  1.4945
 6631TIP3    H241529   2.433   5.140   7.894  0.1608  0.2631 -0.6832
 6632TIP3   OH241530   4.672   4.227   8.136 -0.2295  0.3337  0.0856
 6632TIP3    H141531   4.760   4.208   8.104  0.2615 -0.4816  1.7919
 6632TIP3    H241532   4.686   4.291   8.206 -1.0834  0.7986 -0.1583
 6633TIP3   OH241533   1.545   0.772   8.181  0.2232  0.4120  0.4647
 6633TIP3    H141534   1.511   0.852   8.221 -0.0742  2.5285 -3.5029
 6633TIP3    H241535   1.473   0.740   8.127  1.5783 -0.2358 -1.0462
 6634TIP3   OH241536   5.048   5.199   1.143 -0.4486 -0.1429 -0.1410
 6634TIP3    H141537   4.978   5.147   1.102  1.5903 -1.6175 -1.9572
 6634TIP3    H241538   5.066   5.154   1.225 -2.0200  0.6488  0.6896
 6635TIP3   OH241539   0.127   3.372   8.344 -0.2015  0.1344 -0.1564
 6635TIP3    H141540   0.216   3.397   8.369 -0.2199  0.5886 -0.5451
 6635TIP3    H241541   0.100   3.437   8.280 -1.1306  0.4799  0.5644
 6636TIP3   OH241542   6.636   5.103   8.332 -0.0866 -0.0583  0.1775
 6636TIP3    H141543   6.710   5.076   8.387  0.5995  0.3793 -0.5105
 6636TIP3    H241544   6.568   5.126   8.394  0.0921 -1.1621  0.8205
 6637TIP3   OH241545   4.287   5.494   1.400 -0.6787  0.5677  0.0191
 6637TIP3    H141546   4.196   5.513   1.376 -0.7388  1.5149  0.9549
 6637TIP3    H241547   4.303   5.545   1.479  0.5748  0.1590  0.0564
 6638TIP3   OH241548   5.515   2.633   8.739 -0.0348 -0.2253 -0.1271
 6638TIP3    H141549   5.605   2.623   8.707  0.3226  0.0506  0.7677
 6638TIP3    H241550   5.480   2.544   8.740 -0.0084 -0.2635 -1.1130
 6639TIP3   OH241551   0.809   0.307   8.737  0.6751  0.1541  0.5814
 6639TIP3    H141552   0.825   0.397   8.707 -0.1033  0.5240  1.2453
 6639TIP3    H241553   0.893   0.262   8.724  1.2160  1.1046  0.6985
 6640TIP3   OH241554   6.777   6.833   7.805 -0.5741  0.2966  0.2566
 6640TIP3    H141555   6.760   6.924   7.782 -0.9061  0.4304  0.9880
 6640TIP3    H241556   6.784   6.787   7.722  0.4598  1.1382 -0.1457
 6641TIP3   OH241557   2.747   5.808   2.741  0.1225 -0.1842  0.2315
 6641TIP3    H141558   2.743   5.899   2.768  1.0892 -0.4317  1.2320
 6641TIP3    H241559   2.814   5.805   2.673 -1.2412  0.1638 -1.1858
 6642TIP3   OH241560   0.395   4.901   7.715  0.2471  0.0586 -0.3012
 6642TIP3    H141561   0.410   4.992   7.690 -2.1684  0.3611 -0.8839
 6642TIP3    H241562   0.469   4.853   7.679  2.8435  2.0364  2.0061
 6643TIP3   OH241563   5.806   4.881   7.827  0.6947 -0.0273  0.0829
 6643TIP3    H141564   5.711   4.892   7.837  0.7166 -0.5838  0.9309
 6643TIP3    H241565   5.829   4.942   7.757 -0.2698  0.2081 -0.0454
 6644TIP3   OH241566   3.962   2.220   7.448  1.0595  0.2292 -0.6635
 6644TIP3    H141567   3.953   2.133   7.486  1.2784  0.1340 -0.8316
 6644TIP3    H241568   4.004   2.206   7.364 -0.1771  0.3490 -1.3259
 6645TIP3   OH241569   3.784   0.923   0.167  0.0382  0.1451  0.0781
 6645TIP3    H141570   3.876   0.896   0.174 -0.0251  0.1489  1.0256
 6645TIP3    H241571   3.754   0.930   0.258 -1.3737 -1.4668 -0.1966
 6646TIP3   OH241572   6.679   5.346   6.855  0.0740  0.3200  0.2091
 6646TIP3    H141573   6.713   5.318   6.940 -0.2861 -0.6146  0.0643
 6646TIP3    H241574   6.614   5.413   6.876  0.7283  0.8380  0.5997
 6647TIP3   OH241575   0.102   6.085   1.217 -0.3492  0.5096  0.3585
 6647TIP3    H141576   0.157   6.145   1.168 -1.7948  1.5661 -0.0231
 6647TIP3    H241577   0.122   6.103   1.309  0.7605  0.0541  0.2246
 6648TIP3   OH241578   2.679   0.961   2.138  0.2435 -0.1706 -0.0176
 6648TIP3    H141579   2.735   0.893   2.175 -0.4894 -0.6534  0.2220
 6648TIP3    H241580   2.591   0.939   2.167 -0.2069  0.0762 -1.1158
 6649TIP3   OH241581   0.671   6.437   1.728  0.2889 -0.3473 -0.0025
 6649TIP3    H141582   0.750   6.396   1.763  0.3527  0.3109  0.6387
 6649TIP3    H241583   0.679   6.529   1.752 -0.7881 -0.3141  0.2665
 6650TIP3   OH241584   6.522   0.991   2.753  0.1641 -0.5457 -0.1424
 6650TIP3    H141585   6.584   0.921   2.772  0.4367 -0.5183 -0.9074
 6650TIP3    H241586   6.537   1.056   2.821 -1.1625 -1.8848  1.5165
 6651TIP3   OH241587   0.959   0.948   0.342  0.2305  0.4495  0.4608
 6651TIP3    H141588   0.968   0.925   0.249 -1.3414  0.6425  0.2467
 6651TIP3    H241589   0.884   1.007   0.346 -1.8237 -2.0711  2.2502
 6652TIP3   OH241590   4.748   2.310   1.244 -0.2466 -0.1236 -0.2338
 6652TIP3    H141591   4.683   2.291   1.311 -0.5849  0.2859 -0.4438
 6652TIP3    H241592   4.814   2.364   1.288 -0.5830  0.3343 -0.2808
 6653TIP3   OH241593   1.738   1.485   2.369  0.3041  0.1999 -0.1318
 6653TIP3    H141594   1.649   1.450   2.378 -0.2654  1.7418  0.4651
 6653TIP3    H241595   1.775   1.478   2.457 -0.5061  2.7784  0.5028
 6654TIP3   OH241596   0.785   1.438   1.018  0.2632  0.5759  0.2316
 6654TIP3    H141597   0.729   1.475   1.086 -0.3373 -1.0522  0.6696
 6654TIP3    H241598   0.828   1.363   1.060  1.6242  0.8930 -0.5433
 6655TIP3   OH241599   5.989   6.004   6.733  0.6021  0.4163 -0.5272
 6655TIP3    H141600   6.015   5.914   6.754 -0.9844  0.2339  0.8898
 6655TIP3    H241601   6.071   6.047   6.709  1.7551 -0.8798  0.8141
 6656TIP3   OH241602   4.327   2.619   8.173  0.0965 -0.0802 -0.4642
 6656TIP3    H141603   4.396   2.573   8.221  0.4283  0.0569 -0.8020
 6656TIP3    H241604   4.371   2.651   8.094  0.3303  2.3695  0.5733
 6657TIP3   OH241605   2.568   6.772   1.739  0.5168 -0.0157 -0.5772
 6657TIP3    H141606   2.600   6.696   1.787  2.3599  0.3840 -1.0817
 6657TIP3    H241607   2.574   6.747   1.647 -0.3573  0.2046 -0.7078
 6658TIP3   OH241608   5.947   1.707   8.404  0.6426  0.1715  0.4491
 6658TIP3    H141609   5.956   1.697   8.498 -0.5456 -1.0432  0.4682
 6658TIP3    H241610   5.978   1.796   8.386 -0.1735  0.8394  2.1337
 6659TIP3   OH241611   0.536   4.404   7.915  0.1741  0.1148  0.3130
 6659TIP3    H141612   0.468   4.407   7.982 -0.9834  1.8936 -0.8397
 6659TIP3    H241613   0.505   4.464   7.847  2.3151  0.0179 -0.8384
 6660TIP3   OH241614   1.022   3.487   7.842  0.7422  0.0165  0.4215
 6660TIP3    H141615   0.951   3.430   7.873  0.7859  0.4787  1.4379
 6660TIP3    H241616   1.023   3.476   7.747 -0.2492 -0.5138  0.4610
 6661TIP3   OH241617   1.483   0.977   6.794  0.8498 -0.1330 -0.3404
 6661TIP3    H141618   1.396   1.014   6.812  1.7902  0.9834  2.4291
 6661TIP3    H241619   1.467   0.883   6.786 -0.7668  0.1781 -1.3639
 6662TIP3   OH241620   6.191   1.849   6.926  0.0992  0.0095  0.2783
 6662TIP3    H141621   6.138   1.777   6.960  0.3112 -0.0243  0.5400
 6662TIP3    H241622   6.174   1.850   6.832  0.7030 -0.8745  0.1573
 6663TIP3   OH241623   4.643   3.858   2.538 -0.2358 -0.0611 -0.1657
 6663TIP3    H141624   4.632   3.796   2.467  3.2735 -1.2489  0.1227
 6663TIP3    H241625   4.614   3.810   2.616 -0.4611 -0.1567 -0.3055
 6664TIP3   OH241626   3.073   0.378   6.853  0.3506 -0.0911 -0.1905
 6664TIP3    H141627   2.998   0.438   6.849 -0.3027 -0.8420  0.3657
 6664TIP3    H241628   3.053   0.311   6.788  1.7569  0.9962 -1.8334
 6665TIP3   OH241629   4.038   2.220   1.485  0.3428 -0.5596  0.0637
 6665TIP3    H141630   4.042   2.153   1.553 -1.8650  0.9123  1.7864
 6665TIP3    H241631   3.963   2.195   1.431  0.4767 -0.3109 -0.2402
 6666TIP3   OH241632   4.357   6.699   7.955 -0.1334  0.2904 -0.3276
 6666TIP3    H141633   4.299   6.633   7.916 -0.9235  0.2769  0.8322
 6666TIP3    H241634   4.353   6.773   7.895 -1.1653  0.1961 -0.3898
 6667TIP3   OH241635   4.300   6.019   8.173 -0.0493  0.5250  0.0004
 6667TIP3    H141636   4.349   5.939   8.189  1.3323  1.0585 -1.3750
 6667TIP3    H241637   4.231   6.018   8.240 -0.9273 -2.4601 -0.7769
 6668TIP3   OH241638   1.096   2.796   1.021 -0.0154 -0.6721  0.6221
 6668TIP3    H141639   1.123   2.887   1.032 -0.7040 -0.3604 -0.1630
 6668TIP3    H241640   1.174   2.745   1.044  0.4766  0.1223  0.7590
 6669TIP3   OH241641   6.662   6.608   0.622 -0.1656 -0.1580  0.4183
 6669TIP3    H141642   6.752   6.616   0.591 -0.9010  0.0160 -1.8836
 6669TIP3    H241643   6.656   6.668   0.696  1.3353  0.6203 -0.0648
 6670TIP3   OH241644   1.845   3.315   0.477 -0.2326 -0.7064  0.1273
 6670TIP3    H141645   1.868   3.229   0.442  0.9305 -0.1992 -0.4006
 6670TIP3    H241646   1.929   3.352   0.507 -0.5726  0.6043 -0.4695
 6671TIP3   OH241647   1.653   0.034   2.169  0.4526 -0.6851  0.0905
 6671TIP3    H141648   1.672   0.107   2.110  0.8515  0.3293  1.4140
 6671TIP3    H241649   1.590  -0.020   2.122 -0.7896  1.1614 -0.4725
 6672TIP3   OH241650   0.276   2.601   1.400 -0.4782 -0.1640 -0.0228
 6672TIP3    H141651   0.277   2.695   1.417 -0.0184 -0.1129 -0.3151
 6672TIP3    H241652   0.220   2.565   1.469 -1.4172  0.4204 -0.4589
 6673TIP3   OH241653   0.706   2.519   7.771  0.0656 -0.4143  0.7715
 6673TIP3    H141654   0.747   2.564   7.845  0.0878 -0.7248  0.9484
 6673TIP3    H241655   0.745   2.431   7.771  0.2976 -0.3206  0.2024
 6674TIP3   OH241656   4.204   1.581   1.415 -0.4598  0.7828 -0.3230
 6674TIP3    H141657   4.158   1.588   1.498  0.6334 -2.8999  0.7400
 6674TIP3    H241658   4.164   1.507   1.370  0.8469  0.8916 -1.7936
 6675TIP3   OH241659   0.445   1.778   2.057  0.4334 -0.3145  0.1864
 6675TIP3    H141660   0.497   1.845   2.100  2.4346 -1.5753 -0.1690
 6675TIP3    H241661   0.412   1.820   1.978 -0.5819  1.0178  1.2556
 6676TIP3   OH241662   5.435   3.295   1.372 -0.7887 -0.2986 -0.3707
 6676TIP3    H141663   5.485   3.214   1.363  1.5220  1.0696 -0.5503
 6676TIP3    H241664   5.390   3.306   1.288  1.0535 -0.0667 -1.3679
 6677TIP3   OH241665   1.308   3.475   7.469  0.5958  0.3008  0.2004
 6677TIP3    H141666   1.292   3.543   7.535  0.9825  0.9061 -0.3294
 6677TIP3    H241667   1.340   3.522   7.392  0.5670 -0.4482 -0.2800
 6678TIP3   OH241668   1.866   6.338   1.371  0.3256 -0.2726 -0.3070
 6678TIP3    H141669   1.802   6.384   1.425  0.1356 -0.8008 -0.0712
 6678TIP3    H241670   1.825   6.333   1.285 -0.1608 -1.0024 -0.0472
 6679TIP3   OH241671   3.749   2.045   2.805  0.2600  0.2159 -0.4367
 6679TIP3    H141672   3.756   2.039   2.710 -0.3101  2.2941 -0.6581
 6679TIP3    H241673   3.668   1.999   2.826  0.2800 -0.0695 -0.9604
 6680TIP3   OH241674   6.119   2.122   1.135 -0.4254 -0.0772 -0.6679
 6680TIP3    H141675   6.180   2.119   1.209 -1.1171  1.5145 -0.0047
 6680TIP3    H241676   6.039   2.082   1.168 -0.8057  0.8291 -0.4670
 6681TIP3   OH241677   1.053   3.646   1.955 -0.0380  0.1052  0.3045
 6681TIP3    H141678   1.142   3.681   1.964 -0.6646  2.4542 -1.4970
 6681TIP3    H241679   1.050   3.612   1.866 -0.7291 -0.7318  0.6320
 6682TIP3   OH241680   2.164   0.677   1.064 -0.2533  0.0369 -0.2645
 6682TIP3    H141681   2.164   0.710   0.974  0.9501  0.5430 -0.0970
 6682TIP3    H241682   2.105   0.735   1.111 -1.2712 -0.5224 -0.8080
 6683TIP3   OH241683   1.911   2.015   0.218  0.3795  0.6848  0.5025
 6683TIP3    H141684   1.858   2.061   0.154  0.8022  2.3197  1.2883
 6683TIP3    H241685   1.993   1.994   0.172  0.2051  0.7558  0.1594
 6684TIP3   OH241686   5.154   5.605   7.090  0.1606  0.3932  0.7870
 6684TIP3    H141687   5.071   5.574   7.127  0.5011 -1.0241  0.4187
 6684TIP3    H241688   5.212   5.612   7.165  0.8474 -2.4667  0.6411
 6685TIP3   OH241689   4.801   2.266   8.499 -0.1072  0.1516 -0.3936
 6685TIP3    H141690   4.767   2.250   8.587  0.6044  0.6542 -0.0182
 6685TIP3    H241691   4.764   2.196   8.446  0.4019 -0.8562  0.5455
 6686TIP3   OH241692   6.469   0.455   2.836 -0.2330 -0.5182  0.7870
 6686TIP3    H141693   6.475   0.425   2.745 -0.4703 -0.3446  0.7121
 6686TIP3    H241694   6.446   0.377   2.886 -1.2919 -0.3865  0.5337
 6687TIP3   OH241695   3.919   5.825   2.339  0.5610  0.2111 -0.2232
 6687TIP3    H141696   4.007   5.792   2.322  0.0192  0.1353 -3.6883
 6687TIP3    H241697   3.861   5.752   2.318 -0.4118  0.3219  1.8268
 6688TIP3   OH241698   2.884   0.398   2.203 -0.5040  0.1155 -0.4730
 6688TIP3    H141699   2.939   0.421   2.127  0.7381 -0.0231  0.3427
 6688TIP3    H241700   2.796   0.388   2.168  0.2809 -1.3011 -2.1345
 6689TIP3   OH241701   2.448   3.673   0.017 -0.0119  0.3319 -0.0487
 6689TIP3    H141702   2.424   3.593  -0.031  2.4991  0.8538 -2.4594
 6689TIP3    H241703   2.397   3.742  -0.025 -0.4501  0.3294  0.4690
 6690TIP3   OH241704   1.163   0.943   7.719  0.0039  0.3633 -0.6616
 6690TIP3    H141705   1.136   0.864   7.674 -0.0046 -0.2864  0.4433
 6690TIP3    H241706   1.091   1.004   7.706  0.1436  0.3148 -1.7762
 6691TIP3   OH241707   0.362   2.113   2.192  0.3851  0.4151  0.1132
 6691TIP3    H141708   0.442   2.102   2.141 -0.7455 -1.8615 -1.3083
 6691TIP3    H241709   0.380   2.068   2.275  1.0107  1.1280  0.3861
 6692TIP3   OH241710   6.039   5.498   6.953 -0.0162 -0.5685 -0.8308
 6692TIP3    H141711   6.116   5.469   6.904  1.0197  0.8336 -0.0946
 6692TIP3    H241712   5.968   5.442   6.921  0.8908 -0.6252 -2.9394
 6693TIP3   OH241713   0.126   2.094   8.437  0.0489 -0.3068 -0.3112
 6693TIP3    H141714   0.102   2.184   8.415 -1.5128 -0.3200  1.1193
 6693TIP3    H241715   0.166   2.059   8.357 -1.1658  1.0118 -1.5498
 6694TIP3   OH241716   6.514   0.724   7.775  0.4177  0.3124 -0.4072
 6694TIP3    H141717   6.594   0.676   7.752 -1.1820 -2.2375 -1.0859
 6694TIP3    H241718   6.506   0.791   7.707 -0.6769 -2.8016 -3.6689
 6695TIP3   OH241719   2.320   4.006   7.968  0.0136 -0.0303 -0.3595
 6695TIP3    H141720   2.345   3.914   7.970  2.2389  0.4189 -2.5170
 6695TIP3    H241721   2.287   4.020   7.879 -1.9527  0.9299  0.4642
 6696TIP3   OH241722   6.171   0.937   6.749 -0.0385 -0.1295  0.2644
 6696TIP3    H141723   6.263   0.961   6.757 -0.3677  0.7312  1.8450
 6696TIP3    H241724   6.140   0.983   6.671  0.6167  0.4025  0.3148
 6697TIP3   OH241725   0.136   1.816   7.940 -0.1371 -0.8790 -0.1481
 6697TIP3    H141726   0.143   1.905   7.974  0.0875  0.1876 -2.8141
 6697TIP3    H241727   0.172   1.820   7.852 -1.5415 -3.2816 -0.9381
 6698TIP3   OH241728   3.911   1.789   2.299 -0.5870 -0.0331 -0.7102
 6698TIP3    H141729   3.920   1.788   2.394 -0.7602  0.5386 -0.6844
 6698TIP3    H241730   3.890   1.880   2.278 -1.3496 -0.3202 -1.2193
 6699TIP3   OH241731   1.783   3.645   7.773  0.4274  0.0553  0.3547
 6699TIP3    H141732   1.828   3.650   7.858  0.6887 -1.2399  0.3136
 6699TIP3    H241733   1.848   3.675   7.709  0.3448  0.6961  0.5568
 6700TIP3   OH241734   3.002   2.569   8.156  0.3318 -0.2317 -0.3896
 6700TIP3    H141735   2.956   2.644   8.195 -0.0362 -1.2504  1.2579
 6700TIP3    H241736   2.942   2.535   8.090 -0.4003 -0.2965  0.2953
 6701TIP3   OH241737   0.765   0.956   1.949 -0.2938 -0.4652 -0.2745
 6701TIP3    H141738   0.678   0.917   1.957  0.1128 -1.6126 -1.1738
 6701TIP3    H241739   0.825   0.884   1.965  0.4878 -0.1744 -1.8043
 6702TIP3   OH241740   3.194   3.148   1.579  0.8797  0.6096  0.7404
 6702TIP3    H141741   3.205   3.230   1.530 -2.0543  0.6925  0.0491
 6702TIP3    H241742   3.216   3.171   1.669  2.6815  1.4231  0.1469
 6703TIP3   OH241743   4.703   4.255   0.566 -0.2019 -0.0445 -0.0270
 6703TIP3    H141744   4.745   4.246   0.651 -1.1425  1.7330  0.6794
 6703TIP3    H241745   4.681   4.165   0.541 -0.4387 -0.5707  1.8763
 6704TIP3   OH241746   0.220   1.717   8.613  0.1302  0.6477 -0.5411
 6704TIP3    H141747   0.140   1.769   8.618  1.0388  2.3872 -2.4398
 6704TIP3    H241748   0.279   1.758   8.678  0.0941  0.5435 -0.4430
 6705TIP3   OH241749   2.771   2.541   7.245 -0.2263 -0.2776 -0.4846
 6705TIP3    H141750   2.769   2.534   7.150 -0.0737 -1.2764 -0.4297
 6705TIP3    H241751   2.774   2.450   7.275  1.2358  0.0368  0.4247
 6706TIP3   OH241752   1.323   5.682   0.984 -0.4494  0.2982  0.0076
 6706TIP3    H141753   1.401   5.660   1.034 -0.6909  1.3062  0.8697
 6706TIP3    H241754   1.307   5.774   1.005 -1.4362  0.3112 -0.7462
 6707TIP3   OH241755   3.451   6.050   0.397 -0.7792 -0.2844 -0.0409
 6707TIP3    H141756   3.519   6.078   0.457 -0.0201  0.5576 -1.2539
 6707TIP3    H241757   3.399   5.988   0.447  0.0724  0.0745  1.3381
 6708TIP3   OH241758   0.161   1.284   2.842  0.5177 -0.2722  0.2214
 6708TIP3    H141759   0.156   1.374   2.874  0.9231 -0.0354 -0.3801
 6708TIP3    H241760   0.247   1.277   2.801  1.0820 -1.3657  1.5290
 6709TIP3   OH241761   1.959   0.999   1.530 -0.6279 -0.4389 -0.4781
 6709TIP3    H141762   2.050   1.029   1.535 -0.8749  0.2325  0.2460
 6709TIP3    H241763   1.962   0.909   1.563 -0.1371 -0.6503 -1.0728
 6710TIP3   OH241764   4.847   5.466   2.251 -0.0538  0.4162  0.4653
 6710TIP3    H141765   4.798   5.412   2.313 -0.1303 -0.4982 -0.3568
 6710TIP3    H241766   4.931   5.422   2.242 -0.8764 -0.8452 -1.8322
 6711TIP3   OH241767   1.329   0.547   2.764  0.1404 -0.2828  0.9123
 6711TIP3    H141768   1.297   0.529   2.675 -1.7556 -0.7819  1.6359
 6711TIP3    H241769   1.420   0.518   2.763 -0.0542 -0.9650 -0.6714
 6712TIP3   OH241770   5.707   4.242   0.782 -0.4310 -0.1535 -0.3234
 6712TIP3    H141771   5.739   4.274   0.866  2.0328 -0.3741 -1.1029
 6712TIP3    H241772   5.695   4.320   0.729 -1.9242 -0.0191  0.1758
 6713TIP3   OH241773   3.968   3.528   0.751 -0.4605  0.0026 -0.0775
 6713TIP3    H141774   3.906   3.469   0.793 -0.3794  1.4943  2.3596
 6713TIP3    H241775   3.938   3.616   0.774  0.7938  0.8652 -1.4961
 6714TIP3   OH241776   0.722   5.009   8.132 -0.0305  0.5794 -0.6335
 6714TIP3    H141777   0.747   5.066   8.204  0.5894 -0.1225 -0.2818
 6714TIP3    H241778   0.675   4.936   8.175 -3.8659  2.3792 -1.3158
 6715TIP3   OH241779   1.788   6.710   8.285  0.1322  0.2775  0.1840
 6715TIP3    H141780   1.780   6.797   8.326  1.6124  0.6635 -0.2755
 6715TIP3    H241781   1.827   6.728   8.200 -0.6375 -0.7519 -0.4008
 6716TIP3   OH241782   3.174   5.578   8.676 -0.1099 -0.1761  0.1519
 6716TIP3    H141783   3.257   5.538   8.654 -0.1639 -0.6700  0.7962
 6716TIP3    H241784   3.184   5.671   8.654 -0.1629 -0.6155 -1.8547
 6717TIP3   OH241785   4.391   3.338   1.655 -0.4348  0.0988 -0.8877
 6717TIP3    H141786   4.411   3.318   1.746 -0.3198 -2.2171 -1.3407
 6717TIP3    H241787   4.310   3.389   1.658  0.2105  1.0787  0.5286
 6718TIP3   OH241788   1.708   1.072   1.663  0.2548 -0.3104 -0.1521
 6718TIP3    H141789   1.765   1.002   1.631 -0.3077 -1.3867  1.1082
 6718TIP3    H241790   1.654   1.030   1.730 -0.4506  1.2273  0.2827
 6719TIP3   OH241791   1.088   3.333   0.687 -0.2854  0.2278 -0.8590
 6719TIP3    H141792   1.045   3.268   0.631 -0.6317 -1.8511  1.6492
 6719TIP3    H241793   1.176   3.298   0.701  0.0946  1.1721 -0.7956
 6720TIP3   OH241794   5.320   2.313   0.880  0.0678 -0.5710  0.1035
 6720TIP3    H141795   5.394   2.374   0.874  1.1454 -1.7473  1.0778
 6720TIP3    H241796   5.360   2.227   0.890 -1.4416 -1.3112  0.0036
 6721TIP3   OH241797   3.984   6.655   8.687  0.0296 -0.3915  0.1015
 6721TIP3    H141798   3.982   6.689   8.777  0.3643  3.4611 -1.1665
 6721TIP3    H241799   4.071   6.676   8.655 -0.2260 -1.3419 -1.3056
 6722TIP3   OH241800   1.356   5.384   8.860 -0.1197  0.1099 -0.7075
 6722TIP3    H141801   1.342   5.387   8.766 -0.5436 -1.4803 -0.7157
 6722TIP3    H241802   1.349   5.292   8.883  2.2127  0.1659  0.5513
 6723TIP3   OH241803   4.740   3.127   1.885 -0.1762  0.4093 -0.0531
 6723TIP3    H141804   4.660   3.077   1.903  1.2319 -1.6583  1.0644
 6723TIP3    H241805   4.763   3.104   1.796 -0.9500  1.2535 -0.4878
 6724TIP3   OH241806   6.430   0.564   0.976  0.0602 -0.0863  0.0015
 6724TIP3    H141807   6.414   0.641   1.030  2.0453  0.3859 -0.0002
 6724TIP3    H241808   6.464   0.499   1.038 -1.9948 -1.1791  0.0838
 6725TIP3   OH241809   6.506   3.759   7.839 -0.5668  0.3386 -0.0126
 6725TIP3    H141810   6.573   3.779   7.773 -1.0458  1.3692 -0.2111
 6725TIP3    H241811   6.427   3.742   7.788 -0.3928 -1.2166  0.2063
 6726TIP3   OH241812   2.401   2.569   1.733  0.0891  0.0958  0.3114
 6726TIP3    H141813   2.481   2.550   1.782  0.3461 -0.3500 -0.2679
 6726TIP3    H241814   2.410   2.660   1.706 -0.4791  0.6444  1.8656
 6727TIP3   OH241815   5.889   2.513   0.108  0.7195  0.0363 -0.2996
 6727TIP3    H141816   5.800   2.546   0.098  1.1985  1.3317 -0.4602
 6727TIP3    H241817   5.938   2.556   0.038  1.5065 -0.5271 -0.0996
 6728TIP3   OH241818   0.100   1.560   8.013 -0.2010  0.2527 -0.6141
 6728TIP3    H141819   0.107   1.649   7.979 -0.2328 -0.1127 -1.6013
 6728TIP3    H241820   0.075   1.571   8.105  0.7922  1.2833 -0.4384
 6729TIP3   OH241821   1.031   5.543   1.518 -0.4458 -0.6286 -0.0834
 6729TIP3    H141822   1.100   5.531   1.452 -0.0375  0.5673  0.1158
 6729TIP3    H241823   1.078   5.547   1.601 -0.8182 -0.4383  0.1179
 6730TIP3   OH241824   6.797   2.252   1.327  0.3147  0.6538  0.5026
 6730TIP3    H141825   6.781   2.168   1.285 -1.0456  0.9620  0.3549
 6730TIP3    H241826   6.788   2.316   1.257 -1.0223  1.0974  1.0482
 6731TIP3   OH241827   6.075   2.963   8.671  0.0234  0.4603 -0.1838
 6731TIP3    H141828   6.157   2.945   8.625  0.3342  0.0687  0.5104
 6731TIP3    H241829   6.007   2.932   8.611  0.3651  0.9461 -0.8377
 6732TIP3   OH241830   2.181   5.875   0.111  0.0655 -0.1959  0.3467
 6732TIP3    H141831   2.106   5.880   0.171 -2.7617  0.6940 -2.9395
 6732TIP3    H241832   2.245   5.821   0.158 -1.6638  0.7459  4.2656
 6733TIP3   OH241833   0.626   0.563   0.806 -0.0584 -0.3785  0.4893
 6733TIP3    H141834   0.620   0.529   0.895  1.3858  0.2603  0.8642
 6733TIP3    H241835   0.654   0.654   0.817 -0.5882 -0.0663 -0.6024
 6734TIP3   OH241836   0.092   0.133   0.985  0.4234  0.1442  0.1545
 6734TIP3    H141837   0.082   0.111   0.892  0.5316 -0.1724  0.2171
 6734TIP3    H241838   0.114   0.050   1.027  0.3765  0.2874  0.4642
 6735TIP3   OH241839   5.264   4.638   7.210 -0.8888  0.2885 -0.3745
 6735TIP3    H141840   5.261   4.558   7.157 -1.5169 -0.0302  0.1311
 6735TIP3    H241841   5.357   4.649   7.231 -0.9137 -0.9833  0.5372
 6736TIP3   OH241842   3.511   6.405   0.540 -0.4423 -0.3570  0.0718
 6736TIP3    H141843   3.545   6.343   0.605  0.7625  0.6108  0.3885
 6736TIP3    H241844   3.424   6.370   0.518  0.1092 -2.0333  0.3942
 6737TIP3   OH241845   0.599   1.479   0.709  0.5880 -0.1072  0.0054
 6737TIP3    H141846   0.591   1.537   0.634  0.4498  0.0028  0.1048
 6737TIP3    H241847   0.520   1.496   0.761  0.2859 -0.7675 -0.2303
 6738TIP3   OH241848   0.995   1.723   1.020  0.3059 -0.1117 -0.4164
 6738TIP3    H141849   0.983   1.815   1.044  0.6545 -0.3889  0.8963
 6738TIP3    H241850   0.911   1.697   0.983 -0.4879  0.2080  1.0709
 6739TIP3   OH241851   5.441   2.098   0.931  0.6130 -0.3216  0.2412
 6739TIP3    H141852   5.512   2.034   0.918  2.1206  1.0374  1.3317
 6739TIP3    H241853   5.414   2.085   1.022 -0.0802 -0.3705  0.0307
 6740TIP3   OH241854   4.058   0.249   2.677  0.8196  0.2738 -0.1189
 6740TIP3    H141855   4.082   0.256   2.769  3.1096 -1.2494 -0.5321
 6740TIP3    H241856   3.986   0.185   2.676  1.8129 -0.9066  0.5165
 6741TIP3   OH241857   2.983   0.718   1.681 -0.9444 -0.0964 -0.1852
 6741TIP3    H141858   2.921   0.726   1.754 -0.2462 -2.6101  0.7882
 6741TIP3    H241859   2.936   0.753   1.605 -3.6505 -2.0103  0.4874
 6742TIP3   OH241860   0.191   5.759   7.825 -0.1832  0.1206 -0.1565
 6742TIP3    H141861   0.281   5.793   7.830 -0.2421  0.3455 -0.5344
 6742TIP3    H241862   0.151   5.785   7.907  0.9413 -2.5267  1.3496
 6743TIP3   OH241863   0.547   5.203   7.785 -0.2407  0.4827 -0.2856
 6743TIP3    H141864   0.610   5.268   7.751 -1.0165  1.4158  0.0170
 6743TIP3    H241865   0.484   5.255   7.834 -1.9155 -0.2682 -1.5362
 6744TIP3   OH241866   1.675   1.806   8.333 -0.2678  0.2069 -0.2840
 6744TIP3    H141867   1.663   1.854   8.415  1.3067  0.4432 -0.1629
 6744TIP3    H241868   1.769   1.792   8.327 -0.5230 -1.4445 -1.1417
 6745TIP3   OH241869   1.225   3.653   0.329 -0.0662  0.6960  0.7405
 6745TIP3    H141870   1.261   3.737   0.357 -2.1409  2.0255 -0.3666
 6745TIP3    H241871   1.204   3.665   0.236 -0.9496 -0.8644  0.7022
 6746TIP3   OH241872   0.269   3.691   8.038  0.1549  0.1123 -0.1320
 6746TIP3    H141873   0.246   3.753   7.969 -1.0046  0.0123  0.1554
 6746TIP3    H241874   0.293   3.611   7.992 -0.4085  0.1151 -0.4339
 6747TIP3   OH241875   6.658   0.355   7.983  0.2419 -0.3886 -0.0690
 6747TIP3    H141876   6.612   0.435   8.007  0.9279 -0.1456  0.4551
 6747TIP3    H241877   6.717   0.338   8.057 -1.0164 -2.2533  0.5894
 6748TIP3   OH241878   4.401   6.246   1.433 -0.9396  0.7880  0.2652
 6748TIP3    H141879   4.481   6.193   1.433 -0.6937  0.9932  3.0647
 6748TIP3    H241880   4.426   6.328   1.390 -0.8160 -0.5551 -2.4233
 6749TIP3   OH241881   6.313   1.562   0.289 -0.4101  0.2018 -0.0594
 6749TIP3    H141882   6.310   1.467   0.273 -0.8791  0.2099 -0.0110
 6749TIP3    H241883   6.262   1.575   0.368 -0.1239  0.4665  0.0831
 6750TIP3   OH241884   4.744   2.466   7.572 -0.2540 -0.4924 -0.3398
 6750TIP3    H141885   4.814   2.413   7.611  0.4120  1.4666  1.2692
 6750TIP3    H241886   4.669   2.454   7.630 -0.9855 -1.7636 -1.4905
 6751TIP3   OH241887   5.423   4.032   8.478  0.2509  1.1188  0.1142
 6751TIP3    H141888   5.331   4.047   8.454  0.2819  2.1303  0.5756
 6751TIP3    H241889   5.473   4.077   8.411  0.5157 -1.1598 -1.3526
 6752TIP3   OH241890   1.414   6.111   0.339 -0.3394 -0.1485 -0.1514
 6752TIP3    H141891   1.479   6.156   0.394  0.2046 -1.0699 -0.0262
 6752TIP3    H241892   1.339   6.100   0.397  0.2842 -1.2474  0.4865
 6753TIP3   OH241893   3.564   2.691   6.952  0.0671 -0.7604 -0.0610
 6753TIP3    H141894   3.490   2.630   6.957  0.3409 -0.9981  2.2386
 6753TIP3    H241895   3.636   2.638   6.919 -0.2299 -1.1376 -0.1136
 6754TIP3   OH241896   3.020   5.708   7.529 -0.3976  0.2679  0.2074
 6754TIP3    H141897   3.072   5.758   7.592  0.1990 -0.6646  0.4688
 6754TIP3    H241898   3.047   5.741   7.444  0.6761 -0.2395  0.3366
 6755TIP3   OH241899   1.373   6.207   8.619  0.2406  0.3336 -0.2252
 6755TIP3    H141900   1.363   6.215   8.713 -0.0481 -0.4110 -0.1863
 6755TIP3    H241901   1.434   6.276   8.595  1.0933 -0.0991  0.6471
 6756TIP3   OH241902   3.300   3.968   7.880 -0.1891  0.3617  0.1127
 6756TIP3    H141903   3.249   3.994   7.802  1.2539 -0.8886 -1.3097
 6756TIP3    H241904   3.381   4.018   7.873 -0.0427  0.2306  0.8224
 6757TIP3   OH241905   4.459   6.008   8.664 -0.0303  0.2267 -0.4545
 6757TIP3    H141906   4.505   5.946   8.608  0.6852  0.2911  0.0487
 6757TIP3    H241907   4.406   6.061   8.604 -0.4165 -0.6643 -0.9156
 6758TIP3   OH241908   1.013   6.544   1.283 -0.3529  0.5864  0.2603
 6758TIP3    H141909   0.984   6.481   1.349  2.2707 -1.0663  0.0095
 6758TIP3    H241910   1.103   6.567   1.310 -0.4086  2.4928 -0.9377
 6759TIP3   OH241911   4.459   2.206   0.450  0.3891 -0.4545  0.1822
 6759TIP3    H141912   4.396   2.139   0.477 -4.5576  3.6946  0.5401
 6759TIP3    H241913   4.487   2.247   0.532  0.7154 -0.0086 -0.1471
 6760TIP3   OH241914   6.583   3.209   6.978  0.3817  0.0220  0.1991
 6760TIP3    H141915   6.673   3.184   7.000  0.4136 -0.4551 -0.4449
 6760TIP3    H241916   6.534   3.126   6.981  0.4313 -0.1270 -1.6869
 6761TIP3   OH241917   4.434   1.266   2.522  0.2046  0.0333 -0.3135
 6761TIP3    H141918   4.390   1.266   2.607 -0.3336 -2.0861 -0.5322
 6761TIP3    H241919   4.389   1.335   2.472  1.9247  2.8447  1.6860
 6762TIP3   OH241920   4.421   3.134   7.237  0.1513  0.3505  0.0375
 6762TIP3    H141921   4.453   3.053   7.277 -0.3792 -1.1723 -2.4001
 6762TIP3    H241922   4.410   3.112   7.145 -2.4851  2.4234 -0.2715
 6763TIP3   OH241923   0.137   2.070   8.027  0.4082 -0.1394 -0.3465
 6763TIP3    H141924   0.111   2.155   7.990  0.7701  0.2247  0.2096
 6763TIP3    H241925   0.081   2.059   8.104 -0.0600 -0.6981 -0.7675
 6764TIP3   OH241926   5.639   5.688   7.298 -0.5240 -0.3365  0.7204
 6764TIP3    H141927   5.637   5.734   7.214  1.3602 -1.2182  0.1331
 6764TIP3    H241928   5.703   5.735   7.350 -0.5917 -0.6802  1.1237
 6765TIP3   OH241929   3.505   0.087   2.142 -0.3391 -0.2532 -0.2111
 6765TIP3    H141930   3.534   0.069   2.232  2.5989 -0.2046 -1.0550
 6765TIP3    H241931   3.482   0.180   2.142 -0.2889 -0.2353  0.4588
 6766TIP3   OH241932   4.165   4.771   1.970 -0.1636 -0.1279 -0.4129
 6766TIP3    H141933   4.205   4.690   2.001  0.8730  0.6527  0.3710
 6766TIP3    H241934   4.215   4.841   2.014 -1.8186  0.9192 -0.0980
 6767TIP3   OH241935   3.288   1.023   1.045  0.6252  0.3190  0.6728
 6767TIP3    H141936   3.359   1.070   1.002 -0.9746 -0.9855 -3.9594
 6767TIP3    H241937   3.210   1.076   1.029 -0.3535 -1.2420  0.0104
 6768TIP3   OH241938   5.433   3.450   0.893 -0.3056 -0.2766 -0.5282
 6768TIP3    H141939   5.442   3.541   0.866  1.1445 -0.7453 -1.7570
 6768TIP3    H241940   5.515   3.430   0.938 -0.9572 -0.7525  0.4830
 6769TIP3   OH241941   4.119   4.674   1.718  0.3945  0.0250  0.1927
 6769TIP3    H141942   4.073   4.591   1.706  0.8844 -0.2644  0.2867
 6769TIP3    H241943   4.149   4.673   1.809  1.6590 -0.3510 -0.2079
 6770TIP3   OH241944   2.355   1.920   2.270 -0.1622  0.3842  0.1656
 6770TIP3    H141945   2.450   1.924   2.263 -0.0531 -0.4948  0.9286
 6770TIP3    H241946   2.328   1.863   2.198  0.0900 -0.9521  1.0817
 6771TIP3   OH241947   0.478   6.532   7.469 -0.2298  0.1533  0.8871
 6771TIP3    H141948   0.547   6.570   7.523 -0.3898  0.8314  0.6272
 6771TIP3    H241949   0.427   6.607   7.438 -0.5169 -0.2674  0.3044
 6772TIP3   OH241950   0.071   3.206   2.108 -0.1199  0.5976  0.1385
 6772TIP3    H141951   0.052   3.255   2.188  0.0107 -0.0810  0.5883
 6772TIP3    H241952   0.161   3.175   2.119 -0.6112 -0.8072  0.4259
 6773TIP3   OH241953   3.134   5.162   8.740 -0.2509 -0.0628  0.0474
 6773TIP3    H141954   3.172   5.124   8.660  0.4121  0.8170 -0.0706
 6773TIP3    H241955   3.078   5.232   8.708 -2.0047 -1.3082  0.2242
 6774TIP3   OH241956   1.003   3.472   7.552  0.2458 -0.2531  0.1065
 6774TIP3    H141957   0.999   3.535   7.481  0.5530  0.2540  0.5287
 6774TIP3    H241958   1.071   3.411   7.526 -1.6082 -1.8085 -1.3998
 6775TIP3   OH241959   5.313   5.717   8.754  0.3526  0.2760 -0.3082
 6775TIP3    H141960   5.343   5.749   8.839  1.8884 -2.2187  0.1899
 6775TIP3    H241961   5.218   5.732   8.754  0.2944  0.1545  1.9323
 6776TIP3   OH241962   1.961   3.913   0.228  0.6907  0.1167  0.4501
 6776TIP3    H141963   1.991   3.857   0.157 -0.8110  0.1702 -0.2704
 6776TIP3    H241964   1.987   4.001   0.202  1.2314 -0.0085  0.5683
 6777TIP3   OH241965   3.770   2.411   2.188  0.5770  0.5696 -0.2480
 6777TIP3    H141966   3.760   2.361   2.269 -4.1678 -0.5206 -1.1692
 6777TIP3    H241967   3.849   2.377   2.148  2.0330 -0.2202  2.9612
 6778TIP3   OH241968   1.983   4.764   8.727 -0.4242  0.4392 -0.2446
 6778TIP3    H141969   1.910   4.761   8.790 -0.8560  1.1409 -0.7003
 6778TIP3    H241970   1.988   4.674   8.693  0.4210 -0.2011  1.4380
 6779TIP3   OH241971   1.987   3.537   2.489 -0.7548  0.1927  0.1328
 6779TIP3    H141972   2.048   3.597   2.531 -2.3666  2.4342 -0.5270
 6779TIP3    H241973   1.904   3.585   2.485 -2.4580 -2.4932  0.4763
 6780TIP3   OH241974   6.555   5.909   0.544 -0.4550  0.0794  0.1235
 6780TIP3    H141975   6.508   5.912   0.627 -1.9781 -1.2174 -0.6331
 6780TIP3    H241976   6.608   5.989   0.544  0.2261 -0.2928  2.6694
 6781TIP3   OH241977   1.913   2.166   0.933 -0.2681  0.1205  0.5616
 6781TIP3    H141978   1.874   2.209   1.009  1.6753 -1.1973  2.4545
 6781TIP3    H241979   1.969   2.098   0.971 -0.0261 -1.3265 -2.1233
 6782TIP3   OH241980   6.379   3.076   0.710 -0.5926  0.1380 -0.0560
 6782TIP3    H141981   6.429   3.158   0.706  1.7128 -1.0925  1.5166
 6782TIP3    H241982   6.388   3.039   0.622  0.9036  0.1716  0.0644
 6783TIP3   OH241983   2.989   0.496   8.676  0.6428 -0.2490  0.2807
 6783TIP3    H141984   3.029   0.431   8.733 -0.1608 -1.7180 -0.7632
 6783TIP3    H241985   2.912   0.526   8.725  0.5978 -0.6532  0.4675
 6784TIP3   OH241986   1.266   1.563   8.354  0.4507 -0.3259 -0.3745
 6784TIP3    H141987   1.355   1.537   8.377  0.1208  0.8116  2.6681
 6784TIP3    H241988   1.272   1.656   8.334 -0.2436  0.1908  1.6114
 6785TIP3   OH241989   6.491   5.767   0.324  0.3458 -0.0585  0.4227
 6785TIP3    H141990   6.521   5.806   0.242 -1.1347 -0.6278 -0.4246
 6785TIP3    H241991   6.498   5.838   0.388  2.7543  0.0255  0.1393
 6786TIP3   OH241992   2.183   0.155   8.549  0.6312 -0.0242 -0.4335
 6786TIP3    H141993   2.269   0.112   8.542  0.6128 -0.2830  0.6605
 6786TIP3    H241994   2.200   0.234   8.601 -0.1228 -1.2082  1.7593
 6787TIP3   OH241995   4.177   4.114   1.996 -0.1057 -0.7022 -0.4559
 6787TIP3    H141996   4.267   4.083   2.007  0.0208  0.3832  2.7654
 6787TIP3    H241997   4.175   4.153   1.909  2.3431 -1.3678 -0.8873
 6788TIP3   OH241998   3.981   3.965   2.099  0.3755 -0.0041  0.3719
 6788TIP3    H141999   3.924   3.962   2.022 -1.0914  1.8645  1.2940
 6788TIP3    H242000   4.049   4.028   2.075  1.2066 -1.0621 -0.1496
 6789TIP3   OH242001   4.887   2.217   0.142 -0.1143 -0.5046  0.0950
 6789TIP3    H142002   4.829   2.146   0.170  0.7207 -1.0454  0.5038
 6789TIP3    H242003   4.967   2.204   0.193  0.0244  0.7859  0.2385
 6790TIP3   OH242004   3.137   3.843   0.502 -0.2514 -0.4238 -0.1146
 6790TIP3    H142005   3.159   3.786   0.576  0.3069 -1.6268 -1.1804
 6790TIP3    H242006   3.055   3.808   0.467 -0.5825  0.2223  0.0039
 6791TIP3   OH242007   0.703   6.807   7.288 -0.5280  0.7180  0.1005
 6791TIP3    H142008   0.677   6.762   7.208 -0.5827  1.4415 -0.3028
 6791TIP3    H242009   0.695   6.900   7.266  1.7491  0.9930  0.1735
 6792TIP3   OH242010   5.347   1.532   2.234 -0.2244 -0.0020 -0.2137
 6792TIP3    H142011   5.377   1.468   2.169 -1.1422  2.8902 -3.8475
 6792TIP3    H242012   5.427   1.561   2.278  1.1896  0.7608 -3.0292
 6793TIP3   OH242013   0.636   1.124   2.196  0.2136 -0.2744 -0.2197
 6793TIP3    H142014   0.671   1.134   2.285  0.2898 -0.8939 -0.1788
 6793TIP3    H242015   0.556   1.073   2.206 -1.1636  1.7580 -0.2258
 6794TIP3   OH242016   4.233   6.564   0.971  0.1866 -0.1886  0.0737
 6794TIP3    H142017   4.212   6.554   1.063  2.9599  0.9065  0.9162
 6794TIP3    H242018   4.194   6.648   0.946 -0.9782 -0.7099  0.0797
 6795TIP3   OH242019   1.307   5.633   0.538 -0.5055 -0.2501 -0.1657
 6795TIP3    H142020   1.264   5.623   0.453  0.7692 -1.4794 -0.7252
 6795TIP3    H242021   1.266   5.567   0.593 -0.9976  0.2199  0.0362
 6796TIP3   OH242022   0.583   6.080   7.216  0.2960 -0.8873  0.6194
 6796TIP3    H142023   0.491   6.083   7.187 -0.2084  0.3749  2.1592
 6796TIP3    H242024   0.629   6.038   7.145 -1.5295 -1.7694 -0.1154
 6797TIP3   OH242025   0.027   6.599   0.409  0.7014 -0.1436  0.1182
 6797TIP3    H142026  -0.031   6.634   0.340  0.7096  0.7158  0.5301
 6797TIP3    H242027   0.101   6.660   0.411 -0.2052  0.9709  2.1724
 6798TIP3   OH242028   3.879   3.670   1.898 -0.7814 -0.3295 -0.1384
 6798TIP3    H142029   3.855   3.657   1.989 -0.6300  0.1367 -0.0270
 6798TIP3    H242030   3.821   3.739   1.867 -0.9828 -0.6415 -0.4590
 6799TIP3   OH242031   2.521   5.100   0.612  0.6799 -0.1990 -0.3123
 6799TIP3    H142032   2.563   5.186   0.621 -1.4616  0.8074  0.8134
 6799TIP3    H242033   2.593   5.038   0.607  2.2898  1.4410  1.2973
 6800TIP3   OH242034   1.976   6.028   2.073  0.3386 -0.1751  0.2759
 6800TIP3    H142035   1.976   5.977   2.155  0.9699 -1.5694 -0.5588
 6800TIP3    H242036   1.914   6.099   2.089 -0.1364 -0.8743  1.6909
 6801TIP3   OH242037   2.610   0.448   0.573 -0.2647 -0.5602 -0.0119
 6801TIP3    H142038   2.563   0.365   0.584 -2.1746  0.6508  1.8189
 6801TIP3    H242039   2.560   0.494   0.505  0.9066 -0.9409 -1.1669
 6802TIP3   OH242040   1.549   4.691   7.597 -0.8248  0.3860 -0.1511
 6802TIP3    H142041   1.554   4.653   7.684 -1.1270 -2.4874 -1.2923
 6802TIP3    H242042   1.456   4.691   7.575 -0.7438  0.9717 -0.5412
 6803TIP3   OH242043   1.196   2.398   8.434  0.5905 -0.0682 -0.3387
 6803TIP3    H142044   1.249   2.428   8.508  0.6817  0.0874 -0.4665
 6803TIP3    H242045   1.259   2.390   8.362  0.7739 -1.5546 -0.0421
 6804TIP3   OH242046   0.204   0.001   7.942 -0.2765  0.5803  0.7138
 6804TIP3    H142047   0.195   0.096   7.931 -0.7948  0.4755  0.1655
 6804TIP3    H242048   0.122  -0.035   7.907 -0.2595 -0.0454  1.2998
 6805TIP3   OH242049   0.243   2.420   8.778  0.3424 -0.3547 -0.5562
 6805TIP3    H142050   0.217   2.428   8.870  0.4141  1.6268 -0.6573
 6805TIP3    H242051   0.248   2.326   8.762 -1.5667 -0.7697  0.9245
 6806TIP3   OH242052   3.520   3.245   1.582  0.0149 -0.9080 -0.6120
 6806TIP3    H142053   3.598   3.299   1.569  0.5738 -1.7364 -0.7915
 6806TIP3    H242054   3.456   3.304   1.622  1.1292 -0.5231  0.6703
 6807TIP3   OH242055   6.456   3.027   1.016  0.0177 -0.0950  0.1826
 6807TIP3    H142056   6.473   3.039   0.922 -0.2149  1.1416  0.2713
 6807TIP3    H242057   6.366   2.995   1.020 -0.0163 -0.0247 -0.0114
 6808TIP3   OH242058   4.506   6.309   7.763  0.0342 -0.5491 -0.8104
 6808TIP3    H142059   4.575   6.265   7.713 -0.2806  0.2912 -2.0243
 6808TIP3    H242060   4.502   6.261   7.846  2.8717  0.0707 -0.1920
 6809TIP3   OH242061   6.052   5.449   1.565 -0.3602  0.5249 -0.0667
 6809TIP3    H142062   6.147   5.435   1.575 -0.3655  1.1319  0.9014
 6809TIP3    H242063   6.012   5.389   1.628 -0.7081 -0.7684 -1.4517
 6810TIP3   OH242064   6.291   1.284   0.314  0.2405  0.1898  0.6085
 6810TIP3    H142065   6.206   1.303   0.274  0.8918  1.4063 -0.2549
 6810TIP3    H242066   6.275   1.208   0.369 -1.2920  0.0796  0.0537
 6811TIP3   OH242067   3.666   4.136   0.586  0.0997  0.3658  0.0232
 6811TIP3    H142068   3.667   4.141   0.491  0.9910  0.2924  0.0230
 6811TIP3    H242069   3.580   4.100   0.607 -0.1242  0.4310 -0.7465
 6812TIP3   OH242070   0.686   3.026   2.256  0.2903  0.3467  0.0803
 6812TIP3    H142071   0.607   2.972   2.252  1.3290 -1.2849  0.5140
 6812TIP3    H242072   0.695   3.063   2.169 -1.3671  1.2245  0.2456
 6813TIP3   OH242073   4.945   2.058   1.663 -0.0388  0.0072 -0.0300
 6813TIP3    H142074   4.920   2.003   1.588 -2.2609 -0.9143  1.2836
 6813TIP3    H242075   5.009   2.005   1.711 -3.0964 -2.2399  1.9282
 6814TIP3   OH242076   0.381   0.371   2.435 -0.1458  0.6212  0.2087
 6814TIP3    H142077   0.418   0.293   2.395 -0.5031  0.4793  0.1508
 6814TIP3    H242078   0.307   0.339   2.486  0.8439  0.6924  1.7239
 6815TIP3   OH242079   3.274   3.668   0.311 -0.5209 -0.4056  0.4321
 6815TIP3    H142080   3.278   3.744   0.369  1.7534  0.3444 -0.5651
 6815TIP3    H242081   3.276   3.592   0.369 -2.1033  0.2740  1.4205
 6816TIP3   OH242082   0.706   6.545   2.380  0.3950 -0.5781  0.1856
 6816TIP3    H142083   0.688   6.458   2.417  1.0019 -0.3705  1.0057
 6816TIP3    H242084   0.745   6.527   2.295  0.5773 -1.1160  0.3793
 6817TIP3   OH242085   2.391   6.352   7.361 -0.3484  0.0080 -0.2225
 6817TIP3    H142086   2.462   6.354   7.297 -0.1502  0.6676  0.0154
 6817TIP3    H242087   2.312   6.365   7.310 -0.1875  0.5706 -0.3271
 6818TIP3   OH242088   5.289   6.202   8.573  0.7818  0.1439  0.1789
 6818TIP3    H142089   5.281   6.254   8.493  0.0716  0.1346  0.2365
 6818TIP3    H242090   5.329   6.120   8.545  0.5800  0.1600 -0.1593
 6819TIP3   OH242091   5.949   1.102   7.308  0.3756 -0.5535  0.0433
 6819TIP3    H142092   5.906   1.186   7.295  0.5228 -0.3165  0.9617
 6819TIP3    H242093   5.892   1.038   7.264 -0.5387 -0.1591  0.6144
 6820TIP3   OH242094   0.910   4.269   0.829 -0.0037 -0.4289  0.1236
 6820TIP3    H142095   0.929   4.187   0.783  1.3680 -0.5675  0.8988
 6820TIP3    H242096   0.929   4.337   0.766 -0.7992 -0.6743 -0.4039
 6821TIP3   OH242097   3.921   0.683   0.012  0.1899  0.0010 -0.0787
 6821TIP3    H142098   3.851   0.657  -0.048  0.5711  3.0929 -2.1101
 6821TIP3    H242099   3.878   0.690   0.098 -1.4644 -0.2755 -0.8467
 6822TIP3   OH242100   4.930   5.739   0.705  0.1073 -0.2302  0.4668
 6822TIP3    H142101   4.870   5.793   0.653  0.7334 -0.1818 -0.2167
 6822TIP3    H242102   5.009   5.791   0.713 -0.6588  0.6694  3.2942
 6823TIP3   OH242103   0.915   6.809   7.031 -0.3880 -0.1916 -0.4354
 6823TIP3    H142104   0.844   6.859   7.073 -1.8920 -1.2074 -1.6817
 6823TIP3    H242105   0.995   6.848   7.067 -1.5056  2.1442 -0.2617
 6824TIP3   OH242106   6.832   1.467   0.154  0.6324 -0.4326  0.8689
 6824TIP3    H142107   6.869   1.448   0.239 -1.2517 -2.3177  1.3442
 6824TIP3    H242108   6.780   1.390   0.132 -1.2217  1.1363 -0.6865
 6825TIP3   OH242109   3.758   1.462   0.485  0.4471  0.3735 -0.0752
 6825TIP3    H142110   3.809   1.468   0.404 -0.3103 -0.9632 -0.6783
 6825TIP3    H242111   3.671   1.496   0.462  0.3478  0.3840  0.2976
 6826TIP3   OH242112   6.085   6.386   0.715 -0.2801  0.4169  0.5187
 6826TIP3    H142113   6.068   6.419   0.627 -0.5703 -0.1613  0.3541
 6826TIP3    H242114   6.134   6.456   0.758  0.1089  0.5885 -0.1915
 6827TIP3   OH242115   2.091   6.334   2.736 -0.2017 -0.2809 -0.1202
 6827TIP3    H142116   2.122   6.256   2.782 -0.1309 -1.4825 -2.0854
 6827TIP3    H242117   2.112   6.317   2.644 -1.6435  1.3670 -0.7961
 6828TIP3   OH242118   3.069   3.415   8.343 -0.3561 -0.5378 -0.0105
 6828TIP3    H142119   3.149   3.402   8.394 -0.2507 -1.6755 -0.4395
 6828TIP3    H242120   2.999   3.419   8.408 -0.0313 -0.1904  0.3251
 6829TIP3   OH242121   0.144   1.224   8.733 -0.2955 -0.4998 -0.5259
 6829TIP3    H142122   0.064   1.237   8.681  0.6340 -0.7109 -2.0751
 6829TIP3    H242123   0.202   1.294   8.704  0.2117 -0.5408  0.3671
 6830TIP3   OH242124   6.556   6.525   1.365  0.0842  0.0249 -0.0041
 6830TIP3    H142125   6.551   6.496   1.456  0.1283 -0.7321 -0.2368
 6830TIP3    H242126   6.503   6.462   1.316  0.7420 -0.0638 -0.6199
 6831TIP3   OH242127   6.210   5.689   1.214  0.3868  0.4004 -0.0206
 6831TIP3    H142128   6.131   5.668   1.263  1.8964 -2.4776  1.4713
 6831TIP3    H242129   6.202   5.639   1.133 -0.4264  2.2035 -1.1091
 6832TIP3   OH242130   5.168   1.509   3.129 -0.3790 -0.1252 -0.1001
 6832TIP3    H142131   5.211   1.429   3.158 -1.5732 -0.4357  0.9114
 6832TIP3    H242132   5.086   1.479   3.090  0.1455  0.4654 -1.7373
 6833TIP3   OH242133   5.208   2.536   0.536  0.0437  0.4645  0.2561
 6833TIP3    H142134   5.298   2.536   0.567  0.6605 -0.3366 -1.4064
 6833TIP3    H242135   5.194   2.623   0.499  0.5292  0.2189 -0.5192
 6834TIP3   OH242136   3.951   4.487   1.604 -0.1097 -0.0932  0.2996
 6834TIP3    H142137   3.859   4.469   1.624 -0.0509 -0.6248  0.1056
 6834TIP3    H242138   3.989   4.401   1.588  0.1892  0.2003 -0.6119
 6835TIP3   OH242139   2.289   0.548   2.388  0.4888  0.6536  0.6611
 6835TIP3    H142140   2.277   0.474   2.328 -0.4037  0.0620  1.5316
 6835TIP3    H242141   2.219   0.609   2.365 -0.2412  0.1493  1.4677
 6836TIP3   OH242142   1.185   4.108   0.195  0.0888  0.5203  0.1834
 6836TIP3    H142143   1.218   4.170   0.130 -0.8530  0.8885  0.0454
 6836TIP3    H242144   1.260   4.052   0.215  1.1156  2.0170  0.6908
 6837TIP3   OH242145   2.269   6.110   0.023  0.1841  0.1468 -0.2858
 6837TIP3    H142146   2.201   6.176   0.013 -0.9237 -1.0053 -0.6343
 6837TIP3    H242147   2.221   6.027   0.033  1.5332 -0.9527 -2.3287
 6838TIP3   OH242148   2.707   4.472   8.510 -0.0558 -0.1651 -0.9680
 6838TIP3    H142149   2.729   4.469   8.603  0.2524  0.9302 -0.9872
 6838TIP3    H242150   2.656   4.553   8.500 -0.3742 -0.4453 -1.6903
 6839TIP3   OH242151   1.442   2.268   7.576 -0.3718  0.7174 -0.1526
 6839TIP3    H142152   1.416   2.358   7.556  0.9204  1.3488  0.8240
 6839TIP3    H242153   1.360   2.219   7.578 -1.2446  2.1320  0.5499
 6840TIP3   OH242154   3.116   2.540   0.057 -0.3156  0.4698  0.0393
 6840TIP3    H142155   3.032   2.522   0.100 -0.4888  1.6946  0.2566
 6840TIP3    H242156   3.095   2.543  -0.036 -0.6093  1.1300  0.1132
 6841TIP3   OH242157   0.758   2.661   8.024  0.1533  0.2402 -0.0055
 6841TIP3    H142158   0.699   2.736   8.015  0.2596  0.2102 -1.0399
 6841TIP3    H242159   0.832   2.694   8.076 -0.1579  0.6327  0.1919
 6842TIP3   OH242160   5.674   0.864   8.397  0.1672  0.0613 -0.4059
 6842TIP3    H142161   5.763   0.884   8.427  1.0584 -2.2734 -1.2470
 6842TIP3    H242162   5.674   0.892   8.305  0.1249 -0.1897 -0.4818
 6843TIP3   OH242163   5.947   5.274   0.874 -0.5807 -0.4682  0.5027
 6843TIP3    H142164   6.032   5.236   0.896 -0.7025 -0.7157  0.5507
 6843TIP3    H242165   5.927   5.240   0.788 -0.8037 -0.7088  0.6496
 6844TIP3   OH242166   1.139   1.269   2.474 -0.4435  0.0347  0.3541
 6844TIP3    H142167   1.128   1.301   2.564 -0.9422 -0.7645  0.5853
 6844TIP3    H242168   1.208   1.203   2.481  0.7120  1.1369 -0.1521
 6845TIP3   OH242169   5.134   3.666   7.481  0.0728 -0.0487 -0.1904
 6845TIP3    H142170   5.197   3.682   7.410  1.4141 -0.6515  0.8297
 6845TIP3    H242171   5.106   3.576   7.468  1.0862 -0.4936  0.6069
 6846TIP3   OH242172   3.164   6.254   0.695  0.2279 -0.2325 -0.4150
 6846TIP3    H142173   3.191   6.288   0.610  0.3411 -0.8059 -0.6142
 6846TIP3    H242174   3.146   6.161   0.680 -0.2232 -0.2349  0.0833
 6847TIP3   OH242175   1.146   5.632   0.309 -0.0671  0.3380 -0.2632
 6847TIP3    H142176   1.094   5.559   0.277  0.8740 -0.9291  0.9520
 6847TIP3    H242177   1.137   5.700   0.242 -3.1014  0.1391 -0.1752
 6848TIP3   OH242178   4.330   0.373   1.551  0.3881 -0.6353  0.4840
 6848TIP3    H142179   4.253   0.319   1.570  0.7010 -0.9142  1.0022
 6848TIP3    H242180   4.316   0.453   1.601 -0.0294 -0.2660 -0.2074
 6849TIP3   OH242181   2.492   0.621   7.777 -0.3236  0.3423  0.6527
 6849TIP3    H142182   2.438   0.608   7.699 -1.3056  0.9805  1.2058
 6849TIP3    H242183   2.460   0.704   7.814  0.5277  0.3400  1.4144
 6850TIP3   OH242184   6.051   2.911   7.587  0.2879  0.0924  1.0819
 6850TIP3    H142185   6.108   2.843   7.552  3.0925  2.4191  0.7763
 6850TIP3    H242186   6.046   2.893   7.681  0.4573 -0.8593  0.9122
 6851TIP3   OH242187   1.178   3.969   7.926 -0.0911  0.1756  0.2998
 6851TIP3    H142188   1.197   4.007   8.011 -2.2932 -0.5802  1.2160
 6851TIP3    H242189   1.086   3.991   7.910 -0.3240 -1.4549 -0.8853
 6852TIP3   OH242190   5.543   1.366   8.854  0.3457 -0.6091  0.4044
 6852TIP3    H142191   5.455   1.399   8.834  0.3234 -0.9066 -0.0000
 6852TIP3    H242192   5.590   1.441   8.890 -0.1792 -0.5311  0.9444
 6853TIP3   OH242193   6.573   6.382   8.308 -0.2294 -0.3192  0.2378
 6853TIP3    H142194   6.569   6.428   8.391  0.8820  0.9434 -0.3715
 6853TIP3    H242195   6.497   6.323   8.309  1.7847 -3.2192  3.7570
 6854TIP3   OH242196   6.024   6.310   0.177 -0.2749 -0.4663  0.0829
 6854TIP3    H142197   5.974   6.370   0.122 -0.2979  1.3154  1.9526
 6854TIP3    H242198   6.085   6.366   0.224  0.5632 -2.0830  1.0060
 6855TIP3   OH242199   1.826   6.109   7.496 -0.2322 -0.4778  0.2247
 6855TIP3    H142200   1.889   6.181   7.495 -0.5531 -0.2022 -0.3557
 6855TIP3    H242201   1.752   6.141   7.547 -0.2648 -0.4920  0.1866
 6856TIP3   OH242202   2.559   2.934   2.511 -0.2280 -0.4022 -0.2248
 6856TIP3    H142203   2.508   2.880   2.452 -2.1967  0.7484  0.3028
 6856TIP3    H242204   2.524   2.914   2.598 -0.0973  0.7245  0.1105
 6857TIP3   OH242205   5.830   6.783   7.704 -0.2490 -0.3382 -0.3513
 6857TIP3    H142206   5.856   6.733   7.627 -0.6133 -0.9349 -0.0943
 6857TIP3    H242207   5.899   6.848   7.714 -0.2578 -0.1718 -1.2476
 6858TIP3   OH242208   3.256   3.304   0.902  0.2312  0.4686 -0.0216
 6858TIP3    H142209   3.289   3.319   0.814 -0.4397  1.0132 -0.1925
 6858TIP3    H242210   3.235   3.211   0.904  1.1312  0.2557 -0.1212
 6859TIP3   OH242211   4.505   5.977   1.012  0.2656  0.1105  0.1227
 6859TIP3    H142212   4.447   6.008   0.942 -1.4002 -1.0756  0.9239
 6859TIP3    H242213   4.591   5.968   0.969  0.2848  3.2380 -0.7550
 6860TIP3   OH242214   5.280   6.152   7.467  0.4660  0.1936 -0.3083
 6860TIP3    H142215   5.214   6.204   7.421  0.8994  0.2293 -0.9028
 6860TIP3    H242216   5.266   6.063   7.434 -1.1320 -0.3466  1.6679
 6861TIP3   OH242217   5.881   3.272   1.246  0.6373 -0.3006 -0.7187
 6861TIP3    H142218   5.882   3.272   1.150  1.8939 -1.2011 -0.7306
 6861TIP3    H242219   5.895   3.363   1.270  1.0842 -0.1810 -1.4029
 6862TIP3   OH242220   6.289   5.318   0.857  0.2368 -0.2319 -0.0317
 6862TIP3    H142221   6.305   5.400   0.904  2.3224  0.1595 -1.3148
 6862TIP3    H242222   6.318   5.335   0.768 -1.3286 -1.7306 -0.8769
 6863TIP3   OH242223   5.448   3.143   6.603 -0.1787 -0.1806 -0.6327
 6863TIP3    H142224   5.373   3.103   6.646  0.0108  1.3414  1.2424
 6863TIP3    H242225   5.503   3.069   6.578 -0.7579 -1.2024  0.9411
 6864TIP3   OH242226   0.611   2.003   2.086  0.2648  0.0874 -0.2447
 6864TIP3    H142227   0.601   1.957   2.003 -0.9981 -0.1039 -0.0017
 6864TIP3    H242228   0.610   2.096   2.064  0.1636  0.0339 -0.4574
 6865TIP3   OH242229   0.289   5.384   0.947 -0.4582 -0.8498  0.0143
 6865TIP3    H142230   0.298   5.325   1.022 -0.3261 -0.1868  0.5403
 6865TIP3    H242231   0.374   5.427   0.940 -1.2989  1.1776  1.3178
 6866TIP3   OH242232   0.532   0.330   0.652  0.1472  0.0040  0.1081
 6866TIP3    H142233   0.566   0.410   0.691 -0.4474  0.8987 -1.1308
 6866TIP3    H242234   0.553   0.338   0.559  0.2120 -1.3609 -0.0142
 6867TIP3   OH242235   5.109   2.105   0.342  0.5286 -0.2394 -0.5020
 6867TIP3    H142236   5.061   2.035   0.387  1.2742  0.2984  1.2314
 6867TIP3    H242237   5.179   2.060   0.295  1.8960 -0.6375  1.7638
 6868TIP3   OH242238   0.592   1.651   0.499  0.0046  0.3795 -0.0160
 6868TIP3    H142239   0.528   1.664   0.429 -0.6858 -1.4618  0.2305
 6868TIP3    H242240   0.624   1.739   0.518 -0.5626  1.0403 -1.9100
 6869TIP3   OH242241   4.446   3.387   7.278  0.5546 -0.8094 -0.0918
 6869TIP3    H142242   4.448   3.291   7.281  4.2278 -0.9578 -1.6099
 6869TIP3    H242243   4.443   3.408   7.185  2.2815  0.4374  0.0846
 6870TIP3   OH242244   3.922   6.232   1.186 -0.1973  0.3617  0.3518
 6870TIP3    H142245   4.008   6.241   1.228  0.2074 -2.5116  0.3141
 6870TIP3    H242246   3.932   6.278   1.102  0.2666  2.6684  1.5786
 6871TIP3   OH242247   4.038   1.997   2.806  0.5115  0.3904  0.8823
 6871TIP3    H142248   4.085   2.067   2.761  0.1326  0.2756  0.2942
 6871TIP3    H242249   3.956   2.038   2.835  0.2645  0.1800  0.4888
 6872TIP3   OH242250   4.229   1.657   8.054  0.4172 -0.2970  0.0800
 6872TIP3    H142251   4.262   1.744   8.029 -0.8167  0.0324 -0.5024
 6872TIP3    H242252   4.269   1.597   7.991 -1.9409  0.4119 -2.2740
 6873TIP3   OH242253   4.060   4.639   1.388  0.1396 -0.2253 -0.1740
 6873TIP3    H142254   4.003   4.602   1.455  0.6442 -1.4288 -0.3872
 6873TIP3    H242255   4.100   4.715   1.430 -0.1236 -0.5191  0.6318
 6874TIP3   OH242256   4.929   0.145   0.423 -0.2474  0.8308  0.1664
 6874TIP3    H142257   4.925   0.050   0.410 -0.9358  1.0559 -1.6712
 6874TIP3    H242258   5.020   0.168   0.404 -0.6601  0.8081 -2.2334
 6875TIP3   OH242259   4.398   1.789   7.400 -0.2351  0.0690  0.4197
 6875TIP3    H142260   4.307   1.817   7.388 -0.9410 -1.0382  2.6032
 6875TIP3    H242261   4.426   1.758   7.314 -0.9735  2.8661 -0.9633
 6876TIP3   OH242262   0.300   3.848   8.273  0.4996  0.5904 -0.1334
 6876TIP3    H142263   0.281   3.781   8.208 -0.3690  1.2331 -0.5725
 6876TIP3    H242264   0.366   3.904   8.231  0.2967  0.7286 -0.2676
 6877TIP3   OH242265   4.845   1.065   7.706 -0.0786  0.0851  0.6953
 6877TIP3    H142266   4.919   1.045   7.763  0.7426 -0.7323 -0.6236
 6877TIP3    H242267   4.846   0.996   7.640 -2.3309 -0.2568  0.9162
 6878TIP3   OH242268   2.465   5.950   0.379  0.1047  0.3972  0.2443
 6878TIP3    H142269   2.512   5.868   0.394 -1.0773 -0.6066 -1.2463
 6878TIP3    H242270   2.442   5.981   0.467  0.0165 -1.2083  0.8086
 6879TIP3   OH242271   4.934   5.029   0.831  0.5738 -0.0866 -0.2074
 6879TIP3    H142272   4.926   4.958   0.767  0.7815 -0.8361  0.5783
 6879TIP3    H242273   4.968   5.103   0.780 -0.3094 -0.3293 -1.1805
 6880TIP3   OH242274   6.167   6.749   2.394 -0.3266  0.0601 -0.1557
 6880TIP3    H142275   6.200   6.662   2.374  0.5092  0.0817  0.9824
 6880TIP3    H242276   6.084   6.734   2.439 -0.3955 -0.1322 -0.3507
 6881TIP3   OH242277   5.381   6.431   7.496  0.7157  0.3563  0.2746
 6881TIP3    H142278   5.357   6.339   7.494 -0.6210  0.6448  1.6920
 6881TIP3    H242279   5.394   6.454   7.404 -3.5459 -0.1285 -0.6734
 6882TIP3   OH242280   2.877   0.112   8.543 -0.3863  0.5004 -0.2742
 6882TIP3    H142281   2.912   0.066   8.466 -3.2609 -0.5915 -1.0439
 6882TIP3    H242282   2.922   0.071   8.617  2.2070  1.3478 -1.2376
 6883TIP3   OH242283   2.923   1.903   2.604  0.1402 -0.0881 -0.2285
 6883TIP3    H142284   2.937   1.850   2.683 -0.6102 -0.3223 -0.2427
 6883TIP3    H242285   2.923   1.839   2.532 -1.3092 -0.1694 -0.1921
 6884TIP3   OH242286   2.989   4.550   1.873 -0.5123 -0.1555 -0.4212
 6884TIP3    H142287   2.958   4.459   1.880 -0.7646 -0.2582 -2.2660
 6884TIP3    H242288   2.973   4.587   1.959  1.1112 -2.3038  0.9144
 6885TIP3   OH242289   4.738   2.816   1.090 -0.2312  0.1569  0.7447
 6885TIP3    H142290   4.677   2.767   1.145 -1.6020 -0.4703 -1.2305
 6885TIP3    H242291   4.819   2.765   1.093 -0.0938  0.4153  2.5283
 6886TIP3   OH242292   0.308   4.171   8.673 -0.4696  0.4779  0.1824
 6886TIP3    H142293   0.272   4.196   8.759 -1.8707  1.5365 -0.6698
 6886TIP3    H242294   0.389   4.220   8.665 -1.0567  1.5071  0.3244
 6887TIP3   OH242295   3.993   5.600   1.945  0.1823  0.4514  0.6077
 6887TIP3    H142296   3.976   5.508   1.926  1.2662  0.3160  0.2328
 6887TIP3    H242297   3.913   5.631   1.988 -0.6585 -0.3416 -0.3316
 6888TIP3   OH242298   0.533   4.515   6.904 -0.1905 -0.0374  0.1409
 6888TIP3    H142299   0.548   4.448   6.837  0.1247  0.1768 -0.0043
 6888TIP3    H242300   0.456   4.563   6.873 -0.0049  0.1057 -0.1045
 6889TIP3   OH242301   0.018   3.947   8.236  0.6584 -0.2553  0.6499
 6889TIP3    H142302   0.017   3.938   8.140 -1.2431 -0.5068  0.6626
 6889TIP3    H242303   0.087   3.886   8.264  2.3314  0.9525 -0.6119
 6890TIP3   OH242304   0.048   1.764   0.697  0.0777  0.3547  0.3000
 6890TIP3    H142305   0.037   1.670   0.713 -2.1184  0.4654 -0.2334
 6890TIP3    H242306   0.099   1.768   0.616  1.1841 -0.3280  0.9251
 6891TIP3   OH242307   3.235   0.805   8.860  1.0512  0.1446  0.1007
 6891TIP3    H142308   3.318   0.848   8.836  1.0498  1.3230  1.9873
 6891TIP3    H242309   3.178   0.822   8.785  1.6075  1.9755  0.0265
 6892TIP3   OH242310   3.890   6.695   6.649  0.2705  0.2164  0.0085
 6892TIP3    H142311   3.837   6.648   6.585 -0.5959 -2.4340  2.4567
 6892TIP3    H242312   3.828   6.756   6.690 -0.2656 -0.9203  0.9668
 6893TIP3   OH242313   0.559   4.303   0.008 -0.1084 -0.3914 -0.3396
 6893TIP3    H142314   0.625   4.266  -0.050 -0.7865  0.2959 -1.6055
 6893TIP3    H242315   0.502   4.230   0.029  0.9320 -0.9520  0.6210
 6894TIP3   OH242316   5.751   1.225   8.217  0.2294 -0.5274  0.4070
 6894TIP3    H142317   5.759   1.304   8.270  1.6556  0.4409 -1.1519
 6894TIP3    H242318   5.810   1.162   8.257  1.3637  0.2262 -0.0177
 6895TIP3   OH242319   5.035   0.781   8.666 -0.0663  0.0271 -0.0938
 6895TIP3    H142320   4.963   0.718   8.661  2.1581 -2.6479 -1.3339
 6895TIP3    H242321   5.047   0.810   8.575 -0.5155  1.6815  0.3435
 6896TIP3   OH242322   0.109   5.011   2.664  0.1599  0.2680 -0.0815
 6896TIP3    H142323   0.021   5.044   2.646  0.5492  0.7450 -1.1856
 6896TIP3    H242324   0.151   5.081   2.715 -0.9520 -1.0944  3.0095
 6897TIP3   OH242325   2.615   0.047   0.832 -0.9629 -0.2961  0.0904
 6897TIP3    H142326   2.706   0.020   0.816 -0.3890  1.4661  0.2271
 6897TIP3    H242327   2.574  -0.031   0.870  0.7363 -0.8527  0.9075
 6898TIP3   OH242328   6.154   2.911   2.169  0.2653  0.4279 -0.2581
 6898TIP3    H142329   6.180   3.003   2.170  0.5978  0.3999  2.5093
 6898TIP3    H242330   6.223   2.866   2.218 -1.9445 -0.5585  2.1840
 6899TIP3   OH242331   3.290   5.441   0.784  0.0720 -0.3745  0.4606
 6899TIP3    H142332   3.215   5.385   0.805 -0.8644  0.4110 -0.6185
 6899TIP3    H242333   3.306   5.426   0.691  0.3605  0.4760  0.3600
 6900TIP3   OH242334   5.230   1.915   1.695  0.2093  0.1155  0.3729
 6900TIP3    H142335   5.202   1.832   1.733 -0.2491  0.2338  0.2955
 6900TIP3    H242336   5.308   1.940   1.745  0.4877 -0.4758  0.2420
 6901TIP3   OH242337   1.994   4.352   1.411  0.2979  0.2027  0.9127
 6901TIP3    H142338   2.089   4.361   1.403  0.2348 -0.3599 -0.6462
 6901TIP3    H242339   1.981   4.265   1.449  0.3756 -0.6107 -0.8322
 6902TIP3   OH242340   1.593   4.202   0.721  0.8310  0.2276  0.3234
 6902TIP3    H142341   1.514   4.189   0.773  0.4983  0.2376 -0.1790
 6902TIP3    H242342   1.570   4.173   0.633  1.2725  0.5729  0.0874
 6903TIP3   OH242343   2.042   3.301   0.034  0.3219 -0.2673  0.2484
 6903TIP3    H142344   1.973   3.256   0.082 -1.4181  0.0622 -1.7834
 6903TIP3    H242345   2.001   3.326  -0.049  2.2383  1.9461 -0.1382
 6904TIP3   OH242346   4.665   1.540   1.038  0.7715 -0.0967  0.4746
 6904TIP3    H142347   4.573   1.542   1.061  0.3118  1.8093 -1.2522
 6904TIP3    H242348   4.668   1.493   0.954  1.2491  0.5172  0.1348
 6905TIP3   OH242349   4.728   3.347   0.776 -0.7478  0.6322  0.1637
 6905TIP3    H142350   4.811   3.375   0.738 -0.8688  0.1839 -0.4403
 6905TIP3    H242351   4.747   3.260   0.812 -0.7353  0.8902  0.7892
 6906TIP3   OH242352   2.074   1.273   2.182  0.1579 -0.0998 -0.0370
 6906TIP3    H142353   2.145   1.229   2.136 -1.4667 -1.1597 -1.6753
 6906TIP3    H242354   2.074   1.233   2.269  1.7049  0.1210  0.0928
 6907TIP3   OH242355   5.600   4.169   2.027 -0.4975  0.0838 -0.4182
 6907TIP3    H142356   5.665   4.148   2.095 -1.3961 -0.6447  0.2440
 6907TIP3    H242357   5.631   4.124   1.949  0.8563  1.3922 -0.6799
 6908TIP3   OH242358   4.716   4.359   7.735  0.3626  0.2958 -0.2228
 6908TIP3    H142359   4.760   4.321   7.658  0.2637 -0.5988  0.1486
 6908TIP3    H242360   4.761   4.319   7.810  0.5342  1.2530  0.1968
 6909TIP3   OH242361   5.578   1.144   7.216 -0.5445  0.2783 -0.1681
 6909TIP3    H142362   5.654   1.092   7.189 -0.0013  0.6277  0.6694
 6909TIP3    H242363   5.610   1.234   7.218 -0.9248  0.4016  0.3995
 6910TIP3   OH242364   3.874   6.618   7.284 -0.2588 -0.2008  0.1700
 6910TIP3    H142365   3.793   6.667   7.272  0.0120  0.3145  0.4718
 6910TIP3    H242366   3.889   6.577   7.198  0.5197  1.7644 -0.6875
 6911TIP3   OH242367   6.587   4.087   7.713  0.1141 -0.0475 -0.4135
 6911TIP3    H142368   6.533   4.111   7.638 -2.1652  0.3230  1.2645
 6911TIP3    H242369   6.525   4.057   7.779  2.1463 -1.6670  0.8947
 6912TIP3   OH242370   3.966   0.905   2.150  0.1661  0.3502 -0.0124
 6912TIP3    H142371   3.925   0.991   2.162 -1.2208 -0.2886  0.0876
 6912TIP3    H242372   3.980   0.873   2.239  0.4192  0.3651 -0.0484
 6913TIP3   OH242373   1.310   0.600   2.172 -0.0960 -0.1411 -0.5056
 6913TIP3    H142374   1.354   0.515   2.168  0.4274  0.1752 -2.4724
 6913TIP3    H242375   1.276   0.605   2.261  0.9580 -1.8554  0.0424
 6914TIP3   OH242376   3.548   0.446   1.259  0.6301  0.4316 -0.1492
 6914TIP3    H142377   3.564   0.481   1.171  0.3613  0.9026 -0.0094
 6914TIP3    H242378   3.499   0.365   1.243 -0.4035  1.0846 -0.3887
 6915TIP3   OH242379   6.754   2.006   1.212  0.2032 -0.2988  0.1124
 6915TIP3    H142380   6.803   1.949   1.153 -0.8473 -1.8703  0.6722
 6915TIP3    H242381   6.671   2.022   1.167 -0.6823 -1.6563  1.1411
 6916TIP3   OH242382   6.519   3.698   0.729  0.0495 -0.3385 -0.2857
 6916TIP3    H142383   6.610   3.718   0.705  0.5015 -2.4871 -0.6072
 6916TIP3    H242384   6.484   3.655   0.651 -1.4022  0.7814 -0.2924
 6917TIP3   OH242385   2.418   4.925   8.860 -0.4843 -0.8289 -0.0966
 6917TIP3    H142386   2.392   4.985   8.790  3.8111 -1.1294 -2.2265
 6917TIP3    H242387   2.409   4.838   8.822 -2.1795 -1.3726  1.3724
 6918TIP3   OH242388   0.169   6.285   8.652 -0.0605 -0.1207 -0.6265
 6918TIP3    H142389   0.121   6.256   8.730 -0.8961  1.6156 -0.4450
 6918TIP3    H242390   0.100   6.309   8.590  0.5965  0.4294 -1.1503
 6919TIP3   OH242391   4.400   5.012   8.487 -0.2334 -0.1755 -0.3608
 6919TIP3    H142392   4.386   5.074   8.558 -0.9770 -0.1198 -0.5449
 6919TIP3    H242393   4.328   4.950   8.496  0.8982 -1.4609  0.2759
 6920TIP3   OH242394   2.137   5.075   2.159  0.3142 -0.5534 -0.3199
 6920TIP3    H142395   2.135   5.171   2.160 -0.1011 -0.5655  0.3547
 6920TIP3    H242396   2.230   5.053   2.165  0.4886 -0.1937 -1.3848
 6921TIP3   OH242397   0.584   3.925   8.408  0.4274  0.0987  0.3529
 6921TIP3    H142398   0.613   3.934   8.499 -2.0913 -2.0939  1.5260
 6921TIP3    H242399   0.613   3.838   8.382 -0.5499 -0.0792 -0.2193
 6922TIP3   OH242400   2.353   1.239   6.853 -0.0732 -0.8604  0.8273
 6922TIP3    H142401   2.338   1.144   6.859 -1.5563 -0.6590  0.5257
 6922TIP3    H242402   2.429   1.247   6.794  0.5001 -1.8736  1.3973
 6923TIP3   OH242403   0.075   1.677   7.399  0.1739 -0.1502 -0.5336
 6923TIP3    H142404   0.067   1.764   7.437 -0.2595 -0.3935 -0.0556
 6923TIP3    H242405   0.067   1.691   7.304 -1.6291  0.1490 -0.3691
 6924TIP3   OH242406   0.436   6.699   8.835  0.0001 -0.1278 -0.0281
 6924TIP3    H142407   0.446   6.781   8.788  2.1486  1.2294  2.5348
 6924TIP3    H242408   0.504   6.642   8.800  0.6036  0.3482  0.3437
 6925TIP3   OH242409   2.300   4.139   0.203  0.0127 -0.0530  0.4655
 6925TIP3    H142410   2.281   4.223   0.246  3.2713  0.9655  0.1680
 6925TIP3    H242411   2.276   4.073   0.268 -1.4446  1.1357  1.2003
 6926TIP3   OH242412   0.498   3.458   6.646 -0.3000  0.0744  0.0053
 6926TIP3    H142413   0.415   3.439   6.604  0.5902  1.0399 -2.3814
 6926TIP3    H242414   0.476   3.514   6.720 -1.6969  1.7339 -1.5754
 6927TIP3   OH242415   0.371   1.554   0.843 -0.7824  0.2683 -0.2888
 6927TIP3    H142416   0.276   1.568   0.848 -0.7342  0.2979  0.7368
 6927TIP3    H242417   0.396   1.527   0.931 -0.1747 -1.9654 -1.0860
 6928TIP3   OH242418   6.127   2.120   0.533 -0.1962  0.4053  0.0607
 6928TIP3    H142419   6.133   2.027   0.554 -1.3175  0.3513  0.2307
 6928TIP3    H242420   6.175   2.164   0.603  0.7775 -0.0616 -0.2979
 6929TIP3   OH242421   2.881   6.337   0.746  0.1709  0.4081 -0.0703
 6929TIP3    H142422   2.971   6.305   0.757  0.6691  0.7885 -2.4473
 6929TIP3    H242423   2.849   6.291   0.668 -0.6653  2.3644 -0.9343
 6930TIP3   OH242424   2.083   5.366   8.619 -0.0685  0.1946  0.1490
 6930TIP3    H142425   1.994   5.337   8.598 -0.2738  1.0209 -0.1560
 6930TIP3    H242426   2.076   5.405   8.706  0.4326 -1.6259  1.0619
 6931TIP3   OH242427   1.350   0.591   8.007  0.1643  0.2311  0.0350
 6931TIP3    H142428   1.279   0.535   7.975  0.6351  0.3030 -1.2020
 6931TIP3    H242429   1.427   0.534   8.007  0.5311  0.7086 -0.6875
 6932TIP3   OH242430   3.075   5.953   8.330 -0.0543  0.1129 -0.1586
 6932TIP3    H142431   3.023   6.027   8.361 -0.4443  0.0209 -0.5809
 6932TIP3    H242432   3.050   5.880   8.388 -0.2774  0.1083 -0.2603
 6933TIP3   OH242433   3.650   2.958   6.997  0.3538 -0.4195  0.0047
 6933TIP3    H142434   3.715   2.988   6.934 -2.5737  3.7763 -1.4344
 6933TIP3    H242435   3.610   2.881   6.956  2.4658 -1.3941 -0.3280
 6934TIP3   OH242436   3.723   3.062   2.145 -0.1081  0.1169 -0.2792
 6934TIP3    H142437   3.655   3.053   2.211  0.8919 -0.0861  0.7472
 6934TIP3    H242438   3.694   3.007   2.073 -2.3327  2.0689 -1.0054
 6935TIP3   OH242439   4.242   5.546   8.176 -0.6428  0.4835  0.3368
 6935TIP3    H142440   4.320   5.596   8.153  0.1228 -0.7397  0.1548
 6935TIP3    H242441   4.237   5.553   8.271  0.3387 -0.2804  0.4756
 6936TIP3   OH242442   2.396   5.799   6.984  0.7412 -0.0500 -0.0615
 6936TIP3    H142443   2.471   5.846   7.021  2.4015 -1.1762 -1.7976
 6936TIP3    H242444   2.424   5.775   6.896 -1.3259 -1.3651 -0.4279
 6937TIP3   OH242445   5.247   5.406   1.016 -0.3190 -0.3157  0.3434
 6937TIP3    H142446   5.305   5.382   1.088 -0.4156  2.4785  1.4711
 6937TIP3    H242447   5.305   5.441   0.949 -0.5404  1.0754  0.8553
 6938TIP3   OH242448   4.378   3.915   1.948  0.1802 -0.5938  0.1810
 6938TIP3    H142449   4.382   3.835   1.896  1.0453 -0.0473 -0.6477
 6938TIP3    H242450   4.466   3.953   1.939 -0.0382  0.1386  1.0468
 6939TIP3   OH242451   6.659   1.014   8.605 -0.5249 -0.2367 -0.5288
 6939TIP3    H142452   6.742   0.981   8.639 -0.1187  0.2795 -1.0150
 6939TIP3    H242453   6.644   0.964   8.525 -0.3681  0.0998 -0.7722
 6940TIP3   OH242454   1.491   5.544   1.470  0.0694 -0.1331  0.5280
 6940TIP3    H142455   1.511   5.636   1.486  1.0199 -0.4912  1.6262
 6940TIP3    H242456   1.551   5.497   1.528 -2.0882 -1.3957  1.8590
 6941TIP3   OH242457   1.749   6.426   8.152 -0.3193 -0.1096  0.1918
 6941TIP3    H142458   1.757   6.427   8.057  0.0475  0.4983  0.2246
 6941TIP3    H242459   1.771   6.515   8.179 -0.8061 -0.1694  0.8185
 6942TIP3   OH242460   3.037   1.503   2.278 -0.5000  0.3510 -0.1047
 6942TIP3    H142461   2.965   1.443   2.259 -1.3232  0.6188  1.8340
 6942TIP3    H242462   3.070   1.530   2.193 -1.8116 -0.8459 -1.0342
 6943TIP3   OH242463   4.569   3.540   8.732 -0.3784  0.6641  0.2000
 6943TIP3    H142464   4.570   3.574   8.642 -1.9018  0.6068  0.1358
 6943TIP3    H242465   4.527   3.454   8.725  1.4249 -0.3085  0.6904
 6944TIP3   OH242466   3.791   5.139   0.341 -0.6793 -1.1675  0.0299
 6944TIP3    H142467   3.871   5.086   0.333 -0.6123 -1.1181  0.3349
 6944TIP3    H242468   3.790   5.193   0.262  1.1193  0.8987  1.2809
 6945TIP3   OH242469   2.186   0.438   0.886 -0.5763  0.1904  0.3480
 6945TIP3    H142470   2.121   0.371   0.865 -2.1522  1.6869  0.2693
 6945TIP3    H242471   2.143   0.494   0.951  1.4054  0.0587  1.8853
 6946TIP3   OH242472   6.437   5.179   2.451  0.3363  0.0723  0.2680
 6946TIP3    H142473   6.462   5.088   2.464  0.9471 -0.0237 -1.3854
 6946TIP3    H242474   6.424   5.213   2.540  0.2159 -1.5719  0.9166
 6947TIP3   OH242475   6.061   2.385   7.371 -0.1715  0.3541  0.0857
 6947TIP3    H142476   6.000   2.429   7.429  0.3173 -0.7320  1.4749
 6947TIP3    H242477   6.056   2.293   7.395  1.3954  0.1229 -0.3164
 6948TIP3   OH242478   4.432   6.576   1.856 -0.7380  0.2761 -1.1676
 6948TIP3    H142479   4.435   6.603   1.947  0.1581 -1.1430 -0.7436
 6948TIP3    H242480   4.430   6.658   1.806 -1.2299  1.0663  0.1033
 6949TIP3   OH242481   0.600   6.572   0.293 -0.0305 -0.0417  0.1162
 6949TIP3    H142482   0.652   6.643   0.254 -0.3957 -0.6250 -1.5250
 6949TIP3    H242483   0.660   6.498   0.298 -0.3088 -0.3119 -0.4666
 6950TIP3   OH242484   2.200   3.603   2.031  0.5205  0.3297 -0.2384
 6950TIP3    H142485   2.273   3.566   1.983  0.3402  0.0921 -0.3322
 6950TIP3    H242486   2.239   3.668   2.090  1.2690 -2.1901  2.2753
 6951TIP3   OH242487   0.303   3.996   2.021  0.3969 -0.3993  0.4890
 6951TIP3    H142488   0.359   3.998   1.943  0.1734 -0.7215  0.3180
 6951TIP3    H242489   0.277   3.904   2.030 -0.8627 -0.1043  0.0206
 6952TIP3   OH242490   6.116   6.294   2.186  0.1073  0.6289 -0.0372
 6952TIP3    H142491   6.155   6.214   2.151  1.2240  1.0393  0.2351
 6952TIP3    H242492   6.094   6.272   2.277 -0.1649  0.4445 -0.1457
 6953TIP3   OH242493   3.303   0.070   0.068  0.5695 -0.3408 -0.0078
 6953TIP3    H142494   3.372   0.008   0.043 -1.7885 -1.9403 -3.2434
 6953TIP3    H242495   3.336   0.155   0.039  1.7078 -0.8536 -0.2956
 6954TIP3   OH242496   4.581   6.032   1.460 -0.1683 -0.2207  0.2254
 6954TIP3    H142497   4.566   5.962   1.396  1.0984 -1.0979  0.8496
 6954TIP3    H242498   4.564   5.991   1.545  0.4218  0.2776  0.5905
 6955TIP3   OH242499   6.558   4.317   1.250 -0.3555  0.1536 -0.1507
 6955TIP3    H142500   6.550   4.376   1.325 -0.7900 -2.1694  1.7731
 6955TIP3    H242501   6.649   4.325   1.222 -0.2076  1.1210  0.5698
 6956TIP3   OH242502   3.044   4.169   0.549  0.5068  0.6261  0.4478
 6956TIP3    H142503   3.121   4.114   0.563  1.3674  1.8082  0.4231
 6956TIP3    H242504   2.970   4.108   0.555  1.3300 -0.2635  2.1189
 6957TIP3   OH242505   0.469   2.709   8.495  0.1059 -0.2596 -0.2077
 6957TIP3    H142506   0.403   2.738   8.558  0.0283 -2.0923  0.6346
 6957TIP3    H242507   0.420   2.691   8.415  0.0462  1.0808 -0.4968
 6958TIP3   OH242508   0.523   5.447   8.460  0.5079 -0.1178  0.4074
 6958TIP3    H142509   0.552   5.381   8.396 -3.7957 -1.3456 -0.5753
 6958TIP3    H242510   0.551   5.531   8.421  1.4410 -1.0508 -1.0482
 6959TIP3   OH242511   5.956   2.622   8.367 -0.2428 -0.0310  0.3410
 6959TIP3    H142512   5.887   2.560   8.388 -0.1346 -0.3858 -0.3332
 6959TIP3    H242513   5.958   2.625   8.271  0.3579  0.3274  0.3585
 6960TIP3   OH242514   5.243   1.144   0.006 -0.2378 -0.2950  0.1368
 6960TIP3    H142515   5.226   1.235  -0.018  1.2144 -0.3998 -1.5020
 6960TIP3    H242516   5.333   1.129  -0.022 -0.5579 -2.3378  0.0752
 6961TIP3   OH242517   0.736   6.444   8.204  0.4116  0.0875  0.1516
 6961TIP3    H142518   0.658   6.416   8.155 -0.4340 -1.8584  2.4541
 6961TIP3    H242519   0.766   6.522   8.156 -3.1000  1.1389 -0.7046
 6962TIP3   OH242520   5.400   0.122   0.080  0.4271  0.2364  0.0163
 6962TIP3    H142521   5.424   0.186   0.014  1.1358  0.4607  0.4864
 6962TIP3    H242522   5.307   0.104   0.064  0.2462  1.2963 -0.1834
 6963TIP3   OH242523   1.583   3.263   7.374  0.1610  0.2674 -0.4971
 6963TIP3    H142524   1.638   3.331   7.335 -0.5174  1.5669  0.7358
 6963TIP3    H242525   1.505   3.260   7.318  0.9154 -0.7277 -1.5386
 6964TIP3   OH242526   2.012   5.564   1.105  0.3211 -0.2103 -0.3427
 6964TIP3    H142527   2.029   5.490   1.164 -0.1412 -0.0383  0.0105
 6964TIP3    H242528   2.099   5.592   1.076  0.5457 -0.3632  0.1730
 6965TIP3   OH242529   5.439   6.786   1.403  0.3201  0.3363 -0.2890
 6965TIP3    H142530   5.351   6.753   1.423  0.2990  0.6628  0.1765
 6965TIP3    H242531   5.475   6.811   1.488  0.9823 -0.0743 -0.4392
 6966TIP3   OH242532   6.251   3.655   7.601 -0.0331 -0.1291 -0.5949
 6966TIP3    H142533   6.180   3.630   7.660 -0.6838  0.3313 -1.1563
 6966TIP3    H242534   6.207   3.701   7.529  0.9189  0.8953 -0.5452
 6967TIP3   OH242535   6.373   2.964   8.821 -0.2598 -0.2131 -0.5575
 6967TIP3    H142536   6.435   2.900   8.853  0.2143  0.8857  0.8189
 6967TIP3    H242537   6.411   2.996   8.739  0.6658 -0.0350 -0.0643
 6968TIP3   OH242538   1.776   4.735   0.068  0.1172 -0.5338 -0.0570
 6968TIP3    H142539   1.818   4.685   0.138 -1.5398  0.6864  1.9193
 6968TIP3    H242540   1.728   4.805   0.113  0.9017  1.8089 -2.5628
 6969TIP3   OH242541   0.872   5.071   8.395  0.5891 -0.1752 -0.5935
 6969TIP3    H142542   0.869   5.037   8.484  1.9733  1.3201  0.0740
 6969TIP3    H242543   0.872   5.166   8.405 -0.4668  0.0485 -2.2658
 6970TIP3   OH242544   4.787   6.654   1.309  0.1455  0.1030 -0.1751
 6970TIP3    H142545   4.841   6.726   1.338  0.5235 -0.8245  1.5349
 6970TIP3    H242546   4.698   6.690   1.306  0.2174  0.4585  1.3875
 6971TIP3   OH242547   4.874   4.251   8.650  0.3920 -0.3991  0.0245
 6971TIP3    H142548   4.805   4.197   8.689  0.2979  0.4146  1.0362
 6971TIP3    H242549   4.954   4.221   8.692  0.6292 -1.0754 -0.8654
 6972TIP3   OH242550   4.664   0.924   8.806  0.2329 -0.2734  0.1793
 6972TIP3    H142551   4.720   0.987   8.761  0.2969 -1.5866 -1.7029
 6972TIP3    H242552   4.578   0.965   8.808 -0.0316 -0.5547 -2.1731
 6973TIP3   OH242553   1.335   4.280   7.891 -0.0830  0.0060 -0.3160
 6973TIP3    H142554   1.333   4.190   7.858  0.0979 -0.2223  0.2835
 6973TIP3    H242555   1.428   4.301   7.897 -0.1208  0.8620 -2.1009
 6974TIP3   OH242556   0.204   3.237   0.262 -0.3351 -0.0746  0.4708
 6974TIP3    H142557   0.266   3.287   0.314 -1.1492  0.4906  0.9174
 6974TIP3    H242558   0.152   3.303   0.215  0.2319 -0.5627 -0.9115
 6975TIP3   OH242559   4.590   1.158   1.130  0.1385 -0.1304  0.0406
 6975TIP3    H142560   4.554   1.069   1.133 -0.4351  0.0839 -0.4888
 6975TIP3    H242561   4.594   1.184   1.222 -0.1579 -0.5178  0.1690
 6976TIP3   OH242562   3.202   1.884   0.340 -0.0572  0.5962  0.3200
 6976TIP3    H142563   3.169   1.974   0.331  0.4609  0.8367  0.7735
 6976TIP3    H242564   3.278   1.892   0.398  1.7161  0.2707 -1.8375
 6977TIP3   OH242565   1.032   5.664   7.731 -0.1240 -0.0518  0.1314
 6977TIP3    H142566   1.033   5.574   7.701  0.1775  0.1161 -0.3726
 6977TIP3    H242567   1.124   5.690   7.731 -0.1453  0.0572  0.8881
 6978TIP3   OH242568   4.907   6.222   1.634  0.2276 -0.1798  0.0258
 6978TIP3    H142569   4.838   6.174   1.681  0.2226  1.0322  1.3174
 6978TIP3    H242570   4.860   6.292   1.588  0.4528 -0.1876 -0.2162
 6979TIP3   OH242571   3.134   4.818   8.336  0.2582 -0.2304  0.0458
 6979TIP3    H142572   3.178   4.878   8.276  0.0451 -0.0576  0.0637
 6979TIP3    H242573   3.204   4.764   8.372  0.4604  0.0813  0.1159
 6980TIP3   OH242574   4.686   2.429   0.394  0.7419  0.3278  0.3871
 6980TIP3    H142575   4.638   2.349   0.415  0.8988 -0.2321 -1.2523
 6980TIP3    H242576   4.625   2.479   0.340  0.4685  1.5696  1.7737
 6981TIP3   OH242577   4.203   2.800   1.037 -0.1579  0.1407  0.1756
 6981TIP3    H142578   4.210   2.750   0.956  1.2574  2.1711 -1.0746
 6981TIP3    H242579   4.291   2.835   1.051 -0.8330  1.4421  1.4943
 6982TIP3   OH242580   0.469   4.090   2.697 -0.4777  0.7652  0.1733
 6982TIP3    H142581   0.394   4.033   2.713 -0.2351  0.5479  0.5590
 6982TIP3    H242582   0.515   4.050   2.624 -1.8501  2.0159 -1.4534
 6983TIP3   OH242583   2.402   1.092   7.450 -0.1802  0.5047 -0.2979
 6983TIP3    H142584   2.355   1.158   7.399 -0.1959  1.7444  1.2514
 6983TIP3    H242585   2.334   1.029   7.477 -0.3374  0.4017 -0.9165
 6984TIP3   OH242586   4.213   2.956   2.752 -0.4320 -0.1512  0.1178
 6984TIP3    H142587   4.180   2.974   2.664 -0.4971  0.8210  0.3318
 6984TIP3    H242588   4.233   2.863   2.751 -1.8380 -0.4788 -0.4721
 6985TIP3   OH242589   3.770   3.126   7.874  0.3079 -0.9279  0.1762
 6985TIP3    H142590   3.689   3.076   7.876  0.1596 -0.6771  0.4648
 6985TIP3    H242591   3.751   3.200   7.815 -0.2251  0.0601  1.5361
 6986TIP3   OH242592   1.603   0.668   0.058  0.2922  0.0358  0.0677
 6986TIP3    H142593   1.623   0.746   0.111  0.4113 -0.5178  0.8574
 6986TIP3    H242594   1.678   0.611   0.070  0.9770  0.4719 -1.8647
 6987TIP3   OH242595   1.689   6.793   1.594  0.2707 -0.5847 -0.2812
 6987TIP3    H142596   1.613   6.779   1.650  1.4297 -1.2204  1.1913
 6987TIP3    H242597   1.719   6.881   1.616  0.8224 -0.8961  0.2338
 6988TIP3   OH242598   0.496   2.142   7.041 -0.2364 -0.2622 -0.5227
 6988TIP3    H142599   0.506   2.167   7.133 -1.0116 -0.6414 -0.3280
 6988TIP3    H242600   0.585   2.140   7.007  0.3159 -2.5742  0.8676
 6989TIP3   OH242601   6.576   4.543   6.678 -0.0064 -0.3233  0.3227
 6989TIP3    H142602   6.641   4.488   6.723  0.4417 -1.0182 -1.1181
 6989TIP3    H242603   6.492   4.505   6.703  0.0556  0.8025  2.4986
 6990TIP3   OH242604   0.468   3.869   7.728  0.3586  0.0695 -0.2034
 6990TIP3    H142605   0.494   3.841   7.640 -1.7599  1.0713 -1.2255
 6990TIP3    H242606   0.373   3.858   7.730  0.3734 -0.2568  2.1169
 6991TIP3   OH242607   4.988   2.327   7.651 -0.5314  0.2113 -0.4458
 6991TIP3    H142608   5.044   2.387   7.699 -1.7161  1.9566 -1.1529
 6991TIP3    H242609   5.040   2.300   7.576 -0.1584  0.7216 -0.3716
 6992TIP3   OH242610   1.751   1.303   1.520 -0.7606 -0.0653 -0.2826
 6992TIP3    H142611   1.812   1.299   1.446  1.0482  0.8725  1.0796
 6992TIP3    H242612   1.740   1.211   1.545 -0.4760 -0.3081 -1.0051
 6993TIP3   OH242613   3.072   0.752   1.351  0.3260 -0.1873 -0.1325
 6993TIP3    H142614   3.067   0.700   1.271  0.1953  0.3461 -0.4762
 6993TIP3    H242615   3.149   0.717   1.397 -1.5946 -2.9154  1.2703
 6994TIP3   OH242616   3.257   5.541   1.784  0.2342 -0.0444  0.7070
 6994TIP3    H142617   3.272   5.553   1.690 -1.0652 -2.0636  0.1871
 6994TIP3    H242618   3.341   5.507   1.816  0.2539 -0.7621 -0.0389
 6995TIP3   OH242619   5.340   1.233   1.928 -0.0566  0.2666  0.0157
 6995TIP3    H142620   5.418   1.181   1.946 -0.7857 -0.1600  2.1125
 6995TIP3    H242621   5.267   1.176   1.949 -0.8895  1.7350  1.2584
 6996TIP3   OH242622   6.185   4.531   8.558  0.3638  0.3631 -0.0978
 6996TIP3    H142623   6.178   4.446   8.515  2.7519  1.0291 -2.0374
 6996TIP3    H242624   6.169   4.595   8.489  1.3019  1.4852  0.6767
 6997TIP3   OH242625   6.497   4.474   1.807 -0.1269 -0.3952 -0.0525
 6997TIP3    H142626   6.432   4.443   1.744 -0.9445 -0.0183  0.5853
 6997TIP3    H242627   6.533   4.394   1.846 -0.8238 -0.5956  0.1954
 6998TIP3   OH242628   3.408   5.433   8.549 -0.4007  0.2072 -0.3407
 6998TIP3    H142629   3.464   5.498   8.593  0.0181  0.7291 -1.6098
 6998TIP3    H242630   3.456   5.409   8.470 -1.1144 -0.7631 -0.4945
 6999TIP3   OH242631   2.791   6.717   2.021  0.4324 -0.6145  0.1597
 6999TIP3    H142632   2.783   6.794   2.078 -0.2443 -1.5605  1.3917
 6999TIP3    H242633   2.812   6.753   1.935  2.9027  0.8002  1.2532
 7000TIP3   OH242634   6.295   5.185   1.905  0.6479  0.1113 -0.1703
 7000TIP3    H142635   6.250   5.233   1.974  0.5222  1.2412 -1.0047
 7000TIP3    H242636   6.276   5.093   1.923  0.4011  0.4016  1.1280
 7001TIP3   OH242637   6.180   1.012   1.902  0.3562 -0.1609 -0.4037
 7001TIP3    H142638   6.244   1.070   1.941  0.4127 -0.6083  0.1914
 7001TIP3    H242639   6.116   1.070   1.861  0.0941  0.3481  0.6779
 7002TIP3   OH242640   2.794   0.737   1.862  0.0253  0.8476 -0.1636
 7002TIP3    H142641   2.725   0.800   1.837 -2.3976 -0.3601  2.7598
 7002TIP3    H242642   2.746   0.657   1.882  2.5098 -0.5208  0.6445
 7003TIP3   OH242643   6.602   4.894   0.943 -0.0700 -0.1782 -0.2337
 7003TIP3    H142644   6.511   4.881   0.917 -0.8430  2.2760  0.8955
 7003TIP3    H242645   6.608   4.988   0.964  1.6408 -0.9351  3.5529
 7004TIP3   OH242646   4.100   3.023   0.112 -0.3865 -0.3567  0.3247
 7004TIP3    H142647   4.161   3.014   0.185  1.2930 -0.2770 -1.0304
 7004TIP3    H242648   4.014   3.003   0.151  0.4978 -0.7189  2.2138
 7005TIP3   OH242649   2.124   2.461   0.399 -0.3082  0.5110 -0.7320
 7005TIP3    H142650   2.183   2.437   0.327  1.3738  1.0420  0.4077
 7005TIP3    H242651   2.090   2.548   0.374  1.0330  1.1333 -0.4613
 7006TIP3   OH242652   1.171   3.831   0.816  0.1446  0.1029  0.2124
 7006TIP3    H142653   1.213   3.747   0.834  1.8510  0.5290 -1.4535
 7006TIP3    H242654   1.161   3.871   0.902  0.5024 -1.2440  0.9194
 7007TIP3   OH242655   4.342   4.095   8.552  0.1399  0.2606 -0.3847
 7007TIP3    H142656   4.382   4.097   8.639 -0.2776 -0.2218 -0.1771
 7007TIP3    H242657   4.263   4.043   8.563 -0.3511  0.8886 -0.8753
 7008TIP3   OH242658   4.219   3.859   0.110  0.5889  0.3894  1.0362
 7008TIP3    H142659   4.241   3.803   0.185  1.1545 -0.1356  0.4834
 7008TIP3    H242660   4.301   3.868   0.062 -0.4567 -2.1987 -1.4804
 7009TIP3   OH242661   2.900   6.196   1.212  0.4650  0.2367 -0.0760
 7009TIP3    H142662   2.990   6.204   1.178  0.9214 -3.0312  0.0858
 7009TIP3    H242663   2.848   6.170   1.136  0.0287  0.1657  0.2461
 7010TIP3   OH242664   1.063   2.716   7.923 -0.2049 -0.0939  0.7647
 7010TIP3    H142665   1.127   2.646   7.936  0.0248 -0.2155 -0.8025
 7010TIP3    H242666   1.015   2.720   8.006 -0.0839 -1.9577  0.9832
 7011TIP3   OH242667   0.486   4.578   8.366  0.2630 -0.0469 -0.4777
 7011TIP3    H142668   0.553   4.627   8.319 -0.6433  0.5259 -1.2041
 7011TIP3    H242669   0.424   4.552   8.299 -0.0932 -0.8203  0.1431
 7012TIP3   OH242670   1.376   3.057   1.173  0.2444 -0.0691 -0.1933
 7012TIP3    H142671   1.416   3.127   1.225  0.1070 -0.1444  0.0148
 7012TIP3    H242672   1.448   3.020   1.123  0.0201  1.4776 -1.7754
 7013TIP3   OH242673   2.067   6.486   2.082 -0.3220  0.3301  0.0360
 7013TIP3    H142674   2.078   6.477   1.988 -1.6973 -3.1795  0.0565
 7013TIP3    H242675   2.146   6.447   2.120  0.9971  3.1747  0.4688
 7014TIP3   OH242676   1.853   6.567   8.562 -0.6525  0.2103  0.1934
 7014TIP3    H142677   1.859   6.551   8.656  0.1862  1.0300  0.2926
 7014TIP3    H242678   1.846   6.663   8.555  0.2964  0.2334 -0.6176
 7015TIP3   OH242679   2.107   1.009   2.729  0.1381 -0.1507  0.1311
 7015TIP3    H142680   2.035   0.947   2.722  0.0512 -0.4992  3.0325
 7015TIP3    H242681   2.071   1.084   2.776  0.6594  1.5009 -1.9438
 7016TIP3   OH242682   2.737   5.173   7.605 -0.4276  0.0653 -0.2871
 7016TIP3    H142683   2.676   5.118   7.555 -1.7888  1.0467  0.2311
 7016TIP3    H242684   2.747   5.128   7.689  0.6593 -0.7975 -0.8604
 7017TIP3   OH242685   3.254   5.289   8.346 -0.0773 -0.3340  0.0691
 7017TIP3    H142686   3.224   5.348   8.416 -2.0655 -1.0650 -0.1118
 7017TIP3    H242687   3.322   5.339   8.301 -2.0769  2.1111 -0.4393
 7018TIP3   OH242688   6.567   5.004   0.081  0.0012 -0.2823 -0.2430
 7018TIP3    H142689   6.557   4.953   0.001  0.2624 -0.3057 -0.2605
 7018TIP3    H242690   6.481   4.998   0.123 -0.0661 -0.4677 -0.4014
 7019TIP3   OH242691   5.568   0.185   2.919  0.5118  0.2926 -0.2720
 7019TIP3    H142692   5.486   0.229   2.940  0.2300  0.5274 -1.7313
 7019TIP3    H242693   5.625   0.202   2.994 -0.7444  0.1645  0.7452
 7020TIP3   OH242694   6.692   4.664   1.979  0.2400 -0.1390 -0.0303
 7020TIP3    H142695   6.699   4.744   1.927 -0.0011  0.3755  0.7251
 7020TIP3    H242696   6.650   4.691   2.060  1.6984 -0.6944  0.9452
 7021TIP3   OH242697   2.175   4.850   1.844  0.5729 -0.8192  0.1453
 7021TIP3    H142698   2.206   4.940   1.854 -1.1140  0.0047 -1.4906
 7021TIP3    H242699   2.192   4.830   1.752 -0.7612 -1.4936  0.0305
 7022TIP3   OH242700   4.494   6.451   0.342 -0.1665  0.0085  0.0378
 7022TIP3    H142701   4.582   6.485   0.329  0.0432  0.3071  1.8873
 7022TIP3    H242702   4.499   6.406   0.427 -2.1337  1.2781  0.8879
 7023TIP3   OH242703   3.919   2.727   1.552  0.2226 -0.2926  0.0008
 7023TIP3    H142704   3.988   2.706   1.489 -0.5056 -0.6549 -0.6964
 7023TIP3    H242705   3.853   2.773   1.500 -0.4069 -0.6197  0.4959
 7024TIP3   OH242706   6.650   1.697   0.000 -0.4261  0.6196 -0.1103
 7024TIP3    H142707   6.565   1.742  -0.001 -1.0381 -0.5018  0.3942
 7024TIP3    H242708   6.629   1.606   0.016  0.8495  0.2255 -0.5686
 7025TIP3   OH242709   2.521   1.720   0.985 -0.4419 -0.3085 -0.4512
 7025TIP3    H142710   2.569   1.670   0.919 -0.1778  0.1613 -0.6142
 7025TIP3    H242711   2.574   1.797   1.001  0.2786 -1.1496  1.4612
 7026TIP3   OH242712   0.160   2.290   7.870  0.1409 -0.5229 -0.3599
 7026TIP3    H142713   0.241   2.332   7.841 -0.2147 -0.0166 -0.6678
 7026TIP3    H242714   0.105   2.363   7.899  0.2476 -0.9713  1.0155
 7027TIP3   OH242715   1.840   4.964   2.163 -0.3096 -0.0502  0.1512
 7027TIP3    H142716   1.919   4.955   2.110 -0.6191  0.7663 -0.4539
 7027TIP3    H242717   1.868   5.012   2.241 -0.1878  0.1554 -0.0190
 7028TIP3   OH242718   5.351   3.974   0.630 -0.1037  0.0005 -0.3206
 7028TIP3    H142719   5.278   4.036   0.636  0.7507  1.0452 -0.4316
 7028TIP3    H242720   5.332   3.923   0.552 -1.0693 -0.2087  0.0352
 7029TIP3   OH242721   2.817   2.778   8.216  0.0643 -0.6393 -0.3966
 7029TIP3    H142722   2.744   2.727   8.180  0.9648 -2.1546 -0.1273
 7029TIP3    H242723   2.846   2.832   8.142  0.6395 -2.2930 -1.4206
 7030TIP3   OH242724   1.240   4.339   8.522 -0.5116 -0.1799 -0.2857
 7030TIP3    H142725   1.276   4.427   8.515 -0.7870  0.1139  1.4108
 7030TIP3    H242726   1.317   4.282   8.530 -0.3312  0.2633  1.6177
 7031TIP3   OH242727   1.352   2.501   2.155  0.1622  0.4103  0.4729
 7031TIP3    H142728   1.360   2.423   2.100  1.8247  0.9177 -0.0506
 7031TIP3    H242729   1.332   2.572   2.093 -0.7628  0.5244  0.8789
 7032TIP3   OH242730   3.202   2.038   2.083 -0.4143  0.1484  0.2985
 7032TIP3    H142731   3.113   2.027   2.118 -0.5824  0.1491 -0.1192
 7032TIP3    H242732   3.230   1.949   2.062  0.4122 -0.0633  2.1588
 7033TIP3   OH242733   3.413   2.951   0.263 -0.3039  0.0304 -0.2850
 7033TIP3    H142734   3.351   2.957   0.190 -2.0415  3.1523  1.2434
 7033TIP3    H242735   3.373   2.889   0.324 -0.6021  0.0828 -0.4279
 7034TIP3   OH242736   2.975   5.317   1.160 -0.1835 -0.4201 -0.0220
 7034TIP3    H142737   2.918   5.359   1.224 -0.1073  0.4798 -0.5411
 7034TIP3    H242738   2.930   5.235   1.138 -1.7114  0.6624 -1.0593
 7035TIP3   OH242739   4.508   6.309   1.963 -0.3244 -0.7128 -0.3800
 7035TIP3    H142740   4.510   6.377   1.896  0.2459 -1.0715 -0.7406
 7035TIP3    H242741   4.568   6.342   2.031  0.8769 -1.3637 -1.0838
 7036TIP3   OH242742   2.373   5.552   8.028 -0.5982  0.7125  0.3976
 7036TIP3    H142743   2.444   5.577   7.969 -1.1497  0.9027 -0.1965
 7036TIP3    H242744   2.414   5.546   8.114  0.6621 -1.5405 -0.2891
 7037TIP3   OH242745   1.805   6.352   0.885 -0.1006 -0.2195 -0.2571
 7037TIP3    H142746   1.870   6.293   0.845  0.2921  0.1610 -0.1932
 7037TIP3    H242747   1.845   6.439   0.877  0.1168 -0.1611  1.2045
 7038TIP3   OH242748   1.947   3.535   8.124  0.3921 -0.0100 -0.4569
 7038TIP3    H142749   2.030   3.519   8.079  0.2362 -0.5193 -0.5722
 7038TIP3    H242750   1.936   3.631   8.122  1.4371  0.1447  0.4110
 7039TIP3   OH242751   5.303   3.313   1.118 -0.0623  0.0985  0.3014
 7039TIP3    H142752   5.235   3.368   1.158  1.4915  0.8212  2.1204
 7039TIP3    H242753   5.360   3.375   1.072 -0.0876 -0.3876 -0.4005
 7040TIP3   OH242754   1.709   3.119   7.982  0.0429 -0.1375 -0.2613
 7040TIP3    H142755   1.693   3.050   8.046 -0.0040 -1.2205 -1.3935
 7040TIP3    H242756   1.655   3.095   7.907  0.3951  0.8768 -0.8674
 7041TIP3   OH242757   4.526   6.158   0.345 -0.1568  0.1144  0.0129
 7041TIP3    H142758   4.564   6.129   0.262 -0.9620 -1.4441  0.1568
 7041TIP3    H242759   4.601   6.164   0.405 -0.0466 -2.9723  0.3153
 7042TIP3   OH242760   2.751   5.623   8.442  0.0386 -0.1049  1.0167
 7042TIP3    H142761   2.770   5.658   8.355 -0.3049 -0.9260  0.5976
 7042TIP3    H242762   2.729   5.531   8.426 -0.3086 -0.1897  1.9423
 7043TIP3   OH242763   2.441   3.410   0.667  0.0820  0.4890  0.1265
 7043TIP3    H142764   2.428   3.505   0.656 -2.3699  0.1681 -0.4707
 7043TIP3    H242765   2.416   3.373   0.582 -0.4280 -0.7776  0.8074
 7044TIP3   OH242766   0.384   5.610   0.048  0.6139 -0.0263  0.8592
 7044TIP3    H142767   0.390   5.518   0.022 -0.9213 -0.3420  1.5056
 7044TIP3    H242768   0.309   5.613   0.107 -0.9345  2.0801 -1.0864
 7045TIP3   OH242769   5.791   1.617   1.487 -0.1346 -0.1030 -0.4800
 7045TIP3    H142770   5.810   1.536   1.534  1.5109  0.5326  0.0490
 7045TIP3    H242771   5.783   1.683   1.556  2.5845  0.8928 -1.0029
 7046TIP3   OH242772   2.611   4.694   0.121  0.0246  0.2031  0.4287
 7046TIP3    H142773   2.666   4.728   0.050 -0.2977 -0.3250 -0.0812
 7046TIP3    H242774   2.641   4.740   0.199 -1.8656  3.3882 -0.5355
 7047TIP3   OH242775   2.472   4.048   2.262  0.2230  0.1969  0.3192
 7047TIP3    H142776   2.487   4.118   2.199  2.6190 -1.3969 -1.0335
 7047TIP3    H242777   2.377   4.034   2.261  0.1573  0.2715 -2.9739
 7048TIP3   OH242778   1.855   0.241   7.145  0.6064 -0.0484  0.6234
 7048TIP3    H142779   1.775   0.194   7.123  0.7946 -1.5738  2.8090
 7048TIP3    H242780   1.925   0.178   7.126  1.1925  0.7716  0.0049
 7049TIP3   OH242781   4.738   0.202   7.606 -0.2897  0.0706  0.4737
 7049TIP3    H142782   4.763   0.160   7.523 -2.1631 -0.8745  0.3352
 7049TIP3    H242783   4.744   0.296   7.587  0.9951 -0.1160 -0.1686
 7050TIP3   OH242784   2.598   2.918   8.796  0.5657  0.3045 -0.3780
 7050TIP3    H142785   2.623   3.008   8.817  1.4041 -0.7909  4.3120
 7050TIP3    H242786   2.679   2.877   8.766  0.2302  0.9410 -2.3028
 7051TIP3   OH242787   1.257   4.406   0.760 -0.2366  0.0508 -0.3589
 7051TIP3    H142788   1.277   4.324   0.806 -0.9427 -0.3064 -0.6716
 7051TIP3    H242789   1.186   4.383   0.699 -1.5248  1.2391  0.6366
 7052TIP3   OH242790   2.396   3.555   1.353 -0.2284 -0.7335  0.5264
 7052TIP3    H142791   2.381   3.497   1.279  0.7653 -1.2024  0.6672
 7052TIP3    H242792   2.486   3.536   1.380 -0.1376  0.3617  1.0350
 7053TIP3   OH242793   2.119   4.629   8.047 -0.1193 -0.2741  0.2971
 7053TIP3    H142794   2.070   4.641   7.966 -0.2131  4.3834  0.7321
 7053TIP3    H242795   2.053   4.608   8.113 -0.7277  0.2491 -0.1360
 7054TIP3   OH242796   1.973   3.987   1.315 -0.2018 -0.0374  0.5190
 7054TIP3    H142797   1.927   4.024   1.240  0.0656  0.5605  0.6477
 7054TIP3    H242798   1.908   3.987   1.386 -0.2599  0.0050  0.4654
 7055TIP3   OH242799   1.948   1.573   0.565 -0.1955  0.1226 -0.3997
 7055TIP3    H142800   1.949   1.651   0.621  0.0393 -1.0946  1.3594
 7055TIP3    H242801   2.038   1.542   0.565 -0.7406 -1.6541  1.1840
 7056TIP3   OH242802   3.551   3.535   0.361 -0.2931 -0.3111 -0.2477
 7056TIP3    H142803   3.502   3.519   0.281 -1.7930 -2.2015  0.9578
 7056TIP3    H242804   3.586   3.623   0.351 -0.8218 -0.3252 -2.7565
 7057TIP3   OH242805   1.181   5.833   0.057  0.3300 -0.3147  0.1497
 7057TIP3    H142806   1.131   5.890   0.000  0.3714 -1.2554 -0.8633
 7057TIP3    H242807   1.222   5.770  -0.002  0.5760 -1.1654  1.1919
 7058TIP3   OH242808   6.830   4.639   0.257 -0.2634 -0.0079  0.2463
 7058TIP3    H142809   6.793   4.619   0.170 -0.7340 -1.0930  0.6788
 7058TIP3    H242810   6.803   4.565   0.312 -0.0942  0.7446  1.3598
 7059TIP3   OH242811   5.698   2.919   0.765  0.1742  0.3179 -0.1286
 7059TIP3    H142812   5.604   2.940   0.769 -0.2368 -1.3181 -0.2647
 7059TIP3    H242813   5.736   2.991   0.715 -0.9873  1.0818  0.0315
 7060TIP3   OH242814   0.899   0.674   1.592  0.0405 -0.4157  0.1017
 7060TIP3    H142815   0.889   0.677   1.496 -0.2249 -1.4658  0.0906
 7060TIP3    H242816   0.908   0.581   1.612 -2.9165 -0.5279  1.3858
 7061TIP3   OH242817   5.767   1.359   8.611 -0.1396  0.6627 -0.2956
 7061TIP3    H142818   5.833   1.327   8.549 -0.1313  1.9221 -0.9685
 7061TIP3    H242819   5.750   1.449   8.583 -1.0227  0.8561  0.8137
 7062TIP3   OH242820   3.910   1.868   2.600 -0.4855 -0.2810 -0.6163
 7062TIP3    H142821   3.940   1.915   2.677  0.1434 -0.4377 -0.7589
 7062TIP3    H242822   3.985   1.813   2.575 -0.2748  0.5710 -1.9840
 7063TIP3   OH242823   0.865   2.612   2.629  0.1156  0.2937  0.3774
 7063TIP3    H142824   0.831   2.614   2.719  0.3842  1.9210  0.4865
 7063TIP3    H242825   0.791   2.643   2.576  0.3025  0.4105  0.1859
 7064TIP3   OH242826   4.194   6.705   2.078  0.1078 -0.5654 -0.0694
 7064TIP3    H142827   4.286   6.684   2.091  0.2007  0.1676  0.5790
 7064TIP3    H242828   4.183   6.789   2.123 -0.4233  0.3251 -1.7948
 7065TIP3   OH242829   3.758   0.577   0.233 -0.1280 -0.2569 -0.2943
 7065TIP3    H142830   3.785   0.568   0.324 -1.2943 -1.8226 -0.0593
 7065TIP3    H242831   3.669   0.612   0.238 -0.6504 -1.4689 -0.7600
 7066TIP3   OH242832   1.200   3.566   2.349  0.6883  0.1681  0.5887
 7066TIP3    H142833   1.194   3.660   2.331  1.4125  0.0268 -0.4646
 7066TIP3    H242834   1.215   3.561   2.443  0.2200  1.0872  0.7283
 7067TIP3   OH242835   0.098   3.352   1.378 -0.1705  0.2373 -0.1759
 7067TIP3    H142836   0.089   3.412   1.304  1.8507  0.1587 -0.5559
 7067TIP3    H242837   0.084   3.407   1.455  0.4904  0.9767 -0.5615
 7068TIP3   OH242838   2.932   0.185   1.986 -0.5338 -0.0930  0.4178
 7068TIP3    H142839   3.020   0.218   2.006 -0.5483 -0.8108  1.7724
 7068TIP3    H242840   2.948   0.113   1.925  0.1858 -2.2978  2.9910
 7069TIP3   OH242841   6.351   0.910   7.648 -0.3307  0.0619  0.3134
 7069TIP3    H142842   6.410   0.985   7.642 -0.6816  0.5320  2.0133
 7069TIP3    H242843   6.273   0.944   7.691 -1.1728 -0.9234 -0.3941
 7070TIP3   OH242844   5.613   0.101   6.981 -0.2475  0.2778  0.4133
 7070TIP3    H142845   5.581   0.142   6.900 -0.4069 -1.4986 -0.4884
 7070TIP3    H242846   5.534   0.067   7.023 -0.1195  0.8349  1.1261
 7071TIP3   OH242847   3.750   3.975   2.352  1.0367 -0.1093 -1.0055
 7071TIP3    H142848   3.730   3.887   2.385  1.5873  0.5030  1.0990
 7071TIP3    H242849   3.696   4.033   2.406  0.4829  0.8546 -2.5533
 7072TIP3   OH242850   2.127   3.403   0.818 -0.1101  0.5399  0.5960
 7072TIP3    H142851   2.042   3.428   0.854 -1.0490  2.2941 -2.4159
 7072TIP3    H242852   2.107   3.337   0.752  1.1506 -0.4797  1.1956
 7073TIP3   OH242853   3.607   2.205   0.713  0.0792  0.2375  0.7523
 7073TIP3    H142854   3.584   2.245   0.797 -1.3787 -1.0180  0.9842
 7073TIP3    H242855   3.680   2.146   0.734 -0.4575 -0.2758  1.2081
 7074TIP3   OH242856   2.252   2.921   8.327 -0.0597  0.4443  0.7594
 7074TIP3    H142857   2.288   2.887   8.408 -0.2685  0.2953  0.7896
 7074TIP3    H242858   2.328   2.954   8.279  0.6018 -2.7704 -0.6261
 7075TIP3   OH242859   6.543   5.034   2.190 -0.3949  0.1927 -0.3448
 7075TIP3    H142860   6.477   5.073   2.247 -0.5633 -1.6675  0.8323
 7075TIP3    H242861   6.626   5.068   2.222 -0.5458 -0.2990  0.6110
 7076TIP3   OH242862   1.473   1.865   8.564  0.2487  0.0726 -0.0594
 7076TIP3    H142863   1.438   1.792   8.615 -1.8377  0.3593 -1.0101
 7076TIP3    H242864   1.436   1.943   8.605 -0.5848  0.3676 -1.3313
 7077TIP3   OH242865   6.183   5.227   1.260  0.0375  0.3106  0.2182
 7077TIP3    H142866   6.136   5.294   1.310 -2.0217 -0.6734 -0.2994
 7077TIP3    H242867   6.218   5.167   1.326 -0.0107  0.6877  0.5893
 7078TIP3   OH242868   6.757   1.218   2.686 -0.3896  0.0661  0.0783
 7078TIP3    H142869   6.847   1.249   2.700 -0.5364  0.5913 -0.0929
 7078TIP3    H242870   6.716   1.222   2.772 -0.4371  0.4597  0.0401
 7079TIP3   OH242871   5.710   5.563   1.263 -0.4890  0.0911 -0.3566
 7079TIP3    H142872   5.745   5.490   1.213 -0.2689  0.4034 -0.6561
 7079TIP3    H242873   5.617   5.565   1.241 -1.0969 -1.7403  1.6482
 7080TIP3   OH242874   2.863   0.339   1.764  0.0363 -0.5244 -0.1849
 7080TIP3    H142875   2.891   0.288   1.841 -0.6898  1.0254  1.1726
 7080TIP3    H242876   2.944   0.375   1.728  0.3124 -0.5241  0.4207
 7081TIP3   OH242877   3.576   2.726   7.729  0.1569  0.2429  0.0053
 7081TIP3    H142878   3.576   2.816   7.761  0.6219  0.9907 -1.9411
 7081TIP3    H242879   3.497   2.720   7.675  0.8192 -0.0832 -0.9574
 7082TIP3   OH242880   0.924   0.636   2.986  0.8309 -0.0783  0.2954
 7082TIP3    H142881   0.911   0.565   3.049  1.8758 -0.5417  0.0131
 7082TIP3    H242882   0.882   0.606   2.906  0.0622  0.2331  0.5748
 7083TIP3   OH242883   4.502   5.884   1.248 -0.1220  0.3097  0.4361
 7083TIP3    H142884   4.509   5.793   1.218  1.0942  0.5053  0.0646
 7083TIP3    H242885   4.481   5.933   1.168 -3.0051  0.1354  0.9924
 7084TIP3   OH242886   4.244   3.354   0.814 -0.0846  0.2217  0.2227
 7084TIP3    H142887   4.177   3.343   0.747 -0.1722  1.2663  0.1170
 7084TIP3    H242888   4.213   3.304   0.889  0.2501 -1.3821 -0.6604
 7085TIP3   OH242889   3.604   1.724   6.867 -0.3343  0.3723 -0.3410
 7085TIP3    H142890   3.512   1.750   6.877  0.2599  2.0874  1.3634
 7085TIP3    H242891   3.647   1.802   6.831  0.9317  0.7121  1.7304
 7086TIP3   OH242892   2.885   0.647   0.222  0.5570 -0.7337 -0.4250
 7086TIP3    H142893   2.867   0.732   0.262  0.0398  0.3361 -2.7377
 7086TIP3    H242894   2.869   0.583   0.292  0.1097  1.0057  1.1348
 7087TIP3   OH242895   4.327   6.199   8.542  0.1027  0.0840 -0.3113
 7087TIP3    H142896   4.388   6.230   8.475 -0.1321  0.7782 -0.2164
 7087TIP3    H242897   4.273   6.276   8.563 -1.6828 -0.8352 -1.3344
 7088TIP3   OH242898   3.881   0.398   2.941 -0.1360  0.0066  0.0489
 7088TIP3    H142899   3.962   0.352   2.923  1.3888  1.6231  2.1831
 7088TIP3    H242900   3.818   0.329   2.964  0.3698 -1.3198 -2.2617
 7089TIP3   OH242901   3.029   3.777   6.807  0.1016  0.6945 -0.1167
 7089TIP3    H142902   3.116   3.755   6.840  1.0424  2.8950 -0.9057
 7089TIP3    H242903   3.035   3.870   6.783 -2.0188  0.5291 -1.6287
 7090TIP3   OH242904   3.497   2.824   8.810 -0.0559 -0.3465  0.3467
 7090TIP3    H142905   3.427   2.783   8.759  1.1187  0.2002 -1.8381
 7090TIP3    H242906   3.465   2.913   8.827  0.4143  0.2183 -1.4735
 7091TIP3   OH242907   2.927   5.799   0.163 -0.4790 -0.1373  0.0123
 7091TIP3    H142908   3.012   5.819   0.122 -0.4793 -0.0362  0.0594
 7091TIP3    H242909   2.948   5.788   0.256 -0.5439  0.0642  0.0519
 7092TIP3   OH242910   5.373   2.281   1.916 -0.1588  0.0715 -0.2685
 7092TIP3    H142911   5.280   2.301   1.905 -0.0676 -0.0856 -1.4548
 7092TIP3    H242912   5.379   2.187   1.900  0.0924 -0.0590  0.5984
 7093TIP3   OH242913   2.646   6.354   8.138 -0.1593  0.0087 -0.3169
 7093TIP3    H142914   2.573   6.363   8.076 -1.1484 -0.0262  0.7974
 7093TIP3    H242915   2.648   6.438   8.184  0.5532  0.0294 -0.3755
 7094TIP3   OH242916   3.344   2.909   7.755 -0.5464 -0.0626  0.1461
 7094TIP3    H142917   3.426   2.931   7.711  0.6864 -1.7194  1.4759
 7094TIP3    H242918   3.357   2.938   7.845 -1.9931  0.8688  0.0902
 7095TIP3   OH242919   5.422   4.705   7.509  0.1035 -0.5345 -0.1474
 7095TIP3    H142920   5.447   4.700   7.417 -0.0109  0.8602 -0.2805
 7095TIP3    H242921   5.503   4.691   7.558  0.2777 -0.6468 -0.4683
 7096TIP3   OH242922   2.689   4.383   8.826 -0.6280 -0.5770  0.2299
 7096TIP3    H142923   2.730   4.452   8.878 -0.6941  0.6827 -1.3221
 7096TIP3    H242924   2.722   4.302   8.864  1.1630  0.3411  0.7496
 7097TIP3   OH242925   5.685   2.886   8.767 -0.6425 -0.2446 -0.2190
 7097TIP3    H142926   5.696   2.881   8.672  0.1947  0.2665 -0.1646
 7097TIP3    H242927   5.591   2.891   8.781 -0.7357  0.5253 -1.0735
 7098TIP3   OH242928   0.079   5.038   0.593 -0.1111  0.2866 -0.5101
 7098TIP3    H142929   0.084   4.965   0.530 -0.4237  0.5901 -0.8956
 7098TIP3    H242930   0.057   4.996   0.676  0.0964 -0.1015 -0.6447
 7099TIP3   OH242931   5.262   5.643   1.501 -0.2845 -0.0187  0.4761
 7099TIP3    H142932   5.215   5.562   1.480 -0.9139  0.6367 -0.7578
 7099TIP3    H242933   5.193   5.710   1.506  0.5285  1.5187 -3.9573
 7100TIP3   OH242934   5.198   6.712   1.483 -0.0643 -0.0969 -0.3276
 7100TIP3    H142935   5.214   6.620   1.502  1.4252  0.2896  0.4193
 7100TIP3    H242936   5.105   6.725   1.504 -0.0440 -1.1904  0.5429
 7101TIP3   OH242937   2.888   4.570   7.900  1.0668 -0.4735 -0.7328
 7101TIP3    H142938   2.968   4.528   7.931  0.3291 -0.4996  1.2656
 7101TIP3    H242939   2.818   4.510   7.925  0.2169  0.7167 -0.1347
 7102TIP3   OH242940   2.913   3.655   8.211  0.4584  0.1703 -0.1012
 7102TIP3    H142941   2.859   3.696   8.144  1.8927  1.4907 -0.5253
 7102TIP3    H242942   2.934   3.727   8.272  1.7389 -0.2637  0.0143
 7103TIP3   OH242943   2.359   1.744   2.052  0.9745 -0.4364 -0.0182
 7103TIP3    H142944   2.404   1.676   2.002 -0.5186 -1.4849  0.0034
 7103TIP3    H242945   2.268   1.715   2.056  0.7665  0.3205  2.1063
 7104TIP3   OH242946   2.833   4.176   1.784 -0.0831  0.1452 -0.0955
 7104TIP3    H142947   2.755   4.144   1.738 -0.6361 -0.0628  0.9443
 7104TIP3    H242948   2.869   4.098   1.827 -1.4058  0.8055  2.4122
 7105TIP3   OH242949   5.870   0.636   2.009  0.5330 -0.0297 -0.0758
 7105TIP3    H142950   5.869   0.699   1.937  2.2333 -0.1926 -0.2888
 7105TIP3    H242951   5.942   0.665   2.065  1.0320 -1.4883  0.0724
 7106TIP3   OH242952   4.273   2.371   1.456  0.1768  0.8741 -0.1197
 7106TIP3    H142953   4.207   2.303   1.441 -0.0241  0.8742  0.7381
 7106TIP3    H242954   4.302   2.396   1.368  1.8797 -1.8959 -0.4921
 7107TIP3   OH242955   1.692   3.289   0.696 -0.4370 -0.0564  0.1514
 7107TIP3    H142956   1.741   3.249   0.767 -0.4681  2.6184  1.8284
 7107TIP3    H242957   1.759   3.320   0.635 -0.2992 -0.5235  0.0640
 7108TIP3   OH242958   0.177   1.633   1.912 -0.6807  0.2162  0.1617
 7108TIP3    H142959   0.230   1.656   1.836 -0.7912 -1.3985 -0.4460
 7108TIP3    H242960   0.170   1.714   1.962  1.9036  0.6116  0.0020
 7109TIP3   OH242961   0.898   6.495   0.328 -0.0417  0.1272 -0.2141
 7109TIP3    H142962   0.914   6.461   0.240  1.2814 -1.1432  0.4649
 7109TIP3    H242963   0.888   6.416   0.382 -0.4992  0.8827  0.8242
 7110TIP3   OH242964   4.840   0.771   0.695  0.2478  0.5072 -0.1094
 7110TIP3    H142965   4.888   0.698   0.657 -2.1424 -0.2273 -2.0221
 7110TIP3    H242966   4.843   0.756   0.790  0.8627 -1.3553 -0.3867
 7111TIP3   OH242967   1.509   5.373   8.383 -0.1725 -0.3512 -0.0676
 7111TIP3    H142968   1.519   5.283   8.352 -2.3216 -0.9621  0.8474
 7111TIP3    H242969   1.452   5.366   8.459 -0.0393  1.7641  0.2840
 7112TIP3   OH242970   3.600   6.656   1.991 -0.5990 -0.3179  0.1040
 7112TIP3    H142971   3.679   6.633   2.041  0.1749  0.5433 -0.6807
 7112TIP3    H242972   3.586   6.748   2.011 -0.3142  0.0270 -1.1840
 7113TIP3   OH242973   5.373   6.419   6.685  0.6004 -0.1727  0.1459
 7113TIP3    H142974   5.416   6.501   6.709  0.3677 -0.3772  1.3152
 7113TIP3    H242975   5.287   6.445   6.653  0.8724  0.1006 -0.3687
 7114TIP3   OH242976   6.732   4.867   1.621  0.5741  0.3601 -0.5051
 7114TIP3    H142977   6.727   4.772   1.630  2.3330  0.3352  0.6827
 7114TIP3    H242978   6.802   4.881   1.557  1.2387  0.8536  0.3148
 7115TIP3   OH242979   4.867   4.717   1.089  0.0674  0.5956  0.1306
 7115TIP3    H142980   4.782   4.677   1.072 -0.1458  1.4810 -1.0119
 7115TIP3    H242981   4.922   4.689   1.016  1.1088 -0.8177  1.3810
 7116TIP3   OH242982   6.668   0.290   2.207 -0.3150 -0.0385  0.3206
 7116TIP3    H142983   6.599   0.273   2.271 -0.9326  0.0087 -0.3189
 7116TIP3    H242984   6.623   0.334   2.135  0.1936 -0.8677 -0.5235
 7117TIP3   OH242985   2.438   5.694   6.724  0.1350 -0.3506 -0.1240
 7117TIP3    H142986   2.519   5.669   6.770 -0.6836 -0.4730  1.2891
 7117TIP3    H242987   2.391   5.612   6.712 -0.5508 -0.0665  0.5831
 7118TIP3   OH242988   4.518   3.176   1.431  0.2182 -0.5708 -0.0352
 7118TIP3    H142989   4.556   3.157   1.345 -0.7052 -0.7506 -0.4139
 7118TIP3    H242990   4.450   3.110   1.441 -1.4571  1.0502 -0.3151
 7119TIP3   OH242991   3.035   5.934   0.863  0.7826 -0.1604  0.1865
 7119TIP3    H142992   3.084   5.981   0.931  2.0913  1.0381 -1.5123
 7119TIP3    H242993   3.049   5.842   0.883 -0.1939  0.1117  2.4419
 7120TIP3   OH242994   6.251   2.801   1.463 -0.0464 -0.0608 -0.3243
 7120TIP3    H142995   6.159   2.775   1.456  0.0748 -0.7166  0.2924
 7120TIP3    H242996   6.252   2.895   1.446 -0.9707  0.1425  0.6697
 7121TIP3   OH242997   1.253   5.974   1.051  0.3776 -0.3837  0.0992
 7121TIP3    H142998   1.163   6.005   1.061  0.4566 -0.1782  0.1834
 7121TIP3    H242999   1.306   6.054   1.053  0.6914 -0.6027  1.4968
 7122TIP3   OH243000   6.638   1.750   0.471 -0.5423  0.9524 -0.4087
 7122TIP3    H143001   6.726   1.788   0.465  0.1773 -0.6288 -0.2989
 7122TIP3    H243002   6.624   1.738   0.565 -0.3734  0.0967 -0.4885
 7123TIP3   OH243003   1.921   2.853   7.597 -0.0145  0.1752  0.6864
 7123TIP3    H143004   1.901   2.872   7.689  1.5913 -1.2503  1.3762
 7123TIP3    H243005   2.011   2.820   7.598 -0.3756 -1.0129 -1.2440
 7124TIP3   OH243006   1.138   4.429   8.017 -0.7542  0.2336  0.0687
 7124TIP3    H143007   1.128   4.505   7.960  1.3963  0.6972  0.2141
 7124TIP3    H243008   1.212   4.381   7.979 -3.4188 -3.0991 -1.3600
 7125TIP3   OH243009   0.288   5.815   2.149 -0.1838  0.1166  0.3684
 7125TIP3    H143010   0.311   5.838   2.239  0.4376 -0.8551  0.4736
 7125TIP3    H243011   0.365   5.768   2.116 -0.2463  0.7964 -0.8111
 7126TIP3   OH243012   6.420   0.798   1.105 -0.7805 -0.0268  0.3063
 7126TIP3    H143013   6.457   0.886   1.114  0.2846 -0.5966  1.7663
 7126TIP3    H243014   6.335   0.804   1.150 -0.2125 -0.0176  1.4098
 7127TIP3   OH243015   5.041   4.662   8.758  1.0338  0.7428  0.4159
 7127TIP3    H143016   4.993   4.729   8.710 -1.3562 -1.6661 -0.8385
 7127TIP3    H243017   4.998   4.659   8.843 -0.3572 -0.5621 -0.2775
 7128TIP3   OH243018   2.397   2.611   2.818 -0.1396 -0.1336  0.3720
 7128TIP3    H143019   2.387   2.706   2.817  1.2675  0.0418 -0.3140
 7128TIP3    H243020   2.341   2.580   2.747  1.3255  0.4529 -1.1050
 7129TIP3   OH243021   6.234   1.658   7.734 -0.3420  0.2565 -0.8251
 7129TIP3    H143022   6.208   1.578   7.687 -1.7156  1.0655 -1.4814
 7129TIP3    H243023   6.219   1.729   7.672  0.0780  1.1309  0.0418
 7130TIP3   OH243024   6.040   1.260   0.154 -0.2314  0.3479 -0.3039
 7130TIP3    H143025   5.958   1.302   0.127 -0.4134 -0.0216 -0.3283
 7130TIP3    H243026   6.016   1.169   0.171  0.1386  0.2815 -0.1334
 7131TIP3   OH243027   1.875   4.354   1.041  0.2854 -0.0470  0.4452
 7131TIP3    H143028   1.832   4.347   0.956  2.0853  0.3318 -0.5554
 7131TIP3    H243029   1.876   4.264   1.075  1.7041 -0.6713 -1.1050
 7132TIP3   OH243030   4.906   3.173   7.412 -0.4235  0.2469 -0.5730
 7132TIP3    H143031   4.891   3.078   7.410  0.0539  0.1599 -0.2562
 7132TIP3    H243032   4.987   3.186   7.363 -0.6838  0.5333 -0.9269
 7133TIP3   OH243033   2.565   6.280   7.668  0.4427 -0.4550  0.1502
 7133TIP3    H143034   2.629   6.216   7.699 -0.6431 -2.6373 -1.8258
 7133TIP3    H243035   2.614   6.338   7.611  1.0271 -0.8973  0.1936
 7134TIP3   OH243036   3.798   3.706   8.702  0.1172 -0.3242 -0.0608
 7134TIP3    H143037   3.879   3.731   8.748  0.1142 -0.4695  0.0257
 7134TIP3    H243038   3.758   3.640   8.759 -1.3053  1.4793  1.1567
 7135TIP3   OH243039   4.172   6.085   1.526  0.3790 -0.0546  0.4657
 7135TIP3    H143040   4.238   6.124   1.468  0.1636  5.2126  3.2254
 7135TIP3    H243041   4.090   6.125   1.500 -0.1420  0.3910  2.6270
 7136TIP3   OH243042   0.311   1.049   7.432  0.0915  0.1746 -0.2722
 7136TIP3    H143043   0.233   1.003   7.403  0.9417 -1.2931 -0.3113
 7136TIP3    H243044   0.325   1.116   7.365 -0.0018 -0.8643 -1.3574
 7137TIP3   OH243045   4.738   4.851   8.014 -0.4934 -0.3640  0.3301
 7137TIP3    H143046   4.726   4.797   8.092 -0.3257 -0.4028  0.3306
 7137TIP3    H243047   4.712   4.940   8.041 -1.1272 -0.5114  0.2227
 7138TIP3   OH243048   3.327   1.147   8.630 -0.2091 -0.1226  0.2365
 7138TIP3    H143049   3.243   1.148   8.583  1.3125  1.2532 -2.7239
 7138TIP3    H243050   3.343   1.239   8.650  0.4910 -0.4032  0.9987
 7139TIP3   OH243051   6.458   5.226   2.896  0.2575  0.1794  0.4917
 7139TIP3    H143052   6.515   5.269   2.960 -3.1614  1.3240  3.0258
 7139TIP3    H243053   6.473   5.132   2.909  0.9291  0.4372  1.6879
 7140TIP3   OH243054   6.719   2.203   8.284  0.3481 -0.1848 -0.8430
 7140TIP3    H143055   6.743   2.115   8.255 -0.6313 -0.4124 -1.0305
 7140TIP3    H243056   6.708   2.195   8.378  1.2894 -0.0009 -0.7097
 7141TIP3   OH243057   6.363   1.395   3.092 -0.4259  0.4498  0.1457
 7141TIP3    H143058   6.367   1.339   3.169  1.1275  0.7037  0.2896
 7141TIP3    H243059   6.325   1.477   3.124  0.4684  0.6544  0.7395
 7142TIP3   OH243060   3.494   5.164   0.378 -0.1711  0.0132  0.3426
 7142TIP3    H143061   3.590   5.164   0.375 -0.1652 -1.6036 -1.6137
 7142TIP3    H243062   3.468   5.108   0.305 -2.6011 -0.8243  1.7353
 7143TIP3   OH243063   2.573   4.193   2.823  0.3196  0.1304  0.2415
 7143TIP3    H143064   2.633   4.229   2.888  0.5534 -0.9511  0.6589
 7143TIP3    H243065   2.588   4.098   2.827  0.2093  0.0136 -1.2563
 7144TIP3   OH243066   3.335   1.270   0.448 -0.3419  0.0411 -0.4644
 7144TIP3    H143067   3.266   1.325   0.411 -0.8892 -1.0549 -1.1224
 7144TIP3    H243068   3.291   1.218   0.516 -0.0187 -0.1923 -0.4299
 7145TIP3   OH243069   0.224   6.127   8.270 -0.4877 -0.2314  0.0263
 7145TIP3    H143070   0.181   6.050   8.232 -0.7133  0.6457 -1.5765
 7145TIP3    H243071   0.310   6.095   8.298 -0.6656 -1.1110 -0.3815
 7146TIP3   OH243072   2.475   4.911   8.117 -0.1695 -0.1623 -0.0077
 7146TIP3    H143073   2.518   4.843   8.065 -2.6289 -1.4110 -0.5502
 7146TIP3    H243074   2.508   4.896   8.206  0.6986 -0.8865 -0.4289
 7147TIP3   OH243075   1.416   1.623   8.706  0.3340 -0.2685 -0.4039
 7147TIP3    H143076   1.390   1.532   8.721  0.7504 -0.2222  0.7246
 7147TIP3    H243077   1.414   1.662   8.793  0.7891  0.6367 -0.7921
 7148TIP3   OH243078   4.152   2.413   2.019 -0.1770 -0.9638  0.3614
 7148TIP3    H143079   4.111   2.477   2.079  0.7002 -1.5054  1.5899
 7148TIP3    H243080   4.159   2.460   1.936  0.1791  0.4605  1.1512
 7149TIP3   OH243081   4.541   6.777   1.340  0.2075 -0.6225  0.5718
 7149TIP3    H143082   4.545   6.854   1.397 -0.2015 -2.1769  2.8419
 7149TIP3    H243083   4.448   6.772   1.314  0.2073 -0.4564  0.5375
 7150TIP3   OH243084   0.507   5.147   7.519 -0.3333 -0.0066 -0.6120
 7150TIP3    H143085   0.566   5.110   7.453 -1.1298 -1.7504 -0.4085
 7150TIP3    H243086   0.557   5.146   7.600  0.7315  2.3525 -1.1460
 7151TIP3   OH243087   0.477   0.549   3.123 -0.5482  0.4255  0.5965
 7151TIP3    H143088   0.389   0.559   3.160 -1.1587 -0.2299 -0.6339
 7151TIP3    H243089   0.462   0.513   3.036  0.9405  0.5122  0.2929
 7152TIP3   OH243090   0.950   6.610   6.833  0.3114 -0.5444  0.6511
 7152TIP3    H143091   0.913   6.671   6.898 -1.6613  0.6929 -1.4759
 7152TIP3    H243092   1.018   6.660   6.790 -0.0840 -0.4587  0.1153
 7153TIP3   OH243093   5.066   5.490   0.141 -0.5125 -0.1485 -0.2011
 7153TIP3    H143094   5.155   5.515   0.165  0.1711 -2.8720  0.4872
 7153TIP3    H243095   5.057   5.515   0.049  1.2219 -0.4583 -0.4755
 7154TIP3   OH243096   2.639   3.856   8.293 -0.3131 -0.0890 -0.4467
 7154TIP3    H143097   2.676   3.943   8.306  0.5741 -0.4228 -0.6473
 7154TIP3    H243098   2.679   3.803   8.363  1.3870 -0.9744 -1.9864
 7155TIP3   OH243099   2.770   2.101   1.370  0.1581  0.1556 -0.0849
 7155TIP3    H143100   2.714   2.091   1.292  1.7793 -1.3664 -1.1259
 7155TIP3    H243101   2.708   2.120   1.441 -1.4312  0.9983 -1.6031
 7156TIP3   OH243102   4.193   3.904   7.431 -0.5233  0.1006 -0.1949
 7156TIP3    H143103   4.219   3.991   7.460 -1.1105  0.6979 -1.4225
 7156TIP3    H243104   4.245   3.844   7.486  1.4284  1.2122 -0.7307
 7157TIP3   OH243105   0.958   6.589   8.752  0.1603 -0.1751  0.9364
 7157TIP3    H143106   0.969   6.654   8.683  0.5667 -1.0437  0.1638
 7157TIP3    H243107   0.934   6.640   8.830 -0.2270  0.8205  0.1800
 7158TIP3   OH243108   0.176   0.503   0.583  0.5497  0.4841 -0.4021
 7158TIP3    H143109   0.219   0.426   0.547  0.0991  1.0736 -2.2983
 7158TIP3    H243110   0.117   0.469   0.650  1.6603 -0.6217  0.0551
 7159TIP3   OH243111   6.719   2.938   6.684 -0.0108  0.1025  0.2045
 7159TIP3    H143112   6.718   3.028   6.649  0.0858  0.4159  0.9901
 7159TIP3    H243113   6.803   2.931   6.730 -0.2936 -0.1762  0.6867
 7160TIP3   OH243114   6.333   3.944   8.647 -0.5951 -0.7412 -0.0643
 7160TIP3    H143115   6.239   3.951   8.661 -0.9192 -0.9705 -1.9546
 7160TIP3    H243116   6.357   4.028   8.608  0.4888  0.3415  2.6319
 7161TIP3   OH243117   5.788   2.050   1.023  0.4750  0.2856 -0.4950
 7161TIP3    H143118   5.747   2.131   1.052  3.3911  2.3991 -1.7539
 7161TIP3    H243119   5.820   2.009   1.103 -0.7230  0.5402  0.1261
 7162TIP3   OH243120   2.582   2.128   0.570  0.2666 -0.4998  0.3658
 7162TIP3    H143121   2.601   2.037   0.591  1.6253 -0.2489  0.3306
 7162TIP3    H243122   2.487   2.136   0.579  0.0766 -2.0181 -0.0522
 7163TIP3   OH243123   6.518   0.089   7.503 -0.0255 -0.4914 -0.3984
 7163TIP3    H143124   6.530   0.157   7.437 -0.1568 -1.1042 -1.0654
 7163TIP3    H243125   6.548   0.128   7.585 -0.3587  0.4589 -0.7243
 7164TIP3   OH243126   2.166   4.862   7.753  0.3404 -0.2630 -0.2747
 7164TIP3    H143127   2.199   4.951   7.767 -0.0518  0.2232 -2.2031
 7164TIP3    H243128   2.072   4.870   7.765  0.0452  0.0771 -2.4807
 7165TIP3   OH243129   0.473   0.626   2.630 -0.3539  0.1072  0.2163
 7165TIP3    H143130   0.564   0.633   2.659 -0.8585  2.5311  1.5054
 7165TIP3    H243131   0.453   0.532   2.638  1.6285 -0.3011  1.1629
 7166TIP3   OH243132   6.141   4.703   1.173  0.1856  0.1214 -0.0747
 7166TIP3    H143133   6.166   4.647   1.247  0.2462 -0.5854 -0.6155
 7166TIP3    H243134   6.129   4.790   1.212  1.2484 -0.0011  0.5920
 7167TIP3   OH243135   6.583   3.731   2.481 -0.4218  0.3432 -0.1748
 7167TIP3    H143136   6.489   3.727   2.461 -0.8416  2.1743  1.1513
 7167TIP3    H243137   6.606   3.822   2.465  0.9623  0.0886  0.2919
 7168TIP3   OH243138   3.106   0.482   1.757  0.1497 -0.1154  0.6398
 7168TIP3    H143139   3.073   0.570   1.739  2.0048  0.3703 -0.6742
 7168TIP3    H243140   3.175   0.469   1.693 -0.7101 -2.9385  0.1691
 7169TIP3   OH243141   2.783   1.716   7.177  0.3619  0.1959 -0.5293
 7169TIP3    H143142   2.869   1.753   7.198  0.1162 -1.0252  3.5425
 7169TIP3    H243143   2.802   1.628   7.145  0.6637  0.2246 -0.4392
 7170TIP3   OH243144   1.849   1.931   7.717 -0.0808 -0.5461 -0.1736
 7170TIP3    H143145   1.767   1.977   7.733  0.1435 -0.5355  1.1396
 7170TIP3    H243146   1.874   1.954   7.628  0.1979  2.2079  0.5339
 7171TIP3   OH243147   6.330   5.310   2.672 -0.1949 -0.0769 -0.0205
 7171TIP3    H143148   6.380   5.275   2.746 -0.8014 -1.7794 -0.3590
 7171TIP3    H243149   6.270   5.373   2.711 -0.0231 -0.4365  0.8427
 7172TIP3   OH243150   0.720   6.021   6.730  0.5655  0.2141  0.2606
 7172TIP3    H143151   0.654   6.080   6.692 -0.6352 -1.1333  0.1887
 7172TIP3    H243152   0.791   6.023   6.666  0.6625  1.7401  0.3635
 7173TIP3   OH243153   2.952   2.138   2.427  0.3235  0.4002  0.3461
 7173TIP3    H143154   2.864   2.173   2.417  0.1913  0.2210  0.8474
 7173TIP3    H243155   2.942   2.065   2.488  0.7141 -0.0445 -0.1104
 7174TIP3   OH243156   1.530   3.521   0.737  0.5602 -0.3150 -0.4747
 7174TIP3    H143157   1.603   3.583   0.731  0.4532 -0.2276 -0.9012
 7174TIP3    H243158   1.572   3.435   0.735  0.5562 -0.3241 -2.7837
 7175TIP3   OH243159   3.522   5.879   8.828  0.3552  0.1636  0.5201
 7175TIP3    H143160   3.617   5.877   8.818  0.4032 -1.3882  1.0359
 7175TIP3    H243161   3.488   5.860   8.740  0.5518 -0.8191  0.6526
 7176TIP3   OH243162   2.134   4.824   0.148 -0.1141  0.3522 -0.5171
 7176TIP3    H143163   2.198   4.774   0.098 -0.3367 -0.5455  0.0839
 7176TIP3    H243164   2.085   4.873   0.082  1.0428  0.8916 -0.9998
 7177LIG     O143165   5.344   5.768   8.168  0.7250 -0.3856  0.5656
 7177LIG     O243166   5.712   5.611   8.394  0.4285  0.3890  0.2424
 7177LIG     N143167   5.749   5.697   8.184 -0.2386  0.5280 -0.1525
 7177LIG     N243168   5.540   5.837   7.942  0.1123  0.3713 -0.0260
 7177LIG     N343169   5.525   5.687   8.274 -0.2901  0.2758 -0.0383
 7177LIG     N443170   5.759   5.800   7.964  0.1554 -0.4359  0.1898
 7177LIG     C143171   5.560   5.785   8.063  0.3633  0.3482  0.5039
 7177LIG     C243172   5.696   5.764   8.074  0.1094  0.2302  0.1412
 7177LIG     C343173   5.464   5.747   8.165  0.3379  0.4642 -0.0199
 7177LIG     C443174   5.664   5.659   8.290 -0.0030 -0.3113  0.1856
 7177LIG     C543175   5.666   5.856   7.887 -0.1331 -0.3098 -0.3507
 7177LIG     C643176   5.890   5.665   8.206  0.4851 -0.2068  0.1627
 7177LIG     C743177   5.407   5.861   7.884  0.1630 -0.6842  0.2294
 7177LIG     C843178   5.436   5.667   8.389 -0.2058 -0.1635 -0.7186
 7177LIG     H143179   5.691   5.892   7.787 -1.8733 -1.4611 -1.2347
 7177LIG     H243180   5.929   5.699   8.304 -0.2466 -1.2999  0.8599
 7177LIG     H343181   5.959   5.723   8.142  1.3607 -0.4320  0.8822
 7177LIG     H443182   5.909   5.556   8.206 -1.8314 -0.7035  2.0795
 7177LIG     H543183   5.417   5.928   7.796  1.9556 -0.9247  0.2203
 7177LIG     H643184   5.354   5.922   7.960 -1.6300 -1.1138 -0.6145
 7177LIG     H743185   5.351   5.770   7.853  2.0946 -1.1319 -2.3906
 7177LIG     H843186   5.371   5.754   8.412 -0.7857 -0.3086 -1.7439
 7177LIG     H943187   5.498   5.640   8.477  3.1629  0.9166 -2.5584
 7177LIG    H1043188   5.371   5.580   8.366  0.8423 -0.5415 -2.4379
   6.83406   6.83406   8.86121
