Title
82341
    1SAPS     N    1   0.257   0.564  11.316  0.6402  0.8598  0.5994
    1SAPS   HN1    2   0.290   0.503  11.393  1.5599 -1.2443 -1.3457
    1SAPS   HN2    3   0.331   0.635  11.299  0.5491  0.4829 -1.7579
    1SAPS   HN3    4   0.166   0.608  11.340  0.9525  3.4431 -2.2415
    1SAPS   C12    5   0.224   0.473  11.207 -0.5715 -0.3486 -0.5127
    1SAPS  H12A    6   0.167   0.394  11.251 -1.7356  1.4848  1.4766
    1SAPS   C13    7   0.125   0.527  11.095  0.0041  0.0658  0.1133
    1SAPS  O13A    8   0.072   0.639  11.110 -0.8087  0.6347 -0.2682
    1SAPS  O13B    9   0.086   0.441  11.011 -0.1903  0.1228 -0.0797
    1SAPS   C11   10   0.358   0.428  11.139 -0.3994  0.5820 -0.3744
    1SAPS  H11A   11   0.410   0.515  11.094 -1.8421 -1.2231 -6.6339
    1SAPS  H11B   12   0.337   0.360  11.053 -1.0261  0.5257 -0.1768
    1SAPS     P   13   0.434   0.210  11.275 -0.0081  0.2519  0.2019
    1SAPS   O13   14   0.570   0.169  11.312 -0.3723  0.5241 -0.4915
    1SAPS   O14   15   0.325   0.195  11.375  0.3413  0.2381  0.7135
    1SAPS   O12   16   0.445   0.368  11.239  0.0081  0.2815 -0.6285
    1SAPS   O11   17   0.388   0.139  11.139  0.3763  0.4162 -0.7471
    1SAPS    C1   18   0.479   0.064  11.061  0.4745 -0.8267 -0.1530
    1SAPS    HA   19   0.567   0.015  11.109  0.9525 -1.1397 -1.3211
    1SAPS    HB   20   0.423  -0.017  11.009 -1.5422  0.4215 -0.0533
    1SAPS    C2   21   0.527   0.156  10.943 -0.4476  0.5530  0.0799
    1SAPS    HS   22   0.564   0.251  10.986 -1.8740  0.8884  0.5923
    1SAPS   O21   23   0.421   0.185  10.844  0.4812  0.0005  0.2648
    1SAPS   C21   24   0.438   0.298  10.783  0.3482 -0.1943  0.6082
    1SAPS   O22   25   0.517   0.386  10.812  0.1748  0.2978 -0.3358
    1SAPS   C22   26   0.349   0.291  10.660 -0.4539 -0.5627 -0.4612
    1SAPS   H2R   27   0.243   0.277  10.689 -0.4101  0.5967  0.3264
    1SAPS   H2S   28   0.370   0.389  10.611  2.3356 -0.2728  1.1105
    1SAPS    C3   29   0.644   0.080  10.872 -1.1778  0.2058 -0.3160
    1SAPS    HX   30   0.723   0.073  10.950 -1.6044  1.5833  0.2736
    1SAPS    HY   31   0.694   0.144  10.795  2.9914 -0.7629  1.3336
    1SAPS   O31   32   0.611  -0.051  10.823  0.1212 -0.3637 -0.7926
    1SAPS   C31   33   0.685  -0.094  10.720  0.6941  0.5167  0.5564
    1SAPS   O32   34   0.784  -0.032  10.679  0.3168 -0.1883  0.0642
    1SAPS   C32   35   0.616  -0.219  10.655 -0.6348  0.1352  0.1509
    1SAPS   H2X   36   0.509  -0.197  10.634  0.3197  1.8549 -4.1050
    1SAPS   H2Y   37   0.624  -0.305  10.725 -1.1702  0.2214  0.3212
    1SAPS   C23   38   0.384   0.161  10.574 -0.3703  0.2170 -0.0623
    1SAPS   H3R   39   0.315   0.163  10.487 -0.8810  0.2657  0.3349
    1SAPS   H3S   40   0.371   0.072  10.640 -0.1808 -0.7538 -1.3028
    1SAPS   C24   41   0.527   0.162  10.523 -0.2355  0.6110  0.6159
    1SAPS   H4R   42   0.525   0.070  10.460 -1.2984  1.4213 -0.6065
    1SAPS   H4S   43   0.592   0.142  10.611 -0.5999 -0.2066  0.7123
    1SAPS   C25   44   0.565   0.273  10.423  0.6723  0.0220  0.0400
    1SAPS   H5R   45   0.623   0.356  10.468  0.3410 -0.4078  1.3252
    1SAPS   C26   46   0.530   0.280  10.294  0.0057  0.0995  0.1462
    1SAPS   H6R   47   0.544   0.375  10.242  2.9598 -0.0630  0.4686
    1SAPS   C27   48   0.450   0.170  10.228  1.1672  0.4481  0.3445
    1SAPS   H7R   49   0.384   0.107  10.290 -1.3801  1.2199 -1.4281
    1SAPS   H7S   50   0.513   0.088  10.187  1.2140  0.4888  0.3328
    1SAPS   C28   51   0.363   0.228  10.114 -0.0521 -0.0419 -0.9175
    1SAPS   H8R   52   0.267   0.271  10.146  0.4443 -0.2889  0.9985
    1SAPS   C29   53   0.395   0.225   9.982 -0.3975  0.6295 -0.3132
    1SAPS   H9R   54   0.327   0.267   9.908 -2.4725 -1.2326  0.4261
    1SAPS  C210   55   0.521   0.159   9.920  0.5386  0.4467  0.1137
    1SAPS  H10R   56   0.489   0.073   9.858 -0.6508 -0.6930  2.2180
    1SAPS  H10S   57   0.585   0.113   9.998 -0.1550 -1.2786 -0.2866
    1SAPS  C211   58   0.602   0.264   9.844  0.1213 -0.0075  0.9249
    1SAPS  H11R   59   0.612   0.357   9.902  0.2709  1.4676 -1.3010
    1SAPS  C212   60   0.647   0.251   9.724 -0.0063  0.0053  0.7745
    1SAPS  H12R   61   0.704   0.336   9.682  0.7371 -0.8240  0.0773
    1SAPS  C213   62   0.643   0.136   9.625  0.2184  0.3696 -0.0297
    1SAPS  H13R   63   0.608   0.047   9.681  1.0167  0.6333  0.9254
    1SAPS  H13S   64   0.734   0.082   9.592 -0.2697 -0.4162 -0.1022
    1SAPS  C214   65   0.546   0.171   9.513 -0.9053  0.3379  0.3717
    1SAPS  H14R   66   0.455   0.216   9.554 -0.1856  0.5318  1.8359
    1SAPS  C215   67   0.554   0.160   9.375 -0.4127 -0.0422  0.5804
    1SAPS  H15R   68   0.482   0.212   9.311  0.6943  0.8431  0.0122
    1SAPS  C216   69   0.669   0.102   9.299  0.3051 -0.5366  0.6897
    1SAPS  H16R   70   0.629   0.080   9.198  1.6790 -1.9129  0.4015
    1SAPS  H16S   71   0.710   0.008   9.343 -2.1649 -1.5729  0.9605
    1SAPS  C217   72   0.772   0.212   9.289  0.0811 -1.0639  0.2751
    1SAPS  H17R   73   0.808   0.232   9.392 -1.5407 -1.6317  0.9777
    1SAPS  H17S   74   0.738   0.308   9.245  1.7324 -1.1909 -1.4179
    1SAPS  C218   75   0.907   0.179   9.217 -0.1581 -0.0561  0.7053
    1SAPS  H18R   76   0.889   0.160   9.109 -1.0443  0.3847  0.7738
    1SAPS  H18S   77   0.950   0.091   9.271 -0.6890  0.9491  2.8436
    1SAPS  C219   78   0.997   0.304   9.228 -0.1033  0.0499 -0.2112
    1SAPS  H19R   79   1.042   0.305   9.329  0.3827  0.5564 -0.4240
    1SAPS  H19S   80   0.933   0.394   9.211  0.1174  0.1069 -0.7615
    1SAPS  C220   81   1.116   0.317   9.135 -0.2037 -0.2226  0.3307
    1SAPS  H20R   82   1.094   0.342   9.029  0.6870 -1.2484 -0.1183
    1SAPS  H20S   83   1.176   0.224   9.140 -0.4447 -0.3862  0.2196
    1SAPS  H20T   84   1.189   0.395   9.166  1.0468 -0.8986 -0.8261
    1SAPS   C33   85   0.683  -0.269  10.527  0.3755  0.0993 -0.1113
    1SAPS   H3X   86   0.679  -0.380  10.534  1.8400  0.0375 -0.0344
    1SAPS   H3Y   87   0.790  -0.243  10.513  0.5778 -0.9103 -0.5122
    1SAPS   C34   88   0.616  -0.212  10.394 -0.6099 -0.3183  0.3442
    1SAPS   H4X   89   0.639  -0.103  10.387 -3.1748  0.3260  0.7710
    1SAPS   H4Y   90   0.508  -0.226  10.417 -0.2021 -0.9169  2.0744
    1SAPS   C35   91   0.662  -0.289  10.266 -0.2607  0.4057  0.4715
    1SAPS   H5X   92   0.639  -0.396  10.288 -2.7806  0.9701  0.8899
    1SAPS   H5Y   93   0.773  -0.285  10.268 -0.0771 -1.9558  3.5218
    1SAPS   C36   94   0.598  -0.235  10.143 -0.1441  0.1383  0.2072
    1SAPS   H6X   95   0.646  -0.137  10.122 -0.2898  0.7506  2.4474
    1SAPS   H6Y   96   0.490  -0.214  10.155 -0.2164 -0.2118  0.1817
    1SAPS   C37   97   0.633  -0.332  10.025  0.2928  0.0313  0.0717
    1SAPS   H7X   98   0.580  -0.427  10.050  1.8689 -0.1172  3.3411
    1SAPS   H7Y   99   0.741  -0.354  10.016  0.1754 -0.3961 -0.3905
    1SAPS   C38  100   0.595  -0.255   9.900  0.3241  0.2269  0.1341
    1SAPS   H8X  101   0.649  -0.159   9.891  1.4588 -0.5432 -2.4885
    1SAPS   H8Y  102   0.490  -0.220   9.910  0.5365  0.5833  1.1449
    1SAPS   C39  103   0.619  -0.338   9.771  0.0777 -0.3243  0.3061
    1SAPS   H9X  104   0.564  -0.434   9.786 -1.4358  0.3777 -0.4477
    1SAPS   H9Y  105   0.724  -0.369   9.758  1.4775  3.6142  0.8239
    1SAPS  C310  106   0.582  -0.275   9.632 -0.1149  1.0555  0.2598
    1SAPS  H10X  107   0.647  -0.194   9.593  1.5244 -0.3593 -0.0644
    1SAPS  H10Y  108   0.482  -0.227   9.639 -0.4566  0.1537  2.7350
    1SAPS  C311  109   0.567  -0.389   9.524 -0.2077 -0.0535  0.5631
    1SAPS  H11X  110   0.483  -0.455   9.553 -0.2120 -1.0696 -1.5812
    1SAPS  H11Y  111   0.667  -0.438   9.519  0.0986  0.6104 -0.1554
    1SAPS  C312  112   0.525  -0.331   9.393 -0.0333  0.2234 -0.1927
    1SAPS  H12X  113   0.609  -0.282   9.339 -0.2092 -0.8986 -1.5647
    1SAPS  H12Y  114   0.453  -0.251   9.419  0.5406  0.7543 -0.2274
    1SAPS  C313  115   0.460  -0.431   9.295 -0.1506  0.7112  0.5033
    1SAPS  H13X  116   0.375  -0.470   9.354 -0.7587  0.7658 -0.3185
    1SAPS  H13Y  117   0.527  -0.513   9.263 -0.0405  1.4295 -1.2659
    1SAPS  C314  118   0.415  -0.359   9.166 -0.2444 -0.3319  0.4434
    1SAPS  H14X  119   0.510  -0.317   9.125 -0.7151 -1.8326 -2.4179
    1SAPS  H14Y  120   0.330  -0.290   9.185  0.0468  0.1312  0.0821
    1SAPS  C315  121   0.360  -0.454   9.061 -0.3010 -0.7223  0.6065
    1SAPS  H15X  122   0.298  -0.539   9.097  0.3119 -1.1689  0.6203
    1SAPS  H15Y  123   0.454  -0.501   9.024  0.5339  0.4493  1.1732
    1SAPS  C316  124   0.299  -0.379   8.940  0.3697 -0.4989 -0.2269
    1SAPS  H16X  125   0.372  -0.304   8.903  0.6999 -0.2691  0.8726
    1SAPS  H16Y  126   0.208  -0.335   8.986  1.9381  0.3798  2.2598
    1SAPS  C317  127   0.266  -0.463   8.819  0.2215 -0.1789  0.2077
    1SAPS  H17X  128   0.236  -0.569   8.834 -0.4918 -0.4151 -2.3621
    1SAPS  H17Y  129   0.353  -0.461   8.750 -1.5280  0.7713 -2.1380
    1SAPS  C318  130   0.153  -0.403   8.738  0.1947 -0.0752 -0.1578
    1SAPS  H18X  131   0.058  -0.396   8.794  0.8071  0.9033  0.7895
    1SAPS  H18Y  132   0.136  -0.458   8.643  1.2737  1.3223 -1.1999
    1SAPS  H18Z  133   0.177  -0.298   8.713 -1.5264  0.6612  1.1271
    2SAPS     N  134   5.173   6.028  11.252  0.1770  0.1195 -0.4305
    2SAPS   HN1  135   5.110   6.102  11.290  2.7969  2.4306 -0.2827
    2SAPS   HN2  136   5.191   5.948  11.317 -0.2562 -0.3928 -0.9322
    2SAPS   HN3  137   5.263   6.066  11.217 -0.4743  1.0199 -1.1796
    2SAPS   C12  138   5.107   5.979  11.130  0.3455 -0.3803 -0.3496
    2SAPS  H12A  139   5.157   5.887  11.102  1.8522 -0.0133  1.0352
    2SAPS   C13  140   4.956   5.959  11.139  0.7504  0.1683  0.5846
    2SAPS  O13A  141   4.892   5.974  11.245 -0.2145 -0.5909  0.3087
    2SAPS  O13B  142   4.887   5.952  11.030  0.0358  0.3088  0.0551
    2SAPS   C11  143   5.149   6.084  11.018  0.5253  0.4365  0.4440
    2SAPS  H11A  144   5.118   6.185  11.052 -0.7767  0.6805 -1.3164
    2SAPS  H11B  145   5.098   6.063  10.922 -0.4539  0.0245  1.0293
    2SAPS     P  146   5.358   5.990  10.882  0.1500  0.3341 -0.1254
    2SAPS   O13  147   5.472   6.054  10.818 -0.8100  0.4790 -0.0019
    2SAPS   O14  148   5.384   5.856  10.944  0.6148  0.0479  0.0232
    2SAPS   O12  149   5.289   6.084  10.997 -0.0269 -0.2311 -0.1915
    2SAPS   O11  150   5.259   5.988  10.768  0.5737  0.1006  0.2625
    2SAPS    C1  151   5.181   5.872  10.729 -0.9991  0.4317  0.8632
    2SAPS    HA  152   5.204   5.782  10.790  0.6745  1.4708  1.8435
    2SAPS    HB  153   5.071   5.887  10.741 -0.7807  1.2080  2.0655
    2SAPS    C2  154   5.206   5.826  10.578  0.1206 -0.4562 -0.3600
    2SAPS    HS  155   5.184   5.718  10.562  0.0820 -0.3496 -1.0942
    2SAPS   O21  156   5.336   5.857  10.540 -0.4939 -0.1825 -0.0661
    2SAPS   C21  157   5.431   5.764  10.584  1.2783 -0.2256  0.0679
    2SAPS   O22  158   5.398   5.659  10.632  0.1879  0.1472 -0.1113
    2SAPS   C22  159   5.569   5.804  10.571  0.2176  0.6421  0.0386
    2SAPS   H2R  160   5.566   5.902  10.623 -2.3018  0.5837  0.1225
    2SAPS   H2S  161   5.642   5.738  10.623 -0.6444 -0.5595 -0.2294
    2SAPS    C3  162   5.115   5.912  10.489 -0.1577 -0.0040 -0.1321
    2SAPS    HX  163   5.149   6.017  10.502 -2.3235  0.5082  2.3066
    2SAPS    HY  164   5.008   5.912  10.519 -0.5563 -1.2387 -1.4658
    2SAPS   O31  165   5.126   5.866  10.353  0.8787  0.0677  1.0996
    2SAPS   C31  166   5.015   5.798  10.302 -0.1450 -0.0653  0.7839
    2SAPS   O32  167   4.928   5.761  10.374 -0.1467 -0.1239 -0.1743
    2SAPS   C32  168   5.019   5.789  10.157 -0.1437  0.5516  0.3273
    2SAPS   H2X  169   5.086   5.704  10.130 -2.4832 -2.0074  2.0368
    2SAPS   H2Y  170   5.062   5.879  10.109  1.2325 -0.9605 -1.4331
    2SAPS   C23  171   5.611   5.801  10.421  0.0314  0.6145  0.4280
    2SAPS   H3R  172   5.714   5.840  10.410 -0.9847  3.2408 -0.4120
    2SAPS   H3S  173   5.547   5.864  10.356  0.2078 -1.4405 -1.8854
    2SAPS   C24  174   5.621   5.656  10.368  0.2011  0.4934  0.4627
    2SAPS   H4R  175   5.688   5.596  10.433 -0.5500 -1.7961 -0.7430
    2SAPS   H4S  176   5.670   5.667  10.269  0.3380  1.8138  0.6580
    2SAPS   C25  177   5.503   5.570  10.335 -0.3634 -0.0082 -0.0641
    2SAPS   H5R  178   5.480   5.498  10.415  0.1675 -1.0118 -0.8019
    2SAPS   C26  179   5.436   5.561  10.222  0.0927 -0.2568 -0.0352
    2SAPS   H6R  180   5.344   5.501  10.209  0.0646 -0.8466  2.4317
    2SAPS   C27  181   5.486   5.627  10.094 -0.1671 -0.2687 -0.5937
    2SAPS   H7R  182   5.593   5.611  10.070  0.3996  0.5798  1.1243
    2SAPS   H7S  183   5.494   5.737  10.107  0.1582 -0.6069  3.6306
    2SAPS   C28  184   5.401   5.597   9.974  0.4247  0.2126  0.4552
    2SAPS   H8R  185   5.296   5.628   9.983 -0.6091 -3.3322  3.1205
    2SAPS   C29  186   5.436   5.535   9.860  0.2091  0.0333  0.0413
    2SAPS   H9R  187   5.359   5.515   9.784 -0.2685 -2.6672  1.1512
    2SAPS  C210  188   5.574   5.481   9.822 -0.5847 -0.3950 -0.5428
    2SAPS  H10R  189   5.571   5.371   9.802 -1.3460 -0.7135  1.1335
    2SAPS  H10S  190   5.647   5.482   9.906  1.7974  0.9772 -2.5154
    2SAPS  C211  191   5.633   5.564   9.707 -0.5442 -0.8747  0.1552
    2SAPS  H11R  192   5.649   5.672   9.719 -1.3175 -0.5902 -1.1305
    2SAPS  C212  193   5.652   5.524   9.580 -0.5528  0.2611  0.1996
    2SAPS  H12R  194   5.672   5.599   9.502 -0.8666  0.0771 -0.0602
    2SAPS  C213  195   5.628   5.389   9.527  0.0295  0.1490  0.0393
    2SAPS  H13R  196   5.550   5.334   9.585 -1.1608  0.9330 -0.7678
    2SAPS  H13S  197   5.724   5.334   9.526  0.3810  0.7568  0.3188
    2SAPS  C214  198   5.577   5.410   9.386 -0.3870  0.3164 -0.2858
    2SAPS  H14R  199   5.481   5.460   9.369 -0.0370  0.1605 -3.2916
    2SAPS  C215  200   5.643   5.375   9.273 -0.0031 -0.6246 -0.5094
    2SAPS  H15R  201   5.586   5.389   9.180 -1.0683  1.3877  0.3748
    2SAPS  C216  202   5.773   5.297   9.259  0.5790 -0.8464 -0.0166
    2SAPS  H16R  203   5.794   5.277   9.152  2.1239 -1.5504  0.3921
    2SAPS  H16S  204   5.754   5.200   9.311 -3.6238  1.0921  2.6039
    2SAPS  C217  205   5.902   5.355   9.330  0.2007 -0.4223  0.9210
    2SAPS  H17R  206   5.910   5.316   9.433  0.9150 -1.9417  0.3129
    2SAPS  H17S  207   5.888   5.465   9.319  0.1762 -0.5722 -1.0250
    2SAPS  C218  208   6.023   5.328   9.251 -0.2815  0.2016 -0.1626
    2SAPS  H18R  209   6.033   5.221   9.223 -0.7626  0.1137  0.0057
    2SAPS  H18S  210   6.119   5.334   9.308  0.8748 -2.0571 -1.6903
    2SAPS  C219  211   6.038   5.406   9.124  0.1719  0.4177  0.7723
    2SAPS  H19R  212   6.036   5.517   9.132 -1.9434  0.3899  1.2861
    2SAPS  H19S  213   5.952   5.388   9.056 -0.9813 -0.0139  2.2813
    2SAPS  C220  214   6.172   5.380   9.048 -0.3793  0.7825 -0.4367
    2SAPS  H20R  215   6.169   5.427   8.947  0.1948  1.1092 -0.3076
    2SAPS  H20S  216   6.183   5.271   9.031  1.3052  0.7779  0.5280
    2SAPS  H20T  217   6.256   5.414   9.111  1.4159  1.3806 -2.9840
    2SAPS   C33  218   4.877   5.755  10.093 -0.1215 -0.6721 -0.5160
    2SAPS   H3X  219   4.794   5.819  10.130 -1.3928 -2.4357 -0.2115
    2SAPS   H3Y  220   4.850   5.650  10.118 -0.3733 -0.0845  1.8640
    2SAPS   C34  221   4.870   5.762   9.942  0.1452 -0.9294 -0.4529
    2SAPS   H4X  222   4.890   5.863   9.900  0.8809 -1.5373 -1.5847
    2SAPS   H4Y  223   4.770   5.726   9.911  0.6101  0.2019 -3.5156
    2SAPS   C35  224   4.974   5.679   9.872  0.2105 -0.1468  0.5928
    2SAPS   H5X  225   4.963   5.573   9.905 -0.3319 -0.4792 -0.6063
    2SAPS   H5Y  226   5.079   5.704   9.898  0.2098  0.3228  0.1538
    2SAPS   C36  227   4.961   5.687   9.719 -0.4149 -0.0765  0.0415
    2SAPS   H6X  228   4.979   5.790   9.681  0.1091  0.2877  1.2270
    2SAPS   H6Y  229   4.863   5.646   9.687 -0.7993 -1.5328  2.7434
    2SAPS   C37  230   5.070   5.610   9.648 -0.1433  0.2786  0.2449
    2SAPS   H7X  231   5.062   5.501   9.671 -2.1610  0.6913  1.7642
    2SAPS   H7Y  232   5.173   5.632   9.684  0.2701  0.6840 -1.1435
    2SAPS   C38  233   5.064   5.631   9.500 -0.1967  0.6368  0.6586
    2SAPS   H8X  234   5.072   5.738   9.474 -1.1963  1.1330  2.2773
    2SAPS   H8Y  235   4.960   5.606   9.470  0.5416  0.3532 -1.9357
    2SAPS   C39  236   5.153   5.531   9.423 -0.6222 -0.1087 -0.5941
    2SAPS   H9X  237   5.146   5.427   9.460  0.5311  0.3370  0.9849
    2SAPS   H9Y  238   5.253   5.576   9.438 -1.0873  1.0576 -0.8243
    2SAPS  C310  239   5.106   5.528   9.276  0.3114  0.1592 -0.4941
    2SAPS  H10X  240   5.087   5.628   9.232 -2.1142 -0.3932 -0.8375
    2SAPS  H10Y  241   5.007   5.479   9.264 -0.4849  2.1598 -3.3702
    2SAPS  C311  242   5.210   5.464   9.185  0.5208  0.5422 -0.0062
    2SAPS  H11X  243   5.207   5.353   9.184  0.8380  0.5382 -0.4325
    2SAPS  H11Y  244   5.314   5.481   9.220 -0.0945 -0.6046  2.6692
    2SAPS  C312  245   5.221   5.515   9.044  0.3753 -0.3778  0.3625
    2SAPS  H12X  246   5.326   5.507   9.009 -0.3463  0.8178 -2.4369
    2SAPS  H12Y  247   5.207   5.625   9.030 -1.8155 -0.6639 -0.1008
    2SAPS  C313  248   5.127   5.439   8.944  0.8790 -0.2939  0.0159
    2SAPS  H13X  249   5.123   5.329   8.959  3.3149 -0.7933 -2.1812
    2SAPS  H13Y  250   5.163   5.454   8.840  1.0210 -0.1117  0.0909
    2SAPS  C314  251   4.982   5.508   8.947 -0.2932  0.4220  0.3248
    2SAPS  H14X  252   4.997   5.618   8.935 -0.4444  0.2696 -1.4975
    2SAPS  H14Y  253   4.947   5.486   9.050 -0.3556  1.9860  0.6608
    2SAPS  C315  254   4.879   5.464   8.845  0.1442  0.4756 -0.1836
    2SAPS  H15X  255   4.790   5.528   8.860 -0.6908 -0.5491 -0.6307
    2SAPS  H15Y  256   4.850   5.358   8.866 -0.6309  0.7927  0.4291
    2SAPS  C316  257   4.928   5.450   8.696 -0.5532 -0.6344  0.3771
    2SAPS  H16X  258   4.838   5.428   8.636 -0.6855 -0.5176  0.5325
    2SAPS  H16Y  259   5.009   5.374   8.687 -0.8547 -0.8265 -0.8401
    2SAPS  C317  260   4.979   5.592   8.644 -0.5245 -0.0224  0.4549
    2SAPS  H17X  261   5.045   5.638   8.720 -2.0864  2.6093  0.3686
    2SAPS  H17Y  262   4.890   5.658   8.632 -1.3905 -1.2003  0.2421
    2SAPS  C318  263   5.053   5.563   8.513  0.6132 -0.4186 -0.6286
    2SAPS  H18X  264   4.996   5.501   8.441 -0.4265  0.1515 -0.3044
    2SAPS  H18Y  265   5.145   5.506   8.540  0.0384  0.1262  3.0745
    2SAPS  H18Z  266   5.094   5.658   8.471  0.8888 -0.2516  0.0029
    3SAPS     N  267   5.986   0.731  11.233 -0.1288  0.1251 -0.5872
    3SAPS   HN1  268   5.901   0.673  11.215 -1.3179  1.3319  0.7864
    3SAPS   HN2  269   6.071   0.696  11.184  0.5722  0.9009  0.0607
    3SAPS   HN3  270   6.012   0.713  11.332  0.9372 -1.4851 -1.1211
    3SAPS   C12  271   5.963   0.873  11.189  0.7634 -0.3214  0.2502
    3SAPS  H12A  272   5.863   0.899  11.222  0.7860  0.7909 -0.5182
    3SAPS   C13  273   6.050   0.981  11.253 -0.1156  0.4392 -0.9618
    3SAPS  O13A  274   6.115   0.949  11.349 -0.2665 -0.1561 -0.2110
    3SAPS  O13B  275   6.007   1.101  11.244 -0.4945 -0.0859  0.2549
    3SAPS   C11  276   5.974   0.880  11.034 -0.2605 -0.6414  0.3777
    3SAPS  H11A  277   6.083   0.859  11.018  0.2252  2.3273 -0.8133
    3SAPS  H11B  278   5.958   0.986  11.005  1.8109  0.3940  2.6040
    3SAPS     P  279   5.759   0.845  10.887 -0.1728 -0.2736  0.4454
    3SAPS   O13  280   5.699   0.736  10.806 -0.0070  0.1536  0.3948
    3SAPS   O14  281   5.679   0.912  10.991  0.2484 -0.2309  0.0074
    3SAPS   O12  282   5.891   0.796  10.956  0.2848  0.0667 -0.4672
    3SAPS   O11  283   5.810   0.953  10.789 -0.5210 -0.2885 -0.3105
    3SAPS    C1  284   5.939   0.942  10.721  0.3675 -0.5740  0.4251
    3SAPS    HA  285   6.008   1.027  10.738 -1.1123  0.8325 -0.3505
    3SAPS    HB  286   5.999   0.855  10.755 -0.8131 -0.9549  1.6466
    3SAPS    C2  287   5.925   0.936  10.563 -0.6069 -0.5006 -0.8388
    3SAPS    HS  288   6.022   0.951  10.511  1.0905  0.1539  2.2646
    3SAPS   O21  289   5.822   1.024  10.515  0.4958  0.0973  0.0629
    3SAPS   C21  290   5.842   1.150  10.531  0.7074 -0.4839 -0.1254
    3SAPS   O22  291   5.929   1.210  10.586  0.4447 -0.3059 -0.6378
    3SAPS   C22  292   5.736   1.238  10.455 -0.1583 -0.3419 -0.4846
    3SAPS   H2R  293   5.639   1.188  10.473  0.3229 -1.6854 -1.4363
    3SAPS   H2S  294   5.755   1.341  10.491  1.4848 -0.1534 -1.7297
    3SAPS    C3  295   5.880   0.788  10.521  0.0876 -0.5684  0.2055
    3SAPS    HX  296   5.805   0.752  10.595 -0.8970 -1.4441 -1.1863
    3SAPS    HY  297   5.967   0.720  10.536  1.3924  0.8978 -0.4194
    3SAPS   O31  298   5.836   0.784  10.386  0.2214 -0.3158  0.4310
    3SAPS   C31  299   5.934   0.811  10.302 -0.6079 -0.2106  0.8380
    3SAPS   O32  300   6.054   0.816  10.328  0.8242  0.4169  0.2177
    3SAPS   C32  301   5.887   0.856  10.164  0.3195 -0.2904  0.7746
    3SAPS   H2X  302   5.863   0.964  10.161 -1.6105 -0.7051 -1.0072
    3SAPS   H2Y  303   5.790   0.805  10.144  0.2377  0.3866 -0.7011
    3SAPS   C23  304   5.755   1.236  10.305  0.3355 -0.0236  0.9745
    3SAPS   H3R  305   5.755   1.129  10.274 -1.7422  0.7019 -1.9687
    3SAPS   H3S  306   5.851   1.279  10.268  0.0921  0.0404  0.4062
    3SAPS   C24  307   5.632   1.302  10.233 -0.1000  0.0006  0.6580
    3SAPS   H4R  308   5.536   1.254  10.263  0.3445 -0.7517  0.9074
    3SAPS   H4S  309   5.639   1.269  10.127  0.1022 -0.8154  0.9183
    3SAPS   C25  310   5.614   1.446  10.256 -0.1861  0.1662  0.3763
    3SAPS   H5R  311   5.559   1.468  10.349  0.0474  1.0402  0.3168
    3SAPS   C26  312   5.655   1.554  10.175  0.6056 -0.1161  0.2022
    3SAPS   H6R  313   5.649   1.657  10.212 -0.3391  0.0015 -0.2473
    3SAPS   C27  314   5.719   1.529  10.039 -0.4433 -0.1490  0.5359
    3SAPS   H7R  315   5.644   1.477   9.975  0.7918 -0.4437 -0.7118
    3SAPS   H7S  316   5.805   1.460  10.057 -1.5099 -1.7857 -0.3870
    3SAPS   C28  317   5.774   1.657   9.986  0.2285 -0.0828  0.1759
    3SAPS   H8R  318   5.837   1.714  10.057  0.5384  0.0659 -0.2157
    3SAPS   C29  319   5.743   1.720   9.867 -0.0038  0.2169 -0.4568
    3SAPS   H9R  320   5.783   1.820   9.844 -0.4560  0.1467 -1.6505
    3SAPS  C210  321   5.647   1.665   9.765 -0.1659  0.5454  0.7967
    3SAPS  H10R  322   5.613   1.748   9.699 -1.9835  0.4823  1.5968
    3SAPS  H10S  323   5.556   1.636   9.821 -0.0547  2.0392  1.8031
    3SAPS  C211  324   5.699   1.541   9.691 -0.3113  0.3672  0.2315
    3SAPS  H11R  325   5.771   1.480   9.748 -0.7761 -0.9109 -0.5002
    3SAPS  C212  326   5.675   1.509   9.563  0.1705  0.5639  0.6960
    3SAPS  H12R  327   5.711   1.419   9.512 -1.2547  1.2576 -1.6793
    3SAPS  C213  328   5.592   1.589   9.473 -0.4699 -0.8192  0.1779
    3SAPS  H13R  329   5.632   1.562   9.373  0.4849 -1.7604  0.7910
    3SAPS  H13S  330   5.602   1.700   9.480 -1.8846 -0.4322 -2.5632
    3SAPS  C214  331   5.450   1.559   9.478 -0.1627 -0.2614  0.0457
    3SAPS  H14R  332   5.404   1.573   9.577  0.0496  0.7993  0.0073
    3SAPS  C215  333   5.371   1.523   9.379  0.1714 -0.0476 -0.4341
    3SAPS  H15R  334   5.263   1.522   9.402  0.4159 -0.3735  0.7673
    3SAPS  C216  335   5.412   1.501   9.235  0.1503  0.4401 -0.2303
    3SAPS  H16R  336   5.344   1.419   9.202  1.1835 -0.9077  0.8362
    3SAPS  H16S  337   5.514   1.460   9.218 -0.6042 -1.6128 -0.0992
    3SAPS  C217  338   5.392   1.621   9.136  0.3060 -0.2852  0.7684
    3SAPS  H17R  339   5.455   1.703   9.175 -0.3781 -0.0583  1.4311
    3SAPS  H17S  340   5.286   1.655   9.133  0.8401  1.3929  0.2686
    3SAPS  C218  341   5.438   1.584   8.995 -0.0638 -0.2677  0.6063
    3SAPS  H18R  342   5.377   1.495   8.968 -1.9552  0.9945  0.4817
    3SAPS  H18S  343   5.542   1.547   9.005 -0.0994 -0.2579  1.0454
    3SAPS  C219  344   5.437   1.699   8.894  0.0569  0.7076 -0.0348
    3SAPS  H19R  345   5.499   1.783   8.931 -0.0811  0.0606  1.7602
    3SAPS  H19S  346   5.331   1.731   8.892 -0.2546  0.1986  3.0701
    3SAPS  C220  347   5.477   1.676   8.751  0.4099 -0.5469 -0.2811
    3SAPS  H20R  348   5.474   1.771   8.694  1.6976 -0.9228 -0.9958
    3SAPS  H20S  349   5.411   1.606   8.695  0.9320  0.9423 -2.8603
    3SAPS  H20T  350   5.581   1.638   8.741  0.9600  0.8657 -0.1125
    3SAPS   C33  351   5.982   0.829  10.045 -0.1160 -0.0111 -0.4767
    3SAPS   H3X  352   6.023   0.726  10.048  0.2222  0.1154 -0.6009
    3SAPS   H3Y  353   6.073   0.891  10.061 -1.5130  1.4915  2.4014
    3SAPS   C34  354   5.916   0.864   9.906 -0.4310 -0.4769 -0.2748
    3SAPS   H4X  355   5.877   0.967   9.918  1.4898  0.1708  0.8357
    3SAPS   H4Y  356   5.832   0.799   9.875  0.5096 -1.8719  0.0262
    3SAPS   C35  357   6.013   0.863   9.781 -0.1881 -0.3634  0.4378
    3SAPS   H5X  358   6.036   0.759   9.750 -1.5468  0.0393 -2.2758
    3SAPS   H5Y  359   6.097   0.921   9.824 -0.6221 -0.2779  1.1917
    3SAPS   C36  360   5.950   0.942   9.661 -0.3584  0.2940 -0.3373
    3SAPS   H6X  361   5.922   1.046   9.687 -0.6800  1.4609 -4.5821
    3SAPS   H6Y  362   5.863   0.894   9.610  0.6043 -1.4915 -0.3836
    3SAPS   C37  363   6.047   0.954   9.540  0.4601  0.8849  0.3500
    3SAPS   H7X  364   5.998   1.023   9.468  1.3790  0.7298 -0.4424
    3SAPS   H7Y  365   6.044   0.864   9.476  0.2366  0.7000  0.6218
    3SAPS   C38  366   6.191   1.010   9.561 -0.2071  0.3464  0.5801
    3SAPS   H8X  367   6.233   0.938   9.635 -1.5045 -1.2304 -0.1417
    3SAPS   H8Y  368   6.177   1.109   9.607  1.2235  1.6007 -1.5071
    3SAPS   C39  369   6.287   1.010   9.442 -0.0552 -0.8816  0.2626
    3SAPS   H9X  370   6.306   0.915   9.387 -2.7137 -0.4152 -1.6082
    3SAPS   H9Y  371   6.389   1.047   9.467  0.7207 -1.9462 -1.1588
    3SAPS  C310  372   6.236   1.113   9.334 -0.2020 -1.1921 -0.5012
    3SAPS  H10X  373   6.228   1.208   9.389 -0.3839 -1.8544  0.6387
    3SAPS  H10Y  374   6.132   1.087   9.306 -1.3363  1.6949  0.6617
    3SAPS  C311  375   6.325   1.126   9.211 -0.4440  0.9508  0.8431
    3SAPS  H11X  376   6.419   1.069   9.229  0.0309  0.1986 -3.1047
    3SAPS  H11Y  377   6.357   1.231   9.198 -0.7219  0.9338 -0.0692
    3SAPS  C312  378   6.259   1.072   9.087  0.3208  0.2791 -0.0942
    3SAPS  H12X  379   6.228   0.967   9.104  1.1456  0.0633  0.0889
    3SAPS  H12Y  380   6.317   1.093   8.994 -1.6066  3.5086 -0.7282
    3SAPS  C313  381   6.128   1.156   9.052  0.2178  0.5600 -0.0056
    3SAPS  H13X  382   6.158   1.262   9.039  0.2761  0.6007  0.4264
    3SAPS  H13Y  383   6.059   1.154   9.139  2.4449 -0.8943  1.8673
    3SAPS  C314  384   6.070   1.104   8.919  0.0493  0.5579  0.5810
    3SAPS  H14X  385   6.064   0.995   8.938  2.0534  0.5909  1.6432
    3SAPS  H14Y  386   6.139   1.115   8.833  1.5865 -0.3536  1.6468
    3SAPS  C315  387   5.937   1.173   8.889 -1.0468  0.1221 -0.0176
    3SAPS  H15X  388   5.947   1.275   8.846 -1.9989  0.0553 -0.4087
    3SAPS  H15Y  389   5.889   1.189   8.988  0.1029 -2.6978  1.1262
    3SAPS  C316  390   5.843   1.087   8.802 -0.3975  0.6073 -0.4954
    3SAPS  H16X  391   5.790   1.012   8.864  2.3135 -2.4213 -1.5621
    3SAPS  H16Y  392   5.898   1.034   8.721  0.2632  1.1811 -0.4347
    3SAPS  C317  393   5.751   1.177   8.715 -0.5748  0.4033  0.0300
    3SAPS  H17X  394   5.693   1.098   8.664 -1.7640 -0.1294  2.1075
    3SAPS  H17Y  395   5.815   1.219   8.635 -1.3134  0.6552 -0.4290
    3SAPS  C318  396   5.661   1.279   8.794 -0.2161  0.1428 -0.1754
    3SAPS  H18X  397   5.599   1.333   8.718  0.2654 -0.9898 -1.4134
    3SAPS  H18Y  398   5.732   1.347   8.846  0.5804 -1.7511  1.3379
    3SAPS  H18Z  399   5.599   1.227   8.869 -2.7829  2.5351 -0.4628
    4SAPS     N  400   1.079   3.405  10.969  0.1667  0.2626  0.0040
    4SAPS   HN1  401   1.050   3.451  10.880 -0.3493 -0.2499 -0.0912
    4SAPS   HN2  402   1.177   3.376  10.953 -0.1416 -0.8834  0.1313
    4SAPS   HN3  403   1.027   3.316  10.977  0.9034 -0.2202 -0.4856
    4SAPS   C12  404   1.062   3.499  11.089  0.4771  0.1462  0.2161
    4SAPS  H12A  405   1.078   3.442  11.179 -0.4904  1.3075  1.1555
    4SAPS   C13  406   1.152   3.625  11.080  1.6028 -0.2062 -0.0987
    4SAPS  O13A  407   1.233   3.656  10.991  0.3596  0.7782 -0.5259
    4SAPS  O13B  408   1.147   3.698  11.186  0.0962  0.9861  0.4374
    4SAPS   C11  409   0.906   3.528  11.115 -0.1254  0.1163 -0.4768
    4SAPS  H11A  410   0.896   3.585  11.210  0.7181 -1.2330  0.4537
    4SAPS  H11B  411   0.854   3.433  11.140 -1.2029  0.4994 -1.1913
    4SAPS     P  412   0.720   3.682  11.018  0.2803 -0.1030 -0.0789
    4SAPS   O13  413   0.601   3.619  11.080 -0.3056  0.0062 -0.6083
    4SAPS   O14  414   0.760   3.815  11.070 -0.3574  0.7437 -0.2683
    4SAPS   O12  415   0.849   3.595  11.008  0.3853 -0.4110  0.2153
    4SAPS   O11  416   0.696   3.690  10.863  0.2236  0.2040 -0.2994
    4SAPS    C1  417   0.741   3.801  10.788  0.2832  0.2088  0.0237
    4SAPS    HA  418   0.665   3.882  10.789  0.1557  0.0868  0.2579
    4SAPS    HB  419   0.826   3.856  10.834  0.3738 -1.2119  1.6537
    4SAPS    C2  420   0.795   3.756  10.652  0.8376  0.5967 -0.4705
    4SAPS    HS  421   0.859   3.839  10.614  1.1280  1.2022  1.2419
    4SAPS   O21  422   0.679   3.742  10.566 -0.2212 -0.7186  0.0111
    4SAPS   C21  423   0.638   3.851  10.508  0.1384  0.0139  0.1667
    4SAPS   O22  424   0.688   3.961  10.512 -0.2000 -0.2371 -0.2999
    4SAPS   C22  425   0.512   3.821  10.415  0.0360  0.9310  0.6333
    4SAPS   H2R  426   0.522   3.718  10.375  0.5710  1.1393  0.2213
    4SAPS   H2S  427   0.433   3.834  10.492 -0.4164  0.8051  0.1932
    4SAPS    C3  428   0.890   3.630  10.678 -0.1110  0.0528  0.7122
    4SAPS    HX  429   0.825   3.543  10.703 -1.8155  0.3021 -2.3427
    4SAPS    HY  430   0.937   3.669  10.770 -0.1278 -1.0801  1.2132
    4SAPS   O31  431   0.978   3.608  10.562 -0.1100 -0.1461 -0.3878
    4SAPS   C31  432   1.056   3.509  10.567  0.0248 -0.1257  0.1760
    4SAPS   O32  433   1.073   3.436  10.663 -0.4249 -0.2947 -0.1029
    4SAPS   C32  434   1.129   3.482  10.432  0.0121  0.2941 -0.1333
    4SAPS   H2X  435   1.123   3.373  10.417  1.5840  0.0238  0.9710
    4SAPS   H2Y  436   1.236   3.509  10.440  0.3166 -0.7709 -0.5176
    4SAPS   C23  437   0.473   3.927  10.304  0.4758 -0.2680 -0.4751
    4SAPS   H3R  438   0.478   4.029  10.347  0.9267 -0.9656  1.1908
    4SAPS   H3S  439   0.367   3.916  10.274  0.9312 -0.2222 -2.2155
    4SAPS   C24  440   0.555   3.911  10.178  0.4734 -0.4451  0.1263
    4SAPS   H4R  441   0.522   3.812  10.142  1.4704 -0.4888 -0.6785
    4SAPS   H4S  442   0.661   3.917  10.210  0.2946  5.2220  0.7904
    4SAPS   C25  443   0.526   4.005  10.065 -0.2884  0.3119  0.5810
    4SAPS   H5R  444   0.582   4.100  10.070 -0.1695  0.4108 -1.7271
    4SAPS   C26  445   0.441   3.993   9.965  0.6027  0.8536  0.5475
    4SAPS   H6R  446   0.435   4.075   9.891  0.8657  0.3880 -0.0037
    4SAPS   C27  447   0.359   3.872   9.934  0.0909  0.3329  0.0815
    4SAPS   H7R  448   0.305   3.833  10.023 -0.2801 -2.6756 -1.3618
    4SAPS   H7S  449   0.430   3.788   9.920  1.5915  1.9180 -2.8609
    4SAPS   C28  450   0.249   3.874   9.824  0.0987  0.2048 -0.6072
    4SAPS   H8R  451   0.159   3.932   9.849  0.1590  0.6758 -1.4473
    4SAPS   C29  452   0.248   3.830   9.698 -0.8229  0.2456  0.9080
    4SAPS   H9R  453   0.162   3.863   9.638 -0.6359  2.0529  1.5677
    4SAPS  C210  454   0.362   3.761   9.620  1.0429 -0.9335  0.2108
    4SAPS  H10R  455   0.450   3.757   9.688  0.7309 -0.3826  0.6528
    4SAPS  H10S  456   0.393   3.836   9.545 -0.7278  0.5970  0.9481
    4SAPS  C211  457   0.322   3.625   9.563 -0.1072  0.1821  0.4103
    4SAPS  H11R  458   0.367   3.543   9.620  1.0215  1.0466  0.8058
    4SAPS  C212  459   0.263   3.605   9.444 -0.3824  0.0695  0.3411
    4SAPS  H12R  460   0.246   3.503   9.405 -0.8996  0.1842  0.2619
    4SAPS  C213  461   0.215   3.710   9.350  0.3782  0.4563 -0.3747
    4SAPS  H13R  462   0.195   3.806   9.403 -1.0496  0.0274 -0.0792
    4SAPS  H13S  463   0.115   3.695   9.303  0.4226 -1.4025  0.0727
    4SAPS  C214  464   0.312   3.744   9.238  0.6356 -0.5423 -0.2516
    4SAPS  H14R  465   0.387   3.820   9.262 -0.1596  0.7733 -1.7385
    4SAPS  C215  466   0.318   3.698   9.108 -0.3626  0.5996  0.1348
    4SAPS  H15R  467   0.391   3.741   9.038  1.6928 -1.4764  0.9190
    4SAPS  C216  468   0.220   3.602   9.042 -0.8088 -0.3503 -0.4584
    4SAPS  H16R  469   0.117   3.602   9.083 -1.5024  3.5492 -1.7845
    4SAPS  H16S  470   0.254   3.497   9.057 -2.9309 -1.0616 -0.3898
    4SAPS  C217  471   0.218   3.627   8.891 -0.4922  0.7911 -0.0975
    4SAPS  H17R  472   0.167   3.539   8.847  1.7804 -1.6553  1.8189
    4SAPS  H17S  473   0.320   3.609   8.851 -0.5625  0.4565 -0.1240
    4SAPS  C218  474   0.161   3.762   8.840  0.0105 -0.4268 -0.3245
    4SAPS  H18R  475   0.214   3.845   8.892 -0.5470  0.1831 -0.7283
    4SAPS  H18S  476   0.056   3.773   8.873  0.3616 -1.0934  1.1010
    4SAPS  C219  477   0.168   3.773   8.684  0.0644  0.4284 -0.1580
    4SAPS  H19R  478   0.110   3.688   8.642  0.2915 -0.4319  1.2190
    4SAPS  H19S  479   0.272   3.775   8.646 -0.4455  2.6772 -1.6056
    4SAPS  C220  480   0.096   3.906   8.653 -0.3317  0.0037 -0.3201
    4SAPS  H20R  481   0.142   3.989   8.710 -1.2016  1.1329 -1.2243
    4SAPS  H20S  482  -0.010   3.904   8.686  0.0777  0.9057  1.1270
    4SAPS  H20T  483   0.106   3.930   8.545 -1.0116 -1.2643 -0.6828
    4SAPS   C33  484   1.069   3.549  10.307 -0.4120  0.3256  0.1423
    4SAPS   H3X  485   1.156   3.551  10.237 -0.0047 -0.4974  0.6127
    4SAPS   H3Y  486   1.054   3.652  10.346  0.5163  0.4407  0.2232
    4SAPS   C34  487   0.948   3.483  10.243 -0.2579 -0.0218  0.3798
    4SAPS   H4X  488   0.922   3.393  10.302  0.9865 -0.3109  0.5181
    4SAPS   H4Y  489   0.970   3.443  10.142 -1.7673 -2.6534  1.0016
    4SAPS   C35  490   0.830   3.587  10.238  0.3489 -0.1482  0.3269
    4SAPS   H5X  491   0.834   3.640  10.336  5.0317 -2.9964  1.9948
    4SAPS   H5Y  492   0.735   3.531  10.242 -0.1588  0.7225  0.9008
    4SAPS   C36  493   0.848   3.677  10.119 -0.2891  0.0277 -0.0271
    4SAPS   H6X  494   0.954   3.702  10.095 -0.3795 -0.4248 -0.9544
    4SAPS   H6Y  495   0.794   3.770  10.148  0.1660 -0.3836  2.2722
    4SAPS   C37  496   0.776   3.618   9.996 -0.0590  0.1326  0.9430
    4SAPS   H7X  497   0.678   3.568  10.006 -1.1811  1.7543 -1.0830
    4SAPS   H7Y  498   0.844   3.538   9.961  0.4556 -0.3799  3.0115
    4SAPS   C38  499   0.773   3.725   9.883  0.3750 -0.2119  0.8230
    4SAPS   H8X  500   0.875   3.766   9.871  0.9799 -1.0761  2.6548
    4SAPS   H8Y  501   0.711   3.810   9.920  1.5350 -0.5444  3.8376
    4SAPS   C39  502   0.731   3.670   9.752  0.4102  1.2091  0.2254
    4SAPS   H9X  503   0.631   3.623   9.743  0.0363  2.0844 -0.4154
    4SAPS   H9Y  504   0.803   3.587   9.735 -0.9724  0.1235 -0.6325
    4SAPS  C310  505   0.734   3.762   9.627 -0.3813  0.2251  0.1622
    4SAPS  H10X  506   0.833   3.811   9.617 -0.1794 -0.4137 -1.2758
    4SAPS  H10Y  507   0.653   3.837   9.640 -1.3426 -0.6083 -0.8363
    4SAPS  C311  508   0.722   3.691   9.489  0.4122 -0.3550 -0.3728
    4SAPS  H11X  509   0.626   3.635   9.490  0.8398 -1.1105 -0.0038
    4SAPS  H11Y  510   0.792   3.605   9.497 -1.1069 -1.5088  1.7811
    4SAPS  C312  511   0.748   3.767   9.359 -0.5992 -0.8621  0.8692
    4SAPS  H12X  512   0.858   3.783   9.356 -0.7730  0.2462 -0.1997
    4SAPS  H12Y  513   0.698   3.866   9.363 -0.8665 -0.8574 -1.3345
    4SAPS  C313  514   0.708   3.689   9.232 -0.0121 -1.0519  0.5335
    4SAPS  H13X  515   0.598   3.673   9.233 -0.1079 -0.9150 -1.6291
    4SAPS  H13Y  516   0.749   3.585   9.231 -2.7097 -2.2422 -2.1565
    4SAPS  C314  517   0.722   3.773   9.103 -0.3958  0.1058  0.2007
    4SAPS  H14X  518   0.701   3.881   9.119 -0.8166  0.6752 -3.4706
    4SAPS  H14Y  519   0.644   3.736   9.034  1.0084  0.6825 -1.7855
    4SAPS  C315  520   0.866   3.755   9.045 -0.2475 -0.1052 -0.0744
    4SAPS  H15X  521   0.880   3.664   8.983  1.0080 -0.0064  0.0482
    4SAPS  H15Y  522   0.938   3.755   9.129  2.0881  1.2554 -1.9569
    4SAPS  C316  523   0.920   3.878   8.965  0.3854 -0.9199  0.6122
    4SAPS  H16X  524   1.028   3.868   8.942 -0.1469 -0.3816 -2.6270
    4SAPS  H16Y  525   0.910   3.965   9.033  0.0741 -0.3033 -0.2092
    4SAPS  C317  526   0.841   3.893   8.833  0.3304 -0.1705 -0.3976
    4SAPS  H17X  527   0.816   3.998   8.807 -2.5073 -0.1510  1.9239
    4SAPS  H17Y  528   0.740   3.848   8.847  0.6951 -0.4904  1.3517
    4SAPS  C318  529   0.908   3.821   8.712  0.2821  0.4249 -0.3295
    4SAPS  H18X  530   0.874   3.876   8.622 -2.4858 -2.5755 -1.3152
    4SAPS  H18Y  531   0.870   3.718   8.696  0.1209  0.2568  1.0296
    4SAPS  H18Z  532   1.018   3.813   8.727  0.1576 -1.9890 -0.3478
    5SAPS     N  533   3.974   0.396  11.201 -0.4968  0.3385  0.3531
    5SAPS   HN1  534   3.902   0.450  11.253 -1.1548 -0.3595  0.1652
    5SAPS   HN2  535   4.065   0.383  11.250 -0.1305  0.5186 -0.2536
    5SAPS   HN3  536   3.986   0.451  11.112 -0.3280  0.4053  0.4154
    5SAPS   C12  537   3.925   0.258  11.176  0.1429 -0.9684  0.0736
    5SAPS  H12A  538   3.920   0.214  11.274  0.9736 -0.5968  0.2912
    5SAPS   C13  539   3.791   0.256  11.114  0.7877 -0.1560 -0.2595
    5SAPS  O13A  540   3.728   0.363  11.102  0.5425 -0.7443  0.0226
    5SAPS  O13B  541   3.745   0.138  11.078 -0.2450 -0.2928  0.0396
    5SAPS   C11  542   4.029   0.182  11.089  0.5374  0.2329  0.0640
    5SAPS  H11A  543   3.985   0.082  11.069 -0.5278  0.7714 -0.3078
    5SAPS  H11B  544   4.123   0.155  11.143  0.5043 -3.2912 -1.3518
    5SAPS     P  545   4.210   0.250  10.918  0.3705 -0.1200  0.2896
    5SAPS   O13  546   4.285   0.326  11.018 -0.2316 -0.5898  0.0320
    5SAPS   O14  547   4.255   0.112  10.899 -0.1794 -0.6351  0.5290
    5SAPS   O12  548   4.053   0.244  10.963  0.0838  0.2960  0.2950
    5SAPS   O11  549   4.207   0.331  10.781  0.6204  1.0807  0.5635
    5SAPS    C1  550   4.116   0.415  10.716  0.3000  0.1348 -0.1504
    5SAPS    HA  551   4.012   0.390  10.743 -0.0197  0.7418 -0.7897
    5SAPS    HB  552   4.121   0.514  10.765 -0.6987  0.4144 -0.6117
    5SAPS    C2  553   4.150   0.406  10.572  0.1446 -0.1189  0.7385
    5SAPS    HS  554   4.156   0.296  10.560  0.2037 -0.1945  1.4037
    5SAPS   O21  555   4.276   0.468  10.550  0.3522  0.2232  0.0465
    5SAPS   C21  556   4.357   0.418  10.462  1.2009  0.7093 -0.4677
    5SAPS   O22  557   4.339   0.318  10.395 -0.5065 -0.1692  0.5262
    5SAPS   C22  558   4.478   0.503  10.466  0.3276 -0.2725 -0.2557
    5SAPS   H2R  559   4.450   0.606  10.496  0.9766  0.8446 -3.1467
    5SAPS   H2S  560   4.539   0.460  10.548 -2.4301  2.5415  3.6143
    5SAPS    C3  561   4.043   0.452  10.474  0.8758  1.0834 -0.2085
    5SAPS    HX  562   4.025   0.555  10.510 -1.0346  1.1741 -1.3240
    5SAPS    HY  563   3.945   0.404  10.495  0.2411  3.0271  1.6325
    5SAPS   O31  564   4.078   0.458  10.335  0.1860 -0.1843  0.8943
    5SAPS   C31  565   4.068   0.345  10.270  0.1323 -0.3955  0.0454
    5SAPS   O32  566   4.022   0.243  10.319 -0.9946  0.0072 -0.1307
    5SAPS   C32  567   4.121   0.363  10.128 -0.1516  0.1700  1.0647
    5SAPS   H2X  568   4.207   0.433  10.136  1.1508 -1.0148 -1.5387
    5SAPS   H2Y  569   4.045   0.405  10.058  0.4074  0.8441  0.8526
    5SAPS   C23  570   4.554   0.521  10.331 -0.5873  0.7782 -0.2389
    5SAPS   H3R  571   4.482   0.523  10.246 -0.5891  0.1284 -0.2534
    5SAPS   H3S  572   4.613   0.428  10.318 -0.2707  1.0139 -0.5210
    5SAPS   C24  573   4.634   0.659  10.327 -0.4379  0.1882  0.0299
    5SAPS   H4R  574   4.639   0.706  10.428 -0.7530  1.2077 -0.4194
    5SAPS   H4S  575   4.576   0.727  10.261  0.1011  0.2283 -0.4005
    5SAPS   C25  576   4.769   0.643  10.268  0.6095 -0.7206  0.1338
    5SAPS   H5R  577   4.855   0.621  10.333  1.3518 -0.1126 -0.6162
    5SAPS   C26  578   4.801   0.658  10.139  0.1429 -0.9065 -0.0875
    5SAPS   H6R  579   4.906   0.643  10.111  0.4418 -0.1901  0.6320
    5SAPS   C27  580   4.703   0.691  10.024  0.3524 -0.3576  0.3290
    5SAPS   H7R  581   4.754   0.745   9.942 -1.2044  2.2307  0.9502
    5SAPS   H7S  582   4.623   0.764  10.052  0.2819 -0.5573  0.6622
    5SAPS   C28  583   4.628   0.574   9.973 -0.4646 -0.3183  0.7489
    5SAPS   H8R  584   4.574   0.521  10.053 -1.9344 -0.1633 -0.1012
    5SAPS   C29  585   4.598   0.545   9.844 -0.3719  0.2054 -0.7300
    5SAPS   H9R  586   4.535   0.455   9.836  1.0269 -0.7823 -1.0251
    5SAPS  C210  587   4.637   0.605   9.713  0.2435  0.2561  0.5924
    5SAPS  H10R  588   4.584   0.556   9.629  2.9189 -0.1476 -0.9859
    5SAPS  H10S  589   4.744   0.591   9.686 -0.3767 -1.5216 -1.2312
    5SAPS  C211  590   4.584   0.740   9.699  0.6327 -0.4037 -0.0410
    5SAPS  H11R  591   4.482   0.758   9.736  1.3146 -0.8173  2.2235
    5SAPS  C212  592   4.635   0.849   9.638 -0.6068 -0.2033  0.3050
    5SAPS  H12R  593   4.567   0.936   9.631  0.5719  0.6943 -0.4324
    5SAPS  C213  594   4.764   0.858   9.561 -0.0530 -0.1161 -0.4129
    5SAPS  H13R  595   4.747   0.870   9.452  0.1201 -0.6314 -0.4969
    5SAPS  H13S  596   4.816   0.762   9.577 -0.3336 -0.3044 -0.6150
    5SAPS  C214  597   4.845   0.973   9.626 -0.2333  0.2056  1.5610
    5SAPS  H14R  598   4.879   0.955   9.728  0.8622 -0.1212  1.1506
    5SAPS  C215  599   4.878   1.087   9.566 -0.0589 -0.4598  0.2734
    5SAPS  H15R  600   4.937   1.164   9.618  0.1304 -1.1145  1.0451
    5SAPS  C216  601   4.842   1.135   9.423 -0.3113  1.0244 -0.2977
    5SAPS  H16R  602   4.866   1.054   9.350 -1.9059  1.6020 -1.5246
    5SAPS  H16S  603   4.907   1.221   9.398  2.0090 -0.1092  1.4676
    5SAPS  C217  604   4.698   1.190   9.407 -0.1070  0.3250  0.0398
    5SAPS  H17R  605   4.685   1.260   9.493 -1.4968 -0.4210  0.4716
    5SAPS  H17S  606   4.616   1.119   9.431 -0.3091  1.0134  1.5094
    5SAPS  C218  607   4.685   1.246   9.262  0.2222 -0.1401  0.2549
    5SAPS  H18R  608   4.773   1.312   9.250 -0.1779  0.6372  1.5088
    5SAPS  H18S  609   4.704   1.153   9.203 -0.2359  0.4155 -0.8012
    5SAPS  C219  610   4.569   1.337   9.238  0.0791 -0.1845  0.6627
    5SAPS  H19R  611   4.475   1.293   9.276  0.2649 -0.2779  1.0140
    5SAPS  H19S  612   4.561   1.362   9.130  1.7622 -0.7440  0.3790
    5SAPS  C220  613   4.576   1.459   9.330 -0.5351 -0.2701  0.2099
    5SAPS  H20R  614   4.558   1.441   9.438  0.0722 -3.1695 -0.0803
    5SAPS  H20S  615   4.503   1.531   9.286 -0.8424 -0.3087  0.6505
    5SAPS  H20T  616   4.677   1.504   9.335 -1.0615  0.8026  1.5377
    5SAPS   C33  617   4.198   0.232  10.075  0.3836  0.1752  0.5084
    5SAPS   H3X  618   4.124   0.151  10.057 -0.4375  0.6690  1.5748
    5SAPS   H3Y  619   4.258   0.193  10.160  0.4288 -1.0073 -0.0400
    5SAPS   C34  620   4.281   0.242   9.948  0.6198 -0.3027 -0.0422
    5SAPS   H4X  621   4.361   0.166   9.960  0.4441 -0.3105  1.1972
    5SAPS   H4Y  622   4.331   0.341   9.952  1.8746 -0.8977 -0.4829
    5SAPS   C35  623   4.203   0.217   9.816 -0.4694 -0.3321 -0.0471
    5SAPS   H5X  624   4.111   0.278   9.821 -0.1010  0.2513 -0.3353
    5SAPS   H5Y  625   4.178   0.109   9.819 -2.2731 -0.0577 -2.5127
    5SAPS   C36  626   4.290   0.247   9.694  0.4400 -0.3556 -0.8406
    5SAPS   H6X  627   4.376   0.176   9.692  0.2931 -0.5328 -0.9528
    5SAPS   H6Y  628   4.335   0.347   9.707  0.2036 -0.6501  4.9630
    5SAPS   C37  629   4.218   0.237   9.556  0.6071  0.5213  0.5301
    5SAPS   H7X  630   4.142   0.318   9.558  1.5322  1.4209  0.2873
    5SAPS   H7Y  631   4.165   0.140   9.563  0.1018  0.8596  1.9300
    5SAPS   C38  632   4.304   0.244   9.425 -0.0701 -0.3955  0.2305
    5SAPS   H8X  633   4.237   0.224   9.339  0.1183  1.5926 -0.4474
    5SAPS   H8Y  634   4.385   0.168   9.433  1.5984  1.2563 -0.1431
    5SAPS   C39  635   4.369   0.388   9.409  0.1160  0.5498 -0.6594
    5SAPS   H9X  636   4.469   0.389   9.457 -0.9171 -3.1716  2.0743
    5SAPS   H9Y  637   4.319   0.465   9.472  0.5177 -0.4493  0.9375
    5SAPS  C310  638   4.388   0.443   9.269  0.7736 -0.7215  0.6211
    5SAPS  H10X  639   4.290   0.445   9.216  0.0171  1.2063  1.9867
    5SAPS  H10Y  640   4.452   0.369   9.217  0.6463 -2.2384  2.5265
    5SAPS  C311  641   4.455   0.589   9.272 -0.0898 -1.2656  0.0550
    5SAPS  H11X  642   4.555   0.578   9.318  0.9477  0.2658 -1.6701
    5SAPS  H11Y  643   4.401   0.663   9.335 -0.5343 -0.0354 -1.6759
    5SAPS  C312  644   4.476   0.641   9.122 -0.2689 -0.0594 -0.9568
    5SAPS  H12X  645   4.373   0.648   9.081 -1.1768 -1.1824  1.0078
    5SAPS  H12Y  646   4.534   0.575   9.054  1.1427 -0.0725  0.2114
    5SAPS  C313  647   4.558   0.771   9.122  0.6635  0.3770 -0.1414
    5SAPS  H13X  648   4.648   0.741   9.180  0.8059  1.4470  0.2201
    5SAPS  H13Y  649   4.511   0.852   9.182  0.5655  0.1446  0.0947
    5SAPS  C314  650   4.596   0.825   8.984 -0.3487 -0.4511  0.1397
    5SAPS  H14X  651   4.498   0.821   8.932 -0.3676  0.4209  0.0941
    5SAPS  H14Y  652   4.647   0.741   8.931 -3.5153 -1.8801 -0.9055
    5SAPS  C315  653   4.652   0.965   8.990 -0.7411 -0.0565  0.2664
    5SAPS  H15X  654   4.752   0.951   9.036  0.4987  1.9763 -1.5768
    5SAPS  H15Y  655   4.578   1.021   9.050 -2.0387 -1.6204  0.1771
    5SAPS  C316  656   4.682   1.044   8.859 -0.3217  0.3187  0.1909
    5SAPS  H16X  657   4.746   0.973   8.802  1.2304  0.3148  1.8716
    5SAPS  H16Y  658   4.747   1.132   8.873 -0.2509  0.1064  1.2550
    5SAPS  C317  659   4.558   1.091   8.781 -0.1728  0.6140  0.2574
    5SAPS  H17X  660   4.479   1.017   8.807  0.8802 -1.6301 -2.4370
    5SAPS  H17Y  661   4.583   1.066   8.675 -1.0440 -2.4792  0.6671
    5SAPS  C318  662   4.519   1.232   8.794 -0.3727  0.3013 -0.6306
    5SAPS  H18X  663   4.527   1.266   8.899 -1.9074  0.6805 -0.6127
    5SAPS  H18Y  664   4.415   1.259   8.768 -1.0603  0.7100  2.2451
    5SAPS  H18Z  665   4.586   1.304   8.743 -1.5180  2.0333  0.2404
    6SAPS     N  666   3.562   0.533  11.226 -0.6101  0.3606 -0.6289
    6SAPS   HN1  667   3.465   0.519  11.191 -0.3478 -1.2567 -0.8164
    6SAPS   HN2  668   3.626   0.472  11.172 -0.4173 -0.5516  0.5762
    6SAPS   HN3  669   3.579   0.500  11.323 -1.7161 -2.0001 -1.1749
    6SAPS   C12  670   3.631   0.664  11.215 -0.5817  0.2195 -0.2818
    6SAPS  H12A  671   3.568   0.734  11.269 -2.1271  1.6715 -3.6459
    6SAPS   C13  672   3.782   0.667  11.272 -0.4365 -0.2096  0.2896
    6SAPS  O13A  673   3.819   0.568  11.333 -0.7122 -0.1486 -0.1700
    6SAPS  O13B  674   3.815   0.788  11.303  0.1027  0.1701  0.4414
    6SAPS   C11  675   3.629   0.705  11.066 -0.5378  0.5349 -0.5485
    6SAPS  H11A  676   3.698   0.639  11.009 -0.7975  0.7255 -1.0933
    6SAPS  H11B  677   3.654   0.813  11.071 -3.0802  1.1869 -0.3346
    6SAPS     P  678   3.487   0.677  10.850  0.3001  0.0496 -0.3518
    6SAPS   O13  679   3.499   0.532  10.841  0.0262  0.1116 -0.3676
    6SAPS   O14  680   3.359   0.737  10.802 -0.1428 -0.7720 -0.5036
    6SAPS   O12  681   3.497   0.712  11.001 -0.4099  0.4258 -0.7768
    6SAPS   O11  682   3.618   0.746  10.779 -0.6557 -0.0872  0.2437
    6SAPS    C1  683   3.624   0.893  10.785 -0.2161  1.1820  0.1270
    6SAPS    HA  684   3.541   0.947  10.733 -0.4473 -1.4427 -2.4683
    6SAPS    HB  685   3.640   0.920  10.891  2.2088 -1.0843  0.4259
    6SAPS    C2  686   3.754   0.947  10.707  0.1690  0.4472  0.7920
    6SAPS    HS  687   3.740   1.054  10.679  1.4992  0.4127 -0.0844
    6SAPS   O21  688   3.776   0.862  10.591 -0.2259  0.1481  0.4252
    6SAPS   C21  689   3.688   0.871  10.489  0.3331  0.9287 -0.6500
    6SAPS   O22  690   3.584   0.934  10.491  0.0162  0.8971  0.0106
    6SAPS   C22  691   3.738   0.790  10.376 -0.5301  0.2711  0.5911
    6SAPS   H2R  692   3.735   0.856  10.286  3.1995 -0.5227 -0.2644
    6SAPS   H2S  693   3.844   0.766  10.397 -0.4898 -1.4827 -1.2901
    6SAPS    C3  694   3.882   0.930  10.800  0.5998  0.0301 -1.2145
    6SAPS    HX  695   3.892   0.824  10.830  2.4389  0.4997 -0.0054
    6SAPS    HY  696   3.875   0.980  10.899 -0.6438 -0.6468 -0.9483
    6SAPS   O31  697   3.990   0.974  10.727 -0.5476  0.0182 -0.4632
    6SAPS   C31  698   4.059   0.878  10.667 -0.1887 -0.8262 -0.6488
    6SAPS   O32  699   4.029   0.758  10.660 -0.2908  0.0345 -0.6941
    6SAPS   C32  700   4.192   0.934  10.600 -0.1021 -0.0292  0.1050
    6SAPS   H2X  701   4.252   0.990  10.675 -0.6040 -0.3573  0.7601
    6SAPS   H2Y  702   4.159   1.009  10.524 -0.4257 -1.7895 -1.5587
    6SAPS   C23  703   3.645   0.667  10.349  0.1842  0.2629 -0.0476
    6SAPS   H3R  704   3.553   0.697  10.295  0.8549 -0.8351 -1.8752
    6SAPS   H3S  705   3.613   0.623  10.446  2.6351 -0.7091  0.3797
    6SAPS   C24  706   3.716   0.549  10.286 -0.1105 -0.3273  0.3383
    6SAPS   H4R  707   3.635   0.486  10.243 -1.7462  0.9627  1.4115
    6SAPS   H4S  708   3.759   0.483  10.365  1.8053  0.2354 -0.1935
    6SAPS   C25  709   3.825   0.587  10.186  0.7345 -0.2573 -0.0990
    6SAPS   H5R  710   3.921   0.602  10.237 -0.2395  2.4778  1.1485
    6SAPS   C26  711   3.818   0.576  10.049 -0.1520  0.1353  0.9908
    6SAPS   H6R  712   3.905   0.606   9.989 -0.2910 -1.1606  0.0922
    6SAPS   C27  713   3.693   0.542   9.976  0.5800  0.5862 -0.0036
    6SAPS   H7R  714   3.634   0.466  10.032  1.0007 -0.6290 -1.1234
    6SAPS   H7S  715   3.729   0.483   9.888  1.3422  0.3629  0.4484
    6SAPS   C28  716   3.612   0.663   9.931  0.4712  0.5093 -0.2068
    6SAPS   H8R  717   3.584   0.730  10.014  0.4422  0.2253  0.0143
    6SAPS   C29  718   3.595   0.702   9.802  0.1674 -0.2508 -0.1005
    6SAPS   H9R  719   3.515   0.775   9.784 -0.2299 -0.5904  0.2660
    6SAPS  C210  720   3.650   0.646   9.675  0.5565  0.0059 -0.0325
    6SAPS  H10R  721   3.578   0.576   9.627  2.7460 -0.0628 -3.5684
    6SAPS  H10S  722   3.737   0.587   9.710 -1.2336 -2.1998  0.9764
    6SAPS  C211  723   3.697   0.752   9.582 -0.2183 -0.1332 -0.0356
    6SAPS  H11R  724   3.776   0.813   9.628  0.9648 -1.1309 -0.6882
    6SAPS  C212  725   3.657   0.780   9.459  0.1914  0.6179 -0.2260
    6SAPS  H12R  726   3.690   0.868   9.402 -2.4396  1.0433 -1.2042
    6SAPS  C213  727   3.544   0.705   9.383 -0.3132  1.3064 -0.0692
    6SAPS  H13R  728   3.514   0.617   9.443 -1.1618  0.9657 -0.9571
    6SAPS  H13S  729   3.599   0.668   9.294 -0.3591  1.7700 -0.2925
    6SAPS  C214  730   3.432   0.797   9.337  0.3461 -0.1728 -0.1421
    6SAPS  H14R  731   3.353   0.804   9.414  1.6080  2.0700  1.0368
    6SAPS  C215  732   3.426   0.878   9.233  0.3962 -0.7381  0.4886
    6SAPS  H15R  733   3.349   0.954   9.217  0.4391 -0.8655 -0.3800
    6SAPS  C216  734   3.538   0.892   9.131  0.3732  0.1530 -0.2783
    6SAPS  H16R  735   3.499   0.896   9.027  1.3358  0.1492 -0.6565
    6SAPS  H16S  736   3.597   0.798   9.121  2.3213  1.0771  1.6835
    6SAPS  C217  737   3.633   1.017   9.137  0.6393  0.1138  0.3598
    6SAPS  H17R  738   3.716   1.003   9.063  1.5734  1.5566  1.1039
    6SAPS  H17S  739   3.665   1.033   9.242 -0.3021  2.3639  0.3431
    6SAPS  C218  740   3.561   1.144   9.099 -0.2950  0.4437  0.1858
    6SAPS  H18R  741   3.459   1.144   9.141 -1.0264 -2.0658 -1.3805
    6SAPS  H18S  742   3.552   1.159   8.989 -1.2492 -1.3999 -0.0228
    6SAPS  C219  743   3.640   1.268   9.154  0.1182 -0.2159 -0.1933
    6SAPS  H19R  744   3.749   1.250   9.138 -0.0759 -1.9865  0.2618
    6SAPS  H19S  745   3.643   1.243   9.262  1.6414 -0.8605 -0.3610
    6SAPS  C220  746   3.597   1.407   9.112  0.3324 -1.1927  0.0675
    6SAPS  H20R  747   3.686   1.468   9.086  0.3836 -1.5615 -0.6850
    6SAPS  H20S  748   3.548   1.456   9.198 -0.6895 -2.6816  0.3855
    6SAPS  H20T  749   3.534   1.421   9.021  0.7864  0.9010  0.0335
    6SAPS   C33  750   4.274   0.820  10.542  0.0434 -0.2534 -0.1206
    6SAPS   H3X  751   4.277   0.730  10.607 -2.2134 -1.2202 -1.2146
    6SAPS   H3Y  752   4.378   0.855  10.529 -0.4554  1.5479  0.3964
    6SAPS   C34  753   4.209   0.770  10.409 -0.0256 -0.1622 -0.2118
    6SAPS   H4X  754   4.098   0.763  10.419 -0.1924  0.4956 -1.3881
    6SAPS   H4Y  755   4.261   0.675  10.386 -2.9262 -1.7002 -0.9046
    6SAPS   C35  756   4.246   0.850  10.282  0.4019  0.1249 -0.0449
    6SAPS   H5X  757   4.354   0.876  10.282  0.2625  0.7149  0.1618
    6SAPS   H5Y  758   4.204   0.953  10.291  0.2071 -0.0333  0.8669
    6SAPS   C36  759   4.214   0.771  10.159 -0.0592  1.0299 -0.0051
    6SAPS   H6X  760   4.103   0.770  10.156 -0.0857 -0.1100  0.7069
    6SAPS   H6Y  761   4.237   0.663  10.174 -0.3848  1.2048  2.1218
    6SAPS   C37  762   4.287   0.821  10.037  0.0877  0.1957  0.1268
    6SAPS   H7X  763   4.390   0.781  10.026 -0.2179 -0.3291 -0.9904
    6SAPS   H7Y  764   4.299   0.929  10.061  0.2209 -0.1458  1.7130
    6SAPS   C38  765   4.201   0.795   9.912 -0.1337 -0.2892 -0.1429
    6SAPS   H8X  766   4.239   0.870   9.839 -2.0757  1.5287  0.5981
    6SAPS   H8Y  767   4.097   0.830   9.931  0.1035  0.4583 -0.1645
    6SAPS   C39  768   4.214   0.653   9.846  0.2080 -0.1300  0.5076
    6SAPS   H9X  769   4.192   0.581   9.928  1.8854 -3.0208 -1.3951
    6SAPS   H9Y  770   4.315   0.650   9.800  0.3751  0.3823  0.8370
    6SAPS  C310  771   4.108   0.630   9.738 -0.8727 -0.4577  0.0448
    6SAPS  H10X  772   4.004   0.636   9.777 -1.1517  0.8910 -0.8527
    6SAPS  H10Y  773   4.124   0.530   9.692 -1.5335 -0.5654  0.0333
    6SAPS  C311  774   4.124   0.721   9.613  0.1471  0.1367 -0.4120
    6SAPS  H11X  775   4.232   0.741   9.598  0.4816  0.4687  2.0133
    6SAPS  H11Y  776   4.081   0.820   9.638  1.2250  0.1580  1.6395
    6SAPS  C312  777   4.073   0.664   9.478 -0.5017 -0.1534  0.0475
    6SAPS  H12X  778   3.971   0.622   9.491 -0.2221 -0.6383  0.7294
    6SAPS  H12Y  779   4.138   0.591   9.425 -0.2758 -0.4593  0.7252
    6SAPS  C313  780   4.068   0.775   9.370 -0.0982 -0.7459 -0.5900
    6SAPS  H13X  781   4.168   0.815   9.342 -1.4991  2.3501 -1.6656
    6SAPS  H13Y  782   4.023   0.857   9.431  0.8918 -1.2284  0.8598
    6SAPS  C314  783   3.992   0.726   9.245 -0.0422 -0.0674 -0.5984
    6SAPS  H14X  784   3.893   0.693   9.282 -0.0938  3.3063  2.8607
    6SAPS  H14Y  785   4.047   0.641   9.199 -1.3452 -0.7678 -0.9125
    6SAPS  C315  786   3.967   0.831   9.137  0.5005  0.6686 -0.2718
    6SAPS  H15X  787   3.923   0.917   9.192  1.1088 -0.4122  2.0300
    6SAPS  H15Y  788   3.888   0.784   9.075  0.4525 -2.1658  1.7503
    6SAPS  C316  789   4.087   0.881   9.056 -0.2991 -0.1675  1.0782
    6SAPS  H16X  790   4.131   0.799   8.995 -0.7064 -0.1097  0.7012
    6SAPS  H16Y  791   4.166   0.923   9.122  0.2265 -1.9875  1.6469
    6SAPS  C317  792   4.055   1.000   8.969  0.1424  0.1281  0.2802
    6SAPS  H17X  793   3.996   1.079   9.019 -1.7539 -0.4756 -0.8825
    6SAPS  H17Y  794   3.991   0.978   8.881  0.1019  2.4124 -0.3373
    6SAPS  C318  795   4.175   1.069   8.910  0.3837 -1.0277 -0.1217
    6SAPS  H18X  796   4.244   1.109   8.988  1.9188 -2.2290 -0.8191
    6SAPS  H18Y  797   4.144   1.159   8.852  0.7646  0.6774  2.1502
    6SAPS  H18Z  798   4.230   0.993   8.852  1.0225  0.3466 -1.3958
    7SAPS     N  799   5.996   2.732  11.232  0.1437 -0.0782 -0.2248
    7SAPS   HN1  800   6.089   2.779  11.233  0.1900 -0.1416  1.6420
    7SAPS   HN2  801   5.926   2.798  11.192 -0.2916 -0.8267 -0.7097
    7SAPS   HN3  802   5.966   2.708  11.329  2.2946  0.4263  0.6407
    7SAPS   C12  803   5.996   2.612  11.140 -0.4504  0.1768 -0.7202
    7SAPS  H12A  804   6.036   2.641  11.044  0.3221 -0.0876 -0.4839
    7SAPS   C13  805   6.103   2.504  11.184  0.1497  0.3499 -0.3750
    7SAPS  O13A  806   6.176   2.529  11.281 -0.2551  0.2221 -0.4326
    7SAPS  O13B  807   6.119   2.401  11.114  0.2892 -0.8245 -0.3268
    7SAPS   C11  808   5.857   2.540  11.138  0.0249 -0.7271  0.1464
    7SAPS  H11A  809   5.829   2.525  11.244  0.0916  0.9085  0.4231
    7SAPS  H11B  810   5.857   2.448  11.076 -1.3091 -0.2316 -0.6337
    7SAPS     P  811   5.719   2.650  10.943 -0.2518  0.0240 -0.2351
    7SAPS   O13  812   5.629   2.535  10.907 -0.0333  0.0736  0.0493
    7SAPS   O14  813   5.664   2.789  10.929 -0.3989  0.6357  0.2372
    7SAPS   O12  814   5.756   2.633  11.096 -0.0000 -0.0685 -0.1155
    7SAPS   O11  815   5.855   2.642  10.871 -0.4212  0.0930  0.4944
    7SAPS    C1  816   5.886   2.551  10.764  0.4445  0.1194  0.1324
    7SAPS    HA  817   5.989   2.517  10.792  0.0379  0.2609  1.9484
    7SAPS    HB  818   5.823   2.460  10.773  0.4024 -0.0075 -1.2975
    7SAPS    C2  819   5.864   2.612  10.623 -0.1718  0.2217 -0.6930
    7SAPS    HS  820   5.878   2.518  10.565 -1.0173 -0.4094  0.0698
    7SAPS   O21  821   5.966   2.707  10.589 -0.6119  0.5993  0.1747
    7SAPS   C21  822   6.094   2.661  10.578  1.0166  0.3211 -0.4425
    7SAPS   O22  823   6.129   2.544  10.595 -0.0244 -0.2905  0.1490
    7SAPS   C22  824   6.184   2.778  10.534 -0.3047  0.0570  0.3406
    7SAPS   H2R  825   6.136   2.874  10.563 -2.5197 -0.8714 -0.0665
    7SAPS   H2S  826   6.278   2.770  10.593 -0.8490  2.2891  1.6108
    7SAPS    C3  827   5.721   2.678  10.605  0.0430  0.5116 -0.2653
    7SAPS    HX  828   5.717   2.781  10.647 -2.4001 -0.2084  1.4309
    7SAPS    HY  829   5.659   2.616  10.673  1.7521 -1.0222 -0.0408
    7SAPS   O31  830   5.652   2.677  10.471  0.7146 -0.4887 -0.9945
    7SAPS   C31  831   5.664   2.783  10.401  0.5076  0.3212  0.0671
    7SAPS   O32  832   5.730   2.882  10.427  0.3632  0.2310 -0.2289
    7SAPS   C32  833   5.593   2.751  10.263 -0.2648  0.1869 -0.5438
    7SAPS   H2X  834   5.484   2.743  10.283 -0.3338  1.6211 -0.2592
    7SAPS   H2Y  835   5.637   2.651  10.243  0.2097 -0.4117  2.9061
    7SAPS   C23  836   6.219   2.760  10.381 -0.1224  0.0993 -0.1310
    7SAPS   H3R  837   6.261   2.659  10.357  1.4850  1.2029 -2.3298
    7SAPS   H3S  838   6.303   2.829  10.359  0.8478 -0.9135  0.2562
    7SAPS   C24  839   6.111   2.815  10.286  0.2488 -0.0965  0.0927
    7SAPS   H4R  840   6.156   2.847  10.190  0.6502  4.4213  1.5400
    7SAPS   H4S  841   6.068   2.913  10.318  0.7137  1.3651 -3.3794
    7SAPS   C25  842   6.012   2.712  10.245  0.2745 -0.5790 -0.1273
    7SAPS   H5R  843   5.945   2.676  10.324 -1.0645 -1.3210 -1.5490
    7SAPS   C26  844   5.982   2.670  10.125 -1.0280 -0.3130  1.1145
    7SAPS   H6R  845   5.911   2.587  10.117 -1.1493 -0.0456 -1.5913
    7SAPS   C27  846   6.053   2.712  10.000 -0.5113 -0.0867  0.3961
    7SAPS   H7R  847   6.148   2.766  10.021 -0.0759 -0.1528 -1.2702
    7SAPS   H7S  848   5.983   2.781   9.948  0.1030  1.3226  1.3725
    7SAPS   C28  849   6.091   2.602   9.903  0.2663  0.1587  0.5028
    7SAPS   H8R  850   6.123   2.503   9.939 -0.8972 -1.0169 -1.5034
    7SAPS   C29  851   6.070   2.597   9.773  0.1459  0.0159  0.1858
    7SAPS   H9R  852   6.100   2.505   9.720 -1.0440 -1.3639  1.8010
    7SAPS  C210  853   5.991   2.694   9.689  0.5730  0.8694 -0.0023
    7SAPS  H10R  854   6.031   2.716   9.587 -0.3023  0.3527 -0.4670
    7SAPS  H10S  855   5.994   2.797   9.732  1.5484  1.0644 -0.4990
    7SAPS  C211  856   5.843   2.660   9.682 -0.3042  0.3842 -0.1337
    7SAPS  H11R  857   5.777   2.692   9.764 -0.3544 -0.3983  0.1451
    7SAPS  C212  858   5.786   2.594   9.584  0.5765  0.3354  0.1924
    7SAPS  H12R  859   5.677   2.591   9.588  0.5832  0.6050  0.6028
    7SAPS  C213  860   5.859   2.548   9.456 -0.9105  0.0670 -0.4984
    7SAPS  H13R  861   5.967   2.567   9.472 -0.9597  1.4459 -1.6253
    7SAPS  H13S  862   5.840   2.625   9.378 -2.1155 -1.5841 -1.8951
    7SAPS  C214  863   5.825   2.414   9.401 -0.3823  0.2547  0.5089
    7SAPS  H14R  864   5.887   2.338   9.449 -1.9988 -2.2760 -1.1529
    7SAPS  C215  865   5.753   2.382   9.291  0.0809 -0.8568  0.7753
    7SAPS  H15R  866   5.759   2.276   9.264  1.1464  0.0208 -3.0394
    7SAPS  C216  867   5.676   2.477   9.205  0.7515 -0.1444 -0.3200
    7SAPS  H16R  868   5.659   2.581   9.241 -0.9913 -0.4233 -0.2294
    7SAPS  H16S  869   5.574   2.438   9.184  0.3053  1.6398 -1.7158
    7SAPS  C217  870   5.740   2.492   9.066 -0.5412  0.6080 -0.0401
    7SAPS  H17R  871   5.757   2.389   9.028  0.8639 -0.1501  2.4013
    7SAPS  H17S  872   5.845   2.526   9.086 -0.1542 -1.4596  1.8437
    7SAPS  C218  873   5.680   2.582   8.968 -0.7968 -0.2647 -0.1313
    7SAPS  H18R  874   5.695   2.683   9.014 -0.2897 -0.4898  0.2090
    7SAPS  H18S  875   5.570   2.574   8.960 -0.6968 -0.8337 -1.0155
    7SAPS  C219  876   5.746   2.583   8.834 -0.8424  0.0215 -0.3386
    7SAPS  H19R  877   5.731   2.480   8.796 -0.0971 -0.2595  0.1092
    7SAPS  H19S  878   5.855   2.607   8.841 -1.1728  1.5390 -0.0898
    7SAPS  C220  879   5.679   2.693   8.756  0.1506 -0.1175  1.0451
    7SAPS  H20R  880   5.576   2.670   8.721 -0.0108  3.0556 -0.9763
    7SAPS  H20S  881   5.715   2.697   8.651 -1.5690  1.7634  0.4642
    7SAPS  H20T  882   5.676   2.792   8.808  1.2804  1.3206 -1.4661
    7SAPS   C33  883   5.629   2.864  10.161 -0.0496 -0.4609  0.3171
    7SAPS   H3X  884   5.739   2.865  10.147 -0.1436 -2.8400 -1.1219
    7SAPS   H3Y  885   5.605   2.967  10.194 -1.1556 -0.1367 -1.3688
    7SAPS   C34  886   5.565   2.835  10.025 -0.1957 -0.0726  0.5479
    7SAPS   H4X  887   5.454   2.837  10.026 -0.3671 -1.6646 -2.7318
    7SAPS   H4Y  888   5.596   2.734   9.990  4.4593  1.8166 -1.7113
    7SAPS   C35  889   5.611   2.929   9.908  0.2802 -0.2699 -0.5691
    7SAPS   H5X  890   5.701   2.881   9.864  1.4492  1.5661 -0.2610
    7SAPS   H5Y  891   5.648   3.024   9.952 -1.6171  1.3091 -2.1354
    7SAPS   C36  892   5.510   2.961   9.787  0.2250 -0.1254 -0.5581
    7SAPS   H6X  893   5.435   3.034   9.823 -0.4600 -1.2377  0.3131
    7SAPS   H6Y  894   5.459   2.871   9.746 -1.3545  0.0535  0.9190
    7SAPS   C37  895   5.589   3.035   9.672 -0.0375 -0.7629 -0.0102
    7SAPS   H7X  896   5.692   3.060   9.707  0.8416 -2.1298 -1.5183
    7SAPS   H7Y  897   5.545   3.137   9.660 -1.8591 -1.4540  0.4297
    7SAPS   C38  898   5.593   2.948   9.549 -0.0458  0.4304  0.5887
    7SAPS   H8X  899   5.492   2.916   9.517 -0.7783  1.7560  1.4735
    7SAPS   H8Y  900   5.649   2.853   9.560  0.0729  0.2949 -1.0250
    7SAPS   C39  901   5.653   3.022   9.429 -0.0546  0.0038  0.3236
    7SAPS   H9X  902   5.762   3.039   9.446 -0.3788  0.2546  2.5411
    7SAPS   H9Y  903   5.603   3.121   9.419 -2.2922 -1.0848  0.1806
    7SAPS  C310  904   5.633   2.951   9.292 -0.0692 -0.0787  0.6884
    7SAPS  H10X  905   5.523   2.941   9.277  0.1606 -1.3625 -0.2693
    7SAPS  H10Y  906   5.677   2.850   9.303  1.2586  0.4760  0.6284
    7SAPS  C311  907   5.686   3.033   9.164 -0.0785  0.6336  0.1996
    7SAPS  H11X  908   5.625   3.125   9.150 -0.4491  0.7675  2.3438
    7SAPS  H11Y  909   5.678   2.970   9.073 -1.1563  1.2606 -0.1637
    7SAPS  C312  910   5.830   3.088   9.173  0.5441 -0.1232  0.1032
    7SAPS  H12X  911   5.818   3.166   9.252 -0.4294  0.8224 -0.9502
    7SAPS  H12Y  912   5.858   3.148   9.083  2.5022 -0.0285  0.7099
    7SAPS  C313  913   5.936   2.977   9.195 -1.3869  0.0810 -1.1036
    7SAPS  H13X  914   5.913   2.893   9.264  1.5300  0.1731  0.1010
    7SAPS  H13Y  915   6.010   3.033   9.256 -2.5181  1.3013 -0.7782
    7SAPS  C314  916   5.991   2.944   9.056 -0.2777  0.6495 -0.3331
    7SAPS  H14X  917   6.058   3.030   9.032  1.6627  0.2327  2.9567
    7SAPS  H14Y  918   5.908   2.947   8.982  1.1942 -2.8768 -2.3568
    7SAPS  C315  919   6.057   2.805   9.045  0.0122 -0.2915 -0.1561
    7SAPS  H15X  920   5.992   2.722   9.082  0.9008 -0.8052  0.2806
    7SAPS  H15Y  921   6.151   2.807   9.103 -0.1163 -2.3175  0.2142
    7SAPS  C316  922   6.105   2.770   8.899 -0.3421  0.5467 -0.6562
    7SAPS  H16X  923   6.194   2.829   8.867  0.2986 -0.7473 -1.3411
    7SAPS  H16Y  924   6.022   2.792   8.829 -1.2215 -0.7919 -0.0641
    7SAPS  C317  925   6.126   2.620   8.854  0.8207  0.8151  0.4478
    7SAPS  H17X  926   6.055   2.557   8.912  0.0863  0.6701 -0.5911
    7SAPS  H17Y  927   6.231   2.591   8.880  0.5518 -2.6108 -1.7017
    7SAPS  C318  928   6.096   2.590   8.707 -0.5982 -0.5351  0.6086
    7SAPS  H18X  929   6.004   2.640   8.669  0.8077  0.2952 -1.9722
    7SAPS  H18Y  930   6.092   2.479   8.692  0.3306 -0.5397  0.3484
    7SAPS  H18Z  931   6.179   2.627   8.644 -0.2243 -1.9919  0.1948
    8SAPS     N  932   4.585   3.364  11.338  0.2553  0.3609 -0.2421
    8SAPS   HN1  933   4.538   3.346  11.247  0.8197  0.4595 -0.5618
    8SAPS   HN2  934   4.530   3.423  11.402  1.2642  3.0759 -1.7019
    8SAPS   HN3  935   4.675   3.409  11.310 -0.1007  1.8926  0.9474
    8SAPS   C12  936   4.603   3.229  11.409  0.1963 -0.7194  0.3942
    8SAPS  H12A  937   4.656   3.171  11.335  2.3423  2.0576 -0.4113
    8SAPS   C13  938   4.688   3.217  11.529  0.5822 -0.0865 -0.6961
    8SAPS  O13A  939   4.760   3.321  11.559 -0.0705 -0.2177  0.2191
    8SAPS  O13B  940   4.678   3.117  11.604  0.6984  0.3583 -0.2545
    8SAPS   C11  941   4.458   3.157  11.431 -0.4586 -0.3338 -0.1703
    8SAPS  H11A  942   4.412   3.197  11.524  0.7246 -1.9249  1.1677
    8SAPS  H11B  943   4.476   3.049  11.445 -0.4189 -0.1660  1.2322
    8SAPS     P  944   4.219   3.136  11.342  0.1030 -0.4620  0.0669
    8SAPS   O13  945   4.216   3.036  11.449  0.0043 -0.4688 -0.6974
    8SAPS   O14  946   4.143   3.262  11.351  0.2972 -0.5277 -0.4112
    8SAPS   O12  947   4.369   3.183  11.321 -0.1979  0.0733  0.4902
    8SAPS   O11  948   4.182   3.053  11.215  0.3104 -0.6707 -0.0009
    8SAPS    C1  949   4.283   2.998  11.134  0.3230  0.3815  0.0901
    8SAPS    HA  950   4.368   2.958  11.194 -0.8866 -0.1416  1.5104
    8SAPS    HB  951   4.249   2.903  11.086 -1.0073  0.2782  1.1713
    8SAPS    C2  952   4.330   3.090  11.025  0.0442  0.2715 -0.5851
    8SAPS    HS  953   4.332   3.196  11.058  1.8541 -0.1762  0.9294
    8SAPS   O21  954   4.246   3.067  10.909 -0.3379  0.0313  0.0649
    8SAPS   C21  955   4.124   3.120  10.911  0.9166 -0.3746  0.0027
    8SAPS   O22  956   4.080   3.221  10.965  0.6957 -0.3736  0.4506
    8SAPS   C22  957   4.028   3.038  10.824 -0.0806  0.1139  0.0285
    8SAPS   H2R  958   4.091   3.014  10.736  0.9624  0.1061  0.7647
    8SAPS   H2S  959   3.996   2.948  10.881 -0.3640 -0.8252 -1.5575
    8SAPS    C3  960   4.472   3.053  10.975 -0.5668 -0.0899 -0.7378
    8SAPS    HX  961   4.447   2.957  10.925  0.2732 -1.3507  1.1413
    8SAPS    HY  962   4.541   3.039  11.061 -0.0871 -0.1328 -1.1278
    8SAPS   O31  963   4.527   3.146  10.885 -0.1510  0.2105 -0.1011
    8SAPS   C31  964   4.572   3.260  10.939 -0.4765  0.5190  0.5940
    8SAPS   O32  965   4.581   3.275  11.058  0.4637 -0.2113  0.1753
    8SAPS   C32  966   4.567   3.369  10.832 -0.0960 -0.1869 -0.5685
    8SAPS   H2X  967   4.601   3.325  10.735 -0.2623 -0.9063 -0.3093
    8SAPS   H2Y  968   4.627   3.458  10.861 -0.8526  0.6774 -1.5991
    8SAPS   C23  969   3.906   3.118  10.778 -0.2215 -0.4455 -0.0681
    8SAPS   H3R  970   3.863   3.180  10.860 -0.5328  2.1015 -2.0243
    8SAPS   H3S  971   3.821   3.054  10.747 -1.2239  1.6067 -1.7545
    8SAPS   C24  972   3.941   3.211  10.653  0.1173  0.0159 -0.3631
    8SAPS   H4R  973   4.022   3.282  10.678 -0.2180  0.2860 -0.0356
    8SAPS   H4S  974   3.856   3.281  10.633  0.8738  0.9064 -0.5062
    8SAPS   C25  975   3.962   3.135  10.522  0.0276 -0.0865  0.3667
    8SAPS   H5R  976   3.906   3.041  10.520 -0.0270 -0.1253  2.1904
    8SAPS   C26  977   4.034   3.173  10.412  0.3198  0.5760  0.4465
    8SAPS   H6R  978   4.051   3.100  10.332 -3.1598  2.9412 -2.8393
    8SAPS   C27  979   4.116   3.296  10.398  0.8659 -0.1477  0.4896
    8SAPS   H7R  980   4.059   3.378  10.445  2.0096  2.0337 -1.7191
    8SAPS   H7S  981   4.125   3.331  10.293  0.4870 -1.1461  0.1035
    8SAPS   C28  982   4.250   3.283  10.457 -0.3663  0.1676 -0.3845
    8SAPS   H8R  983   4.238   3.253  10.562 -0.2968 -1.1563 -0.7416
    8SAPS   C29  984   4.371   3.302  10.398  0.1420  0.4022  0.0047
    8SAPS   H9R  985   4.461   3.288  10.460  0.1412  1.1114  0.1669
    8SAPS  C210  986   4.397   3.333  10.254  0.4095 -1.0046 -0.2525
    8SAPS  H10R  987   4.325   3.274  10.193 -0.0004 -1.6417  0.8183
    8SAPS  H10S  988   4.498   3.295  10.227  1.3217  1.7701 -1.1264
    8SAPS  C211  989   4.382   3.480  10.214  0.1687  0.7322  1.2815
    8SAPS  H11R  990   4.361   3.548  10.298  0.6525 -0.8374  2.7071
    8SAPS  C212  991   4.413   3.524  10.093 -0.4981  0.6029  0.9151
    8SAPS  H12R  992   4.386   3.630  10.083 -0.8494  0.4118 -0.4087
    8SAPS  C213  993   4.454   3.444   9.975  0.2207  0.4349 -0.0452
    8SAPS  H13R  994   4.368   3.386   9.935  1.3720 -0.8966 -0.7327
    8SAPS  H13S  995   4.530   3.370  10.011 -0.7783 -0.0747  1.0830
    8SAPS  C214  996   4.507   3.520   9.853 -0.4167  1.0737 -0.2270
    8SAPS  H14R  997   4.517   3.630   9.856 -1.0989  1.1280  0.7191
    8SAPS  C215  998   4.531   3.463   9.735  0.2795 -0.3166 -0.0296
    8SAPS  H15R  999   4.566   3.525   9.652 -2.6535 -0.1208 -1.2328
    8SAPS  C216 1000   4.511   3.309   9.717  0.0161  0.3050  0.5057
    8SAPS  H16R 1001   4.445   3.267   9.796 -0.4081  1.8493  1.0086
    8SAPS  H16S 1002   4.604   3.249   9.729  1.2193  2.1777  0.8578
    8SAPS  C217 1003   4.451   3.272   9.582 -0.0347  0.6367  0.0952
    8SAPS  H17R 1004   4.356   3.326   9.560  0.1370  0.5681 -0.8671
    8SAPS  H17S 1005   4.423   3.165   9.584 -1.2137  0.9044 -0.7158
    8SAPS  C218 1006   4.542   3.295   9.463 -0.4746  0.0260  0.5021
    8SAPS  H18R 1007   4.642   3.262   9.497 -0.1731  2.3003  2.0784
    8SAPS  H18S 1008   4.551   3.404   9.442  3.8223 -0.5199 -1.3721
    8SAPS  C219 1009   4.505   3.217   9.331  0.1474 -0.1325 -0.2958
    8SAPS  H19R 1010   4.531   3.109   9.336 -2.2727 -0.8429 -1.2690
    8SAPS  H19S 1011   4.556   3.269   9.247  0.6805  1.7587  1.1138
    8SAPS  C220 1012   4.352   3.228   9.306  0.1647 -0.3545 -0.1537
    8SAPS  H20R 1013   4.311   3.331   9.320 -0.9602 -0.8045 -0.0518
    8SAPS  H20S 1014   4.286   3.171   9.375 -1.4338  3.0459  1.3728
    8SAPS  H20T 1015   4.320   3.194   9.205 -1.4621 -2.6551  1.0411
    8SAPS   C33 1016   4.425   3.427  10.832 -0.6350  0.3854 -0.4648
    8SAPS   H3X 1017   4.403   3.482  10.927  0.3599  1.9651 -1.1055
    8SAPS   H3Y 1018   4.348   3.348  10.819  1.4771 -1.5477 -1.9289
    8SAPS   C34 1019   4.398   3.524  10.714 -0.5275  0.4922  0.4805
    8SAPS   H4X 1020   4.424   3.468  10.622 -0.0700 -2.0008  2.0114
    8SAPS   H4Y 1021   4.458   3.618  10.716  1.6074 -0.7477 -0.9598
    8SAPS   C35 1022   4.249   3.562  10.715 -0.4007 -0.0995 -0.5705
    8SAPS   H5X 1023   4.221   3.623  10.804  0.1430 -1.1432  0.3455
    8SAPS   H5Y 1024   4.180   3.476  10.724  1.5364 -1.6609  0.1832
    8SAPS   C36 1025   4.217   3.645  10.596  0.0202  0.1563  0.2296
    8SAPS   H6X 1026   4.266   3.588  10.513  0.3863  0.1000  0.4815
    8SAPS   H6Y 1027   4.266   3.745  10.603  1.7313 -0.5719 -0.5102
    8SAPS   C37 1028   4.068   3.669  10.559 -0.0059  0.2997  0.1677
    8SAPS   H7X 1029   4.008   3.713  10.642 -0.3463 -1.4748  0.8961
    8SAPS   H7Y 1030   4.016   3.572  10.551  1.6264 -0.6367  0.4823
    8SAPS   C38 1031   4.039   3.742  10.426  0.0978 -0.0052 -0.4868
    8SAPS   H8X 1032   4.107   3.829  10.414 -0.1943  0.6895  2.2377
    8SAPS   H8Y 1033   3.937   3.781  10.446  0.3927  0.7718 -0.4561
    8SAPS   C39 1034   4.023   3.649  10.304 -0.7405  0.2211 -0.8321
    8SAPS   H9X 1035   3.945   3.572  10.322 -0.5609  0.2500  0.1204
    8SAPS   H9Y 1036   4.120   3.595  10.300 -1.2102 -0.6295 -1.0997
    8SAPS  C310 1037   4.020   3.720  10.173 -0.7555 -0.4221  0.1682
    8SAPS  H10X 1038   4.098   3.798  10.169  1.1332 -2.1568  1.5331
    8SAPS  H10Y 1039   3.918   3.765  10.171  0.4295  2.4560 -0.1079
    8SAPS  C311 1040   4.038   3.616  10.059  0.1596  0.0636  0.1552
    8SAPS  H11X 1041   3.950   3.554  10.033 -0.4467  1.0540 -0.2261
    8SAPS  H11Y 1042   4.120   3.546  10.084 -0.0509 -0.5892 -0.9130
    8SAPS  C312 1043   4.089   3.694   9.937 -0.3014  0.4499 -0.1880
    8SAPS  H12X 1044   4.195   3.722   9.957 -0.0374 -1.9648  2.3140
    8SAPS  H12Y 1045   4.016   3.777   9.921  0.0652  0.3814 -2.5639
    8SAPS  C313 1046   4.104   3.600   9.812  0.7766 -0.4970 -0.3612
    8SAPS  H13X 1047   4.004   3.557   9.788  0.4904 -1.1406  1.8312
    8SAPS  H13Y 1048   4.182   3.522   9.828  1.3710  0.1481 -0.0741
    8SAPS  C314 1049   4.152   3.672   9.691 -0.2320 -0.1628  1.3831
    8SAPS  H14X 1050   4.173   3.595   9.613 -1.3202  0.0034  0.8946
    8SAPS  H14Y 1051   4.250   3.718   9.715 -0.3596  0.2483  1.1415
    8SAPS  C315 1052   4.064   3.774   9.613  0.1380 -0.1896 -0.0402
    8SAPS  H15X 1053   4.010   3.830   9.692  2.0778 -1.5243  2.3549
    8SAPS  H15Y 1054   3.999   3.726   9.536  1.0149  0.9489 -1.5569
    8SAPS  C316 1055   4.141   3.871   9.520 -0.2796  0.4169  0.6404
    8SAPS  H16X 1056   4.207   3.935   9.584  1.9468 -0.9877 -0.1070
    8SAPS  H16Y 1057   4.071   3.933   9.461  0.7269 -0.4525 -1.5588
    8SAPS  C317 1058   4.223   3.798   9.417  0.3435  0.1584 -0.2067
    8SAPS  H17X 1059   4.159   3.734   9.352 -0.4557 -0.2390  0.9395
    8SAPS  H17Y 1060   4.286   3.718   9.460 -0.4830 -0.9910 -1.0727
    8SAPS  C318 1061   4.308   3.889   9.319  0.2281 -0.0543  0.4043
    8SAPS  H18X 1062   4.388   3.944   9.373  0.4074  2.1267 -1.8861
    8SAPS  H18Y 1063   4.231   3.963   9.285  1.1581  0.6351 -0.2768
    8SAPS  H18Z 1064   4.363   3.838   9.237 -1.0364 -0.8726  0.0261
    9SAPS     N 1065   1.065   5.607   6.188  0.1675 -0.2047  0.3623
    9SAPS   HN1 1066   1.140   5.548   6.229  1.8307  3.1739  2.6638
    9SAPS   HN2 1067   1.009   5.538   6.134 -1.1341  0.0265  1.3786
    9SAPS   HN3 1068   1.111   5.672   6.120 -1.5119 -0.1341 -0.7684
    9SAPS   C12 1069   0.994   5.677   6.298 -0.3498 -0.2466  0.6843
    9SAPS  H12A 1070   0.926   5.746   6.250 -0.2840 -1.1946 -0.8524
    9SAPS   C13 1071   0.895   5.591   6.381  0.1677  0.0612  0.4196
    9SAPS  O13A 1072   0.902   5.462   6.376 -0.6084 -0.0572 -0.1122
    9SAPS  O13B 1073   0.836   5.649   6.475 -0.7183  0.3188 -0.0507
    9SAPS   C11 1074   1.090   5.753   6.385 -0.3250  0.5723  0.1607
    9SAPS  H11A 1075   1.160   5.676   6.424  2.3840  0.9550 -3.3629
    9SAPS  H11B 1076   1.028   5.794   6.467 -0.5671  0.0594  0.2375
    9SAPS     P 1077   1.318   5.861   6.312  0.1123  0.0752  0.1313
    9SAPS   O13 1078   1.365   5.737   6.246  0.1874  0.3570 -0.0033
    9SAPS   O14 1079   1.347   5.988   6.249 -0.3704 -0.3834 -0.2235
    9SAPS   O12 1080   1.165   5.858   6.321 -0.4604 -0.0626 -0.0891
    9SAPS   O11 1081   1.350   5.854   6.470  0.2078  0.3347 -0.0437
    9SAPS    C1 1082   1.378   5.966   6.543 -0.2389 -0.1336 -0.7233
    9SAPS    HA 1083   1.321   6.054   6.508 -1.4426 -1.6538 -2.7662
    9SAPS    HB 1084   1.365   5.943   6.651 -0.9611  1.3222 -0.4892
    9SAPS    C2 1085   1.528   6.014   6.532  0.0700  0.4528 -0.2961
    9SAPS    HS 1086   1.537   6.051   6.428 -1.5185  1.5296 -0.0943
    9SAPS   O21 1087   1.614   5.905   6.562  0.3686 -0.1934  0.0975
    9SAPS   C21 1088   1.720   5.912   6.494 -1.0362 -0.0481  0.1576
    9SAPS   O22 1089   1.764   6.003   6.427  0.1971 -0.2005  0.3493
    9SAPS   C22 1090   1.809   5.791   6.528  0.4331 -0.3691  0.0157
    9SAPS   H2R 1091   1.827   5.797   6.638  1.6624  0.7158 -0.2227
    9SAPS   H2S 1092   1.757   5.695   6.504  1.2078 -0.2801 -2.2633
    9SAPS    C3 1093   1.555   6.126   6.639 -0.8063 -0.2473 -0.3343
    9SAPS    HX 1094   1.484   6.206   6.609 -1.3771 -1.1915 -1.5777
    9SAPS    HY 1095   1.647   6.188   6.645 -0.7693 -0.3434  0.1338
    9SAPS   O31 1096   1.513   6.081   6.782 -0.2012 -0.2984 -0.6005
    9SAPS   C31 1097   1.610   6.058   6.867 -0.3863  0.1617  0.3084
    9SAPS   O32 1098   1.728   6.062   6.838  0.0802 -0.0885  0.3838
    9SAPS   C32 1099   1.551   6.027   7.000  0.7213 -1.1007  0.3001
    9SAPS   H2X 1100   1.515   5.922   7.003  1.3872 -1.3718 -0.8489
    9SAPS   H2Y 1101   1.470   6.098   7.026  1.0206 -1.0335  1.0853
    9SAPS   C23 1102   1.947   5.800   6.449  0.3820  0.9982  0.1891
    9SAPS   H3R 1103   1.973   5.908   6.445 -1.8478  1.6001  0.4914
    9SAPS   H3S 1104   1.923   5.768   6.345  0.3179  2.3868 -0.2443
    9SAPS   C24 1105   2.055   5.703   6.505 -0.2669  0.2120  0.3518
    9SAPS   H4R 1106   2.130   5.682   6.426 -0.3476  0.4796  0.2002
    9SAPS   H4S 1107   2.019   5.603   6.537  1.0344 -0.8075 -1.2038
    9SAPS   C25 1108   2.127   5.778   6.620  0.2597 -0.3173  0.5468
    9SAPS   H5R 1109   2.186   5.866   6.589 -0.4532  0.0008  0.0628
    9SAPS   C26 1110   2.104   5.768   6.755 -0.0590 -0.7330  0.8238
    9SAPS   H6R 1111   2.165   5.831   6.821 -0.5569  0.2791  0.3383
    9SAPS   C27 1112   2.013   5.675   6.825 -0.1232  0.2490  0.5546
    9SAPS   H7R 1113   2.091   5.619   6.881 -0.1809  1.0622  1.4905
    9SAPS   H7S 1114   1.956   5.616   6.751 -0.0572  2.5580 -1.4349
    9SAPS   C28 1115   1.908   5.734   6.905 -0.0670  0.8909  0.0793
    9SAPS   H8R 1116   1.837   5.796   6.848 -1.5712 -2.1387 -1.5647
    9SAPS   C29 1117   1.895   5.703   7.034  0.3011  0.1903 -0.3709
    9SAPS   H9R 1118   1.819   5.757   7.093  1.3033  2.3943 -0.9943
    9SAPS  C210 1119   1.977   5.613   7.123 -0.3509 -0.0649  0.8338
    9SAPS  H10R 1120   2.051   5.676   7.177  1.3135 -1.0074 -0.2576
    9SAPS  H10S 1121   2.038   5.540   7.066 -0.7249 -2.7529  3.6108
    9SAPS  C211 1122   1.889   5.539   7.219 -0.1831 -0.3922 -0.5958
    9SAPS  H11R 1123   1.831   5.456   7.177 -1.4242 -1.6040  3.1241
    9SAPS  C212 1124   1.877   5.558   7.355  0.3674 -0.0952 -0.2756
    9SAPS  H12R 1125   1.813   5.492   7.416 -0.6351  0.1101 -1.0756
    9SAPS  C213 1126   1.951   5.658   7.439 -0.7751  0.0608  0.3362
    9SAPS  H13R 1127   1.873   5.706   7.502 -1.3451  0.3195 -0.5599
    9SAPS  H13S 1128   2.003   5.742   7.388  0.7370 -0.7464  0.4934
    9SAPS  C214 1129   2.049   5.593   7.528 -0.3629  0.3690 -0.1099
    9SAPS  H14R 1130   2.111   5.523   7.471 -0.3504  0.3021 -0.0146
    9SAPS  C215 1131   2.068   5.609   7.661 -0.3200  0.3131  0.0372
    9SAPS  H15R 1132   2.148   5.560   7.718 -0.7043  0.1738  0.4620
    9SAPS  C216 1133   1.983   5.711   7.738  0.3601 -0.6031  0.5254
    9SAPS  H16R 1134   1.954   5.803   7.683 -0.3611 -0.4878  1.0775
    9SAPS  H16S 1135   2.019   5.731   7.841 -1.9004  0.1660  1.2312
    9SAPS  C217 1136   1.849   5.650   7.775  0.0198  0.0476 -0.6834
    9SAPS  H17R 1137   1.786   5.655   7.683  1.4314  3.2754 -1.6056
    9SAPS  H17S 1138   1.808   5.720   7.851 -0.2616  1.1111 -1.7751
    9SAPS  C218 1139   1.851   5.504   7.838  0.2457 -0.1121  0.0492
    9SAPS  H18R 1140   1.907   5.498   7.933 -1.9994 -1.8860  1.3625
    9SAPS  H18S 1141   1.889   5.432   7.762  0.4455  0.9557 -0.8919
    9SAPS  C219 1142   1.703   5.464   7.870 -0.2086 -0.3872  0.3869
    9SAPS  H19R 1143   1.641   5.428   7.786 -0.1665  0.6742 -0.1118
    9SAPS  H19S 1144   1.643   5.555   7.891 -0.1256  0.2933 -2.0977
    9SAPS  C220 1145   1.705   5.365   7.981  0.3382  0.3233 -0.9072
    9SAPS  H20R 1146   1.769   5.276   7.962 -0.1484 -0.2520  0.0321
    9SAPS  H20S 1147   1.607   5.333   8.024  1.5720  0.6289  2.4412
    9SAPS  H20T 1148   1.756   5.425   8.060  3.0961 -2.3785 -0.4615
    9SAPS   C33 1149   1.666   6.041   7.111  0.8265  0.4342 -0.1515
    9SAPS   H3X 1150   1.713   6.142   7.118 -2.0850  2.0000 -1.4103
    9SAPS   H3Y 1151   1.746   5.966   7.096  3.6962  2.8667  1.7536
    9SAPS   C34 1152   1.616   6.001   7.252 -0.4977  0.0366 -0.0954
    9SAPS   H4X 1153   1.578   5.897   7.252  1.0764 -0.5816 -1.2085
    9SAPS   H4Y 1154   1.530   6.064   7.285  1.3658  1.9408  1.4005
    9SAPS   C35 1155   1.721   6.017   7.360 -0.2867 -0.2450  0.3210
    9SAPS   H5X 1156   1.749   6.124   7.356 -1.3504  0.0105 -1.4724
    9SAPS   H5Y 1157   1.806   5.946   7.351 -0.8850 -1.2248  1.9181
    9SAPS   C36 1158   1.659   6.010   7.501 -0.0027  0.1752 -0.1783
    9SAPS   H6X 1159   1.628   5.904   7.515  0.6430  0.1550  1.3851
    9SAPS   H6Y 1160   1.571   6.073   7.526 -2.8685 -4.3629  2.7623
    9SAPS   C37 1161   1.757   6.042   7.611 -0.3123  0.7184  0.0195
    9SAPS   H7X 1162   1.776   6.152   7.609  0.6912  0.5471 -0.7789
    9SAPS   H7Y 1163   1.855   5.991   7.596  0.7656  1.7909  2.6364
    9SAPS   C38 1164   1.701   5.995   7.747  0.0969  0.0094 -0.5846
    9SAPS   H8X 1165   1.713   5.885   7.756  0.4590  0.1343  0.6923
    9SAPS   H8Y 1166   1.592   6.013   7.752 -0.0152 -0.2338 -1.7824
    9SAPS   C39 1167   1.768   6.059   7.871 -0.0210  0.1874  0.0420
    9SAPS   H9X 1168   1.876   6.032   7.867 -0.2189 -0.5491 -0.5927
    9SAPS   H9Y 1169   1.730   6.017   7.967 -0.4684  2.2104  0.7990
    9SAPS  C310 1170   1.755   6.215   7.879 -0.1367 -0.0574 -0.4528
    9SAPS  H10X 1171   1.648   6.243   7.871  0.4356  2.7083  0.4513
    9SAPS  H10Y 1172   1.802   6.267   7.793  0.4125  0.4223  0.1253
    9SAPS  C311 1173   1.803   6.281   8.011 -0.5145  0.0184 -0.5141
    9SAPS  H11X 1174   1.758   6.383   8.007 -0.3478  0.0550 -1.9686
    9SAPS  H11Y 1175   1.913   6.291   7.997 -0.2645 -0.8931  0.6788
    9SAPS  C312 1176   1.772   6.210   8.142  0.1114 -0.3391 -0.2771
    9SAPS  H12X 1177   1.812   6.106   8.144 -1.2446 -0.8772 -0.0796
    9SAPS  H12Y 1178   1.662   6.196   8.149  0.1696  0.0086  2.0180
    9SAPS  C313 1179   1.838   6.284   8.264  0.5731 -0.3031  0.2164
    9SAPS  H13X 1180   1.795   6.386   8.264  0.6806 -0.0997  4.0672
    9SAPS  H13Y 1181   1.948   6.292   8.252  0.5873  0.0038  0.5446
    9SAPS  C314 1182   1.801   6.220   8.401 -0.5903 -0.8469 -0.2052
    9SAPS  H14X 1183   1.836   6.114   8.401  0.9596 -0.3773  0.7975
    9SAPS  H14Y 1184   1.692   6.209   8.416 -1.1078  3.1571  0.0335
    9SAPS  C315 1185   1.851   6.301   8.524 -0.5182 -0.0151  0.2150
    9SAPS  H15X 1186   1.816   6.240   8.610  0.7375 -1.4086 -0.2247
    9SAPS  H15Y 1187   1.806   6.403   8.523  2.2399  1.3164  1.3017
    9SAPS  C316 1188   2.007   6.316   8.524  0.6426  0.7519 -0.4812
    9SAPS  H16X 1189   2.035   6.393   8.449  0.7231  2.4024  1.1656
    9SAPS  H16Y 1190   2.060   6.221   8.503 -0.6289 -0.1824  0.3349
    9SAPS  C317 1191   2.063   6.376   8.653  0.5998  0.2912 -0.4058
    9SAPS  H17X 1192   1.982   6.414   8.719  2.2977  0.4774  1.6773
    9SAPS  H17Y 1193   2.133   6.459   8.629  2.1079 -0.7110  0.3339
    9SAPS  C318 1194   2.165   6.277   8.718 -0.1908 -0.1375 -0.2235
    9SAPS  H18X 1195   2.248   6.252   8.649  0.2696  1.7400 -0.4074
    9SAPS  H18Y 1196   2.120   6.180   8.749  0.5641 -1.0490 -1.8916
    9SAPS  H18Z 1197   2.204   6.326   8.810 -0.5767 -0.3843  0.0774
   10SAPS     N 1198   0.846   6.489   6.274  0.5102 -0.4775  0.3947
   10SAPS   HN1 1199   0.759   6.536   6.242  0.2342 -0.1754  1.5290
   10SAPS   HN2 1200   0.884   6.411   6.216  0.6301  0.9897 -1.5897
   10SAPS   HN3 1201   0.834   6.454   6.372 -1.1151 -1.0900 -0.0018
   10SAPS   C12 1202   0.965   6.584   6.305  0.0132 -0.3910  0.5352
   10SAPS  H12A 1203   1.055   6.525   6.306  1.1164  1.1596  2.8175
   10SAPS   C13 1204   0.981   6.690   6.191 -0.1645  0.4124  0.1908
   10SAPS  O13A 1205   0.912   6.685   6.083 -0.4193  0.0859 -0.3547
   10SAPS  O13B 1206   1.083   6.765   6.200  0.4313  0.6842  0.5053
   10SAPS   C11 1207   0.941   6.654   6.439  0.4355  0.5339  0.0144
   10SAPS  H11A 1208   0.857   6.726   6.447 -0.1639 -0.2798  1.5855
   10SAPS  H11B 1209   1.036   6.709   6.457  0.5895  0.5864 -0.9394
   10SAPS     P 1210   1.007   6.502   6.641  0.3562 -0.2565  0.0100
   10SAPS   O13 1211   0.953   6.379   6.684  0.0730  0.2764 -0.1032
   10SAPS   O14 1212   1.140   6.498   6.567  0.0827  0.1379  0.8801
   10SAPS   O12 1213   0.906   6.561   6.541 -0.0122 -0.0627  0.0590
   10SAPS   O11 1214   1.019   6.604   6.759 -0.0679 -0.3766  0.1278
   10SAPS    C1 1215   1.112   6.716   6.757  0.1843 -0.0189  0.2562
   10SAPS    HA 1216   1.208   6.674   6.791  0.0884  0.2998  0.9283
   10SAPS    HB 1217   1.129   6.759   6.656 -0.9796 -0.3571 -0.0991
   10SAPS    C2 1218   1.074   6.826   6.867 -0.5802 -0.0666  0.0953
   10SAPS    HS 1219   1.146   6.911   6.865  0.8643 -1.1878  1.6397
   10SAPS   O21 1220   1.063   6.760   6.994 -0.3704 -0.3147  0.0303
   10SAPS   C21 1221   1.178   6.729   7.060 -0.4093 -0.3987  0.1950
   10SAPS   O22 1222   1.287   6.774   7.031  0.1941  0.3697  0.3077
   10SAPS   C22 1223   1.149   6.636   7.181  0.0098 -0.2966 -0.5842
   10SAPS   H2R 1224   1.041   6.618   7.202  0.4526 -1.1655  1.1705
   10SAPS   H2S 1225   1.189   6.537   7.150 -2.6361 -1.4501 -0.6087
   10SAPS    C3 1226   0.935   6.887   6.835 -0.4502 -0.5281  0.5048
   10SAPS    HX 1227   0.860   6.813   6.801  0.1736 -1.5961  1.3661
   10SAPS    HY 1228   0.948   6.954   6.748 -1.2210 -1.3226 -0.2301
   10SAPS   O31 1229   0.886   6.973   6.937  0.0761  0.0602  0.3219
   10SAPS   C31 1230   0.784   6.931   7.006  0.8482  0.2131  0.1762
   10SAPS   O32 1231   0.740   6.816   7.008  0.1338  0.7378  0.1356
   10SAPS   C32 1232   0.737   7.039   7.097 -0.4188 -0.9035  0.0893
   10SAPS   H2X 1233   0.703   7.121   7.030  0.9627  0.1271  0.6061
   10SAPS   H2Y 1234   0.827   7.083   7.144  1.4187 -0.7514 -3.2685
   10SAPS   C23 1235   1.227   6.701   7.304 -0.2870 -0.0972 -0.2024
   10SAPS   H3R 1236   1.192   6.806   7.311  1.4489  0.5365 -0.4126
   10SAPS   H3S 1237   1.338   6.703   7.299 -0.2735  1.9802  0.0395
   10SAPS   C24 1238   1.172   6.632   7.430 -0.2565 -0.4638 -1.0633
   10SAPS   H4R 1239   1.189   6.522   7.425 -2.2348 -0.9238  0.9770
   10SAPS   H4S 1240   1.063   6.621   7.414 -0.4680  1.2740 -0.9324
   10SAPS   C25 1241   1.213   6.684   7.564  0.0724  1.0305  0.0750
   10SAPS   H5R 1242   1.318   6.659   7.584 -0.3468 -1.3552 -0.3452
   10SAPS   C26 1243   1.141   6.761   7.655 -0.0564  0.0100 -0.2976
   10SAPS   H6R 1244   1.194   6.795   7.745  0.1711  0.1145 -0.4708
   10SAPS   C27 1245   1.006   6.817   7.633  0.2668 -0.6294  0.1498
   10SAPS   H7R 1246   0.939   6.771   7.709 -1.4180  0.8188 -0.3777
   10SAPS   H7S 1247   0.962   6.793   7.534 -0.7021  1.1603  0.0991
   10SAPS   C28 1248   1.004   6.971   7.644 -0.8472 -0.1822  0.9120
   10SAPS   H8R 1249   0.996   7.028   7.551 -0.5213 -2.0314 -0.2937
   10SAPS   C29 1250   1.015   7.044   7.753  0.2487  0.1725  0.0829
   10SAPS   H9R 1251   1.036   7.152   7.747 -1.4772  0.5207  0.0321
   10SAPS  C210 1252   1.030   6.986   7.892  0.4135  0.3659  0.1088
   10SAPS  H10R 1253   1.114   6.914   7.891  0.2641  0.1602 -1.5192
   10SAPS  H10S 1254   0.949   6.919   7.926  1.3740 -0.4108  0.9356
   10SAPS  C211 1255   1.058   7.088   7.996  0.0777 -0.0442 -0.0499
   10SAPS  H11R 1256   1.026   7.192   7.979 -0.7103 -0.4035 -0.8201
   10SAPS  C212 1257   1.126   7.065   8.111  0.5174 -0.2489 -0.0868
   10SAPS  H12R 1258   1.152   7.153   8.171  3.3257  0.7160 -2.4378
   10SAPS  C213 1259   1.187   6.945   8.175  0.2750 -0.3515  0.2647
   10SAPS  H13R 1260   1.242   6.972   8.267  1.6654 -1.1908 -0.2902
   10SAPS  H13S 1261   1.243   6.887   8.098  1.2344  0.7768  0.0809
   10SAPS  C214 1262   1.083   6.856   8.215  0.1707 -0.2486 -0.2422
   10SAPS  H14R 1263   0.991   6.866   8.156 -0.0627  0.0613  0.1726
   10SAPS  C215 1264   1.081   6.774   8.320  0.3547  0.2038 -0.0921
   10SAPS  H15R 1265   0.988   6.720   8.345  1.0225 -0.8619  0.1613
   10SAPS  C216 1266   1.194   6.755   8.414 -0.1711 -0.2594  0.8019
   10SAPS  H16R 1267   1.288   6.780   8.363 -0.5238  1.2426  0.8573
   10SAPS  H16S 1268   1.183   6.648   8.445 -0.6152  0.3525  2.9145
   10SAPS  C217 1269   1.183   6.846   8.537  0.2799  0.1035  0.1077
   10SAPS  H17R 1270   1.177   6.951   8.503 -0.2124 -0.9252 -3.3093
   10SAPS  H17S 1271   1.279   6.833   8.590 -0.7166  0.6640  2.1553
   10SAPS  C218 1272   1.076   6.813   8.646 -0.6154  0.6011 -0.1211
   10SAPS  H18R 1273   1.071   6.702   8.659 -0.6716  0.6463  0.2442
   10SAPS  H18S 1274   0.976   6.857   8.626  0.0394  2.8542  1.2322
   10SAPS  C219 1275   1.118   6.881   8.780 -0.6723 -0.3393  0.1802
   10SAPS  H19R 1276   1.204   6.824   8.822  0.7796 -0.5637 -2.8610
   10SAPS  H19S 1277   1.033   6.876   8.852 -2.2252  0.3570 -1.5452
   10SAPS  C220 1278   1.162   7.030   8.765  0.5980 -0.1630  0.6749
   10SAPS  H20R 1279   1.241   7.042   8.687 -0.1931  1.0886  0.0308
   10SAPS  H20S 1280   1.191   7.072   8.863  0.6348  1.8885 -0.1604
   10SAPS  H20T 1281   1.076   7.084   8.720  1.1063 -1.5625 -2.2667
   10SAPS   C33 1282   0.631   7.008   7.197 -0.1472  0.0243  0.3265
   10SAPS   H3X 1283   0.547   6.961   7.142 -2.0872  2.7059  0.8080
   10SAPS   H3Y 1284   0.601   7.097   7.255  0.1335 -1.1513  2.3988
   10SAPS   C34 1285   0.678   6.919   7.319  0.3743 -0.5506 -0.0961
   10SAPS   H4X 1286   0.769   6.973   7.352  0.4295 -1.0722  0.6180
   10SAPS   H4Y 1287   0.713   6.822   7.280 -0.0455 -1.3063  1.3345
   10SAPS   C35 1288   0.576   6.906   7.429 -0.2731  0.6205 -0.7778
   10SAPS   H5X 1289   0.510   6.825   7.392 -0.2115 -0.5043  1.4535
   10SAPS   H5Y 1290   0.506   6.989   7.453 -0.0779  0.9219 -1.2206
   10SAPS   C36 1291   0.651   6.855   7.552 -0.0626 -0.6860  0.4970
   10SAPS   H6X 1292   0.760   6.877   7.551 -0.5668  2.2866 -2.1554
   10SAPS   H6Y 1293   0.630   6.747   7.568  0.0256 -0.9664 -1.1687
   10SAPS   C37 1294   0.607   6.940   7.672 -0.9282 -0.4504  0.2997
   10SAPS   H7X 1295   0.497   6.956   7.677 -1.2250 -1.9269 -0.9953
   10SAPS   H7Y 1296   0.658   7.039   7.663 -0.2035 -0.9586 -1.4551
   10SAPS   C38 1297   0.649   6.878   7.802 -0.8068  0.3411  0.2854
   10SAPS   H8X 1298   0.752   6.836   7.802 -0.7029  0.3721  3.5452
   10SAPS   H8Y 1299   0.579   6.793   7.817 -0.5532 -0.1265 -1.0648
   10SAPS   C39 1300   0.637   6.985   7.911  0.3010 -0.5318  0.2191
   10SAPS   H9X 1301   0.527   7.003   7.909  0.4200  0.2609  0.5271
   10SAPS   H9Y 1302   0.698   7.073   7.885  1.1978 -0.5668  2.0793
   10SAPS  C310 1303   0.675   6.927   8.048 -0.1992  0.3188  0.2853
   10SAPS  H10X 1304   0.784   6.914   8.061 -0.5012 -1.3116  1.4418
   10SAPS  H10Y 1305   0.637   6.823   8.051  1.3318 -0.4351 -2.5818
   10SAPS  C311 1306   0.613   7.008   8.164 -0.2199 -0.7704 -0.6119
   10SAPS  H11X 1307   0.503   6.999   8.157 -0.0297 -2.8578 -1.7900
   10SAPS  H11Y 1308   0.645   7.113   8.147  0.9585 -1.1365 -0.8083
   10SAPS  C312 1309   0.666   6.967   8.306  0.0054 -0.0290 -0.4013
   10SAPS  H12X 1310   0.693   6.860   8.294  0.0870 -0.2169  1.1968
   10SAPS  H12Y 1311   0.579   6.969   8.376 -0.3103 -0.8493 -0.7608
   10SAPS  C313 1312   0.778   7.055   8.361 -0.3092 -0.0216 -0.0414
   10SAPS  H13X 1313   0.805   7.125   8.278 -2.3044  1.4041  0.4326
   10SAPS  H13Y 1314   0.854   6.987   8.403  0.8458  1.0767 -0.2752
   10SAPS  C314 1315   0.729   7.152   8.471  0.2102  0.2244 -0.2795
   10SAPS  H14X 1316   0.745   7.089   8.561  0.5778 -0.1151 -0.5837
   10SAPS  H14Y 1317   0.621   7.160   8.450 -0.1536 -1.0874  0.9655
   10SAPS  C315 1318   0.794   7.293   8.470  0.4305  0.7827 -0.2752
   10SAPS  H15X 1319   0.722   7.350   8.533 -1.3848 -1.3276 -0.3168
   10SAPS  H15Y 1320   0.782   7.335   8.368  1.0388  2.2006  0.2099
   10SAPS  C316 1321   0.941   7.301   8.509 -0.2986  0.2995  0.5329
   10SAPS  H16X 1322   1.003   7.243   8.437  0.4947  1.4479  0.2702
   10SAPS  H16Y 1323   0.944   7.254   8.610 -0.5831  1.2833  1.0086
   10SAPS  C317 1324   0.994   7.441   8.514  0.7884 -0.0633 -0.6330
   10SAPS  H17X 1325   1.087   7.446   8.575  0.7166 -1.5037 -0.3493
   10SAPS  H17Y 1326   0.922   7.497   8.578 -0.3893 -1.3364 -0.7881
   10SAPS  C318 1327   0.998   7.513   8.376  0.1127  1.1201 -0.2391
   10SAPS  H18X 1328   0.900   7.524   8.325 -0.5797  0.8528  1.0012
   10SAPS  H18Y 1329   1.062   7.457   8.305  1.9069  0.4478  1.8031
   10SAPS  H18Z 1330   1.045   7.610   8.401  0.1870  0.7194  1.2662
   11SAPS     N 1331   0.965   1.122   5.903  0.3902  0.3175  0.1787
   11SAPS   HN1 1332   0.904   1.174   5.969  1.0457  0.0592  1.0033
   11SAPS   HN2 1333   0.900   1.065   5.845  0.8770  1.1110 -1.2004
   11SAPS   HN3 1334   1.035   1.067   5.956 -0.0877  1.5186  2.1391
   11SAPS   C12 1335   1.044   1.228   5.830  0.4707  0.2152 -0.3244
   11SAPS  H12A 1336   1.123   1.240   5.903  0.9392 -2.2791 -0.3301
   11SAPS   C13 1337   1.098   1.185   5.697 -0.3296  1.0518  0.1201
   11SAPS  O13A 1338   1.105   1.060   5.677  0.0113 -0.3613  0.2242
   11SAPS  O13B 1339   1.168   1.255   5.621 -0.3031 -0.0450 -0.2665
   11SAPS   C11 1340   0.968   1.355   5.823  0.7620 -0.1564 -0.0123
   11SAPS  H11A 1341   0.900   1.372   5.910 -2.1909  2.1443 -2.5670
   11SAPS  H11B 1342   0.899   1.345   5.736 -0.3619 -0.0411  0.8378
   11SAPS     P 1343   1.129   1.534   5.924  0.5049  0.2614 -0.0522
   11SAPS   O13 1344   1.235   1.444   5.972  0.4560  0.3313 -0.2100
   11SAPS   O14 1345   1.181   1.668   5.879  0.2920  0.0988  0.2266
   11SAPS   O12 1346   1.054   1.470   5.797  1.0025 -0.4434  0.1952
   11SAPS   O11 1347   1.005   1.540   6.023 -0.7276 -0.5480 -0.2456
   11SAPS    C1 1348   0.924   1.660   6.032  0.4648  0.3674 -0.3052
   11SAPS    HA 1349   0.906   1.710   5.934  0.1342  0.2673 -0.2949
   11SAPS    HB 1350   0.828   1.623   6.073  2.0578 -0.0301  3.4194
   11SAPS    C2 1351   0.983   1.756   6.136 -0.8162  0.0203 -0.7393
   11SAPS    HS 1352   1.083   1.781   6.094 -0.2478 -0.4717  0.2770
   11SAPS   O21 1353   0.987   1.692   6.262 -0.3302  0.5291 -0.1751
   11SAPS   C21 1354   1.096   1.734   6.331  0.0184  0.2000 -0.0669
   11SAPS   O22 1355   1.169   1.819   6.290 -0.4004 -0.0631 -0.5147
   11SAPS   C22 1356   1.114   1.638   6.450 -0.8807 -0.4514  0.2762
   11SAPS   H2R 1357   1.114   1.532   6.417  0.6795 -0.6546  0.8245
   11SAPS   H2S 1358   1.216   1.662   6.488 -1.4084 -0.8613  2.0051
   11SAPS    C3 1359   0.899   1.883   6.125 -0.4721  0.5305 -0.8024
   11SAPS    HX 1360   0.797   1.856   6.158 -0.3565  2.9674  1.9804
   11SAPS    HY 1361   0.892   1.926   6.023  1.2190 -0.1091 -1.2152
   11SAPS   O31 1362   0.946   1.985   6.219  0.0658  0.1288  0.4041
   11SAPS   C31 1363   1.041   2.067   6.176  0.9661  0.1243  0.0207
   11SAPS   O32 1364   1.086   2.070   6.057  0.3366 -0.1682 -0.1197
   11SAPS   C32 1365   1.093   2.161   6.288 -0.7273  0.1406  0.0000
   11SAPS   H2X 1366   1.167   2.123   6.362 -0.0136  1.1796 -0.1518
   11SAPS   H2Y 1367   0.999   2.169   6.347 -0.1908  0.4699  0.8418
   11SAPS   C23 1368   1.018   1.671   6.571  0.0036  0.0639  0.6532
   11SAPS   H3R 1369   0.920   1.679   6.519 -0.1612 -1.3373  0.7094
   11SAPS   H3S 1370   1.061   1.765   6.610  0.4601  0.1073  0.0539
   11SAPS   C24 1371   0.993   1.562   6.678 -0.1852  0.5718  0.3380
   11SAPS   H4R 1372   1.085   1.508   6.709  1.1082  1.8748 -1.0305
   11SAPS   H4S 1373   0.938   1.480   6.628  1.2013  0.2713 -0.7603
   11SAPS   C25 1374   0.912   1.613   6.794  0.3962  0.3430 -0.0566
   11SAPS   H5R 1375   0.806   1.607   6.766  0.8383  1.1045 -2.0462
   11SAPS   C26 1376   0.952   1.626   6.920 -0.1154  0.8858  0.4495
   11SAPS   H6R 1377   0.878   1.673   6.987 -1.3076  0.1977 -0.3449
   11SAPS   C27 1378   1.091   1.601   6.983  0.5103  0.0270 -0.2816
   11SAPS   H7R 1379   1.142   1.699   6.972 -0.0334  0.4405  0.7967
   11SAPS   H7S 1380   1.153   1.530   6.924  0.2266 -1.6435  1.3301
   11SAPS   C28 1381   1.101   1.565   7.134  0.0623 -0.2695  0.6716
   11SAPS   H8R 1382   1.167   1.630   7.195  1.7335 -0.8505 -0.4584
   11SAPS   C29 1383   1.036   1.465   7.190 -0.0129 -0.1442  0.2787
   11SAPS   H9R 1384   1.049   1.451   7.298  1.8527 -3.2698 -0.2252
   11SAPS  C210 1385   0.934   1.373   7.123  0.5105  0.6739 -0.0510
   11SAPS  H10R 1386   0.969   1.269   7.136  2.6139  1.0057 -2.2434
   11SAPS  H10S 1387   0.934   1.374   7.012 -1.5688 -2.3082 -0.1837
   11SAPS  C211 1388   0.791   1.403   7.154 -0.2212 -0.4340  0.3129
   11SAPS  H11R 1389   0.724   1.432   7.072 -0.6288  2.5540  1.5580
   11SAPS  C212 1390   0.723   1.357   7.257  0.1705  0.3223  0.0677
   11SAPS  H12R 1391   0.616   1.375   7.272  0.2397 -0.2640  1.4752
   11SAPS  C213 1392   0.783   1.267   7.364  0.3799  0.0355 -0.0542
   11SAPS  H13R 1393   0.888   1.241   7.338  0.5194 -0.6208  1.1054
   11SAPS  H13S 1394   0.720   1.176   7.380 -0.4065  0.5478 -0.2122
   11SAPS  C214 1395   0.777   1.329   7.509 -0.0565 -0.1869  0.2191
   11SAPS  H14R 1396   0.697   1.403   7.520  0.6435  0.5346  0.5856
   11SAPS  C215 1397   0.840   1.288   7.622  0.6369 -0.2832 -0.1025
   11SAPS  H15R 1398   0.812   1.330   7.719 -0.7316  1.7410 -1.2947
   11SAPS  C216 1399   0.940   1.179   7.620  0.3127 -0.4582  0.3678
   11SAPS  H16R 1400   1.029   1.207   7.680  0.8078  0.9585 -0.9584
   11SAPS  H16S 1401   0.980   1.155   7.520 -0.5576  1.2960 -0.4449
   11SAPS  C217 1402   0.877   1.042   7.657 -0.6608 -0.2245  0.3854
   11SAPS  H17R 1403   0.956   0.966   7.641 -1.6439 -0.9203 -1.4900
   11SAPS  H17S 1404   0.790   1.016   7.593 -0.1130 -1.0170 -0.0580
   11SAPS  C218 1405   0.836   1.042   7.806  0.3886  0.4621 -0.7641
   11SAPS  H18R 1406   0.776   0.949   7.810  0.1323  0.6507  2.5656
   11SAPS  H18S 1407   0.773   1.130   7.831 -2.3835 -1.0540 -1.8689
   11SAPS  C219 1408   0.942   1.019   7.910 -0.4062 -0.6880 -0.0709
   11SAPS  H19R 1409   0.999   1.114   7.920  0.0170 -1.1126  2.0397
   11SAPS  H19S 1410   1.011   0.939   7.874 -0.5394 -0.7923 -0.0976
   11SAPS  C220 1411   0.899   0.981   8.053  0.3389  0.3139 -0.0334
   11SAPS  H20R 1412   0.846   0.883   8.054  1.5188 -0.3718 -1.8407
   11SAPS  H20S 1413   0.833   1.062   8.093  1.2164  1.0325 -0.0169
   11SAPS  H20T 1414   0.984   0.958   8.120 -1.3067  1.0515  2.4864
   11SAPS   C33 1415   1.144   2.294   6.230 -0.8942  0.6476  0.4170
   11SAPS   H3X 1416   1.081   2.323   6.143 -1.3515 -0.6641  0.2889
   11SAPS   H3Y 1417   1.247   2.268   6.197  0.0286  0.2315  3.3391
   11SAPS   C34 1418   1.153   2.410   6.329 -0.0002  0.1651  0.3938
   11SAPS   H4X 1419   1.048   2.442   6.339  0.5587  1.6192  2.1633
   11SAPS   H4Y 1420   1.215   2.492   6.287  0.8747  0.3651  1.9967
   11SAPS   C35 1421   1.212   2.373   6.470 -0.8063 -0.2535  0.0678
   11SAPS   H5X 1422   1.312   2.330   6.446  0.1236  1.7208  0.1762
   11SAPS   H5Y 1423   1.141   2.299   6.512 -0.7609  0.0854  0.7620
   11SAPS   C36 1424   1.225   2.500   6.557 -0.3435  0.0749  0.5526
   11SAPS   H6X 1425   1.124   2.541   6.580 -0.1250 -1.0072  4.0204
   11SAPS   H6Y 1426   1.276   2.577   6.494  0.6545 -0.5490  0.5795
   11SAPS   C37 1427   1.323   2.494   6.673  0.2116  1.0202 -0.1334
   11SAPS   H7X 1428   1.366   2.595   6.691  0.1046  1.0250  0.0982
   11SAPS   H7Y 1429   1.414   2.432   6.652  0.6780  2.3980 -2.5001
   11SAPS   C38 1430   1.263   2.453   6.809 -0.3610 -0.9774 -0.2541
   11SAPS   H8X 1431   1.227   2.348   6.817  0.4983 -1.4060 -1.6490
   11SAPS   H8Y 1432   1.186   2.528   6.835  0.8091  0.3884 -0.6402
   11SAPS   C39 1433   1.382   2.473   6.913 -0.4751  0.1920  0.0087
   11SAPS   H9X 1434   1.418   2.578   6.920 -1.5088  0.4356  2.2986
   11SAPS   H9Y 1435   1.466   2.404   6.892 -1.4385 -0.9017 -0.3365
   11SAPS  C310 1436   1.334   2.437   7.056 -0.3388 -0.4697 -0.5073
   11SAPS  H10X 1437   1.312   2.329   7.058 -2.2740 -0.1915 -2.6258
   11SAPS  H10Y 1438   1.241   2.497   7.065 -1.3712 -2.1998  1.1197
   11SAPS  C311 1439   1.442   2.471   7.161 -0.4644  0.6017  0.7177
   11SAPS  H11X 1440   1.460   2.581   7.156  2.3341  0.2151  1.1653
   11SAPS  H11Y 1441   1.531   2.411   7.134 -0.9026  0.7539 -1.2285
   11SAPS  C312 1442   1.419   2.421   7.305 -0.3778 -0.7182  0.5266
   11SAPS  H12X 1443   1.419   2.310   7.307  3.2385 -1.0252 -2.8077
   11SAPS  H12Y 1444   1.319   2.454   7.340  0.4635  1.4190  1.0556
   11SAPS  C313 1445   1.528   2.471   7.401 -0.2837  0.4921  0.1513
   11SAPS  H13X 1446   1.619   2.409   7.387  0.5430  1.2935  1.6571
   11SAPS  H13Y 1447   1.499   2.473   7.508  0.7495  1.4548  0.4390
   11SAPS  C314 1448   1.576   2.615   7.377 -0.3294 -0.6930  0.1470
   11SAPS  H14X 1449   1.479   2.670   7.374 -0.9876 -1.8129  0.2263
   11SAPS  H14Y 1450   1.633   2.622   7.282  0.9904  0.0292  0.9732
   11SAPS  C315 1451   1.672   2.665   7.480  0.7099 -0.0431 -0.3025
   11SAPS  H15X 1452   1.770   2.614   7.491 -0.2903 -1.3892  4.1363
   11SAPS  H15Y 1453   1.624   2.646   7.578  1.1165 -1.2029 -0.3042
   11SAPS  C316 1454   1.704   2.816   7.468 -0.0972  0.0917  0.1699
   11SAPS  H16X 1455   1.735   2.841   7.365  1.2457  0.0973  0.5595
   11SAPS  H16Y 1456   1.791   2.839   7.533  0.2017  2.6425 -1.0116
   11SAPS  C317 1457   1.601   2.915   7.521  0.2069  0.1882  1.4000
   11SAPS  H17X 1458   1.604   2.900   7.631  1.5624 -0.0957  1.3456
   11SAPS  H17Y 1459   1.501   2.873   7.497  0.2966 -0.6678  2.4749
   11SAPS  C318 1460   1.603   3.062   7.478 -0.0950 -0.3940 -0.1126
   11SAPS  H18X 1461   1.702   3.103   7.508  0.8222 -1.4574 -1.5730
   11SAPS  H18Y 1462   1.524   3.123   7.527  0.7708  0.2826  0.4810
   11SAPS  H18Z 1463   1.599   3.062   7.367  0.4416 -0.0861 -0.1380
   12SAPS     N 1464   0.345   2.857   6.317 -1.0593 -0.2057 -0.1091
   12SAPS   HN1 1465   0.330   2.821   6.414 -1.0378 -1.1810 -0.4552
   12SAPS   HN2 1466   0.285   2.942   6.309  1.1696  1.4705  0.1129
   12SAPS   HN3 1467   0.317   2.781   6.252  2.8675 -0.1839 -2.1264
   12SAPS   C12 1468   0.491   2.891   6.292 -0.0667 -0.0644 -0.3573
   12SAPS  H12A 1469   0.541   2.801   6.327  0.5629  0.8770  1.2777
   12SAPS   C13 1470   0.522   2.908   6.140 -0.2037 -1.1648 -0.5767
   12SAPS  O13A 1471   0.431   2.882   6.057 -0.6945  0.3650 -0.4939
   12SAPS  O13B 1472   0.642   2.934   6.098  0.6990 -0.0980 -1.0461
   12SAPS   C11 1473   0.538   3.014   6.381 -0.1156  0.6914 -0.7116
   12SAPS  H11A 1474   0.648   3.023   6.368  0.1482 -2.3693 -1.1868
   12SAPS  H11B 1475   0.519   2.989   6.487 -0.6329  1.8115 -0.5201
   12SAPS     P 1476   0.531   3.278   6.377  0.1266  0.4252  0.0689
   12SAPS   O13 1477   0.602   3.344   6.270  0.1637 -0.1099  0.0634
   12SAPS   O14 1478   0.438   3.356   6.455 -0.6575 -1.1035 -0.0728
   12SAPS   O12 1479   0.472   3.138   6.336  0.4206 -0.1473  0.4656
   12SAPS   O11 1480   0.643   3.237   6.479  0.0481 -0.3323  0.0715
   12SAPS    C1 1481   0.681   3.332   6.578  0.2789  0.0167 -0.2639
   12SAPS    HA 1482   0.622   3.426   6.585  1.6430  0.8186  0.9048
   12SAPS    HB 1483   0.675   3.269   6.669  0.4653  2.2172  1.3356
   12SAPS    C2 1484   0.836   3.356   6.560 -0.8445 -0.1637  0.0272
   12SAPS    HS 1485   0.851   3.397   6.458 -0.8856 -1.3984 -0.4869
   12SAPS   O21 1486   0.907   3.228   6.584  0.0458 -0.8507 -0.1026
   12SAPS   C21 1487   0.931   3.163   6.470  0.1990  0.2486  0.8950
   12SAPS   O22 1488   0.917   3.210   6.357 -0.0564  0.6216 -0.0891
   12SAPS   C22 1489   0.976   3.019   6.501  0.7067  0.2339  0.5155
   12SAPS   H2R 1490   1.038   3.033   6.592 -1.0765 -0.4096  1.9047
   12SAPS   H2S 1491   0.883   2.969   6.538  0.4519  0.1111 -0.2647
   12SAPS    C3 1492   0.891   3.461   6.667  0.1913 -0.4682  0.6203
   12SAPS    HX 1493   0.835   3.550   6.631  1.1427 -0.0911  0.0191
   12SAPS    HY 1494   1.000   3.482   6.656  0.3387 -2.2889 -2.2192
   12SAPS   O31 1495   0.851   3.434   6.804 -0.3177  0.0861 -0.5019
   12SAPS   C31 1496   0.863   3.530   6.892  0.2370  0.8133 -0.7140
   12SAPS   O32 1497   0.898   3.645   6.874  0.7124 -0.0080 -0.1487
   12SAPS   C32 1498   0.818   3.469   7.021 -0.1165 -0.4168 -0.4162
   12SAPS   H2X 1499   0.897   3.393   7.037  0.2019 -0.3830 -1.7264
   12SAPS   H2Y 1500   0.718   3.422   7.009 -0.1278 -0.0571 -1.9875
   12SAPS   C23 1501   1.031   2.941   6.374 -0.3392 -0.4747 -0.1195
   12SAPS   H3R 1502   1.125   2.993   6.344 -0.9303  0.9580  0.4154
   12SAPS   H3S 1503   0.959   2.965   6.293 -0.5745  0.7998  0.4522
   12SAPS   C24 1504   1.041   2.799   6.401  0.0154  0.6792  0.4519
   12SAPS   H4R 1505   1.052   2.770   6.508  0.3317 -1.1769 -0.0393
   12SAPS   H4S 1506   1.121   2.751   6.341 -0.2443  1.6766 -0.7122
   12SAPS   C25 1507   0.914   2.728   6.363 -0.0452 -0.4126  0.0693
   12SAPS   H5R 1508   0.907   2.719   6.254  0.8828 -1.0797  0.0511
   12SAPS   C26 1509   0.818   2.676   6.439 -0.3254 -0.3974  0.6042
   12SAPS   H6R 1510   0.735   2.631   6.383 -1.3743  3.5682 -1.4538
   12SAPS   C27 1511   0.818   2.674   6.589  0.5079 -0.2431 -0.0122
   12SAPS   H7R 1512   0.914   2.695   6.641  1.1368  0.0031 -1.2529
   12SAPS   H7S 1513   0.804   2.565   6.605 -0.2181 -0.3793 -1.4232
   12SAPS   C28 1514   0.697   2.751   6.646  0.5483 -0.4051  0.1293
   12SAPS   H8R 1515   0.606   2.731   6.587 -0.0889  0.9391  0.6243
   12SAPS   C29 1516   0.700   2.832   6.755  0.0006  0.2448  0.2291
   12SAPS   H9R 1517   0.615   2.900   6.771 -1.2190 -1.2122  0.1542
   12SAPS  C210 1518   0.832   2.868   6.822  0.2576 -0.6096 -0.2652
   12SAPS  H10R 1519   0.921   2.849   6.758  0.6450  0.8089 -0.1945
   12SAPS  H10S 1520   0.848   2.815   6.918  0.0265 -0.2840 -0.0450
   12SAPS  C211 1521   0.834   3.020   6.832 -0.2015  0.3543 -1.0097
   12SAPS  H11R 1522   0.780   3.083   6.760  1.2656  3.2639  0.2518
   12SAPS  C212 1523   0.893   3.100   6.925  0.2428 -0.6577  0.0610
   12SAPS  H12R 1524   0.882   3.208   6.905 -1.7349 -1.0512 -1.2683
   12SAPS  C213 1525   0.985   3.060   7.039 -0.0809 -0.0372 -0.0587
   12SAPS  H13R 1526   1.019   3.146   7.100  1.8734 -0.7035 -0.1097
   12SAPS  H13S 1527   1.082   3.033   6.991 -0.6878 -1.0405 -0.7862
   12SAPS  C214 1528   0.940   2.948   7.137 -0.3683  0.9027  0.5702
   12SAPS  H14R 1529   0.839   2.911   7.112  0.5760 -0.7179 -1.0244
   12SAPS  C215 1530   0.999   2.892   7.239 -0.5893  0.2985  0.1680
   12SAPS  H15R 1531   0.961   2.809   7.300  1.0283 -0.4181  0.2523
   12SAPS  C216 1532   1.142   2.929   7.282 -0.9235  0.8234  0.1032
   12SAPS  H16R 1533   1.145   2.958   7.389 -0.5221 -0.0102  0.3264
   12SAPS  H16S 1534   1.180   3.018   7.228 -0.8815  0.4581 -0.4844
   12SAPS  C217 1535   1.261   2.824   7.257  1.1858 -0.0452 -0.5113
   12SAPS  H17R 1536   1.223   2.729   7.300 -0.9354  1.6070  1.5221
   12SAPS  H17S 1537   1.352   2.845   7.317  0.5836  0.1302  0.3660
   12SAPS  C218 1538   1.282   2.813   7.104  0.2401 -0.4955  0.2814
   12SAPS  H18R 1539   1.180   2.819   7.059  0.9627 -0.1472 -1.3667
   12SAPS  H18S 1540   1.325   2.715   7.076  0.5694 -1.6685  4.2709
   12SAPS  C219 1541   1.374   2.917   7.039 -0.0617  0.5895  0.2267
   12SAPS  H19R 1542   1.322   3.015   7.033  1.1197  1.1773 -0.7113
   12SAPS  H19S 1543   1.386   2.888   6.933 -0.1046  1.3521  0.0095
   12SAPS  C220 1544   1.510   2.943   7.098 -0.0371 -0.2416  0.6272
   12SAPS  H20R 1545   1.553   3.011   7.021 -2.6813 -0.7657 -1.4334
   12SAPS  H20S 1546   1.572   2.850   7.100 -0.8724 -0.9378 -1.9061
   12SAPS  H20T 1547   1.492   2.978   7.201 -3.2763 -2.0450  0.7996
   12SAPS   C33 1548   0.826   3.560   7.144 -0.2253 -0.0435 -0.2136
   12SAPS   H3X 1549   0.739   3.629   7.136 -0.1371 -0.0001 -0.8392
   12SAPS   H3Y 1550   0.908   3.634   7.144 -0.7922  0.6075 -1.5531
   12SAPS   C34 1551   0.812   3.478   7.278 -0.7926  0.1604 -0.4453
   12SAPS   H4X 1552   0.747   3.388   7.271  2.1709 -2.0807 -1.6348
   12SAPS   H4Y 1553   0.768   3.550   7.349 -1.7295  1.1641 -1.9844
   12SAPS   C35 1554   0.943   3.424   7.323  0.5329  1.3249 -0.6085
   12SAPS   H5X 1555   1.000   3.499   7.382 -1.3745  0.4057  2.6408
   12SAPS   H5Y 1556   0.999   3.372   7.242  0.0897  0.7895 -0.5733
   12SAPS   C36 1557   0.906   3.316   7.420  0.2465 -0.5054 -0.9175
   12SAPS   H6X 1558   0.849   3.236   7.367 -1.5888  0.8745 -1.1409
   12SAPS   H6Y 1559   0.846   3.353   7.506  1.1304 -0.7118 -0.1917
   12SAPS   C37 1560   1.029   3.241   7.472 -0.3052  0.1604 -0.4062
   12SAPS   H7X 1561   1.108   3.265   7.397  1.4338  1.5352  1.7441
   12SAPS   H7Y 1562   1.018   3.131   7.459 -0.7409  0.1559 -0.0114
   12SAPS   C38 1563   1.078   3.288   7.612 -0.5028 -0.5748 -0.3014
   12SAPS   H8X 1564   0.991   3.266   7.677 -3.0698  1.8472 -2.6214
   12SAPS   H8Y 1565   1.099   3.397   7.619  0.7380 -0.7608 -0.8516
   12SAPS   C39 1566   1.211   3.232   7.655 -0.2800 -0.3058  0.5184
   12SAPS   H9X 1567   1.291   3.246   7.579  0.3927 -2.8555  0.6673
   12SAPS   H9Y 1568   1.201   3.122   7.659 -0.9401 -0.3607 -1.3085
   12SAPS  C310 1569   1.259   3.283   7.782  0.4197  0.3158  0.2205
   12SAPS  H10X 1570   1.277   3.388   7.750 -0.1057 -0.1924 -1.8815
   12SAPS  H10Y 1571   1.356   3.235   7.807 -0.3733 -0.7815  1.2968
   12SAPS  C311 1572   1.169   3.268   7.903  0.5338  0.1208 -0.2510
   12SAPS  H11X 1573   1.068   3.311   7.887  0.9449  0.9547 -0.6654
   12SAPS  H11Y 1574   1.208   3.326   7.989  0.5705 -0.1454 -0.0859
   12SAPS  C312 1575   1.164   3.128   7.967 -0.2790 -0.6248 -0.4595
   12SAPS  H12X 1576   1.252   3.064   7.942  0.1624 -0.1876 -0.0612
   12SAPS  H12Y 1577   1.072   3.076   7.933 -2.1415  0.3867  2.6332
   12SAPS  C313 1578   1.168   3.138   8.117  0.1605  0.3876  0.0554
   12SAPS  H13X 1579   1.093   3.211   8.153  0.7305  1.8223 -1.5300
   12SAPS  H13Y 1580   1.270   3.166   8.149 -0.0062  0.1966  0.7703
   12SAPS  C314 1581   1.145   3.002   8.192  0.7525  0.1059 -1.0294
   12SAPS  H14X 1582   1.233   2.938   8.173  0.4131 -0.9338  0.6878
   12SAPS  H14Y 1583   1.048   2.961   8.154 -0.1277  0.7711  0.4317
   12SAPS  C315 1584   1.140   3.012   8.349 -0.2244  0.2426 -0.4138
   12SAPS  H15X 1585   1.045   3.062   8.380 -1.3761 -2.5600  0.9221
   12SAPS  H15Y 1586   1.222   3.072   8.395  0.4200 -2.1545  1.7776
   12SAPS  C316 1587   1.138   2.869   8.411  0.0835 -0.8253 -0.1691
   12SAPS  H16X 1588   1.226   2.816   8.371  0.0989  0.2823 -1.6894
   12SAPS  H16Y 1589   1.054   2.811   8.366  1.1110 -0.8419 -2.1733
   12SAPS  C317 1590   1.121   2.884   8.562 -0.2924 -0.1362  0.5633
   12SAPS  H17X 1591   1.046   2.964   8.579 -3.0908 -1.8404 -2.4909
   12SAPS  H17Y 1592   1.212   2.929   8.608  1.6391 -1.9162 -1.2809
   12SAPS  C318 1593   1.075   2.759   8.637 -0.6943 -0.3640  0.0589
   12SAPS  H18X 1594   1.061   2.790   8.743 -2.8259  1.2974 -0.6342
   12SAPS  H18Y 1595   1.137   2.669   8.616 -0.4470  0.0093 -0.8688
   12SAPS  H18Z 1596   0.976   2.730   8.596 -0.8246 -2.3441  1.6833
   13SAPS     N 1597   1.837   1.617   6.039 -0.1704  0.0783 -0.0987
   13SAPS   HN1 1598   1.823   1.718   6.059  1.8877  0.6184 -1.1070
   13SAPS   HN2 1599   1.760   1.586   5.975 -0.0062  1.6031 -1.0900
   13SAPS   HN3 1600   1.833   1.568   6.130 -0.3261  1.4047  0.6269
   13SAPS   C12 1601   1.970   1.607   5.974  0.6339  0.4476 -0.0495
   13SAPS  H12A 1602   1.985   1.501   5.959 -0.1906  0.0622  1.6639
   13SAPS   C13 1603   1.993   1.685   5.841  0.6677 -0.6591  0.0340
   13SAPS  O13A 1604   1.904   1.768   5.806 -0.1865  0.1900  0.0992
   13SAPS  O13B 1605   2.102   1.690   5.785  0.1927 -0.3048  1.2986
   13SAPS   C11 1606   2.070   1.649   6.084 -0.2647  0.4863 -0.1010
   13SAPS  H11A 1607   2.061   1.758   6.102  2.6823  0.8568 -0.4226
   13SAPS  H11B 1608   2.169   1.661   6.034 -0.4025  0.7550 -0.3142
   13SAPS     P 1609   2.190   1.611   6.312  0.0248 -0.1874  0.2103
   13SAPS   O13 1610   2.309   1.560   6.243 -0.3810 -0.2015 -0.1644
   13SAPS   O14 1611   2.192   1.752   6.358  0.0676  0.2609  0.3726
   13SAPS   O12 1612   2.069   1.584   6.211  0.0562  0.5422 -0.2118
   13SAPS   O11 1613   2.159   1.506   6.424 -0.4226  0.3062 -0.2812
   13SAPS    C1 1614   2.055   1.517   6.520  0.6503  0.7013  0.0178
   13SAPS    HA 1615   1.963   1.555   6.470  1.1483 -1.0356 -2.3847
   13SAPS    HB 1616   2.026   1.422   6.570  0.1131  2.0295  2.3977
   13SAPS    C2 1617   2.091   1.603   6.647  0.0045  0.2725 -0.8956
   13SAPS    HS 1618   2.130   1.699   6.610 -1.7374  0.6040 -1.9774
   13SAPS   O21 1619   2.184   1.528   6.734  0.1888 -0.1690  0.6578
   13SAPS   C21 1620   2.279   1.604   6.793 -0.7744 -0.6095 -0.2301
   13SAPS   O22 1621   2.298   1.721   6.775  0.6747  0.1350 -1.3556
   13SAPS   C22 1622   2.367   1.517   6.872 -0.3827  0.4293  0.5928
   13SAPS   H2R 1623   2.304   1.481   6.957 -0.3274 -0.0041  0.4527
   13SAPS   H2S 1624   2.401   1.429   6.814  0.9944  0.4323  1.3608
   13SAPS    C3 1625   1.966   1.649   6.726  0.0348  0.5101  0.2412
   13SAPS    HX 1626   1.892   1.569   6.745 -2.3683  2.3059 -0.9607
   13SAPS    HY 1627   1.924   1.718   6.649  0.7661 -0.3250 -0.9418
   13SAPS   O31 1628   2.005   1.715   6.849  0.1904 -0.1724  0.0645
   13SAPS   C31 1629   1.900   1.793   6.902 -0.0791 -0.0729  0.7785
   13SAPS   O32 1630   1.800   1.822   6.840  0.2224  0.1923 -0.1362
   13SAPS   C32 1631   1.933   1.820   7.047  0.1944 -0.6375 -0.0247
   13SAPS   H2X 1632   1.841   1.837   7.107  1.5450 -2.0706  2.6138
   13SAPS   H2Y 1633   1.987   1.917   7.050 -0.4828 -0.2007 -1.2865
   13SAPS   C23 1634   2.501   1.579   6.923  0.2086 -0.4297  0.3745
   13SAPS   H3R 1635   2.496   1.636   7.018  3.2183  0.2356  0.2198
   13SAPS   H3S 1636   2.542   1.647   6.845  2.2110 -0.8698  0.9941
   13SAPS   C24 1637   2.614   1.481   6.959 -1.0054 -0.5525 -0.0636
   13SAPS   H4R 1638   2.710   1.532   6.982 -1.1381  0.1384 -0.9863
   13SAPS   H4S 1639   2.651   1.434   6.865  1.5286 -0.2774  0.7242
   13SAPS   C25 1640   2.563   1.377   7.063 -0.1173  0.2609  0.3373
   13SAPS   H5R 1641   2.474   1.323   7.028 -0.2674  0.5963  0.2050
   13SAPS   C26 1642   2.632   1.335   7.170  0.1414  0.2581  0.1632
   13SAPS   H6R 1643   2.589   1.251   7.226 -1.9257  0.8603 -0.4311
   13SAPS   C27 1644   2.777   1.378   7.213  0.8381 -0.0985  0.3181
   13SAPS   H7R 1645   2.797   1.359   7.320  0.9161  0.2186  0.3602
   13SAPS   H7S 1646   2.781   1.488   7.198  0.2986 -0.1085  0.1039
   13SAPS   C28 1647   2.876   1.313   7.125  0.0852 -0.1728  0.1547
   13SAPS   H8R 1648   2.898   1.357   7.027  0.4263 -1.5997 -0.4283
   13SAPS   C29 1649   2.960   1.211   7.164 -0.2592  0.5574 -1.0780
   13SAPS   H9R 1650   3.030   1.175   7.087 -0.7941  0.0374 -1.3296
   13SAPS  C210 1651   2.954   1.150   7.301 -0.0008  0.6426  0.0660
   13SAPS  H10R 1652   2.963   1.231   7.376 -1.5646  0.1364  0.8473
   13SAPS  H10S 1653   3.043   1.083   7.308 -0.6385 -0.2117  0.0691
   13SAPS  C211 1654   2.823   1.069   7.318  0.6429 -0.1890 -0.2956
   13SAPS  H11R 1655   2.746   1.074   7.239  0.0727 -1.6439  0.1314
   13SAPS  C212 1656   2.767   1.025   7.432 -0.9619 -0.0333  1.2631
   13SAPS  H12R 1657   2.669   0.976   7.431 -0.2770 -1.4631  1.9199
   13SAPS  C213 1658   2.839   1.031   7.566 -0.0739  0.6436  0.1601
   13SAPS  H13R 1659   2.947   1.011   7.554 -0.1193  0.6128 -0.1915
   13SAPS  H13S 1660   2.804   0.951   7.635 -0.6651 -0.8498 -1.7902
   13SAPS  C214 1661   2.854   1.161   7.642  0.2731 -0.0789  0.4024
   13SAPS  H14R 1662   2.854   1.241   7.567  0.2502  0.4200  0.9265
   13SAPS  C215 1663   2.854   1.184   7.775 -0.2233  0.1962 -0.3241
   13SAPS  H15R 1664   2.855   1.289   7.810 -2.2579  0.5677 -1.1861
   13SAPS  C216 1665   2.850   1.088   7.885 -0.5336  0.3375 -0.1735
   13SAPS  H16R 1666   2.891   0.989   7.856  0.2815  0.7980 -0.6359
   13SAPS  H16S 1667   2.748   1.073   7.926  0.7027  0.3753  3.2283
   13SAPS  C217 1668   2.940   1.136   8.000  0.9621 -0.2252  0.1922
   13SAPS  H17R 1669   2.900   1.230   8.042 -0.3316 -0.3016 -0.8211
   13SAPS  H17S 1670   3.047   1.153   7.973  0.4079  1.5735 -1.0474
   13SAPS  C218 1671   2.952   1.035   8.121 -0.3093 -0.2054 -0.0963
   13SAPS  H18R 1672   2.974   0.933   8.084  0.8228 -0.9123  2.3277
   13SAPS  H18S 1673   2.853   1.028   8.171  0.9816 -2.3337  2.3454
   13SAPS  C219 1674   3.054   1.082   8.231  0.4360 -0.3212 -0.5101
   13SAPS  H19R 1675   3.035   1.026   8.324 -0.3362  2.0277  0.8387
   13SAPS  H19S 1676   3.021   1.187   8.247  0.6787 -0.2950 -0.1939
   13SAPS  C220 1677   3.200   1.068   8.201 -0.2492  0.5373  0.0597
   13SAPS  H20R 1678   3.221   1.090   8.094 -2.0946 -0.2481 -0.5176
   13SAPS  H20S 1679   3.227   0.961   8.196  1.3727  0.9733 -1.4106
   13SAPS  H20T 1680   3.270   1.107   8.278  0.0247 -2.6647  1.5694
   13SAPS   C33 1681   2.015   1.716   7.129  0.8598 -0.4574 -0.0094
   13SAPS   H3X 1682   2.110   1.699   7.075  0.3404 -0.8531 -0.8077
   13SAPS   H3Y 1683   1.971   1.614   7.118  3.1522 -1.4138 -0.9066
   13SAPS   C34 1684   2.038   1.761   7.278 -0.1198  0.0332 -0.2359
   13SAPS   H4X 1685   1.945   1.801   7.323  0.3201  0.1230  0.6062
   13SAPS   H4Y 1686   2.118   1.839   7.273 -1.4862  1.6242  1.3926
   13SAPS   C35 1687   2.101   1.646   7.361  0.0333 -0.1156 -0.7603
   13SAPS   H5X 1688   2.177   1.591   7.302  1.9438  0.1161  1.3429
   13SAPS   H5Y 1689   2.014   1.580   7.379  0.2883 -0.1492  0.4382
   13SAPS   C36 1690   2.160   1.688   7.496 -0.1680  0.5165 -0.0795
   13SAPS   H6X 1691   2.251   1.746   7.470  0.8429 -1.2869 -0.7332
   13SAPS   H6Y 1692   2.206   1.597   7.539  0.2179 -0.7782 -3.0003
   13SAPS   C37 1693   2.061   1.758   7.590  0.1392  0.1028  1.4032
   13SAPS   H7X 1694   1.957   1.730   7.561  0.4157 -0.7184  1.1760
   13SAPS   H7Y 1695   2.065   1.863   7.555  2.4291 -1.0195 -2.2920
   13SAPS   C38 1696   2.087   1.736   7.742 -1.3513 -0.3299 -0.4785
   13SAPS   H8X 1697   2.189   1.768   7.774 -0.2093 -2.2509 -2.0225
   13SAPS   H8Y 1698   2.079   1.626   7.752 -1.8196 -0.1273  2.0394
   13SAPS   C39 1699   1.994   1.801   7.836  0.4219  0.4729  0.5843
   13SAPS   H9X 1700   1.894   1.789   7.790  1.1089 -0.2649 -0.7878
   13SAPS   H9Y 1701   2.017   1.909   7.837 -2.2627  1.1243  0.3127
   13SAPS  C310 1702   1.993   1.759   7.989  0.0310 -0.5008 -0.7462
   13SAPS  H10X 1703   2.088   1.783   8.041 -0.1644 -2.6622  0.6957
   13SAPS  H10Y 1704   1.983   1.649   8.002 -2.2638 -0.1821  0.7997
   13SAPS  C311 1705   1.891   1.826   8.076  0.3296 -0.0109  0.3204
   13SAPS  H11X 1706   1.915   1.790   8.179 -1.0173  0.5815  0.8707
   13SAPS  H11Y 1707   1.797   1.783   8.037 -0.5813  1.5416  0.6890
   13SAPS  C312 1708   1.898   1.975   8.082 -0.2221  0.3120 -0.2079
   13SAPS  H12X 1709   1.881   2.017   7.980 -1.0667  1.9273  0.5718
   13SAPS  H12Y 1710   1.997   2.013   8.112 -0.1024  0.4712 -0.7871
   13SAPS  C313 1711   1.786   2.028   8.173  0.2115 -0.0120  0.1334
   13SAPS  H13X 1712   1.772   1.969   8.266  4.1634 -3.3267 -1.0440
   13SAPS  H13Y 1713   1.689   2.014   8.120  0.7520 -1.1880 -0.6115
   13SAPS  C314 1714   1.808   2.180   8.199 -0.1685  0.8867 -0.3500
   13SAPS  H14X 1715   1.816   2.237   8.104 -0.0996 -0.0370 -0.9195
   13SAPS  H14Y 1716   1.908   2.175   8.247 -0.1709 -0.6455 -0.4362
   13SAPS  C315 1717   1.698   2.228   8.299  0.5484 -0.3692  0.0159
   13SAPS  H15X 1718   1.711   2.174   8.395 -1.2314  0.0481  0.5277
   13SAPS  H15Y 1719   1.595   2.200   8.270  0.8126 -0.2532 -1.0859
   13SAPS  C316 1720   1.694   2.383   8.324 -0.3382  0.8233 -0.3860
   13SAPS  H16X 1721   1.697   2.449   8.235  0.7753  1.6950  0.2777
   13SAPS  H16Y 1722   1.783   2.413   8.383 -0.1745  0.5783 -0.5087
   13SAPS  C317 1723   1.568   2.422   8.413 -0.2226 -0.0769 -0.3349
   13SAPS  H17X 1724   1.588   2.378   8.513  3.0250  0.3632 -0.6635
   13SAPS  H17Y 1725   1.484   2.367   8.367 -0.7135  1.2389 -1.0825
   13SAPS  C318 1726   1.545   2.579   8.421  0.4544  0.3529  0.9176
   13SAPS  H18X 1727   1.543   2.621   8.318 -1.0999  2.0831  1.5873
   13SAPS  H18Y 1728   1.629   2.624   8.478  1.5965  1.3538 -1.4250
   13SAPS  H18Z 1729   1.451   2.599   8.476  0.6499 -1.0173  1.7739
   14SAPS     N 1730   1.806   3.365   5.835 -0.3276  0.6962  0.2628
   14SAPS   HN1 1731   1.856   3.450   5.869 -0.5898  1.2108 -0.5992
   14SAPS   HN2 1732   1.815   3.293   5.909 -2.1980 -1.1095 -1.1413
   14SAPS   HN3 1733   1.861   3.341   5.751 -0.9326  1.3160 -0.3266
   14SAPS   C12 1734   1.664   3.398   5.805  0.3521 -0.6392 -0.0638
   14SAPS  H12A 1735   1.657   3.457   5.715  2.5971 -2.0087 -1.2158
   14SAPS   C13 1736   1.576   3.272   5.782 -0.0092 -0.2873 -0.1376
   14SAPS  O13A 1737   1.625   3.159   5.775  0.5195 -0.0814  0.9041
   14SAPS  O13B 1738   1.451   3.293   5.773 -0.4381  0.2068  0.1618
   14SAPS   C11 1739   1.600   3.494   5.905 -0.2836 -0.6326 -0.7121
   14SAPS  H11A 1740   1.631   3.442   5.998  1.9994 -0.5621 -1.3713
   14SAPS  H11B 1741   1.489   3.508   5.903 -0.3159 -0.9274 -0.9830
   14SAPS     P 1742   1.607   3.748   5.955  0.2028 -0.1718  0.0883
   14SAPS   O13 1743   1.703   3.860   5.952  0.9621  0.0543  0.3517
   14SAPS   O14 1744   1.479   3.766   5.883 -0.1838 -0.6626  0.5389
   14SAPS   O12 1745   1.670   3.619   5.907 -0.5965 -0.5989  0.6109
   14SAPS   O11 1746   1.566   3.711   6.104 -0.3954  0.2449  1.3637
   14SAPS    C1 1747   1.676   3.676   6.188  0.5028 -0.0788  0.7885
   14SAPS    HA 1748   1.775   3.650   6.146 -0.5091  0.2299 -1.9876
   14SAPS    HB 1749   1.700   3.768   6.245 -0.2877  0.5066  0.2068
   14SAPS    C2 1750   1.641   3.565   6.287 -0.0020  0.4595 -0.5810
   14SAPS    HS 1751   1.645   3.473   6.226 -1.0432  0.9639 -1.4498
   14SAPS   O21 1752   1.507   3.604   6.344  0.4935 -0.5772  0.3314
   14SAPS   C21 1753   1.437   3.492   6.364 -0.0730 -0.3625  0.1374
   14SAPS   O22 1754   1.470   3.378   6.334  0.2060  0.0533  0.1555
   14SAPS   C22 1755   1.298   3.512   6.425 -0.3751 -0.2813  0.0059
   14SAPS   H2R 1756   1.286   3.620   6.447  1.0738  0.2090 -1.4596
   14SAPS   H2S 1757   1.220   3.483   6.352 -1.5512  0.5680  0.8678
   14SAPS    C3 1758   1.738   3.550   6.408  0.0149  0.9086  0.3676
   14SAPS    HX 1759   1.717   3.631   6.481 -0.1653  1.3184 -0.1375
   14SAPS    HY 1760   1.843   3.562   6.374  0.3349 -0.1993  0.9376
   14SAPS   O31 1761   1.718   3.432   6.485  0.1952  0.0811  0.3394
   14SAPS   C31 1762   1.796   3.327   6.457 -1.2754 -0.1747 -0.2739
   14SAPS   O32 1763   1.906   3.322   6.405  0.2595 -0.0330  0.1734
   14SAPS   C32 1764   1.717   3.200   6.492 -0.0664 -0.5050  0.1815
   14SAPS   H2X 1765   1.706   3.147   6.395  0.5822  2.1174 -1.4352
   14SAPS   H2Y 1766   1.615   3.230   6.523 -0.4078 -0.0721 -1.2636
   14SAPS   C23 1767   1.284   3.418   6.551 -0.1302 -0.4387 -0.1725
   14SAPS   H3R 1768   1.310   3.313   6.526 -1.5412 -0.3340 -2.4047
   14SAPS   H3S 1769   1.180   3.404   6.586  0.0563 -4.0493 -0.7611
   14SAPS   C24 1770   1.376   3.445   6.671  0.2210 -1.0097 -0.1157
   14SAPS   H4R 1771   1.486   3.443   6.656  0.1805  2.2305 -1.7178
   14SAPS   H4S 1772   1.362   3.356   6.736  0.2398 -0.3362  0.8452
   14SAPS   C25 1773   1.315   3.561   6.753 -0.3560 -0.2112  0.2393
   14SAPS   H5R 1774   1.331   3.661   6.710  1.0155 -1.2901 -1.9389
   14SAPS   C26 1775   1.258   3.546   6.871  0.7986 -0.3814  0.1673
   14SAPS   H6R 1776   1.214   3.637   6.912 -1.1173 -2.0436  2.0605
   14SAPS   C27 1777   1.225   3.424   6.958  0.6220 -0.7019  0.1119
   14SAPS   H7R 1778   1.164   3.349   6.903 -1.8319  2.7666 -2.4065
   14SAPS   H7S 1779   1.153   3.462   7.034  0.4957  0.3169 -0.4963
   14SAPS   C28 1780   1.343   3.358   7.021 -0.2290 -0.2307 -0.4429
   14SAPS   H8R 1781   1.382   3.279   6.956  2.1011  0.2871  0.2261
   14SAPS   C29 1782   1.400   3.399   7.140 -0.2911 -0.4544 -0.1872
   14SAPS   H9R 1783   1.491   3.347   7.175  1.2131  0.7903 -2.0179
   14SAPS  C210 1784   1.357   3.505   7.235  0.0235  0.3631 -0.5340
   14SAPS  H10R 1785   1.251   3.533   7.217  0.2897  1.6497 -0.1884
   14SAPS  H10S 1786   1.409   3.603   7.235  3.0287 -1.0903  1.0578
   14SAPS  C211 1787   1.366   3.455   7.380 -0.4450  0.5138 -0.4126
   14SAPS  H11R 1788   1.306   3.368   7.410 -0.0609  0.6857  0.9434
   14SAPS  C212 1789   1.470   3.488   7.466  0.5486  0.2504 -0.1256
   14SAPS  H12R 1790   1.478   3.432   7.561 -0.2411  0.4904  0.0921
   14SAPS  C213 1791   1.581   3.583   7.436  0.1563 -0.1219 -0.3063
   14SAPS  H13R 1792   1.557   3.635   7.341 -0.8298 -2.1867 -1.2397
   14SAPS  H13S 1793   1.673   3.527   7.410 -0.8221 -1.4486 -1.0040
   14SAPS  C214 1794   1.603   3.677   7.558 -0.4280 -0.5997 -0.5955
   14SAPS  H14R 1795   1.564   3.777   7.536 -0.9969 -1.1128 -2.0755
   14SAPS  C215 1796   1.647   3.650   7.678  0.0627 -0.1631 -0.6575
   14SAPS  H15R 1797   1.660   3.729   7.753  0.7416  0.7877 -1.7421
   14SAPS  C216 1798   1.682   3.516   7.724  0.3528 -0.3296 -1.2890
   14SAPS  H16R 1799   1.787   3.520   7.760  0.7657 -0.1783 -2.4521
   14SAPS  H16S 1800   1.695   3.439   7.645  0.1144  0.1964 -1.8486
   14SAPS  C217 1801   1.595   3.468   7.842  0.9918  0.5180  0.6346
   14SAPS  H17R 1802   1.486   3.462   7.818  1.5246  0.6445 -2.1560
   14SAPS  H17S 1803   1.602   3.537   7.928 -1.1849 -0.5710  1.7732
   14SAPS  C218 1804   1.648   3.338   7.894 -0.5372  0.0024 -0.5817
   14SAPS  H18R 1805   1.755   3.340   7.925 -0.5626 -0.0401 -0.4900
   14SAPS  H18S 1806   1.652   3.258   7.817  1.7318 -0.5313  0.0168
   14SAPS  C219 1807   1.560   3.260   8.002 -0.8094  0.2693 -0.6327
   14SAPS  H19R 1808   1.451   3.271   7.982 -1.4304  0.0319  2.2390
   14SAPS  H19S 1809   1.579   3.312   8.099 -1.7914  0.7762 -0.6973
   14SAPS  C220 1810   1.595   3.117   8.016  0.3265  0.3811  0.4217
   14SAPS  H20R 1811   1.571   3.069   8.113 -1.8068  0.0978 -0.1916
   14SAPS  H20S 1812   1.704   3.110   7.994 -0.0245 -1.8963 -0.9336
   14SAPS  H20T 1813   1.538   3.062   7.938 -0.1855 -2.3694  2.5667
   14SAPS   C33 1814   1.785   3.113   6.590 -0.7372 -0.3086 -0.5028
   14SAPS   H3X 1815   1.882   3.076   6.550  0.0522  0.2170  0.8509
   14SAPS   H3Y 1816   1.726   3.021   6.610 -2.1981  0.1254 -2.5228
   14SAPS   C34 1817   1.830   3.179   6.729 -0.2381  0.5897 -0.1081
   14SAPS   H4X 1818   1.905   3.257   6.701 -0.2494  1.0040  0.9615
   14SAPS   H4Y 1819   1.883   3.105   6.793  0.9457  2.1292  0.7655
   14SAPS   C35 1820   1.714   3.236   6.809 -0.4284 -0.0783 -0.5759
   14SAPS   H5X 1821   1.653   3.145   6.828 -1.3103  0.5222 -0.4805
   14SAPS   H5Y 1822   1.651   3.311   6.757  0.1368 -0.7869 -2.3525
   14SAPS   C36 1823   1.750   3.285   6.953  0.2933 -0.0695 -0.7032
   14SAPS   H6X 1824   1.655   3.312   7.004  3.0525  0.4410  4.9417
   14SAPS   H6Y 1825   1.804   3.382   6.948  1.0242 -0.4810 -1.0232
   14SAPS   C37 1826   1.836   3.188   7.035 -0.2547 -0.4482 -0.1893
   14SAPS   H7X 1827   1.934   3.184   6.983  0.8774  1.2330  1.6730
   14SAPS   H7Y 1828   1.800   3.083   7.036  1.1937 -0.9974 -1.5197
   14SAPS   C38 1829   1.867   3.248   7.179  0.2625  0.0213  0.0155
   14SAPS   H8X 1830   1.772   3.287   7.223  0.9495 -0.3060  1.8619
   14SAPS   H8Y 1831   1.939   3.330   7.158 -0.1840  1.5694  3.7507
   14SAPS   C39 1832   1.921   3.148   7.278 -0.0415  0.4640 -0.1007
   14SAPS   H9X 1833   2.004   3.094   7.228 -0.7133 -1.3512  0.6301
   14SAPS   H9Y 1834   1.854   3.062   7.299  1.3150  0.0614  3.3815
   14SAPS  C310 1835   1.977   3.216   7.407  1.2015  0.0597  0.5903
   14SAPS  H10X 1836   1.893   3.255   7.468  0.8732  0.5562 -0.1551
   14SAPS  H10Y 1837   2.042   3.304   7.387 -0.2222  1.2205  0.8864
   14SAPS  C311 1838   2.049   3.124   7.500  0.1312  0.2712 -0.5673
   14SAPS  H11X 1839   2.141   3.083   7.455  0.0309 -0.2760 -0.2852
   14SAPS  H11Y 1840   1.983   3.036   7.518 -0.4753  0.9388  0.6438
   14SAPS  C312 1841   2.087   3.186   7.640  0.3500 -0.4828 -0.6397
   14SAPS  H12X 1842   1.997   3.244   7.669  1.5473  0.0300  2.5250
   14SAPS  H12Y 1843   2.178   3.250   7.634  0.0621  0.4570  2.7051
   14SAPS  C313 1844   2.100   3.077   7.752 -0.4539 -0.2946 -0.3906
   14SAPS  H13X 1845   2.154   3.116   7.841  0.5027  1.0346 -1.5145
   14SAPS  H13Y 1846   2.151   2.988   7.709  1.6794 -0.8524  2.9011
   14SAPS  C314 1847   1.957   3.027   7.798  0.7541 -0.4150  0.9915
   14SAPS  H14X 1848   1.925   2.962   7.713 -4.2579  1.1263  1.4202
   14SAPS  H14Y 1849   1.890   3.115   7.803 -0.5494 -1.3184  0.1523
   14SAPS  C315 1850   1.948   2.942   7.926  0.4102 -0.1270 -0.0490
   14SAPS  H15X 1851   2.012   2.852   7.921  0.3333 -0.1544 -0.6135
   14SAPS  H15Y 1852   1.847   2.901   7.949 -0.6120  0.4204 -3.0428
   14SAPS  C316 1853   1.998   3.017   8.046  0.7900  0.0561 -0.0808
   14SAPS  H16X 1854   1.947   3.115   8.053  0.0026 -0.2981 -0.7572
   14SAPS  H16Y 1855   2.108   3.029   8.035  1.1174 -0.3541  2.1800
   14SAPS  C317 1856   1.969   2.943   8.180 -0.9934 -0.2782  0.4803
   14SAPS  H17X 1857   2.008   2.839   8.177  1.0104  0.3326  2.5163
   14SAPS  H17Y 1858   1.858   2.938   8.183 -1.0224  0.5961  1.9904
   14SAPS  C318 1859   2.025   3.023   8.298  0.1893  0.2575 -0.3901
   14SAPS  H18X 1860   2.031   2.958   8.388 -1.2167 -0.3860 -0.7309
   14SAPS  H18Y 1861   1.968   3.116   8.315  0.7012  0.4243  0.4704
   14SAPS  H18Z 1862   2.130   3.052   8.274  0.3381 -0.8482 -1.1906
   15SAPS     N 1863   1.811   1.969   5.653  0.0102 -0.1703  0.2972
   15SAPS   HN1 1864   1.868   1.960   5.566  0.0676 -1.5164  0.4564
   15SAPS   HN2 1865   1.821   1.883   5.710 -0.0322 -0.0656  0.4614
   15SAPS   HN3 1866   1.715   1.993   5.619  0.5344  3.2689  0.9221
   15SAPS   C12 1867   1.840   2.091   5.730 -0.1502  0.4133  0.7016
   15SAPS  H12A 1868   1.932   2.089   5.785  0.7692  4.7917 -0.2897
   15SAPS   C13 1869   1.864   2.214   5.637 -0.0242 -0.1320 -0.1278
   15SAPS  O13A 1870   1.860   2.196   5.512 -0.1494  0.0567  0.3479
   15SAPS  O13B 1871   1.872   2.329   5.693 -0.3339  0.2113  0.2578
   15SAPS   C11 1872   1.723   2.122   5.829 -0.7407 -0.1584  0.1665
   15SAPS  H11A 1873   1.623   2.142   5.784 -0.9402 -0.6003  0.4037
   15SAPS  H11B 1874   1.752   2.217   5.879  0.4049 -1.2823  1.7563
   15SAPS     P 1875   1.803   2.007   6.053 -0.2698  0.3208 -0.1356
   15SAPS   O13 1876   1.785   1.873   6.113 -0.3889 -0.5823  0.1365
   15SAPS   O14 1877   1.939   2.040   6.020 -0.4012 -0.1496  0.0657
   15SAPS   O12 1878   1.704   2.019   5.926  0.6795  0.0963 -0.4072
   15SAPS   O11 1879   1.749   2.116   6.158 -0.2895  0.6097  0.1616
   15SAPS    C1 1880   1.609   2.158   6.162  0.3273 -0.1793 -0.4714
   15SAPS    HA 1881   1.594   2.247   6.099  0.1058  1.7077  2.0765
   15SAPS    HB 1882   1.543   2.079   6.119 -0.4892 -1.1661  2.3541
   15SAPS    C2 1883   1.552   2.192   6.304 -0.4117  0.4768 -0.9294
   15SAPS    HS 1884   1.445   2.217   6.290 -0.7352 -1.3271 -1.9775
   15SAPS   O21 1885   1.625   2.300   6.366  0.7356  0.2109 -0.3362
   15SAPS   C21 1886   1.575   2.424   6.335 -0.6779 -0.9351 -0.0975
   15SAPS   O22 1887   1.495   2.454   6.252 -0.0706  0.4309 -0.3425
   15SAPS   C22 1888   1.639   2.533   6.416 -0.0767 -0.5446  0.6713
   15SAPS   H2R 1889   1.596   2.524   6.518 -1.6962 -0.6272  0.0097
   15SAPS   H2S 1890   1.747   2.505   6.410 -0.5121 -2.0924 -1.1229
   15SAPS    C3 1891   1.567   2.067   6.392 -0.7487  0.3620  0.0552
   15SAPS    HX 1892   1.674   2.038   6.402 -0.8358 -0.7159 -1.7898
   15SAPS    HY 1893   1.520   1.982   6.339 -0.9747  0.9621 -0.7279
   15SAPS   O31 1894   1.499   2.075   6.520 -0.9434  0.3383  0.3006
   15SAPS   C31 1895   1.574   2.082   6.622 -0.1355  0.8459 -0.4394
   15SAPS   O32 1896   1.694   2.080   6.620  0.3543  0.5947  0.2713
   15SAPS   C32 1897   1.483   2.124   6.737  0.0966 -0.2448  0.0330
   15SAPS   H2X 1898   1.376   2.096   6.719  0.0145  1.1363 -1.9616
   15SAPS   H2Y 1899   1.495   2.233   6.754 -0.2533 -0.3719  1.1128
   15SAPS   C23 1900   1.613   2.681   6.361 -0.2182 -0.2927  0.1509
   15SAPS   H3R 1901   1.511   2.691   6.319 -0.2400  1.2994  0.5034
   15SAPS   H3S 1902   1.673   2.694   6.268 -2.2975  1.0910 -1.0810
   15SAPS   C24 1903   1.652   2.804   6.447  0.4286  0.2937  0.0131
   15SAPS   H4R 1904   1.666   2.887   6.374  0.0708 -0.9458 -1.5201
   15SAPS   H4S 1905   1.759   2.786   6.471  1.6141  1.9819 -3.3261
   15SAPS   C25 1906   1.563   2.828   6.568  0.0095  0.2123 -0.2317
   15SAPS   H5R 1907   1.466   2.872   6.544  0.1729  1.6811  1.5389
   15SAPS   C26 1908   1.577   2.798   6.700 -0.3834  0.2608  0.1546
   15SAPS   H6R 1909   1.492   2.823   6.764 -0.2992  0.9015  0.0267
   15SAPS   C27 1910   1.701   2.732   6.754  0.4130 -0.6932  0.0267
   15SAPS   H7R 1911   1.790   2.755   6.691  1.5685 -0.9050  1.5364
   15SAPS   H7S 1912   1.687   2.623   6.742  0.5827 -0.5422 -1.9692
   15SAPS   C28 1913   1.744   2.764   6.889  0.4212  0.1748 -0.8350
   15SAPS   H8R 1914   1.763   2.869   6.914  0.6372 -0.0814  0.1244
   15SAPS   C29 1915   1.755   2.673   6.989 -0.6779  0.1506  0.2773
   15SAPS   H9R 1916   1.777   2.724   7.084  2.7810 -0.2063 -0.1998
   15SAPS  C210 1917   1.734   2.520   6.980  0.3775 -0.6822 -0.1890
   15SAPS  H10R 1918   1.659   2.497   6.902  0.3385 -0.3112 -0.2625
   15SAPS  H10S 1919   1.696   2.479   7.076  0.9052 -0.0481  0.3046
   15SAPS  C211 1920   1.870   2.469   6.939  0.7861  0.4508  0.8339
   15SAPS  H11R 1921   1.902   2.495   6.837  0.6224 -1.2203  0.3154
   15SAPS  C212 1922   1.949   2.397   7.024 -0.2240  0.3422 -0.4464
   15SAPS  H12R 1923   2.046   2.365   6.984 -0.4251 -0.1168 -0.5843
   15SAPS  C213 1924   1.917   2.351   7.155  0.2311  0.4879 -0.5627
   15SAPS  H13R 1925   1.856   2.425   7.210 -2.6151 -1.4875 -0.8530
   15SAPS  H13S 1926   2.012   2.347   7.211 -1.0532 -1.2937  1.6547
   15SAPS  C214 1927   1.834   2.224   7.166 -0.0175 -0.0205  0.6809
   15SAPS  H14R 1928   1.790   2.186   7.072 -1.5698  3.8455 -0.3183
   15SAPS  C215 1929   1.811   2.154   7.274  0.3536  0.4609  0.4131
   15SAPS  H15R 1930   1.756   2.059   7.269  0.2577  0.5742 -1.4231
   15SAPS  C216 1931   1.858   2.177   7.410 -0.3256  0.3689 -0.6183
   15SAPS  H16R 1932   1.897   2.278   7.436  2.0724 -1.1863  2.5385
   15SAPS  H16S 1933   1.944   2.113   7.439 -0.2840  0.9871  0.7244
   15SAPS  C217 1934   1.745   2.151   7.511 -0.4240  0.2282 -0.3559
   15SAPS  H17R 1935   1.729   2.041   7.511  0.1175  0.1343  0.3409
   15SAPS  H17S 1936   1.653   2.211   7.498 -1.2983 -0.6317  1.5554
   15SAPS  C218 1937   1.798   2.194   7.655 -0.2837  0.9641  0.1208
   15SAPS  H18R 1938   1.904   2.160   7.656 -0.6749 -0.5403 -1.9954
   15SAPS  H18S 1939   1.758   2.117   7.725  0.9709  0.5184  0.3700
   15SAPS  C219 1940   1.771   2.331   7.704  0.0487  0.0752  0.3245
   15SAPS  H19R 1941   1.662   2.348   7.685  0.3893 -1.3903 -4.5352
   15SAPS  H19S 1942   1.832   2.397   7.639  1.8463 -2.8179 -1.1131
   15SAPS  C220 1943   1.814   2.353   7.852  0.4099 -0.5863 -0.6172
   15SAPS  H20R 1944   1.920   2.325   7.866  0.6676  1.1634  1.5210
   15SAPS  H20S 1945   1.746   2.284   7.906 -0.5253  0.4902 -0.3618
   15SAPS  H20T 1946   1.795   2.457   7.887  1.8706 -1.3608  2.8663
   15SAPS   C33 1947   1.545   2.048   6.859 -0.0558  0.0010  0.8199
   15SAPS   H3X 1948   1.650   2.084   6.871 -0.0226  0.3749 -0.4800
   15SAPS   H3Y 1949   1.538   1.940   6.834 -0.1200  0.7974 -3.2875
   15SAPS   C34 1950   1.472   2.065   6.992  0.3909  0.4851  0.5794
   15SAPS   H4X 1951   1.362   2.060   6.979 -0.0229  1.4798  3.1038
   15SAPS   H4Y 1952   1.493   2.165   7.037  1.6771 -0.2223  1.6114
   15SAPS   C35 1953   1.507   1.974   7.111 -0.2577 -0.3503  0.4365
   15SAPS   H5X 1954   1.464   2.024   7.200 -0.2317  2.7735 -1.1662
   15SAPS   H5Y 1955   1.617   1.987   7.121 -0.3653  0.6593  0.3798
   15SAPS   C36 1956   1.485   1.820   7.099  0.4054 -0.4849 -0.0310
   15SAPS   H6X 1957   1.549   1.775   7.021  2.0339  0.2466  0.8432
   15SAPS   H6Y 1958   1.382   1.794   7.066  0.3485 -2.9340  1.7529
   15SAPS   C37 1959   1.512   1.739   7.228  0.2149  0.1793 -0.3390
   15SAPS   H7X 1960   1.468   1.638   7.215  1.1405 -0.9086  3.5873
   15SAPS   H7Y 1961   1.467   1.786   7.318  0.2133 -0.8018  0.1815
   15SAPS   C38 1962   1.664   1.719   7.269  0.2744 -0.3164 -0.1863
   15SAPS   H8X 1963   1.710   1.817   7.293  0.4134  0.6824 -3.9899
   15SAPS   H8Y 1964   1.717   1.677   7.182 -0.9510  0.8741 -1.5563
   15SAPS   C39 1965   1.692   1.632   7.389 -0.3979 -0.1369  0.6648
   15SAPS   H9X 1966   1.802   1.638   7.396 -0.4340  0.6753  0.7154
   15SAPS   H9Y 1967   1.655   1.528   7.379 -0.2659 -0.0188 -1.5547
   15SAPS  C310 1968   1.638   1.696   7.517 -0.8473  0.3810 -0.0816
   15SAPS  H10X 1969   1.530   1.723   7.507 -0.1805  3.5448  0.3834
   15SAPS  H10Y 1970   1.696   1.788   7.537  0.8191 -0.6878  0.1326
   15SAPS  C311 1971   1.662   1.594   7.625  0.5346 -0.1855  0.4507
   15SAPS  H11X 1972   1.768   1.560   7.631  0.7072  0.3723  0.6463
   15SAPS  H11Y 1973   1.600   1.502   7.618 -1.6348  1.1898  0.7603
   15SAPS  C312 1974   1.613   1.635   7.768  0.1336 -0.2427 -0.2243
   15SAPS  H12X 1975   1.518   1.692   7.764  0.0826 -0.3820 -2.3036
   15SAPS  H12Y 1976   1.684   1.712   7.805 -0.2523  0.2648 -0.5251
   15SAPS  C313 1977   1.620   1.525   7.873  0.3305 -0.0284  0.1777
   15SAPS  H13X 1978   1.728   1.498   7.878  0.5940  0.9673  0.1834
   15SAPS  H13Y 1979   1.555   1.440   7.844 -1.7358  1.5307 -0.0402
   15SAPS  C314 1980   1.569   1.574   8.011  1.1892 -0.3016  0.3897
   15SAPS  H14X 1981   1.467   1.535   8.034  2.0406 -2.3370  0.9416
   15SAPS  H14Y 1982   1.578   1.684   8.019 -0.8581  0.0516 -1.2109
   15SAPS  C315 1983   1.665   1.519   8.112 -0.1301  0.3127 -0.0916
   15SAPS  H15X 1984   1.768   1.549   8.083  0.0738 -1.6510 -1.6550
   15SAPS  H15Y 1985   1.662   1.408   8.119 -0.6382  0.3282 -0.0645
   15SAPS  C316 1986   1.643   1.573   8.260  0.3528  0.0325  1.1909
   15SAPS  H16X 1987   1.619   1.680   8.250 -2.4783 -0.7733 -2.5788
   15SAPS  H16Y 1988   1.733   1.560   8.324  1.0346 -1.6421 -0.0129
   15SAPS  C317 1989   1.532   1.493   8.326  0.3185  0.0489 -0.1348
   15SAPS  H17X 1990   1.465   1.469   8.241 -0.5691  1.1734  0.2095
   15SAPS  H17Y 1991   1.480   1.544   8.410 -1.2345 -0.8234 -0.5308
   15SAPS  C318 1992   1.583   1.352   8.372 -0.1150 -0.7184  0.0359
   15SAPS  H18X 1993   1.653   1.305   8.300 -0.4846  0.0008 -0.8142
   15SAPS  H18Y 1994   1.507   1.286   8.420 -0.3968  0.1236  0.7685
   15SAPS  H18Z 1995   1.645   1.361   8.464  2.1876  0.6709 -1.5553
   16SAPS     N 1996   3.189   3.975   6.438 -0.1450 -0.2575 -0.6533
   16SAPS   HN1 1997   3.137   4.046   6.494 -0.0417 -0.4208 -0.3447
   16SAPS   HN2 1998   3.122   3.948   6.364 -2.6833 -0.8250  1.6793
   16SAPS   HN3 1999   3.212   3.895   6.501 -1.0637  1.1719  1.6248
   16SAPS   C12 2000   3.304   4.038   6.369  1.0483 -0.4962  0.3256
   16SAPS  H12A 2001   3.351   3.963   6.307  0.5555 -0.9922  0.5384
   16SAPS   C13 2002   3.255   4.154   6.279 -0.3186 -0.2499 -0.4048
   16SAPS  O13A 2003   3.133   4.152   6.242  0.0836 -0.2669  0.1803
   16SAPS  O13B 2004   3.348   4.202   6.207  0.3961 -0.6494 -0.1339
   16SAPS   C11 2005   3.387   4.096   6.480  0.2214  0.1072 -0.1796
   16SAPS  H11A 2006   3.337   4.164   6.553  0.3161 -0.8814  0.8264
   16SAPS  H11B 2007   3.466   4.157   6.431 -0.3825  0.8328 -0.2542
   16SAPS     P 2008   3.564   3.992   6.657 -0.0447 -0.1470 -0.4362
   16SAPS   O13 2009   3.596   3.855   6.688 -0.3542  0.9353 -0.2402
   16SAPS   O14 2010   3.668   4.074   6.595 -0.3991  0.0624 -0.2790
   16SAPS   O12 2011   3.441   3.989   6.561  0.2967  0.1349 -0.5749
   16SAPS   O11 2012   3.493   4.064   6.778  0.0023  0.0881  0.4497
   16SAPS    C1 2013   3.361   4.013   6.811  0.3684  0.0350 -0.0788
   16SAPS    HA 2014   3.294   4.053   6.732  0.3468 -0.3370 -0.2524
   16SAPS    HB 2015   3.354   3.902   6.816  0.9460 -0.0734 -1.2763
   16SAPS    C2 2016   3.322   4.082   6.950 -0.0345 -0.3260 -0.1172
   16SAPS    HS 2017   3.212   4.100   6.949  0.0298  0.4110  1.8280
   16SAPS   O21 2018   3.379   4.213   6.962 -0.0865 -0.0003 -0.3525
   16SAPS   C21 2019   3.321   4.309   6.886 -0.1386  0.6363 -0.4776
   16SAPS   O22 2020   3.242   4.283   6.799  0.3474 -0.0752  0.8923
   16SAPS   C22 2021   3.373   4.444   6.909  0.6420  0.0769  0.3534
   16SAPS   H2R 2022   3.477   4.450   6.948  0.0488  2.7859  1.7615
   16SAPS   H2S 2023   3.395   4.480   6.806  1.7358 -0.3451  0.4206
   16SAPS    C3 2024   3.373   3.999   7.070  0.2228  0.6019 -0.2104
   16SAPS    HX 2025   3.478   3.977   7.042  0.0868  0.9454 -1.0073
   16SAPS    HY 2026   3.326   3.898   7.079  3.0323 -0.9024 -0.9783
   16SAPS   O31 2027   3.354   4.067   7.196 -0.0982 -0.1384  0.2971
   16SAPS   C31 2028   3.446   4.156   7.232  0.7995 -0.2672 -0.1736
   16SAPS   O32 2029   3.553   4.171   7.179 -0.3231 -0.3704  0.3428
   16SAPS   C32 2030   3.410   4.224   7.361 -0.8179 -0.7587  0.5512
   16SAPS   H2X 2031   3.434   4.332   7.348 -0.6959 -0.9361 -0.8993
   16SAPS   H2Y 2032   3.481   4.184   7.437  0.3544  0.2319  0.0279
   16SAPS   C23 2033   3.271   4.542   6.979  0.6804  0.3408  0.4429
   16SAPS   H3R 2034   3.170   4.533   6.934 -0.0251  1.8505  1.6294
   16SAPS   H3S 2035   3.300   4.649   6.969  2.5207 -0.0389  1.3017
   16SAPS   C24 2036   3.265   4.516   7.134  0.3537 -0.8164 -0.6360
   16SAPS   H4R 2037   3.256   4.406   7.135 -2.0815 -0.6769  0.8368
   16SAPS   H4S 2038   3.172   4.568   7.167  1.0718  0.6255 -0.7821
   16SAPS   C25 2039   3.386   4.568   7.205 -0.2817 -0.6658 -0.0907
   16SAPS   H5R 2040   3.479   4.564   7.147  1.4658  1.0734  2.3719
   16SAPS   C26 2041   3.392   4.610   7.332  0.4084 -0.8014  0.3486
   16SAPS   H6R 2042   3.489   4.640   7.374  0.7122  1.9305 -1.9954
   16SAPS   C27 2043   3.271   4.614   7.427 -0.4065 -0.3334  0.5240
   16SAPS   H7R 2044   3.304   4.574   7.525 -1.3462  1.3995  1.6020
   16SAPS   H7S 2045   3.174   4.576   7.386 -0.6783 -0.1698  1.0099
   16SAPS   C28 2046   3.230   4.758   7.451  0.1456 -0.0293 -0.3714
   16SAPS   H8R 2047   3.241   4.820   7.361 -0.2575  2.0149  0.9379
   16SAPS   C29 2048   3.171   4.805   7.561 -0.0211  0.1007  0.1004
   16SAPS   H9R 2049   3.152   4.913   7.568  0.1660  0.0271  2.6447
   16SAPS  C210 2050   3.140   4.739   7.697  0.7866  0.1117 -0.2911
   16SAPS  H10R 2051   3.149   4.628   7.688 -1.9300 -0.3238  1.2634
   16SAPS  H10S 2052   3.031   4.750   7.715  0.6080 -0.9583 -0.6027
   16SAPS  C211 2053   3.231   4.806   7.799 -0.3026  0.4070  0.6881
   16SAPS  H11R 2054   3.332   4.825   7.761 -0.5347 -0.6984 -0.5815
   16SAPS  C212 2055   3.212   4.829   7.928 -0.1536 -0.3798  0.9017
   16SAPS  H12R 2056   3.282   4.888   7.989  1.9377 -1.4777 -0.3304
   16SAPS  C213 2057   3.087   4.795   8.000  0.1059 -0.3629 -0.2175
   16SAPS  H13R 2058   3.010   4.742   7.939  0.2741  0.0227 -0.7707
   16SAPS  H13S 2059   3.041   4.891   8.033  2.0001  0.7458 -0.6745
   16SAPS  C214 2060   3.131   4.694   8.107  0.0737 -0.0059  0.0677
   16SAPS  H14R 2061   3.078   4.598   8.100  0.3383 -0.2418  1.2252
   16SAPS  C215 2062   3.181   4.719   8.228 -0.6571 -0.4223  0.8606
   16SAPS  H15R 2063   3.201   4.635   8.296 -0.5994 -1.7298 -0.7046
   16SAPS  C216 2064   3.213   4.853   8.276  0.3923 -0.5304  0.1787
   16SAPS  H16R 2065   3.242   4.919   8.191 -1.7618  1.4771  0.8938
   16SAPS  H16S 2066   3.299   4.853   8.346  1.6325 -1.6984 -1.2963
   16SAPS  C217 2067   3.082   4.910   8.347 -0.2323  0.1585 -0.6483
   16SAPS  H17R 2068   2.994   4.927   8.281 -1.4257 -2.7389  0.0866
   16SAPS  H17S 2069   3.117   5.012   8.376 -0.2613  0.0823 -0.3450
   16SAPS  C218 2070   3.041   4.831   8.470 -0.0269  0.4804 -0.4284
   16SAPS  H18R 2071   3.051   4.723   8.445 -0.6886  0.2294  0.3319
   16SAPS  H18S 2072   2.937   4.864   8.489 -0.9887 -1.6591 -1.6144
   16SAPS  C219 2073   3.123   4.872   8.593  0.3831  0.1408  0.2946
   16SAPS  H19R 2074   3.104   4.981   8.606  0.0295  0.3142 -1.4649
   16SAPS  H19S 2075   3.229   4.859   8.560  0.9605  0.2607  2.0002
   16SAPS  C220 2076   3.087   4.782   8.706 -0.0666  0.5733  0.0447
   16SAPS  H20R 2077   3.101   4.675   8.679  0.9196  0.6273  0.3082
   16SAPS  H20S 2078   2.983   4.808   8.738  1.0583  2.2044  2.6902
   16SAPS  H20T 2079   3.156   4.808   8.789  1.5358 -1.9818 -0.3670
   16SAPS   C33 2080   3.266   4.218   7.419 -0.6136  0.1833 -0.5716
   16SAPS   H3X 2081   3.238   4.111   7.425  1.3057 -0.2620  1.5074
   16SAPS   H3Y 2082   3.198   4.270   7.347 -0.8031 -1.1511 -1.3928
   16SAPS   C34 2083   3.261   4.288   7.561  0.5102 -0.4509  0.4359
   16SAPS   H4X 2084   3.171   4.354   7.549 -1.1591 -2.3422  1.9145
   16SAPS   H4Y 2085   3.344   4.362   7.562 -1.7837  2.2968  0.3805
   16SAPS   C35 2086   3.263   4.193   7.682 -0.3236  0.1055  0.5518
   16SAPS   H5X 2087   3.356   4.133   7.694 -0.4284 -0.1198  0.2120
   16SAPS   H5Y 2088   3.181   4.123   7.657  0.3315 -0.4090 -0.2115
   16SAPS   C36 2089   3.246   4.253   7.825  0.2544 -0.4418 -0.4295
   16SAPS   H6X 2090   3.176   4.340   7.821  2.2581  1.2636 -0.5810
   16SAPS   H6Y 2091   3.344   4.300   7.850 -0.5325  0.5652  0.8241
   16SAPS   C37 2092   3.194   4.152   7.927  0.0686 -0.0321 -0.6776
   16SAPS   H7X 2093   3.270   4.072   7.929  0.5653  0.4154 -1.2268
   16SAPS   H7Y 2094   3.093   4.120   7.892 -0.8866  1.0894  0.9211
   16SAPS   C38 2095   3.167   4.214   8.066 -0.4429  0.3594  0.3852
   16SAPS   H8X 2096   3.238   4.297   8.086  1.4727 -0.5565 -2.1637
   16SAPS   H8Y 2097   3.177   4.131   8.138 -2.5040 -3.8820 -3.6989
   16SAPS   C39 2098   3.024   4.265   8.086 -0.2038  0.0357  0.4745
   16SAPS   H9X 2099   2.950   4.183   8.072 -1.7818  1.3466  0.9033
   16SAPS   H9Y 2100   2.995   4.343   8.013 -1.9340  0.0177  1.0887
   16SAPS  C310 2101   3.014   4.320   8.227 -0.0855 -0.0380  0.1614
   16SAPS  H10X 2102   3.068   4.417   8.223  0.4388 -0.3730 -1.2950
   16SAPS  H10Y 2103   3.061   4.254   8.303 -0.6109  0.4572  0.9441
   16SAPS  C311 2104   2.873   4.334   8.276 -0.4904  0.0761 -0.4589
   16SAPS  H11X 2105   2.820   4.237   8.292  1.0057 -0.8635 -0.9551
   16SAPS  H11Y 2106   2.808   4.397   8.213 -1.2700 -0.5787 -0.3284
   16SAPS  C312 2107   2.883   4.405   8.417  1.1491 -0.1068  0.0954
   16SAPS  H12X 2108   2.955   4.489   8.417 -0.6149  1.4752 -0.8416
   16SAPS  H12Y 2109   2.914   4.328   8.492 -0.4762  0.6063  1.5702
   16SAPS  C313 2110   2.740   4.455   8.458 -0.9381 -0.0157  0.6554
   16SAPS  H13X 2111   2.705   4.505   8.365  2.0933  0.5198 -0.3244
   16SAPS  H13Y 2112   2.733   4.525   8.544 -0.4120  0.9071 -0.0308
   16SAPS  C314 2113   2.642   4.337   8.485 -0.3970  0.3361  0.3840
   16SAPS  H14X 2114   2.628   4.276   8.393  1.1058  0.4041  0.0840
   16SAPS  H14Y 2115   2.548   4.391   8.510  0.1906  0.9851  1.2289
   16SAPS  C315 2116   2.685   4.256   8.601  0.2946 -0.0471 -0.8530
   16SAPS  H15X 2117   2.697   4.338   8.675 -2.0162 -0.9532  0.6247
   16SAPS  H15Y 2118   2.782   4.202   8.591  0.5279  0.3028 -0.4906
   16SAPS  C316 2119   2.577   4.164   8.651  0.4870  0.2576  0.4659
   16SAPS  H16X 2120   2.561   4.076   8.585 -0.6984  1.6232 -1.1686
   16SAPS  H16Y 2121   2.481   4.219   8.658  0.7594  0.5856  1.7784
   16SAPS  C317 2122   2.598   4.122   8.799 -0.0969 -0.0402 -1.0692
   16SAPS  H17X 2123   2.584   4.197   8.880  1.1489  0.2822 -1.1419
   16SAPS  H17Y 2124   2.696   4.072   8.812 -1.0907 -2.0667 -1.0765
   16SAPS  C318 2125   2.502   4.003   8.836  0.4490 -0.2405  0.2874
   16SAPS  H18X 2126   2.508   3.979   8.944 -0.0648  0.6958  0.5283
   16SAPS  H18Y 2127   2.517   3.915   8.770  3.6966  1.8139 -2.0176
   16SAPS  H18Z 2128   2.402   4.041   8.807  0.5676 -0.3098 -0.2252
   17SAPC     N 2129   2.256   0.131  10.718  0.6089  0.1428 -0.0815
   17SAPC   C12 2130   2.131   0.204  10.761 -0.6347 -0.2523 -0.2364
   17SAPC  H12A 2131   2.169   0.292  10.811  0.2468 -0.1917 -0.9826
   17SAPC  H12B 2132   2.080   0.153  10.841 -0.6324  0.9019  0.5181
   17SAPC   C13 2133   2.227  -0.008  10.656  0.1904 -1.1561 -0.2877
   17SAPC  H13A 2134   2.319  -0.054  10.624  0.1728 -2.2185  1.1141
   17SAPC  H13B 2135   2.176  -0.077  10.722 -2.2718  1.5482  0.8068
   17SAPC  H13C 2136   2.167   0.011  10.568 -0.3978 -2.3678 -0.1698
   17SAPC   C14 2137   2.323   0.211  10.612  0.2312 -0.6104  0.1687
   17SAPC  H14A 2138   2.350   0.306  10.657  1.2778 -0.3977 -0.8551
   17SAPC  H14B 2139   2.408   0.152  10.580  1.3552  0.3335  1.2917
   17SAPC  H14C 2140   2.259   0.230  10.527  1.8948 -0.2977 -1.0743
   17SAPC   C15 2141   2.341   0.119  10.835  0.0496 -0.0035 -0.4470
   17SAPC  H15A 2142   2.298   0.047  10.904  2.0025 -0.0474  0.7815
   17SAPC  H15B 2143   2.438   0.078  10.813  0.6282 -0.4731  2.5108
   17SAPC  H15C 2144   2.357   0.214  10.884  1.7857 -2.0130  3.2827
   17SAPC   C11 2145   2.035   0.244  10.647  0.2069 -0.8375 -0.5228
   17SAPC  H11A 2146   2.082   0.319  10.581 -2.4040  2.9869  1.5349
   17SAPC  H11B 2147   1.961   0.313  10.693  1.6413  0.8438 -0.6439
   17SAPC     P 2148   1.872   0.040  10.661 -0.0186 -0.2625 -0.0240
   17SAPC   O13 2149   1.886  -0.102  10.617  0.3794 -0.8049 -0.3823
   17SAPC   O14 2150   1.891   0.073  10.803  0.1392  0.3670 -0.4961
   17SAPC   O12 2151   1.969   0.136  10.576 -0.0730 -0.4544  0.3193
   17SAPC   O11 2152   1.726   0.100  10.619  0.0666 -0.4008 -0.4618
   17SAPC    C1 2153   1.705   0.110  10.469 -0.6675  0.2148  0.5421
   17SAPC    HA 2154   1.633   0.193  10.453  0.7456  1.2740 -0.4427
   17SAPC    HB 2155   1.792   0.154  10.417  1.8247 -1.9217  2.5990
   17SAPC    C2 2156   1.642  -0.019  10.411  0.0759  0.5796 -0.4433
   17SAPC    HS 2157   1.716  -0.099  10.434  1.5479  2.0348  0.0489
   17SAPC   O21 2158   1.611  -0.004  10.272  0.1707 -0.2999  0.3170
   17SAPC   C21 2159   1.716  -0.008  10.193 -0.3149  0.3032 -0.2383
   17SAPC   O22 2160   1.819  -0.065  10.216 -0.6253  0.6786 -0.2691
   17SAPC   C22 2161   1.688   0.092  10.076  0.8186 -0.1504  0.1188
   17SAPC   H2R 2162   1.650   0.040   9.985  3.1101 -0.5419 -0.6796
   17SAPC   H2S 2163   1.611   0.157  10.124 -0.2351 -0.2053 -1.3894
   17SAPC    C3 2164   1.508  -0.044  10.487 -0.7690  0.1545  0.0855
   17SAPC    HX 2165   1.467   0.055  10.459  2.8173  1.3272 -1.6943
   17SAPC    HY 2166   1.540  -0.052  10.593 -0.9431 -1.1630  0.0505
   17SAPC   O31 2167   1.432  -0.156  10.441 -0.2396  0.0784 -0.0663
   17SAPC   C31 2168   1.343  -0.192  10.529  0.1636  0.5273 -0.3429
   17SAPC   O32 2169   1.337  -0.154  10.645 -0.6167 -0.4903 -0.1033
   17SAPC   C32 2170   1.252  -0.298  10.464 -0.5783 -0.5860  0.1181
   17SAPC   H2X 2171   1.302  -0.395  10.448  1.4076  0.4640 -0.3513
   17SAPC   H2Y 2172   1.216  -0.261  10.366  1.0051  0.8590  0.0358
   17SAPC   C23 2173   1.805   0.172  10.042 -0.1717 -0.0700  0.2348
   17SAPC   H3R 2174   1.887   0.098  10.030 -0.2494  0.1116 -1.8847
   17SAPC   H3S 2175   1.838   0.242  10.122 -0.7129  0.5511 -0.0726
   17SAPC   C24 2176   1.790   0.246   9.909 -0.4527 -0.4946 -0.2938
   17SAPC   H4R 2177   1.700   0.309   9.923  0.8215  2.1194 -2.7518
   17SAPC   H4S 2178   1.771   0.169   9.831  0.5483 -2.3793  1.2439
   17SAPC   C25 2179   1.910   0.318   9.860 -0.8522 -0.5800 -0.8060
   17SAPC   H5R 2180   1.923   0.421   9.896  0.4208 -0.5502 -1.2829
   17SAPC   C26 2181   2.015   0.269   9.781  0.5841  0.4376 -0.0227
   17SAPC   H6R 2182   2.090   0.340   9.743 -1.4297  1.2570 -2.8083
   17SAPC   C27 2183   2.028   0.125   9.736 -0.5597 -0.1577 -0.2454
   17SAPC   H7R 2184   1.938   0.071   9.701 -1.9732 -0.2143  3.0578
   17SAPC   H7S 2185   2.066   0.066   9.823 -0.0238  0.8398  0.2128
   17SAPC   C28 2186   2.130   0.104   9.630 -0.2864  0.2771 -0.5994
   17SAPC   H8R 2187   2.230   0.094   9.674 -0.4793 -0.5766 -0.3372
   17SAPC   C29 2188   2.110   0.109   9.501 -0.0869  0.1155  0.1261
   17SAPC   H9R 2189   2.192   0.090   9.431 -0.4366 -1.1847  0.0563
   17SAPC  C210 2190   1.976   0.127   9.423  0.5784 -1.0680  0.8219
   17SAPC  H10R 2191   1.989   0.201   9.342 -1.0982  1.8702  3.0342
   17SAPC  H10S 2192   1.898   0.167   9.491 -0.0455 -0.0733 -0.4425
   17SAPC  C211 2193   1.921   0.002   9.363 -0.3540  0.2358 -0.0676
   17SAPC  H11R 2194   1.978  -0.091   9.379 -1.0459  0.0462  1.4518
   17SAPC  C212 2195   1.793  -0.005   9.312  0.0537 -0.2350  0.0554
   17SAPC  H12R 2196   1.761  -0.091   9.251 -2.4585  1.2578 -0.8970
   17SAPC  C213 2197   1.694   0.113   9.307  0.3546 -0.0114  0.1424
   17SAPC  H13R 2198   1.735   0.180   9.228 -1.4187  0.5221 -0.3580
   17SAPC  H13S 2199   1.694   0.186   9.390 -2.9001 -1.1663  1.2963
   17SAPC  C214 2200   1.545   0.092   9.272 -0.1216  0.6725  0.0238
   17SAPC  H14R 2201   1.474   0.074   9.354 -1.5613  2.3782 -0.8040
   17SAPC  C215 2202   1.492   0.108   9.147 -0.3264 -0.3772  0.0869
   17SAPC  H15R 2203   1.387   0.078   9.131 -0.4115  0.8505 -1.9323
   17SAPC  C216 2204   1.568   0.140   9.021  0.1451  0.3679  0.8046
   17SAPC  H16R 2205   1.677   0.136   9.040  0.3391  0.4445 -0.2563
   17SAPC  H16S 2206   1.545   0.243   8.985  1.8025  0.6314  0.4013
   17SAPC  C217 2207   1.524   0.038   8.913  0.4222  0.4808  0.3734
   17SAPC  H17R 2208   1.414   0.046   8.902  0.3594  0.0597  0.6889
   17SAPC  H17S 2209   1.538  -0.071   8.926 -4.3297 -0.5060 -0.8784
   17SAPC  C218 2210   1.577   0.064   8.772 -0.2049 -0.0840  0.2325
   17SAPC  H18R 2211   1.547  -0.017   8.703 -1.7288 -0.3870  1.2027
   17SAPC  H18S 2212   1.688   0.061   8.775 -0.1894  0.4874  0.2724
   17SAPC  C219 2213   1.527   0.194   8.719 -1.0089 -0.6387 -0.0466
   17SAPC  H19R 2214   1.590   0.273   8.765 -1.0599  0.0901 -1.2033
   17SAPC  H19S 2215   1.422   0.209   8.752  0.0880  1.5285  2.8823
   17SAPC  C220 2216   1.553   0.223   8.571  0.0138 -0.1063  0.5182
   17SAPC  H20R 2217   1.660   0.235   8.547 -0.5082  2.2416 -1.0012
   17SAPC  H20S 2218   1.509   0.320   8.540  0.2538 -0.4325 -0.9275
   17SAPC  H20T 2219   1.512   0.139   8.510  2.5797 -2.3992  1.7346
   17SAPC   C33 2220   1.136  -0.324  10.569  0.3764  0.4139 -0.0727
   17SAPC   H3X 2221   1.063  -0.240  10.578  0.6902  0.6414  0.4981
   17SAPC   H3Y 2222   1.173  -0.352  10.670 -2.2366 -0.5838  0.6997
   17SAPC   C34 2223   1.056  -0.447  10.515 -0.3244 -1.2310  1.5865
   17SAPC   H4X 2224   0.969  -0.480  10.576 -1.2721 -2.9248 -0.5064
   17SAPC   H4Y 2225   1.125  -0.531  10.489 -2.7524 -2.7082 -0.6768
   17SAPC   C35 2226   0.987  -0.426  10.377 -1.3775 -0.3746  0.3075
   17SAPC   H5X 2227   0.969  -0.316  10.372  0.1984 -0.1366 -1.0429
   17SAPC   H5Y 2228   0.891  -0.482  10.384 -0.5680 -1.9152 -0.4646
   17SAPC   C36 2229   1.074  -0.472  10.261  0.1396  0.3642  0.6549
   17SAPC   H6X 2230   1.073  -0.583  10.270  0.0495  0.2295 -0.7760
   17SAPC   H6Y 2231   1.180  -0.440  10.261  0.7249 -1.3719 -1.1183
   17SAPC   C37 2232   0.997  -0.449  10.132  0.7125  0.9746  0.4643
   17SAPC   H7X 2233   0.979  -0.341  10.116 -0.3741  0.5159 -1.7922
   17SAPC   H7Y 2234   0.898  -0.498  10.137  0.5728  1.2252  0.1825
   17SAPC   C38 2235   1.090  -0.485  10.014 -0.2536  0.1194 -0.1706
   17SAPC   H8X 2236   1.128  -0.589  10.019 -0.5983 -0.1425 -2.0524
   17SAPC   H8Y 2237   1.176  -0.416  10.003 -1.1105  1.6764  2.1189
   17SAPC   C39 2238   0.998  -0.473   9.895 -0.5433  0.3307  0.6831
   17SAPC   H9X 2239   0.962  -0.369   9.878 -2.5172 -0.7294 -2.8367
   17SAPC   H9Y 2240   0.899  -0.520   9.915 -1.2286  1.2981 -0.2858
   17SAPC  C310 2241   1.056  -0.534   9.766 -0.5107  0.2140 -0.2022
   17SAPC  H10X 2242   1.068  -0.644   9.781  2.2408  0.6294  1.4155
   17SAPC  H10Y 2243   1.157  -0.489   9.759 -1.0004  1.5013  0.6519
   17SAPC  C311 2244   0.958  -0.502   9.651  0.7086 -0.4219 -0.2356
   17SAPC  H11X 2245   0.999  -0.401   9.629  3.7432 -1.4067  0.4221
   17SAPC  H11Y 2246   0.849  -0.511   9.669  0.8227 -1.0370  0.1915
   17SAPC  C312 2247   0.985  -0.598   9.531  0.1195 -0.0276 -0.4791
   17SAPC  H12X 2248   0.934  -0.693   9.557  0.7775 -0.4250 -0.6349
   17SAPC  H12Y 2249   1.092  -0.624   9.524  0.4868  1.2511 -0.0170
   17SAPC  C313 2250   0.927  -0.542   9.400 -0.2297  0.2860 -0.1986
   17SAPC  H13X 2251   0.957  -0.436   9.388 -0.5177  0.3774 -0.1254
   17SAPC  H13Y 2252   0.816  -0.549   9.394 -0.4004  0.7674  1.7756
   17SAPC  C314 2253   0.976  -0.620   9.279 -0.3027 -0.4837 -0.1929
   17SAPC  H14X 2254   0.963  -0.730   9.277 -0.1231 -0.4962 -0.9187
   17SAPC  H14Y 2255   1.087  -0.609   9.285 -0.4232  0.1051  1.7626
   17SAPC  C315 2256   0.915  -0.561   9.145 -0.4309  0.2688 -0.5114
   17SAPC  H15X 2257   0.947  -0.455   9.142 -1.6561  0.8732  2.9404
   17SAPC  H15Y 2258   0.805  -0.563   9.159 -0.1888 -1.4122  1.7979
   17SAPC  C316 2259   0.951  -0.626   9.006  0.5272  0.4839 -0.7730
   17SAPC  H16X 2260   0.924  -0.734   9.000 -1.6415  1.0084 -1.3743
   17SAPC  H16Y 2261   1.060  -0.618   8.985  0.5270 -0.6278 -1.2610
   17SAPC  C317 2262   0.881  -0.556   8.890 -0.3027 -0.1505  0.2427
   17SAPC  H17X 2263   0.925  -0.600   8.798  1.6561  0.0908  1.0169
   17SAPC  H17Y 2264   0.913  -0.449   8.891 -0.4370 -0.1095  0.6969
   17SAPC  C318 2265   0.729  -0.546   8.882  0.3825  0.2054 -0.4418
   17SAPC  H18X 2266   0.698  -0.472   8.959 -1.9861  0.4079 -1.5126
   17SAPC  H18Y 2267   0.696  -0.504   8.785 -1.3557 -2.0988 -0.9400
   17SAPC  H18Z 2268   0.675  -0.640   8.904  1.9709 -0.1094  2.7565
   18SAPC     N 2269   2.617   5.677  10.909  0.7036  0.8059  0.1315
   18SAPC   C12 2270   2.604   5.554  11.000 -0.2474  0.2307 -0.0436
   18SAPC  H12A 2271   2.564   5.575  11.098 -3.7384 -0.8125 -1.1044
   18SAPC  H12B 2272   2.700   5.506  11.009 -0.0076  0.9311  1.2466
   18SAPC   C13 2273   2.675   5.650  10.778 -0.7290  0.0238 -0.1670
   18SAPC  H13A 2274   2.662   5.545  10.755 -0.6911 -0.2131  0.8468
   18SAPC  H13B 2275   2.631   5.704  10.696 -0.1671  0.9905  0.1534
   18SAPC  H13C 2276   2.781   5.658  10.792 -0.3634  1.2313 -2.9946
   18SAPC   C14 2277   2.488   5.742  10.877 -0.5896  0.7356  0.5836
   18SAPC  H14A 2278   2.517   5.839  10.840 -0.2496  0.8139  1.0544
   18SAPC  H14B 2279   2.431   5.674  10.815  0.9367  1.2229 -1.4182
   18SAPC  H14C 2280   2.427   5.759  10.965  0.9383 -0.2511  1.8948
   18SAPC   C15 2281   2.708   5.776  10.971  0.2308  0.4032 -0.0700
   18SAPC  H15A 2282   2.804   5.731  10.990 -0.5375 -0.3061  2.5466
   18SAPC  H15B 2283   2.742   5.855  10.905  1.2370  1.3042  1.4533
   18SAPC  H15C 2284   2.667   5.823  11.059 -0.8170  0.1478 -0.4107
   18SAPC   C11 2285   2.502   5.447  10.948 -0.7327  0.2788 -0.3038
   18SAPC  H11A 2286   2.407   5.501  10.926  1.2566  3.8909 -0.6942
   18SAPC  H11B 2287   2.471   5.371  11.024  0.7378  1.7141  1.8190
   18SAPC     P 2288   2.665   5.269  10.819  0.4343 -0.6410  0.1449
   18SAPC   O13 2289   2.789   5.339  10.806  0.6078 -0.2994  0.3298
   18SAPC   O14 2290   2.652   5.179  10.934 -0.3559  0.2257  0.1234
   18SAPC   O12 2291   2.547   5.383  10.826 -0.2812 -0.1595  0.0202
   18SAPC   O11 2292   2.625   5.194  10.679  0.3788  0.1527 -0.3858
   18SAPC    C1 2293   2.488   5.136  10.663  0.2175 -0.2016  0.4066
   18SAPC    HA 2294   2.459   5.065  10.743  1.7770 -1.7774 -0.3610
   18SAPC    HB 2295   2.415   5.220  10.672  0.8984  0.3879  0.5552
   18SAPC    C2 2296   2.473   5.080  10.522 -0.4685  0.2374 -0.4475
   18SAPC    HS 2297   2.493   4.971  10.522 -0.6720  0.1900  0.3803
   18SAPC   O21 2298   2.571   5.145  10.439 -0.0630 -0.3700 -0.0488
   18SAPC   C21 2299   2.554   5.277  10.408  0.4981  0.1258 -0.2251
   18SAPC   O22 2300   2.462   5.351  10.435  0.3832 -0.4531 -0.4255
   18SAPC   C22 2301   2.676   5.329  10.339  0.2790 -0.0286  0.1423
   18SAPC   H2R 2302   2.774   5.300  10.382  1.4385  1.7428 -1.1411
   18SAPC   H2S 2303   2.689   5.279  10.240 -1.6751  0.0582 -0.2055
   18SAPC    C3 2304   2.324   5.092  10.469 -0.1490 -0.4635  0.0497
   18SAPC    HX 2305   2.282   5.191  10.496  0.3770  0.3992 -2.0637
   18SAPC    HY 2306   2.265   5.012  10.519  1.6157 -1.3806  0.7709
   18SAPC   O31 2307   2.321   5.057  10.325 -0.6643 -0.2931 -0.8428
   18SAPC   C31 2308   2.222   4.988  10.277  0.4520 -0.3111  0.0163
   18SAPC   O32 2309   2.122   4.959  10.336  0.7913  0.0061  0.2325
   18SAPC   C32 2310   2.246   4.964  10.127 -0.6377  0.3282 -0.3187
   18SAPC   H2X 2311   2.253   4.854  10.113 -0.1443  0.5590 -2.1422
   18SAPC   H2Y 2312   2.341   5.012  10.098 -0.8340  0.5985 -0.5139
   18SAPC   C23 2313   2.675   5.480  10.305  0.9454  0.4606 -0.2516
   18SAPC   H3R 2314   2.658   5.538  10.398  0.5445 -0.8398  0.5047
   18SAPC   H3S 2315   2.587   5.488  10.238 -0.5623 -1.4135  1.3905
   18SAPC   C24 2316   2.802   5.506  10.224  0.4992  0.2336  1.1084
   18SAPC   H4R 2317   2.809   5.444  10.132  2.1701  3.3055 -1.0441
   18SAPC   H4S 2318   2.888   5.485  10.291  1.8593  1.2777 -0.2171
   18SAPC   C25 2319   2.815   5.653  10.191  0.7370 -0.9059  0.1710
   18SAPC   H5R 2320   2.877   5.704  10.266 -1.0999  0.9220  0.5140
   18SAPC   C26 2321   2.756   5.733  10.103  0.8515 -0.0535 -0.6204
   18SAPC   H6R 2322   2.773   5.841  10.095  1.1891 -0.2120 -2.4268
   18SAPC   C27 2323   2.648   5.696  10.001 -0.0997  0.1612 -0.2794
   18SAPC   H7R 2324   2.592   5.786   9.968  1.0812  1.1380  0.2874
   18SAPC   H7S 2325   2.576   5.628  10.050 -3.0297  2.9821 -0.3567
   18SAPC   C28 2326   2.719   5.624   9.892  0.1924  0.3088 -0.4294
   18SAPC   H8R 2327   2.775   5.533   9.920 -0.3428  0.5308  1.4928
   18SAPC   C29 2328   2.732   5.664   9.769 -0.3906 -0.2295  0.9901
   18SAPC   H9R 2329   2.795   5.602   9.703  0.0922  1.1553  0.1117
   18SAPC  C210 2330   2.679   5.788   9.699 -0.0067  0.0886  0.0659
   18SAPC  H10R 2331   2.583   5.823   9.744 -0.8150  0.4452 -1.8169
   18SAPC  H10S 2332   2.663   5.751   9.596  0.1864  0.0471  0.0500
   18SAPC  C211 2333   2.778   5.898   9.704  0.2028 -0.7478  0.2715
   18SAPC  H11R 2334   2.810   5.917   9.808  0.3070 -0.1054  0.1236
   18SAPC  C212 2335   2.836   5.964   9.604 -0.1001 -0.4375  0.0608
   18SAPC  H12R 2336   2.909   6.045   9.618 -1.4569  0.8643 -0.1681
   18SAPC  C213 2337   2.809   5.940   9.458  0.5671  0.5761 -0.6400
   18SAPC  H13R 2338   2.763   5.842   9.434  2.1108  0.5870 -4.2266
   18SAPC  H13S 2339   2.911   5.923   9.417  0.9188 -0.0515  0.4462
   18SAPC  C214 2340   2.715   6.037   9.395 -0.4696  0.0325 -0.4930
   18SAPC  H14R 2341   2.633   6.074   9.458  0.7730  0.2292  1.0768
   18SAPC  C215 2342   2.713   6.081   9.267 -0.0873 -1.4605 -0.3619
   18SAPC  H15R 2343   2.626   6.141   9.236  0.4739 -0.6384 -0.3674
   18SAPC  C216 2344   2.810   6.057   9.161 -0.0154 -0.4668  0.5346
   18SAPC  H16R 2345   2.872   5.965   9.162  0.3190 -0.2415  1.3821
   18SAPC  H16S 2346   2.888   6.136   9.160 -0.2103 -0.2698 -0.3455
   18SAPC  C217 2347   2.748   6.061   9.015 -0.2419  1.1263 -0.5120
   18SAPC  H17R 2348   2.669   5.983   9.016  1.4653 -0.6897  0.4885
   18SAPC  H17S 2349   2.829   6.040   8.942  0.2018  1.2864 -0.0664
   18SAPC  C218 2350   2.681   6.198   8.974 -0.1126  0.3354 -0.1146
   18SAPC  H18R 2351   2.606   6.231   9.049 -0.1283  0.2168 -0.0776
   18SAPC  H18S 2352   2.616   6.166   8.889 -1.7918  0.8818  0.9415
   18SAPC  C219 2353   2.771   6.305   8.937  0.1678  0.2168 -0.6039
   18SAPC  H19R 2354   2.857   6.271   8.875 -0.1599 -2.1993  0.1453
   18SAPC  H19S 2355   2.809   6.367   9.021 -2.8123 -1.4145  2.1803
   18SAPC  C220 2356   2.700   6.405   8.844  0.4518  0.1381 -0.3920
   18SAPC  H20R 2357   2.608   6.458   8.875  0.0767  0.2060 -1.5769
   18SAPC  H20S 2358   2.671   6.357   8.748 -1.0015  0.4425 -0.1202
   18SAPC  H20T 2359   2.774   6.481   8.810  1.3377 -0.7305 -0.4656
   18SAPC   C33 2360   2.125   5.033  10.044 -0.4945 -0.6004 -0.1390
   18SAPC   H3X 2361   2.115   5.143  10.060 -1.3083 -0.5206 -1.0682
   18SAPC   H3Y 2362   2.029   4.988  10.076 -1.7534  2.2796  0.4880
   18SAPC   C34 2363   2.148   5.027   9.895  0.1970 -0.1306  0.3652
   18SAPC   H4X 2364   2.139   4.919   9.870  2.0263 -0.2340 -0.0226
   18SAPC   H4Y 2365   2.256   5.040   9.871  0.3009 -2.2200 -0.6295
   18SAPC   C35 2366   2.054   5.114   9.819 -0.5278  0.1042  0.0554
   18SAPC   H5X 2367   2.057   5.219   9.856 -1.1964 -0.2753  1.2603
   18SAPC   H5Y 2368   1.952   5.071   9.822  0.5923 -2.9311 -1.2570
   18SAPC   C36 2369   2.094   5.129   9.675 -0.1637  0.1984 -0.0840
   18SAPC   H6X 2370   2.106   5.030   9.625  0.1509  1.1203 -1.9010
   18SAPC   H6Y 2371   2.193   5.178   9.668  0.0672 -0.3878 -1.1973
   18SAPC   C37 2372   1.982   5.209   9.593  0.1058  0.5425  0.1598
   18SAPC   H7X 2373   1.978   5.315   9.626 -0.4974  1.1364 -1.7260
   18SAPC   H7Y 2374   1.898   5.141   9.617  0.7256  0.1953  1.4377
   18SAPC   C38 2375   2.002   5.192   9.437 -0.6182 -0.1597 -0.0418
   18SAPC   H8X 2376   1.908   5.224   9.387 -0.1885  0.7262 -0.2919
   18SAPC   H8Y 2377   2.018   5.084   9.413 -0.2879 -0.4462  1.3559
   18SAPC   C39 2378   2.123   5.271   9.392  0.3558 -0.3235  0.2031
   18SAPC   H9X 2379   2.210   5.227   9.444  1.1488 -0.4842 -1.1918
   18SAPC   H9Y 2380   2.108   5.378   9.419  1.8245  0.4711 -1.8274
   18SAPC  C310 2381   2.152   5.272   9.240 -0.5603  0.2881 -0.0204
   18SAPC  H10X 2382   2.107   5.179   9.198 -0.7362  0.0221  0.7469
   18SAPC  H10Y 2383   2.263   5.261   9.231 -0.6982 -0.7567 -0.6562
   18SAPC  C311 2384   2.107   5.396   9.171  1.0408 -0.3735  0.6870
   18SAPC  H11X 2385   2.142   5.479   9.236  0.9763 -0.7057  1.1462
   18SAPC  H11Y 2386   1.996   5.387   9.169  0.9729 -0.1569 -2.4137
   18SAPC  C312 2387   2.164   5.414   9.024 -0.4306  0.0284 -0.4076
   18SAPC  H12X 2388   2.108   5.505   8.994 -2.1494 -0.5176  0.9845
   18SAPC  H12Y 2389   2.147   5.329   8.954  1.1680 -0.8219  0.1664
   18SAPC  C313 2390   2.315   5.438   9.036  0.4396 -0.6533 -0.9724
   18SAPC  H13X 2391   2.361   5.337   9.043  1.8307 -0.0216 -0.5850
   18SAPC  H13Y 2392   2.342   5.484   9.134 -1.1744 -1.6373 -0.0104
   18SAPC  C314 2393   2.367   5.516   8.917 -0.6212 -0.3883 -0.2564
   18SAPC  H14X 2394   2.476   5.493   8.909 -0.7847 -1.7102  0.8629
   18SAPC  H14Y 2395   2.354   5.626   8.922  0.8233 -0.2547  2.4039
   18SAPC  C315 2396   2.295   5.472   8.788 -0.0795  0.7841  0.4782
   18SAPC  H15X 2397   2.200   5.530   8.788 -0.6347 -0.1076  0.4578
   18SAPC  H15Y 2398   2.269   5.364   8.785  0.8755  0.5260  1.1908
   18SAPC  C316 2399   2.378   5.514   8.666 -0.0169 -1.0014 -0.2469
   18SAPC  H16X 2400   2.483   5.477   8.680  0.3946  0.7148  1.6112
   18SAPC  H16Y 2401   2.382   5.624   8.657 -0.9507 -1.0817 -2.0164
   18SAPC  C317 2402   2.332   5.454   8.536 -0.5629  0.2258  0.2253
   18SAPC  H17X 2403   2.322   5.346   8.558 -0.0295 -0.3191 -1.9658
   18SAPC  H17Y 2404   2.410   5.459   8.457 -1.4433  0.9022 -0.6258
   18SAPC  C318 2405   2.194   5.503   8.492 -0.7948 -0.1343  0.5935
   18SAPC  H18X 2406   2.122   5.480   8.573 -1.0759  3.6421  1.6149
   18SAPC  H18Y 2407   2.181   5.460   8.390  4.3570  0.0321 -0.4227
   18SAPC  H18Z 2408   2.186   5.614   8.486 -0.3616 -0.0598  1.2841
   19SAPC     N 2409   0.850   2.210  10.913 -0.1850  0.5251 -0.2311
   19SAPC   C12 2410   0.723   2.188  10.835  0.0209 -0.4400 -0.1308
   19SAPC  H12A 2411   0.675   2.284  10.835  0.6025 -0.1428 -0.0634
   19SAPC  H12B 2412   0.658   2.115  10.881 -0.8064 -0.9817 -2.0788
   19SAPC   C13 2413   0.943   2.299  10.848  0.0162 -0.0677  0.0560
   19SAPC  H13A 2414   0.962   2.247  10.755 -1.3022 -1.7735  0.6697
   19SAPC  H13B 2415   0.907   2.395  10.816  1.6651  0.1608 -1.2437
   19SAPC  H13C 2416   1.041   2.312  10.892  0.7576 -1.9163 -0.9110
   19SAPC   C14 2417   0.806   2.257  11.041 -0.2644  0.0996 -0.9928
   19SAPC  H14A 2418   0.759   2.353  11.028 -1.1712 -0.2706 -0.5172
   19SAPC  H14B 2419   0.727   2.188  11.064  1.4226 -2.5186 -2.4889
   19SAPC  H14C 2420   0.883   2.256  11.117 -0.6158  0.3965 -0.6291
   19SAPC   C15 2421   0.927   2.079  10.931 -0.3543  0.3764 -0.1733
   19SAPC  H15A 2422   0.964   2.035  10.840  0.3951 -0.8807  0.7049
   19SAPC  H15B 2423   1.011   2.096  10.997  0.1779 -1.9548 -0.1660
   19SAPC  H15C 2424   0.874   2.000  10.981  2.0970 -0.6784  0.9723
   19SAPC   C11 2425   0.735   2.135  10.693  1.0017  0.4796 -0.0473
   19SAPC  H11A 2426   0.803   2.206  10.641  1.3462  0.5009  0.4368
   19SAPC  H11B 2427   0.639   2.147  10.638  1.1028 -1.3134 -0.6868
   19SAPC     P 2428   0.681   1.883  10.749  0.5869 -0.0476  0.1203
   19SAPC   O13 2429   0.762   1.768  10.793 -0.2692  0.0525  0.6285
   19SAPC   O14 2430   0.575   1.939  10.834 -0.0782 -0.0034 -0.4601
   19SAPC   O12 2431   0.770   1.996  10.698  0.2057  0.3130  0.0602
   19SAPC   O11 2432   0.609   1.854  10.604 -0.7842 -0.3948 -0.6364
   19SAPC    C1 2433   0.688   1.785  10.507  0.3905  0.0112  0.1518
   19SAPC    HA 2434   0.773   1.726  10.548 -0.2989 -4.1751 -3.6732
   19SAPC    HB 2435   0.613   1.714  10.466 -2.4962  2.9181  0.0002
   19SAPC    C2 2436   0.756   1.878  10.398  0.8835 -0.5504 -0.0201
   19SAPC    HS 2437   0.856   1.907  10.436  0.1958 -0.3356  1.7500
   19SAPC   O21 2438   0.671   1.995  10.364  0.2888 -0.6213 -0.3342
   19SAPC   C21 2439   0.729   2.112  10.351  0.4527  0.0658  0.1732
   19SAPC   O22 2440   0.842   2.142  10.387 -0.0778 -0.4477 -0.3624
   19SAPC   C22 2441   0.637   2.205  10.268  0.0355  0.3724 -0.1798
   19SAPC   H2R 2442   0.545   2.152  10.235 -0.5444  0.2959  1.4596
   19SAPC   H2S 2443   0.604   2.274  10.349  0.8661 -0.2304  0.7042
   19SAPC    C3 2444   0.782   1.800  10.264  0.0672  0.1148 -0.3358
   19SAPC    HX 2445   0.688   1.761  10.220 -0.2631 -1.2215  1.4262
   19SAPC    HY 2446   0.836   1.709  10.297 -0.1897 -0.7570 -2.1954
   19SAPC   O31 2447   0.863   1.881  10.179 -0.0772  0.6675  0.2240
   19SAPC   C31 2448   0.913   1.822  10.070  0.3452  0.6330  0.0153
   19SAPC   O32 2449   0.892   1.711  10.030 -0.1727 -0.3218 -0.1885
   19SAPC   C32 2450   1.006   1.917   9.996  0.1988  0.0762  0.6635
   19SAPC   H2X 2451   1.096   1.930  10.060  0.1055  2.3569  0.3918
   19SAPC   H2Y 2452   0.967   2.020   9.987  0.2033  0.0523  0.3790
   19SAPC   C23 2453   0.713   2.293  10.174 -0.5189  0.4633  0.0638
   19SAPC   H3R 2454   0.799   2.353  10.211  0.3466  0.3104 -1.5979
   19SAPC   H3S 2455   0.653   2.379  10.134  1.4870  2.0524  0.2961
   19SAPC   C24 2456   0.767   2.208  10.048  0.4379 -0.3659  0.0847
   19SAPC   H4R 2457   0.864   2.173  10.090 -0.1852 -4.1382 -1.1878
   19SAPC   H4S 2458   0.793   2.287   9.975 -0.5354  0.8693  1.0166
   19SAPC   C25 2459   0.679   2.097   9.996 -0.2038 -0.5015 -0.1801
   19SAPC   H5R 2460   0.663   2.008  10.059 -0.3957 -2.8723 -3.3680
   19SAPC   C26 2461   0.617   2.097   9.876 -0.2112 -0.2659  0.6256
   19SAPC   H6R 2462   0.562   2.008   9.842 -1.4274  1.5351 -2.5192
   19SAPC   C27 2463   0.629   2.208   9.775  0.4034 -0.0257  0.6230
   19SAPC   H7R 2464   0.736   2.206   9.746  0.2945 -0.6747  0.2423
   19SAPC   H7S 2465   0.593   2.307   9.811  1.2710  0.6883 -0.4162
   19SAPC   C28 2466   0.543   2.183   9.655 -0.4262 -1.0485  0.2217
   19SAPC   H8R 2467   0.444   2.141   9.677 -2.2111  1.1681 -2.7684
   19SAPC   C29 2468   0.573   2.197   9.520 -0.1538 -0.4711  0.2547
   19SAPC   H9R 2469   0.496   2.175   9.445  1.2335 -2.8704 -0.5686
   19SAPC  C210 2470   0.709   2.242   9.467  0.2899 -0.0892 -0.4325
   19SAPC  H10R 2471   0.760   2.160   9.412 -1.2289 -2.2651  1.2307
   19SAPC  H10S 2472   0.773   2.267   9.554 -2.0741 -1.8998  1.9631
   19SAPC  C211 2473   0.715   2.367   9.384  0.1780 -0.0475 -0.1132
   19SAPC  H11R 2474   0.770   2.455   9.421 -2.3654  1.4861  0.2256
   19SAPC  C212 2475   0.670   2.375   9.253 -0.0210 -0.3691 -0.1313
   19SAPC  H12R 2476   0.679   2.471   9.200  3.2002 -1.2635 -1.4426
   19SAPC  C213 2477   0.598   2.260   9.185 -0.1493 -0.6419 -0.1491
   19SAPC  H13R 2478   0.493   2.265   9.220 -0.7857  3.1471 -2.0754
   19SAPC  H13S 2479   0.627   2.159   9.222  1.9375 -1.4624 -3.5027
   19SAPC  C214 2480   0.596   2.261   9.027  0.1396  0.3609  0.0616
   19SAPC  H14R 2481   0.499   2.232   8.984  1.5216 -3.1404 -1.0461
   19SAPC  C215 2482   0.701   2.266   8.943 -0.3411 -0.4629  0.4872
   19SAPC  H15R 2483   0.676   2.270   8.836 -2.8176  1.4746  1.0688
   19SAPC  C216 2484   0.846   2.269   8.987 -0.2209  1.3649 -0.9931
   19SAPC  H16R 2485   0.902   2.197   8.923 -1.3447  0.8506 -1.4358
   19SAPC  H16S 2486   0.857   2.233   9.091 -0.5038 -0.7388 -1.6288
   19SAPC  C217 2487   0.914   2.402   8.971  0.2143 -0.0594 -0.2408
   19SAPC  H17R 2488   0.854   2.483   9.018  0.7370 -0.1735  0.6271
   19SAPC  H17S 2489   0.919   2.423   8.861 -0.4357 -1.6287 -0.5952
   19SAPC  C218 2490   1.056   2.393   9.017 -0.3017  0.4665  0.0168
   19SAPC  H18R 2491   1.124   2.330   8.957  0.0392  1.4310 -0.6408
   19SAPC  H18S 2492   1.049   2.351   9.120 -4.5149 -0.5268 -0.4850
   19SAPC  C219 2493   1.124   2.526   9.042  0.7609 -0.4051  0.6261
   19SAPC  H19R 2494   1.134   2.586   8.950 -0.1710 -3.0461 -1.3045
   19SAPC  H19S 2495   1.227   2.494   9.069  1.0993  0.4786  0.4388
   19SAPC  C220 2496   1.068   2.609   9.164 -0.3596  0.5007  0.4151
   19SAPC  H20R 2497   1.148   2.608   9.241  1.1126 -0.8552 -1.0320
   19SAPC  H20S 2498   0.979   2.562   9.210  1.6589 -0.3451  3.7788
   19SAPC  H20T 2499   1.062   2.715   9.132 -2.3747  0.4138  0.4253
   19SAPC   C33 2500   1.057   1.873   9.861  0.4028 -0.6485  0.3191
   19SAPC   H3X 2501   1.052   1.764   9.844 -0.1078 -0.4145 -1.1194
   19SAPC   H3Y 2502   1.164   1.903   9.851  0.3573 -0.4503  0.4097
   19SAPC   C34 2503   0.985   1.946   9.746  0.2140 -0.2957  0.5243
   19SAPC   H4X 2504   0.988   2.055   9.769 -1.9012 -0.5100  2.1130
   19SAPC   H4Y 2505   0.878   1.918   9.739  0.6366 -1.6166 -1.4108
   19SAPC   C35 2506   1.056   1.912   9.613  0.2974 -1.1450  0.4830
   19SAPC   H5X 2507   1.052   1.803   9.591  2.1757 -1.4877  1.5993
   19SAPC   H5Y 2508   1.163   1.933   9.636 -0.5236 -0.7956  5.1191
   19SAPC   C36 2509   1.003   1.977   9.486  0.5900  0.5759 -0.0304
   19SAPC   H6X 2510   1.032   2.084   9.485  1.6531  0.3424  1.6089
   19SAPC   H6Y 2511   0.892   1.972   9.479  0.6787 -0.5915 -1.1271
   19SAPC   C37 2512   1.072   1.911   9.367 -0.3932 -0.2049 -0.0928
   19SAPC   H7X 2513   1.058   1.801   9.357 -0.0216 -0.3434  0.8289
   19SAPC   H7Y 2514   1.179   1.940   9.376 -0.4204 -0.2362  0.3954
   19SAPC   C38 2515   1.008   1.967   9.237  0.3573 -0.7443 -0.6716
   19SAPC   H8X 2516   1.011   2.078   9.236  2.2568 -0.6944  1.1569
   19SAPC   H8Y 2517   0.898   1.954   9.243  0.4821 -1.1658  1.9728
   19SAPC   C39 2518   1.073   1.898   9.114  0.1683 -0.0880  0.1605
   19SAPC   H9X 2519   1.020   1.803   9.090  0.4424  0.1549 -1.5052
   19SAPC   H9Y 2520   1.175   1.859   9.137 -0.8166 -2.2282  1.2148
   19SAPC  C310 2521   1.077   1.972   8.979  0.3021  0.6569  0.2340
   19SAPC  H10X 2522   1.127   2.071   8.978 -1.1268  1.4114  0.5368
   19SAPC  H10Y 2523   0.970   1.980   8.951 -0.4411  0.3832  2.7691
   19SAPC  C311 2524   1.157   1.903   8.867  0.0220  0.3514 -0.6066
   19SAPC  H11X 2525   1.259   1.898   8.911 -0.5621  0.0421  0.7479
   19SAPC  H11Y 2526   1.158   1.966   8.775 -0.4706 -2.1186 -2.3902
   19SAPC  C312 2527   1.118   1.765   8.834 -0.3272 -0.2675 -0.2116
   19SAPC  H12X 2528   1.013   1.757   8.800 -0.9486  2.9234  0.6875
   19SAPC  H12Y 2529   1.131   1.697   8.921 -2.9414 -2.2793 -1.2250
   19SAPC  C313 2530   1.204   1.698   8.725  0.0414  0.3119  0.3220
   19SAPC  H13X 2531   1.178   1.590   8.722  1.0246  0.0468  1.1555
   19SAPC  H13Y 2532   1.310   1.712   8.753  0.0482 -0.7738  0.9017
   19SAPC  C314 2533   1.182   1.751   8.584  0.3792  1.0636 -0.5127
   19SAPC  H14X 2534   1.199   1.861   8.584  1.3465  0.9334 -1.0508
   19SAPC  H14Y 2535   1.072   1.750   8.571  0.2386  0.6942  0.6248
   19SAPC  C315 2536   1.268   1.681   8.479  0.0273  1.4330  0.4521
   19SAPC  H15X 2537   1.246   1.572   8.477 -1.9447  1.7936  0.7732
   19SAPC  H15Y 2538   1.374   1.689   8.512  0.6321  0.2827 -1.0721
   19SAPC  C316 2539   1.252   1.731   8.331 -0.1335  0.1843  0.0763
   19SAPC  H16X 2540   1.146   1.762   8.319  0.2060  2.0888  1.6598
   19SAPC  H16Y 2541   1.269   1.644   8.264  0.4144 -0.1716  0.6626
   19SAPC  C317 2542   1.339   1.842   8.290 -0.7380  0.2235  0.6626
   19SAPC  H17X 2543   1.319   1.875   8.186 -1.2398 -1.6419  0.1267
   19SAPC  H17Y 2544   1.443   1.805   8.273 -0.1516  2.8737 -2.6424
   19SAPC  C318 2545   1.330   1.961   8.381  0.2023 -0.0579  0.1981
   19SAPC  H18X 2546   1.375   1.931   8.478  0.4025  2.5434  0.9856
   19SAPC  H18Y 2547   1.228   2.002   8.394 -0.5694 -1.4514 -1.1206
   19SAPC  H18Z 2548   1.391   2.049   8.354  0.6435 -0.6543 -0.8283
   20SAPC     N 2549   1.440   4.521  10.831  0.1065 -0.4508  0.5698
   20SAPC   C12 2550   1.535   4.580  10.938 -0.2169 -1.8682 -0.6826
   20SAPC  H12A 2551   1.481   4.577  11.031  1.0914 -1.3127  0.1073
   20SAPC  H12B 2552   1.554   4.679  10.902 -0.4364 -1.3737  0.5241
   20SAPC   C13 2553   1.383   4.395  10.882  0.2297 -0.5065 -0.0829
   20SAPC  H13A 2554   1.450   4.324  10.929 -0.4201 -0.5897  0.7298
   20SAPC  H13B 2555   1.307   4.412  10.956 -0.3264 -1.3056 -0.4563
   20SAPC  H13C 2556   1.333   4.336  10.807 -0.0314 -2.1568  1.3322
   20SAPC   C14 2557   1.321   4.606  10.799  0.2067 -0.4332  0.3032
   20SAPC  H14A 2558   1.253   4.625  10.881  0.4544  3.3261 -0.2292
   20SAPC  H14B 2559   1.349   4.704  10.766 -1.2734  0.6006  1.9322
   20SAPC  H14C 2560   1.269   4.552  10.722 -1.8989  0.7127  0.8349
   20SAPC   C15 2561   1.512   4.494  10.697 -0.2014 -0.2846  0.1991
   20SAPC  H15A 2562   1.597   4.429  10.713  0.1932 -0.6165 -2.6579
   20SAPC  H15B 2563   1.443   4.452  10.625  1.4845 -1.2904 -0.9138
   20SAPC  H15C 2564   1.531   4.595  10.662 -1.4997  0.3471  1.2133
   20SAPC   C11 2565   1.664   4.504  10.962 -0.9274  0.8740  0.1674
   20SAPC  H11A 2566   1.735   4.559  11.028 -0.5548  1.3159 -0.5812
   20SAPC  H11B 2567   1.716   4.498  10.864  1.9439 -1.1308  1.6566
   20SAPC     P 2568   1.732   4.262  11.022 -0.0864 -0.1358 -0.1730
   20SAPC   O13 2569   1.857   4.308  11.076  0.0634 -1.1547  0.1541
   20SAPC   O14 2570   1.669   4.137  11.072 -0.4353  0.0001  0.1915
   20SAPC   O12 2571   1.629   4.379  11.022  0.1896  0.3136  0.3666
   20SAPC   O11 2572   1.751   4.231  10.866 -0.2574  0.3856  0.2340
   20SAPC    C1 2573   1.882   4.224  10.800  0.2835  0.5648 -0.4337
   20SAPC    HA 2574   1.952   4.168  10.865  1.2464  0.1976 -1.7524
   20SAPC    HB 2575   1.860   4.163  10.710  0.9229 -1.2555  0.5761
   20SAPC    C2 2576   1.947   4.354  10.758 -0.0955  0.2256 -0.2575
   20SAPC    HS 2577   1.959   4.422  10.845  1.3014 -0.3626  0.0301
   20SAPC   O21 2578   1.865   4.419  10.662  0.5645  0.0025 -0.1870
   20SAPC   C21 2579   1.901   4.539  10.628  0.0603 -0.7121 -0.0294
   20SAPC   O22 2580   1.995   4.607  10.674  0.6922 -0.0594  0.0827
   20SAPC   C22 2581   1.816   4.590  10.510  0.2722  0.5039 -0.1087
   20SAPC   H2R 2582   1.753   4.502  10.484 -0.4663  0.1021  2.7270
   20SAPC   H2S 2583   1.739   4.650  10.563  0.2011 -0.9253  1.4878
   20SAPC    C3 2584   2.095   4.315  10.706 -0.2789  0.7041 -0.1519
   20SAPC    HX 2585   2.143   4.243  10.776  0.9243  2.5709  1.0311
   20SAPC    HY 2586   2.159   4.406  10.716 -0.4343  0.6039  2.3831
   20SAPC   O31 2587   2.093   4.263  10.573 -0.0319  0.2678 -0.3210
   20SAPC   C31 2588   2.207   4.277  10.501  0.5368  0.1366  0.5663
   20SAPC   O32 2589   2.300   4.341  10.538  0.0666  0.5960 -0.1914
   20SAPC   C32 2590   2.195   4.214  10.365 -0.5797  0.1008  0.7625
   20SAPC   H2X 2591   2.094   4.231  10.322 -0.3052  0.2588  0.1684
   20SAPC   H2Y 2592   2.223   4.107  10.377  0.7233  0.1163 -1.5853
   20SAPC   C23 2593   1.883   4.659  10.392 -0.3812 -0.5884  0.4520
   20SAPC   H3R 2594   1.920   4.753  10.439 -1.6960  1.1832 -1.8785
   20SAPC   H3S 2595   1.801   4.694  10.327 -0.4377 -1.2636  0.1523
   20SAPC   C24 2596   1.991   4.580  10.324 -0.4214 -0.3041  0.4291
   20SAPC   H4R 2597   2.066   4.549  10.400 -1.5847  1.4571  2.3965
   20SAPC   H4S 2598   2.055   4.641  10.257 -0.3187  0.6461  1.3743
   20SAPC   C25 2599   1.940   4.466  10.246  0.1145  0.6475 -0.3910
   20SAPC   H5R 2600   1.949   4.368  10.294  1.7585 -0.1412 -2.1742
   20SAPC   C26 2601   1.910   4.468  10.116  0.3376  0.6932 -0.0351
   20SAPC   H6R 2602   1.865   4.378  10.072  1.1796  0.2766 -0.0612
   20SAPC   C27 2603   1.911   4.584  10.028 -0.1514 -0.1531  0.0821
   20SAPC   H7R 2604   1.893   4.669  10.097 -0.3409 -0.2944  0.2089
   20SAPC   H7S 2605   1.826   4.575   9.956  0.5593  0.1629 -0.8025
   20SAPC   C28 2606   2.043   4.580   9.957 -0.0776 -0.1513 -0.2329
   20SAPC   H8R 2607   2.125   4.555  10.027  0.7406  0.0370 -1.0993
   20SAPC   C29 2608   2.066   4.629   9.834 -0.5908 -0.0748 -0.1020
   20SAPC   H9R 2609   2.171   4.632   9.800  0.1169 -0.7450  1.8816
   20SAPC  C210 2610   1.970   4.695   9.735 -0.8340  0.1206  0.0249
   20SAPC  H10R 2611   2.018   4.773   9.672 -0.1671  1.0226  1.5857
   20SAPC  H10S 2612   1.896   4.755   9.793  0.8673  1.4940  0.8875
   20SAPC  C211 2613   1.893   4.594   9.643 -0.9514  1.0791  0.1417
   20SAPC  H11R 2614   1.796   4.551   9.670 -0.5041  0.6731  1.1514
   20SAPC  C212 2615   1.938   4.553   9.519 -0.4915 -0.3871 -0.6945
   20SAPC  H12R 2616   1.872   4.500   9.450  0.4729  0.3360 -2.2159
   20SAPC  C213 2617   2.059   4.609   9.449 -0.1695 -0.4748  0.3914
   20SAPC  H13R 2618   2.092   4.543   9.366 -2.4575 -1.1954 -0.0232
   20SAPC  H13S 2619   2.147   4.609   9.517  0.4154  2.0130 -0.2906
   20SAPC  C214 2620   2.038   4.754   9.404 -0.7467  0.1843 -0.5345
   20SAPC  H14R 2621   2.068   4.832   9.476  1.0505  0.5735 -1.6425
   20SAPC  C215 2622   2.007   4.801   9.282  0.9247 -0.0508 -0.5588
   20SAPC  H15R 2623   1.993   4.907   9.254 -0.2364  0.1972  0.8500
   20SAPC  C216 2624   1.981   4.706   9.165  0.5063 -0.5264 -0.5606
   20SAPC  H16R 2625   1.941   4.609   9.200 -0.4474 -0.3161 -1.0320
   20SAPC  H16S 2626   2.085   4.678   9.136  0.6105 -1.7840  0.9310
   20SAPC  C217 2627   1.920   4.758   9.033 -0.0337 -0.1848  0.3324
   20SAPC  H17R 2628   1.813   4.788   9.046 -0.1643 -0.4525 -0.1021
   20SAPC  H17S 2629   1.922   4.680   8.954  0.2468  1.9065 -1.8555
   20SAPC  C218 2630   1.991   4.885   8.991  0.0174  0.4984  0.0466
   20SAPC  H18R 2631   2.101   4.871   8.993  0.1274  1.0439 -1.4231
   20SAPC  H18S 2632   1.957   4.968   9.056 -0.6397  2.0240 -2.1388
   20SAPC  C219 2633   1.943   4.930   8.855 -0.6736 -0.6093 -0.3482
   20SAPC  H19R 2634   1.832   4.935   8.853 -0.6499  3.4886 -2.5741
   20SAPC  H19S 2635   1.964   4.848   8.784 -2.1225 -1.5397  0.2577
   20SAPC  C220 2636   1.997   5.072   8.822  0.5177  0.4502 -0.3690
   20SAPC  H20R 2637   2.108   5.078   8.823  0.4663  1.7662  1.0430
   20SAPC  H20S 2638   1.964   5.145   8.899 -0.3035  0.2329 -0.5035
   20SAPC  H20T 2639   1.967   5.100   8.718 -2.6859 -1.1257 -0.0086
   20SAPC   C33 2640   2.282   4.281  10.260 -0.6830 -0.9716  0.0461
   20SAPC   H3X 2641   2.391   4.261  10.271 -0.3045  0.5105 -0.6789
   20SAPC   H3Y 2642   2.272   4.392  10.268 -0.4781 -1.0029  0.7926
   20SAPC   C34 2643   2.243   4.230  10.115 -0.0795  0.1909 -1.0978
   20SAPC   H4X 2644   2.135   4.246  10.098 -0.1489  1.1173  0.0709
   20SAPC   H4Y 2645   2.266   4.121  10.105  1.5755  0.4935 -0.9638
   20SAPC   C35 2646   2.322   4.289   9.991  0.0488  0.3089  0.5235
   20SAPC   H5X 2647   2.429   4.256   9.997  0.1026  0.5823  1.2432
   20SAPC   H5Y 2648   2.312   4.399   9.988 -0.3473  0.2732  0.5687
   20SAPC   C36 2649   2.278   4.238   9.858 -0.0179  0.6922 -0.1262
   20SAPC   H6X 2650   2.171   4.265   9.846  0.2049  1.6341 -0.0610
   20SAPC   H6Y 2651   2.306   4.130   9.854  0.5456  0.8526 -2.8082
   20SAPC   C37 2652   2.351   4.315   9.744  0.0224 -0.4334  0.4147
   20SAPC   H7X 2653   2.455   4.285   9.722  0.5294  1.5183 -0.0913
   20SAPC   H7Y 2654   2.338   4.426   9.747 -0.1990 -0.4665  0.7135
   20SAPC   C38 2655   2.272   4.293   9.611 -0.2504 -0.6675 -0.1957
   20SAPC   H8X 2656   2.167   4.327   9.615  0.8064  3.0672 -0.0920
   20SAPC   H8Y 2657   2.268   4.182   9.600 -0.7116 -0.4854 -2.5612
   20SAPC   C39 2658   2.344   4.355   9.494  0.1839 -0.5327 -0.1305
   20SAPC   H9X 2659   2.453   4.333   9.505  0.1055 -1.5940 -1.2602
   20SAPC   H9Y 2660   2.333   4.465   9.502 -2.5834 -0.8481  1.5137
   20SAPC  C310 2661   2.305   4.307   9.353 -0.5128 -0.4527  0.5617
   20SAPC  H10X 2662   2.206   4.344   9.320  0.5351  1.0920 -1.0588
   20SAPC  H10Y 2663   2.307   4.195   9.350  2.8563 -0.4870 -0.6116
   20SAPC  C311 2664   2.397   4.367   9.244 -0.3045 -1.0135 -0.0081
   20SAPC  H11X 2665   2.500   4.358   9.285 -0.2038 -0.4976 -0.1463
   20SAPC  H11Y 2666   2.373   4.474   9.230 -0.6226 -1.2743 -1.5448
   20SAPC  C312 2667   2.377   4.301   9.109 -0.8079 -0.3043 -0.0666
   20SAPC  H12X 2668   2.401   4.193   9.119  0.4472  0.1413  2.5790
   20SAPC  H12Y 2669   2.455   4.340   9.040  0.7342  0.5312  2.0481
   20SAPC  C313 2670   2.240   4.315   9.047 -0.3100 -0.0319  0.3279
   20SAPC  H13X 2671   2.164   4.296   9.126 -0.2780  1.5705  0.7757
   20SAPC  H13Y 2672   2.232   4.227   8.979 -2.0689 -0.2810  0.8002
   20SAPC  C314 2673   2.205   4.438   8.962 -0.0568 -0.2760  0.8466
   20SAPC  H14X 2674   2.237   4.520   9.030  1.2694 -0.2688  0.2473
   20SAPC  H14Y 2675   2.095   4.440   8.950 -0.0271 -0.9930  0.3920
   20SAPC  C315 2676   2.290   4.443   8.834 -0.3598  0.1689 -0.4010
   20SAPC  H15X 2677   2.264   4.352   8.777 -1.6596  1.5031 -2.0479
   20SAPC  H15Y 2678   2.400   4.443   8.848 -0.5209  0.0922  1.0603
   20SAPC  C316 2679   2.266   4.564   8.741  0.5159 -0.4102 -0.0555
   20SAPC  H16X 2680   2.326   4.647   8.784  0.4379  0.3588 -1.3908
   20SAPC  H16Y 2681   2.164   4.603   8.757  0.3642 -0.7691 -0.1317
   20SAPC  C317 2682   2.300   4.547   8.595  0.5843 -0.3282 -0.3361
   20SAPC  H17X 2683   2.247   4.463   8.546  1.1875 -1.7185  1.2904
   20SAPC  H17Y 2684   2.406   4.515   8.585  0.4593 -1.0736  0.6031
   20SAPC  C318 2685   2.266   4.674   8.511  0.2025 -0.4029 -0.1286
   20SAPC  H18X 2686   2.262   4.647   8.403 -3.5741 -1.5750  0.1356
   20SAPC  H18Y 2687   2.333   4.762   8.525 -0.3440  0.1910 -1.0793
   20SAPC  H18Z 2688   2.160   4.707   8.525 -0.0962 -0.2767 -2.2666
   21SAPC     N 2689   2.511   3.472  11.222  0.9332  0.0201  0.2910
   21SAPC   C12 2690   2.398   3.390  11.163  1.1357  0.3458 -0.0982
   21SAPC  H12A 2691   2.311   3.453  11.148  0.3412 -0.4721  0.9408
   21SAPC  H12B 2692   2.365   3.323  11.241  1.1329 -0.2110 -0.5676
   21SAPC   C13 2693   2.477   3.509  11.362  0.0275 -0.1607  0.5452
   21SAPC  H13A 2694   2.398   3.583  11.361 -1.0330 -1.2086 -1.9824
   21SAPC  H13B 2695   2.462   3.422  11.424  2.5340 -1.2679 -0.2571
   21SAPC  H13C 2696   2.557   3.555  11.417 -0.0364  2.2089 -1.1663
   21SAPC   C14 2697   2.647   3.404  11.234  0.1695  0.4621  0.0257
   21SAPC  H14A 2698   2.665   3.347  11.143 -0.2734  1.0806 -0.4563
   21SAPC  H14B 2699   2.731   3.471  11.245  0.8995 -0.6899  2.0727
   21SAPC  H14C 2700   2.647   3.336  11.318 -1.2107  0.0398 -0.2837
   21SAPC   C15 2701   2.534   3.603  11.146  0.0972  0.0344  0.6347
   21SAPC  H15A 2702   2.452   3.673  11.154  1.0425  1.0499  1.7041
   21SAPC  H15B 2703   2.625   3.651  11.178 -0.4567  1.9021 -0.4427
   21SAPC  H15C 2704   2.559   3.578  11.044 -1.1414  1.7844 -0.1720
   21SAPC   C11 2705   2.441   3.305  11.037  0.4772  0.3489  0.5475
   21SAPC  H11A 2706   2.482   3.378  10.965  0.0656 -0.4008 -0.4686
   21SAPC  H11B 2707   2.349   3.267  10.987  0.7820 -0.1966  0.4030
   21SAPC     P 2708   2.638   3.128  10.980  0.1875  0.1184  0.2545
   21SAPC   O13 2709   2.775   3.156  11.027 -0.0064 -0.6238 -0.3717
   21SAPC   O14 2710   2.596   2.986  10.950 -0.3410 -0.4792 -0.2570
   21SAPC   O12 2711   2.527   3.198  11.070 -0.2494 -0.0890 -0.3978
   21SAPC   O11 2712   2.616   3.209  10.842 -0.0803 -0.0515  0.1271
   21SAPC    C1 2713   2.733   3.264  10.778  0.2572  0.1001  0.1622
   21SAPC    HA 2714   2.829   3.216  10.805  0.1841  0.4979  1.1784
   21SAPC    HB 2715   2.719   3.246  10.670 -0.8410 -5.4496  0.9623
   21SAPC    C2 2716   2.744   3.419  10.787  0.4594 -0.5663  0.5525
   21SAPC    HS 2717   2.737   3.460  10.890  0.4041  1.3940 -0.1791
   21SAPC   O21 2718   2.638   3.473  10.707 -0.4439 -0.4771 -0.9317
   21SAPC   C21 2719   2.585   3.590  10.752 -0.9181 -0.3182 -0.2996
   21SAPC   O22 2720   2.631   3.657  10.843 -0.0476 -0.1811 -0.2498
   21SAPC   C22 2721   2.468   3.636  10.660  0.2549 -0.5939 -0.1569
   21SAPC   H2R 2722   2.502   3.635  10.554 -2.2486  2.0037 -1.0992
   21SAPC   H2S 2723   2.393   3.558  10.684 -0.4263 -0.1381 -0.7692
   21SAPC    C3 2724   2.880   3.483  10.735 -0.2133  0.1176 -0.1903
   21SAPC    HX 2725   2.960   3.441  10.800 -1.1998 -1.7980 -0.1441
   21SAPC    HY 2726   2.885   3.592  10.755  2.0062  0.2784 -1.2922
   21SAPC   O31 2727   2.896   3.449  10.595 -0.4160  0.4955 -0.0821
   21SAPC   C31 2728   3.029   3.467  10.548  0.1868 -0.6606  0.6472
   21SAPC   O32 2729   3.116   3.513  10.620  0.1747 -0.0944 -0.0013
   21SAPC   C32 2730   3.036   3.425  10.403  0.2358 -0.6712 -0.2145
   21SAPC   H2X 2731   3.025   3.513  10.335 -0.9207  1.2844  2.3477
   21SAPC   H2Y 2732   2.951   3.359  10.374 -0.2762 -1.1406  2.1772
   21SAPC   C23 2733   2.403   3.772  10.689 -0.5280  0.1891  1.0399
   21SAPC   H3R 2734   2.477   3.850  10.660 -2.1001  1.3937  0.0738
   21SAPC   H3S 2735   2.387   3.778  10.799 -2.6372 -4.0380  1.1720
   21SAPC   C24 2736   2.275   3.801  10.613 -0.4288 -0.0059  0.0886
   21SAPC   H4R 2737   2.239   3.897  10.656 -0.0020 -0.4113  1.4374
   21SAPC   H4S 2738   2.188   3.738  10.640 -1.7778  2.1123  0.9771
   21SAPC   C25 2739   2.301   3.807  10.465  0.3067 -0.3373  0.2207
   21SAPC   H5R 2740   2.385   3.872  10.436 -0.4331  0.4203 -0.2802
   21SAPC   C26 2741   2.228   3.734  10.375  0.3003  0.3070  0.1511
   21SAPC   H6R 2742   2.244   3.746  10.266 -0.3720  0.0782  0.0276
   21SAPC   C27 2743   2.119   3.633  10.409 -0.2836 -0.2937  0.0060
   21SAPC   H7R 2744   2.022   3.678  10.377  1.0651  2.1973 -0.9036
   21SAPC   H7S 2745   2.118   3.596  10.513  1.3045 -1.2700 -0.2969
   21SAPC   C28 2746   2.135   3.508  10.322 -0.4006 -0.0589  0.2722
   21SAPC   H8R 2747   2.181   3.430  10.384 -1.7060 -0.5978  0.5844
   21SAPC   C29 2748   2.093   3.478  10.197 -0.1897 -0.1502  0.3617
   21SAPC   H9R 2749   2.106   3.379  10.150 -0.3559 -0.5855  1.2140
   21SAPC  C210 2750   2.012   3.585  10.115  0.2814  0.5335  0.1207
   21SAPC  H10R 2751   1.952   3.651  10.181 -1.7048 -2.3708  1.4463
   21SAPC  H10S 2752   1.936   3.543  10.046 -1.0152  1.4341  0.9584
   21SAPC  C211 2753   2.111   3.658  10.024 -0.0617 -0.0807 -0.0826
   21SAPC  H11R 2754   2.176   3.729  10.077 -2.1723  0.8823  1.4084
   21SAPC  C212 2755   2.126   3.642   9.890  0.6017 -0.3829  0.5957
   21SAPC  H12R 2756   2.197   3.706   9.835 -0.4554  0.6415  0.4098
   21SAPC  C213 2757   2.046   3.552   9.803  0.2404  0.0905  0.1635
   21SAPC  H13R 2758   1.981   3.481   9.858 -0.1595  1.6099  1.7733
   21SAPC  H13S 2759   2.121   3.504   9.737 -1.1065  1.7797 -2.8020
   21SAPC  C214 2760   1.958   3.624   9.703  0.0660 -0.7946  0.1213
   21SAPC  H14R 2761   1.910   3.712   9.748 -0.5330 -0.1275 -1.7274
   21SAPC  C215 2762   1.927   3.599   9.574 -0.0125  0.8503 -0.6979
   21SAPC  H15R 2763   1.861   3.663   9.513 -2.0285 -0.5374 -0.0953
   21SAPC  C216 2764   1.976   3.477   9.507  0.1873  0.4482 -0.1234
   21SAPC  H16R 2765   1.889   3.408   9.497  1.2603 -0.8322 -0.9594
   21SAPC  H16S 2766   2.052   3.413   9.556 -1.3263 -1.7430 -0.4595
   21SAPC  C217 2767   2.039   3.508   9.369 -0.4465 -0.0968 -0.0654
   21SAPC  H17R 2768   2.128   3.571   9.389 -0.7330 -0.1837  1.6708
   21SAPC  H17S 2769   1.971   3.572   9.308  3.8804  2.8025 -2.3647
   21SAPC  C218 2770   2.054   3.379   9.285 -0.5641 -0.3007  0.3614
   21SAPC  H18R 2771   1.956   3.332   9.259 -0.7111 -0.8021  1.6957
   21SAPC  H18S 2772   2.126   3.307   9.330  0.7361  0.2291 -0.8031
   21SAPC  C219 2773   2.129   3.410   9.147 -0.3548  0.1225  0.5183
   21SAPC  H19R 2774   2.222   3.465   9.175  0.0116 -0.3348  0.2125
   21SAPC  H19S 2775   2.063   3.462   9.074  0.3804  0.4791  0.0985
   21SAPC  C220 2776   2.170   3.271   9.104 -0.3563  0.0948 -0.4379
   21SAPC  H20R 2777   2.081   3.204   9.102  0.2352 -0.7525 -3.3730
   21SAPC  H20S 2778   2.243   3.228   9.176 -0.0326  2.7291  0.9259
   21SAPC  H20T 2779   2.210   3.256   9.001  1.1481  0.4926  0.0609
   21SAPC   C33 2780   3.167   3.353  10.366 -0.0958 -0.5965  0.2199
   21SAPC   H3X 2781   3.147   3.245  10.384 -0.6462 -0.3630  1.1080
   21SAPC   H3Y 2782   3.249   3.381  10.436  0.8524 -2.0330 -0.2642
   21SAPC   C34 2783   3.208   3.376  10.219 -0.9422  0.5491 -0.4561
   21SAPC   H4X 2784   3.304   3.321  10.211 -1.8929 -1.5060  1.2822
   21SAPC   H4Y 2785   3.206   3.485  10.198 -1.4664  0.5614 -0.3405
   21SAPC   C35 2786   3.112   3.316  10.111  0.4161 -0.6186 -0.7024
   21SAPC   H5X 2787   3.019   3.372  10.134  1.0838 -0.0745  0.7621
   21SAPC   H5Y 2788   3.101   3.211  10.144  0.6493 -0.2005  0.7849
   21SAPC   C36 2789   3.162   3.331   9.972 -0.6011  0.2086 -0.0837
   21SAPC   H6X 2790   3.256   3.272   9.975  0.6524  2.0469  3.6190
   21SAPC   H6Y 2791   3.201   3.432   9.951 -0.1150 -0.5000 -3.0492
   21SAPC   C37 2792   3.059   3.285   9.874 -0.2208 -0.0025  0.6077
   21SAPC   H7X 2793   2.956   3.328   9.878 -0.7155 -1.1472  0.6152
   21SAPC   H7Y 2794   3.043   3.175   9.882  1.0859 -0.1928  0.7290
   21SAPC   C38 2795   3.109   3.312   9.727  0.2834  0.2889 -0.7007
   21SAPC   H8X 2796   3.208   3.264   9.712  0.6768  1.1622 -0.9417
   21SAPC   H8Y 2797   3.135   3.419   9.718 -2.5310  1.0455 -1.0650
   21SAPC   C39 2798   3.011   3.273   9.620 -0.3906 -0.0508  0.0085
   21SAPC   H9X 2799   2.932   3.351   9.624 -1.9855 -1.6686  1.6661
   21SAPC   H9Y 2800   2.958   3.180   9.648 -1.2555  0.0121 -1.3546
   21SAPC  C310 2801   3.069   3.276   9.486 -0.5457 -0.5333  0.2245
   21SAPC  H10X 2802   3.142   3.194   9.469 -0.9371 -0.9914  0.7093
   21SAPC  H10Y 2803   3.121   3.373   9.484 -0.4408 -0.5951 -1.6107
   21SAPC  C311 2804   2.958   3.264   9.372 -0.2487 -0.0275 -0.1284
   21SAPC  H11X 2805   2.885   3.346   9.389 -1.1545 -0.8618  0.0841
   21SAPC  H11Y 2806   2.894   3.175   9.388  0.4332 -0.6569 -0.7750
   21SAPC  C312 2807   3.010   3.277   9.224 -0.1260  1.2303 -0.1857
   21SAPC  H12X 2808   3.115   3.311   9.237 -0.5176  1.4278  3.3118
   21SAPC  H12Y 2809   2.943   3.343   9.165 -0.0358  1.4939  0.0037
   21SAPC  C313 2810   3.006   3.137   9.162  0.4297 -0.4935  1.2628
   21SAPC  H13X 2811   2.901   3.100   9.172 -0.4167  1.8425  1.5391
   21SAPC  H13Y 2812   3.063   3.056   9.212 -0.4253 -1.7423  0.2830
   21SAPC  C314 2813   3.055   3.131   9.017 -0.1589 -0.1509 -0.3963
   21SAPC  H14X 2814   3.135   3.208   9.003  0.6048 -0.9907 -0.7660
   21SAPC  H14Y 2815   2.976   3.159   8.944 -1.4133 -0.2359  0.8999
   21SAPC  C315 2816   3.127   3.003   8.987  0.0819 -0.6115  0.7491
   21SAPC  H15X 2817   3.049   2.924   8.991 -0.1953 -0.4861 -1.1546
   21SAPC  H15Y 2818   3.194   2.989   9.075 -1.1136 -1.1451  1.6098
   21SAPC  C316 2819   3.205   2.994   8.852  0.4739 -0.0261 -0.0709
   21SAPC  H16X 2820   3.280   3.076   8.863  0.2924  0.1997 -0.5119
   21SAPC  H16Y 2821   3.139   3.025   8.769  0.0513  1.5438  0.8015
   21SAPC  C317 2822   3.285   2.859   8.829  0.0438 -0.8419 -0.6040
   21SAPC  H17X 2823   3.211   2.776   8.825  0.8743 -1.9127  2.9335
   21SAPC  H17Y 2824   3.346   2.846   8.921 -1.7874 -0.2127  0.7585
   21SAPC  C318 2825   3.387   2.867   8.714  0.3512  0.6647 -0.7585
   21SAPC  H18X 2826   3.431   2.769   8.687 -0.6292  0.0716 -0.2587
   21SAPC  H18Y 2827   3.474   2.931   8.740 -2.3204  3.5066  2.0979
   21SAPC  H18Z 2828   3.332   2.917   8.631 -0.8756  1.6169  0.5811
   22SAPC     N 2829   1.692   3.340  11.346  0.7522  0.4921 -0.0474
   22SAPC   C12 2830   1.566   3.389  11.283  0.4507 -0.0933  0.6060
   22SAPC  H12A 2831   1.598   3.429  11.188  1.6836 -3.9651 -0.8013
   22SAPC  H12B 2832   1.541   3.475  11.343  0.6900  1.5529 -1.5176
   22SAPC   C13 2833   1.798   3.437  11.354  0.4041  0.5226 -0.1583
   22SAPC  H13A 2834   1.880   3.378  11.392 -1.1809 -2.3099 -0.9007
   22SAPC  H13B 2835   1.813   3.478  11.255 -2.7867 -0.7669 -1.2957
   22SAPC  H13C 2836   1.762   3.517  11.418  1.2317  0.2249  0.7008
   22SAPC   C14 2837   1.652   3.307  11.486 -0.2442  0.2125  0.5538
   22SAPC  H14A 2838   1.561   3.249  11.492 -0.7050  0.9660  1.1705
   22SAPC  H14B 2839   1.733   3.259  11.538  2.0263  1.7976 -1.2923
   22SAPC  H14C 2840   1.623   3.392  11.547  0.9118  0.4427  0.7944
   22SAPC   C15 2841   1.746   3.226  11.270 -0.3375  0.4004  0.8708
   22SAPC  H15A 2842   1.836   3.181  11.309  0.0820 -1.0090 -1.5277
   22SAPC  H15B 2843   1.673   3.147  11.273 -0.1048 -0.1080 -2.6946
   22SAPC  H15C 2844   1.766   3.251  11.167 -0.0963  1.8694  1.2430
   22SAPC   C11 2845   1.441   3.304  11.276  0.3034  0.5953  0.3980
   22SAPC  H11A 2846   1.353   3.371  11.266 -0.6968 -0.8395 -0.8862
   22SAPC  H11B 2847   1.439   3.242  11.368 -0.6890 -0.1725 -0.1179
   22SAPC     P 2848   1.440   3.247  11.019 -0.0945  0.1239  0.1467
   22SAPC   O13 2849   1.296   3.268  10.993 -0.3609  0.0423  0.0278
   22SAPC   O14 2850   1.537   3.352  10.983  0.2729 -0.3498  0.4262
   22SAPC   O12 2851   1.453   3.204  11.169  0.0738  0.7175  0.2371
   22SAPC   O11 2852   1.482   3.119  10.934  0.2857 -0.1576 -0.2232
   22SAPC    C1 2853   1.376   3.024  10.907 -0.8460  0.2083  0.5906
   22SAPC    HA 2854   1.381   2.942  10.982  2.4669 -0.8634 -0.5921
   22SAPC    HB 2855   1.275   3.068  10.899 -0.7610  0.5664  1.3766
   22SAPC    C2 2856   1.407   2.956  10.771  0.7566 -0.3062 -0.4121
   22SAPC    HS 2857   1.514   2.926  10.770  0.8932  0.0369  1.4491
   22SAPC   O21 2858   1.367   3.048  10.663  1.0323 -0.0401  0.0583
   22SAPC   C21 2859   1.452   3.147  10.640  0.7815  0.3080  0.2684
   22SAPC   O22 2860   1.569   3.139  10.671 -0.7811  0.4566  0.2464
   22SAPC   C22 2861   1.384   3.241  10.544  0.5101 -0.1602  0.3747
   22SAPC   H2R 2862   1.276   3.250  10.567  0.3180  0.7732 -0.8101
   22SAPC   H2S 2863   1.424   3.338  10.579 -2.1773  1.6255 -1.1160
   22SAPC    C3 2864   1.321   2.823  10.755  0.0653 -0.8227  0.1526
   22SAPC    HX 2865   1.216   2.855  10.767  0.1241 -1.0282  1.3714
   22SAPC    HY 2866   1.349   2.762  10.844  3.0552 -1.2347 -0.9485
   22SAPC   O31 2867   1.356   2.759  10.635 -0.0027 -0.1002 -0.4535
   22SAPC   C31 2868   1.257   2.688  10.583  1.1697 -0.6230 -0.2777
   22SAPC   O32 2869   1.139   2.689  10.619  0.6175  0.5183  0.3335
   22SAPC   C32 2870   1.310   2.608  10.468 -0.0486 -0.0027  0.9141
   22SAPC   H2X 2871   1.321   2.510  10.519  0.2397 -0.2950  0.2983
   22SAPC   H2Y 2872   1.409   2.648  10.440  0.4382 -1.3652  0.6033
   22SAPC   C23 2873   1.417   3.211  10.393  0.5763 -0.4702 -0.2731
   22SAPC   H3R 2874   1.527   3.204  10.388  0.8968  3.3910 -1.8933
   22SAPC   H3S 2875   1.391   3.301  10.333 -0.0002 -0.8616 -0.6242
   22SAPC   C24 2876   1.343   3.091  10.332  0.3813 -0.4039  0.9667
   22SAPC   H4R 2877   1.233   3.092  10.344  0.4925  1.4585  2.1057
   22SAPC   H4S 2878   1.374   2.998  10.384 -0.8271 -0.3318  1.8345
   22SAPC   C25 2879   1.373   3.082  10.180 -1.0678 -0.5623 -0.1136
   22SAPC   H5R 2880   1.471   3.038  10.153 -0.1288  1.4856 -0.2433
   22SAPC   C26 2881   1.300   3.142  10.087 -0.2529  0.1142 -0.2095
   22SAPC   H6R 2882   1.325   3.127   9.981 -0.5813 -0.4373 -0.2116
   22SAPC   C27 2883   1.170   3.220  10.116  0.0027 -0.1843  0.1131
   22SAPC   H7R 2884   1.193   3.321  10.076 -0.2880 -0.0196  0.3678
   22SAPC   H7S 2885   1.141   3.222  10.223  1.4491 -0.6576  0.5496
   22SAPC   C28 2886   1.050   3.182  10.039  0.6032 -0.2146  0.0457
   22SAPC   H8R 2887   0.975   3.136  10.106 -1.0834  0.6124 -1.2046
   22SAPC   C29 2888   1.026   3.196   9.906 -0.4562 -0.4913 -0.2972
   22SAPC   H9R 2889   0.939   3.145   9.863 -1.1093 -0.1170  0.5452
   22SAPC  C210 2890   1.116   3.270   9.811  0.3125 -0.1237  0.3119
   22SAPC  H10R 2891   1.150   3.198   9.734 -3.2552 -3.1664  1.3003
   22SAPC  H10S 2892   1.202   3.311   9.869 -0.0431  2.8039 -1.0699
   22SAPC  C211 2893   1.056   3.397   9.750 -0.3627  0.1809 -0.6296
   22SAPC  H11R 2894   1.006   3.451   9.832  2.2096 -1.1828  2.0211
   22SAPC  C212 2895   1.057   3.446   9.625 -0.2049 -0.2641 -0.1614
   22SAPC  H12R 2896   0.995   3.537   9.624 -0.4964 -0.4608 -0.1843
   22SAPC  C213 2897   1.113   3.397   9.493  0.5083  0.2799  0.2850
   22SAPC  H13R 2898   1.174   3.304   9.496 -1.3028 -0.9401  2.3294
   22SAPC  H13S 2899   1.189   3.470   9.458 -0.3223  0.2613 -1.6720
   22SAPC  C214 2900   1.009   3.398   9.380 -0.0852 -0.4756  0.8406
   22SAPC  H14R 2901   0.905   3.405   9.414 -0.1783 -2.3135  1.0680
   22SAPC  C215 2902   1.043   3.392   9.250 -0.1166 -0.4080  0.3993
   22SAPC  H15R 2903   0.963   3.395   9.175 -2.0312 -1.5549  2.2928
   22SAPC  C216 2904   1.182   3.386   9.192 -0.0405 -0.3464  0.0594
   22SAPC  H16R 2905   1.189   3.311   9.111 -0.4819  0.4842 -0.7713
   22SAPC  H16S 2906   1.257   3.353   9.267  0.5225  1.6438  0.4519
   22SAPC  C217 2907   1.232   3.515   9.126  0.2444 -0.3306  0.0031
   22SAPC  H17R 2908   1.343   3.510   9.119  0.3335 -0.0398  1.0173
   22SAPC  H17S 2909   1.220   3.607   9.186  3.0243  0.7596 -0.9670
   22SAPC  C218 2910   1.185   3.541   8.982 -0.3647  0.1468 -0.4016
   22SAPC  H18R 2911   1.078   3.569   8.994  0.2257  2.0535  0.9069
   22SAPC  H18S 2912   1.203   3.446   8.929  2.3913  0.3031  0.1028
   22SAPC  C219 2913   1.254   3.657   8.914  0.0131  0.2772 -0.1524
   22SAPC  H19R 2914   1.234   3.750   8.971 -0.8522  0.1718 -0.2759
   22SAPC  H19S 2915   1.204   3.671   8.816 -0.4695  0.2401  0.0882
   22SAPC  C220 2916   1.406   3.623   8.895  0.1760  0.1568 -1.0066
   22SAPC  H20R 2917   1.461   3.708   8.849  1.2681  0.3028  0.4673
   22SAPC  H20S 2918   1.417   3.532   8.832  0.3227  1.3231 -2.7354
   22SAPC  H20T 2919   1.460   3.600   8.990 -2.3705 -1.8371  0.0560
   22SAPC   C33 2920   1.208   2.620  10.356  0.2886 -0.8968  0.0782
   22SAPC   H3X 2921   1.110   2.581  10.390  1.3383 -1.5593  2.5482
   22SAPC   H3Y 2922   1.235   2.557  10.268  3.0334  0.8750 -0.4730
   22SAPC   C34 2923   1.203   2.760  10.296  0.1815 -0.2758 -0.7078
   22SAPC   H4X 2924   1.302   2.784  10.253  1.3760 -0.8105  1.6067
   22SAPC   H4Y 2925   1.189   2.831  10.380 -2.2406 -1.3896 -0.0676
   22SAPC   C35 2926   1.093   2.779  10.180 -0.3088 -0.1869 -0.7993
   22SAPC   H5X 2927   1.111   2.708  10.096 -0.2523 -0.4165 -0.5969
   22SAPC   H5Y 2928   1.112   2.876  10.130  1.2211  0.0775  0.2370
   22SAPC   C36 2929   0.944   2.784  10.226 -0.1515  0.5227 -0.1278
   22SAPC   H6X 2930   0.939   2.881  10.279  2.4926  1.6106 -1.6969
   22SAPC   H6Y 2931   0.923   2.700  10.296  0.2425  1.7374  1.5206
   22SAPC   C37 2932   0.855   2.778  10.095  0.0947  0.5686 -0.9843
   22SAPC   H7X 2933   0.915   2.804  10.005  2.7861 -1.5914  0.0245
   22SAPC   H7Y 2934   0.764   2.839  10.111 -0.1174  0.3550 -1.3610
   22SAPC   C38 2935   0.796   2.635  10.077  0.4932  0.0524  0.2609
   22SAPC   H8X 2936   0.739   2.594  10.163 -0.8628  1.3866  0.0370
   22SAPC   H8Y 2937   0.874   2.558  10.057 -1.0687 -1.3629 -0.7024
   22SAPC   C39 2938   0.710   2.618   9.947 -0.2892  0.9416 -0.1512
   22SAPC   H9X 2939   0.614   2.669   9.972  0.2181  0.9911  1.8397
   22SAPC   H9Y 2940   0.691   2.509   9.936  0.0945  0.8783 -0.1900
   22SAPC  C310 2941   0.754   2.675   9.815  0.2754  0.3888 -0.3244
   22SAPC  H10X 2942   0.858   2.644   9.790  0.0830  0.3385 -1.1039
   22SAPC  H10Y 2943   0.743   2.785   9.822  0.4905  0.3760  0.2850
   22SAPC  C311 2944   0.667   2.644   9.683 -0.3783  0.6793 -0.3182
   22SAPC  H11X 2945   0.573   2.703   9.689 -1.0314 -0.3068 -0.6130
   22SAPC  H11Y 2946   0.651   2.537   9.657 -1.3891  0.5790  0.6202
   22SAPC  C312 2947   0.739   2.695   9.561 -0.2121 -0.1816  0.1783
   22SAPC  H12X 2948   0.833   2.641   9.534  1.5299  1.9449  1.5623
   22SAPC  H12Y 2949   0.785   2.791   9.594 -0.9815 -0.1067  1.0655
   22SAPC  C313 2950   0.640   2.719   9.445 -0.1242  0.1755 -0.5159
   22SAPC  H13X 2951   0.572   2.803   9.469 -0.5572  0.8794 -3.7493
   22SAPC  H13Y 2952   0.577   2.627   9.440 -0.8494  0.4166  2.6348
   22SAPC  C314 2953   0.695   2.751   9.309 -0.5961 -0.7375  0.1521
   22SAPC  H14X 2954   0.772   2.674   9.291 -1.0302 -2.0418  3.2859
   22SAPC  H14Y 2955   0.751   2.847   9.320 -0.4904 -0.7996  0.1531
   22SAPC  C315 2956   0.583   2.774   9.199 -0.7381 -0.2974  0.0223
   22SAPC  H15X 2957   0.512   2.853   9.233 -0.4667  1.3387 -2.9051
   22SAPC  H15Y 2958   0.523   2.682   9.183 -0.0786 -0.5468 -1.0825
   22SAPC  C316 2959   0.634   2.833   9.075  0.3506 -0.5521 -0.1398
   22SAPC  H16X 2960   0.686   2.928   9.102 -0.2050  0.3497 -2.1041
   22SAPC  H16Y 2961   0.554   2.862   9.004 -0.0523 -3.9983 -1.2462
   22SAPC  C317 2962   0.732   2.737   9.001 -0.5669  0.0624  0.1780
   22SAPC  H17X 2963   0.676   2.644   8.981  1.6707 -1.8587  2.1409
   22SAPC  H17Y 2964   0.821   2.712   9.063  0.2613  0.6523 -0.7314
   22SAPC  C318 2965   0.776   2.790   8.872 -0.5552  0.4307  0.8403
   22SAPC  H18X 2966   0.701   2.858   8.827  0.6446  0.8677 -0.5992
   22SAPC  H18Y 2967   0.783   2.712   8.794 -1.7177  0.5961  0.5509
   22SAPC  H18Z 2968   0.870   2.850   8.881  0.4937 -1.3584  3.1312
   23SAPC     N 2969   2.020   2.718  11.203 -0.1708 -0.1786  0.3281
   23SAPC   C12 2970   1.998   2.689  11.054 -0.1221  0.3913  0.2371
   23SAPC  H12A 2971   2.039   2.773  11.000  1.1916  0.6011  1.5152
   23SAPC  H12B 2972   1.892   2.685  11.034 -0.4964 -1.5757  2.2601
   23SAPC   C13 2973   2.012   2.597  11.291  0.1332 -0.8707 -0.1423
   23SAPC  H13A 2974   1.912   2.562  11.308  0.6431 -1.8671  1.0370
   23SAPC  H13B 2975   2.067   2.514  11.250 -1.3092 -2.6521  1.3727
   23SAPC  H13C 2976   2.042   2.638  11.387 -1.3907  2.2588 -0.8620
   23SAPC   C14 2977   2.148   2.794  11.229 -0.2061 -0.1637 -0.1468
   23SAPC  H14A 2978   2.160   2.832  11.329  1.3523  0.1514 -0.4270
   23SAPC  H14B 2979   2.232   2.728  11.211  0.7811  0.5669  1.5637
   23SAPC  H14C 2980   2.168   2.866  11.151  2.6308 -1.3603 -0.6304
   23SAPC   C15 2981   1.903   2.805  11.246 -0.2400 -0.6060 -0.4663
   23SAPC  H15A 2982   1.813   2.752  11.219 -0.5930 -0.2283 -0.0579
   23SAPC  H15B 2983   1.906   2.822  11.353  1.3758 -2.3500 -0.1696
   23SAPC  H15C 2984   1.911   2.899  11.195 -0.0867  0.0388  0.7087
   23SAPC   C11 2985   2.066   2.564  10.991 -0.0175 -0.0520 -0.5744
   23SAPC  H11A 2986   2.061   2.579  10.881  1.3912  3.4536 -0.2975
   23SAPC  H11B 2987   2.004   2.476  11.019 -1.2002  0.7959 -0.5071
   23SAPC     P 2988   2.306   2.521  10.936  0.1650  0.0730 -0.4529
   23SAPC   O13 2989   2.324   2.653  10.873  0.1256 -0.0426 -0.7142
   23SAPC   O14 2990   2.417   2.466  11.009  0.5353  0.0350 -0.1988
   23SAPC   O12 2991   2.196   2.547  11.040  0.2963 -0.1718 -0.2872
   23SAPC   O11 2992   2.253   2.416  10.834  0.2926 -0.2877  0.0776
   23SAPC    C1 2993   2.299   2.284  10.828  0.1214 -0.3645  0.0847
   23SAPC    HA 2994   2.300   2.233  10.927  1.5939  0.4538  0.5376
   23SAPC    HB 2995   2.228   2.232  10.761 -1.0510  0.2846  0.7908
   23SAPC    C2 2996   2.444   2.279  10.758  0.2145 -0.1491  0.9222
   23SAPC    HS 2997   2.506   2.318  10.842  0.1328  0.5810  0.6588
   23SAPC   O21 2998   2.457   2.368  10.640 -0.5650 -0.0055  0.0457
   23SAPC   C21 2999   2.394   2.329  10.528  0.2980 -0.1363 -0.2852
   23SAPC   O22 3000   2.317   2.232  10.515 -0.0099 -0.4201  0.1282
   23SAPC   C22 3001   2.442   2.430  10.420  0.1616 -0.1410  0.5448
   23SAPC   H2R 3002   2.415   2.377  10.326  1.6547  2.2405 -1.3344
   23SAPC   H2S 3003   2.364   2.509  10.427 -0.1682 -0.3472 -0.6127
   23SAPC    C3 3004   2.483   2.127  10.732 -0.7701  0.1655 -0.3203
   23SAPC    HX 3005   2.401   2.096  10.665 -1.5575  0.4141  0.5069
   23SAPC    HY 3006   2.477   2.059  10.820 -2.8547  1.5209  0.6553
   23SAPC   O31 3007   2.611   2.121  10.669  0.3831 -0.4795 -0.5400
   23SAPC   C31 3008   2.717   2.144  10.736 -0.3290  0.0714  0.3266
   23SAPC   O32 3009   2.725   2.190  10.849  0.0348  0.5777 -0.0504
   23SAPC   C32 3010   2.835   2.084  10.655 -0.1571 -0.1840  0.6504
   23SAPC   H2X 3011   2.819   1.974  10.662 -2.1844  0.0115 -0.2625
   23SAPC   H2Y 3012   2.930   2.123  10.699  1.3188  0.9818 -3.1797
   23SAPC   C23 3013   2.595   2.456  10.424  0.3870  0.0265  0.0439
   23SAPC   H3R 3014   2.653   2.363  10.408 -2.6732 -1.7893 -1.4946
   23SAPC   H3S 3015   2.624   2.502  10.521 -2.2345  1.6202  0.1842
   23SAPC   C24 3016   2.628   2.549  10.303  0.1140  0.6576  0.7939
   23SAPC   H4R 3017   2.551   2.629  10.304 -1.8383 -1.1280  0.4807
   23SAPC   H4S 3018   2.596   2.493  10.212  2.1627 -1.5864  1.3536
   23SAPC   C25 3019   2.767   2.601  10.292 -0.2417  0.3794  0.3835
   23SAPC   H5R 3020   2.790   2.639  10.393 -0.2175  1.4164  0.0017
   23SAPC   C26 3021   2.866   2.598  10.199  0.0675 -0.0894  0.0445
   23SAPC   H6R 3022   2.968   2.633  10.221  1.1320 -3.4142  0.9571
   23SAPC   C27 3023   2.846   2.530  10.065 -0.2311 -0.1152  0.5394
   23SAPC   H7R 3024   2.807   2.596   9.984  0.0756 -1.0046 -0.3536
   23SAPC   H7S 3025   2.769   2.452  10.076 -0.2738 -0.2188 -0.3732
   23SAPC   C28 3026   2.968   2.449  10.019 -0.5969 -0.9488  0.6687
   23SAPC   H8R 3027   3.000   2.360  10.075  0.7418  0.1252  1.7101
   23SAPC   C29 3028   3.034   2.480   9.906  0.7459 -0.3172 -0.3289
   23SAPC   H9R 3029   3.110   2.406   9.876  1.3300  0.1019  0.1103
   23SAPC  C210 3030   3.008   2.587   9.801 -0.2143 -0.6481 -0.0676
   23SAPC  H10R 3031   2.899   2.602   9.807  0.1829  2.2445  1.4861
   23SAPC  H10S 3032   3.032   2.553   9.698  0.4211  0.1767 -0.2023
   23SAPC  C211 3033   3.072   2.717   9.832  1.0801  0.3396 -0.2495
   23SAPC  H11R 3034   3.119   2.724   9.931  1.9115 -0.0182 -0.6081
   23SAPC  C212 3035   3.061   2.828   9.754 -0.0616 -0.2049  0.3801
   23SAPC  H12R 3036   3.125   2.911   9.787 -1.3134 -0.2003  3.0574
   23SAPC  C213 3037   2.987   2.836   9.618 -0.7508  0.2106 -0.1079
   23SAPC  H13R 3038   2.891   2.887   9.641 -0.6588  0.3976 -0.1385
   23SAPC  H13S 3039   2.975   2.734   9.576 -1.0549  0.6182 -1.0480
   23SAPC  C214 3040   3.048   2.919   9.513  0.1558 -0.4084  0.5005
   23SAPC  H14R 3041   2.978   2.989   9.466 -0.2568  0.6645  2.5851
   23SAPC  C215 3042   3.167   2.896   9.451 -0.3452  0.5183  0.4210
   23SAPC  H15R 3043   3.214   2.966   9.381  1.6142  0.2691  1.4329
   23SAPC  C216 3044   3.252   2.776   9.475 -0.9889  0.0449  0.5374
   23SAPC  H16R 3045   3.263   2.742   9.580 -1.8058 -1.7711  0.0730
   23SAPC  H16S 3046   3.355   2.806   9.447 -1.5271  0.5285 -1.0056
   23SAPC  C217 3047   3.204   2.664   9.369 -0.0523 -0.0938  0.0950
   23SAPC  H17R 3048   3.114   2.612   9.406 -0.4287  1.9205  2.2395
   23SAPC  H17S 3049   3.281   2.584   9.361  0.4597  0.5610 -4.5484
   23SAPC  C218 3050   3.200   2.714   9.225  0.0756 -0.0557 -0.1925
   23SAPC  H18R 3051   3.282   2.784   9.197 -0.4217 -0.2654 -2.3890
   23SAPC  H18S 3052   3.103   2.764   9.204  0.6694  0.7451 -1.1796
   23SAPC  C219 3053   3.220   2.594   9.133  0.4358  0.1853 -0.0959
   23SAPC  H19R 3054   3.316   2.542   9.152 -0.1361 -0.4622  1.1357
   23SAPC  H19S 3055   3.216   2.622   9.026  0.5461 -2.4958 -0.8794
   23SAPC  C220 3056   3.108   2.483   9.150 -0.4883 -0.4049 -0.3792
   23SAPC  H20R 3057   3.015   2.536   9.179  0.0637  1.2684 -1.4999
   23SAPC  H20S 3058   3.141   2.406   9.223 -1.1730 -0.6282 -0.3005
   23SAPC  H20T 3059   3.095   2.440   9.048 -0.4414 -1.8501  0.1927
   23SAPC   C33 3060   2.831   2.128  10.503 -0.3740  0.2478  0.5403
   23SAPC   H3X 3061   2.839   2.238  10.492  0.1180  0.2155  0.5357
   23SAPC   H3Y 3062   2.732   2.104  10.460 -1.3122  0.2058  2.6086
   23SAPC   C34 3063   2.947   2.063  10.420  0.0131  0.0660  0.3212
   23SAPC   H4X 3064   2.933   1.953  10.428 -3.1641  0.2877 -0.9266
   23SAPC   H4Y 3065   3.042   2.079  10.477 -1.3166  1.9069  2.1879
   23SAPC   C35 3066   2.962   2.098  10.272  0.3618  0.2464 -0.5306
   23SAPC   H5X 3067   2.968   2.208  10.267 -0.7274  0.3600  0.2250
   23SAPC   H5Y 3068   2.874   2.062  10.215  1.5098 -1.7393 -1.1446
   23SAPC   C36 3069   3.096   2.043  10.210  0.5962  0.1442 -0.0174
   23SAPC   H6X 3070   3.088   1.933  10.211  0.8888  0.1086  1.9244
   23SAPC   H6Y 3071   3.189   2.061  10.268  2.1215 -0.7059 -2.0901
   23SAPC   C37 3072   3.123   2.111  10.070  0.4438  0.4503  0.3966
   23SAPC   H7X 3073   3.128   2.221  10.086 -1.9848  0.6559  0.0260
   23SAPC   H7Y 3074   3.033   2.096  10.008  0.7699  1.2549 -0.2939
   23SAPC   C38 3075   3.236   2.047   9.986  0.4458 -0.5763  0.0987
   23SAPC   H8X 3076   3.195   1.950   9.950 -3.3366  0.8125  0.2070
   23SAPC   H8Y 3077   3.326   2.025  10.046  0.1166  0.2312  0.8988
   23SAPC   C39 3078   3.254   2.124   9.859  0.5611 -0.1112  0.1601
   23SAPC   H9X 3079   3.280   2.230   9.881 -0.0016  0.0328  0.1360
   23SAPC   H9Y 3080   3.154   2.132   9.811 -0.1497  5.5366  1.7786
   23SAPC  C310 3081   3.352   2.055   9.764  0.3045 -0.1481 -0.0665
   23SAPC  H10X 3082   3.319   1.950   9.753  0.2925 -0.3821  1.9681
   23SAPC  H10Y 3083   3.455   2.053   9.806  0.0369 -1.7824  0.5614
   23SAPC  C311 3084   3.353   2.121   9.622  0.2502 -0.8849  0.5397
   23SAPC  H11X 3085   3.414   2.213   9.627 -1.6729  0.4197  0.9869
   23SAPC  H11Y 3086   3.252   2.162   9.602  0.9976  1.9873  2.1397
   23SAPC  C312 3087   3.419   2.047   9.506 -0.0494 -0.7296  0.2731
   23SAPC  H12X 3088   3.373   1.946   9.501 -3.1604  0.5751  0.2649
   23SAPC  H12Y 3089   3.526   2.038   9.532  0.6366  1.1176 -1.5604
   23SAPC  C313 3090   3.411   2.125   9.379 -0.4704 -0.5163 -0.0546
   23SAPC  H13X 3091   3.431   2.233   9.398 -2.1998 -0.4979  2.0189
   23SAPC  H13Y 3092   3.313   2.119   9.328 -0.5147 -0.4881  0.0264
   23SAPC  C314 3093   3.508   2.069   9.272 -0.2055 -0.0244  0.1912
   23SAPC  H14X 3094   3.492   1.966   9.234  1.2934 -0.8895  1.7183
   23SAPC  H14Y 3095   3.611   2.080   9.313 -0.5333  1.2092  0.7291
   23SAPC  C315 3096   3.513   2.166   9.147 -0.0847 -0.0525  0.1477
   23SAPC  H15X 3097   3.578   2.108   9.078  1.8246  0.5398  1.3807
   23SAPC  H15Y 3098   3.570   2.259   9.168  1.0006 -0.2034 -1.8636
   23SAPC  C316 3099   3.379   2.209   9.079 -0.3625 -0.4259 -0.2975
   23SAPC  H16X 3100   3.316   2.264   9.152 -1.8944 -1.0618 -1.1079
   23SAPC  H16Y 3101   3.329   2.118   9.040 -1.2914 -1.4578  2.9567
   23SAPC  C317 3102   3.412   2.315   8.973  1.1561 -0.1332 -0.0137
   23SAPC  H17X 3103   3.464   2.406   9.011  0.6562  0.9179 -1.7724
   23SAPC  H17Y 3104   3.310   2.342   8.941 -0.3266 -0.6722  3.6678
   23SAPC  C318 3105   3.489   2.248   8.866 -0.2153  0.2269  0.5438
   23SAPC  H18X 3106   3.432   2.181   8.799 -1.2005  1.7901 -0.2457
   23SAPC  H18Y 3107   3.586   2.203   8.898 -0.2094  1.2715  2.1097
   23SAPC  H18Z 3108   3.534   2.335   8.811 -3.1227 -0.6798 -3.7519
   24SAPC     N 3109   4.733   2.501  11.411  0.1357  0.9455 -0.2906
   24SAPC   C12 3110   4.803   2.583  11.308 -0.2113  0.9349 -0.0901
   24SAPC  H12A 3111   4.910   2.575  11.317 -0.1213 -1.0196 -2.1525
   24SAPC  H12B 3112   4.787   2.688  11.326 -1.5584  0.6539  0.5196
   24SAPC   C13 3113   4.789   2.556  11.541  0.4731 -0.2692  0.1545
   24SAPC  H13A 3114   4.792   2.663  11.530  0.5813 -0.3408 -0.5405
   24SAPC  H13B 3115   4.718   2.523  11.616  2.6797 -0.6660  2.1804
   24SAPC  H13C 3116   4.885   2.512  11.559  0.6815  0.0216 -0.2429
   24SAPC   C14 3117   4.583   2.517  11.409 -0.1346  0.1055  0.7922
   24SAPC  H14A 3118   4.546   2.484  11.313  0.7010  0.9256  0.1647
   24SAPC  H14B 3119   4.538   2.446  11.477  0.4241 -1.1732 -0.1161
   24SAPC  H14C 3120   4.556   2.619  11.429  0.2245  0.6235 -1.1430
   24SAPC   C15 3121   4.782   2.357  11.399 -0.1065  0.2986  0.2524
   24SAPC  H15A 3122   4.735   2.292  11.471  2.3883 -1.0759  0.7478
   24SAPC  H15B 3123   4.750   2.316  11.304 -0.4290  0.8162  0.1369
   24SAPC  H15C 3124   4.888   2.339  11.413  0.1027  1.7970  0.7344
   24SAPC   C11 3125   4.765   2.555  11.154  1.3542 -0.6085  0.8363
   24SAPC  H11A 3126   4.799   2.452  11.129  0.5260 -0.4671 -1.0144
   24SAPC  H11B 3127   4.825   2.624  11.091  0.5380 -0.3964  0.2703
   24SAPC     P 3128   4.559   2.711  11.098  0.1605 -0.4771  0.1185
   24SAPC   O13 3129   4.408   2.694  11.104  0.2750  0.0072  0.0598
   24SAPC   O14 3130   4.623   2.802  11.203  0.5011 -0.5796  0.6472
   24SAPC   O12 3131   4.626   2.570  11.114  0.3699  0.1459  0.0331
   24SAPC   O11 3132   4.610   2.759  10.952  0.1370  0.6743 -0.0490
   24SAPC    C1 3133   4.546   2.695  10.841 -0.1587 -0.2159 -1.1735
   24SAPC    HA 3134   4.533   2.584  10.845 -0.2632 -0.1825 -0.5305
   24SAPC    HB 3135   4.445   2.741  10.835  0.5791  1.6202 -0.0971
   24SAPC    C2 3136   4.620   2.731  10.710 -0.1643  1.3188 -0.9534
   24SAPC    HS 3137   4.570   2.672  10.631  1.6232 -2.2294  0.3799
   24SAPC   O21 3138   4.756   2.690  10.712 -0.2060  0.4177  0.6589
   24SAPC   C21 3139   4.785   2.559  10.726  0.0914 -0.0874  0.5222
   24SAPC   O22 3140   4.704   2.472  10.691 -0.1614 -0.0138  0.1178
   24SAPC   C22 3141   4.930   2.539  10.784 -0.0782 -0.3270 -0.2869
   24SAPC   H2R 3142   4.972   2.641  10.786 -4.4392  1.6815 -0.3661
   24SAPC   H2S 3143   4.921   2.510  10.891 -2.0944  3.4927  0.7476
   24SAPC    C3 3144   4.602   2.886  10.678 -0.7610  0.3499 -0.4570
   24SAPC    HX 3145   4.689   2.936  10.725 -1.7758  0.9624  0.8201
   24SAPC    HY 3146   4.519   2.925  10.741 -0.5551 -1.6347  1.1589
   24SAPC   O31 3147   4.580   2.912  10.538  0.4124 -0.2911 -0.1651
   24SAPC   C31 3148   4.459   2.874  10.487  0.0409  0.2387 -0.1031
   24SAPC   O32 3149   4.366   2.817  10.540 -0.4475 -0.0665 -0.1888
   24SAPC   C32 3150   4.447   2.920  10.337  0.6666 -0.7023 -0.3568
   24SAPC   H2X 3151   4.545   2.903  10.287 -0.8056 -0.9979 -3.3453
   24SAPC   H2Y 3152   4.438   3.031  10.342  1.7353 -0.5442 -1.4115
   24SAPC   C23 3153   5.012   2.440  10.699  0.2926  0.9973  0.7072
   24SAPC   H3R 3154   5.004   2.455  10.590  2.0692 -1.0838  0.2181
   24SAPC   H3S 3155   4.967   2.340  10.717 -3.0042  2.3450  0.5523
   24SAPC   C24 3156   5.165   2.431  10.742 -0.1687  0.9655  0.7811
   24SAPC   H4R 3157   5.210   2.350  10.682 -1.7977  0.3063  0.3835
   24SAPC   H4S 3158   5.171   2.408  10.850 -0.5283 -0.0849  0.5843
   24SAPC   C25 3159   5.222   2.566  10.705 -0.1176 -0.6494 -0.2299
   24SAPC   H5R 3160   5.203   2.643  10.781 -0.1185 -0.9609  0.0858
   24SAPC   C26 3161   5.310   2.592  10.606 -0.2111 -0.1004 -0.2401
   24SAPC   H6R 3162   5.358   2.691  10.609  0.1213 -0.2536  2.4509
   24SAPC   C27 3163   5.366   2.498  10.499  0.8848 -1.1057 -0.5371
   24SAPC   H7R 3164   5.426   2.556  10.426  1.1502 -0.2482  0.3409
   24SAPC   H7S 3165   5.280   2.452  10.445 -0.0636  0.2225 -0.2000
   24SAPC   C28 3166   5.459   2.391  10.556 -0.3632 -0.2749  0.0375
   24SAPC   H8R 3167   5.447   2.354  10.659 -1.3303 -2.7370 -0.8778
   24SAPC   C29 3168   5.546   2.318  10.476  0.4046  0.4775  0.1610
   24SAPC   H9R 3169   5.617   2.253  10.528 -0.1343  1.0904  1.7345
   24SAPC  C210 3170   5.564   2.335  10.326  0.2733  0.2384 -0.6952
   24SAPC  H10R 3171   5.483   2.397  10.281 -0.1730  0.2153  0.0562
   24SAPC  H10S 3172   5.559   2.238  10.273 -1.0481  1.1152 -2.2811
   24SAPC  C211 3173   5.704   2.389  10.305  0.4498  0.3707 -0.3198
   24SAPC  H11R 3174   5.723   2.475  10.370 -0.2953 -1.5271  2.5971
   24SAPC  C212 3175   5.797   2.331  10.231  0.6509 -0.7747 -0.0470
   24SAPC  H12R 3176   5.893   2.383  10.222  0.4248 -0.7199 -3.0013
   24SAPC  C213 3177   5.787   2.208  10.140 -0.5944 -0.0230  0.7852
   24SAPC  H13R 3178   5.747   2.121  10.195 -1.3258 -0.4137 -0.3129
   24SAPC  H13S 3179   5.888   2.180  10.105  0.1263 -0.5854  3.1860
   24SAPC  C214 3180   5.696   2.220  10.019 -0.5115  0.4598 -0.6185
   24SAPC  H14R 3181   5.595   2.222  10.063  0.7274  0.0420  2.5442
   24SAPC  C215 3182   5.720   2.239   9.892 -0.5630 -0.2710 -0.0378
   24SAPC  H15R 3183   5.636   2.245   9.821 -0.6321  0.3844  0.0901
   24SAPC  C216 3184   5.859   2.268   9.838  0.6899 -1.0249  0.3544
   24SAPC  H16R 3185   5.935   2.215   9.900 -1.3906 -2.0089  2.2174
   24SAPC  H16S 3186   5.874   2.377   9.846  1.0429 -1.1365  1.4749
   24SAPC  C217 3187   5.875   2.213   9.693  0.4645 -0.3544 -0.7531
   24SAPC  H17R 3188   5.972   2.253   9.655  0.2649 -0.2986 -1.2184
   24SAPC  H17S 3189   5.799   2.248   9.621  0.7787 -0.9507 -1.3984
   24SAPC  C218 3190   5.878   2.058   9.698  0.4861 -0.1273  0.0295
   24SAPC  H18R 3191   5.781   2.024   9.740 -0.6936  1.9584 -0.8880
   24SAPC  H18S 3192   5.949   2.022   9.776 -0.6733 -0.3720  0.9995
   24SAPC  C219 3193   5.901   1.994   9.559 -0.9266 -0.2690 -0.4051
   24SAPC  H19R 3194   5.979   2.050   9.503 -0.2956 -0.5055  0.2128
   24SAPC  H19S 3195   5.800   1.990   9.513 -0.1909  1.7533 -2.4054
   24SAPC  C220 3196   5.946   1.857   9.567 -0.2091  0.0034 -0.6169
   24SAPC  H20R 3197   6.052   1.840   9.599 -0.0393  0.5720 -0.8562
   24SAPC  H20S 3198   5.941   1.811   9.466  0.2858 -1.0745 -0.1679
   24SAPC  H20T 3199   5.881   1.790   9.626 -0.5779 -1.1975 -2.3094
   24SAPC   C33 3200   4.337   2.850  10.262 -0.5326  0.2123  0.0098
   24SAPC   H3X 3201   4.243   2.852  10.322  1.0904  0.5128  2.7092
   24SAPC   H3Y 3202   4.352   2.741  10.249  0.1820  0.6030 -3.3143
   24SAPC   C34 3203   4.325   2.910  10.120 -0.1823 -0.3664 -0.9171
   24SAPC   H4X 3204   4.317   2.824  10.050 -0.7130 -2.7388  1.8622
   24SAPC   H4Y 3205   4.423   2.961  10.105 -0.4277  0.1816 -0.6661
   24SAPC   C35 3206   4.203   3.006  10.109 -0.1090 -0.6895  0.0728
   24SAPC   H5X 3207   4.216   3.094  10.176 -2.0127  0.9887 -1.5872
   24SAPC   H5Y 3208   4.110   2.956  10.144 -0.6627  0.8794  0.9555
   24SAPC   C36 3209   4.175   3.066   9.965 -0.4857  0.2944  0.0753
   24SAPC   H6X 3210   4.152   2.985   9.893  0.5044  1.2957 -1.4288
   24SAPC   H6Y 3211   4.277   3.097   9.932 -0.0497 -2.9681 -2.0499
   24SAPC   C37 3212   4.077   3.182   9.968  0.1194 -0.1801 -0.3901
   24SAPC   H7X 3213   4.125   3.254  10.037 -0.1175 -0.4178  0.0323
   24SAPC   H7Y 3214   3.982   3.149  10.017 -0.4090  0.2377 -1.1137
   24SAPC   C38 3215   4.050   3.252   9.835 -0.3464  0.2587  0.0193
   24SAPC   H8X 3216   4.139   3.314   9.812  0.1684 -0.1683  0.8192
   24SAPC   H8Y 3217   3.973   3.332   9.829 -0.9733 -0.4356 -2.0329
   24SAPC   C39 3218   4.006   3.157   9.712 -0.3062 -0.2874  0.7480
   24SAPC   H9X 3219   3.898   3.134   9.726 -0.1257 -2.8104 -1.3032
   24SAPC   H9Y 3220   4.070   3.067   9.723 -2.3006 -1.6536  1.7442
   24SAPC  C310 3221   4.042   3.220   9.584  0.7651 -0.8144 -0.1380
   24SAPC  H10X 3222   4.022   3.157   9.495 -1.6797  1.3180 -1.2480
   24SAPC  H10Y 3223   4.150   3.243   9.596  0.0926  2.2391  0.8816
   24SAPC  C311 3224   3.970   3.349   9.549  0.1171 -0.2611  0.1364
   24SAPC  H11X 3225   3.965   3.424   9.631 -0.4120 -0.1548  0.0135
   24SAPC  H11Y 3226   3.872   3.319   9.507  0.9960  0.1530 -2.3454
   24SAPC  C312 3227   4.046   3.421   9.432  0.2805 -0.2382 -0.0879
   24SAPC  H12X 3228   4.151   3.433   9.464 -0.5344  1.5408  2.1700
   24SAPC  H12Y 3229   4.000   3.522   9.438 -0.1955 -0.5119  1.1711
   24SAPC  C313 3230   4.017   3.365   9.293 -0.1345 -0.4977 -0.4295
   24SAPC  H13X 3231   3.908   3.350   9.275 -0.1119 -0.8207 -0.3044
   24SAPC  H13Y 3232   4.046   3.258   9.291 -2.3763 -1.2368  1.7050
   24SAPC  C314 3233   4.083   3.444   9.177  0.1428  0.1585 -0.3206
   24SAPC  H14X 3234   4.191   3.456   9.199 -0.5249  3.2473  1.8503
   24SAPC  H14Y 3235   4.050   3.550   9.177  1.5096  0.6094 -0.9429
   24SAPC  C315 3236   4.057   3.389   9.032 -0.1380  0.5450 -0.1760
   24SAPC  H15X 3237   4.114   3.296   9.010  0.5494  0.7367  0.7290
   24SAPC  H15Y 3238   4.107   3.459   8.962  2.0618 -1.0942 -0.3365
   24SAPC  C316 3239   3.906   3.373   9.002 -0.1037 -0.1195 -0.1226
   24SAPC  H16X 3240   3.852   3.465   9.035  0.5614  0.9148 -1.7608
   24SAPC  H16Y 3241   3.869   3.282   9.054 -0.7259  0.8178  1.1325
   24SAPC  C317 3242   3.869   3.354   8.861 -0.0905  0.2764  0.2740
   24SAPC  H17X 3243   3.764   3.316   8.867 -0.0833  0.0378 -0.9254
   24SAPC  H17Y 3244   3.935   3.279   8.815 -0.1867  0.2105  0.2443
   24SAPC  C318 3245   3.875   3.486   8.793 -0.1157  0.3305 -0.2524
   24SAPC  H18X 3246   3.807   3.557   8.844 -1.7351 -1.0378 -0.4296
   24SAPC  H18Y 3247   3.844   3.464   8.688 -0.0920  0.2200 -0.2362
   24SAPC  H18Z 3248   3.979   3.523   8.779  0.0117 -0.3722 -1.3640
   25SAPC     N 3249   0.135   1.633   5.873  0.2478  0.3463  0.2048
   25SAPC   C12 3250   0.173   1.555   5.990  0.8610 -0.3481 -0.8125
   25SAPC  H12A 3251   0.273   1.516   5.981  0.5522 -1.4041  0.0631
   25SAPC  H12B 3252   0.114   1.465   5.986 -0.2298  0.3570 -1.1768
   25SAPC   C13 3253   0.227   1.744   5.855 -0.4616 -0.1120  0.3740
   25SAPC  H13A 3254   0.319   1.712   5.810  0.5011  0.4564  1.8718
   25SAPC  H13B 3255   0.183   1.819   5.791 -0.6495 -1.6205 -1.3263
   25SAPC  H13C 3256   0.244   1.800   5.946  0.5391  2.1134 -1.0929
   25SAPC   C14 3257   0.143   1.557   5.743 -0.1125 -0.1203  0.4268
   25SAPC  H14A 3258   0.116   1.625   5.665 -1.0391 -0.4161  0.4801
   25SAPC  H14B 3259   0.237   1.512   5.715 -0.5075 -0.8758  0.2772
   25SAPC  H14C 3260   0.067   1.480   5.743 -0.4632  0.2233  0.4312
   25SAPC   C15 3261  -0.008   1.685   5.877  0.2581 -0.3406 -0.4031
   25SAPC  H15A 3262  -0.033   1.723   5.975 -0.9761  1.1801 -1.2547
   25SAPC  H15B 3263  -0.033   1.761   5.805 -2.0578 -1.7136 -1.1839
   25SAPC  H15C 3264  -0.079   1.606   5.856 -2.2910  0.8197  2.9789
   25SAPC   C11 3265   0.143   1.627   6.124  0.3927  0.5959 -0.0147
   25SAPC  H11A 3266   0.196   1.723   6.138 -0.5755  0.9928  1.1411
   25SAPC  H11B 3267   0.189   1.564   6.203 -2.0501 -0.3187  0.7967
   25SAPC     P 3268  -0.074   1.551   6.258  0.0219 -0.0616  0.1128
   25SAPC   O13 3269  -0.190   1.636   6.294  0.0227  0.7300 -0.1288
   25SAPC   O14 3270  -0.101   1.422   6.194 -0.6190  0.2846 -0.5347
   25SAPC   O12 3271  -0.003   1.638   6.151  0.1776  0.5944  0.1039
   25SAPC   O11 3272   0.034   1.539   6.374 -0.1040  0.0972  0.7229
   25SAPC    C1 3273   0.089   1.418   6.425 -0.2898  0.3793  0.1322
   25SAPC    HA 3274   0.076   1.331   6.357 -0.8746  0.9722 -0.5282
   25SAPC    HB 3275   0.197   1.428   6.450 -0.6482  0.6588  1.6360
   25SAPC    C2 3276   0.033   1.381   6.562 -0.0926  0.5974 -0.5076
   25SAPC    HS 3277   0.110   1.309   6.598  0.1455  0.8157 -0.5777
   25SAPC   O21 3278  -0.101   1.333   6.558 -0.0079 -0.7312  0.5053
   25SAPC   C21 3279  -0.131   1.217   6.493  0.2496  0.7656 -0.0798
   25SAPC   O22 3280  -0.051   1.136   6.455 -0.6257 -0.5590  0.7788
   25SAPC   C22 3281  -0.287   1.207   6.483  0.5123  0.3654 -0.1594
   25SAPC   H2R 3282  -0.329   1.263   6.570  1.7699  1.2094 -0.0612
   25SAPC   H2S 3283  -0.316   1.272   6.398  0.5335 -0.2844 -0.6679
   25SAPC    C3 3284   0.041   1.489   6.663 -0.4054 -0.0888 -0.3002
   25SAPC    HX 3285  -0.032   1.563   6.625  1.2076  1.4969 -0.4433
   25SAPC    HY 3286   0.140   1.537   6.646  0.1751 -1.6155 -1.4408
   25SAPC   O31 3287   0.015   1.461   6.808 -0.0739 -0.1313 -0.5141
   25SAPC   C31 3288   0.119   1.406   6.873  0.4690 -0.4557  0.1496
   25SAPC   O32 3289   0.228   1.373   6.823 -0.0558 -0.3090 -0.0913
   25SAPC   C32 3290   0.086   1.384   7.017 -0.0624  0.5901  0.1153
   25SAPC   H2X 3291   0.170   1.317   7.046 -0.4195 -0.8288 -1.9035
   25SAPC   H2Y 3292  -0.009   1.326   7.024  0.4455 -0.6806 -2.4521
   25SAPC   C23 3293  -0.323   1.056   6.468 -0.2535  0.6264  0.5261
   25SAPC   H3R 3294  -0.263   1.014   6.385 -0.3871 -0.1438  0.8078
   25SAPC   H3S 3295  -0.429   1.057   6.436 -0.1315  1.2299  0.1238
   25SAPC   C24 3296  -0.316   0.971   6.602  0.3595 -0.6419  0.6877
   25SAPC   H4R 3297  -0.208   0.953   6.619  0.7610 -0.2391 -1.2158
   25SAPC   H4S 3298  -0.367   0.876   6.577 -0.0557 -0.1617 -0.3777
   25SAPC   C25 3299  -0.400   1.029   6.713  0.5345 -0.5518 -0.3414
   25SAPC   H5R 3300  -0.499   1.063   6.679  0.3212  0.2022  0.9804
   25SAPC   C26 3301  -0.367   1.019   6.844  0.2397  0.1668 -0.0142
   25SAPC   H6R 3302  -0.443   1.052   6.916 -0.7153 -1.2124 -0.3347
   25SAPC   C27 3303  -0.235   0.977   6.892  0.4954 -0.0180 -0.9228
   25SAPC   H7R 3304  -0.176   0.918   6.818  1.6028 -0.2387  0.1075
   25SAPC   H7S 3305  -0.246   0.895   6.966 -0.3972 -0.9876 -2.0896
   25SAPC   C28 3306  -0.141   1.088   6.924  0.7375 -0.1458 -0.0476
   25SAPC   H8R 3307  -0.177   1.192   6.919 -0.4692 -0.3803  2.3466
   25SAPC   C29 3308  -0.012   1.068   6.953  0.0108 -0.0599 -0.3414
   25SAPC   H9R 3309   0.063   1.147   6.969 -1.7777  1.4889  0.8658
   25SAPC  C210 3310   0.052   0.935   6.977 -0.1688  0.1674  0.4176
   25SAPC  H10R 3311   0.161   0.951   6.968 -0.1877 -0.0460 -0.2666
   25SAPC  H10S 3312   0.036   0.878   6.883  0.3670 -0.2563  0.5760
   25SAPC  C211 3313   0.014   0.859   7.096 -0.6545  0.3004 -1.0045
   25SAPC  H11R 3314  -0.035   0.764   7.071 -0.9775 -0.3843  1.8343
   25SAPC  C212 3315   0.041   0.889   7.224  0.2863  0.5824 -0.0378
   25SAPC  H12R 3316   0.021   0.805   7.292  1.1803  0.8714  0.5963
   25SAPC  C213 3317   0.121   1.006   7.281 -0.6710  0.2065  0.3849
   25SAPC  H13R 3318   0.088   1.042   7.381 -1.5292  0.8765 -0.1178
   25SAPC  H13S 3319   0.104   1.089   7.209 -2.0774 -1.3291 -1.1508
   25SAPC  C214 3320   0.268   0.992   7.276  0.0221 -0.5122 -0.2694
   25SAPC  H14R 3321   0.305   1.015   7.174  1.7420  1.7928  0.7626
   25SAPC  C215 3322   0.362   0.970   7.368 -0.0015  0.2581  1.8607
   25SAPC  H15R 3323   0.461   0.964   7.321 -1.0150 -0.0671 -0.3562
   25SAPC  C216 3324   0.342   0.935   7.513  0.2777  0.0814  0.1743
   25SAPC  H16R 3325   0.313   0.829   7.527  0.2519  0.0493 -0.1124
   25SAPC  H16S 3326   0.270   1.005   7.560  1.5239  2.7647 -1.6798
   25SAPC  C217 3327   0.468   0.958   7.598  0.0041 -0.4041  0.1519
   25SAPC  H17R 3328   0.495   1.065   7.596 -0.4372 -0.2989 -1.4118
   25SAPC  H17S 3329   0.556   0.904   7.556  0.0800  1.1994 -1.8802
   25SAPC  C218 3330   0.460   0.909   7.744  0.3472 -0.7310  0.1692
   25SAPC  H18R 3331   0.563   0.903   7.785  0.9630  0.4698 -1.1429
   25SAPC  H18S 3332   0.427   0.803   7.739 -3.5436  0.3536 -0.8365
   25SAPC  C219 3333   0.353   0.976   7.828  0.8690  0.5492  0.1728
   25SAPC  H19R 3334   0.255   0.980   7.776  1.2668  0.4074 -0.6006
   25SAPC  H19S 3335   0.381   1.082   7.844  1.1323  0.4446  0.4142
   25SAPC  C220 3336   0.329   0.904   7.958 -0.0301 -0.8211  0.8182
   25SAPC  H20R 3337   0.320   0.795   7.938 -0.3118 -0.6038 -0.2779
   25SAPC  H20S 3338   0.235   0.939   8.006  0.7197  1.2356  0.8884
   25SAPC  H20T 3339   0.412   0.914   8.031  1.3424 -0.7020 -0.7154
   25SAPC   C33 3340   0.090   1.506   7.112 -0.5342  0.7752 -0.0529
   25SAPC   H3X 3341  -0.003   1.565   7.098 -0.8858  0.3273  0.3327
   25SAPC   H3Y 3342   0.172   1.576   7.087 -1.0414  1.2749 -0.3590
   25SAPC   C34 3343   0.098   1.462   7.258  0.4066  0.5750 -0.2875
   25SAPC   H4X 3344   0.018   1.385   7.269 -0.3031  0.5979 -4.0512
   25SAPC   H4Y 3345   0.063   1.543   7.325  0.0216  0.1522  0.0321
   25SAPC   C35 3346   0.235   1.413   7.298  0.8621 -0.5493  0.7110
   25SAPC   H5X 3347   0.306   1.494   7.271  0.2509 -0.5951 -1.2096
   25SAPC   H5Y 3348   0.262   1.316   7.251  0.3676 -0.4980  0.3114
   25SAPC   C36 3349   0.254   1.398   7.449 -0.1854 -0.1556 -0.4650
   25SAPC   H6X 3350   0.179   1.326   7.488  0.1233 -1.9495 -2.9710
   25SAPC   H6Y 3351   0.229   1.497   7.492  0.6947  0.3531 -1.1074
   25SAPC   C37 3352   0.401   1.368   7.491 -0.1119  0.1132 -0.1140
   25SAPC   H7X 3353   0.480   1.443   7.471  0.5484 -1.1449 -2.8066
   25SAPC   H7Y 3354   0.426   1.280   7.427 -0.3004  0.7767 -1.1336
   25SAPC   C38 3355   0.404   1.317   7.636 -0.4272 -0.2548 -0.4470
   25SAPC   H8X 3356   0.509   1.282   7.645 -0.5419 -0.7937 -1.1159
   25SAPC   H8Y 3357   0.337   1.228   7.641 -1.7033  0.7417  1.9342
   25SAPC   C39 3358   0.380   1.429   7.735  0.3240 -0.3544 -0.0668
   25SAPC   H9X 3359   0.271   1.454   7.740 -0.2208 -2.4060 -0.6266
   25SAPC   H9Y 3360   0.427   1.524   7.701 -1.7220  0.0820 -1.9746
   25SAPC  C310 3361   0.442   1.395   7.875  0.1376  0.5017 -0.0973
   25SAPC  H10X 3362   0.399   1.295   7.897  0.2724  0.7483  1.4357
   25SAPC  H10Y 3363   0.400   1.466   7.950 -2.7995 -1.1762 -0.0258
   25SAPC  C311 3364   0.595   1.393   7.883 -0.1379  0.1804  0.1947
   25SAPC  H11X 3365   0.635   1.496   7.884 -0.5333  0.3379  1.2132
   25SAPC  H11Y 3366   0.633   1.345   7.791  0.5785  1.5400 -0.2473
   25SAPC  C312 3367   0.640   1.308   7.999 -0.4906  0.6321 -0.5516
   25SAPC  H12X 3368   0.748   1.282   7.996 -0.9737 -1.7541  0.4363
   25SAPC  H12Y 3369   0.591   1.211   7.979 -0.4152  0.4989 -0.1049
   25SAPC  C313 3370   0.605   1.360   8.138  0.3712  0.2648  0.5294
   25SAPC  H13X 3371   0.494   1.370   8.148 -0.3978 -0.5705 -4.5390
   25SAPC  H13Y 3372   0.649   1.461   8.149  1.5449 -0.0798 -0.7209
   25SAPC  C314 3373   0.649   1.278   8.253 -0.7685 -0.5725  0.3799
   25SAPC  H14X 3374   0.624   1.348   8.336 -1.5673 -0.1907 -0.1650
   25SAPC  H14Y 3375   0.757   1.272   8.226 -0.7234  3.1103 -0.9051
   25SAPC  C315 3376   0.585   1.139   8.273 -0.5556  0.2209  0.3075
   25SAPC  H15X 3377   0.576   1.096   8.171  1.2964 -2.1720  1.0630
   25SAPC  H15Y 3378   0.481   1.160   8.306 -0.4551 -0.6139  1.2045
   25SAPC  C316 3379   0.652   1.036   8.368  0.0043  0.1709  0.3712
   25SAPC  H16X 3380   0.740   0.996   8.314  0.1050  1.2882 -0.3282
   25SAPC  H16Y 3381   0.574   0.959   8.384  0.7141 -0.5951  0.1916
   25SAPC  C317 3382   0.700   1.087   8.500  0.5083 -0.2840  0.0042
   25SAPC  H17X 3383   0.611   1.121   8.557  1.5868  2.3857  0.2583
   25SAPC  H17Y 3384   0.746   1.187   8.485 -1.1212  0.5740  0.4896
   25SAPC  C318 3385   0.781   0.989   8.587  1.0135 -0.0751 -0.5382
   25SAPC  H18X 3386   0.889   0.999   8.562  0.6391  1.3322 -1.6841
   25SAPC  H18Y 3387   0.749   0.884   8.567 -2.4364  0.4354  1.5629
   25SAPC  H18Z 3388   0.762   1.023   8.691 -0.4404 -0.8004 -0.5387
   26SAPC     N 3389   1.180   3.753   6.123  0.1146  0.2660 -0.0363
   26SAPC   C12 3390   1.305   3.795   6.190 -0.4015 -0.3237  0.2158
   26SAPC  H12A 3391   1.372   3.854   6.129  1.4592 -0.6236  1.8811
   26SAPC  H12B 3392   1.370   3.713   6.217 -1.0517 -1.0922 -0.4998
   26SAPC   C13 3393   1.115   3.877   6.068 -0.3753 -0.9860  0.6451
   26SAPC  H13A 3394   1.109   3.956   6.141 -1.5220 -1.3495  0.9522
   26SAPC  H13B 3395   1.177   3.904   5.983 -1.9191 -1.0615 -0.5492
   26SAPC  H13C 3396   1.014   3.858   6.036  0.1032 -3.7175  0.4867
   26SAPC   C14 3397   1.212   3.659   6.012  0.0967  1.1269  0.0776
   26SAPC  H14A 3398   1.122   3.641   5.955  0.5169  1.4375 -0.6994
   26SAPC  H14B 3399   1.278   3.702   5.937 -0.4463  0.8028 -0.5986
   26SAPC  H14C 3400   1.250   3.563   6.044 -2.5028  0.2966  0.9025
   26SAPC   C15 3401   1.083   3.687   6.219 -0.2108  0.4441 -0.4789
   26SAPC  H15A 3402   1.079   3.734   6.316  2.8538  1.4752 -0.7500
   26SAPC  H15B 3403   0.982   3.688   6.181 -0.4065  3.3048 -0.0499
   26SAPC  H15C 3404   1.103   3.584   6.245 -2.2373  0.4572  1.3989
   26SAPC   C11 3405   1.281   3.883   6.315  0.1084  0.2213  0.1628
   26SAPC  H11A 3406   1.375   3.884   6.375  0.8146 -0.6937 -0.9113
   26SAPC  H11B 3407   1.201   3.839   6.379  0.5629 -0.1402  0.4872
   26SAPC     P 3408   1.283   4.133   6.368 -0.0756  0.3341  0.1026
   26SAPC   O13 3409   1.430   4.127   6.381 -0.4183 -0.4490 -0.5124
   26SAPC   O14 3410   1.217   4.252   6.315  0.6836 -0.2760  0.4100
   26SAPC   O12 3411   1.242   4.014   6.279  0.3821 -0.1753  0.0346
   26SAPC   O11 3412   1.221   4.095   6.503 -0.0286  0.2808  0.2709
   26SAPC    C1 3413   1.266   4.152   6.629  0.4831  0.1028 -0.7222
   26SAPC    HA 3414   1.356   4.214   6.610  0.2307  0.9587  0.6807
   26SAPC    HB 3415   1.192   4.225   6.668  1.1123  0.1297  0.4893
   26SAPC    C2 3416   1.301   4.041   6.740  0.7208  0.7149 -0.2108
   26SAPC    HS 3417   1.337   4.098   6.829 -1.8306  0.7723  0.8772
   26SAPC   O21 3418   1.396   3.942   6.692  0.3529  0.5459 -0.1825
   26SAPC   C21 3419   1.519   3.984   6.678 -0.0897  0.0618  0.0876
   26SAPC   O22 3420   1.561   4.093   6.721  0.2968  0.6746 -0.2805
   26SAPC   C22 3421   1.596   3.890   6.584  0.2277  0.5932 -0.7147
   26SAPC   H2R 3422   1.548   3.791   6.597 -1.8212  1.8583  2.2304
   26SAPC   H2S 3423   1.577   3.922   6.479 -3.7516  0.5583 -0.1322
   26SAPC    C3 3424   1.172   3.966   6.797  0.3074 -0.4526  0.1181
   26SAPC    HX 3425   1.144   3.890   6.721  3.8946 -2.4024  0.5262
   26SAPC    HY 3426   1.098   4.048   6.810  0.8849  0.0058  0.5874
   26SAPC   O31 3427   1.193   3.897   6.923  0.5174 -0.4575  0.6163
   26SAPC   C31 3428   1.160   3.953   7.043 -0.0085 -0.7247  0.0553
   26SAPC   O32 3429   1.116   4.069   7.054  0.5348 -0.5378 -0.1350
   26SAPC   C32 3430   1.188   3.849   7.151 -0.2296 -0.2504 -0.2316
   26SAPC   H2X 3431   1.288   3.807   7.130 -0.7952 -1.2922 -0.9735
   26SAPC   H2Y 3432   1.109   3.774   7.128  0.0113 -0.9039  0.9741
   26SAPC   C23 3433   1.746   3.888   6.610 -0.2563 -0.4325 -0.1573
   26SAPC   H3R 3434   1.784   3.990   6.592 -2.5442  0.7221  1.0711
   26SAPC   H3S 3435   1.783   3.825   6.527  0.1042 -0.3345 -0.0725
   26SAPC   C24 3436   1.788   3.842   6.749 -1.0492  0.2198  0.4545
   26SAPC   H4R 3437   1.753   3.920   6.820 -1.2767 -2.3188  3.3267
   26SAPC   H4S 3438   1.899   3.834   6.752 -1.0945 -2.9727 -1.5610
   26SAPC   C25 3439   1.734   3.709   6.783 -0.5753 -0.0925  0.4380
   26SAPC   H5R 3440   1.770   3.635   6.709  0.9488  0.5313  0.5198
   26SAPC   C26 3441   1.652   3.676   6.885 -0.3696  0.2154  0.3908
   26SAPC   H6R 3442   1.617   3.573   6.899 -2.7662  0.7084 -1.4647
   26SAPC   C27 3443   1.600   3.774   6.990 -0.2074 -0.1822  0.1899
   26SAPC   H7R 3444   1.519   3.733   7.053 -0.8148  2.0927  0.9781
   26SAPC   H7S 3445   1.552   3.858   6.935  1.5911  1.1112  0.5004
   26SAPC   C28 3446   1.711   3.838   7.065  0.2992 -0.4441 -0.3948
   26SAPC   H8R 3447   1.814   3.805   7.045 -0.1567 -1.8137 -0.6431
   26SAPC   C29 3448   1.682   3.947   7.145  0.7426  0.3050 -0.1171
   26SAPC   H9R 3449   1.761   3.983   7.212  0.5169  1.4337 -0.4301
   26SAPC  C210 3450   1.545   4.004   7.168  0.5814  0.5401 -0.1247
   26SAPC  H10R 3451   1.528   4.032   7.274 -1.7312 -0.5148 -0.1437
   26SAPC  H10S 3452   1.472   3.921   7.153  0.6264  0.5957 -0.6622
   26SAPC  C211 3453   1.502   4.113   7.075 -0.0396  0.6856  0.3616
   26SAPC  H11R 3454   1.523   4.085   6.971  0.2271  1.9656  0.0489
   26SAPC  C212 3455   1.444   4.232   7.107 -0.4761  1.4052  0.0671
   26SAPC  H12R 3456   1.400   4.294   7.027 -1.3455  1.4499  0.5640
   26SAPC  C213 3457   1.408   4.281   7.246  0.1913  0.0289 -0.4250
   26SAPC  H13R 3458   1.427   4.391   7.249  0.8041 -0.0851  2.2356
   26SAPC  H13S 3459   1.481   4.238   7.317 -0.5969  1.7150  1.5072
   26SAPC  C214 3460   1.266   4.261   7.288 -0.1594  0.2009  0.0268
   26SAPC  H14R 3461   1.204   4.192   7.229  0.3314  0.4313 -0.7720
   26SAPC  C215 3462   1.209   4.311   7.395  0.4501  0.2732 -0.1823
   26SAPC  H15R 3463   1.107   4.275   7.418  0.6661  1.2060  2.5048
   26SAPC  C216 3464   1.278   4.400   7.496  0.1408  0.3389 -0.3671
   26SAPC  H16R 3465   1.211   4.485   7.518  2.1581  1.5695  1.3844
   26SAPC  H16S 3466   1.371   4.451   7.464  0.9246  1.3050  3.0614
   26SAPC  C217 3467   1.313   4.335   7.636 -0.0260  0.5238  0.8868
   26SAPC  H17R 3468   1.226   4.285   7.685  0.0691  1.4879  2.0742
   26SAPC  H17S 3469   1.348   4.400   7.719  1.5821 -2.3914  2.6612
   26SAPC  C218 3470   1.421   4.232   7.607 -0.5562  0.0040 -0.0507
   26SAPC  H18R 3471   1.510   4.285   7.568  0.2369 -1.5354 -0.3791
   26SAPC  H18S 3472   1.380   4.155   7.538  0.9569 -0.1554 -0.8248
   26SAPC  C219 3473   1.469   4.143   7.729 -0.2686 -0.5097 -0.0161
   26SAPC  H19R 3474   1.376   4.105   7.776  0.7639 -0.3281  2.2971
   26SAPC  H19S 3475   1.512   4.212   7.805 -1.5422  2.6380 -1.9477
   26SAPC  C220 3476   1.562   4.029   7.706 -0.7527  0.2737 -0.2618
   26SAPC  H20R 3477   1.668   4.055   7.728 -0.7251  0.6498 -0.8172
   26SAPC  H20S 3478   1.552   3.988   7.604 -3.9842  0.1585  0.0002
   26SAPC  H20T 3479   1.547   3.947   7.779  0.5547  0.1959 -0.0528
   26SAPC   C33 3480   1.178   3.897   7.293  0.5121 -0.3550  0.5899
   26SAPC   H3X 3481   1.072   3.924   7.313  0.2181  0.2196 -1.5719
   26SAPC   H3Y 3482   1.231   3.994   7.303 -0.9198  0.3644  1.6652
   26SAPC   C34 3483   1.234   3.803   7.404 -1.2455 -0.1937  0.6634
   26SAPC   H4X 3484   1.343   3.790   7.385 -1.0032  1.6142  0.6424
   26SAPC   H4Y 3485   1.191   3.701   7.392  0.5827 -1.0355  0.8823
   26SAPC   C35 3486   1.225   3.853   7.547 -0.2274  0.1402 -0.6313
   26SAPC   H5X 3487   1.123   3.895   7.560 -0.5902 -0.9961  0.3371
   26SAPC   H5Y 3488   1.286   3.942   7.575 -0.9179  0.2843  0.5017
   26SAPC   C36 3489   1.246   3.741   7.652  0.0365 -0.1708 -0.2370
   26SAPC   H6X 3490   1.355   3.718   7.650  0.5564  2.0071 -2.9275
   26SAPC   H6Y 3491   1.193   3.653   7.610 -0.8913  0.4185 -0.3188
   26SAPC   C37 3492   1.197   3.768   7.789 -0.1302 -0.1179  0.0458
   26SAPC   H7X 3493   1.087   3.784   7.791 -0.1358 -0.1897  0.4367
   26SAPC   H7Y 3494   1.242   3.867   7.811  2.0682 -0.5941 -1.9183
   26SAPC   C38 3495   1.241   3.669   7.897  0.1184  0.1397  0.5497
   26SAPC   H8X 3496   1.345   3.641   7.870 -0.1796  0.0236 -0.5127
   26SAPC   H8Y 3497   1.185   3.573   7.898 -1.7957  1.1673 -1.1323
   26SAPC   C39 3498   1.252   3.721   8.044  0.4723  0.2767  0.5322
   26SAPC   H9X 3499   1.153   3.759   8.077 -0.2906 -1.6507  0.6398
   26SAPC   H9Y 3500   1.320   3.807   8.032  1.4856 -0.1545  2.7369
   26SAPC  C310 3501   1.302   3.614   8.136 -0.8733 -0.3730 -0.6183
   26SAPC  H10X 3502   1.369   3.564   8.062 -1.0585 -1.9908  0.2545
   26SAPC  H10Y 3503   1.231   3.534   8.168 -1.4093 -0.3477 -1.6914
   26SAPC  C311 3504   1.395   3.669   8.249 -1.2271  0.2314 -0.4883
   26SAPC  H11X 3505   1.346   3.693   8.346  0.9086 -1.8569  1.2488
   26SAPC  H11Y 3506   1.432   3.766   8.210 -0.4354  0.1280 -0.0165
   26SAPC  C312 3507   1.515   3.574   8.274 -1.2601 -0.3376  0.1829
   26SAPC  H12X 3508   1.582   3.627   8.344 -0.7344 -0.2325 -0.3952
   26SAPC  H12Y 3509   1.575   3.552   8.183  1.4522  1.9273  1.2982
   26SAPC  C313 3510   1.477   3.444   8.350 -0.0730  0.3015 -0.8389
   26SAPC  H13X 3511   1.416   3.394   8.272 -0.1741  1.2846 -1.4050
   26SAPC  H13Y 3512   1.429   3.472   8.446  1.2913  1.2252 -0.3970
   26SAPC  C314 3513   1.599   3.351   8.391  0.3851  0.2703 -0.6685
   26SAPC  H14X 3514   1.666   3.386   8.472 -1.7901  4.2362 -0.3136
   26SAPC  H14Y 3515   1.657   3.346   8.296 -2.2469 -2.4622 -2.3363
   26SAPC  C315 3516   1.551   3.210   8.425 -0.5776 -0.4140  0.9850
   26SAPC  H15X 3517   1.477   3.194   8.344 -0.2551  3.7235 -0.3432
   26SAPC  H15Y 3518   1.503   3.216   8.526  0.2702 -0.2636  1.3852
   26SAPC  C316 3519   1.666   3.124   8.427 -1.1921  0.2482 -0.2057
   26SAPC  H16X 3520   1.759   3.179   8.452 -1.4282  0.9324 -0.8024
   26SAPC  H16Y 3521   1.688   3.100   8.321  0.2907  4.1714 -0.9867
   26SAPC  C317 3522   1.656   2.999   8.505 -0.3720  0.2278 -0.4703
   26SAPC  H17X 3523   1.578   2.936   8.457 -2.5769  0.9218  1.9813
   26SAPC  H17Y 3524   1.619   3.013   8.609 -2.0269  0.4040 -1.0463
   26SAPC  C318 3525   1.783   2.907   8.505 -0.0478 -0.1061 -0.0645
   26SAPC  H18X 3526   1.754   2.821   8.570  2.6564 -0.8250  0.3254
   26SAPC  H18Y 3527   1.874   2.956   8.546 -0.8463  1.0421  0.4024
   26SAPC  H18Z 3528   1.793   2.872   8.401 -1.0265 -2.1175  0.4778
   27SAPC     N 3529   5.925   4.139   6.905  0.2988 -0.9714  0.6405
   27SAPC   C12 3530   5.799   4.197   6.964  0.8440 -0.0157 -0.6119
   27SAPC  H12A 3531   5.774   4.296   6.932  0.6981 -0.2184 -1.1313
   27SAPC  H12B 3532   5.818   4.201   7.071  0.9576 -0.7544 -0.5972
   27SAPC   C13 3533   6.029   4.249   6.919 -0.8126  0.4174  0.1458
   27SAPC  H13A 3534   6.118   4.225   6.864  0.1125  1.3465  1.1765
   27SAPC  H13B 3535   6.001   4.347   6.882  0.4989  0.1970 -1.5112
   27SAPC  H13C 3536   6.056   4.255   7.024 -1.6969 -0.0632  0.4124
   27SAPC   C14 3537   5.972   4.010   6.962 -0.3056 -0.5884 -0.1541
   27SAPC  H14A 3538   5.999   4.032   7.064 -1.8781  1.3973 -0.0994
   27SAPC  H14B 3539   5.897   3.932   6.953 -0.6332 -0.3512  0.4790
   27SAPC  H14C 3540   6.056   3.967   6.909  0.3444  1.3621 -0.8112
   27SAPC   C15 3541   5.903   4.117   6.756  0.0344 -0.4492  0.2142
   27SAPC  H15A 3542   5.994   4.087   6.705 -0.6837 -1.2888 -0.6177
   27SAPC  H15B 3543   5.819   4.051   6.740 -1.1123  0.2684  2.8337
   27SAPC  H15C 3544   5.887   4.211   6.706  0.3309 -0.8813 -0.7111
   27SAPC   C11 3545   5.669   4.118   6.938  0.3584 -0.4101 -0.5630
   27SAPC  H11A 3546   5.657   4.094   6.830  2.7653  0.7955 -1.1844
   27SAPC  H11B 3547   5.579   4.183   6.949  0.9324  0.6882 -1.9480
   27SAPC     P 3548   5.581   3.878   7.007  0.0639 -0.1233  0.1538
   27SAPC   O13 3549   5.596   3.825   6.872  0.3895  0.3347  0.2370
   27SAPC   O14 3550   5.610   3.782   7.117  0.1152 -0.2758 -0.7222
   27SAPC   O12 3551   5.669   4.003   7.029  0.1143 -0.3165  0.6274
   27SAPC   O11 3552   5.437   3.940   7.024  0.0231  0.5701 -0.6499
   27SAPC    C1 3553   5.390   4.017   7.139  0.6070  0.6822  0.5790
   27SAPC    HA 3554   5.473   4.068   7.193  0.7602  0.7226  0.3070
   27SAPC    HB 3555   5.325   4.101   7.107 -0.4359 -0.9693 -1.8621
   27SAPC    C2 3556   5.306   3.929   7.229 -0.1140  0.5770  0.0485
   27SAPC    HS 3557   5.219   3.984   7.271  0.1020  0.0514  1.2307
   27SAPC   O21 3558   5.393   3.865   7.325 -0.2835 -0.5287  0.1238
   27SAPC   C21 3559   5.418   3.940   7.428 -0.1840 -0.5347 -0.9725
   27SAPC   O22 3560   5.370   4.049   7.450  1.1247  0.4749  0.2060
   27SAPC   C22 3561   5.535   3.883   7.503 -0.4665 -0.1820  0.0168
   27SAPC   H2R 3562   5.615   3.873   7.426 -0.1730  0.2443  0.2579
   27SAPC   H2S 3563   5.566   3.953   7.584 -3.1002  0.6627  0.3949
   27SAPC    C3 3564   5.231   3.819   7.151 -0.7352  0.0158 -0.1070
   27SAPC    HX 3565   5.305   3.736   7.149  2.4683  2.3337  4.0810
   27SAPC    HY 3566   5.204   3.862   7.053  2.6310  2.9245  0.0159
   27SAPC   O31 3567   5.117   3.770   7.224 -0.3109 -0.4260 -0.1790
   27SAPC   C31 3568   4.993   3.826   7.214  0.6281 -0.1197 -1.1253
   27SAPC   O32 3569   4.960   3.900   7.124  0.1088 -0.0332  0.3821
   27SAPC   C32 3570   4.901   3.787   7.324  0.6054 -0.4450 -0.4221
   27SAPC   H2X 3571   4.840   3.698   7.294  1.3618 -1.1591  0.1328
   27SAPC   H2Y 3572   4.829   3.872   7.332  1.1626  0.0020 -0.0792
   27SAPC   C23 3573   5.523   3.749   7.570 -0.2719  1.0653 -0.0555
   27SAPC   H3R 3574   5.609   3.736   7.638 -0.0704  2.3117 -0.0399
   27SAPC   H3S 3575   5.539   3.665   7.500 -1.9758 -0.5008  1.3233
   27SAPC   C24 3576   5.402   3.740   7.653  0.0643  0.1373 -0.1879
   27SAPC   H4R 3577   5.414   3.641   7.703  3.0751  0.2774 -0.4122
   27SAPC   H4S 3578   5.318   3.733   7.580 -2.6670 -2.0365  2.8653
   27SAPC   C25 3579   5.367   3.838   7.757 -0.5820  0.5159 -0.8917
   27SAPC   H5R 3580   5.336   3.935   7.715 -1.0153  0.8779  0.1975
   27SAPC   C26 3581   5.357   3.830   7.889  0.4153  0.2353 -0.1628
   27SAPC   H6R 3582   5.303   3.915   7.934  1.0193 -0.0183  1.0578
   27SAPC   C27 3583   5.389   3.719   7.985  0.2923  0.0057  0.0283
   27SAPC   H7R 3584   5.455   3.766   8.061 -0.2784  0.0880  0.4759
   27SAPC   H7S 3585   5.459   3.647   7.937 -2.2622 -2.6445  0.0772
   27SAPC   C28 3586   5.265   3.653   8.044 -0.0644  0.3124  0.6036
   27SAPC   H8R 3587   5.198   3.611   7.968  1.0167  0.5272 -0.5051
   27SAPC   C29 3588   5.234   3.646   8.174  0.6248  0.5151 -0.2009
   27SAPC   H9R 3589   5.143   3.591   8.202 -1.1493  2.5638 -1.6210
   27SAPC  C210 3590   5.315   3.700   8.285  0.0841  0.1515 -0.5485
   27SAPC  H10R 3591   5.422   3.716   8.262  0.1227  0.8446  0.0781
   27SAPC  H10S 3592   5.309   3.622   8.364 -0.3684  0.5972 -0.1390
   27SAPC  C211 3593   5.265   3.822   8.356 -0.5236 -0.4047  0.0697
   27SAPC  H11R 3594   5.303   3.917   8.316  0.0756 -0.1829  1.1368
   27SAPC  C212 3595   5.206   3.842   8.473  0.0616 -0.9426  0.7120
   27SAPC  H12R 3596   5.165   3.942   8.493 -0.4120 -1.0442  0.2858
   27SAPC  C213 3597   5.178   3.733   8.571  0.3050  0.3226  0.8882
   27SAPC  H13R 3598   5.239   3.734   8.664  0.3956 -1.4582  0.8826
   27SAPC  H13S 3599   5.204   3.634   8.528  0.1788  0.6131  0.1333
   27SAPC  C214 3600   5.026   3.720   8.588 -0.1150 -0.3348  0.6862
   27SAPC  H14R 3601   4.967   3.713   8.495  0.2903 -0.1149  0.4134
   27SAPC  C215 3602   4.964   3.717   8.701  0.1346  1.3542 -0.2119
   27SAPC  H15R 3603   4.855   3.698   8.697  0.2158  0.6589  0.5443
   27SAPC  C216 3604   5.023   3.716   8.842  0.0739 -0.0438  0.5064
   27SAPC  H16R 3605   4.958   3.758   8.921 -1.8358  0.8636 -1.4260
   27SAPC  H16S 3606   5.117   3.776   8.833  0.6237 -1.0637 -1.0035
   27SAPC  C217 3607   5.080   3.581   8.900  0.2427 -0.7510  0.7494
   27SAPC  H17R 3608   5.150   3.540   8.824  0.9262  0.7597  0.5132
   27SAPC  H17S 3609   5.002   3.502   8.894 -1.9290  1.1157  2.4419
   27SAPC  C218 3610   5.149   3.597   9.034 -0.2580  0.4202  0.2512
   27SAPC  H18R 3611   5.209   3.690   9.035 -0.0806  0.3179  1.5914
   27SAPC  H18S 3612   5.216   3.509   9.048  1.1789  1.1494 -1.6635
   27SAPC  C219 3613   5.051   3.604   9.152  0.2730  0.3533  0.3369
   27SAPC  H19R 3614   4.977   3.686   9.142  1.1362  1.1499  0.3869
   27SAPC  H19S 3615   5.117   3.632   9.237  0.2585  0.5843  0.2707
   27SAPC  C220 3616   4.970   3.479   9.186  0.0320  0.6054  0.3789
   27SAPC  H20R 3617   4.944   3.416   9.098 -0.9537  1.2372  0.2033
   27SAPC  H20S 3618   4.868   3.508   9.222 -1.5584 -1.3160 -2.2203
   27SAPC  H20T 3619   5.004   3.418   9.273 -2.0328  0.4635  1.1643
   27SAPC   C33 3620   4.979   3.777   7.455 -0.3616 -0.6117  0.2222
   27SAPC   H3X 3621   5.057   3.856   7.463 -1.1476  0.3041 -0.7777
   27SAPC   H3Y 3622   5.037   3.683   7.451  0.0249 -0.3534 -0.4700
   27SAPC   C34 3623   4.889   3.781   7.586  0.3165 -0.1780  0.1231
   27SAPC   H4X 3624   4.843   3.680   7.593  0.4234 -0.1239  3.7545
   27SAPC   H4Y 3625   4.811   3.859   7.577  2.5951  2.1028 -1.1310
   27SAPC   C35 3626   4.967   3.797   7.715  0.0909 -0.6871 -0.5842
   27SAPC   H5X 3627   5.004   3.902   7.712 -4.2514  1.1295  0.6242
   27SAPC   H5Y 3628   5.047   3.721   7.723  1.1001  0.4531  0.6641
   27SAPC   C36 3629   4.880   3.780   7.840  0.8194  0.0304  0.3142
   27SAPC   H6X 3630   4.866   3.671   7.829 -0.1986  0.3378 -2.1060
   27SAPC   H6Y 3631   4.784   3.831   7.820 -0.9194 -4.0103 -3.2740
   27SAPC   C37 3632   4.942   3.821   7.973 -0.6097  0.1499  0.6469
   27SAPC   H7X 3633   4.986   3.922   7.956  2.6008 -1.1953  0.2937
   27SAPC   H7Y 3634   5.033   3.765   8.003  0.4453  0.9627 -0.8877
   27SAPC   C38 3635   4.840   3.826   8.091 -0.7002  0.1161 -0.4140
   27SAPC   H8X 3636   4.784   3.732   8.110  3.3291 -2.0513  2.3270
   27SAPC   H8Y 3637   4.768   3.899   8.048  1.2516  1.5679 -1.3534
   27SAPC   C39 3638   4.893   3.872   8.228 -0.1877  0.2030 -0.3893
   27SAPC   H9X 3639   4.922   3.979   8.232  0.0818  0.2237 -2.0775
   27SAPC   H9Y 3640   4.974   3.803   8.259 -0.6599 -0.3901 -0.4618
   27SAPC  C310 3641   4.781   3.860   8.343  0.1176 -0.0992 -0.2008
   27SAPC  H10X 3642   4.834   3.882   8.438 -0.6024  2.0441 -0.2252
   27SAPC  H10Y 3643   4.753   3.753   8.337 -0.0873 -0.1503  1.2884
   27SAPC  C311 3644   4.649   3.945   8.334 -0.3965 -0.3003  0.0737
   27SAPC  H11X 3645   4.604   3.939   8.233  0.4380 -0.2597 -0.3058
   27SAPC  H11Y 3646   4.691   4.046   8.352  2.5906 -1.5030  0.3798
   27SAPC  C312 3647   4.546   3.914   8.449  0.2276 -1.0988 -0.6876
   27SAPC  H12X 3648   4.543   3.803   8.443  0.2789 -1.2905  1.8505
   27SAPC  H12Y 3649   4.447   3.954   8.418 -0.3428 -0.0290  2.2064
   27SAPC  C313 3650   4.609   3.954   8.583  0.5868  0.0603 -0.3190
   27SAPC  H13X 3651   4.617   4.065   8.588 -1.9282  0.2314  2.1183
   27SAPC  H13Y 3652   4.713   3.914   8.580  0.8539  0.7531 -2.3551
   27SAPC  C314 3653   4.525   3.898   8.698 -0.2916  0.3190  0.0747
   27SAPC  H14X 3654   4.544   3.789   8.699  2.8034  0.7762  1.0805
   27SAPC  H14Y 3655   4.417   3.915   8.677 -0.4022 -0.2989  0.1187
   27SAPC  C315 3656   4.545   3.962   8.837 -0.6602  0.2752 -0.2502
   27SAPC  H15X 3657   4.471   3.922   8.910 -0.7442  0.5744 -0.1720
   27SAPC  H15Y 3658   4.519   4.068   8.815 -0.1774  0.2249 -1.0974
   27SAPC  C316 3659   4.696   3.943   8.880 -0.0649  0.1699 -0.6866
   27SAPC  H16X 3660   4.761   4.004   8.813 -0.6433 -0.5656 -1.9602
   27SAPC  H16Y 3661   4.717   3.834   8.876  1.2601  0.3265  0.9388
   27SAPC  C317 3662   4.715   3.982   9.030 -0.3213 -0.6040 -0.9797
   27SAPC  H17X 3663   4.659   4.074   9.055  0.1944 -0.6448  0.4311
   27SAPC  H17Y 3664   4.824   4.000   9.047 -0.3236 -1.4932  0.1257
   27SAPC  C318 3665   4.671   3.873   9.136 -1.0563 -0.0070  0.1960
   27SAPC  H18X 3666   4.565   3.843   9.123 -1.4652  1.6226 -0.4189
   27SAPC  H18Y 3667   4.679   3.907   9.241 -0.6788  0.3705  0.0502
   27SAPC  H18Z 3668   4.731   3.783   9.109 -0.4993 -0.2378  2.0617
   28SAPC     N 3669   3.866   6.650   6.085  0.3881  0.3551 -0.1196
   28SAPC   C12 3670   3.997   6.718   6.090 -0.5389 -0.5021 -0.6759
   28SAPC  H12A 3671   3.997   6.802   6.022 -2.0558  0.2371  0.1880
   28SAPC  H12B 3672   4.075   6.653   6.053  0.1065  0.7045 -1.4985
   28SAPC   C13 3673   3.746   6.728   6.127  0.3618 -0.0532  0.1108
   28SAPC  H13A 3674   3.658   6.665   6.130  1.0752 -1.0099  2.1373
   28SAPC  H13B 3675   3.754   6.762   6.229  0.6806 -1.8087  0.6898
   28SAPC  H13C 3676   3.732   6.812   6.060 -0.1466  2.1201  2.7481
   28SAPC   C14 3677   3.848   6.594   5.945  0.2386  0.1911  0.0487
   28SAPC  H14A 3678   3.767   6.522   5.942  1.7800 -1.6520 -2.7350
   28SAPC  H14B 3679   3.838   6.665   5.865  0.8719  0.5778  0.3077
   28SAPC  H14C 3680   3.938   6.535   5.929 -1.0044 -1.4584 -1.2337
   28SAPC   C15 3681   3.881   6.540   6.187  0.3403  0.6387  0.1042
   28SAPC  H15A 3682   3.795   6.478   6.170 -0.6115  1.9256  0.1036
   28SAPC  H15B 3683   3.971   6.483   6.171  1.0058  0.7803  2.7395
   28SAPC  H15C 3684   3.876   6.579   6.288  0.0985  0.7109  0.0645
   28SAPC   C11 3685   4.041   6.791   6.222  0.6589 -0.1725  0.0940
   28SAPC  H11A 3686   4.137   6.847   6.226 -0.1106  1.1323  0.6442
   28SAPC  H11B 3687   4.062   6.704   6.288  0.0921  0.4782  1.1687
   28SAPC     P 3688   3.904   6.876   6.424  0.1318  0.0119  0.0642
   28SAPC   O13 3689   3.847   7.005   6.456  0.6730 -0.0608  0.0173
   28SAPC   O14 3690   3.819   6.757   6.458 -0.1614 -0.1330  0.0011
   28SAPC   O12 3691   3.937   6.877   6.271 -0.0913 -0.3396  0.0884
   28SAPC   O11 3692   4.046   6.859   6.484 -0.3760 -0.1163  0.3128
   28SAPC    C1 3693   4.154   6.945   6.485  0.4303  0.0374  0.7584
   28SAPC    HA 3694   4.244   6.880   6.480 -1.0525 -2.0037 -1.1449
   28SAPC    HB 3695   4.166   6.994   6.386  0.6324  0.0396  0.7832
   28SAPC    C2 3696   4.159   7.052   6.601  0.7982  0.0828  0.5647
   28SAPC    HS 3697   4.265   7.065   6.630  0.3204  1.2241  1.8800
   28SAPC   O21 3698   4.072   7.005   6.709  0.0031 -0.6170 -0.0506
   28SAPC   C21 3699   4.124   6.910   6.780  0.3352  0.5034 -0.1367
   28SAPC   O22 3700   4.234   6.858   6.768  0.2695 -0.5736  0.3268
   28SAPC   C22 3701   4.026   6.875   6.875 -0.3482 -0.2354  0.2190
   28SAPC   H2R 3702   4.063   6.842   6.975  2.0562 -0.9468 -0.8378
   28SAPC   H2S 3703   3.970   6.969   6.894 -1.4886 -1.1311  1.5458
   28SAPC    C3 3704   4.099   7.187   6.564 -0.5814  0.2823  0.8504
   28SAPC    HX 3705   3.989   7.184   6.546 -0.4843  0.9797  0.0873
   28SAPC    HY 3706   4.134   7.218   6.463 -0.9755  2.4598  1.3278
   28SAPC   O31 3707   4.129   7.290   6.664  0.3533  0.3033  1.0067
   28SAPC   C31 3708   4.252   7.347   6.655  0.1154 -0.1652  0.4854
   28SAPC   O32 3709   4.332   7.323   6.564 -0.0414  0.1757 -0.6789
   28SAPC   C32 3710   4.284   7.429   6.785  0.5712 -0.5212  0.4777
   28SAPC   H2X 3711   4.242   7.361   6.863  0.2431 -1.1627 -0.2465
   28SAPC   H2Y 3712   4.222   7.520   6.795 -1.3785 -1.6307 -0.8356
   28SAPC   C23 3713   3.934   6.755   6.833  0.5676 -0.0478 -0.8140
   28SAPC   H3R 3714   4.000   6.666   6.826  0.7165  0.0157 -0.2911
   28SAPC   H3S 3715   3.897   6.777   6.731 -2.4859 -3.5283 -0.6527
   28SAPC   C24 3716   3.825   6.720   6.940  0.4600  1.0249 -0.0572
   28SAPC   H4R 3717   3.783   6.625   6.901  1.5126  0.9935 -1.1800
   28SAPC   H4S 3718   3.883   6.721   7.035  2.4794  0.4197 -1.2229
   28SAPC   C25 3719   3.722   6.827   6.957  0.8177 -0.2134  0.4601
   28SAPC   H5R 3720   3.642   6.824   6.881  2.2488  0.3049 -1.1031
   28SAPC   C26 3721   3.708   6.917   7.056  0.5428 -0.2837 -0.1103
   28SAPC   H6R 3722   3.614   6.975   7.060 -1.9321 -3.9870  0.3715
   28SAPC   C27 3723   3.789   6.938   7.177  0.1843 -0.0669 -0.0465
   28SAPC   H7R 3724   3.892   6.897   7.168  1.2477  2.2212  0.9554
   28SAPC   H7S 3725   3.750   6.886   7.267  1.3422 -1.3959 -0.2871
   28SAPC   C28 3726   3.819   7.084   7.204 -1.0342  0.0243 -0.2662
   28SAPC   H8R 3727   3.826   7.143   7.112  0.8237 -1.5660 -1.2099
   28SAPC   C29 3728   3.842   7.136   7.323  0.1039 -0.1160 -0.7126
   28SAPC   H9R 3729   3.869   7.243   7.323 -0.1658 -0.0103  1.2476
   28SAPC  C210 3730   3.829   7.066   7.458 -0.1656 -0.7388 -0.3073
   28SAPC  H10R 3731   3.733   7.010   7.468 -0.8400  0.6582  1.5192
   28SAPC  H10S 3732   3.815   7.147   7.532  1.9005 -2.5687  2.2605
   28SAPC  C211 3733   3.939   6.970   7.494  0.1055 -0.7366  0.1596
   28SAPC  H11R 3734   3.970   6.894   7.421  0.4171  0.6990 -1.2312
   28SAPC  C212 3735   4.016   6.973   7.602 -1.1561  0.1747  0.4296
   28SAPC  H12R 3736   4.078   6.884   7.623 -2.0165 -1.2822 -2.6147
   28SAPC  C213 3737   4.021   7.084   7.709 -0.1663  0.5516 -0.0385
   28SAPC  H13R 3738   4.039   7.184   7.665 -2.6425  1.4764  0.8810
   28SAPC  H13S 3739   4.104   7.073   7.782 -0.2536 -0.0573 -0.0273
   28SAPC  C214 3740   3.903   7.117   7.801 -0.1084  0.5220 -0.1940
   28SAPC  H14R 3741   3.823   7.046   7.775  2.7993 -3.3361  0.6200
   28SAPC  C215 3742   3.890   7.210   7.895 -0.2118  0.3802 -0.7585
   28SAPC  H15R 3743   3.793   7.230   7.943 -0.9467  0.1364 -2.1046
   28SAPC  C216 3744   3.997   7.311   7.929  1.1386 -0.4145 -0.6925
   28SAPC  H16R 3745   4.031   7.359   7.835 -0.9116 -0.6729 -1.6338
   28SAPC  H16S 3746   4.085   7.269   7.983  0.9204  0.5463  0.4392
   28SAPC  C217 3747   3.946   7.418   8.027  0.1293 -0.7432 -0.6999
   28SAPC  H17R 3748   3.844   7.451   8.001 -0.4133 -2.5637 -1.0316
   28SAPC  H17S 3749   4.012   7.507   8.017  1.3222 -1.0094  3.1819
   28SAPC  C218 3750   3.956   7.375   8.175  0.2966  0.7696  0.4382
   28SAPC  H18R 3751   3.939   7.466   8.237  0.7711  1.3656 -0.2991
   28SAPC  H18S 3752   4.055   7.339   8.212 -0.0861 -1.0670 -0.1977
   28SAPC  C219 3753   3.860   7.262   8.221  0.2456 -0.7013 -0.4901
   28SAPC  H19R 3754   3.872   7.182   8.145 -2.1620 -0.0844 -1.6191
   28SAPC  H19S 3755   3.754   7.291   8.200  0.6201  0.1233 -1.3326
   28SAPC  C220 3756   3.885   7.233   8.370  0.7345 -0.1179 -0.5857
   28SAPC  H20R 3757   3.813   7.154   8.402  0.6110 -0.4803 -1.7387
   28SAPC  H20S 3758   3.869   7.317   8.441  1.2668 -0.2518 -0.3033
   28SAPC  H20T 3759   3.988   7.193   8.381  1.5821  1.3920 -2.6247
   28SAPC   C33 3760   4.436   7.455   6.796  0.2292  0.4637 -0.3814
   28SAPC   H3X 3761   4.460   7.543   6.733 -0.4231  1.3581  0.5851
   28SAPC   H3Y 3762   4.490   7.365   6.759 -1.8541 -0.5755 -1.0682
   28SAPC   C34 3763   4.484   7.482   6.941 -0.4308 -0.5289  0.7376
   28SAPC   H4X 3764   4.477   7.391   7.004  2.8299 -1.0247  0.5181
   28SAPC   H4Y 3765   4.416   7.555   6.990 -1.3485 -1.3023  0.6496
   28SAPC   C35 3766   4.629   7.527   6.948  0.2672 -0.3944 -0.0328
   28SAPC   H5X 3767   4.633   7.631   6.910  0.4300  0.0511  1.1414
   28SAPC   H5Y 3768   4.694   7.467   6.881 -0.9682  2.0312 -3.6745
   28SAPC   C36 3769   4.685   7.510   7.094  0.1949 -0.3783 -0.6315
   28SAPC   H6X 3770   4.788   7.553   7.092  0.6030 -1.1348  1.3863
   28SAPC   H6Y 3771   4.691   7.401   7.115 -1.7707 -0.0436  2.1301
   28SAPC   C37 3772   4.612   7.593   7.203 -0.0683  0.4207  1.0044
   28SAPC   H7X 3773   4.512   7.545   7.215 -0.3188 -0.2572 -2.6017
   28SAPC   H7Y 3774   4.593   7.694   7.161 -0.7622 -0.5021 -1.0142
   28SAPC   C38 3775   4.695   7.593   7.330  0.3404  0.2297 -1.0447
   28SAPC   H8X 3776   4.799   7.627   7.312 -0.3189  1.5842 -2.4620
   28SAPC   H8Y 3777   4.706   7.484   7.348 -1.6176 -0.0953 -1.5746
   28SAPC   C39 3778   4.632   7.669   7.446  0.3664  0.2621  0.2512
   28SAPC   H9X 3779   4.533   7.626   7.473  0.2353  0.8621  0.7516
   28SAPC   H9Y 3780   4.601   7.774   7.428 -0.0818  0.4352  1.8806
   28SAPC  C310 3781   4.714   7.671   7.574  0.6437  0.2224  0.4606
   28SAPC  H10X 3782   4.813   7.715   7.549 -0.1620  1.8478 -0.0234
   28SAPC  H10Y 3783   4.717   7.562   7.596  0.2589  0.7733  3.7151
   28SAPC  C311 3784   4.662   7.747   7.697 -0.0485  0.2349 -0.5174
   28SAPC  H11X 3785   4.579   7.693   7.747  0.2077 -0.2464 -0.5979
   28SAPC  H11Y 3786   4.626   7.846   7.662 -0.3890  0.2436 -0.1513
   28SAPC  C312 3787   4.769   7.779   7.800 -0.3704  0.1214  0.7179
   28SAPC  H12X 3788   4.851   7.837   7.754  0.5517 -0.1555  1.9545
   28SAPC  H12Y 3789   4.810   7.684   7.842  0.2717 -0.2039 -0.5909
   28SAPC  C313 3790   4.716   7.865   7.917 -0.2292 -0.3072  0.1973
   28SAPC  H13X 3791   4.615   7.821   7.930  1.0274 -2.6295  3.3318
   28SAPC  H13Y 3792   4.700   7.970   7.883 -0.2911 -1.0939 -2.4889
   28SAPC  C314 3793   4.784   7.860   8.053  0.0692  0.4292 -0.6816
   28SAPC  H14X 3794   4.772   7.952   8.114  0.9386 -1.3026  2.3328
   28SAPC  H14Y 3795   4.894   7.861   8.040  0.1028  2.4716 -0.5294
   28SAPC  C315 3796   4.750   7.728   8.135  0.0379 -0.5315  0.9199
   28SAPC  H15X 3797   4.835   7.719   8.207  0.4303 -0.1768  0.5062
   28SAPC  H15Y 3798   4.761   7.639   8.070  0.1219 -0.3296  0.6542
   28SAPC  C316 3799   4.618   7.711   8.211  0.4757  0.5737 -0.0538
   28SAPC  H16X 3800   4.648   7.625   8.274 -1.5376  0.9385  1.4746
   28SAPC  H16Y 3801   4.531   7.682   8.148  1.5125  0.0455 -1.2910
   28SAPC  C317 3802   4.572   7.822   8.308 -0.5106 -0.7251  0.6778
   28SAPC  H17X 3803   4.535   7.905   8.243 -2.0486 -2.0068 -0.1392
   28SAPC  H17Y 3804   4.664   7.857   8.360  1.0124  0.0340 -2.2376
   28SAPC  C318 3805   4.470   7.782   8.413 -0.0550  0.0711  0.4485
   28SAPC  H18X 3806   4.381   7.736   8.364  1.2514 -0.7399 -1.2660
   28SAPC  H18Y 3807   4.433   7.871   8.469  0.5399  0.2938  0.4971
   28SAPC  H18Z 3808   4.500   7.704   8.486 -1.4432  0.5279  1.5445
   29SAPC     N 3809   0.851   4.164   6.436  0.4475 -0.7289  0.0801
   29SAPC   C12 3810   0.697   4.162   6.449 -1.1152 -0.0297 -0.2642
   29SAPC  H12A 3811   0.651   4.190   6.356 -3.1671  2.1465  1.3057
   29SAPC  H12B 3812   0.673   4.242   6.518  1.9969  0.2069  0.7130
   29SAPC   C13 3813   0.895   4.086   6.320 -1.2190  0.0726  0.1346
   29SAPC  H13A 3814   0.857   4.124   6.226 -1.8372 -1.3479 -0.2182
   29SAPC  H13B 3815   1.002   4.080   6.308 -1.2001  0.1364  0.2788
   29SAPC  H13C 3816   0.854   3.987   6.329  0.9908 -0.7213  2.3646
   29SAPC   C14 3817   0.890   4.308   6.408  0.5338  0.7308  0.2301
   29SAPC  H14A 3818   0.993   4.320   6.379 -0.3885  0.8942 -3.4633
   29SAPC  H14B 3819   0.846   4.351   6.319  3.9216 -0.6497 -2.3685
   29SAPC  H14C 3820   0.861   4.370   6.491 -0.8560  0.1311  0.2293
   29SAPC   C15 3821   0.922   4.120   6.560  0.3202 -0.7065 -0.0013
   29SAPC  H15A 3822   0.920   4.191   6.642  1.3894  0.0372 -0.5999
   29SAPC  H15B 3823   0.887   4.027   6.603 -1.9104  1.0913  2.4632
   29SAPC  H15C 3824   1.025   4.109   6.533  0.0797 -0.8539 -0.8783
   29SAPC   C11 3825   0.632   4.030   6.513 -0.0932  0.3172 -0.3508
   29SAPC  H11A 3826   0.523   4.050   6.518 -0.0237  0.4422  1.0326
   29SAPC  H11B 3827   0.672   4.029   6.617 -0.9668 -1.1538 -0.0006
   29SAPC     P 3828   0.606   3.769   6.485  0.1831 -0.4146  0.2533
   29SAPC   O13 3829   0.471   3.754   6.425  0.0691 -0.1458 -0.9683
   29SAPC   O14 3830   0.705   3.673   6.438 -0.0076 -1.0109  0.3829
   29SAPC   O12 3831   0.655   3.913   6.437  0.3413  0.3507 -0.5811
   29SAPC   O11 3832   0.601   3.770   6.639  0.8512  0.6623  0.0892
   29SAPC    C1 3833   0.491   3.825   6.708  0.0457 -0.3921 -0.9455
   29SAPC    HA 3834   0.495   3.936   6.718 -1.0516 -0.5184  1.7544
   29SAPC    HB 3835   0.389   3.809   6.668 -1.3267  1.2983  1.6002
   29SAPC    C2 3836   0.493   3.788   6.858  0.1007  0.1379  0.7550
   29SAPC    HS 3837   0.413   3.839   6.916 -1.0266 -0.9294  0.1807
   29SAPC   O21 3838   0.620   3.815   6.903 -0.0792  0.7850  0.1156
   29SAPC   C21 3839   0.627   3.936   6.963  0.1355 -0.2774 -0.3553
   29SAPC   O22 3840   0.533   4.010   6.980  0.2869 -0.9133  0.8615
   29SAPC   C22 3841   0.764   3.949   7.019 -0.3172 -0.1642 -0.0909
   29SAPC   H2R 3842   0.793   3.850   7.061 -0.3969  0.7020  2.1052
   29SAPC   H2S 3843   0.838   3.975   6.940  1.5796 -2.2075  0.8717
   29SAPC    C3 3844   0.471   3.635   6.866  0.6159 -0.2704  0.6725
   29SAPC    HX 3845   0.541   3.575   6.805  0.3787 -1.1584  1.2611
   29SAPC    HY 3846   0.371   3.608   6.825  0.2724  1.3243  0.3734
   29SAPC   O31 3847   0.485   3.593   6.999  0.1604  0.5570  0.0571
   29SAPC   C31 3848   0.376   3.595   7.071  1.0195 -0.5550 -0.4278
   29SAPC   O32 3849   0.259   3.620   7.039 -0.3461 -0.0411  0.3077
   29SAPC   C32 3850   0.397   3.555   7.216  0.5064  1.1861 -0.1512
   29SAPC   H2X 3851   0.449   3.458   7.211 -2.9450 -0.9451  1.2193
   29SAPC   H2Y 3852   0.297   3.540   7.263  1.3764  0.2877  1.5232
   29SAPC   C23 3853   0.773   4.048   7.132  0.6385 -0.2239 -0.7496
   29SAPC   H3R 3854   0.733   4.141   7.086  1.2399  0.9672  1.0341
   29SAPC   H3S 3855   0.878   4.064   7.164  0.2644  0.0522  0.3935
   29SAPC   C24 3856   0.697   4.011   7.255 -0.5906  0.8977 -1.0021
   29SAPC   H4R 3857   0.594   3.971   7.244 -0.2445 -0.2433 -0.2180
   29SAPC   H4S 3858   0.682   4.108   7.307  0.1967  0.4582  0.0745
   29SAPC   C25 3859   0.768   3.909   7.342 -0.0406 -0.4076  0.2481
   29SAPC   H5R 3860   0.759   3.804   7.312  1.6193  0.1074 -2.4609
   29SAPC   C26 3861   0.840   3.938   7.453 -0.0860  0.1139 -0.5036
   29SAPC   H6R 3862   0.886   3.849   7.500  2.6966  0.2038 -2.7654
   29SAPC   C27 3863   0.874   4.071   7.518 -0.7897 -0.6810 -0.0431
   29SAPC   H7R 3864   0.885   4.150   7.441 -0.1674  0.8249  1.5187
   29SAPC   H7S 3865   0.972   4.066   7.571  0.0664  1.3347 -1.3016
   29SAPC   C28 3866   0.771   4.128   7.610 -0.1479 -0.3176 -0.2974
   29SAPC   H8R 3867   0.693   4.196   7.573  1.7749  3.2113  1.5382
   29SAPC   C29 3868   0.771   4.125   7.741 -0.0988  0.6357 -0.0600
   29SAPC   H9R 3869   0.690   4.173   7.798  0.5685  0.7894  0.7775
   29SAPC  C210 3870   0.877   4.055   7.825  0.5461  0.0905  0.8093
   29SAPC  H10R 3871   0.927   3.984   7.756 -1.4701 -0.5535 -0.0450
   29SAPC  H10S 3872   0.830   3.998   7.908 -2.8179  0.2473 -0.8249
   29SAPC  C211 3873   0.982   4.137   7.889 -0.7062 -0.4351  0.7896
   29SAPC  H11R 3874   1.020   4.210   7.816  1.5057 -2.9594 -0.7501
   29SAPC  C212 3875   1.052   4.123   8.004  1.2765 -0.0372 -0.7047
   29SAPC  H12R 3876   1.137   4.194   8.004  3.2726 -2.2410 -2.7968
   29SAPC  C213 3877   1.029   4.023   8.118 -0.2785  0.0339 -0.7474
   29SAPC  H13R 3878   1.125   3.967   8.125  1.0682  2.3009  0.1442
   29SAPC  H13S 3879   0.953   3.945   8.097  2.7304 -2.5476 -3.0156
   29SAPC  C214 3880   0.992   4.087   8.247 -0.2771 -0.0842 -0.8060
   29SAPC  H14R 3881   0.883   4.099   8.258 -0.2431 -0.0875 -0.4532
   29SAPC  C215 3882   1.069   4.117   8.356  0.2612 -0.6790  0.0814
   29SAPC  H15R 3883   1.021   4.151   8.448  0.7710 -1.2757  0.5779
   29SAPC  C216 3884   1.214   4.092   8.376 -0.3629  0.6654  0.5019
   29SAPC  H16R 3885   1.268   4.189   8.369  2.7304 -1.0279 -1.9656
   29SAPC  H16S 3886   1.247   4.025   8.293  0.1416 -0.4349  1.5652
   29SAPC  C217 3887   1.242   4.011   8.505 -0.6033 -0.4687 -0.1377
   29SAPC  H17R 3888   1.184   3.917   8.511 -0.3340 -0.6922 -0.9302
   29SAPC  H17S 3889   1.198   4.062   8.594 -0.9965 -0.8024 -0.1365
   29SAPC  C218 3890   1.392   3.976   8.517  0.7285 -0.3551  0.0751
   29SAPC  H18R 3891   1.443   4.074   8.519  0.3430 -0.1635  2.1030
   29SAPC  H18S 3892   1.429   3.926   8.425  0.1244 -1.4486  0.4131
   29SAPC  C219 3893   1.422   3.878   8.630 -0.2507 -0.5573  0.1151
   29SAPC  H19R 3894   1.376   3.780   8.606  1.3996 -1.4619  0.5164
   29SAPC  H19S 3895   1.373   3.913   8.724  1.0336  0.3753  0.4715
   29SAPC  C220 3896   1.568   3.850   8.636 -0.1088  0.1718  0.4834
   29SAPC  H20R 3897   1.611   3.948   8.666 -0.6237  0.3752  0.5583
   29SAPC  H20S 3898   1.606   3.814   8.538 -1.0945 -0.5809  0.3549
   29SAPC  H20T 3899   1.598   3.771   8.709  0.9307  0.4024  0.3263
   29SAPC   C33 3900   0.468   3.666   7.290 -0.0553  0.1040 -0.2154
   29SAPC   H3X 3901   0.444   3.770   7.259  1.9802  0.1653 -1.7905
   29SAPC   H3Y 3902   0.577   3.661   7.273 -0.1956 -1.2234 -0.8481
   29SAPC   C34 3903   0.444   3.662   7.444 -0.2966 -0.6911 -0.3637
   29SAPC   H4X 3904   0.338   3.681   7.471  0.3133  0.9736  1.0530
   29SAPC   H4Y 3905   0.505   3.743   7.488 -2.9638  0.0485  2.3065
   29SAPC   C35 3906   0.492   3.528   7.510  0.0018 -0.9207 -0.3173
   29SAPC   H5X 3907   0.571   3.479   7.449 -1.7029 -1.6477 -2.0420
   29SAPC   H5Y 3908   0.402   3.465   7.523 -1.5649  1.4225  0.8491
   29SAPC   C36 3909   0.556   3.552   7.647  0.2129 -0.6880 -0.1213
   29SAPC   H6X 3910   0.560   3.460   7.709  1.6876 -0.1299  0.6532
   29SAPC   H6Y 3911   0.497   3.628   7.702  1.6029 -0.7881  1.5879
   29SAPC   C37 3912   0.700   3.609   7.637 -0.6869  0.0591 -0.3254
   29SAPC   H7X 3913   0.678   3.708   7.591  0.4664  1.4431  1.9485
   29SAPC   H7Y 3914   0.754   3.536   7.573 -0.4881 -0.5352  0.5014
   29SAPC   C38 3915   0.779   3.635   7.771 -0.2714  0.0033  0.7342
   29SAPC   H8X 3916   0.737   3.719   7.829 -0.1914  0.0070  0.7876
   29SAPC   H8Y 3917   0.882   3.665   7.740 -0.2384 -1.2960 -0.4954
   29SAPC   C39 3918   0.799   3.508   7.856 -0.7786  0.4930 -0.0678
   29SAPC   H9X 3919   0.856   3.433   7.799  1.0298  1.1396  0.8100
   29SAPC   H9Y 3920   0.700   3.461   7.877  0.2378 -1.5664  0.3346
   29SAPC  C310 3921   0.863   3.544   7.994 -0.6326 -0.4776 -0.3224
   29SAPC  H10X 3922   0.799   3.627   8.029 -2.4766 -1.2206 -1.7592
   29SAPC  H10Y 3923   0.965   3.587   7.986 -1.3463  1.0722 -1.7135
   29SAPC  C311 3924   0.882   3.428   8.103  0.0158  0.5794  0.9140
   29SAPC  H11X 3925   0.922   3.481   8.192  0.1964  1.9439  0.0497
   29SAPC  H11Y 3926   0.954   3.350   8.069 -2.5017 -1.2554 -0.5509
   29SAPC  C312 3927   0.753   3.363   8.138  0.7847 -0.6247  0.6514
   29SAPC  H12X 3928   0.729   3.294   8.054 -2.9200  1.3025 -0.0666
   29SAPC  H12Y 3929   0.680   3.445   8.148 -0.3780 -1.0810 -2.7564
   29SAPC  C313 3930   0.770   3.284   8.275 -0.2390  0.3062  0.6022
   29SAPC  H13X 3931   0.820   3.355   8.346 -0.6255  0.4979  0.6856
   29SAPC  H13Y 3932   0.851   3.212   8.250 -0.3196  0.7108 -0.8885
   29SAPC  C314 3933   0.641   3.218   8.334 -0.0851  0.3638 -0.7524
   29SAPC  H14X 3934   0.590   3.155   8.258  0.6266 -1.1871 -0.0067
   29SAPC  H14Y 3935   0.574   3.303   8.357 -3.1524 -0.9112 -4.1135
   29SAPC  C315 3936   0.677   3.133   8.455  0.0826 -0.2005 -0.1286
   29SAPC  H15X 3937   0.596   3.141   8.531 -0.4657 -1.5244 -0.5493
   29SAPC  H15Y 3938   0.768   3.187   8.490 -1.1092  1.6767  0.2475
   29SAPC  C316 3939   0.721   2.987   8.443  0.1088 -0.0134  0.0043
   29SAPC  H16X 3940   0.788   2.961   8.527 -1.2293  1.0111  1.4538
   29SAPC  H16Y 3941   0.776   2.986   8.347 -1.1845 -0.6590 -0.7630
   29SAPC  C317 3942   0.608   2.883   8.446  0.6320  0.1564 -0.2030
   29SAPC  H17X 3943   0.574   2.907   8.549  2.8375  0.6915  0.4705
   29SAPC  H17Y 3944   0.653   2.782   8.440  2.2469  0.6772  1.8162
   29SAPC  C318 3945   0.500   2.905   8.352 -0.4219  0.6354 -0.5121
   29SAPC  H18X 3946   0.542   2.900   8.249  1.1294  0.8202  0.0895
   29SAPC  H18Y 3947   0.444   2.999   8.371  1.1268  1.2863  1.1248
   29SAPC  H18Z 3948   0.426   2.823   8.356  0.4248 -0.1783 -1.1270
   30SAPC     N 3949   2.491   4.850   6.048 -0.2357 -0.0288  0.6887
   30SAPC   C12 3950   2.567   4.793   6.168  0.8692  0.1838  0.4457
   30SAPC  H12A 3951   2.590   4.879   6.229 -0.7700  1.1938 -0.2857
   30SAPC  H12B 3952   2.654   4.745   6.127 -0.4939 -2.8746  0.8684
   30SAPC   C13 3953   2.468   4.740   5.953 -0.2697 -0.0075  0.1234
   30SAPC  H13A 3954   2.563   4.727   5.902  0.4637 -0.4160  1.5598
   30SAPC  H13B 3955   2.458   4.644   6.002  2.9175 -0.0363  0.9451
   30SAPC  H13C 3956   2.403   4.756   5.868 -0.8189 -0.6895  0.3991
   30SAPC   C14 3957   2.366   4.918   6.079 -0.0893  0.0688 -0.5602
   30SAPC  H14A 3958   2.306   4.850   6.137 -0.8086  2.3842  1.6246
   30SAPC  H14B 3959   2.374   5.012   6.132 -1.3692  1.9357 -3.4273
   30SAPC  H14C 3960   2.313   4.945   5.989  1.3709  0.7071 -1.2561
   30SAPC   C15 3961   2.576   4.951   5.970  0.8012  0.3065 -0.1502
   30SAPC  H15A 3962   2.674   4.909   5.956  0.9564  0.3710  0.6700
   30SAPC  H15B 3963   2.536   4.967   5.871 -0.2670 -0.5757  0.1139
   30SAPC  H15C 3964   2.585   5.051   6.008  1.8868  0.5983 -1.1273
   30SAPC   C11 3965   2.499   4.692   6.268  0.4434 -0.1029 -0.8583
   30SAPC  H11A 3966   2.405   4.733   6.312 -0.5296 -1.2782 -1.7648
   30SAPC  H11B 3967   2.566   4.683   6.356 -1.9196  1.6127  1.2751
   30SAPC     P 3968   2.597   4.480   6.173 -0.4387  0.2866  0.0377
   30SAPC   O13 3969   2.595   4.460   6.029  0.2876 -0.2757  0.1218
   30SAPC   O14 3970   2.723   4.517   6.230 -0.4622  0.0541 -0.1093
   30SAPC   O12 3971   2.469   4.572   6.202  0.1007 -0.1372  0.2871
   30SAPC   O11 3972   2.545   4.346   6.245 -0.1243 -0.0135 -0.6142
   30SAPC    C1 3973   2.420   4.313   6.308 -0.3109  0.2799  0.7805
   30SAPC    HA 3974   2.337   4.314   6.234  2.2116  2.5548 -2.2910
   30SAPC    HB 3975   2.447   4.209   6.337  2.5047  0.3556 -1.1575
   30SAPC    C2 3976   2.386   4.383   6.440 -0.2087 -0.5548 -0.6973
   30SAPC    HS 3977   2.377   4.491   6.414  0.4738 -0.7971 -2.0283
   30SAPC   O21 3978   2.506   4.369   6.527 -0.0861 -0.3903 -0.5785
   30SAPC   C21 3979   2.544   4.461   6.609 -0.1020 -0.9666 -0.5276
   30SAPC   O22 3980   2.492   4.573   6.620 -0.3989  0.2231  0.0106
   30SAPC   C22 3981   2.668   4.422   6.692  0.0435  0.6187  0.0765
   30SAPC   H2R 3982   2.709   4.336   6.634 -1.1400  0.4053 -0.4802
   30SAPC   H2S 3983   2.745   4.500   6.676 -1.6561  2.4643  0.3734
   30SAPC    C3 3984   2.253   4.338   6.521  0.6996  0.4703  0.2167
   30SAPC    HX 3985   2.265   4.230   6.543  0.7485  0.3826 -0.2160
   30SAPC    HY 3986   2.166   4.356   6.454  0.2327 -1.7623  0.1576
   30SAPC   O31 3987   2.246   4.408   6.648  0.0500 -0.2406  0.2161
   30SAPC   C31 3988   2.198   4.530   6.637  1.1704  0.0269  0.5655
   30SAPC   O32 3989   2.158   4.581   6.531 -0.4151 -0.0155  0.1374
   30SAPC   C32 3990   2.194   4.592   6.775 -0.3099  0.4556  0.1424
   30SAPC   H2X 3991   2.117   4.529   6.825 -1.0981  1.1309 -0.2075
   30SAPC   H2Y 3992   2.150   4.693   6.781  0.0350  1.0617 -4.2838
   30SAPC   C23 3993   2.632   4.385   6.838  0.5670  0.2940 -0.0917
   30SAPC   H3R 3994   2.531   4.338   6.841 -0.7181  2.8508  2.7540
   30SAPC   H3S 3995   2.634   4.478   6.900  2.3630  1.1671 -1.3705
   30SAPC   C24 3996   2.719   4.276   6.888 -0.1802 -0.0314  0.7305
   30SAPC   H4R 3997   2.711   4.197   6.810 -1.0512 -0.6089  1.3875
   30SAPC   H4S 3998   2.686   4.232   6.985 -2.5526  0.1302  0.0473
   30SAPC   C25 3999   2.860   4.331   6.895 -0.6619  0.0642 -0.3171
   30SAPC   H5R 4000   2.904   4.354   6.797  0.3706 -0.0306  0.1131
   30SAPC   C26 4001   2.931   4.359   7.011  1.0328 -0.3098 -0.1550
   30SAPC   H6R 4002   3.036   4.388   6.999  0.7563  1.2861  0.8595
   30SAPC   C27 4003   2.895   4.336   7.160 -0.4663  0.3049  0.1753
   30SAPC   H7R 4004   2.940   4.238   7.187 -0.7716 -0.9061 -3.1565
   30SAPC   H7S 4005   2.787   4.309   7.156 -0.1161 -1.2411  0.6429
   30SAPC   C28 4006   2.930   4.433   7.261 -0.0716 -0.6479  0.5345
   30SAPC   H8R 4007   2.986   4.520   7.224 -3.4829  0.5040 -2.6281
   30SAPC   C29 4008   2.900   4.418   7.391  0.3911  0.1518 -0.1884
   30SAPC   H9R 4009   2.907   4.498   7.466  1.5378 -0.2471  0.1532
   30SAPC  C210 4010   2.819   4.301   7.448  0.2691 -0.0526  0.3667
   30SAPC  H10R 4011   2.808   4.220   7.372  1.3444 -0.5381  0.7040
   30SAPC  H10S 4012   2.716   4.334   7.473  1.2118  1.1950  2.9659
   30SAPC  C211 4013   2.888   4.257   7.571 -0.1537  0.1784 -0.1887
   30SAPC  H11R 4014   2.978   4.197   7.553 -0.3178 -0.0312 -0.3183
   30SAPC  C212 4015   2.860   4.294   7.695  0.2544 -0.1799 -0.0186
   30SAPC  H12R 4016   2.923   4.259   7.778 -1.6070 -1.0442  1.1053
   30SAPC  C213 4017   2.747   4.377   7.747 -0.8137 -1.2915  0.0786
   30SAPC  H13R 4018   2.707   4.346   7.845  2.0061  0.3917  1.9111
   30SAPC  H13S 4019   2.660   4.368   7.679 -0.6423  0.5160 -0.4368
   30SAPC  C214 4020   2.795   4.527   7.755 -0.1569 -0.1421 -0.0090
   30SAPC  H14R 4021   2.861   4.552   7.671 -1.5102 -1.2491 -1.4582
   30SAPC  C215 4022   2.747   4.625   7.836 -0.1643  0.5586 -0.0837
   30SAPC  H15R 4023   2.783   4.729   7.836  0.6102  0.3005  0.5307
   30SAPC  C216 4024   2.642   4.608   7.941  0.0367 -0.0738 -0.6665
   30SAPC  H16R 4025   2.628   4.500   7.965 -0.6557 -0.2710 -1.8797
   30SAPC  H16S 4026   2.547   4.649   7.901  0.3925  0.7058 -0.7317
   30SAPC  C217 4027   2.694   4.672   8.066  0.2653 -0.5844  0.4751
   30SAPC  H17R 4028   2.747   4.769   8.053  2.1301 -1.5740  0.3335
   30SAPC  H17S 4029   2.778   4.606   8.097  0.2526 -1.8122 -1.9005
   30SAPC  C218 4030   2.592   4.681   8.174  0.2262  0.1077 -0.1292
   30SAPC  H18R 4031   2.642   4.711   8.269  5.3596 -1.5893 -1.9140
   30SAPC  H18S 4032   2.546   4.582   8.188 -0.8748  0.7495  0.9528
   30SAPC  C219 4033   2.470   4.780   8.156  0.2816 -0.7118  0.4510
   30SAPC  H19R 4034   2.394   4.755   8.234 -0.7306 -0.1975 -0.3466
   30SAPC  H19S 4035   2.422   4.757   8.058 -2.6167  0.5549  1.4418
   30SAPC  C220 4036   2.517   4.924   8.153 -0.1285 -0.3906  0.4388
   30SAPC  H20R 4037   2.545   4.957   8.051  0.6683 -3.3754 -0.4052
   30SAPC  H20S 4038   2.608   4.935   8.216 -0.1133 -0.1745  0.3816
   30SAPC  H20T 4039   2.447   5.001   8.192  1.9535  0.9794  1.6837
   30SAPC   C33 4040   2.317   4.581   6.863  0.1584 -0.4742 -0.1710
   30SAPC   H3X 4041   2.398   4.650   6.831 -0.3120  0.3510  0.3649
   30SAPC   H3Y 4042   2.352   4.476   6.873  1.6589  0.0290  0.0790
   30SAPC   C34 4043   2.285   4.639   7.003 -0.8598  0.4494  0.7171
   30SAPC   H4X 4044   2.203   4.575   7.041 -1.0378 -0.6231 -1.3716
   30SAPC   H4Y 4045   2.262   4.748   6.999  2.7831  1.3463  0.8062
   30SAPC   C35 4046   2.408   4.614   7.094  0.4610  0.0566  0.2076
   30SAPC   H5X 4047   2.502   4.660   7.057 -0.6669  0.8969 -1.7729
   30SAPC   H5Y 4048   2.427   4.506   7.110 -1.1851 -0.1354  1.0920
   30SAPC   C36 4049   2.387   4.675   7.236 -0.5978 -0.5507  0.2978
   30SAPC   H6X 4050   2.287   4.723   7.243  0.0439  1.0197 -0.6708
   30SAPC   H6Y 4051   2.471   4.745   7.258  0.9231 -2.2420  0.1088
   30SAPC   C37 4052   2.394   4.562   7.340 -0.0174  0.4154  0.7030
   30SAPC   H7X 4053   2.499   4.534   7.362 -0.1081  2.0123  3.7303
   30SAPC   H7Y 4054   2.334   4.479   7.297  1.0386  0.9836 -2.1462
   30SAPC   C38 4055   2.349   4.605   7.476  0.3089 -0.2780  0.0557
   30SAPC   H8X 4056   2.248   4.647   7.461  1.2053  1.0627 -3.1425
   30SAPC   H8Y 4057   2.416   4.686   7.510  0.2782 -0.1350 -0.2198
   30SAPC   C39 4058   2.357   4.480   7.569  0.0101 -0.1923 -0.1631
   30SAPC   H9X 4059   2.462   4.447   7.579 -0.2453 -1.1860 -0.6086
   30SAPC   H9Y 4060   2.286   4.408   7.523  0.7790 -0.5034 -0.8782
   30SAPC  C310 4061   2.297   4.509   7.710 -0.3739 -0.0764  0.7162
   30SAPC  H10X 4062   2.187   4.493   7.712 -0.4829  0.5560  0.1352
   30SAPC  H10Y 4063   2.318   4.616   7.728  0.4502 -0.2220  0.6577
   30SAPC  C311 4064   2.350   4.424   7.826  0.3327 -0.1614 -0.1023
   30SAPC  H11X 4065   2.461   4.422   7.825  0.3955  0.4135  1.6874
   30SAPC  H11Y 4066   2.316   4.319   7.816 -0.7098 -0.0278  1.4915
   30SAPC  C312 4067   2.292   4.482   7.958 -0.2055 -0.2532  0.3210
   30SAPC  H12X 4068   2.183   4.465   7.956 -0.4766  0.6527  2.9352
   30SAPC  H12Y 4069   2.313   4.590   7.971  0.2299 -0.4358  1.2273
   30SAPC  C313 4070   2.347   4.409   8.083  0.3004 -0.0023  0.0472
   30SAPC  H13X 4071   2.311   4.462   8.174  2.4734  3.9922 -1.1710
   30SAPC  H13Y 4072   2.458   4.413   8.088  0.2177  2.0344  1.0267
   30SAPC  C314 4073   2.303   4.260   8.089  0.3885  0.3213  0.5470
   30SAPC  H14X 4074   2.354   4.195   8.016 -0.5066 -1.3563  1.3644
   30SAPC  H14Y 4075   2.197   4.248   8.056  0.5938  1.3562 -0.5701
   30SAPC  C315 4076   2.317   4.217   8.236  0.1776  0.3299 -0.6868
   30SAPC  H15X 4077   2.257   4.295   8.287 -0.5031 -0.6976  0.1385
   30SAPC  H15Y 4078   2.421   4.230   8.272  0.6087  3.2099 -2.5943
   30SAPC  C316 4079   2.268   4.065   8.263  0.2356 -0.9864  0.6727
   30SAPC  H16X 4080   2.348   4.003   8.216  1.8418  0.0779  1.9069
   30SAPC  H16Y 4081   2.174   4.058   8.203  1.4473 -1.5012 -1.2693
   30SAPC  C317 4082   2.241   4.050   8.412 -0.1374  0.0423  0.2576
   30SAPC  H17X 4083   2.336   4.074   8.464  0.5548  1.7544 -1.6637
   30SAPC  H17Y 4084   2.223   3.943   8.438  0.7967 -0.0970  0.3677
   30SAPC  C318 4085   2.125   4.139   8.470 -0.0262 -0.1188 -0.0593
   30SAPC  H18X 4086   2.144   4.171   8.575 -1.0518  2.0246 -0.4674
   30SAPC  H18Y 4087   2.029   4.084   8.476 -1.6045  2.3580 -1.1441
   30SAPC  H18Z 4088   2.101   4.232   8.414  0.4986  0.2724  0.3457
   31SAPC     N 4089   4.542   3.773   6.490 -0.7990 -0.2880 -0.1988
   31SAPC   C12 4090   4.512   3.744   6.640  0.1446 -0.0232 -0.6676
   31SAPC  H12A 4091   4.567   3.655   6.666 -0.0068 -0.2016 -0.9583
   31SAPC  H12B 4092   4.410   3.720   6.665 -0.8383  1.5587 -2.8056
   31SAPC   C13 4093   4.483   3.661   6.421  0.2211  0.5754 -0.2830
   31SAPC  H13A 4094   4.529   3.567   6.448  1.9716  2.2090  3.0543
   31SAPC  H13B 4095   4.377   3.647   6.437  0.3110 -1.6251 -1.1941
   31SAPC  H13C 4096   4.496   3.664   6.314 -0.6730  2.3961 -0.3774
   31SAPC   C14 4097   4.479   3.901   6.440 -0.2279 -0.0078  0.0256
   31SAPC  H14A 4098   4.374   3.893   6.462 -0.3815  1.1546 -0.2046
   31SAPC  H14B 4099   4.514   3.991   6.488 -0.5032  0.6285 -0.9331
   31SAPC  H14C 4100   4.487   3.901   6.332  3.1099 -0.3880  0.1577
   31SAPC   C15 4101   4.696   3.781   6.464 -0.1258 -0.3550  0.0165
   31SAPC  H15A 4102   4.711   3.791   6.358 -1.8057  1.6645 -0.1014
   31SAPC  H15B 4103   4.726   3.870   6.519 -0.3078 -0.7431  0.7576
   31SAPC  H15C 4104   4.744   3.693   6.503  1.5460 -0.9124 -2.9816
   31SAPC   C11 4105   4.542   3.854   6.739  0.7396 -0.1686 -0.0838
   31SAPC  H11A 4106   4.510   3.820   6.840  0.2734  0.0420 -0.1582
   31SAPC  H11B 4107   4.489   3.945   6.704  1.4454  0.1957 -0.2229
   31SAPC     P 4108   4.741   4.021   6.724  0.3151  0.0747  0.1439
   31SAPC   O13 4109   4.885   3.995   6.750 -0.5203  0.3813 -0.0589
   31SAPC   O14 4110   4.698   4.079   6.596 -0.2702 -0.1154  0.3341
   31SAPC   O12 4111   4.681   3.877   6.732 -0.1575  0.3884 -0.6352
   31SAPC   O11 4112   4.673   4.103   6.845 -0.3489 -0.4190 -0.5896
   31SAPC    C1 4113   4.718   4.066   6.978  0.0523  0.9583 -0.5140
   31SAPC    HA 4114   4.706   3.960   7.006 -3.7107  1.5688  0.7579
   31SAPC    HB 4115   4.818   4.109   6.999  0.8084 -0.5633 -0.9039
   31SAPC    C2 4116   4.635   4.138   7.082 -0.4473 -0.7073 -0.0604
   31SAPC    HS 4117   4.683   4.120   7.181  0.4404 -0.5404 -0.4500
   31SAPC   O21 4118   4.500   4.086   7.072 -0.2269 -0.0213 -0.8893
   31SAPC   C21 4119   4.469   3.997   7.163 -0.6337 -0.0912  0.6418
   31SAPC   O22 4120   4.546   3.945   7.239  0.1541  0.2766 -0.0658
   31SAPC   C22 4121   4.322   3.988   7.163  0.8990  0.2462  0.7349
   31SAPC   H2R 4122   4.272   4.082   7.131  0.1953 -0.4160 -0.1753
   31SAPC   H2S 4123   4.280   3.911   7.094 -0.2736  0.2531  1.4065
   31SAPC    C3 4124   4.635   4.295   7.072 -0.5303  0.3582 -0.1919
   31SAPC    HX 4125   4.594   4.337   6.977 -1.8619 -3.5633 -1.5685
   31SAPC    HY 4126   4.742   4.323   7.059  0.2261 -0.9690  2.4508
   31SAPC   O31 4127   4.591   4.363   7.192  0.0172 -0.2411  0.1289
   31SAPC   C31 4128   4.461   4.404   7.193  0.1758 -0.2602 -0.8202
   31SAPC   O32 4129   4.386   4.384   7.098 -0.3908  0.0303  0.1727
   31SAPC   C32 4130   4.423   4.456   7.334  0.0315  0.4792 -0.3860
   31SAPC   H2X 4131   4.472   4.554   7.347 -0.4296  0.9142 -1.7298
   31SAPC   H2Y 4132   4.462   4.385   7.410 -2.8776 -0.3715  0.4549
   31SAPC   C23 4133   4.273   3.938   7.309  0.4309  0.0598  0.8389
   31SAPC   H3R 4134   4.324   3.846   7.343  4.4613  2.3893  1.7343
   31SAPC   H3S 4135   4.168   3.914   7.283  0.1307  1.3009  0.8316
   31SAPC   C24 4136   4.275   4.058   7.406 -0.3119  0.7791  0.3383
   31SAPC   H4R 4137   4.194   4.128   7.377  1.1210  2.1539 -0.4843
   31SAPC   H4S 4138   4.369   4.116   7.397 -0.1294  0.3177 -0.8453
   31SAPC   C25 4139   4.259   4.011   7.547  0.8444 -0.1272 -0.7998
   31SAPC   H5R 4140   4.162   3.963   7.568  1.2507 -0.5773  0.1031
   31SAPC   C26 4141   4.359   3.993   7.637  0.8859  0.2213  0.2249
   31SAPC   H6R 4142   4.329   3.947   7.733  0.2324  1.2427  0.5230
   31SAPC   C27 4143   4.502   4.020   7.609 -0.1043 -0.0775  0.2156
   31SAPC   H7R 4144   4.512   4.010   7.499  2.5335 -2.5228  0.5496
   31SAPC   H7S 4145   4.575   3.944   7.644  0.7067  0.5379 -0.0998
   31SAPC   C28 4146   4.549   4.154   7.662  0.6339  0.1361  0.5807
   31SAPC   H8R 4147   4.551   4.237   7.590 -1.5042 -0.8105 -0.6553
   31SAPC   C29 4148   4.577   4.175   7.790  0.2025  0.0721 -0.0346
   31SAPC   H9R 4149   4.603   4.275   7.827 -0.5961  0.7150 -1.1464
   31SAPC  C210 4150   4.565   4.074   7.910 -0.1651  0.0122 -0.1470
   31SAPC  H10R 4151   4.617   4.104   8.003 -1.9448 -1.8183  1.5367
   31SAPC  H10S 4152   4.609   3.975   7.886 -2.4939 -0.7585 -1.6283
   31SAPC  C211 4153   4.428   4.060   7.971 -0.7951 -0.0165 -0.2589
   31SAPC  H11R 4154   4.390   3.966   7.929  2.5422 -1.9086  0.5657
   31SAPC  C212 4155   4.366   4.147   8.054  0.6530  0.4880 -0.0739
   31SAPC  H12R 4156   4.269   4.121   8.098  0.6487  0.1516 -0.2817
   31SAPC  C213 4157   4.418   4.278   8.092 -0.0370 -0.3599  0.5876
   31SAPC  H13R 4158   4.445   4.338   8.003 -1.4604  1.3039  1.2076
   31SAPC  H13S 4159   4.507   4.275   8.159 -0.1662 -2.6536  0.7314
   31SAPC  C214 4160   4.316   4.366   8.153 -0.4956  1.0981 -0.0216
   31SAPC  H14R 4161   4.276   4.431   8.073 -0.1401  0.5176 -0.6816
   31SAPC  C215 4162   4.257   4.368   8.277 -0.4300  0.4922 -0.4419
   31SAPC  H15R 4163   4.183   4.444   8.304  1.8222  2.7299 -0.1552
   31SAPC  C216 4164   4.295   4.278   8.394 -0.5412  0.3660 -0.3331
   31SAPC  H16R 4165   4.387   4.218   8.377 -1.8256 -1.4818 -1.0280
   31SAPC  H16S 4166   4.215   4.201   8.400  0.2784 -0.5403 -0.7447
   31SAPC  C217 4167   4.299   4.361   8.522 -0.4045  0.3936  0.1327
   31SAPC  H17R 4168   4.194   4.390   8.547 -0.6927  0.4596 -1.0905
   31SAPC  H17S 4169   4.352   4.458   8.516 -0.8829  0.6266 -0.4298
   31SAPC  C218 4170   4.352   4.264   8.634  0.1757  0.1216  0.4238
   31SAPC  H18R 4171   4.433   4.204   8.588 -0.7621 -2.3593  1.7956
   31SAPC  H18S 4172   4.275   4.192   8.670  0.8103 -0.6334  0.2942
   31SAPC  C219 4173   4.412   4.340   8.752 -0.1671 -0.2342  0.0528
   31SAPC  H19R 4174   4.499   4.404   8.725  0.1216 -1.1391 -1.2423
   31SAPC  H19S 4175   4.446   4.268   8.828 -0.4619 -1.1003 -0.6136
   31SAPC  C220 4176   4.303   4.436   8.819 -0.0925 -0.5463  0.1075
   31SAPC  H20R 4177   4.356   4.481   8.906  2.0069 -1.5300 -0.5969
   31SAPC  H20S 4178   4.218   4.373   8.855  0.0163 -0.0857  1.1932
   31SAPC  H20T 4179   4.269   4.517   8.751 -0.7287 -1.5608 -0.8276
   31SAPC   C33 4180   4.267   4.456   7.327  0.9620  0.2124 -0.6348
   31SAPC   H3X 4181   4.231   4.354   7.302  0.1323  0.1810  0.5841
   31SAPC   H3Y 4182   4.225   4.526   7.252 -0.8237 -2.1087 -1.9190
   31SAPC   C34 4183   4.190   4.495   7.455 -0.1420  0.2919 -0.2384
   31SAPC   H4X 4184   4.087   4.479   7.417  0.1141 -0.9288 -0.4687
   31SAPC   H4Y 4185   4.199   4.602   7.482 -1.8160  1.7171 -4.4676
   31SAPC   C35 4186   4.196   4.399   7.575  0.0934 -0.2884  0.2215
   31SAPC   H5X 4187   4.289   4.410   7.634 -0.0599 -0.0492  0.4216
   31SAPC   H5Y 4188   4.204   4.296   7.533 -2.3716 -1.1749  1.7093
   31SAPC   C36 4189   4.071   4.394   7.668 -0.7578 -0.3186 -0.8917
   31SAPC   H6X 4190   3.990   4.356   7.602 -0.3144  1.8935 -2.8365
   31SAPC   H6Y 4191   4.042   4.495   7.704 -0.9977 -1.2698  1.8553
   31SAPC   C37 4192   4.098   4.310   7.791 -0.0534  0.1970  0.1585
   31SAPC   H7X 4193   4.183   4.352   7.849  0.5273  0.7029 -1.0229
   31SAPC   H7Y 4194   4.109   4.205   7.755 -2.1557  0.0698 -0.2626
   31SAPC   C38 4195   3.969   4.312   7.881 -0.5741 -0.4487  0.2068
   31SAPC   H8X 4196   3.879   4.289   7.820 -1.3419 -2.1643  1.8757
   31SAPC   H8Y 4197   3.961   4.419   7.908 -1.5184 -0.8266  1.5578
   31SAPC   C39 4198   3.979   4.227   8.004 -0.2501 -0.3423  0.1337
   31SAPC   H9X 4199   4.082   4.229   8.044 -1.1391  0.8058  2.5895
   31SAPC   H9Y 4200   3.950   4.127   7.966 -2.8359  0.8482 -1.3865
   31SAPC  C310 4201   3.896   4.268   8.118  0.5370 -0.7633 -1.2345
   31SAPC  H10X 4202   3.789   4.260   8.089  0.8521 -1.9099 -2.1364
   31SAPC  H10Y 4203   3.919   4.375   8.140 -0.5407 -0.8257  0.3451
   31SAPC  C311 4204   3.919   4.193   8.252  0.2673 -0.8642 -0.0013
   31SAPC  H11X 4205   4.027   4.172   8.264  0.0043 -1.1303  2.3378
   31SAPC  H11Y 4206   3.878   4.090   8.245  1.5847 -1.4084  0.0926
   31SAPC  C312 4207   3.863   4.273   8.363  0.3328  0.0640  0.2785
   31SAPC  H12X 4208   3.752   4.274   8.357  0.3706  1.6972 -0.7952
   31SAPC  H12Y 4209   3.896   4.379   8.360 -2.8218  1.2013  1.6470
   31SAPC  C313 4210   3.901   4.229   8.502 -0.3234  0.5636 -0.2625
   31SAPC  H13X 4211   4.010   4.241   8.514 -0.2061 -0.2372 -0.4985
   31SAPC  H13Y 4212   3.872   4.124   8.523  1.1043 -0.0887 -1.3904
   31SAPC  C314 4213   3.817   4.304   8.608  0.1016 -0.5084  0.2368
   31SAPC  H14X 4214   3.712   4.273   8.587 -0.5263  0.3077  1.9713
   31SAPC  H14Y 4215   3.823   4.413   8.588  1.2365 -0.8396 -1.3783
   31SAPC  C315 4216   3.838   4.265   8.759 -0.3322 -0.7728 -0.2687
   31SAPC  H15X 4217   3.877   4.352   8.815 -0.6975 -0.7987  0.0321
   31SAPC  H15Y 4218   3.913   4.186   8.781  1.4611  1.5614  2.7310
   31SAPC  C316 4219   3.696   4.236   8.820 -0.1480 -0.3504 -0.5654
   31SAPC  H16X 4220   3.645   4.142   8.791 -1.4872  0.7966 -2.1055
   31SAPC  H16Y 4221   3.634   4.325   8.794  1.5150  0.3818 -2.1720
   31SAPC  C317 4222   3.704   4.252   8.976 -0.2303 -0.0440  0.3444
   31SAPC  H17X 4223   3.722   4.360   8.997 -1.9538  0.5397 -0.9713
   31SAPC  H17Y 4224   3.792   4.200   9.020  0.7781  0.6092 -0.8520
   31SAPC  C318 4225   3.576   4.212   9.040 -0.1744 -0.4854 -0.3633
   31SAPC  H18X 4226   3.536   4.118   8.996  2.9051 -1.9040 -0.3669
   31SAPC  H18Y 4227   3.508   4.298   9.021 -0.3274 -0.3243  0.8166
   31SAPC  H18Z 4228   3.574   4.225   9.151  0.7888  1.2442 -0.5199
   32SAPC     N 4229   6.337   6.046   6.308 -0.1848 -0.7430  0.1849
   32SAPC   C12 4230   6.234   6.103   6.402 -0.2877 -0.7425  0.2919
   32SAPC  H12A 4231   6.135   6.105   6.358 -0.7653 -1.3677  1.2796
   32SAPC  H12B 4232   6.247   6.208   6.421 -2.2701 -0.6583  1.5015
   32SAPC   C13 4233   6.295   5.909   6.279  0.5840  0.3574 -0.3467
   32SAPC  H13A 4234   6.205   5.904   6.221  0.0756 -3.0747  0.5200
   32SAPC  H13B 4235   6.373   5.848   6.236  0.5296  0.2740 -0.3279
   32SAPC  H13C 4236   6.258   5.862   6.369 -1.2029  1.6636 -0.3563
   32SAPC   C14 4237   6.343   6.120   6.182  0.4854  0.1925  0.1756
   32SAPC  H14A 4238   6.395   6.214   6.190 -1.1581  1.0066  2.7265
   32SAPC  H14B 4239   6.400   6.059   6.114  1.5871 -3.4358  3.9425
   32SAPC  H14C 4240   6.246   6.143   6.138  0.3186 -1.8122 -0.5982
   32SAPC   C15 4241   6.470   6.031   6.374 -0.2492  0.4582 -0.4041
   32SAPC  H15A 4242   6.471   5.953   6.449  2.3700 -0.5887 -1.3865
   32SAPC  H15B 4243   6.541   5.991   6.303 -0.3157  0.4601 -0.4719
   32SAPC  H15C 4244   6.510   6.117   6.426 -0.3755  2.0607 -2.7875
   32SAPC   C11 4245   6.216   6.031   6.540 -0.1680 -0.1402 -0.9626
   32SAPC  H11A 4246   6.170   6.106   6.607 -2.1781 -0.1972 -2.1988
   32SAPC  H11B 4247   6.316   6.013   6.584 -0.5384  0.6792  0.2741
   32SAPC     P 4248   5.984   5.917   6.510 -0.1763  0.0591 -0.3878
   32SAPC   O13 4249   5.946   6.045   6.451 -0.3472 -0.1100  0.4064
   32SAPC   O14 4250   5.938   5.794   6.441 -0.3329  0.2807  0.0191
   32SAPC   O12 4251   6.142   5.909   6.530  0.1854 -0.0458  0.5691
   32SAPC   O11 4252   5.930   5.926   6.655 -0.4454 -0.7480  0.4046
   32SAPC    C1 4253   5.980   5.842   6.751 -0.4786  0.4357 -0.4953
   32SAPC    HA 4254   6.020   5.747   6.708 -0.5964  0.7292 -1.2645
   32SAPC    HB 4255   6.065   5.900   6.793 -0.1242  0.9297 -1.8526
   32SAPC    C2 4256   5.869   5.802   6.856  0.6544  0.1132  0.6116
   32SAPC    HS 4257   5.818   5.888   6.904 -0.1187 -1.3253  2.4834
   32SAPC   O21 4258   5.925   5.715   6.954 -0.3038 -0.1405 -0.6248
   32SAPC   C21 4259   5.889   5.732   7.078  0.4822 -0.5469 -0.3105
   32SAPC   O22 4260   5.807   5.815   7.116  0.2715  0.8975 -0.4861
   32SAPC   C22 4261   5.957   5.628   7.160 -0.6477 -0.0828 -0.1292
   32SAPC   H2R 4262   5.949   5.531   7.106  0.5544 -0.6963  0.7452
   32SAPC   H2S 4263   6.065   5.653   7.158 -0.4209 -1.0573 -0.4887
   32SAPC    C3 4264   5.760   5.728   6.773  0.3144  0.4004 -0.4475
   32SAPC    HX 4265   5.818   5.674   6.695  1.7585 -0.1418  0.9382
   32SAPC    HY 4266   5.691   5.803   6.729  0.2152  0.4457 -0.2184
   32SAPC   O31 4267   5.698   5.632   6.860  0.0513  0.1850 -0.2013
   32SAPC   C31 4268   5.637   5.538   6.788 -0.3921  0.4378  0.2400
   32SAPC   O32 4269   5.628   5.545   6.667  0.1407  0.1920  0.1236
   32SAPC   C32 4270   5.575   5.431   6.881 -0.6327 -0.5657  0.1845
   32SAPC   H2X 4271   5.588   5.330   6.835  1.3310  0.2171 -1.0922
   32SAPC   H2Y 4272   5.464   5.437   6.885 -0.5497  1.5207  0.3828
   32SAPC   C23 4273   5.904   5.619   7.307 -0.3355 -0.8329  0.8862
   32SAPC   H3R 4274   5.795   5.607   7.292 -0.2810  1.0396 -1.9397
   32SAPC   H3S 4275   5.924   5.709   7.369 -1.4905  1.4699 -1.8457
   32SAPC   C24 4276   5.956   5.496   7.385  0.2378 -0.0584 -0.1733
   32SAPC   H4R 4277   5.922   5.403   7.333 -1.1169 -0.4405  1.3094
   32SAPC   H4S 4278   5.903   5.495   7.483  0.5351 -2.0252  0.0060
   32SAPC   C25 4279   6.100   5.482   7.416  0.1432 -0.0853  1.1593
   32SAPC   H5R 4280   6.166   5.441   7.338 -1.8428 -1.5601  0.1552
   32SAPC   C26 4281   6.162   5.513   7.528 -0.6768 -0.2537 -0.6514
   32SAPC   H6R 4282   6.271   5.503   7.536 -0.6933 -0.0689 -0.1642
   32SAPC   C27 4283   6.098   5.568   7.652  0.1148  0.4210 -0.5717
   32SAPC   H7R 4284   6.049   5.482   7.701 -0.3580  0.3972 -1.0714
   32SAPC   H7S 4285   6.014   5.633   7.618  0.2811  0.1481 -1.5419
   32SAPC   C28 4286   6.190   5.645   7.743  0.2880  0.1723  0.1882
   32SAPC   H8R 4287   6.187   5.752   7.720 -1.3567 -0.0679 -0.8407
   32SAPC   C29 4288   6.274   5.605   7.848  0.0603  0.1510  0.5517
   32SAPC   H9R 4289   6.334   5.674   7.908 -0.3381  0.5742  0.4751
   32SAPC  C210 4290   6.294   5.461   7.885 -0.3092 -0.3767  0.3953
   32SAPC  H10R 4291   6.399   5.430   7.907 -1.0506 -3.1097  0.4326
   32SAPC  H10S 4292   6.265   5.399   7.798 -0.2132 -1.2973  0.9948
   32SAPC  C211 4293   6.209   5.402   7.999  0.1443 -0.7989 -0.7791
   32SAPC  H11R 4294   6.155   5.314   7.960 -0.4416 -1.0122  0.4682
   32SAPC  C212 4295   6.215   5.418   8.132 -0.9922  0.2852  0.2983
   32SAPC  H12R 4296   6.131   5.380   8.193 -0.2151  1.1770  1.9949
   32SAPC  C213 4297   6.308   5.513   8.204 -0.3539  0.4674  0.0429
   32SAPC  H13R 4298   6.402   5.518   8.146 -2.6263 -1.3242 -4.2685
   32SAPC  H13S 4299   6.322   5.463   8.302 -2.2922 -1.2700 -0.4994
   32SAPC  C214 4300   6.244   5.652   8.224  0.0672 -0.1334  0.0287
   32SAPC  H14R 4301   6.155   5.680   8.166  0.4907  1.4647  0.1220
   32SAPC  C215 4302   6.299   5.747   8.308 -0.3765  0.6145  0.2999
   32SAPC  H15R 4303   6.255   5.848   8.302 -1.4574  0.1891  0.7614
   32SAPC  C216 4304   6.418   5.740   8.402 -0.2393 -0.1547  0.0584
   32SAPC  H16R 4305   6.500   5.807   8.368 -0.2090 -0.1317  0.1756
   32SAPC  H16S 4306   6.474   5.645   8.415  1.7182  0.9889  0.3337
   32SAPC  C217 4307   6.363   5.785   8.540 -0.0611 -0.2414  0.1600
   32SAPC  H17R 4308   6.301   5.877   8.544  0.1553 -0.1381  1.2187
   32SAPC  H17S 4309   6.451   5.806   8.603  0.4717  0.0618 -0.6637
   32SAPC  C218 4310   6.272   5.673   8.605 -0.1640  0.0614 -0.1981
   32SAPC  H18R 4311   6.330   5.578   8.602 -0.6439 -0.2191 -1.3536
   32SAPC  H18S 4312   6.181   5.663   8.543  0.2699  0.0938 -0.8589
   32SAPC  C219 4313   6.234   5.706   8.754  0.9568  0.6986 -0.0252
   32SAPC  H19R 4314   6.171   5.622   8.791  1.3602 -0.3208 -1.5413
   32SAPC  H19S 4315   6.165   5.793   8.754 -2.3213 -1.6871 -0.6729
   32SAPC  C220 4316   6.348   5.719   8.852  0.1120  0.2716 -0.0854
   32SAPC  H20R 4317   6.434   5.656   8.821  0.3603  1.6385 -2.4447
   32SAPC  H20S 4318   6.311   5.693   8.953  3.0418  3.3122  1.9825
   32SAPC  H20T 4319   6.392   5.820   8.867 -1.9879  0.9593  2.1254
   32SAPC   C33 4320   5.636   5.432   7.018  0.3842  0.4106  0.5119
   32SAPC   H3X 4321   5.579   5.495   7.090  0.5661  0.2064  0.8351
   32SAPC   H3Y 4322   5.745   5.448   7.030  0.5060  1.9557 -2.0382
   32SAPC   C34 4323   5.619   5.286   7.083  0.8309 -0.1868  0.5566
   32SAPC   H4X 4324   5.691   5.212   7.042  0.7334  0.3102 -0.5482
   32SAPC   H4Y 4325   5.513   5.257   7.067  1.0727  0.0938 -1.9307
   32SAPC   C35 4326   5.635   5.293   7.235  0.3450 -0.0425  0.4672
   32SAPC   H5X 4327   5.543   5.332   7.283  0.6545  0.4645  0.6693
   32SAPC   H5Y 4328   5.714   5.371   7.247  0.4232  0.3757 -2.2080
   32SAPC   C36 4329   5.673   5.162   7.306  0.4102  0.3030  0.1030
   32SAPC   H6X 4330   5.752   5.116   7.244  0.2923 -0.7500  0.7152
   32SAPC   H6Y 4331   5.578   5.105   7.302 -0.6395  1.9595  0.0226
   32SAPC   C37 4332   5.707   5.187   7.457 -0.7062  0.8208 -0.5583
   32SAPC   H7X 4333   5.627   5.246   7.507  1.6524  2.4389  1.5354
   32SAPC   H7Y 4334   5.788   5.262   7.471 -0.7965  0.3948  3.2609
   32SAPC   C38 4335   5.737   5.058   7.533 -0.4496 -0.7301  0.2990
   32SAPC   H8X 4336   5.787   4.984   7.466  0.3514 -0.8832  1.0503
   32SAPC   H8Y 4337   5.635   5.030   7.566 -0.8742  1.9601  1.4935
   32SAPC   C39 4338   5.821   5.079   7.655  0.0399  0.3771 -0.4047
   32SAPC   H9X 4339   5.912   5.140   7.637  0.3524  0.0952  0.1880
   32SAPC   H9Y 4340   5.837   4.975   7.689 -0.0160  0.3944 -0.3255
   32SAPC  C310 4341   5.736   5.132   7.766 -0.8565  0.3866  0.6139
   32SAPC  H10X 4342   5.645   5.069   7.767  0.5120 -1.8498 -1.8982
   32SAPC  H10Y 4343   5.717   5.239   7.742  0.5535  0.8917  1.6097
   32SAPC  C311 4344   5.815   5.128   7.895  0.5146 -0.5015  0.0368
   32SAPC  H11X 4345   5.907   5.187   7.879  0.3906  1.1742  4.1033
   32SAPC  H11Y 4346   5.851   5.025   7.914  2.0297  0.1252  0.7567
   32SAPC  C312 4347   5.736   5.176   8.016 -0.1507  0.1818  0.0295
   32SAPC  H12X 4348   5.659   5.105   8.051 -1.0405  0.2641 -1.6618
   32SAPC  H12Y 4349   5.684   5.273   7.997  1.2479  0.5490 -2.3009
   32SAPC  C313 4350   5.840   5.207   8.126  0.1120  0.0284 -0.7061
   32SAPC  H13X 4351   5.903   5.294   8.099  1.3648 -0.6813 -0.2058
   32SAPC  H13Y 4352   5.914   5.123   8.133  0.0563  0.0640  0.5384
   32SAPC  C314 4353   5.770   5.230   8.264 -0.2149  1.4695  0.2442
   32SAPC  H14X 4354   5.709   5.140   8.288  0.8927  0.5767 -0.1868
   32SAPC  H14Y 4355   5.693   5.307   8.243 -0.7489  1.6608  2.5844
   32SAPC  C315 4356   5.856   5.273   8.377  0.2611  0.5078  0.3694
   32SAPC  H15X 4357   5.787   5.299   8.460 -3.0972 -2.4734 -1.1810
   32SAPC  H15Y 4358   5.911   5.365   8.352  0.8182  0.2787  0.7311
   32SAPC  C316 4359   5.950   5.162   8.433  0.1044 -0.7079 -0.0621
   32SAPC  H16X 4360   6.034   5.132   8.368  1.9533 -0.6743  2.1597
   32SAPC  H16Y 4361   5.879   5.079   8.454 -1.1667  0.0686 -1.1053
   32SAPC  C317 4362   6.023   5.221   8.560 -0.7364 -0.8543  0.0542
   32SAPC  H17X 4363   6.088   5.144   8.605 -0.2355 -1.0560 -0.9886
   32SAPC  H17Y 4364   5.942   5.246   8.633 -0.0216  2.3604 -0.1010
   32SAPC  C318 4365   6.098   5.360   8.537  0.9984 -0.3338 -0.3862
   32SAPC  H18X 4366   6.143   5.358   8.436  0.3009 -1.1930 -0.6933
   32SAPC  H18Y 4367   6.156   5.395   8.625 -1.1636  2.3004  0.1461
   32SAPC  H18Z 4368   6.015   5.432   8.522  0.5701 -0.8899 -0.7375
   33POPC     N 4369   0.332   1.689  10.966  0.0905  0.7799  0.4143
   33POPC   C12 4370   0.224   1.579  10.956 -0.5642 -0.9576 -0.0460
   33POPC  H12A 4371   0.129   1.624  10.982 -0.1337 -1.1743  2.0084
   33POPC  H12B 4372   0.242   1.505  11.033 -1.7879 -0.4505  0.7654
   33POPC   C13 4373   0.340   1.756  11.101  0.6999  0.3153 -0.4359
   33POPC  H13A 4374   0.357   1.684  11.180  0.5007  0.0281 -0.6540
   33POPC  H13B 4375   0.425   1.823  11.101  1.6845 -0.8465 -2.3521
   33POPC  H13C 4376   0.248   1.808  11.126  0.4323 -0.3231 -0.0723
   33POPC   C14 4377   0.470   1.641  10.930  0.5785 -0.1779  0.4528
   33POPC  H14A 4378   0.531   1.730  10.925 -2.7393  2.2849  0.7230
   33POPC  H14B 4379   0.505   1.570  11.004  6.1594  1.0813 -0.4852
   33POPC  H14C 4380   0.462   1.602  10.830 -1.1193  1.3860 -0.0610
   33POPC   C15 4381   0.282   1.795  10.879 -0.4336 -0.6222 -0.2774
   33POPC  H15A 4382   0.281   1.770  10.774  1.1724  0.7059 -0.6556
   33POPC  H15B 4383   0.332   1.891  10.889 -0.5304 -0.4456 -1.3961
   33POPC  H15C 4384   0.180   1.819  10.905 -0.6917  0.7037 -2.2910
   33POPC   C11 4385   0.204   1.508  10.818 -0.2603 -1.1413  0.3303
   33POPC  H11A 4386   0.203   1.588  10.741 -0.5347 -1.5139 -0.0538
   33POPC  H11B 4387   0.108   1.451  10.816  0.0841 -1.6978 -0.9592
   33POPC     P 4388   0.336   1.282  10.874  0.1400 -0.3921 -0.2518
   33POPC   O13 4389   0.309   1.306  11.018 -0.2776  0.0261 -0.0113
   33POPC   O14 4390   0.472   1.233  10.832 -0.0547  0.1244  0.5856
   33POPC   O12 4391   0.312   1.416  10.797 -0.2920  0.3545  0.0013
   33POPC   O11 4392   0.227   1.185  10.810 -0.5451  0.4660  0.6250
   33POPC    C1 4393   0.257   1.105  10.697 -0.2830 -0.7990 -0.3832
   33POPC    HA 4394   0.357   1.058  10.710 -0.3013 -0.8104 -0.2773
   33POPC    HB 4395   0.189   1.019  10.711  1.2951 -2.1292 -0.6200
   33POPC    C2 4396   0.231   1.183  10.565  0.2760 -0.4654 -0.8188
   33POPC    HS 4397   0.315   1.253  10.546 -0.9004  1.8467  1.7090
   33POPC   O21 4398   0.112   1.263  10.570 -0.3422 -0.4162 -0.7561
   33POPC   C21 4399   0.109   1.374  10.498 -0.2914  0.2759 -0.1262
   33POPC   O22 4400   0.207   1.440  10.461 -0.5910  0.0650 -0.1010
   33POPC   C22 4401  -0.038   1.426  10.483  0.7621 -1.0873 -1.1556
   33POPC   H2R 4402  -0.061   1.487  10.573  0.7491  1.5411 -2.8631
   33POPC   H2S 4403  -0.117   1.348  10.477  1.5887 -2.0692  0.1455
   33POPC    C3 4404   0.220   1.086  10.444 -0.3303  0.5851  0.2441
   33POPC    HX 4405   0.113   1.059  10.433 -0.0287 -0.0845 -1.2838
   33POPC    HY 4406   0.265   0.986  10.462 -0.4145  0.4798 -0.1274
   33POPC   O31 4407   0.272   1.147  10.321  0.5186 -0.0541 -0.2037
   33POPC   C31 4408   0.407   1.162  10.311 -0.7109 -0.0624 -0.4448
   33POPC   O32 4409   0.486   1.149  10.405 -0.9257 -0.1325  0.2757
   33POPC   C32 4410   0.440   1.211  10.168  0.1319 -0.1603 -0.1646
   33POPC   H2X 4411   0.548   1.233  10.151 -0.5835  1.7154 -2.8803
   33POPC   H2Y 4412   0.395   1.312  10.159 -0.3561 -0.1462  1.9249
   33POPC   C23 4413  -0.052   1.508  10.355  0.0110  0.2823 -0.4046
   33POPC   H3R 4414  -0.035   1.452  10.260 -2.3132  2.4444 -2.2539
   33POPC   H3S 4415   0.033   1.579  10.349  1.3829 -1.3200 -0.7646
   33POPC   C24 4416  -0.175   1.603  10.346 -0.6241  0.1349  0.4258
   33POPC   H4R 4417  -0.165   1.685  10.420 -0.5731  0.3272  0.2091
   33POPC   H4S 4418  -0.270   1.548  10.361 -1.3937  1.2097 -0.3955
   33POPC   C25 4419  -0.192   1.677  10.206 -0.7993  0.2510 -0.0352
   33POPC   H5R 4420  -0.108   1.750  10.199 -1.1886  0.5991 -1.2130
   33POPC   H5S 4421  -0.288   1.731  10.200 -0.9665  0.5130  3.2611
   33POPC   C26 4422  -0.177   1.580  10.082  0.4563 -0.2160  0.0324
   33POPC   H6R 4423  -0.222   1.489  10.127 -1.5310  1.3649  1.4046
   33POPC   H6S 4424  -0.066   1.573  10.071  0.2880 -1.5467 -1.0445
   33POPC   C27 4425  -0.251   1.634   9.963 -0.1618  0.6927 -0.5777
   33POPC   H7R 4426  -0.351   1.667   9.999 -0.3472  0.2738 -0.7054
   33POPC   H7S 4427  -0.268   1.562   9.880  2.0698 -1.4885  0.7288
   33POPC   C28 4428  -0.199   1.768   9.908 -0.5265 -0.1618 -0.5148
   33POPC   H8R 4429  -0.091   1.746   9.892 -1.1817 -3.9317 -0.5394
   33POPC   H8S 4430  -0.203   1.847   9.986  0.7659 -0.0537 -0.5265
   33POPC   C29 4431  -0.259   1.818   9.768  0.4012 -0.8083  0.3567
   33POPC   H91 4432  -0.315   1.913   9.771 -0.6242 -1.3234 -1.1967
   33POPC  C210 4433  -0.242   1.759   9.644 -0.2005 -0.4085  0.4000
   33POPC  H101 4434  -0.280   1.809   9.553 -0.9882  2.7023  2.2844
   33POPC  C211 4435  -0.148   1.646   9.622 -0.0071  0.1753 -0.0509
   33POPC  H11R 4436  -0.109   1.613   9.720 -0.8168 -1.1890 -0.1628
   33POPC  H11S 4437  -0.068   1.696   9.563  0.5719 -0.7133 -0.0283
   33POPC  C212 4438  -0.211   1.540   9.538  0.3836  0.2170  0.3587
   33POPC  H12R 4439  -0.191   1.563   9.431 -0.1598 -1.3167 -0.0925
   33POPC  H12S 4440  -0.321   1.538   9.546  0.1855  0.3278 -1.7457
   33POPC  C213 4441  -0.147   1.403   9.567 -0.2486 -0.2846 -0.2467
   33POPC  H13R 4442  -0.042   1.397   9.529  0.0859 -0.0371  0.6012
   33POPC  H13S 4443  -0.207   1.331   9.507 -2.0799  1.5374 -0.6969
   33POPC  C214 4444  -0.154   1.362   9.717  0.4423 -0.7369 -0.1269
   33POPC  H14R 4445  -0.261   1.365   9.749 -0.3886 -1.3804 -2.6145
   33POPC  H14S 4446  -0.094   1.438   9.770  0.4783  0.6007 -1.9777
   33POPC  C215 4447  -0.094   1.226   9.762 -0.2847 -0.0495  0.2089
   33POPC  H15R 4448   0.005   1.216   9.712 -1.4682  0.6060 -2.4743
   33POPC  H15S 4449  -0.137   1.136   9.711  1.9006 -0.1645 -1.5768
   33POPC  C216 4450  -0.081   1.206   9.913 -0.0346  0.0112  0.1590
   33POPC  H16R 4451  -0.186   1.215   9.947  0.2073 -0.6126  1.1089
   33POPC  H16S 4452  -0.025   1.290   9.959  2.1549 -0.8509 -0.7910
   33POPC  C217 4453  -0.039   1.067   9.957  0.8052 -0.4992 -0.1634
   33POPC  H17R 4454   0.059   1.043   9.910  0.2576 -1.2743 -0.9591
   33POPC  H17S 4455  -0.114   0.994   9.920  1.7567 -1.1014 -0.9482
   33POPC  C218 4456  -0.011   1.045  10.105 -0.1695  0.4669  0.2755
   33POPC  H18R 4457   0.060   1.117  10.151 -1.8407  3.1237 -1.0440
   33POPC  H18S 4458   0.028   0.941  10.115 -0.2416  0.4557  0.4390
   33POPC  H18T 4459  -0.104   1.054  10.164 -0.9967  2.7297 -1.2664
   33POPC   C33 4460   0.397   1.127  10.051  0.1355  0.4885  0.1192
   33POPC   H3X 4461   0.287   1.131  10.037 -0.3073  0.0497  2.8668
   33POPC   H3Y 4462   0.432   1.024  10.074  3.4126  1.5847  0.6515
   33POPC   C34 4463   0.455   1.167   9.919  0.0621  0.3368 -0.2512
   33POPC   H4X 4464   0.561   1.133   9.920  0.2075  0.7663  1.2507
   33POPC   H4Y 4465   0.451   1.274   9.889  0.7985  0.0583 -1.4398
   33POPC   C35 4466   0.402   1.086   9.796 -0.1268  0.6401  0.3817
   33POPC   H5X 4467   0.379   0.987   9.842 -0.4517  0.3548 -0.3808
   33POPC   H5Y 4468   0.484   1.071   9.723 -0.5974  3.2332 -0.7778
   33POPC   C36 4469   0.285   1.155   9.728  0.3032 -0.0984 -0.1594
   33POPC   H6X 4470   0.323   1.259   9.719 -0.4182  0.2377  0.5084
   33POPC   H6Y 4471   0.202   1.125   9.796  0.6038 -1.9834 -0.5761
   33POPC   C37 4472   0.246   1.094   9.592 -0.9237 -0.1237 -0.3193
   33POPC   H7X 4473   0.145   1.049   9.594 -1.0944  0.1980 -1.3001
   33POPC   H7Y 4474   0.314   1.013   9.561 -1.2575 -0.8611  0.7971
   33POPC   C38 4475   0.245   1.189   9.471 -0.8648  0.8729  0.1570
   33POPC   H8X 4476   0.347   1.234   9.469  0.4843 -1.9599 -2.1897
   33POPC   H8Y 4477   0.180   1.279   9.483  1.9577  2.8994  1.2643
   33POPC   C39 4478   0.206   1.110   9.339 -0.2041  0.7718  0.2978
   33POPC   H9X 4479   0.101   1.077   9.350 -0.6217  1.3323 -1.5886
   33POPC   H9Y 4480   0.273   1.021   9.332  0.9266  1.5372  1.1072
   33POPC  C310 4481   0.225   1.188   9.209  0.2102 -0.4195  0.2934
   33POPC  H10X 4482   0.211   1.109   9.133  0.9382  0.5200 -0.8528
   33POPC  H10Y 4483   0.331   1.217   9.191  0.3078 -0.0247  1.4315
   33POPC  C311 4484   0.127   1.300   9.172 -0.2066  0.1479  0.0082
   33POPC  H11X 4485   0.134   1.383   9.245  2.3333  0.2661 -0.2796
   33POPC  H11Y 4486   0.027   1.252   9.166  1.2641 -3.2246 -0.0370
   33POPC  C312 4487   0.148   1.370   9.031  0.7321  0.4564 -0.6099
   33POPC  H12X 4488   0.124   1.287   8.962  2.5867  1.2007 -2.2567
   33POPC  H12Y 4489   0.258   1.386   9.026  0.4517  2.3796 -1.2583
   33POPC  C313 4490   0.069   1.496   9.026 -0.1995  0.7389  0.5647
   33POPC  H13X 4491   0.088   1.543   8.926 -0.3107  2.4982  1.3251
   33POPC  H13Y 4492   0.120   1.560   9.101  0.2567 -0.5061  1.3297
   33POPC  C314 4493  -0.083   1.499   9.054 -0.1592  0.1854 -0.1523
   33POPC  H14X 4494  -0.107   1.451   9.151  0.8362  0.6988  0.3716
   33POPC  H14Y 4495  -0.132   1.437   8.976 -0.5717 -0.5947  0.7133
   33POPC  C315 4496  -0.139   1.642   9.055  0.1255 -0.1791 -0.5294
   33POPC  H15X 4497  -0.154   1.671   8.949 -2.1309 -2.0884 -0.8241
   33POPC  H15Y 4498  -0.059   1.710   9.093  2.4830 -2.5032 -0.9766
   33POPC  C316 4499  -0.274   1.665   9.134  0.4669 -0.0236  0.5371
   33POPC  H16X 4500  -0.303   1.772   9.129  0.9689  0.1588  1.3957
   33POPC  H16Y 4501  -0.269   1.634   9.240 -2.8843  1.1938  1.1906
   33POPC  H16Z 4502  -0.346   1.596   9.085 -0.1979  0.7542  0.3891
   34POPC     N 4503   0.446   3.171  10.776  0.2697  0.3567 -0.5592
   34POPC   C12 4504   0.571   3.249  10.728 -0.3831 -0.2156 -0.1610
   34POPC  H12A 4505   0.546   3.316  10.648  1.7624 -0.9697 -1.5580
   34POPC  H12B 4506   0.642   3.181  10.684 -0.5383  0.7953 -2.0710
   34POPC   C13 4507   0.384   3.119  10.654  0.1817 -0.8615 -0.4170
   34POPC  H13A 4508   0.340   3.189  10.585 -1.7139 -1.0686  0.5349
   34POPC  H13B 4509   0.450   3.059  10.592  2.2869 -0.1716  1.0255
   34POPC  H13C 4510   0.294   3.064  10.674 -1.4061  2.2830  1.9873
   34POPC   C14 4511   0.481   3.052  10.859  0.1824  0.9096  0.6076
   34POPC  H14A 4512   0.408   2.973  10.855  1.6243 -0.4747  0.7464
   34POPC  H14B 4513   0.571   3.001  10.828  0.9905  1.8488  1.3137
   34POPC  H14C 4514   0.498   3.075  10.963  0.3341 -1.4257  1.1625
   34POPC   C15 4515   0.356   3.253  10.854  0.4768  0.1015  0.0025
   34POPC  H15A 4516   0.265   3.198  10.874 -1.3532  2.4067 -1.4332
   34POPC  H15B 4517   0.325   3.345  10.807 -0.2737 -0.5119 -0.7406
   34POPC  H15C 4518   0.403   3.281  10.946 -1.4207  1.1921  0.6895
   34POPC   C11 4519   0.659   3.332  10.838 -0.0782  0.9208  0.0658
   34POPC  H11A 4520   0.593   3.413  10.875 -2.3068 -0.6012 -0.3598
   34POPC  H11B 4521   0.737   3.381  10.775 -0.4001  0.6103 -0.5876
   34POPC     P 4522   0.823   3.131  10.907 -0.1671  0.1829 -0.2634
   34POPC   O13 4523   0.770   3.007  10.964 -0.2257 -0.1622 -0.0990
   34POPC   O14 4524   0.951   3.171  10.969  0.1074 -0.0146  0.9517
   34POPC   O12 4525   0.717   3.244  10.934 -0.1256 -0.5020 -0.1656
   34POPC   O11 4526   0.852   3.123  10.752  0.0635 -0.1125  0.3815
   34POPC    C1 4527   0.932   3.019  10.693 -0.0009  0.1811  0.0066
   34POPC    HA 4528   0.976   2.942  10.760 -1.1353 -1.3127 -0.9074
   34POPC    HB 4529   1.020   3.072  10.649  0.2535 -0.3486 -0.1222
   34POPC    C2 4530   0.859   2.956  10.569 -0.9225  0.6623 -0.5125
   34POPC    HS 4531   0.942   2.921  10.503 -0.5938 -1.0877  0.7349
   34POPC   O21 4532   0.760   3.040  10.516  0.1034  0.3492  0.4313
   34POPC   C21 4533   0.805   3.147  10.446 -0.5701  0.2227 -0.3478
   34POPC   O22 4534   0.924   3.168  10.414 -0.5377 -0.0165 -0.5959
   34POPC   C22 4535   0.680   3.227  10.407 -0.5493 -0.6967 -0.4965
   34POPC   H2R 4536   0.705   3.334  10.424  0.9099 -0.7334 -2.1401
   34POPC   H2S 4537   0.596   3.191  10.470 -1.5505 -1.4259 -2.1683
   34POPC    C3 4538   0.779   2.831  10.610 -0.5884  0.2307 -0.0704
   34POPC    HX 4539   0.707   2.860  10.689 -0.2478  0.1993  0.2561
   34POPC    HY 4540   0.858   2.766  10.655 -1.4067 -0.6460  0.1261
   34POPC   O31 4541   0.722   2.773  10.497 -0.2162 -0.0215  0.4792
   34POPC   C31 4542   0.598   2.784  10.479  0.1136  0.1205 -0.7114
   34POPC   O32 4543   0.523   2.859  10.545  0.5007 -0.7102  0.6470
   34POPC   C32 4544   0.554   2.683  10.374  0.5096 -0.2863  0.5766
   34POPC   H2X 4545   0.624   2.596  10.371  2.6120  1.3507 -0.4466
   34POPC   H2Y 4546   0.572   2.734  10.277 -1.5916 -1.2747 -0.4056
   34POPC   C23 4547   0.648   3.208  10.259 -0.2464 -0.6158 -0.1113
   34POPC   H3R 4548   0.717   3.249  10.182  0.0235  3.6283  2.1117
   34POPC   H3S 4549   0.556   3.268  10.242  0.1180 -0.3071 -1.1039
   34POPC   C24 4550   0.609   3.060  10.221  0.2699 -0.6549  0.0662
   34POPC   H4R 4551   0.552   3.014  10.304 -0.3214 -1.2285 -0.6478
   34POPC   H4S 4552   0.706   3.006  10.214  0.3482 -0.4354 -0.6577
   34POPC   C25 4553   0.527   3.046  10.091 -0.0874  0.1140  0.3977
   34POPC   H5R 4554   0.433   3.104  10.105 -1.1200 -0.7145 -2.4698
   34POPC   H5S 4555   0.493   2.941  10.089 -0.7287  0.2992  1.0406
   34POPC   C26 4556   0.606   3.088   9.967  0.1750 -0.5259 -0.4830
   34POPC   H6R 4557   0.706   3.042   9.976  0.4541 -0.0927 -1.3017
   34POPC   H6S 4558   0.621   3.198   9.973 -2.7829 -0.0984  0.8611
   34POPC   C27 4559   0.523   3.050   9.847  0.6621 -0.4162  0.1900
   34POPC   H7R 4560   0.448   3.132   9.840 -1.1697 -2.1100 -1.1043
   34POPC   H7S 4561   0.479   2.949   9.857 -0.6689  0.1248  0.1497
   34POPC   C28 4562   0.602   3.070   9.714 -0.8473 -0.2771 -0.3176
   34POPC   H8R 4563   0.526   3.052   9.635 -1.4362  1.2446 -0.1287
   34POPC   H8S 4564   0.679   2.990   9.702 -1.1574 -0.5027 -0.8436
   34POPC   C29 4565   0.673   3.204   9.698  0.7051 -0.1967  0.2740
   34POPC   H91 4566   0.743   3.236   9.776  1.1205 -1.0302  0.2591
   34POPC  C210 4567   0.647   3.282   9.596 -0.6246  0.1061  0.5417
   34POPC  H101 4568   0.696   3.379   9.582 -1.5155  0.5180  0.1721
   34POPC  C211 4569   0.547   3.255   9.485 -0.5921 -0.3582  0.6208
   34POPC  H11R 4570   0.526   3.347   9.427  2.0755 -1.0785 -1.7561
   34POPC  H11S 4571   0.447   3.215   9.512 -1.7793  1.0102 -1.4630
   34POPC  C212 4572   0.604   3.157   9.377  0.4979 -0.0764  0.2219
   34POPC  H12R 4573   0.646   3.066   9.425  0.6479 -0.4792 -0.6564
   34POPC  H12S 4574   0.693   3.216   9.344  1.1419 -0.9017  0.4515
   34POPC  C213 4575   0.499   3.139   9.265 -0.0740  0.4893 -0.4785
   34POPC  H13R 4576   0.401   3.112   9.311  0.0351  0.6357 -0.1581
   34POPC  H13S 4577   0.541   3.055   9.206 -2.6317 -0.5374 -0.9578
   34POPC  C214 4578   0.477   3.258   9.170  0.7178 -0.2885 -0.4231
   34POPC  H14R 4579   0.420   3.337   9.224  1.2129  0.5089 -1.0400
   34POPC  H14S 4580   0.402   3.216   9.099 -0.3854 -0.5275  0.8438
   34POPC  C215 4581   0.607   3.313   9.110 -0.9310  0.5960 -0.5880
   34POPC  H15R 4582   0.665   3.223   9.080  1.6834  1.6697  0.8913
   34POPC  H15S 4583   0.667   3.371   9.184  0.6989 -0.9755 -0.5985
   34POPC  C216 4584   0.591   3.408   8.988 -0.7352 -0.1950  0.5796
   34POPC  H16R 4585   0.536   3.492   9.035 -1.0589 -1.2276  2.1130
   34POPC  H16S 4586   0.541   3.362   8.900 -0.5411  2.1925 -0.8836
   34POPC  C217 4587   0.721   3.458   8.936 -0.2731  0.0612  0.0130
   34POPC  H17R 4588   0.776   3.501   9.022 -1.1067  2.7682 -0.7026
   34POPC  H17S 4589   0.697   3.537   8.861  2.4022 -0.3629 -1.3975
   34POPC  C218 4590   0.804   3.358   8.861 -0.6509 -0.3515  0.0156
   34POPC  H18R 4591   0.881   3.411   8.799 -0.4083 -1.9421 -1.1078
   34POPC  H18S 4592   0.756   3.287   8.790 -1.1220 -1.7802  1.7170
   34POPC  H18T 4593   0.862   3.300   8.936 -0.5551  1.3257  1.2895
   34POPC   C33 4594   0.413   2.647  10.368  0.3978 -0.4114  0.3364
   34POPC   H3X 4595   0.343   2.728  10.340  1.3904 -0.4199 -2.5111
   34POPC   H3Y 4596   0.371   2.602  10.461 -3.5351  1.5599 -0.3037
   34POPC   C34 4597   0.382   2.544  10.258  0.3073 -0.2546  1.3808
   34POPC   H4X 4598   0.284   2.499  10.284 -0.5550  1.2711  0.9296
   34POPC   H4Y 4599   0.459   2.465  10.248  0.9505  0.3746  1.2126
   34POPC   C35 4600   0.373   2.606  10.114  0.2068 -0.2074 -0.2956
   34POPC   H5X 4601   0.453   2.683  10.106  0.5298 -0.4396  0.5986
   34POPC   H5Y 4602   0.283   2.670  10.108  1.8761  2.4107  0.7646
   34POPC   C36 4603   0.380   2.496  10.010  0.1215  0.4186  0.0365
   34POPC   H6X 4604   0.317   2.411  10.045  1.8963 -1.1404 -0.3478
   34POPC   H6Y 4605   0.486   2.468   9.987 -0.1674  0.6590 -1.7724
   34POPC   C37 4606   0.316   2.553   9.883 -0.1817  0.1347  0.0474
   34POPC   H7X 4607   0.352   2.658   9.875 -0.3799  0.1888 -0.1413
   34POPC   H7Y 4608   0.206   2.549   9.894 -0.0751  0.6029  1.5332
   34POPC   C38 4609   0.353   2.487   9.753  0.4872 -0.7994 -0.2395
   34POPC   H8X 4610   0.325   2.381   9.737  2.1591 -1.3898  0.5697
   34POPC   H8Y 4611   0.463   2.492   9.743  0.3540  0.6038 -1.4393
   34POPC   C39 4612   0.289   2.556   9.630 -0.3227  0.5732 -0.3243
   34POPC   H9X 4613   0.317   2.662   9.615 -1.6368  0.8188 -1.2053
   34POPC   H9Y 4614   0.179   2.564   9.638 -0.5305  0.0767 -2.0770
   34POPC  C310 4615   0.316   2.481   9.503 -0.5951 -0.3166  0.3013
   34POPC  H10X 4616   0.270   2.380   9.504 -4.6504  1.2989  0.1161
   34POPC  H10Y 4617   0.426   2.474   9.490 -0.4490  1.0343  0.6601
   34POPC  C311 4618   0.251   2.550   9.381 -0.8214  0.0907  0.2511
   34POPC  H11X 4619   0.285   2.656   9.374  2.2095 -0.7216  1.1740
   34POPC  H11Y 4620   0.140   2.551   9.385 -1.0847  2.3123 -3.2160
   34POPC  C312 4621   0.281   2.477   9.256 -0.4914  0.4047  0.2784
   34POPC  H12X 4622   0.227   2.382   9.238  2.0070 -1.2249  0.7591
   34POPC  H12Y 4623   0.388   2.444   9.253 -0.4707  0.5265 -0.8931
   34POPC  C313 4624   0.244   2.558   9.129 -0.6334  0.1572 -0.0633
   34POPC  H13X 4625   0.333   2.619   9.102 -1.0356  0.7938  0.0235
   34POPC  H13Y 4626   0.157   2.623   9.151 -1.1119 -0.2896 -0.5903
   34POPC  C314 4627   0.190   2.480   9.011 -0.5271 -0.2297  0.5571
   34POPC  H14X 4628   0.088   2.441   9.027 -0.7473 -0.3602 -0.9822
   34POPC  H14Y 4629   0.262   2.396   8.999 -1.0376 -0.4185 -1.6767
   34POPC  C315 4630   0.198   2.553   8.878 -0.4107 -0.0379  0.2756
   34POPC  H15X 4631   0.297   2.600   8.856 -0.0478 -0.7403  0.3977
   34POPC  H15Y 4632   0.124   2.635   8.892  0.5429  0.6129  1.7606
   34POPC  C316 4633   0.168   2.458   8.761  0.3285 -0.3593  0.0901
   34POPC  H16X 4634   0.250   2.390   8.731  0.5835 -0.3861  0.8486
   34POPC  H16Y 4635   0.144   2.533   8.682  3.6098  0.9183  0.1380
   34POPC  H16Z 4636   0.074   2.402   8.783  1.6177 -2.3515  0.7477
   35POPC     N 4637   1.092   6.609  10.995  0.2791 -0.3825 -0.1732
   35POPC   C12 4638   0.957   6.657  11.057  0.4272  0.4860  0.3455
   35POPC  H12A 4639   0.881   6.590  11.019 -1.6547  2.0072  1.6063
   35POPC  H12B 4640   0.936   6.758  11.025  0.2498 -0.3771 -2.5220
   35POPC   C13 4641   1.221   6.688  11.016  0.0968 -1.2446 -0.1180
   35POPC  H13A 4642   1.286   6.632  10.950 -0.3184 -1.5413 -0.2793
   35POPC  H13B 4643   1.217   6.788  10.975  0.9998 -1.0898  0.1512
   35POPC  H13C 4644   1.253   6.690  11.119 -1.7195  0.2567  0.4750
   35POPC   C14 4645   1.124   6.472  11.035 -0.6077  0.1475  0.0579
   35POPC  H14A 4646   1.117   6.469  11.143  2.0520  0.8936  0.3215
   35POPC  H14B 4647   1.060   6.400  10.987  0.7965  0.1337 -1.8934
   35POPC  H14C 4648   1.224   6.440  11.012  0.0466  0.4107  2.2688
   35POPC   C15 4649   1.076   6.622  10.849 -0.4252  0.3177 -0.2567
   35POPC  H15A 4650   1.168   6.593  10.800 -1.8966 -0.8721 -2.5178
   35POPC  H15B 4651   1.037   6.716  10.812 -1.5249 -0.6337 -1.6376
   35POPC  H15C 4652   1.009   6.548  10.807  0.6684 -1.2425  0.6634
   35POPC   C11 4653   0.959   6.660  11.206 -0.0346 -0.7743  0.1009
   35POPC  H11A 4654   0.871   6.719  11.242  0.5463  0.9618 -1.1981
   35POPC  H11B 4655   1.046   6.720  11.239  1.1370 -2.5516  0.3929
   35POPC     P 4656   0.818   6.454  11.276  0.0468 -0.4298  0.0960
   35POPC   O13 4657   0.731   6.524  11.374 -0.3400  0.0635 -0.2995
   35POPC   O14 4658   0.864   6.319  11.303 -0.2263 -0.2854 -0.2021
   35POPC   O12 4659   0.949   6.536  11.267 -0.4241 -0.1784 -0.1543
   35POPC   O11 4660   0.739   6.463  11.143  0.4403 -0.3448 -0.2999
   35POPC    C1 4661   0.601   6.503  11.131  0.2554 -0.0339  0.0464
   35POPC    HA 4662   0.590   6.558  11.035 -0.4285  0.0626  0.1763
   35POPC    HB 4663   0.573   6.565  11.219 -0.1153 -0.1031 -0.0245
   35POPC    C2 4664   0.509   6.385  11.119 -0.7396  0.2142 -0.6963
   35POPC    HS 4665   0.520   6.325  11.212  1.3586 -1.0375 -1.6708
   35POPC   O21 4666   0.554   6.314  11.006 -0.6066 -0.1195  0.0856
   35POPC   C21 4667   0.518   6.181  10.989 -0.4708  0.0234 -0.3970
   35POPC   O22 4668   0.441   6.125  11.066  0.7757 -0.5531 -0.2749
   35POPC   C22 4669   0.594   6.118  10.870  0.3010  0.4391  0.0451
   35POPC   H2R 4670   0.682   6.067  10.914 -0.6653 -1.8146 -0.4966
   35POPC   H2S 4671   0.624   6.206  10.809 -0.7225  2.3870  2.1892
   35POPC    C3 4672   0.357   6.430  11.100 -0.2039 -0.0649  0.4197
   35POPC    HX 4673   0.333   6.503  11.181  0.9537  1.0628 -0.2263
   35POPC    HY 4674   0.282   6.349  11.113  0.2967 -0.3263  1.8489
   35POPC   O31 4675   0.328   6.510  10.986 -0.3259 -0.2680 -0.2488
   35POPC   C31 4676   0.244   6.445  10.894 -0.4632  0.5958 -0.4873
   35POPC   O32 4677   0.223   6.326  10.897 -0.1187 -0.1827 -0.0372
   35POPC   C32 4678   0.222   6.535  10.769 -0.5431 -0.2054 -0.2839
   35POPC   H2X 4679   0.261   6.473  10.686  0.3911  0.2666 -0.2088
   35POPC   H2Y 4680   0.268   6.635  10.780  2.8397 -1.8539  2.1443
   35POPC   C23 4681   0.516   6.026  10.779 -0.0303 -0.1721  0.8942
   35POPC   H3R 4682   0.465   5.942  10.830 -1.9860  0.8844  0.7949
   35POPC   H3S 4683   0.588   5.985  10.705 -0.6723  1.7618 -0.9189
   35POPC   C24 4684   0.414   6.095  10.688 -0.4169  0.7262 -0.3237
   35POPC   H4R 4685   0.336   6.138  10.754 -0.0267 -0.5487  1.0210
   35POPC   H4S 4686   0.358   6.023  10.625 -1.5753  0.0068  1.4615
   35POPC   C25 4687   0.463   6.207  10.596  0.2618 -0.1338  0.3291
   35POPC   H5R 4688   0.552   6.176  10.536 -0.2991  0.8811 -1.0766
   35POPC   H5S 4689   0.508   6.281  10.665 -1.8098 -0.6831  2.4069
   35POPC   C26 4690   0.356   6.277  10.519  0.4356 -0.4898  0.3578
   35POPC   H6R 4691   0.377   6.378  10.478 -0.4777  0.1220  1.3513
   35POPC   H6S 4692   0.275   6.289  10.594  1.2305 -2.0715  1.5420
   35POPC   C27 4693   0.301   6.203  10.395 -0.9606 -0.0266  0.3977
   35POPC   H7R 4694   0.207   6.256  10.369 -0.9748 -0.5942 -0.7747
   35POPC   H7S 4695   0.282   6.094  10.405 -1.3837 -0.1003 -0.9674
   35POPC   C28 4696   0.389   6.235  10.271  0.5028 -0.6786 -0.1616
   35POPC   H8R 4697   0.491   6.200  10.294  0.4769 -0.3384  0.5000
   35POPC   H8S 4698   0.397   6.343  10.246  2.5083 -0.6227  0.6168
   35POPC   C29 4699   0.362   6.140  10.161  0.2470  0.1643  0.0717
   35POPC   H91 4700   0.394   6.038  10.187  0.8870  0.7856  1.8286
   35POPC  C210 4701   0.302   6.163  10.047  0.5041  0.2268 -0.2924
   35POPC  H101 4702   0.264   6.074   9.994  0.1502  1.0993 -1.5598
   35POPC  C211 4703   0.252   6.301   9.994  0.6610 -0.1333 -0.0964
   35POPC  H11R 4704   0.330   6.373  10.027  1.4957 -0.8111 -0.5382
   35POPC  H11S 4705   0.147   6.328  10.019  0.7458 -0.6788  0.9139
   35POPC  C212 4706   0.239   6.286   9.837 -0.5443 -0.1475 -0.0053
   35POPC  H12R 4707   0.340   6.249   9.806  0.3293  1.7440  0.4033
   35POPC  H12S 4708   0.200   6.382   9.795 -1.4607 -1.2269 -1.7266
   35POPC  C213 4709   0.122   6.195   9.796  0.0749  0.3021 -0.2262
   35POPC  H13R 4710   0.026   6.244   9.822  0.2501 -0.3306  1.7633
   35POPC  H13S 4711   0.112   6.106   9.862  0.1002  1.0848  0.8656
   35POPC  C214 4712   0.126   6.161   9.649 -0.1950  0.1811  0.2289
   35POPC  H14R 4713   0.043   6.087   9.638  0.3117 -0.3840  0.1183
   35POPC  H14S 4714   0.224   6.114   9.623 -0.4361  0.1419 -0.6356
   35POPC  C215 4715   0.107   6.273   9.552 -0.3039  0.2666 -0.4733
   35POPC  H15R 4716   0.196   6.338   9.541  1.0313 -1.2910  0.6912
   35POPC  H15S 4717   0.021   6.340   9.579 -1.7861 -1.4246 -0.8213
   35POPC  C216 4718   0.078   6.222   9.410 -0.2964 -0.1116  0.1307
   35POPC  H16R 4719  -0.019   6.171   9.426  0.8870 -3.0130 -1.2272
   35POPC  H16S 4720   0.155   6.148   9.378 -0.7277 -0.3425 -0.3839
   35POPC  C217 4721   0.079   6.338   9.312  0.9778 -0.2047  0.3868
   35POPC  H17R 4722   0.183   6.362   9.282  1.1453 -2.0115 -0.6379
   35POPC  H17S 4723   0.032   6.423   9.365  0.6321 -0.9355  1.2761
   35POPC  C218 4724  -0.007   6.321   9.192 -0.4025  0.1987  0.5542
   35POPC  H18R 4725  -0.105   6.271   9.210 -0.6253 -0.3421 -1.8220
   35POPC  H18S 4726   0.038   6.253   9.116 -1.6260 -0.4451  0.3767
   35POPC  H18T 4727  -0.022   6.419   9.142 -0.6636  0.4723  1.1549
   35POPC   C33 4728   0.075   6.565  10.742  0.4604  0.3302  0.5178
   35POPC   H3X 4729   0.027   6.622  10.823 -1.4477 -1.4813  0.7389
   35POPC   H3Y 4730   0.014   6.474  10.726  0.3505  0.2840  1.1792
   35POPC   C34 4731   0.065   6.651  10.612  0.0267 -0.8598  0.5759
   35POPC   H4X 4732   0.097   6.755  10.636  0.8367 -0.6275 -1.3417
   35POPC   H4Y 4733  -0.041   6.652  10.578 -0.1399  1.4132  0.9848
   35POPC   C35 4734   0.147   6.597  10.491 -0.5769 -0.0505 -0.0342
   35POPC   H5X 4735   0.116   6.495  10.463  1.0926 -0.7492  0.5210
   35POPC   H5Y 4736   0.255   6.593  10.517 -0.6086 -2.9436 -0.1008
   35POPC   C36 4737   0.138   6.681  10.367 -0.5871  0.2073  0.2491
   35POPC   H6X 4738   0.208   6.767  10.370  0.3689 -0.5518  0.3075
   35POPC   H6Y 4739   0.032   6.710  10.353 -1.2515 -1.6532  1.1107
   35POPC   C37 4740   0.174   6.609  10.245 -0.4032  0.0228 -0.6041
   35POPC   H7X 4741   0.116   6.517  10.225  0.6014 -0.4513 -1.4327
   35POPC   H7Y 4742   0.280   6.578  10.254 -0.8582 -1.2100  0.7477
   35POPC   C38 4743   0.146   6.702  10.127 -0.4627  0.5263 -0.3753
   35POPC   H8X 4744   0.226   6.778  10.135 -1.3222  1.3405  0.9299
   35POPC   H8Y 4745   0.047   6.753  10.127 -1.3556 -1.1511 -0.6774
   35POPC   C39 4746   0.157   6.629   9.990 -0.3002 -0.4519  0.1931
   35POPC   H9X 4747   0.102   6.532   9.996 -1.0950  0.0658  3.2392
   35POPC   H9Y 4748   0.263   6.601   9.976 -0.6874 -2.5406  0.9676
   35POPC  C310 4749   0.125   6.714   9.874 -0.0669 -0.0728 -0.3003
   35POPC  H10X 4750   0.168   6.816   9.885 -1.3085  0.4040  0.4090
   35POPC  H10Y 4751   0.017   6.741   9.867  0.2153  1.1582 -0.2039
   35POPC  C311 4752   0.177   6.655   9.745  0.8034 -0.3064 -0.3445
   35POPC  H11X 4753   0.111   6.568   9.724 -2.3440  2.0419 -1.1351
   35POPC  H11Y 4754   0.284   6.629   9.751  0.6868 -0.7530 -0.1056
   35POPC  C312 4755   0.149   6.762   9.640 -0.0709 -0.2359 -0.3289
   35POPC  H12X 4756   0.202   6.853   9.674  1.5139 -1.6188  1.1231
   35POPC  H12Y 4757   0.041   6.785   9.633  0.0167 -0.0779 -1.4293
   35POPC  C313 4758   0.203   6.722   9.499 -0.4833 -0.5834  0.6716
   35POPC  H13X 4759   0.171   6.619   9.473 -2.3129  0.2791 -0.6697
   35POPC  H13Y 4760   0.311   6.703   9.517 -0.2170 -1.4664 -1.5552
   35POPC  C314 4761   0.175   6.827   9.393 -0.5056 -0.1322 -0.2481
   35POPC  H14X 4762   0.239   6.915   9.417  0.7628 -0.6966 -1.4028
   35POPC  H14Y 4763   0.068   6.857   9.400 -0.6975  0.0920 -2.9839
   35POPC  C315 4764   0.207   6.777   9.250  0.0070  0.1388  1.3899
   35POPC  H15X 4765   0.295   6.712   9.269 -1.8609 -2.5009  1.6474
   35POPC  H15Y 4766   0.223   6.856   9.174 -1.0487  0.1838  1.2017
   35POPC  C316 4767   0.080   6.704   9.196  0.4981 -0.2111  0.0140
   35POPC  H16X 4768   0.104   6.661   9.096  2.4635 -1.1133  0.8172
   35POPC  H16Y 4769  -0.010   6.770   9.198 -0.0015 -0.8917  0.3402
   35POPC  H16Z 4770   0.060   6.626   9.272 -1.9230  1.0197  0.7463
   36POPC     N 4771   6.406   4.321  11.199 -0.3433 -0.0235  0.3121
   36POPC   C12 4772   6.438   4.423  11.095 -0.5242 -0.0353  0.3792
   36POPC  H12A 4773   6.344   4.451  11.049 -1.3758  1.1092  2.6429
   36POPC  H12B 4774   6.521   4.381  11.039  0.5030  0.2177  1.6715
   36POPC   C13 4775   6.525   4.283  11.281 -0.2933  0.2323 -0.4754
   36POPC  H13A 4776   6.611   4.249  11.224 -0.0686 -0.4296  0.2462
   36POPC  H13B 4777   6.567   4.364  11.339  1.5493 -1.1819  0.2668
   36POPC  H13C 4778   6.492   4.205  11.348 -3.0546  1.3383 -0.4214
   36POPC   C14 4779   6.298   4.374  11.282  0.5815 -0.0784 -0.2248
   36POPC  H14A 4780   6.331   4.468  11.323 -1.1448  1.2736 -1.7668
   36POPC  H14B 4781   6.204   4.392  11.232  0.5709  0.1460 -0.1273
   36POPC  H14C 4782   6.275   4.310  11.365 -0.3693  0.2710 -0.2149
   36POPC   C15 4783   6.353   4.193  11.129 -0.5201  0.3994  0.8821
   36POPC  H15A 4784   6.331   4.113  11.198 -0.2200 -1.4937 -1.1015
   36POPC  H15B 4785   6.429   4.153  11.063  2.8925  2.5440  3.1863
   36POPC  H15C 4786   6.269   4.220  11.067  1.3596 -0.5141 -2.3193
   36POPC   C11 4787   6.491   4.560  11.152 -0.3195  1.1102  1.0425
   36POPC  H11A 4788   6.518   4.619  11.062  1.4865  1.1873  1.6103
   36POPC  H11B 4789   6.583   4.550  11.213  0.2613 -1.4921 -0.0975
   36POPC     P 4790   6.282   4.713  11.163  0.2471  0.2831  0.0271
   36POPC   O13 4791   6.325   4.845  11.115 -0.3814  0.8457 -0.0818
   36POPC   O14 4792   6.175   4.709  11.264  0.3671 -0.8782 -0.2386
   36POPC   O12 4793   6.391   4.626  11.224  0.0020  0.1055  1.0125
   36POPC   O11 4794   6.238   4.628  11.029 -0.9372 -0.2186  0.5956
   36POPC    C1 4795   6.118   4.648  10.956 -0.1036  0.1676  0.8570
   36POPC    HA 4796   6.047   4.720  11.002  0.5367  1.1334  0.3671
   36POPC    HB 4797   6.069   4.549  10.947  1.2942 -0.4217 -0.9810
   36POPC    C2 4798   6.136   4.703  10.806 -0.6109  0.6577  0.0691
   36POPC    HS 4799   6.056   4.676  10.735  1.8212  0.4479 -2.7852
   36POPC   O21 4800   6.254   4.664  10.741 -0.5418  0.3984  0.1094
   36POPC   C21 4801   6.267   4.534  10.720 -0.0930 -0.0252 -0.3438
   36POPC   O22 4802   6.184   4.449  10.733 -0.2925 -0.0247 -0.4865
   36POPC   C22 4803   6.408   4.509  10.674 -0.2974  0.1426 -0.0994
   36POPC   H2R 4804   6.458   4.441  10.746 -0.0790 -0.8722 -1.1821
   36POPC   H2S 4805   6.461   4.605  10.691  1.3544 -0.7738  0.2115
   36POPC    C3 4806   6.145   4.857  10.816 -0.6803  0.2310  0.6634
   36POPC    HX 4807   6.236   4.878  10.876 -0.3297  1.2953 -0.2076
   36POPC    HY 4808   6.056   4.887  10.876 -1.4491  1.3276 -0.9482
   36POPC   O31 4809   6.137   4.916  10.686 -0.7123 -0.4421  0.2179
   36POPC   C31 4810   6.253   4.945  10.628 -0.7702  0.5693  0.3617
   36POPC   O32 4811   6.363   4.931  10.679 -0.5023 -0.0845 -0.3623
   36POPC   C32 4812   6.227   4.996  10.485  0.0406  0.8291 -0.3956
   36POPC   H2X 4813   6.200   5.102  10.505 -1.6610 -0.0054  2.1318
   36POPC   H2Y 4814   6.134   4.956  10.439  1.3495 -1.0494 -1.5717
   36POPC   C23 4815   6.427   4.455  10.522  0.9001 -0.5130 -0.4031
   36POPC   H3R 4816   6.354   4.518  10.467  1.8721  0.7465 -0.3108
   36POPC   H3S 4817   6.402   4.347  10.519  0.0315 -0.6137  3.9088
   36POPC   C24 4818   6.561   4.485  10.462  0.0301 -0.1713 -0.4607
   36POPC   H4R 4819   6.633   4.432  10.528 -1.2023 -1.6912 -0.2808
   36POPC   H4S 4820   6.581   4.593  10.447 -0.4928 -0.0184 -0.0861
   36POPC   C25 4821   6.578   4.432  10.320  0.0964 -0.0992 -0.0979
   36POPC   H5R 4822   6.570   4.322  10.331 -1.7011  0.1361  1.5354
   36POPC   H5S 4823   6.675   4.470  10.281 -0.3709 -1.0371 -2.3175
   36POPC   C26 4824   6.461   4.473  10.230  0.5243  0.1196 -0.1349
   36POPC   H6R 4825   6.457   4.583  10.225 -0.8747  0.0771 -0.4868
   36POPC   H6S 4826   6.361   4.445  10.270  0.5692  1.0046  0.6014
   36POPC   C27 4827   6.477   4.417  10.087 -0.1755  0.1809 -0.4924
   36POPC   H7R 4828   6.460   4.309  10.072 -0.2475 -0.0552  1.0696
   36POPC   H7S 4829   6.585   4.431  10.066  0.2399  0.7180  1.6643
   36POPC   C28 4830   6.397   4.501   9.973 -0.1891  0.4925  0.5441
   36POPC   H8R 4831   6.442   4.600   9.948 -3.8187  1.8509 -1.3813
   36POPC   H8S 4832   6.302   4.521  10.028 -1.0285 -2.4796  0.3193
   36POPC   C29 4833   6.380   4.417   9.848  0.3247  0.5264 -0.0757
   36POPC   H91 4834   6.321   4.324   9.858  3.7443 -1.9163 -0.7211
   36POPC  C210 4835   6.411   4.449   9.722  0.3344 -0.0316 -0.1135
   36POPC  H101 4836   6.392   4.367   9.651  2.4160  0.6422 -1.5707
   36POPC  C211 4837   6.470   4.574   9.670 -1.0366 -1.3478  0.2372
   36POPC  H11R 4838   6.581   4.573   9.681 -0.9789  1.9085  0.9448
   36POPC  H11S 4839   6.433   4.668   9.717  4.5298  0.5317  1.6311
   36POPC  C212 4840   6.457   4.590   9.512 -0.1457 -0.0711  0.2985
   36POPC  H12R 4841   6.510   4.685   9.491  1.6264 -1.1446 -0.3539
   36POPC  H12S 4842   6.352   4.607   9.481 -0.0030 -0.0099 -0.1663
   36POPC  C213 4843   6.538   4.484   9.429 -0.2298  0.4738  0.0294
   36POPC  H13R 4844   6.468   4.401   9.405  0.4507 -0.1788  0.2614
   36POPC  H13S 4845   6.623   4.447   9.490  0.1126 -0.6961 -1.1377
   36POPC  C214 4846   6.588   4.542   9.295  0.1612 -0.4734  0.3130
   36POPC  H14R 4847   6.664   4.623   9.305  1.2455 -1.4751  0.2859
   36POPC  H14S 4848   6.498   4.593   9.253  2.0959  2.3763 -0.7278
   36POPC  C215 4849   6.637   4.444   9.196 -0.6441 -0.0429  0.2677
   36POPC  H15R 4850   6.583   4.347   9.191 -2.5858  0.7312  3.3578
   36POPC  H15S 4851   6.737   4.412   9.232 -1.4821 -0.8226  2.0697
   36POPC  C216 4852   6.649   4.505   9.062  0.3851 -0.1406 -0.5934
   36POPC  H16R 4853   6.702   4.602   9.065  0.6015 -0.2028 -1.9152
   36POPC  H16S 4854   6.540   4.521   9.045  0.5208 -0.7411 -2.2018
   36POPC  C217 4855   6.716   4.416   8.956 -0.0187 -0.1199 -0.4738
   36POPC  H17R 4856   6.649   4.329   8.941  0.1593 -0.4983  0.8069
   36POPC  H17S 4857   6.814   4.386   8.997  0.4924  0.1704 -1.4438
   36POPC  C218 4858   6.738   4.488   8.825 -0.0985 -0.0008  0.5227
   36POPC  H18R 4859   6.760   4.422   8.739  0.0664  1.5526 -0.6695
   36POPC  H18S 4860   6.796   4.583   8.826 -1.9658  1.1885  0.4471
   36POPC  H18T 4861   6.636   4.518   8.791  0.5870  1.0436 -0.7268
   36POPC   C33 4862   6.339   4.970  10.383 -0.1042  0.2806  0.0807
   36POPC   H3X 4863   6.319   4.862  10.367 -0.6025  0.0525  1.9372
   36POPC   H3Y 4864   6.443   4.989  10.417  0.6465 -0.0488 -1.9412
   36POPC   C34 4865   6.307   5.044  10.257  0.0715  0.5283  0.4186
   36POPC   H4X 4866   6.201   5.023  10.233  0.2698 -0.5709  0.4784
   36POPC   H4Y 4867   6.369   5.006  10.173  0.4617  0.7755  0.5907
   36POPC   C35 4868   6.327   5.200  10.269 -0.2126 -0.1718 -0.1205
   36POPC   H5X 4869   6.417   5.230  10.326  1.9247 -1.6111 -2.5349
   36POPC   H5Y 4870   6.244   5.238  10.333 -0.4905  0.3081 -0.7492
   36POPC   C36 4871   6.321   5.279  10.141  0.0840  0.1066  1.0348
   36POPC   H6X 4872   6.314   5.384  10.177 -2.4125  1.0051 -1.6389
   36POPC   H6Y 4873   6.235   5.264  10.072  0.7084 -2.0283  0.6547
   36POPC   C37 4874   6.447   5.249  10.059  0.2268 -0.5967 -0.4132
   36POPC   H7X 4875   6.460   5.140  10.048  1.6008 -0.3759 -1.2490
   36POPC   H7Y 4876   6.538   5.287  10.111 -1.2453 -0.0032  1.9281
   36POPC   C38 4877   6.462   5.321   9.917 -0.5016  0.4060 -0.8126
   36POPC   H8X 4878   6.439   5.428   9.936  2.8519  1.3859 -1.6528
   36POPC   H8Y 4879   6.384   5.279   9.850 -0.7816  1.4297 -1.1424
   36POPC   C39 4880   6.606   5.306   9.867  0.6021  0.1153 -0.2754
   36POPC   H9X 4881   6.638   5.200   9.857 -0.9307 -0.4382  0.4110
   36POPC   H9Y 4882   6.671   5.353   9.944 -0.3180  0.2826  0.4152
   36POPC  C310 4883   6.609   5.377   9.730  0.7173  0.4456  0.6615
   36POPC  H10X 4884   6.708   5.380   9.680 -0.0004  3.5389 -0.8465
   36POPC  H10Y 4885   6.575   5.483   9.736 -1.6380  0.2175 -4.0927
   36POPC  C311 4886   6.519   5.309   9.622 -0.0854 -0.1609  0.3394
   36POPC  H11X 4887   6.412   5.314   9.652 -0.0118  0.6005  0.4891
   36POPC  H11Y 4888   6.543   5.201   9.626 -0.7431 -0.3364 -0.1682
   36POPC  C312 4889   6.542   5.370   9.487  0.9887 -0.0368 -0.4420
   36POPC  H12X 4890   6.515   5.313   9.396 -0.1400 -0.5297  0.1854
   36POPC  H12Y 4891   6.648   5.400   9.476  1.2515 -0.7634  0.0352
   36POPC  C313 4892   6.468   5.508   9.472  0.3603 -0.2555 -0.2420
   36POPC  H13X 4893   6.528   5.591   9.515  1.1645 -1.6593  1.4506
   36POPC  H13Y 4894   6.369   5.516   9.522 -0.9050  0.4991 -2.7142
   36POPC  C314 4895   6.441   5.527   9.325  0.1233 -1.1875  0.2330
   36POPC  H14X 4896   6.382   5.619   9.305  2.3171  0.7205  1.8963
   36POPC  H14Y 4897   6.375   5.445   9.289 -2.5372  0.7327  0.4480
   36POPC  C315 4898   6.565   5.538   9.233 -0.1604  0.0076  0.0669
   36POPC  H15X 4899   6.616   5.440   9.237 -1.1206 -0.6908 -2.5105
   36POPC  H15Y 4900   6.638   5.615   9.266 -0.1156  0.0793 -0.1949
   36POPC  C316 4901   6.532   5.559   9.088 -0.5786  0.1993  0.1226
   36POPC  H16X 4902   6.624   5.561   9.028  0.3367  5.2220  1.2466
   36POPC  H16Y 4903   6.496   5.662   9.068  0.5573  0.3021 -1.5676
   36POPC  H16Z 4904   6.464   5.480   9.050 -0.6686  0.2940  0.0861
   37POPC     N 4905   5.878   0.932   6.512  0.1967  0.1047 -0.8358
   37POPC   C12 4906   5.777   1.016   6.585 -0.3329  0.3932  0.2157
   37POPC  H12A 4907   5.688   1.037   6.528  0.3243  2.2350 -0.2343
   37POPC  H12B 4908   5.822   1.113   6.601 -0.9618  0.8563 -0.6983
   37POPC   C13 4909   5.923   1.022   6.395  0.2356  0.2425  1.2039
   37POPC  H13A 4910   5.991   0.974   6.325 -2.4472 -1.1910 -0.6367
   37POPC  H13B 4911   5.844   1.075   6.344  2.4290  1.9592 -0.6114
   37POPC  H13C 4912   5.987   1.102   6.430  1.5756  0.8177 -2.1843
   37POPC   C14 4913   6.000   0.898   6.599 -0.4159 -0.0345 -0.4071
   37POPC  H14A 4914   6.072   0.847   6.537 -0.8915  0.4463 -1.3868
   37POPC  H14B 4915   6.045   0.990   6.634 -1.3815  0.5748 -0.7205
   37POPC  H14C 4916   5.979   0.833   6.682 -0.1101  1.1948  0.6657
   37POPC   C15 4917   5.814   0.805   6.473 -0.3196 -0.5747 -0.2073
   37POPC  H15A 4918   5.722   0.819   6.418 -1.5435 -2.1083  1.3385
   37POPC  H15B 4919   5.785   0.751   6.562 -1.3434  0.0194 -0.1660
   37POPC  H15C 4920   5.879   0.737   6.421 -0.8062 -0.4987 -0.9390
   37POPC   C11 4921   5.733   0.958   6.723 -0.2869 -0.0379  0.1800
   37POPC  H11A 4922   5.673   1.035   6.775  3.2237  2.0534  1.4880
   37POPC  H11B 4923   5.818   0.937   6.791  0.5530  0.3818 -0.7168
   37POPC     P 4924   5.636   0.755   6.831 -0.1660  0.4485  0.1096
   37POPC   O13 4925   5.573   0.623   6.792 -0.1925 -0.1413  0.0058
   37POPC   O14 4926   5.568   0.828   6.940  0.4620  0.2440 -0.3239
   37POPC   O12 4927   5.660   0.843   6.703 -0.4676 -0.3345  0.0713
   37POPC   O11 4928   5.784   0.718   6.862 -1.1850 -0.2948 -0.5869
   37POPC    C1 4929   5.829   0.596   6.928  0.1689 -0.3436 -0.5698
   37POPC    HA 4930   5.938   0.587   6.908 -0.0236 -0.6802 -1.5607
   37POPC    HB 4931   5.780   0.503   6.890 -1.2357 -1.1819  2.8606
   37POPC    C2 4932   5.813   0.582   7.083  0.1303  0.0392 -0.9720
   37POPC    HS 4933   5.869   0.493   7.119  0.8343  1.4224  1.6480
   37POPC   O21 4934   5.685   0.580   7.139  0.3601  0.8815 -0.0664
   37POPC   C21 4935   5.617   0.469   7.119  0.0218 -0.5382 -0.5498
   37POPC   O22 4936   5.645   0.370   7.054  0.1494 -0.6396 -0.6338
   37POPC   C22 4937   5.495   0.470   7.204  0.1238 -0.6660 -0.2554
   37POPC   H2R 4938   5.403   0.456   7.143 -0.0136 -1.3309  0.0845
   37POPC   H2S 4939   5.478   0.575   7.234  1.7653  0.1239 -1.9664
   37POPC    C3 4940   5.892   0.703   7.146  0.2369 -0.0781 -0.0892
   37POPC    HX 4941   5.829   0.792   7.126  2.1816  0.9177 -2.0615
   37POPC    HY 4942   5.987   0.719   7.091  0.1120 -1.0674 -0.6216
   37POPC   O31 4943   5.907   0.679   7.288 -0.1842 -0.8910 -0.7355
   37POPC   C31 4944   6.005   0.598   7.333 -0.1930 -0.4608 -0.0194
   37POPC   O32 4945   6.088   0.535   7.271  0.1175 -0.3188  0.5914
   37POPC   C32 4946   5.998   0.615   7.486 -0.3492  0.7507 -0.7393
   37POPC   H2X 4947   5.904   0.565   7.518 -0.7876  3.3421  2.6491
   37POPC   H2Y 4948   5.994   0.724   7.508  1.2963  0.5471  0.7551
   37POPC   C23 4949   5.485   0.355   7.306 -0.1114 -0.3707 -0.0440
   37POPC   H3R 4950   5.567   0.359   7.381 -0.2805 -1.1074  0.1935
   37POPC   H3S 4951   5.482   0.262   7.244  0.0977  0.3677 -1.1958
   37POPC   C24 4952   5.352   0.369   7.374 -0.2319 -0.1531  0.0446
   37POPC   H4R 4953   5.267   0.360   7.303  0.0496 -0.0949 -0.3000
   37POPC   H4S 4954   5.330   0.466   7.424 -0.0146 -0.1172  0.0714
   37POPC   C25 4955   5.317   0.263   7.484 -0.5615 -0.0082  0.1228
   37POPC   H5R 4956   5.350   0.162   7.453  0.8696 -0.2452  2.1679
   37POPC   H5S 4957   5.206   0.254   7.486 -0.4082 -2.2829  0.4487
   37POPC   C26 4958   5.379   0.303   7.619 -0.4885  0.1920 -0.4161
   37POPC   H6R 4959   5.314   0.383   7.663 -0.3579  0.9343 -1.5181
   37POPC   H6S 4960   5.481   0.345   7.607  0.7543 -1.5743  2.7753
   37POPC   C27 4961   5.382   0.177   7.700 -0.2076  0.4722 -0.4622
   37POPC   H7R 4962   5.417   0.193   7.805 -2.7687 -2.5409  1.0422
   37POPC   H7S 4963   5.446   0.101   7.650 -0.2663  0.0967  0.0223
   37POPC   C28 4964   5.244   0.108   7.725 -0.0079  0.0057 -0.4912
   37POPC   H8R 4965   5.194   0.080   7.630  0.4285 -0.8023 -0.4874
   37POPC   H8S 4966   5.172   0.178   7.773 -0.1716 -0.5274  0.0605
   37POPC   C29 4967   5.269  -0.013   7.816 -0.5957  0.6441  0.0444
   37POPC   H91 4968   5.281  -0.108   7.762 -2.2657  0.0288  0.7059
   37POPC  C210 4969   5.292  -0.013   7.951  0.8885 -0.2702  0.0881
   37POPC  H101 4970   5.306  -0.111   7.998 -0.0591  0.3311  1.7210
   37POPC  C211 4971   5.293   0.104   8.042  0.0470  0.0219 -0.0209
   37POPC  H11R 4972   5.233   0.078   8.132  0.2622 -2.1659 -0.4498
   37POPC  H11S 4973   5.250   0.197   7.998 -0.8992  0.5600  1.9078
   37POPC  C212 4974   5.436   0.138   8.087  0.6136  0.0479 -0.0527
   37POPC  H12R 4975   5.429   0.243   8.124 -1.5568  0.1364 -0.5467
   37POPC  H12S 4976   5.511   0.132   8.006  1.3219  0.5769  0.5553
   37POPC  C213 4977   5.476   0.053   8.210 -0.2353  0.1295  0.6004
   37POPC  H13R 4978   5.440  -0.051   8.194  1.6064 -0.3672 -0.5875
   37POPC  H13S 4979   5.421   0.100   8.295  1.1191  2.7743  0.1062
   37POPC  C214 4980   5.622   0.050   8.246 -0.1393  0.0586  0.7121
   37POPC  H14R 4981   5.645   0.144   8.301  0.6774  0.8588 -0.9197
   37POPC  H14S 4982   5.688   0.035   8.158 -0.6972 -0.4782  0.3796
   37POPC  C215 4983   5.657  -0.067   8.335  0.4296  0.1513 -0.2367
   37POPC  H15R 4984   5.643  -0.159   8.274  1.1574  0.6828 -1.2375
   37POPC  H15S 4985   5.577  -0.072   8.413  0.3420 -0.2526 -0.3507
   37POPC  C216 4986   5.791  -0.051   8.407  0.5379 -0.1284 -0.1601
   37POPC  H16R 4987   5.788   0.054   8.445 -0.0350 -0.5087  0.8948
   37POPC  H16S 4988   5.881  -0.068   8.344  0.1633 -0.3764 -0.6365
   37POPC  C217 4989   5.798  -0.140   8.541  0.1241 -0.1248  0.3519
   37POPC  H17R 4990   5.821  -0.240   8.497 -2.0677 -0.7030  0.4141
   37POPC  H17S 4991   5.699  -0.147   8.591 -2.2553  2.0565 -3.5683
   37POPC  C218 4992   5.909  -0.093   8.633 -0.2633 -0.0133 -0.3642
   37POPC  H18R 4993   5.931  -0.157   8.722  1.0124  0.6470 -0.1841
   37POPC  H18S 4994   5.893   0.006   8.680 -0.7909 -0.1899 -0.1667
   37POPC  H18T 4995   6.000  -0.092   8.569  0.2738 -0.6016  0.3637
   37POPC   C33 4996   6.114   0.537   7.557 -0.3130 -0.0675  0.4917
   37POPC   H3X 4997   6.217   0.573   7.536  0.1338 -0.9394  1.1403
   37POPC   H3Y 4998   6.115   0.430   7.530  2.0547  0.0606 -0.1410
   37POPC   C34 4999   6.107   0.548   7.715  0.1960 -0.4649  0.3242
   37POPC   H4X 5000   6.012   0.503   7.751 -0.8822  1.3273 -0.1527
   37POPC   H4Y 5001   6.110   0.659   7.727  1.1709 -0.3409 -0.8144
   37POPC   C35 5002   6.230   0.492   7.786  0.2108  0.4278  0.1411
   37POPC   H5X 5003   6.322   0.521   7.730 -0.2691 -0.3665 -1.1026
   37POPC   H5Y 5004   6.230   0.382   7.792  2.1883  0.3612 -0.2248
   37POPC   C36 5005   6.228   0.550   7.935  0.0919  0.5398  0.1892
   37POPC   H6X 5006   6.129   0.528   7.981  0.2019  0.2065  0.2658
   37POPC   H6Y 5007   6.251   0.659   7.934 -2.5782  1.1873  0.1634
   37POPC   C37 5008   6.332   0.469   8.023 -0.3342 -0.0461 -0.1863
   37POPC   H7X 5009   6.430   0.473   7.971  0.1974  0.1914  0.8142
   37POPC   H7Y 5010   6.293   0.365   8.028 -0.0158 -0.1427  0.3832
   37POPC   C38 5011   6.356   0.545   8.157 -1.0036  0.1860  0.3150
   37POPC   H8X 5012   6.260   0.547   8.213 -1.4701  1.9449 -0.4420
   37POPC   H8Y 5013   6.398   0.646   8.136 -0.3334 -0.5365 -2.1462
   37POPC   C39 5014   6.459   0.470   8.243 -0.3370 -0.4046  0.5428
   37POPC   H9X 5015   6.548   0.445   8.182 -0.5627 -2.1305  0.8761
   37POPC   H9Y 5016   6.414   0.375   8.278 -0.3330 -0.9857 -0.9961
   37POPC  C310 5017   6.513   0.532   8.374 -0.3666  0.0038  1.0173
   37POPC  H10X 5018   6.423   0.582   8.416  0.7061  2.9564  0.0374
   37POPC  H10Y 5019   6.585   0.616   8.359  0.4294 -0.6285  1.2089
   37POPC  C311 5020   6.564   0.431   8.475  0.0429 -0.0098  0.1603
   37POPC  H11X 5021   6.656   0.379   8.438 -1.0845 -1.5491 -0.5828
   37POPC  H11Y 5022   6.485   0.355   8.494 -0.6565 -0.0833 -2.6595
   37POPC  C312 5023   6.612   0.496   8.607  0.1116 -0.3542  0.5508
   37POPC  H12X 5024   6.634   0.403   8.664 -1.8707 -1.6676 -0.6688
   37POPC  H12Y 5025   6.532   0.556   8.654 -0.6830 -0.4818 -0.5799
   37POPC  C313 5026   6.738   0.572   8.596  0.1881 -0.1971 -0.4494
   37POPC  H13X 5027   6.723   0.654   8.522  2.0835 -0.1071 -0.7777
   37POPC  H13Y 5028   6.819   0.512   8.551 -0.0261 -0.3416 -0.6397
   37POPC  C314 5029   6.774   0.644   8.734  0.1651  0.9978  0.4206
   37POPC  H14X 5030   6.877   0.683   8.742  0.5668  0.1790 -0.6099
   37POPC  H14Y 5031   6.757   0.565   8.811  1.4087 -0.3857 -0.6634
   37POPC  C315 5032   6.688   0.769   8.767  0.0149  0.7588 -0.3567
   37POPC  H15X 5033   6.584   0.736   8.789  0.8660 -1.1603  1.0328
   37POPC  H15Y 5034   6.684   0.830   8.674  0.6425  0.5656 -0.5162
   37POPC  C316 5035   6.743   0.852   8.873 -0.0094 -0.0253 -0.0195
   37POPC  H16X 5036   6.724   0.801   8.970  1.9427 -1.3162 -0.2537
   37POPC  H16Y 5037   6.690   0.949   8.875  0.7849  0.4095  0.3074
   37POPC  H16Z 5038   6.852   0.872   8.869 -0.0768  0.9939  1.8609
   38POPC     N 5039   5.619   3.139   6.475  0.2910 -0.5297  0.7168
   38POPC   C12 5040   5.716   3.043   6.543 -0.0351  0.0637 -0.1849
   38POPC  H12A 5041   5.804   3.099   6.568  0.6984 -1.2393  0.2800
   38POPC  H12B 5042   5.755   2.972   6.471 -0.7638  1.8023 -2.4079
   38POPC   C13 5043   5.687   3.190   6.352 -0.9066  1.1126 -0.4288
   38POPC  H13A 5044   5.615   3.249   6.297  0.7598  2.2106 -1.5094
   38POPC  H13B 5045   5.767   3.251   6.390 -0.0028  0.4242 -1.1851
   38POPC  H13C 5046   5.737   3.117   6.290 -0.2287  0.7226  0.5513
   38POPC   C14 5047   5.506   3.064   6.426  0.0598 -0.2540 -0.7415
   38POPC  H14A 5048   5.540   2.982   6.365  0.6662  0.2828 -1.1350
   38POPC  H14B 5049   5.462   3.008   6.508 -1.4097 -3.0123 -3.2366
   38POPC  H14C 5050   5.429   3.126   6.383  0.4273  0.2495 -0.6740
   38POPC   C15 5051   5.581   3.246   6.566 -0.0184 -0.0597 -0.2448
   38POPC  H15A 5052   5.670   3.300   6.596  0.4528 -1.1261  0.3205
   38POPC  H15B 5053   5.541   3.209   6.659 -0.3253 -1.6889 -0.9971
   38POPC  H15C 5054   5.505   3.304   6.515  1.5992  0.7559 -1.8588
   38POPC   C11 5055   5.665   2.966   6.663  1.2461  0.3264  0.2971
   38POPC  H11A 5056   5.618   3.026   6.743 -0.3821 -0.2562 -0.1928
   38POPC  H11B 5057   5.755   2.929   6.717 -0.8747 -0.7215  3.3946
   38POPC     P 5058   5.616   2.729   6.570 -0.0865  0.4872  0.5198
   38POPC   O13 5059   5.695   2.763   6.449 -0.4979  0.6056  0.3380
   38POPC   O14 5060   5.498   2.641   6.553 -0.5322 -0.2850  0.3302
   38POPC   O12 5061   5.572   2.859   6.638 -0.4775 -0.2437 -0.1472
   38POPC   O11 5062   5.718   2.659   6.679  0.0187  0.4455  0.1230
   38POPC    C1 5063   5.677   2.621   6.810 -0.3668 -0.0234 -0.3356
   38POPC    HA 5064   5.645   2.515   6.821  1.3600 -0.5968 -0.5872
   38POPC    HB 5065   5.593   2.683   6.848 -1.2317  0.1305 -2.3537
   38POPC    C2 5066   5.801   2.640   6.901 -0.2165  0.8632  0.7393
   38POPC    HS 5067   5.876   2.623   6.822 -0.8364  1.3378  0.0340
   38POPC   O21 5068   5.804   2.548   7.013  0.0464 -0.2280  0.1573
   38POPC   C21 5069   5.920   2.513   7.063  0.7185 -0.1112 -0.0066
   38POPC   O22 5070   6.030   2.538   7.021 -0.4278  0.6580  0.0603
   38POPC   C22 5071   5.895   2.430   7.190 -0.4675 -0.9590  0.3054
   38POPC   H2R 5072   5.912   2.324   7.159  0.3452 -0.5381 -0.7646
   38POPC   H2S 5073   5.787   2.431   7.215 -0.5707  1.5680  0.0107
   38POPC    C3 5074   5.831   2.784   6.956  0.8858 -0.3954 -0.6015
   38POPC    HX 5075   5.828   2.853   6.869 -1.4942 -0.9099 -0.9930
   38POPC    HY 5076   5.933   2.793   6.999 -0.0160 -0.7918  1.7516
   38POPC   O31 5077   5.740   2.818   7.059 -0.2630  0.0236 -0.4078
   38POPC   C31 5078   5.739   2.951   7.086 -0.5427 -0.8555 -0.3824
   38POPC   O32 5079   5.818   3.030   7.044 -0.9499 -0.0893 -0.0766
   38POPC   C32 5080   5.625   2.988   7.177 -0.7504  0.3732  0.5266
   38POPC   H2X 5081   5.532   2.955   7.126  0.0649 -1.0721 -0.0657
   38POPC   H2Y 5082   5.627   3.098   7.192 -0.9686  0.4731 -0.1749
   38POPC   C23 5083   5.984   2.479   7.307  0.1307 -0.4265  0.4946
   38POPC   H3R 5084   5.959   2.583   7.336  3.2815  0.1164  1.6734
   38POPC   H3S 5085   6.089   2.482   7.271  0.6743 -2.4770  1.7293
   38POPC   C24 5086   5.988   2.382   7.429 -0.6919 -0.1758  0.0664
   38POPC   H4R 5087   6.035   2.285   7.399 -0.5425 -0.6172  1.6393
   38POPC   H4S 5088   5.883   2.360   7.456 -1.2143  1.2171 -0.7404
   38POPC   C25 5089   6.079   2.427   7.547 -0.1468  0.0419  0.0697
   38POPC   H5R 5090   6.027   2.502   7.610 -0.7018 -1.4329  1.4299
   38POPC   H5S 5091   6.175   2.468   7.510 -0.7167  0.5980 -0.8283
   38POPC   C26 5092   6.111   2.319   7.653  0.7983 -0.0278 -0.7679
   38POPC   H6R 5093   6.177   2.371   7.725  1.4524 -0.1856 -1.2466
   38POPC   H6S 5094   6.175   2.251   7.594 -0.0223 -0.4270 -1.2208
   38POPC   C27 5095   5.984   2.264   7.728 -0.0933  0.0874  0.2721
   38POPC   H7R 5096   6.012   2.165   7.770 -1.8989  1.2365  4.7566
   38POPC   H7S 5097   5.912   2.248   7.646  1.1837  0.1020 -0.8826
   38POPC   C28 5098   5.955   2.351   7.853  0.8178  0.1583 -0.5490
   38POPC   H8R 5099   5.902   2.437   7.807  2.2476 -0.2876 -3.3059
   38POPC   H8S 5100   6.051   2.392   7.890  1.9469 -2.9311  0.3233
   38POPC   C29 5101   5.874   2.270   7.959 -0.5624  0.1522 -0.2098
   38POPC   H91 5102   5.775   2.230   7.935 -0.9483  1.5946 -1.1283
   38POPC  C210 5103   5.908   2.252   8.097 -0.1931  0.2846  0.1484
   38POPC  H101 5104   5.825   2.208   8.156 -0.5043  0.4628 -0.1489
   38POPC  C211 5105   6.029   2.306   8.166  0.1609 -0.2208  0.0786
   38POPC  H11R 5106   6.013   2.411   8.196 -1.2351 -0.0860 -1.0496
   38POPC  H11S 5107   6.128   2.297   8.116  1.3462 -0.8818  2.3959
   38POPC  C212 5108   6.056   2.222   8.298 -0.4063 -0.2548  1.1722
   38POPC  H12R 5109   6.062   2.115   8.269 -1.8270 -0.0647  0.0512
   38POPC  H12S 5110   5.973   2.228   8.372 -1.8393 -0.6332 -0.3464
   38POPC  C213 5111   6.187   2.246   8.367  0.2653 -0.4929 -0.4457
   38POPC  H13R 5112   6.173   2.354   8.389 -1.7239 -0.7682 -0.1002
   38POPC  H13S 5113   6.276   2.237   8.302  0.4098 -1.9726 -0.0771
   38POPC  C214 5114   6.203   2.159   8.492 -0.3569 -0.1060  0.7191
   38POPC  H14R 5115   6.158   2.057   8.483 -0.9295  0.3409 -2.4670
   38POPC  H14S 5116   6.144   2.209   8.572  2.3187  1.5616  1.7963
   38POPC  C215 5117   6.343   2.136   8.542  0.3335  0.4919 -0.6241
   38POPC  H15R 5118   6.405   2.229   8.542  0.2279  0.5622 -0.4933
   38POPC  H15S 5119   6.407   2.069   8.481  1.7270  0.1609  1.0899
   38POPC  C216 5120   6.345   2.091   8.688  0.4564  0.2735  0.5529
   38POPC  H16R 5121   6.309   1.988   8.712 -0.3787  0.8006  1.7140
   38POPC  H16S 5122   6.276   2.157   8.745  0.1167 -1.7954  2.7321
   38POPC  C217 5123   6.483   2.106   8.745  0.2748 -0.0408  0.7796
   38POPC  H17R 5124   6.522   2.210   8.742 -0.0136  0.0900  1.5107
   38POPC  H17S 5125   6.548   2.048   8.675 -0.9803 -0.1975 -0.3039
   38POPC  C218 5126   6.500   2.052   8.890 -0.3792 -0.6114  0.7583
   38POPC  H18R 5127   6.448   2.111   8.969 -0.7714 -0.4425  0.3821
   38POPC  H18S 5128   6.609   2.062   8.906 -0.3948  1.1075  0.0156
   38POPC  H18T 5129   6.473   1.944   8.893  0.1392 -0.8477 -1.4517
   38POPC   C33 5130   5.647   2.921   7.313  0.0158  0.4415 -0.6612
   38POPC   H3X 5131   5.659   2.814   7.286 -1.2594 -0.0852  0.7450
   38POPC   H3Y 5132   5.549   2.938   7.364 -1.1614 -0.2505 -2.5649
   38POPC   C34 5133   5.768   2.963   7.395  0.8216 -0.4720 -0.0946
   38POPC   H4X 5134   5.792   3.070   7.381  0.6633 -0.3907  0.2393
   38POPC   H4Y 5135   5.857   2.911   7.352 -0.1022  0.7669 -3.8667
   38POPC   C35 5136   5.749   2.933   7.542  0.0793  0.4467  0.1831
   38POPC   H5X 5137   5.643   2.927   7.575  0.1516  0.5719  0.4382
   38POPC   H5Y 5138   5.799   3.016   7.595  0.1746  1.6686 -1.7313
   38POPC   C36 5139   5.810   2.795   7.581  0.1268 -0.3036  0.3607
   38POPC   H6X 5140   5.920   2.809   7.571 -0.1974  1.1654 -1.7667
   38POPC   H6Y 5141   5.771   2.703   7.532  0.0901 -1.3804  2.3154
   38POPC   C37 5142   5.792   2.776   7.735 -0.3175  0.0140 -0.1448
   38POPC   H7X 5143   5.787   2.667   7.759  2.0219 -0.0186  0.4808
   38POPC   H7Y 5144   5.691   2.814   7.761  1.2671  4.5195  0.2394
   38POPC   C38 5145   5.891   2.853   7.823 -0.7659 -0.9225  0.3997
   38POPC   H8X 5146   5.898   2.954   7.778  2.2489 -1.3974 -0.4343
   38POPC   H8Y 5147   5.996   2.816   7.817 -0.6053 -0.5807  1.0809
   38POPC   C39 5148   5.841   2.850   7.963 -0.4995  0.3242  0.3713
   38POPC   H9X 5149   5.843   2.742   7.990  1.6654  0.6133  1.5761
   38POPC   H9Y 5150   5.737   2.888   7.957 -1.4316 -1.8157  1.7471
   38POPC  C310 5151   5.918   2.937   8.074  0.0961  0.4587  0.2063
   38POPC  H10X 5152   5.923   3.036   8.023 -0.3580  0.5424  0.3096
   38POPC  H10Y 5153   6.014   2.887   8.096 -1.5153 -1.7890  2.8301
   38POPC  C311 5154   5.840   2.946   8.212 -0.6293 -0.3648  0.4559
   38POPC  H11X 5155   5.821   2.846   8.258 -0.7149 -0.4789  0.1796
   38POPC  H11Y 5156   5.737   2.976   8.184 -0.0834  0.5653 -0.6120
   38POPC  C312 5157   5.902   3.042   8.319 -0.1553  0.2498 -0.2686
   38POPC  H12X 5158   5.818   3.061   8.390 -0.9413  0.7977 -1.3252
   38POPC  H12Y 5159   5.940   3.138   8.278  2.8131 -0.1253  1.3240
   38POPC  C313 5160   6.011   2.967   8.400  0.4791  0.2209  0.3045
   38POPC  H13X 5161   6.074   2.908   8.330 -0.8368 -1.8473  0.7565
   38POPC  H13Y 5162   5.951   2.897   8.462 -0.5240  0.9455  0.1845
   38POPC  C314 5163   6.091   3.061   8.488 -0.1672 -0.1239  0.3031
   38POPC  H14X 5164   6.012   3.111   8.548  0.7439  2.8335 -0.7506
   38POPC  H14Y 5165   6.133   3.141   8.422 -0.4478 -1.8946 -2.1736
   38POPC  C315 5166   6.200   2.989   8.557  0.2461  0.4939 -0.1348
   38POPC  H15X 5167   6.266   2.945   8.480  0.2652  0.6525 -0.2079
   38POPC  H15Y 5168   6.157   2.900   8.609  1.6786 -0.0336  0.1848
   38POPC  C316 5169   6.282   3.065   8.659 -1.2234  0.0824 -0.1069
   38POPC  H16X 5170   6.340   3.140   8.602  1.1449 -1.5835 -0.0479
   38POPC  H16Y 5171   6.344   2.997   8.720 -0.4897 -0.2686 -1.2082
   38POPC  H16Z 5172   6.227   3.128   8.732 -1.7933  3.3726 -3.0981
   39POPC     N 5173   4.686   6.332   6.089 -0.1562  0.3624 -0.5316
   39POPC   C12 5174   4.664   6.349   6.240  0.2038 -0.0586 -0.7291
   39POPC  H12A 5175   4.620   6.256   6.274  3.8996 -0.7383  3.1486
   39POPC  H12B 5176   4.593   6.428   6.257  2.5456  1.9581  0.3750
   39POPC   C13 5177   4.770   6.211   6.059  0.2458 -0.2462 -0.1520
   39POPC  H13A 5178   4.872   6.222   6.095 -0.1850  0.4808  0.8719
   39POPC  H13B 5179   4.726   6.123   6.102 -1.2754  0.7194  0.3115
   39POPC  H13C 5180   4.770   6.187   5.953  2.7681  1.2437 -0.5953
   39POPC   C14 5181   4.548   6.294   6.045  0.0239  0.3848  0.2301
   39POPC  H14A 5182   4.512   6.199   6.082 -0.0299  0.1842 -0.3308
   39POPC  H14B 5183   4.477   6.373   6.065 -0.0193  0.7451 -1.2528
   39POPC  H14C 5184   4.562   6.273   5.940  0.5161  0.6956  0.2288
   39POPC   C15 5185   4.724   6.454   6.028  0.2904 -0.6097  0.2179
   39POPC  H15A 5186   4.662   6.531   6.071  0.2019 -0.9495  0.7125
   39POPC  H15B 5187   4.709   6.443   5.922 -0.7029 -1.1549  0.3998
   39POPC  H15C 5188   4.827   6.485   6.042 -0.1819  0.3805  1.8300
   39POPC   C11 5189   4.792   6.366   6.322  0.2475 -0.4228 -0.5916
   39POPC  H11A 5190   4.756   6.371   6.427  0.7416  0.7467 -0.4585
   39POPC  H11B 5191   4.849   6.456   6.290  1.9168 -2.0217 -2.4068
   39POPC     P 5192   4.871   6.116   6.371  0.0091  0.2044  0.0872
   39POPC   O13 5193   4.932   6.023   6.276 -0.5394 -0.2731 -0.1964
   39POPC   O14 5194   4.731   6.088   6.407  0.0232  0.4531 -0.0632
   39POPC   O12 5195   4.882   6.258   6.304 -0.2822 -0.0940 -0.0020
   39POPC   O11 5196   4.956   6.137   6.504  0.4050  0.7724  0.0453
   39POPC    C1 5197   4.916   6.219   6.616 -0.2105  0.2699 -0.5685
   39POPC    HA 5198   4.806   6.225   6.624 -0.3933  0.4834 -2.6825
   39POPC    HB 5199   4.955   6.322   6.601 -2.0582  0.9821 -0.6777
   39POPC    C2 5200   4.960   6.162   6.753  0.0686  0.2413  0.3933
   39POPC    HS 5201   5.065   6.196   6.769  0.1931 -0.7888  1.9802
   39POPC   O21 5202   4.951   6.016   6.739  0.0446 -0.0065  0.3466
   39POPC   C21 5203   5.051   5.954   6.803 -0.0154  0.2375  0.4607
   39POPC   O22 5204   5.143   6.006   6.857 -0.0963  0.9019  0.3908
   39POPC   C22 5205   5.012   5.810   6.809 -0.6475 -0.4721 -0.7301
   39POPC   H2R 5206   5.093   5.765   6.869 -2.5385  1.5755  3.7855
   39POPC   H2S 5207   5.015   5.767   6.706 -1.5040  1.2129 -1.5039
   39POPC    C3 5208   4.885   6.227   6.870 -0.6055  0.9044  0.6861
   39POPC    HX 5209   4.780   6.190   6.866  0.2927 -2.0952  1.7485
   39POPC    HY 5210   4.894   6.337   6.863  0.5230  0.8113  0.4179
   39POPC   O31 5211   4.934   6.178   6.994 -0.1655  0.1458  0.4405
   39POPC   C31 5212   5.040   6.236   7.043 -0.7212  0.3083  0.4125
   39POPC   O32 5213   5.093   6.335   6.998 -0.8110 -0.3984  0.6163
   39POPC   C32 5214   5.084   6.158   7.169 -0.0660 -0.3531  0.5044
   39POPC   H2X 5215   4.995   6.116   7.219 -0.9617  0.8673 -0.0194
   39POPC   H2Y 5216   5.149   6.078   7.127 -0.2892 -0.0054 -0.5442
   39POPC   C23 5217   4.877   5.769   6.878  0.4347 -0.7119 -0.7563
   39POPC   H3R 5218   4.855   5.660   6.877 -1.5502 -0.3506 -0.5618
   39POPC   H3S 5219   4.789   5.802   6.819 -0.8397  0.4428  1.6690
   39POPC   C24 5220   4.848   5.819   7.019  0.0719 -0.2342  0.0352
   39POPC   H4R 5221   4.759   5.758   7.046  1.2618 -1.3291  1.6399
   39POPC   H4S 5222   4.805   5.921   7.023 -1.6724 -0.9180 -0.0423
   39POPC   C25 5223   4.947   5.774   7.124 -0.4810 -0.4280  0.0817
   39POPC   H5R 5224   5.043   5.828   7.109  0.4552 -2.2605 -0.9442
   39POPC   H5S 5225   4.974   5.667   7.109 -0.3573 -0.3640 -0.1688
   39POPC   C26 5226   4.899   5.778   7.267  0.7290 -0.1596 -0.9669
   39POPC   H6R 5227   4.819   5.703   7.274 -0.0164  0.6330 -0.8065
   39POPC   H6S 5228   4.843   5.868   7.301 -1.6028 -1.5914 -0.8752
   39POPC   C27 5229   5.010   5.736   7.360  0.3015 -0.1922  0.6068
   39POPC   H7R 5230   5.081   5.822   7.368  1.5607 -0.9710 -1.3225
   39POPC   H7S 5231   5.067   5.653   7.314  0.5128  0.1163  0.2982
   39POPC   C28 5232   4.965   5.704   7.498  0.4319  0.9117  0.1376
   39POPC   H8R 5233   4.885   5.627   7.496  1.7742 -0.6107  1.5594
   39POPC   H8S 5234   4.932   5.798   7.545 -0.2797  1.5439 -1.5418
   39POPC   C29 5235   5.080   5.658   7.583  1.0639 -0.2846  0.2441
   39POPC   H91 5236   5.107   5.551   7.575 -1.5960 -1.1399  1.5132
   39POPC  C210 5237   5.144   5.732   7.682 -0.2130  0.1156 -0.1000
   39POPC  H101 5238   5.223   5.692   7.747 -1.0446 -1.3018  0.0788
   39POPC  C211 5239   5.111   5.877   7.712 -0.1177  0.1456 -0.1339
   39POPC  H11R 5240   5.084   5.934   7.621  1.2539 -0.8673 -1.2123
   39POPC  H11S 5241   5.193   5.929   7.766 -0.6749  0.6648  0.2143
   39POPC  C212 5242   4.994   5.870   7.816  0.3063 -0.4804  0.3015
   39POPC  H12R 5243   5.033   5.818   7.906 -3.1115 -0.7225  1.7910
   39POPC  H12S 5244   4.906   5.811   7.783 -0.1803  0.8439 -0.9003
   39POPC  C213 5245   4.945   6.007   7.880  0.3369 -0.6045 -0.0346
   39POPC  H13R 5246   4.877   6.058   7.809  1.5663 -1.4493 -1.9130
   39POPC  H13S 5247   5.038   6.067   7.895 -1.5877  2.8410 -0.6630
   39POPC  C214 5248   4.882   5.989   8.021  0.9249 -0.0597 -1.2473
   39POPC  H14R 5249   4.854   6.092   8.051  0.9995 -0.8694  1.9305
   39POPC  H14S 5250   4.943   5.933   8.094 -2.3521  0.2266  2.0022
   39POPC  C215 5251   4.742   5.924   8.015 -0.2554  0.0831 -0.1264
   39POPC  H15R 5252   4.756   5.832   7.954  0.8071 -1.4269  2.2514
   39POPC  H15S 5253   4.672   5.992   7.962 -0.4748  0.1233  0.2164
   39POPC  C216 5254   4.693   5.890   8.152  0.0807 -0.6529  0.0343
   39POPC  H16R 5255   4.585   5.870   8.143  0.2685 -0.9322 -2.1866
   39POPC  H16S 5256   4.702   5.981   8.216 -0.6851 -2.1509  2.3831
   39POPC  C217 5257   4.756   5.765   8.222 -0.0007 -0.1783 -0.4003
   39POPC  H17R 5258   4.866   5.780   8.234 -0.0878 -0.0539  0.2929
   39POPC  H17S 5259   4.736   5.685   8.148 -1.6669 -0.1967  0.0251
   39POPC  C218 5260   4.685   5.736   8.353 -0.2934  0.7597 -0.3670
   39POPC  H18R 5261   4.674   5.819   8.426 -2.3047 -0.8561  1.3078
   39POPC  H18S 5262   4.734   5.653   8.408  0.7363  1.2074 -0.5857
   39POPC  H18T 5263   4.577   5.721   8.334 -0.2485 -0.2077  0.1078
   39POPC   C33 5264   5.160   6.240   7.271  0.0972 -0.0218  0.2389
   39POPC   H3X 5265   5.109   6.336   7.295 -0.8447 -0.9337  2.1711
   39POPC   H3Y 5266   5.263   6.259   7.234  0.5112  2.9929  2.4763
   39POPC   C34 5267   5.176   6.176   7.416 -0.0781 -0.2227  0.1399
   39POPC   H4X 5268   5.214   6.073   7.403 -0.2955 -0.5437  1.8348
   39POPC   H4Y 5269   5.071   6.166   7.452  0.0241 -0.0515  0.4908
   39POPC   C35 5270   5.266   6.253   7.514  0.0043  0.6243 -0.1882
   39POPC   H5X 5271   5.239   6.361   7.503  2.4823  1.2289 -0.9057
   39POPC   H5Y 5272   5.371   6.237   7.483 -0.4478  1.2031 -2.1927
   39POPC   C36 5273   5.241   6.209   7.659  0.1854  0.8103  0.0940
   39POPC   H6X 5274   5.250   6.098   7.655  0.9745  0.8648  0.1211
   39POPC   H6Y 5275   5.136   6.228   7.690 -0.3595 -0.8990 -0.5521
   39POPC   C37 5276   5.335   6.265   7.768  0.2182  0.0035  0.9599
   39POPC   H7X 5277   5.291   6.367   7.774  1.2083  0.4873  0.3450
   39POPC   H7Y 5278   5.435   6.289   7.726 -0.0298  2.0189  1.3934
   39POPC   C38 5279   5.344   6.191   7.901 -0.7259  0.1504  0.0465
   39POPC   H8X 5280   5.377   6.087   7.879  2.4610  0.3431  2.9624
   39POPC   H8Y 5281   5.244   6.177   7.946  0.0648  0.4603  2.0015
   39POPC   C39 5282   5.437   6.253   8.006 -0.2662 -0.8921 -0.1892
   39POPC   H9X 5283   5.413   6.360   8.023  0.0522 -0.8733  0.1607
   39POPC   H9Y 5284   5.542   6.247   7.968  0.7363 -0.8549  2.3662
   39POPC  C310 5285   5.421   6.190   8.144 -1.0137  0.2408  0.0274
   39POPC  H10X 5286   5.460   6.087   8.132  0.9988  0.7989  1.3140
   39POPC  H10Y 5287   5.314   6.186   8.175 -0.2240 -1.0302  3.0009
   39POPC  C311 5288   5.507   6.256   8.252  0.7676 -0.6786 -0.8857
   39POPC  H11X 5289   5.442   6.345   8.267 -0.0802 -1.6753  1.9883
   39POPC  H11Y 5290   5.605   6.285   8.208  0.3048  0.4434 -1.2090
   39POPC  C312 5291   5.531   6.186   8.386 -0.4246  0.1034 -0.4725
   39POPC  H12X 5292   5.601   6.102   8.368 -0.3418 -0.2383  1.2807
   39POPC  H12Y 5293   5.433   6.154   8.428 -1.4319  1.9515 -1.2700
   39POPC  C313 5294   5.597   6.284   8.479 -0.1253  0.1251 -0.2126
   39POPC  H13X 5295   5.537   6.376   8.499  2.5512  1.9115  0.1211
   39POPC  H13Y 5296   5.699   6.312   8.445 -0.0812  1.2094  0.7793
   39POPC  C314 5297   5.627   6.219   8.617 -0.0806 -0.1691 -0.2343
   39POPC  H14X 5298   5.689   6.281   8.685 -0.2564 -0.1022 -0.1349
   39POPC  H14Y 5299   5.688   6.127   8.608 -1.2289 -0.8265 -1.6006
   39POPC  C315 5300   5.497   6.211   8.698 -0.3569  0.4218  0.0900
   39POPC  H15X 5301   5.444   6.115   8.678 -2.3076  1.6885 -1.1410
   39POPC  H15Y 5302   5.432   6.297   8.674  1.1796  1.2480 -1.2899
   39POPC  C316 5303   5.510   6.222   8.844 -0.0272  0.8299 -1.0896
   39POPC  H16X 5304   5.569   6.138   8.887 -1.8010  0.9997  1.9960
   39POPC  H16Y 5305   5.412   6.234   8.895  0.6247  1.6468  0.0083
   39POPC  H16Z 5306   5.567   6.310   8.879 -3.1696  2.7254 -0.3554
   40POPC     N 5307   3.793   3.791   6.391 -0.1756  0.3436  0.3451
   40POPC   C12 5308   3.839   3.752   6.525 -0.7366 -0.2172 -0.5579
   40POPC  H12A 5309   3.771   3.808   6.588 -1.7776 -3.2372  1.2011
   40POPC  H12B 5310   3.939   3.780   6.555 -1.2258  0.3540  0.6308
   40POPC   C13 5311   3.637   3.772   6.388 -0.7220  0.0487 -0.2205
   40POPC  H13A 5312   3.612   3.669   6.403 -0.1962 -0.1220 -0.4914
   40POPC  H13B 5313   3.585   3.820   6.470 -0.4257 -1.8909  1.1678
   40POPC  H13C 5314   3.589   3.813   6.300 -2.3031 -1.0699  0.0991
   40POPC   C14 5315   3.817   3.939   6.368  0.0387 -0.4670 -0.2190
   40POPC  H14A 5316   3.781   3.966   6.270  0.0191  0.2761 -0.0197
   40POPC  H14B 5317   3.773   3.988   6.454  0.0849 -2.1890  0.8302
   40POPC  H14C 5318   3.922   3.965   6.367 -0.1445  0.6001  1.9698
   40POPC   C15 5319   3.853   3.715   6.275  0.0804  0.0173  0.2141
   40POPC  H15A 5320   3.960   3.730   6.278  0.0072  0.4849  0.8100
   40POPC  H15B 5321   3.807   3.740   6.180  0.0107  0.8059  0.4483
   40POPC  H15C 5322   3.837   3.612   6.301  1.5415  0.0550  1.3352
   40POPC   C11 5323   3.814   3.600   6.566 -0.8985 -0.2572 -0.1808
   40POPC  H11A 5324   3.705   3.579   6.557 -0.5426 -1.6976 -1.6076
   40POPC  H11B 5325   3.847   3.583   6.670 -0.2078 -1.3716 -0.5528
   40POPC     P 5326   3.852   3.369   6.447 -0.1319  0.0745 -0.0072
   40POPC   O13 5327   3.961   3.309   6.365  0.6429 -0.1482 -0.3173
   40POPC   O14 5328   3.718   3.358   6.395 -0.2462 -0.3636  0.0700
   40POPC   O12 5329   3.896   3.518   6.482 -0.7404 -0.3535 -0.2290
   40POPC   O11 5330   3.864   3.285   6.581 -0.2667  0.2941 -0.1394
   40POPC    C1 5331   3.766   3.293   6.683 -0.5504 -0.7764 -0.0696
   40POPC    HA 5332   3.681   3.361   6.659 -0.3366  0.2379  1.8229
   40POPC    HB 5333   3.819   3.327   6.775  0.5163  0.2140 -1.0101
   40POPC    C2 5334   3.697   3.160   6.711  0.9814 -0.2727  0.5917
   40POPC    HS 5335   3.634   3.129   6.625 -2.2982 -0.5863  2.9693
   40POPC   O21 5336   3.609   3.191   6.823  0.2835 -0.0810  0.2494
   40POPC   C21 5337   3.518   3.102   6.845  0.2785  0.0669  0.6124
   40POPC   O22 5338   3.505   2.990   6.796 -0.2112 -0.7382  0.5035
   40POPC   C22 5339   3.406   3.165   6.930  0.3428 -0.1991  0.9991
   40POPC   H2R 5340   3.333   3.218   6.865 -1.4919 -1.9158  1.5593
   40POPC   H2S 5341   3.451   3.243   6.995  1.8909  0.4450 -0.7545
   40POPC    C3 5342   3.807   3.053   6.753  0.3109 -0.5281 -0.3962
   40POPC    HX 5343   3.867   3.055   6.660 -1.1901  0.0082 -1.3900
   40POPC    HY 5344   3.760   2.958   6.787  2.0084 -1.5528 -0.7988
   40POPC   O31 5345   3.889   3.105   6.860  0.0282  0.1762 -0.0025
   40POPC   C31 5346   3.845   3.083   6.981  0.1232  0.4853  0.3694
   40POPC   O32 5347   3.760   3.002   7.011  0.5190 -0.4583  0.4465
   40POPC   C32 5348   3.934   3.161   7.075  0.1239 -0.1333  0.2564
   40POPC   H2X 5349   3.893   3.264   7.076  0.9068  0.1852  0.0166
   40POPC   H2Y 5350   4.036   3.165   7.032 -0.2542  0.7661 -0.5865
   40POPC   C23 5351   3.326   3.068   7.013 -0.0297 -0.4880  0.6594
   40POPC   H3R 5352   3.319   2.966   6.969 -2.0013  0.6789 -1.9750
   40POPC   H3S 5353   3.228   3.120   7.017 -0.2893 -0.9527  0.4787
   40POPC   C24 5354   3.382   3.067   7.150 -0.1068 -0.1520 -0.7354
   40POPC   H4R 5355   3.409   3.170   7.182  0.8970 -0.3394 -0.9230
   40POPC   H4S 5356   3.470   2.999   7.154 -0.4281 -0.5436  0.2047
   40POPC   C25 5357   3.295   3.002   7.259 -0.0758 -0.9779  0.3546
   40POPC   H5R 5358   3.273   2.895   7.239 -0.9852 -0.3068 -2.7933
   40POPC   H5S 5359   3.189   3.036   7.254 -0.4113 -2.0870 -0.4352
   40POPC   C26 5360   3.346   3.027   7.405  0.2279  0.5543  0.3708
   40POPC   H6R 5361   3.259   3.027   7.473 -0.2606 -2.7352 -0.0983
   40POPC   H6S 5362   3.398   3.125   7.399  0.6202  0.2530 -2.1501
   40POPC   C27 5363   3.446   2.923   7.460 -0.3876  0.0627 -0.5662
   40POPC   H7R 5364   3.523   2.904   7.382  1.5549 -1.1438  1.5162
   40POPC   H7S 5365   3.393   2.826   7.463 -1.4966  0.6183  3.6993
   40POPC   C28 5366   3.516   2.959   7.591  0.9338  0.0846 -0.0243
   40POPC   H8R 5367   3.575   3.050   7.565 -0.4684  0.7714 -0.9540
   40POPC   H8S 5368   3.585   2.876   7.617  1.8759  1.1860  1.1104
   40POPC   C29 5369   3.415   2.987   7.700 -0.1689 -0.8952  0.0673
   40POPC   H91 5370   3.334   3.051   7.664  1.3695 -0.1933 -2.4456
   40POPC  C210 5371   3.417   2.938   7.825 -0.6128  0.3544 -0.2121
   40POPC  H101 5372   3.336   2.961   7.897 -0.6168 -0.4518  0.0472
   40POPC  C211 5373   3.522   2.842   7.870  0.2472  0.1266  0.4020
   40POPC  H11R 5374   3.619   2.860   7.818  0.4367  0.0360  0.7235
   40POPC  H11S 5375   3.481   2.742   7.845  0.7709  0.3300 -1.4253
   40POPC  C212 5376   3.555   2.851   8.020  0.2401 -0.0815 -0.2155
   40POPC  H12R 5377   3.585   2.954   8.050  0.6310 -0.5257  0.9898
   40POPC  H12S 5378   3.652   2.796   8.026  0.4017  0.2137 -0.1260
   40POPC  C213 5379   3.441   2.801   8.110  0.9324 -0.1851 -0.5893
   40POPC  H13R 5380   3.405   2.706   8.066  1.1513 -0.2253 -0.6820
   40POPC  H13S 5381   3.356   2.872   8.116 -0.1844 -1.3901 -1.6986
   40POPC  C214 5382   3.487   2.768   8.252  0.1418  0.3358  0.1938
   40POPC  H14R 5383   3.396   2.737   8.308  0.9797  1.1082  2.0686
   40POPC  H14S 5384   3.513   2.863   8.303 -0.0816  0.8312 -0.5925
   40POPC  C215 5385   3.589   2.653   8.268 -0.4176  0.5130 -0.1289
   40POPC  H15R 5386   3.677   2.691   8.213  1.5001  0.2098  2.4940
   40POPC  H15S 5387   3.546   2.570   8.208 -0.6170  1.1687 -0.9070
   40POPC  C216 5388   3.614   2.605   8.408  0.6485 -1.0564  0.3748
   40POPC  H16R 5389   3.678   2.669   8.472  2.6102 -0.1657 -2.2961
   40POPC  H16S 5390   3.682   2.518   8.398  3.0874  0.6933  0.8009
   40POPC  C217 5391   3.493   2.558   8.487  0.1178  0.1228  0.4443
   40POPC  H17R 5392   3.430   2.488   8.427 -1.3959 -0.5377  2.6660
   40POPC  H17S 5393   3.423   2.640   8.513  0.8974  1.6350 -1.8964
   40POPC  C218 5394   3.537   2.495   8.621  0.1122 -0.4941 -0.1629
   40POPC  H18R 5395   3.586   2.563   8.695 -1.4799  0.7646 -0.2012
   40POPC  H18S 5396   3.609   2.415   8.595 -1.6471 -1.0152 -3.9916
   40POPC  H18T 5397   3.449   2.466   8.682  1.3902  0.3546  2.2403
   40POPC   C33 5398   3.946   3.095   7.215 -0.5943 -0.2268 -0.1949
   40POPC   H3X 5399   4.038   3.134   7.264 -1.0820  0.0338  0.5280
   40POPC   H3Y 5400   3.958   2.985   7.199 -0.2569 -0.2536  0.2325
   40POPC   C34 5401   3.822   3.113   7.300 -0.2496 -0.3904  0.2097
   40POPC   H4X 5402   3.760   3.023   7.281 -1.5185  0.6010 -0.5163
   40POPC   H4Y 5403   3.770   3.203   7.260  1.0536 -0.7659 -2.4988
   40POPC   C35 5404   3.853   3.151   7.450 -0.8240 -0.3595 -0.2341
   40POPC   H5X 5405   3.754   3.174   7.497  0.0388  2.6402  0.3512
   40POPC   H5Y 5406   3.918   3.240   7.435  0.3002 -1.0558  0.3490
   40POPC   C36 5407   3.924   3.041   7.530 -0.9750 -0.3798 -0.1311
   40POPC   H6X 5408   4.033   3.047   7.511 -0.9715  2.4771  0.3647
   40POPC   H6Y 5409   3.893   2.939   7.496  1.6761 -1.5554  0.7168
   40POPC   C37 5410   3.914   3.034   7.683  0.0996 -0.7006  0.2638
   40POPC   H7X 5411   3.817   3.076   7.718  1.0535  0.4157  1.6804
   40POPC   H7Y 5412   3.996   3.093   7.729 -0.0871  1.4235 -1.9295
   40POPC   C38 5413   3.935   2.896   7.745 -0.1467 -0.0628 -0.3799
   40POPC   H8X 5414   4.008   2.835   7.688  0.3324 -1.2882  1.4885
   40POPC   H8Y 5415   3.838   2.845   7.723  0.3796 -0.9832 -0.6222
   40POPC   C39 5416   3.955   2.885   7.898  0.3061 -0.3999  0.1562
   40POPC   H9X 5417   3.868   2.929   7.951 -0.1686 -1.5916  0.4054
   40POPC   H9Y 5418   4.046   2.942   7.929  1.3740 -0.3836 -2.7246
   40POPC  C310 5419   3.964   2.743   7.952 -0.1921 -0.7748  0.4068
   40POPC  H10X 5420   4.028   2.681   7.885  0.7570 -0.3182  0.8679
   40POPC  H10Y 5421   3.865   2.693   7.956 -1.7159  2.0947  1.2759
   40POPC  C311 5422   4.028   2.739   8.094  0.0054  0.2069  0.2520
   40POPC  H11X 5423   3.970   2.807   8.161 -1.5894  0.1279 -0.9919
   40POPC  H11Y 5424   4.138   2.749   8.092  0.1080 -0.8329  0.4089
   40POPC  C312 5425   4.011   2.591   8.140 -0.0300  0.3548  0.3770
   40POPC  H12X 5426   4.085   2.523   8.092 -1.3794 -0.3200 -0.8311
   40POPC  H12Y 5427   3.908   2.554   8.118 -0.3976  0.8082  1.2935
   40POPC  C313 5428   4.030   2.589   8.292  0.2508 -0.0892  0.1375
   40POPC  H13X 5429   3.973   2.674   8.337  0.1835  0.7728 -1.4721
   40POPC  H13Y 5430   4.136   2.623   8.294 -0.0708  2.5755 -5.6245
   40POPC  C314 5431   3.982   2.457   8.364 -0.3065  0.4244 -0.4215
   40POPC  H14X 5432   4.017   2.370   8.305 -0.2950 -0.8977  1.4241
   40POPC  H14Y 5433   3.871   2.456   8.357 -0.5318 -1.6465  2.0601
   40POPC  C315 5434   4.038   2.454   8.519 -0.3030 -0.4466 -0.8895
   40POPC  H15X 5435   4.027   2.554   8.567  0.8877 -0.0192 -1.4651
   40POPC  H15Y 5436   4.148   2.439   8.512 -0.5252 -2.0937 -1.2308
   40POPC  C316 5437   3.982   2.340   8.602  0.2477  0.8864 -0.0741
   40POPC  H16X 5438   3.948   2.253   8.542  0.9896 -0.4696  1.4153
   40POPC  H16Y 5439   3.895   2.365   8.665 -1.1969 -1.3268 -1.0583
   40POPC  H16Z 5440   4.064   2.310   8.671  1.2699  2.7958 -0.3799
   41CHL1    C3 5441   1.734   1.895  10.266  1.0728  0.4058  0.8080
   41CHL1    H3 5442   1.706   2.002  10.250 -2.0673 -0.2354  1.4399
   41CHL1    O3 5443   1.743   1.874  10.402 -0.2797  0.1232 -0.5410
   41CHL1   H3' 5444   1.791   1.792  10.411 -0.0985  0.3556  0.7886
   41CHL1    C4 5445   1.617   1.815  10.202 -0.0607  0.2049 -0.2510
   41CHL1   H4A 5446   1.639   1.708  10.220 -1.8644  0.1433  2.2914
   41CHL1   H4B 5447   1.533   1.848  10.268  0.8467  1.3203  0.4031
   41CHL1    C5 5448   1.596   1.841  10.058  0.8332  0.9426  0.5822
   41CHL1    C6 5449   1.493   1.892   9.995 -0.6696 -0.3943 -0.4117
   41CHL1    H6 5450   1.402   1.912  10.054 -0.9397 -0.1711 -0.8962
   41CHL1    C7 5451   1.475   1.936   9.852  0.6805 -0.1448  0.2006
   41CHL1   H7A 5452   1.376   1.912   9.808  0.1635 -0.2316  1.3633
   41CHL1   H7B 5453   1.488   2.046   9.856  1.1496 -0.1675 -0.4394
   41CHL1    C8 5454   1.577   1.871   9.761  0.4346 -0.0509  0.2971
   41CHL1    H8 5455   1.532   1.770   9.749  0.2090 -0.1639  1.9470
   41CHL1   C14 5456   1.578   1.947   9.622  0.0579 -0.0845 -0.3304
   41CHL1   H14 5457   1.612   2.050   9.646  2.5996 -0.9779  0.2277
   41CHL1   C15 5458   1.448   1.967   9.541 -0.2917 -0.3113 -0.1866
   41CHL1  H15A 5459   1.382   1.877   9.534 -0.3411 -0.3612  0.8032
   41CHL1  H15B 5460   1.385   2.052   9.575 -1.6755 -0.4185 -2.2790
   41CHL1   C16 5461   1.501   2.013   9.403  0.2240  0.5165 -0.4055
   41CHL1  H16A 5462   1.456   1.962   9.315  2.3705 -0.2938 -1.1047
   41CHL1  H16B 5463   1.483   2.122   9.389  1.7079  0.7550 -0.6309
   41CHL1   C17 5464   1.658   1.995   9.408 -0.0377 -0.2068 -0.0029
   41CHL1   H17 5465   1.700   2.095   9.431 -1.5056  1.3713 -3.4209
   41CHL1   C13 5466   1.678   1.893   9.517 -0.4137 -0.1962 -0.0929
   41CHL1   C18 5467   1.632   1.751   9.466 -0.5753  0.3682  0.2923
   41CHL1  H18A 5468   1.701   1.724   9.383  0.1070  0.3933  0.8389
   41CHL1  H18B 5469   1.633   1.665   9.537 -0.9306 -0.5761 -0.8052
   41CHL1  H18C 5470   1.533   1.753   9.416 -0.3983 -0.5227 -0.1299
   41CHL1   C12 5471   1.821   1.891   9.589  0.9837 -0.2559  0.0063
   41CHL1  H12A 5472   1.895   1.845   9.520  2.0242  0.6268  0.5126
   41CHL1  H12B 5473   1.852   1.996   9.606 -0.2953  0.0668  0.5106
   41CHL1   C11 5474   1.819   1.817   9.719  0.0951  0.2867  0.2474
   41CHL1  H11A 5475   1.790   1.712   9.694 -2.8357  0.7401  1.2662
   41CHL1  H11B 5476   1.917   1.806   9.769  0.7975  1.4417 -0.8115
   41CHL1    C9 5477   1.716   1.862   9.819  0.3202 -0.0961 -1.1043
   41CHL1    H9 5478   1.742   1.970   9.822  0.2425 -0.0950  0.3254
   41CHL1   C10 5479   1.722   1.812   9.966  0.3382 -0.0072  0.0346
   41CHL1   C19 5480   1.741   1.660   9.955  0.2711  0.0971 -0.3664
   41CHL1  H19A 5481   1.829   1.637   9.890  0.6867 -1.4680  0.6751
   41CHL1  H19B 5482   1.772   1.624  10.056  0.8992 -0.8596 -0.8852
   41CHL1  H19C 5483   1.651   1.605   9.920  0.1835  0.8178 -1.2781
   41CHL1    C1 5484   1.842   1.880  10.035 -0.2455 -0.1476 -0.5315
   41CHL1   H1A 5485   1.926   1.830   9.982 -0.3231 -0.2891 -0.5234
   41CHL1   H1B 5486   1.845   1.986  10.003 -0.3380 -0.1945 -0.6999
   41CHL1    C2 5487   1.861   1.857  10.187 -0.2124 -0.1690 -0.2207
   41CHL1   H2A 5488   1.949   1.911  10.229  0.4708 -1.1458 -0.3710
   41CHL1   H2B 5489   1.887   1.752  10.212  1.6397  0.4848  0.8224
   41CHL1   C20 5490   1.697   1.971   9.262 -0.7377  0.8639 -0.2720
   41CHL1   H20 5491   1.683   1.867   9.226  1.1185  0.2533  0.6732
   41CHL1   C21 5492   1.852   1.980   9.246 -0.5671 -0.1358 -0.0616
   41CHL1  H21A 5493   1.896   2.081   9.262 -0.9426 -0.0734  0.5834
   41CHL1  H21B 5494   1.878   1.941   9.145  1.5690  0.5724  0.1631
   41CHL1  H21C 5495   1.900   1.909   9.317  0.2333 -0.2170 -0.6663
   41CHL1   C22 5496   1.637   2.077   9.169  0.6650  0.0607 -0.0755
   41CHL1  H22A 5497   1.528   2.074   9.150  0.0517  0.6699  2.8304
   41CHL1  H22B 5498   1.665   2.179   9.203 -0.1427  0.5788 -0.9274
   41CHL1   C23 5499   1.679   2.062   9.020 -0.5260  0.7424  0.9081
   41CHL1  H23A 5500   1.789   2.081   9.017 -0.5267  0.6455  0.0480
   41CHL1  H23B 5501   1.652   1.958   8.992 -1.0034  1.3714 -1.1450
   41CHL1   C24 5502   1.609   2.155   8.929 -0.2986  0.1945 -0.0404
   41CHL1  H24A 5503   1.615   2.126   8.822 -0.2163  1.8039 -0.4938
   41CHL1  H24B 5504   1.505   2.150   8.969 -0.1659  2.0437  0.6322
   41CHL1   C25 5505   1.670   2.299   8.934  0.4265  0.4867 -0.5730
   41CHL1   H25 5506   1.706   2.329   9.035 -1.4331  2.0570 -0.3062
   41CHL1   C26 5507   1.774   2.313   8.830  0.2959 -0.2658  0.3196
   41CHL1  H26A 5508   1.736   2.284   8.730 -1.6015  0.2478  0.8498
   41CHL1  H26B 5509   1.806   2.418   8.817 -0.8106  0.3029  1.8115
   41CHL1  H26C 5510   1.860   2.247   8.856  1.3690  0.6599 -0.7932
   41CHL1   C27 5511   1.563   2.408   8.920 -0.1917  0.5169 -0.4599
   41CHL1  H27A 5512   1.500   2.418   9.010  0.0796  2.6223 -0.4504
   41CHL1  H27B 5513   1.614   2.506   8.909 -0.8304  0.8711 -0.2695
   41CHL1  H27C 5514   1.493   2.385   8.837  0.1117 -0.5512 -0.4393
   42CHL1    C3 5515   0.881   1.230   9.885 -0.3833 -0.7409 -0.0629
   42CHL1    H3 5516   0.985   1.266   9.900 -1.3645  2.5789 -0.4050
   42CHL1    O3 5517   0.815   1.220  10.008 -0.1099  0.4999 -0.3347
   42CHL1   H3' 5518   0.824   1.309  10.041 -0.5724  1.6473 -3.0595
   42CHL1    C4 5519   0.810   1.346   9.807 -0.2501  0.0764  0.4216
   42CHL1   H4A 5520   0.700   1.330   9.803 -0.1500 -0.7451  0.8482
   42CHL1   H4B 5521   0.831   1.440   9.861 -1.1238  0.2403  0.4874
   42CHL1    C5 5522   0.874   1.364   9.664  0.1579  0.0811 -1.4123
   42CHL1    C6 5523   0.934   1.478   9.616 -0.1275 -0.2558  0.4935
   42CHL1    H6 5524   0.943   1.569   9.677  0.2549 -0.6983  1.1158
   42CHL1    C7 5525   0.977   1.491   9.474  0.2362  0.4278  0.4110
   42CHL1   H7A 5526   0.949   1.589   9.430  1.5467  0.2336 -0.9563
   42CHL1   H7B 5527   1.087   1.496   9.481  0.5150 -1.1498 -1.7115
   42CHL1    C8 5528   0.933   1.379   9.377  0.2214 -0.9431  0.2346
   42CHL1    H8 5529   0.828   1.385   9.340  0.5216 -0.7371 -0.6090
   42CHL1   C14 5530   1.028   1.382   9.253  0.2931  0.2340 -1.1336
   42CHL1   H14 5531   1.132   1.379   9.292  1.3068  0.6973 -3.6257
   42CHL1   C15 5532   1.022   1.500   9.160  0.3069  0.4418  0.8697
   42CHL1  H15A 5533   0.914   1.513   9.137  0.0692  0.1169  1.7614
   42CHL1  H15B 5534   1.071   1.596   9.184  2.2751 -0.4498  0.5689
   42CHL1   C16 5535   1.090   1.458   9.035 -0.6767 -0.3324  0.0356
   42CHL1  H16A 5536   1.036   1.495   8.944  0.4732 -3.3191 -2.0035
   42CHL1  H16B 5537   1.192   1.499   9.022  0.0863 -1.3373  2.3912
   42CHL1   C17 5538   1.103   1.298   9.039  0.3414 -0.7516  0.4503
   42CHL1   H17 5539   1.208   1.276   9.067 -0.5500 -4.5776  1.3640
   42CHL1   C13 5540   1.008   1.256   9.159  0.2753 -0.4562 -0.0310
   42CHL1   C18 5541   0.861   1.244   9.104  0.1755 -0.2873 -0.2354
   42CHL1  H18A 5542   0.789   1.250   9.188  1.4062 -1.7335  0.9840
   42CHL1  H18B 5543   0.841   1.331   9.037 -1.6031 -1.4575 -1.2968
   42CHL1  H18C 5544   0.851   1.156   9.038  0.6221  1.4701 -2.8226
   42CHL1   C12 5545   1.045   1.130   9.239 -0.2950 -0.1381  0.3802
   42CHL1  H12A 5546   1.040   1.036   9.179  1.5651 -1.2358  1.8249
   42CHL1  H12B 5547   1.149   1.143   9.277 -0.6170  3.3521  0.4057
   42CHL1   C11 5548   0.951   1.111   9.361 -0.0043  0.1046  0.1508
   42CHL1  H11A 5549   0.848   1.089   9.326  0.7271  0.4471 -2.3941
   42CHL1  H11B 5550   0.998   1.022   9.409 -0.7712 -0.6340 -0.4373
   42CHL1    C9 5551   0.957   1.242   9.446  0.4339 -0.6838 -0.1591
   42CHL1    H9 5552   1.064   1.249   9.472  1.5518 -0.0339 -4.2292
   42CHL1   C10 5553   0.865   1.234   9.578  0.1117 -0.0456  0.7158
   42CHL1   C19 5554   0.718   1.214   9.547  0.4692  0.2947  0.6583
   42CHL1  H19A 5555   0.708   1.116   9.495  1.0395  0.6820 -0.2160
   42CHL1  H19B 5556   0.652   1.209   9.636  0.8874 -2.8047  0.9169
   42CHL1  H19C 5557   0.665   1.282   9.478 -0.0879 -0.4373  0.3557
   42CHL1    C1 5558   0.918   1.117   9.664 -0.0958 -0.0889  0.6420
   42CHL1   H1A 5559   0.886   1.023   9.615 -1.3148  0.7185 -0.1622
   42CHL1   H1B 5560   1.029   1.123   9.666  0.1213 -2.6063 -0.2304
   42CHL1    C2 5561   0.870   1.102   9.806 -0.1230  0.3262 -0.4570
   42CHL1   H2A 5562   0.928   1.020   9.854  0.6504  0.6305 -0.8572
   42CHL1   H2B 5563   0.766   1.064   9.802 -0.3420  0.9013 -0.3241
   42CHL1   C20 5564   1.086   1.236   8.894  0.0145 -0.4261 -0.5894
   42CHL1   H20 5565   0.995   1.285   8.854 -0.3094 -1.7594 -1.5485
   42CHL1   C21 5566   1.079   1.078   8.902  0.2419 -0.1387  0.0232
   42CHL1  H21A 5567   0.977   1.036   8.915  0.2251 -0.4924 -1.1561
   42CHL1  H21B 5568   1.146   1.044   8.983  1.8725  1.0030 -0.7942
   42CHL1  H21C 5569   1.109   1.042   8.801  3.6650  1.1479  0.4494
   42CHL1   C22 5570   1.208   1.277   8.808 -0.2032  0.2133 -0.5109
   42CHL1  H22A 5571   1.189   1.251   8.702 -0.3401 -0.5573 -0.3031
   42CHL1  H22B 5572   1.223   1.387   8.817 -2.2030  0.4899 -0.1252
   42CHL1   C23 5573   1.342   1.210   8.841 -0.7096  0.5971 -0.1651
   42CHL1  H23A 5574   1.368   1.217   8.948 -0.7578 -0.1942 -0.0914
   42CHL1  H23B 5575   1.336   1.101   8.819  2.4999 -0.4893  3.3463
   42CHL1   C24 5576   1.470   1.267   8.771 -0.0528 -0.3747 -0.0058
   42CHL1  H24A 5577   1.442   1.272   8.664 -0.2240  0.7401  0.0805
   42CHL1  H24B 5578   1.489   1.370   8.806 -0.6146 -0.7491  1.4788
   42CHL1   C25 5579   1.595   1.187   8.820 -0.2490  0.3744 -0.4011
   42CHL1   H25 5580   1.578   1.165   8.927 -0.6031 -1.3752 -0.7809
   42CHL1   C26 5581   1.622   1.056   8.746  0.3458  0.9511  0.8803
   42CHL1  H26A 5582   1.534   0.988   8.741  1.3234 -0.2857 -3.3599
   42CHL1  H26B 5583   1.661   1.079   8.645 -1.9156  0.8427 -0.0783
   42CHL1  H26C 5584   1.705   0.997   8.790 -0.2320  0.4365  1.3011
   42CHL1   C27 5585   1.723   1.272   8.823 -0.2109 -0.4608 -1.2348
   42CHL1  H27A 5586   1.811   1.209   8.850 -1.0175 -1.2517 -0.3358
   42CHL1  H27B 5587   1.742   1.313   8.722 -0.9402  2.6921 -0.1835
   42CHL1  H27C 5588   1.721   1.357   8.895  0.0686 -0.0307 -1.7315
   43CHL1    C3 5589   0.299   1.704  10.219 -0.0129 -0.1608 -0.4601
   43CHL1    H3 5590   0.213   1.772  10.199 -2.6784 -2.2691  2.6570
   43CHL1    O3 5591   0.280   1.682  10.360  0.3164 -0.0453  0.8084
   43CHL1   H3' 5592   0.262   1.588  10.365  0.2404 -0.3509 -2.4857
   43CHL1    C4 5593   0.265   1.577  10.143  0.1309 -1.2523 -0.0944
   43CHL1   H4A 5594   0.339   1.506  10.188  1.4394 -0.5797 -1.1050
   43CHL1   H4B 5595   0.163   1.540  10.162 -0.7053  0.8608 -0.2165
   43CHL1    C5 5596   0.283   1.600   9.996  0.4786  0.0782  0.2870
   43CHL1    C6 5597   0.184   1.570   9.914 -0.2885  0.5564  1.3691
   43CHL1    H6 5598   0.091   1.519   9.942  0.2913 -0.3801  1.6319
   43CHL1    C7 5599   0.194   1.591   9.759  0.6738 -0.2928  0.0516
   43CHL1   H7A 5600   0.149   1.509   9.701  0.7632 -0.6326  0.4544
   43CHL1   H7B 5601   0.135   1.680   9.727  0.2114 -1.7031 -3.3435
   43CHL1    C8 5602   0.344   1.608   9.719  0.0476  0.2262  0.2065
   43CHL1    H8 5603   0.377   1.502   9.711  2.4365  0.9494 -0.0797
   43CHL1   C14 5604   0.341   1.667   9.581 -0.2884 -0.0871 -0.2383
   43CHL1   H14 5605   0.316   1.775   9.591 -0.0967  0.1608 -1.9961
   43CHL1   C15 5606   0.255   1.597   9.477  0.3963  0.4027 -0.1878
   43CHL1  H15A 5607   0.265   1.488   9.497  2.7583  0.4724 -0.7703
   43CHL1  H15B 5608   0.149   1.631   9.466  1.1420  2.3914 -1.7301
   43CHL1   C16 5609   0.331   1.629   9.351  0.3890  0.4302 -0.0882
   43CHL1  H16A 5610   0.366   1.533   9.306 -0.8123 -0.8282  1.5381
   43CHL1  H16B 5611   0.270   1.691   9.281  1.3329  1.1433 -0.2952
   43CHL1   C17 5612   0.458   1.715   9.382  0.2643  0.1654 -0.3545
   43CHL1   H17 5613   0.420   1.817   9.406 -1.1462 -0.8206  1.9750
   43CHL1   C13 5614   0.488   1.675   9.525 -0.0479  0.3868  0.4550
   43CHL1   C18 5615   0.552   1.539   9.520 -0.4580  0.3125 -0.2091
   43CHL1  H18A 5616   0.553   1.499   9.624 -0.6468 -1.9578 -1.0119
   43CHL1  H18B 5617   0.495   1.468   9.455  1.6132 -0.9821 -0.7065
   43CHL1  H18C 5618   0.655   1.539   9.478  0.0194 -1.0728  0.8680
   43CHL1   C12 5619   0.570   1.769   9.620 -0.4294  0.5602 -0.1445
   43CHL1  H12A 5620   0.678   1.771   9.594 -0.3088  1.7791  0.3742
   43CHL1  H12B 5621   0.530   1.873   9.614 -0.6523  0.4085 -1.6530
   43CHL1   C11 5622   0.571   1.716   9.763  0.0572  0.0356  0.2243
   43CHL1  H11A 5623   0.634   1.625   9.768  1.2301  0.8636  1.0873
   43CHL1  H11B 5624   0.619   1.787   9.833 -1.6541 -0.2308  1.7374
   43CHL1    C9 5625   0.426   1.693   9.815 -0.0059  0.0412 -0.1839
   43CHL1    H9 5626   0.371   1.789   9.808  0.8802  0.4568 -2.4384
   43CHL1   C10 5627   0.420   1.653   9.962  0.1177  0.2708 -0.3629
   43CHL1   C19 5628   0.528   1.552   9.988 -0.5048  0.1760  0.1923
   43CHL1  H19A 5629   0.527   1.521  10.095  0.0517  2.4537  0.9057
   43CHL1  H19B 5630   0.510   1.460   9.927 -2.2256  0.3129  0.4570
   43CHL1  H19C 5631   0.629   1.598   9.979  0.7336 -1.6387  3.1700
   43CHL1    C1 5632   0.452   1.788  10.040  0.4631  0.0632  0.7552
   43CHL1   H1A 5633   0.560   1.811  10.025  0.2488  2.0104  1.7923
   43CHL1   H1B 5634   0.394   1.877  10.007  0.9110  0.2185  0.3716
   43CHL1    C2 5635   0.431   1.778  10.193  1.1066  0.4427 -0.2441
   43CHL1   H2A 5636   0.439   1.871  10.254 -3.4166 -0.1904  1.7097
   43CHL1   H2B 5637   0.504   1.700  10.225 -1.9539 -2.1697  0.9364
   43CHL1   C20 5638   0.557   1.707   9.273  0.6739  0.1649  0.7311
   43CHL1   H20 5639   0.568   1.597   9.262 -2.2286 -0.4441  2.7918
   43CHL1   C21 5640   0.702   1.768   9.302  0.0921 -0.0807 -0.4261
   43CHL1  H21A 5641   0.775   1.745   9.221  0.5106  1.8338 -0.6498
   43CHL1  H21B 5642   0.736   1.731   9.401 -0.1300  3.2632  1.0457
   43CHL1  H21C 5643   0.691   1.877   9.320  0.7051  0.0853 -0.9952
   43CHL1   C22 5644   0.501   1.751   9.130  0.3582  0.2824  0.1435
   43CHL1  H22A 5645   0.401   1.708   9.111  1.8843 -3.3336 -0.3957
   43CHL1  H22B 5646   0.500   1.862   9.129  2.9092  0.3720  0.6443
   43CHL1   C23 5647   0.583   1.706   9.012  0.3050 -0.0851  0.4969
   43CHL1  H23A 5648   0.538   1.768   8.933 -2.3907  0.6091  2.4365
   43CHL1  H23B 5649   0.688   1.736   9.031 -0.2832  1.6074  1.2324
   43CHL1   C24 5650   0.570   1.555   8.976 -0.3210 -0.0222  0.5300
   43CHL1  H24A 5651   0.615   1.488   9.053 -0.2670 -0.4226  0.1583
   43CHL1  H24B 5652   0.462   1.531   8.965 -0.8058  0.8731  2.7610
   43CHL1   C25 5653   0.627   1.530   8.826 -0.3011 -0.3038 -0.0856
   43CHL1   H25 5654   0.583   1.610   8.763  2.8988  0.6531 -1.2917
   43CHL1   C26 5655   0.780   1.562   8.809  0.0298  0.1362 -0.7118
   43CHL1  H26A 5656   0.834   1.495   8.880 -0.2898  0.4164 -0.2046
   43CHL1  H26B 5657   0.797   1.532   8.703 -1.0074  1.5637 -1.3066
   43CHL1  H26C 5658   0.821   1.665   8.821  3.7243 -1.1168 -1.1530
   43CHL1   C27 5659   0.598   1.387   8.777 -0.3152  0.9580  0.1862
   43CHL1  H27A 5660   0.660   1.317   8.838 -0.5004  0.7718  0.1609
   43CHL1  H27B 5661   0.490   1.365   8.791 -0.1336 -0.0757  0.0187
   43CHL1  H27C 5662   0.634   1.386   8.672  1.2346  1.1288  0.6891
   44CHL1    C3 5663   1.018   0.038  10.446  0.4264 -0.3446  1.1105
   44CHL1    H3 5664   1.047  -0.069  10.446  0.4611 -0.3362  1.5994
   44CHL1    O3 5665   1.008   0.074  10.580 -0.8191 -0.4226  0.2758
   44CHL1   H3' 5666   0.933   0.032  10.623  0.8064 -0.2201  3.6808
   44CHL1    C4 5667   1.138   0.107  10.376 -0.0147  0.1768 -0.1675
   44CHL1   H4A 5668   1.125   0.217  10.383  0.5361  0.1544  1.3980
   44CHL1   H4B 5669   1.227   0.082  10.437 -1.4983  1.2582  2.5928
   44CHL1    C5 5670   1.150   0.062  10.224  0.2888  0.2354  0.4967
   44CHL1    C6 5671   1.269   0.009  10.189  0.4272 -0.2586 -0.1582
   44CHL1    H6 5672   1.355   0.009  10.257  1.0615  0.4753 -0.9365
   44CHL1    C7 5673   1.298  -0.014  10.048 -0.2805  0.2488 -0.8501
   44CHL1   H7A 5674   1.395   0.029  10.015  0.3341  0.4722  1.0775
   44CHL1   H7B 5675   1.316  -0.123  10.039  0.4504  0.1935  0.8583
   44CHL1    C8 5676   1.184   0.019   9.958 -0.0167 -0.0712  0.0401
   44CHL1    H8 5677   1.198   0.123   9.922  3.0036 -1.1759 -2.5169
   44CHL1   C14 5678   1.201  -0.053   9.819 -0.0763 -0.4967 -0.2530
   44CHL1   H14 5679   1.186  -0.160   9.845 -1.7491 -0.0972  0.5901
   44CHL1   C15 5680   1.337  -0.041   9.751  0.3971  0.1199  0.4807
   44CHL1  H15A 5681   1.344   0.068   9.731 -0.2597  0.0633 -0.0945
   44CHL1  H15B 5682   1.425  -0.085   9.803 -0.1729 -0.7021  0.7607
   44CHL1   C16 5683   1.307  -0.100   9.611 -0.1265  0.2776 -0.7043
   44CHL1  H16A 5684   1.322  -0.023   9.533 -0.0733  0.1234 -0.8464
   44CHL1  H16B 5685   1.364  -0.191   9.584 -0.0171  0.7605 -2.1513
   44CHL1   C17 5686   1.150  -0.111   9.599  0.5325  0.9153 -0.2109
   44CHL1   H17 5687   1.123  -0.216   9.628  1.3301  0.0751 -2.3269
   44CHL1   C13 5688   1.096  -0.017   9.714 -0.1932 -0.5130  0.1662
   44CHL1   C18 5689   1.102   0.129   9.669  0.3356 -0.1782 -0.2282
   44CHL1  H18A 5690   1.204   0.152   9.631  0.8717  0.1575  1.2964
   44CHL1  H18B 5691   1.031   0.157   9.588 -2.3406  0.5134  2.1762
   44CHL1  H18C 5692   1.081   0.209   9.744 -2.2819  0.5011 -1.5610
   44CHL1   C12 5693   0.956  -0.042   9.769 -0.4853 -0.1232 -0.7296
   44CHL1  H12A 5694   0.876  -0.001   9.704 -0.9339  1.0919  0.5332
   44CHL1  H12B 5695   0.942  -0.151   9.787  1.7872 -0.2828  0.4385
   44CHL1   C11 5696   0.934   0.029   9.907 -0.4357  0.9794 -0.8336
   44CHL1  H11A 5697   0.938   0.138   9.884  0.9506  1.2437  0.5496
   44CHL1  H11B 5698   0.839   0.004   9.957  1.6826  1.6005  4.0170
   44CHL1    C9 5699   1.041  -0.004  10.015 -0.0139  0.3856  0.3680
   44CHL1    H9 5700   1.039  -0.114  10.033  0.1271  0.4934  1.0451
   44CHL1   C10 5701   1.019   0.073  10.144  0.0942 -0.0784  0.0427
   44CHL1   C19 5702   1.008   0.228  10.122  0.0076 -0.0058  0.0907
   44CHL1  H19A 5703   0.913   0.242  10.065  0.0085 -1.0135 -0.1712
   44CHL1  H19B 5704   0.998   0.283  10.218 -0.4223 -0.5833  0.3847
   44CHL1  H19C 5705   1.094   0.267  10.063 -0.4873  3.6718  1.5193
   44CHL1    C1 5706   0.896   0.025  10.224  0.4463  0.2914 -0.3439
   44CHL1   H1A 5707   0.803   0.044  10.168  0.6849  1.6535 -0.3280
   44CHL1   H1B 5708   0.898  -0.086  10.229  0.2977  0.3024 -0.0095
   44CHL1    C2 5709   0.891   0.064  10.372  0.4177  0.1892 -0.0303
   44CHL1   H2A 5710   0.808   0.010  10.421  0.3641 -1.0044 -1.3864
   44CHL1   H2B 5711   0.873   0.173  10.389  1.6214  0.4569 -0.3798
   44CHL1   C20 5712   1.110  -0.093   9.457  0.4252  0.3117  0.5432
   44CHL1   H20 5713   1.137   0.009   9.423 -0.5796  0.0659 -1.1373
   44CHL1   C21 5714   0.958  -0.108   9.451 -0.9068 -0.0315  0.0007
   44CHL1  H21A 5715   0.927  -0.128   9.345  0.9181  0.9472 -0.7538
   44CHL1  H21B 5716   0.906  -0.017   9.487  0.2029  1.1614 -1.2662
   44CHL1  H21C 5717   0.917  -0.192   9.511  1.0424 -0.6629  0.5147
   44CHL1   C22 5718   1.173  -0.190   9.357 -0.5382  0.3675  0.0356
   44CHL1  H22A 5719   1.280  -0.210   9.376 -1.0394 -2.8297  0.0403
   44CHL1  H22B 5720   1.130  -0.291   9.372  0.3612 -0.4706 -2.5732
   44CHL1   C23 5721   1.158  -0.147   9.213 -0.0446  0.2499  0.1365
   44CHL1  H23A 5722   1.055  -0.116   9.185 -0.5030  1.4750  2.8872
   44CHL1  H23B 5723   1.217  -0.057   9.187  1.1586 -0.3414  0.7569
   44CHL1   C24 5724   1.212  -0.267   9.130  0.7688 -0.5224 -0.5547
   44CHL1  H24A 5725   1.321  -0.273   9.146  0.4950 -1.3238  1.2714
   44CHL1  H24B 5726   1.149  -0.354   9.158  0.6419 -0.1971  0.1788
   44CHL1   C25 5727   1.194  -0.251   8.976  0.4868 -0.7184 -0.0920
   44CHL1   H25 5728   1.257  -0.168   8.938  1.6144 -1.6677 -0.3540
   44CHL1   C26 5729   1.258  -0.373   8.906  0.8423  0.2145  0.1621
   44CHL1  H26A 5730   1.369  -0.373   8.908  0.8719 -1.2583 -0.1690
   44CHL1  H26B 5731   1.224  -0.471   8.947  0.7435  0.0720 -0.2592
   44CHL1  H26C 5732   1.230  -0.368   8.799  0.1143  2.9937  0.4136
   44CHL1   C27 5733   1.048  -0.215   8.934  0.0495 -0.0968 -0.1980
   44CHL1  H27A 5734   0.969  -0.280   8.978 -1.4054  0.6604 -1.5623
   44CHL1  H27B 5735   1.019  -0.111   8.960 -0.7249  0.3111 -2.4728
   44CHL1  H27C 5736   1.034  -0.211   8.824  0.2798 -2.2758 -0.3526
   45CHL1    C3 5737   5.754   0.153  10.464 -0.3252  0.5167 -0.3846
   45CHL1    H3 5738   5.771   0.047  10.490 -1.6990  0.4863  0.4910
   45CHL1    O3 5739   5.746   0.230  10.586 -0.3222  0.0996  0.3950
   45CHL1   H3' 5740   5.812   0.299  10.588 -0.4457  0.3083 -1.0986
   45CHL1    C4 5741   5.857   0.203  10.370 -0.7802  0.3036  0.1006
   45CHL1   H4A 5742   5.833   0.309  10.348  1.8761  0.9391 -0.0441
   45CHL1   H4B 5743   5.951   0.215  10.427  0.3267  1.8371 -1.9289
   45CHL1    C5 5744   5.855   0.116  10.254 -0.4070 -0.5317  0.3701
   45CHL1    C6 5745   5.963   0.055  10.217  0.0053  1.0975  0.2002
   45CHL1    H6 5746   6.051   0.088  10.275  0.3021  3.3649 -1.4247
   45CHL1    C7 5747   5.981  -0.048  10.111 -0.1759 -0.6610 -0.2292
   45CHL1   H7A 5748   6.080  -0.030  10.063  0.6510 -0.5924  1.4286
   45CHL1   H7B 5749   5.989  -0.147  10.162  0.0950 -0.5635 -0.0801
   45CHL1    C8 5750   5.861  -0.066  10.010 -0.1257 -0.1694 -0.3295
   45CHL1    H8 5751   5.862  -0.174   9.985 -0.3318 -0.3629  0.4564
   45CHL1   C14 5752   5.869   0.004   9.876  0.4429  0.0278 -0.3886
   45CHL1   H14 5753   5.855   0.114   9.887  1.8376  0.0415  2.0981
   45CHL1   C15 5754   6.005  -0.020   9.798 -0.0632 -0.5158  0.4851
   45CHL1  H15A 5755   6.090   0.049   9.815 -0.8874  0.2554  1.6577
   45CHL1  H15B 5756   6.045  -0.112   9.846  1.5448 -0.4111 -0.5900
   45CHL1   C16 5757   5.979  -0.070   9.655 -0.3811  0.0683 -0.0980
   45CHL1  H16A 5758   5.988   0.014   9.582 -0.1365  0.0392 -0.1024
   45CHL1  H16B 5759   6.039  -0.151   9.607  0.1965  1.1486 -1.2780
   45CHL1   C17 5760   5.833  -0.120   9.673  0.4817  0.3365 -0.3895
   45CHL1   H17 5761   5.843  -0.214   9.732  0.2935 -0.0737 -0.9964
   45CHL1   C13 5762   5.754  -0.040   9.777 -0.4223  0.1282  0.4241
   45CHL1   C18 5763   5.700   0.090   9.716  0.4223 -0.6709 -0.6452
   45CHL1  H18A 5764   5.623   0.073   9.638  0.7497 -0.7438 -0.9580
   45CHL1  H18B 5765   5.653   0.158   9.789  0.7241  0.2412 -1.2869
   45CHL1  H18C 5766   5.788   0.146   9.678  1.1110 -0.3542  1.3022
   45CHL1   C12 5767   5.645  -0.125   9.853  0.4533 -0.4113  0.3520
   45CHL1  H12A 5768   5.556  -0.122   9.786  1.1990  1.5865 -0.6204
   45CHL1  H12B 5769   5.683  -0.229   9.858  1.4594 -0.2523 -2.1841
   45CHL1   C11 5770   5.606  -0.066   9.989  0.5488 -0.0935  0.7804
   45CHL1  H11A 5771   5.534   0.018   9.980  0.2447 -0.4246 -0.0129
   45CHL1  H11B 5772   5.539  -0.141  10.035 -2.6062  2.6061  0.9576
   45CHL1    C9 5773   5.726  -0.030  10.074 -0.0304  0.2785 -0.4028
   45CHL1    H9 5774   5.728  -0.100  10.160  2.0142  1.1562  0.3211
   45CHL1   C10 5775   5.717   0.097  10.171  0.7282 -0.9312  0.0282
   45CHL1   C19 5776   5.687   0.220  10.090  0.3270  0.1440  0.2575
   45CHL1  H19A 5777   5.780   0.256  10.041  0.1567  3.0139  1.7924
   45CHL1  H19B 5778   5.603   0.198  10.021  0.9285 -1.3198 -0.0505
   45CHL1  H19C 5779   5.662   0.301  10.161  3.0408  0.4437  0.9798
   45CHL1    C1 5780   5.611   0.073  10.275  0.6636 -0.0855  0.2344
   45CHL1   H1A 5781   5.510   0.080  10.228  0.1956  0.9170  1.3500
   45CHL1   H1B 5782   5.614  -0.033  10.307 -1.4120 -0.7544 -1.5438
   45CHL1    C2 5783   5.611   0.164  10.396 -0.0343 -0.3146  0.0720
   45CHL1   H2A 5784   5.535   0.123  10.467  1.2631 -1.4421  0.8639
   45CHL1   H2B 5785   5.579   0.267  10.369  0.0146 -0.1566  0.5917
   45CHL1   C20 5786   5.751  -0.148   9.544  0.0766 -0.2744 -0.3877
   45CHL1   H20 5787   5.648  -0.130   9.582  0.2804 -0.2866  0.1746
   45CHL1   C21 5788   5.774  -0.293   9.491 -0.7166  0.3598  0.4557
   45CHL1  H21A 5789   5.721  -0.313   9.396  0.7797 -0.4547 -0.2353
   45CHL1  H21B 5790   5.750  -0.373   9.565 -2.0232 -1.2546 -1.5944
   45CHL1  H21C 5791   5.883  -0.300   9.468 -0.5083  0.2246  1.4353
   45CHL1   C22 5792   5.767  -0.046   9.432  0.2569 -0.9199 -0.6211
   45CHL1  H22A 5793   5.803   0.048   9.478 -0.7777 -0.5060 -0.6489
   45CHL1  H22B 5794   5.849  -0.087   9.369 -0.0457 -2.6008  0.0071
   45CHL1   C23 5795   5.647  -0.024   9.346  0.0817 -0.0622 -1.0584
   45CHL1  H23A 5796   5.618  -0.117   9.293 -0.8550  0.1771 -0.9776
   45CHL1  H23B 5797   5.565   0.010   9.413 -0.5963 -1.4193 -1.1601
   45CHL1   C24 5798   5.671   0.077   9.239  0.2384  0.0379 -0.5532
   45CHL1  H24A 5799   5.573   0.115   9.202  0.5350  0.9573 -0.4182
   45CHL1  H24B 5800   5.731   0.159   9.284 -0.0481 -0.2343  0.3656
   45CHL1   C25 5801   5.742   0.026   9.107 -0.5354 -0.5667 -0.0989
   45CHL1   H25 5802   5.845  -0.002   9.135  0.0135  2.1984  0.9160
   45CHL1   C26 5803   5.699  -0.110   9.039  0.2110 -0.2832  0.1900
   45CHL1  H26A 5804   5.592  -0.114   9.008  0.1904 -0.2772  0.2581
   45CHL1  H26B 5805   5.756  -0.123   8.945 -1.8286 -1.8645 -0.9203
   45CHL1  H26C 5806   5.719  -0.201   9.100 -0.2845 -0.6806 -0.2355
   45CHL1   C27 5807   5.745   0.136   8.996  0.0324  0.8951 -0.3641
   45CHL1  H27A 5808   5.791   0.223   9.048 -0.2956 -1.2616  4.0032
   45CHL1  H27B 5809   5.794   0.115   8.899  1.1308  1.9920 -0.0637
   45CHL1  H27C 5810   5.638   0.148   8.969 -0.8488  0.2390  2.4609
   46CHL1    C3 5811   2.664   3.727  10.205  0.3574  0.9192 -0.0270
   46CHL1    H3 5812   2.718   3.824  10.203 -0.0179  1.1151 -0.9440
   46CHL1    O3 5813   2.672   3.687  10.340 -0.1128  0.1105  0.0390
   46CHL1   H3' 5814   2.744   3.739  10.375 -0.2242  0.5422 -0.3573
   46CHL1    C4 5815   2.520   3.744  10.158  0.1133  0.3125 -0.1666
   46CHL1   H4A 5816   2.458   3.659  10.194  0.3679  2.0713  5.3087
   46CHL1   H4B 5817   2.474   3.827  10.215 -2.2199 -1.1018  0.1392
   46CHL1    C5 5818   2.513   3.755  10.008  0.0618 -0.7638  0.8618
   46CHL1    C6 5819   2.442   3.853   9.947  0.3226 -0.0401  0.2093
   46CHL1    H6 5820   2.394   3.924  10.016  1.9994 -0.4877  1.9163
   46CHL1    C7 5821   2.417   3.869   9.797  0.1695 -0.3422 -0.4100
   46CHL1   H7A 5822   2.312   3.895   9.773  0.3609  0.0641 -0.8352
   46CHL1   H7B 5823   2.483   3.953   9.766  0.0857  0.7792  2.1853
   46CHL1    C8 5824   2.464   3.747   9.717  0.7588  0.9717 -0.6719
   46CHL1    H8 5825   2.387   3.668   9.730  1.4312  0.7453  2.9102
   46CHL1   C14 5826   2.477   3.769   9.566 -0.5794 -1.1320 -0.6010
   46CHL1   H14 5827   2.560   3.844   9.569 -2.1702  0.6886  0.3984
   46CHL1   C15 5828   2.356   3.822   9.489 -0.0027 -0.0756  0.3742
   46CHL1  H15A 5829   2.263   3.783   9.536 -0.6335  4.1206  3.2353
   46CHL1  H15B 5830   2.353   3.932   9.508  0.6767 -0.0758  0.5019
   46CHL1   C16 5831   2.374   3.787   9.340 -0.2463 -1.0218 -0.3436
   46CHL1  H16A 5832   2.288   3.725   9.307 -0.0367 -1.6988  0.3381
   46CHL1  H16B 5833   2.367   3.880   9.281 -0.5463 -0.4318  0.6081
   46CHL1   C17 5834   2.510   3.714   9.338  0.8636  0.1529  0.6780
   46CHL1   H17 5835   2.587   3.790   9.312  0.8896  0.1660  0.7914
   46CHL1   C13 5836   2.522   3.655   9.479 -0.0523 -0.1656  0.0930
   46CHL1   C18 5837   2.413   3.544   9.487  0.4981  0.1851  0.1415
   46CHL1  H18A 5838   2.437   3.465   9.412  3.2965 -0.3444  1.4497
   46CHL1  H18B 5839   2.400   3.500   9.589  1.0115 -0.3649 -0.0220
   46CHL1  H18C 5840   2.310   3.578   9.466  0.6824 -1.1353 -3.5588
   46CHL1   C12 5841   2.658   3.606   9.528  0.0652 -0.2678  0.1973
   46CHL1  H12A 5842   2.706   3.514   9.488 -3.4586 -1.6139 -1.4495
   46CHL1  H12B 5843   2.720   3.695   9.509 -0.7656  0.2502 -0.1476
   46CHL1   C11 5844   2.663   3.580   9.680  0.4127  0.2620 -0.6222
   46CHL1  H11A 5845   2.615   3.481   9.697 -1.0179  1.2443  1.5867
   46CHL1  H11B 5846   2.765   3.566   9.720  0.6364  4.8465  0.9980
   46CHL1    C9 5847   2.594   3.685   9.769  0.3980 -0.2805 -0.0994
   46CHL1    H9 5848   2.671   3.765   9.770 -0.7556  0.8838  1.1427
   46CHL1   C10 5849   2.586   3.651   9.922 -0.5857  0.5024 -0.1457
   46CHL1   C19 5850   2.509   3.515   9.946 -0.1765  0.5314  0.0089
   46CHL1  H19A 5851   2.404   3.525   9.909  0.5936  0.6789 -2.2993
   46CHL1  H19B 5852   2.563   3.428   9.903 -1.3648  0.1720 -0.8159
   46CHL1  H19C 5853   2.501   3.498  10.055 -3.8373  1.5602  0.0380
   46CHL1    C1 5854   2.727   3.638   9.985 -0.1069 -0.4853  0.4929
   46CHL1   H1A 5855   2.788   3.557   9.939  1.2334  0.8994 -0.2592
   46CHL1   H1B 5856   2.771   3.737   9.960 -0.1680 -0.9503 -1.6182
   46CHL1    C2 5857   2.741   3.613  10.130  0.0813 -0.3251  0.3894
   46CHL1   H2A 5858   2.850   3.606  10.148 -0.1557 -1.8503  1.4425
   46CHL1   H2B 5859   2.701   3.517  10.169 -1.2238  0.8989  2.2677
   46CHL1   C20 5860   2.514   3.608   9.226 -0.3519 -0.6440 -0.4654
   46CHL1   H20 5861   2.426   3.539   9.228 -0.0486 -1.0200  0.6544
   46CHL1   C21 5862   2.637   3.524   9.229  0.0340 -0.4726 -0.0125
   46CHL1  H21A 5863   2.733   3.578   9.225  0.7194 -1.7344 -1.2829
   46CHL1  H21B 5864   2.638   3.454   9.143  1.4704  0.2751 -0.6155
   46CHL1  H21C 5865   2.632   3.455   9.316 -2.2504  0.3359  0.5678
   46CHL1   C22 5866   2.500   3.669   9.084 -0.6785 -0.4706 -0.0015
   46CHL1  H22A 5867   2.427   3.752   9.092  0.1600  0.2523  0.3072
   46CHL1  H22B 5868   2.601   3.694   9.047 -0.3302 -1.1838  0.4293
   46CHL1   C23 5869   2.453   3.570   8.979 -0.4333 -0.0805 -0.7166
   46CHL1  H23A 5870   2.529   3.495   8.947  1.9376  1.1437  1.6129
   46CHL1  H23B 5871   2.358   3.517   9.001 -0.4689  0.5076  0.6721
   46CHL1   C24 5872   2.419   3.651   8.852 -0.6645  0.4381 -0.3747
   46CHL1  H24A 5873   2.349   3.730   8.887 -0.3078 -0.2004  1.9569
   46CHL1  H24B 5874   2.511   3.706   8.822 -0.4955 -0.3576 -1.3312
   46CHL1   C25 5875   2.365   3.567   8.731  0.8074  0.3218 -0.1176
   46CHL1   H25 5876   2.433   3.481   8.715 -1.0663 -1.2167 -0.2559
   46CHL1   C26 5877   2.232   3.507   8.768  0.1370  0.2769  0.0864
   46CHL1  H26A 5878   2.158   3.585   8.796  3.4370  3.3357  0.9803
   46CHL1  H26B 5879   2.204   3.432   8.691  0.9946  1.4514 -1.4258
   46CHL1  H26C 5880   2.229   3.448   8.862 -2.6142 -2.5279 -1.5606
   46CHL1   C27 5881   2.363   3.650   8.603  0.2159  0.9261 -0.0637
   46CHL1  H27A 5882   2.343   3.755   8.634 -2.2668  0.6607 -0.5727
   46CHL1  H27B 5883   2.453   3.637   8.539  0.4410 -1.6650  0.6449
   46CHL1  H27C 5884   2.273   3.628   8.542  0.6988  0.4614 -0.6288
   47CHL1    C3 5885   1.702   5.812  10.217  0.2460  0.7596 -0.4450
   47CHL1    H3 5886   1.615   5.746  10.237  0.1574  1.2261  0.7960
   47CHL1    O3 5887   1.735   5.859  10.348  0.2715 -0.0578  0.3350
   47CHL1   H3' 5888   1.814   5.911  10.335 -0.0303  0.8144  1.8045
   47CHL1    C4 5889   1.821   5.732  10.147 -0.0487  0.4691 -0.1329
   47CHL1   H4A 5890   1.911   5.798  10.146  0.3820 -0.1202 -0.8311
   47CHL1   H4B 5891   1.843   5.651  10.219  1.6704  1.5116  0.5738
   47CHL1    C5 5892   1.799   5.694   9.998 -0.3039  0.1548  0.5298
   47CHL1    C6 5893   1.811   5.572   9.949 -0.9689  0.6490 -0.1346
   47CHL1    H6 5894   1.835   5.485  10.013 -1.2387  2.3514  2.4337
   47CHL1    C7 5895   1.797   5.533   9.806  0.1035  0.2616  0.9286
   47CHL1   H7A 5896   1.881   5.471   9.768  0.0875  0.9641 -0.3229
   47CHL1   H7B 5897   1.696   5.488   9.794 -1.0273  2.9223 -0.5397
   47CHL1    C8 5898   1.798   5.657   9.714 -0.4531 -0.2339  0.0426
   47CHL1    H8 5899   1.903   5.694   9.705 -0.8148  1.7944  2.8055
   47CHL1   C14 5900   1.748   5.622   9.582  0.1208  0.1795 -0.0283
   47CHL1   H14 5901   1.644   5.588   9.603 -0.3883  1.2166 -0.8125
   47CHL1   C15 5902   1.820   5.509   9.507 -0.0376 -0.3807  0.9613
   47CHL1  H15A 5903   1.928   5.532   9.499  0.1438 -1.4353  0.2078
   47CHL1  H15B 5904   1.805   5.409   9.554  0.3532 -2.0346 -2.1841
   47CHL1   C16 5905   1.766   5.519   9.361  0.2131  0.4930  0.0245
   47CHL1  H16A 5906   1.845   5.510   9.283 -1.2486  0.0454 -1.4644
   47CHL1  H16B 5907   1.692   5.438   9.344  0.1493  0.7347 -0.8920
   47CHL1   C17 5908   1.704   5.657   9.344  0.5034 -0.3063 -0.3087
   47CHL1   H17 5909   1.596   5.638   9.362  0.6979  0.1202  1.5059
   47CHL1   C13 5910   1.746   5.734   9.474  0.0290 -0.5966  0.0635
   47CHL1   C18 5911   1.881   5.802   9.445 -0.4247  0.2323 -0.2749
   47CHL1  H18A 5912   1.944   5.723   9.399 -2.0977 -0.9830 -0.5715
   47CHL1  H18B 5913   1.878   5.899   9.391  1.7628  0.3787 -0.2480
   47CHL1  H18C 5914   1.939   5.827   9.537 -0.8810  2.5156 -0.5497
   47CHL1   C12 5915   1.646   5.835   9.523  0.2215  0.3550 -0.7027
   47CHL1  H12A 5916   1.639   5.919   9.450 -0.2158  0.0913 -0.9680
   47CHL1  H12B 5917   1.542   5.797   9.534  1.2759 -3.5125 -2.3175
   47CHL1   C11 5918   1.698   5.887   9.664 -0.0515  0.2566  0.4240
   47CHL1  H11A 5919   1.796   5.938   9.650  1.7231 -3.0450 -0.4304
   47CHL1  H11B 5920   1.616   5.951   9.702 -0.9830 -0.9166  0.4490
   47CHL1    C9 5921   1.718   5.775   9.763  0.6115 -0.3782 -1.1927
   47CHL1    H9 5922   1.621   5.729   9.792  1.2623 -1.0883 -0.0592
   47CHL1   C10 5923   1.759   5.816   9.911  0.4191  0.5650  0.3166
   47CHL1   C19 5924   1.872   5.918   9.893 -0.3785 -0.9415  0.5622
   47CHL1  H19A 5925   1.926   5.942   9.987 -0.0668  0.3560  0.0821
   47CHL1  H19B 5926   1.944   5.877   9.818 -0.6269  0.3079 -0.3939
   47CHL1  H19C 5927   1.831   6.015   9.856  0.8452 -0.4836  0.3466
   47CHL1    C1 5928   1.635   5.882   9.975  0.1994  0.4544  0.1140
   47CHL1   H1A 5929   1.616   5.973   9.915 -1.0703 -0.1072 -0.3660
   47CHL1   H1B 5930   1.541   5.823   9.972 -1.0769  2.4178 -1.0464
   47CHL1    C2 5931   1.663   5.928  10.120 -0.2988  0.1473  0.2226
   47CHL1   H2A 5932   1.586   5.996  10.163 -0.3700 -0.6411  1.3991
   47CHL1   H2B 5933   1.741   6.007  10.122 -0.7433  0.5962  0.1208
   47CHL1   C20 5934   1.713   5.734   9.211 -0.6537  0.5053 -0.0004
   47CHL1   H20 5935   1.697   5.839   9.243 -1.5422 -0.0126  1.3334
   47CHL1   C21 5936   1.582   5.703   9.135  0.2974  0.1395 -0.1783
   47CHL1  H21A 5937   1.486   5.719   9.188 -1.0324 -3.1507 -1.3577
   47CHL1  H21B 5938   1.577   5.596   9.105  0.5190  0.5341 -1.7058
   47CHL1  H21C 5939   1.588   5.761   9.040  0.7619 -2.0739 -1.5795
   47CHL1   C22 5940   1.844   5.717   9.122 -0.4005 -0.2701 -0.0362
   47CHL1  H22A 5941   1.937   5.718   9.182  0.0522  0.1751 -0.7308
   47CHL1  H22B 5942   1.837   5.618   9.074  1.5441  0.3520 -1.7238
   47CHL1   C23 5943   1.862   5.820   9.017 -0.1871 -0.3654  0.0320
   47CHL1  H23A 5944   1.775   5.819   8.948  1.6103 -4.3763 -2.5183
   47CHL1  H23B 5945   1.875   5.924   9.055 -0.4501 -0.3597  0.1122
   47CHL1   C24 5946   1.974   5.771   8.920 -0.7626  0.5407  0.3627
   47CHL1  H24A 5947   2.067   5.755   8.978 -2.0519  2.4644  3.2120
   47CHL1  H24B 5948   1.942   5.676   8.871  1.1147 -1.4531  2.7483
   47CHL1   C25 5949   2.021   5.881   8.821 -0.6288  1.1056 -0.9331
   47CHL1   H25 5950   2.077   5.960   8.876  0.5052 -0.6672  0.6172
   47CHL1   C26 5951   2.139   5.829   8.736 -0.3035 -0.0977  0.2777
   47CHL1  H26A 5952   2.110   5.745   8.670  0.3967  0.4999 -0.8061
   47CHL1  H26B 5953   2.226   5.796   8.798  2.5087 -0.7099 -3.6387
   47CHL1  H26C 5954   2.165   5.913   8.670 -2.8417  1.1861  0.7703
   47CHL1   C27 5955   1.907   5.946   8.737 -0.1850 -0.9599 -0.2052
   47CHL1  H27A 5956   1.856   5.878   8.664 -1.7916 -0.6608  0.5973
   47CHL1  H27B 5957   1.822   5.975   8.802 -1.0038  1.9143 -2.3519
   47CHL1  H27C 5958   1.928   6.032   8.670 -3.0671 -0.9298 -1.2289
   48CHL1    C3 5959   2.407   1.395  10.228  0.0395 -0.3447 -1.0193
   48CHL1    H3 5960   2.461   1.489  10.252 -1.5211  0.5008 -0.7253
   48CHL1    O3 5961   2.361   1.345  10.352  0.8439  0.0020  0.1905
   48CHL1   H3' 5962   2.307   1.413  10.393  1.5400 -0.1146  1.3622
   48CHL1    C4 5963   2.293   1.435  10.135  0.3572 -0.2732 -0.5262
   48CHL1   H4A 5964   2.223   1.351  10.119 -0.7043  0.3429  0.7072
   48CHL1   H4B 5965   2.232   1.513  10.185  1.1363 -0.8106  1.3880
   48CHL1    C5 5966   2.339   1.484  10.001 -0.4777  0.3001  0.1855
   48CHL1    C6 5967   2.304   1.605   9.955 -0.1074 -0.0003  0.6124
   48CHL1    H6 5968   2.224   1.666  10.001  0.6231  2.6980 -1.3962
   48CHL1    C7 5969   2.359   1.667   9.828 -0.4046  0.0580  0.5147
   48CHL1   H7A 5970   2.275   1.714   9.774 -0.8485 -2.4483 -1.1241
   48CHL1   H7B 5971   2.437   1.743   9.852 -1.7631  1.1923  1.4709
   48CHL1    C8 5972   2.417   1.562   9.733 -0.0783 -0.9022 -0.8747
   48CHL1    H8 5973   2.334   1.506   9.686 -0.1949 -2.0172  0.5859
   48CHL1   C14 5974   2.495   1.632   9.615  0.6245 -0.3086  0.6366
   48CHL1   H14 5975   2.568   1.703   9.662  1.9876 -0.2103 -1.5068
   48CHL1   C15 5976   2.422   1.740   9.535  0.0970 -0.0599 -0.3526
   48CHL1  H15A 5977   2.330   1.688   9.503  0.0750 -1.0013  1.1504
   48CHL1  H15B 5978   2.404   1.831   9.595 -0.6686  0.2004 -0.9649
   48CHL1   C16 5979   2.513   1.764   9.421  0.3694 -0.0372  0.2060
   48CHL1  H16A 5980   2.451   1.757   9.329  0.3880  0.0870  0.1834
   48CHL1  H16B 5981   2.573   1.857   9.409  0.2116  0.1891  1.1019
   48CHL1   C17 5982   2.613   1.637   9.415 -0.3970  0.3014  0.7162
   48CHL1   H17 5983   2.711   1.677   9.446  0.6694 -0.8981 -0.9286
   48CHL1   C13 5984   2.558   1.539   9.514  0.0334  0.5036 -0.2825
   48CHL1   C18 5985   2.453   1.444   9.443 -0.0037  0.1768 -0.0244
   48CHL1  H18A 5986   2.496   1.368   9.374  1.5461  2.1273 -1.3080
   48CHL1  H18B 5987   2.393   1.385   9.516 -2.3682 -0.0531 -2.0292
   48CHL1  H18C 5988   2.379   1.500   9.383 -0.2312  1.0231  1.0226
   48CHL1   C12 5989   2.664   1.456   9.592  0.1082  0.5781 -0.0404
   48CHL1  H12A 5990   2.718   1.383   9.528 -0.6923 -0.4960  0.4868
   48CHL1  H12B 5991   2.734   1.532   9.634  1.2563 -0.1710 -0.5474
   48CHL1   C11 5992   2.598   1.377   9.714 -0.0533 -0.1983  1.0903
   48CHL1  H11A 5993   2.539   1.293   9.671  1.2634 -0.1754 -0.9186
   48CHL1  H11B 5994   2.677   1.331   9.777  0.5994 -2.0051 -0.8984
   48CHL1    C9 5995   2.518   1.476   9.807 -0.0798 -0.0301  0.3207
   48CHL1    H9 5996   2.592   1.547   9.851 -1.3932  1.0629  0.8441
   48CHL1   C10 5997   2.452   1.402   9.925  0.1867  0.1456  0.6802
   48CHL1   C19 5998   2.390   1.271   9.872 -0.8086 -0.0890 -0.2849
   48CHL1  H19A 5999   2.465   1.199   9.831 -1.1222  1.0560 -3.0504
   48CHL1  H19B 6000   2.341   1.208   9.950 -1.9429 -2.1462 -2.5169
   48CHL1  H19C 6001   2.332   1.297   9.781 -1.9427 -2.1641 -0.2261
   48CHL1    C1 6002   2.555   1.363  10.032 -0.4154 -0.1985  0.3599
   48CHL1   H1A 6003   2.624   1.290   9.984 -0.8419  0.8288 -2.0124
   48CHL1   H1B 6004   2.619   1.452  10.053 -0.3367  0.5186 -2.4066
   48CHL1    C2 6005   2.504   1.296  10.160  0.5275 -0.1784 -0.0823
   48CHL1   H2A 6006   2.589   1.274  10.228  1.2966  1.3612 -0.5190
   48CHL1   H2B 6007   2.447   1.202  10.142 -0.1605 -0.4574  2.9727
   48CHL1   C20 6008   2.639   1.581   9.269  0.2868  0.2815  0.4482
   48CHL1   H20 6009   2.545   1.530   9.238  1.2367 -0.0312 -2.1195
   48CHL1   C21 6010   2.741   1.467   9.266 -0.6923  0.0657  0.6488
   48CHL1  H21A 6011   2.735   1.422   9.164  1.3512  0.1399  0.4524
   48CHL1  H21B 6012   2.715   1.391   9.342 -0.8835  0.9249  1.4719
   48CHL1  H21C 6013   2.843   1.506   9.287 -0.6479 -0.4194  1.3761
   48CHL1   C22 6014   2.674   1.688   9.160 -0.0269  1.3285  0.1238
   48CHL1  H22A 6015   2.605   1.775   9.169  0.0631  1.3783  0.3298
   48CHL1  H22B 6016   2.776   1.723   9.182  0.0175  1.3394 -0.0930
   48CHL1   C23 6017   2.653   1.640   9.013  0.2106  0.1438  0.2684
   48CHL1  H23A 6018   2.730   1.572   8.970 -2.2640 -1.3137 -2.1189
   48CHL1  H23B 6019   2.553   1.593   9.016 -0.8326  2.2729  0.5383
   48CHL1   C24 6020   2.649   1.765   8.926 -0.4784 -0.8051  0.2813
   48CHL1  H24A 6021   2.560   1.826   8.948 -0.7758 -1.4471  0.9159
   48CHL1  H24B 6022   2.733   1.829   8.959 -3.0428  3.6070 -1.0119
   48CHL1   C25 6023   2.659   1.744   8.770  0.3153  0.4166 -0.7272
   48CHL1   H25 6024   2.733   1.664   8.746  1.4856  1.7336 -1.6712
   48CHL1   C26 6025   2.533   1.688   8.710  0.1084  0.0968 -0.4111
   48CHL1  H26A 6026   2.516   1.585   8.747  0.3658  0.8667  2.1009
   48CHL1  H26B 6027   2.439   1.744   8.727  0.5185  0.3051  1.4464
   48CHL1  H26C 6028   2.542   1.692   8.600  1.7256  0.5431 -0.2990
   48CHL1   C27 6029   2.696   1.873   8.702  0.0351  0.1217  0.7125
   48CHL1  H27A 6030   2.608   1.934   8.673  0.3971  0.1028 -0.4399
   48CHL1  H27B 6031   2.759   1.923   8.779 -1.7650 -1.1188  3.1562
   48CHL1  H27C 6032   2.750   1.861   8.606 -0.1914  0.4105  0.5478
   49CHL1    C3 6033   2.126   2.846  10.265 -0.3043 -0.0032 -0.0038
   49CHL1    H3 6034   2.129   2.949  10.222  0.4227  1.7393  3.7789
   49CHL1    O3 6035   2.069   2.845  10.398 -0.3471 -0.2251  0.5054
   49CHL1   H3' 6036   2.107   2.767  10.441 -1.7321 -0.5606  1.1766
   49CHL1    C4 6037   2.058   2.752  10.165 -0.2997 -0.4607  0.4851
   49CHL1   H4A 6038   2.035   2.662  10.225  0.0691 -0.0710  1.2290
   49CHL1   H4B 6039   1.956   2.794  10.147  0.4353  0.5121 -1.8202
   49CHL1    C5 6040   2.137   2.724  10.034 -0.3082  0.0466  0.0168
   49CHL1    C6 6041   2.067   2.730   9.919  0.1055 -0.6233 -0.4213
   49CHL1    H6 6042   1.962   2.761   9.926  0.1646  0.2500 -2.6562
   49CHL1    C7 6043   2.125   2.702   9.782  0.6753  0.9711  0.4228
   49CHL1   H7A 6044   2.070   2.612   9.745  1.6154  0.2617  0.7105
   49CHL1   H7B 6045   2.112   2.789   9.715 -0.6350  0.3639 -0.1639
   49CHL1    C8 6046   2.274   2.644   9.791  0.1699  0.0796  0.3638
   49CHL1    H8 6047   2.256   2.537   9.816 -1.0052 -0.2724 -1.7379
   49CHL1   C14 6048   2.347   2.655   9.653 -0.1391 -0.0408 -0.4854
   49CHL1   H14 6049   2.373   2.762   9.643  0.4218 -0.2908 -1.8697
   49CHL1   C15 6050   2.267   2.613   9.518 -0.0533 -0.3670 -0.4174
   49CHL1  H15A 6051   2.220   2.513   9.528  0.5376 -0.7463 -1.2757
   49CHL1  H15B 6052   2.186   2.689   9.506 -0.8697 -0.8498  1.5910
   49CHL1   C16 6053   2.385   2.613   9.416  0.3889 -0.1014  0.8149
   49CHL1  H16A 6054   2.388   2.510   9.376  0.4224  0.2094  0.0059
   49CHL1  H16B 6055   2.367   2.685   9.333  4.8239  1.6065  1.0542
   49CHL1   C17 6056   2.519   2.643   9.485 -0.1834  0.1439 -0.5611
   49CHL1   H17 6057   2.531   2.753   9.478 -3.5839  0.5647 -1.3883
   49CHL1   C13 6058   2.491   2.610   9.636  0.2529 -0.1123 -0.0118
   49CHL1   C18 6059   2.494   2.455   9.654 -0.2432 -0.2603  0.0399
   49CHL1  H18A 6060   2.453   2.401   9.566  0.8366 -3.1075  1.1738
   49CHL1  H18B 6061   2.601   2.425   9.656  0.0716  0.8113  0.3330
   49CHL1  H18C 6062   2.444   2.423   9.748 -2.6891  0.5999 -0.8990
   49CHL1   C12 6063   2.569   2.675   9.753  0.6531 -0.4903 -0.6067
   49CHL1  H12A 6064   2.670   2.629   9.751  0.5152 -0.8998  0.6561
   49CHL1  H12B 6065   2.580   2.782   9.728 -2.0178 -0.5088 -2.3097
   49CHL1   C11 6066   2.502   2.668   9.899  0.0976  0.2172  0.4213
   49CHL1  H11A 6067   2.508   2.561   9.929 -0.4232  0.0231 -0.1410
   49CHL1  H11B 6068   2.562   2.720   9.976 -0.7440  2.7104 -0.5248
   49CHL1    C9 6069   2.354   2.715   9.902 -0.0075 -0.4839  0.3019
   49CHL1    H9 6070   2.361   2.822   9.875  3.9741 -0.9313 -1.1932
   49CHL1   C10 6071   2.294   2.702  10.041  0.6011  0.0269 -0.0004
   49CHL1   C19 6072   2.306   2.553  10.094 -0.3340 -0.2376  0.7115
   49CHL1  H19A 6073   2.286   2.477  10.016  1.8460 -1.5636  1.3352
   49CHL1  H19B 6074   2.412   2.523  10.108 -0.0366  0.1927 -0.4985
   49CHL1  H19C 6075   2.250   2.528  10.187 -0.8986 -0.3470  0.3435
   49CHL1    C1 6076   2.353   2.800  10.140  0.3165  0.6259  0.4211
   49CHL1   H1A 6077   2.461   2.781  10.153 -0.0657 -0.3842  2.7883
   49CHL1   H1B 6078   2.346   2.903  10.101 -1.9851 -0.3633 -2.1002
   49CHL1    C2 6079   2.278   2.805  10.280  0.1292  0.5742 -0.0940
   49CHL1   H2A 6080   2.332   2.880  10.341 -1.8627  1.9521  0.0775
   49CHL1   H2B 6081   2.294   2.706  10.329 -2.2463  1.1654  2.0102
   49CHL1   C20 6082   2.637   2.582   9.411  0.5232  0.4421 -0.1557
   49CHL1   H20 6083   2.629   2.472   9.421 -0.2594  0.6236  1.6574
   49CHL1   C21 6084   2.768   2.642   9.468 -0.2239  1.1484 -0.1821
   49CHL1  H21A 6085   2.777   2.743   9.422  1.3190  1.1173 -0.0145
   49CHL1  H21B 6086   2.865   2.597   9.438  0.0225  1.5715 -0.0401
   49CHL1  H21C 6087   2.767   2.663   9.577 -0.7255 -2.3678  0.5866
   49CHL1   C22 6088   2.630   2.617   9.259 -0.0008 -0.0487 -0.6176
   49CHL1  H22A 6089   2.537   2.569   9.224 -1.7293  2.0301  0.8271
   49CHL1  H22B 6090   2.609   2.726   9.248 -1.2031  0.0228  1.7558
   49CHL1   C23 6091   2.745   2.564   9.173  0.3224 -0.1498 -1.1914
   49CHL1  H23A 6092   2.832   2.631   9.187 -0.2514  1.1348 -3.2009
   49CHL1  H23B 6093   2.767   2.471   9.229 -1.5464 -0.9309 -1.6562
   49CHL1   C24 6094   2.720   2.542   9.025  0.1751 -0.0123 -0.5561
   49CHL1  H24A 6095   2.794   2.473   8.980  0.1064 -0.1126 -0.5153
   49CHL1  H24B 6096   2.628   2.484   9.004  0.9793 -0.7562 -2.2089
   49CHL1   C25 6097   2.718   2.672   8.943  0.0157 -0.4382 -0.1852
   49CHL1   H25 6098   2.641   2.744   8.979  0.9986  1.0808 -1.0058
   49CHL1   C26 6099   2.851   2.753   8.960 -0.2531  0.6785 -0.3054
   49CHL1  H26A 6100   2.862   2.783   9.067  1.4521 -2.9376  0.7024
   49CHL1  H26B 6101   2.946   2.701   8.936 -0.7269  0.1736 -1.1345
   49CHL1  H26C 6102   2.859   2.836   8.886  0.9689  0.1803 -0.7713
   49CHL1   C27 6103   2.709   2.646   8.794 -0.0634  0.6113 -0.3176
   49CHL1  H27A 6104   2.709   2.746   8.747 -0.3941  0.7473 -0.0316
   49CHL1  H27B 6105   2.797   2.590   8.755 -2.5456 -2.9832 -1.3049
   49CHL1  H27C 6106   2.617   2.593   8.763  0.0369 -2.0563  3.2517
   50CHL1    C3 6107   4.960   5.304  10.190  0.1908  0.1859  0.5391
   50CHL1    H3 6108   4.893   5.348  10.113  0.5905 -1.1628 -0.6307
   50CHL1    O3 6109   4.938   5.330  10.326 -0.2063 -0.7447 -0.0523
   50CHL1   H3' 6110   5.025   5.311  10.361  2.4746  4.6588 -2.4798
   50CHL1    C4 6111   4.950   5.152  10.159  0.7518  0.2481 -0.0498
   50CHL1   H4A 6112   5.022   5.084  10.209 -1.2100 -1.2333  0.9165
   50CHL1   H4B 6113   4.848   5.123  10.193  0.8401  2.3111  2.2776
   50CHL1    C5 6114   4.980   5.124  10.013  0.3291  0.2464  0.0889
   50CHL1    C6 6115   4.883   5.069   9.940 -0.1501  0.2231 -0.4269
   50CHL1    H6 6116   4.785   5.041   9.980 -0.7901  0.3917 -1.8143
   50CHL1    C7 6117   4.905   5.022   9.797  0.1680 -0.0869  0.0976
   50CHL1   H7A 6118   4.852   4.926   9.779 -0.0594 -0.0943  0.7895
   50CHL1   H7B 6119   4.850   5.100   9.741  0.1040  0.9370  1.5296
   50CHL1    C8 6120   5.055   5.027   9.752 -0.0158  1.3549 -0.3740
   50CHL1    H8 6121   5.110   4.945   9.802 -2.3128  1.2206  2.1365
   50CHL1   C14 6122   5.063   5.019   9.597 -0.4569 -0.2448 -0.6188
   50CHL1   H14 6123   5.022   5.115   9.559 -1.6854 -0.6492 -0.3531
   50CHL1   C15 6124   4.988   4.910   9.525 -0.2770  0.5576  0.3342
   50CHL1  H15A 6125   5.004   4.814   9.579 -2.0803  1.1318  2.0537
   50CHL1  H15B 6126   4.880   4.934   9.514 -1.0548 -2.7490 -0.1578
   50CHL1   C16 6127   5.072   4.897   9.395  0.5957 -0.1349 -0.9439
   50CHL1  H16A 6128   5.115   4.794   9.390 -1.3739 -0.9924 -1.6464
   50CHL1  H16B 6129   5.009   4.905   9.303 -1.9990 -0.6734  0.6749
   50CHL1   C17 6130   5.184   5.008   9.389  0.0814 -0.1160 -0.2384
   50CHL1   H17 6131   5.136   5.098   9.346  2.2945  0.8839 -0.7521
   50CHL1   C13 6132   5.209   5.018   9.540  0.4638 -0.6051  0.0980
   50CHL1   C18 6133   5.302   4.900   9.588  0.4511 -0.5313 -0.2072
   50CHL1  H18A 6134   5.309   4.886   9.697 -2.4344 -3.4394 -0.2351
   50CHL1  H18B 6135   5.263   4.805   9.545  0.1992  0.1478 -1.5615
   50CHL1  H18C 6136   5.402   4.913   9.542 -0.3406 -1.3874 -2.3561
   50CHL1   C12 6137   5.262   5.158   9.578  0.0459  0.1913  0.0829
   50CHL1  H12A 6138   5.362   5.175   9.534  0.0684  0.9411  0.3935
   50CHL1  H12B 6139   5.196   5.241   9.545 -1.3143 -0.7025  0.4948
   50CHL1   C11 6140   5.269   5.168   9.732 -0.3288 -0.6312 -0.4710
   50CHL1  H11A 6141   5.347   5.100   9.772  1.7895  1.6590 -0.4528
   50CHL1  H11B 6142   5.308   5.271   9.751  0.5191 -0.9920 -0.1930
   50CHL1    C9 6143   5.130   5.154   9.801  0.2664 -0.2530  0.2772
   50CHL1    H9 6144   5.077   5.237   9.749  2.4834 -0.5509 -2.7290
   50CHL1   C10 6145   5.117   5.166   9.954 -0.1456 -0.4768 -0.3856
   50CHL1   C19 6146   5.233   5.074  10.012 -0.0865 -0.0827  0.1394
   50CHL1  H19A 6147   5.212   4.969   9.982  2.4983 -1.2757  2.1222
   50CHL1  H19B 6148   5.333   5.114   9.986  1.5854 -1.7507  3.3603
   50CHL1  H19C 6149   5.233   5.081  10.123 -0.9360  1.9519  0.0690
   50CHL1    C1 6150   5.150   5.313  10.006 -0.1190  0.6935  0.5297
   50CHL1   H1A 6151   5.261   5.314  10.003 -0.1092  0.7308  0.8866
   50CHL1   H1B 6152   5.119   5.402   9.948 -0.7530  1.0969  1.4743
   50CHL1    C2 6153   5.110   5.352  10.144  0.7566 -0.2042 -0.0080
   50CHL1   H2A 6154   5.127   5.460  10.166 -1.9831  0.4829 -0.8886
   50CHL1   H2B 6155   5.169   5.295  10.219  0.0436 -1.4189 -0.3529
   50CHL1   C20 6156   5.297   4.973   9.289 -0.8238 -0.1481  0.4701
   50CHL1   H20 6157   5.355   4.889   9.335  0.3282  0.4310  0.1112
   50CHL1   C21 6158   5.400   5.086   9.264  0.1480 -0.3679  0.3819
   50CHL1  H21A 6159   5.452   5.085   9.165  1.0602  2.0881  0.7581
   50CHL1  H21B 6160   5.483   5.088   9.338  0.2799 -1.9374  0.3073
   50CHL1  H21C 6161   5.351   5.186   9.265 -2.7144 -1.6499  2.4876
   50CHL1   C22 6162   5.257   4.910   9.151  0.1458 -0.5830 -0.5104
   50CHL1  H22A 6163   5.354   4.890   9.100  0.1617 -1.3760 -0.1903
   50CHL1  H22B 6164   5.221   4.807   9.174 -0.9910  0.0987  0.8391
   50CHL1   C23 6165   5.164   5.000   9.049 -0.4034  0.4105 -0.3018
   50CHL1  H23A 6166   5.070   5.031   9.098  0.4271  0.6194  1.2435
   50CHL1  H23B 6167   5.222   5.093   9.033  2.5306 -1.3680 -0.7873
   50CHL1   C24 6168   5.137   4.930   8.919 -0.6959  0.0439  0.3149
   50CHL1  H24A 6169   5.230   4.897   8.869 -0.3157 -0.3109  1.2370
   50CHL1  H24B 6170   5.082   4.839   8.949 -0.7777  0.2054  0.6632
   50CHL1   C25 6171   5.057   5.001   8.814 -0.4077 -0.4820 -0.1527
   50CHL1   H25 6172   4.972   5.051   8.865  0.3311 -0.9941  1.6649
   50CHL1   C26 6173   5.153   5.099   8.758 -0.5874 -0.2301  0.5465
   50CHL1  H26A 6174   5.083   5.170   8.708  0.0572  0.1907  0.2290
   50CHL1  H26B 6175   5.225   5.153   8.823  0.1142 -0.2354 -0.2142
   50CHL1  H26C 6176   5.215   5.051   8.680  1.0541 -1.8814  2.7568
   50CHL1   C27 6177   5.000   4.904   8.710 -0.6941 -0.3103  0.1843
   50CHL1  H27A 6178   4.955   4.819   8.766  0.6112 -0.4056  1.1233
   50CHL1  H27B 6179   4.932   4.951   8.636  0.0767  3.0437  1.4676
   50CHL1  H27C 6180   5.091   4.868   8.656 -0.2193  0.6481  0.3365
   51CHL1    C3 6181   5.929   3.339  10.338  0.5342  0.2975  0.2944
   51CHL1    H3 6182   5.924   3.449  10.321  0.9885  0.2565 -0.1447
   51CHL1    O3 6183   5.921   3.318  10.479 -0.7668  0.3214 -0.1657
   51CHL1   H3' 6184   5.910   3.223  10.490  0.4974 -0.1588 -2.3529
   51CHL1    C4 6185   5.816   3.264  10.268 -0.9460  0.3750 -0.0666
   51CHL1   H4A 6186   5.819   3.155  10.288 -2.3055 -0.0766 -2.0806
   51CHL1   H4B 6187   5.718   3.301  10.307 -1.2583 -1.6808  1.2553
   51CHL1    C5 6188   5.823   3.271  10.119  0.6186  0.6664  0.5626
   51CHL1    C6 6189   5.722   3.322  10.043 -0.5290  0.3817  0.1888
   51CHL1    H6 6190   5.631   3.344  10.100  0.0182  0.2704  1.1199
   51CHL1    C7 6191   5.732   3.359   9.898 -0.3477  0.3996  0.2695
   51CHL1   H7A 6192   5.642   3.327   9.841 -0.8891 -0.1667  1.4107
   51CHL1   H7B 6193   5.747   3.469   9.896  0.8007  0.3059 -2.5407
   51CHL1    C8 6194   5.854   3.301   9.822 -0.1842 -0.5561 -0.6185
   51CHL1    H8 6195   5.837   3.192   9.816  0.0028 -0.8464  2.3429
   51CHL1   C14 6196   5.873   3.375   9.690 -0.1894  0.2886 -0.9181
   51CHL1   H14 6197   5.905   3.479   9.716 -1.3433  0.4299 -0.0003
   51CHL1   C15 6198   5.755   3.395   9.593  0.1786 -0.0352 -0.6466
   51CHL1  H15A 6199   5.698   3.300   9.583 -0.6460  0.4250 -0.4089
   51CHL1  H15B 6200   5.693   3.480   9.629  2.4407  0.5509  2.2864
   51CHL1   C16 6201   5.823   3.421   9.460  0.4539  0.8034 -0.4305
   51CHL1  H16A 6202   5.798   3.351   9.377 -0.0271 -0.2286  0.5665
   51CHL1  H16B 6203   5.795   3.523   9.426 -0.2984  0.1875 -1.7234
   51CHL1   C17 6204   5.974   3.420   9.485  0.3513 -0.5278  0.6390
   51CHL1   H17 6205   5.999   3.523   9.518  2.5710 -1.1705  1.0814
   51CHL1   C13 6206   5.995   3.328   9.614 -0.1173 -0.6025  0.0490
   51CHL1   C18 6207   5.984   3.188   9.572 -0.0029  0.1047  0.2488
   51CHL1  H18A 6208   5.953   3.114   9.649 -1.5669  0.0864 -0.3550
   51CHL1  H18B 6209   5.916   3.176   9.485 -2.7015 -0.9432  2.3500
   51CHL1  H18C 6210   6.089   3.161   9.548  0.1001  0.8191 -0.1022
   51CHL1   C12 6211   6.121   3.359   9.702  0.1474 -0.4555  0.3432
   51CHL1  H12A 6212   6.216   3.325   9.656  1.5922 -0.2833  2.9727
   51CHL1  H12B 6213   6.124   3.470   9.713  0.2632 -0.5770  1.7224
   51CHL1   C11 6214   6.112   3.296   9.843 -0.0810 -0.2096  0.4399
   51CHL1  H11A 6215   6.123   3.188   9.817 -0.9263  0.2570 -2.1708
   51CHL1  H11B 6216   6.202   3.327   9.901  2.2725 -2.6272 -1.6021
   51CHL1    C9 6217   5.978   3.321   9.915  0.7276 -0.9458  0.2546
   51CHL1    H9 6218   5.978   3.431   9.929 -3.4857 -0.6124 -0.9822
   51CHL1   C10 6219   5.963   3.254  10.056  0.0572  0.3648 -0.9592
   51CHL1   C19 6220   5.975   3.101  10.046  0.8058  0.8139  0.5565
   51CHL1  H19A 6221   5.885   3.055  10.000  2.9222 -1.0060 -2.0880
   51CHL1  H19B 6222   6.063   3.079   9.981  0.4088 -0.5836  0.4541
   51CHL1  H19C 6223   5.988   3.052  10.145 -3.1120 -1.5744  0.1139
   51CHL1    C1 6224   6.074   3.305  10.144 -0.3604 -0.1208 -0.4922
   51CHL1   H1A 6225   6.167   3.261  10.101  0.2134 -0.0433  0.6204
   51CHL1   H1B 6226   6.079   3.414  10.128  1.5251 -0.2552 -1.0312
   51CHL1    C2 6227   6.062   3.281  10.288  0.1886 -0.1507  0.5065
   51CHL1   H2A 6228   6.144   3.330  10.343  1.8165 -0.9276 -1.1221
   51CHL1   H2B 6229   6.059   3.171  10.299 -1.3612 -0.6621 -3.2853
   51CHL1   C20 6230   6.060   3.378   9.359 -0.3901  0.0566 -0.2502
   51CHL1   H20 6231   6.063   3.268   9.346 -2.8120 -0.2711  1.2408
   51CHL1   C21 6232   6.197   3.429   9.398 -0.1358 -0.5600  0.2906
   51CHL1  H21A 6233   6.267   3.435   9.312  0.4595 -0.3179  0.7848
   51CHL1  H21B 6234   6.255   3.360   9.462  0.3484 -0.6218 -0.2040
   51CHL1  H21C 6235   6.189   3.534   9.433 -0.6431 -0.0166 -1.3495
   51CHL1   C22 6236   6.013   3.444   9.231 -0.7789  0.3354  0.6346
   51CHL1  H22A 6237   5.906   3.428   9.204 -0.2093 -0.2435 -1.5079
   51CHL1  H22B 6238   6.029   3.551   9.253 -2.2752  0.0715  3.5677
   51CHL1   C23 6239   6.072   3.402   9.095 -0.6716  0.1597 -0.1776
   51CHL1  H23A 6240   6.182   3.390   9.105 -0.8627 -1.4438  0.2020
   51CHL1  H23B 6241   6.028   3.303   9.071 -1.2331 -0.0320  1.5173
   51CHL1   C24 6242   6.038   3.502   8.985  0.3199  0.0228 -0.9281
   51CHL1  H24A 6243   5.930   3.526   8.991  0.3195 -0.1100 -0.3422
   51CHL1  H24B 6244   6.076   3.602   9.016 -1.9729  0.1885  1.8046
   51CHL1   C25 6245   6.090   3.481   8.844  0.2952 -0.3866 -0.3351
   51CHL1   H25 6246   6.200   3.500   8.847  0.5305 -1.7252  1.7483
   51CHL1   C26 6247   6.060   3.344   8.796  0.1201 -0.6911 -0.0393
   51CHL1  H26A 6248   6.094   3.260   8.860  0.6517 -2.4318 -2.4554
   51CHL1  H26B 6249   5.952   3.321   8.792 -0.3139  0.3265  2.8865
   51CHL1  H26C 6250   6.096   3.315   8.695 -0.6966 -1.6805 -0.0564
   51CHL1   C27 6251   6.024   3.597   8.758 -0.2465  0.1465 -0.0635
   51CHL1  H27A 6252   6.048   3.693   8.808 -1.9290  0.2375  0.6536
   51CHL1  H27B 6253   6.069   3.589   8.657  0.5720 -2.2163  0.4201
   51CHL1  H27C 6254   5.914   3.586   8.746 -0.4834  1.1288  1.0771
   52CHL1    C3 6255   3.417   0.135  10.119  0.6399  0.0994  0.1466
   52CHL1    H3 6256   3.521   0.169  10.100  0.3904  2.4361  2.3472
   52CHL1    O3 6257   3.399   0.114  10.259  0.0768 -0.1502  0.5197
   52CHL1   H3' 6258   3.331   0.050  10.281  1.2404 -1.0047  1.7020
   52CHL1    C4 6259   3.315   0.242  10.081 -0.3592  0.0624  0.1349
   52CHL1   H4A 6260   3.216   0.209  10.118  0.2566 -1.8661  0.1998
   52CHL1   H4B 6261   3.345   0.336  10.131  0.3111  0.7781 -1.5099
   52CHL1    C5 6262   3.314   0.263   9.938  0.2452 -0.1599  0.1268
   52CHL1    C6 6263   3.333   0.383   9.882 -1.1393 -0.2508  0.6591
   52CHL1    H6 6264   3.358   0.465   9.950  0.2223 -0.2941  0.2403
   52CHL1    C7 6265   3.321   0.421   9.737 -0.0115 -0.0594 -0.7234
   52CHL1   H7A 6266   3.256   0.509   9.723  0.2078  0.3640  0.7137
   52CHL1   H7B 6267   3.421   0.440   9.693  0.8315  0.7895  1.3890
   52CHL1    C8 6268   3.255   0.299   9.665  0.0801 -0.3143 -0.7391
   52CHL1    H8 6269   3.150   0.298   9.702  0.0051 -1.5204 -0.9323
   52CHL1   C14 6270   3.263   0.320   9.510 -0.1235 -0.2257 -0.5412
   52CHL1   H14 6271   3.372   0.322   9.489 -0.3458  2.5290 -1.9587
   52CHL1   C15 6272   3.218   0.455   9.456 -0.3237 -0.3907 -0.1638
   52CHL1  H15A 6273   3.119   0.461   9.507 -0.2066 -0.8941  0.1358
   52CHL1  H15B 6274   3.286   0.540   9.478 -0.1550  0.5269 -3.7410
   52CHL1   C16 6275   3.225   0.438   9.304  1.5751 -0.1308 -0.7066
   52CHL1  H16A 6276   3.124   0.475   9.274 -0.3982 -1.2502  3.7764
   52CHL1  H16B 6277   3.314   0.494   9.269  0.4595  1.0230 -1.7994
   52CHL1   C17 6278   3.239   0.284   9.279  0.3486 -0.2512  0.5333
   52CHL1   H17 6279   3.347   0.262   9.261  0.2675  0.0266 -0.3897
   52CHL1   C13 6280   3.208   0.215   9.415  0.5994 -0.4695 -0.2923
   52CHL1   C18 6281   3.052   0.208   9.432  0.0472 -0.3325  0.5818
   52CHL1  H18A 6282   2.999   0.302   9.406 -1.1463 -0.7675  1.3936
   52CHL1  H18B 6283   3.003   0.139   9.361 -0.1339 -1.1829  1.5155
   52CHL1  H18C 6284   3.017   0.181   9.534 -0.9433  1.5587  0.7960
   52CHL1   C12 6285   3.267   0.083   9.449  0.1026  0.0782  0.4764
   52CHL1  H12A 6286   3.233  -0.002   9.386  1.5209  1.0982 -1.8211
   52CHL1  H12B 6287   3.376   0.089   9.427 -0.1167  0.0168 -0.7073
   52CHL1   C11 6288   3.273   0.047   9.603 -0.5946  0.0677  0.1147
   52CHL1  H11A 6289   3.169   0.016   9.628 -0.6003 -1.2632 -1.3782
   52CHL1  H11B 6290   3.339  -0.042   9.619  0.4646  0.8765  0.3253
   52CHL1    C9 6291   3.315   0.161   9.701 -0.1157  0.1049  0.1481
   52CHL1    H9 6292   3.425   0.167   9.686 -0.3859  2.0087 -1.5447
   52CHL1   C10 6293   3.285   0.134   9.852  0.1016 -0.1899 -0.4942
   52CHL1   C19 6294   3.140   0.072   9.875 -0.1169 -0.1452 -0.3243
   52CHL1  H19A 6295   3.068   0.130   9.814  0.4750  0.0889 -0.8167
   52CHL1  H19B 6296   3.128  -0.029   9.831 -2.5928  0.3712 -0.9841
   52CHL1  H19C 6297   3.105   0.070   9.980  1.0519  0.1100  0.0857
   52CHL1    C1 6298   3.390   0.032   9.900 -0.2145  0.2405 -0.9842
   52CHL1   H1A 6299   3.378  -0.067   9.851 -2.1779  0.5529 -1.2345
   52CHL1   H1B 6300   3.492   0.068   9.876 -0.1520  0.7168 -0.0656
   52CHL1    C2 6301   3.381   0.010  10.050  0.0032 -0.6972 -0.1194
   52CHL1   H2A 6302   3.463  -0.064  10.063 -0.6210 -1.3128  0.4292
   52CHL1   H2B 6303   3.285  -0.035  10.082  1.0397 -3.6378 -0.8208
   52CHL1   C20 6304   3.155   0.235   9.149 -1.1049 -0.7726 -0.1624
   52CHL1   H20 6305   3.048   0.236   9.178 -1.1013  1.6611 -0.0405
   52CHL1   C21 6306   3.199   0.090   9.116 -0.4895  0.3085 -0.3006
   52CHL1  H21A 6307   3.309   0.078   9.124 -0.5090 -0.5238 -1.0295
   52CHL1  H21B 6308   3.174   0.071   9.010  2.0527 -1.0814 -0.7480
   52CHL1  H21C 6309   3.141   0.027   9.187 -0.5171  2.0455  1.3011
   52CHL1   C22 6310   3.165   0.336   9.037  0.4479  0.4202 -0.0606
   52CHL1  H22A 6311   3.115   0.294   8.947  2.7796 -0.2907 -1.1036
   52CHL1  H22B 6312   3.111   0.428   9.070 -0.7421  0.0631 -0.9566
   52CHL1   C23 6313   3.310   0.370   8.989  0.3823  0.4085  0.3644
   52CHL1  H23A 6314   3.354   0.419   9.078  1.8537 -4.5314  2.7060
   52CHL1  H23B 6315   3.366   0.279   8.959  2.0565  2.1981 -2.5091
   52CHL1   C24 6316   3.302   0.453   8.860 -0.0654  0.0185  1.3433
   52CHL1  H24A 6317   3.232   0.402   8.791 -0.3560  2.1202  0.0114
   52CHL1  H24B 6318   3.254   0.551   8.881 -1.5427  0.2831 -2.4970
   52CHL1   C25 6319   3.434   0.476   8.783  0.1314  0.2836 -0.4869
   52CHL1   H25 6320   3.482   0.375   8.784 -0.4115  0.0187 -0.8213
   52CHL1   C26 6321   3.403   0.515   8.635 -0.0568  0.4592 -0.4347
   52CHL1  H26A 6322   3.500   0.527   8.582  2.2297  0.6367  3.4233
   52CHL1  H26B 6323   3.351   0.430   8.586 -1.9947  0.1107  2.0301
   52CHL1  H26C 6324   3.341   0.605   8.618 -0.7958 -0.6659 -5.0784
   52CHL1   C27 6325   3.526   0.581   8.857 -0.0441  0.6852  0.3913
   52CHL1  H27A 6326   3.560   0.538   8.954  0.9818 -0.1802 -0.3265
   52CHL1  H27B 6327   3.623   0.586   8.804  0.5484  0.8473  1.4785
   52CHL1  H27C 6328   3.477   0.681   8.865 -0.3561  0.9151 -2.8596
   53CHL1    C3 6329   3.700   6.368  10.081 -0.2371 -0.1444  0.0592
   53CHL1    H3 6330   3.770   6.453  10.067 -0.6050 -0.0497 -1.3435
   53CHL1    O3 6331   3.635   6.367  10.212 -0.3932  0.1465  0.3824
   53CHL1   H3' 6332   3.684   6.310  10.272  1.8607 -0.2640 -1.7011
   53CHL1    C4 6333   3.586   6.384   9.979  0.2389 -0.0453 -0.5353
   53CHL1   H4A 6334   3.506   6.312  10.005 -0.3773  1.5595  2.4789
   53CHL1   H4B 6335   3.540   6.484   9.993 -0.5619 -0.0986 -2.4566
   53CHL1    C5 6336   3.644   6.365   9.840  0.3118 -0.1551  0.3896
   53CHL1    C6 6337   3.629   6.456   9.743 -0.4430  0.2224 -0.1659
   53CHL1    H6 6338   3.569   6.548   9.756 -0.4868  0.3687 -1.2980
   53CHL1    C7 6339   3.668   6.423   9.600  0.3736 -0.4032 -0.0636
   53CHL1   H7A 6340   3.602   6.470   9.524  0.8416 -0.2337 -0.3692
   53CHL1   H7B 6341   3.765   6.472   9.576 -0.2829  1.3855  0.7638
   53CHL1    C8 6342   3.694   6.274   9.566 -0.5605  0.9021 -0.6367
   53CHL1    H8 6343   3.599   6.217   9.568  0.4420 -0.8326  0.1288
   53CHL1   C14 6344   3.771   6.257   9.438  0.0245 -0.3021 -0.7511
   53CHL1   H14 6345   3.860   6.319   9.460  0.9734 -2.1363  0.8396
   53CHL1   C15 6346   3.704   6.319   9.314  0.4470  0.4604  0.0764
   53CHL1  H15A 6347   3.595   6.298   9.315  0.1374  1.9154 -0.0275
   53CHL1  H15B 6348   3.720   6.429   9.306  1.7250  0.4239  1.5590
   53CHL1   C16 6349   3.767   6.250   9.195 -0.0008 -0.5518  0.0038
   53CHL1  H16A 6350   3.684   6.206   9.135  1.1686 -2.3498 -0.3765
   53CHL1  H16B 6351   3.826   6.326   9.139 -0.0304 -1.2424 -0.9776
   53CHL1   C17 6352   3.861   6.138   9.253  0.8878 -0.1599 -0.3266
   53CHL1   H17 6353   3.962   6.184   9.263 -0.1931  2.0585  1.1329
   53CHL1   C13 6354   3.812   6.120   9.397  0.0453 -0.0001  0.7487
   53CHL1   C18 6355   3.683   6.032   9.394  0.1502  0.5055 -0.2833
   53CHL1  H18A 6356   3.598   6.066   9.332  0.0760  1.3795  0.2774
   53CHL1  H18B 6357   3.705   5.923   9.383 -0.2250  0.1978  1.5490
   53CHL1  H18C 6358   3.640   6.028   9.497  1.4227  2.5530  0.3765
   53CHL1   C12 6359   3.912   6.066   9.497 -0.2528  0.6256  0.0278
   53CHL1  H12A 6360   3.938   5.962   9.469 -0.6885  1.0088 -1.9142
   53CHL1  H12B 6361   4.002   6.130   9.482 -0.3539  0.8128  0.2054
   53CHL1   C11 6362   3.857   6.071   9.639  0.3147 -0.0307 -0.2454
   53CHL1  H11A 6363   3.791   5.983   9.652  1.7809 -1.2390 -0.7245
   53CHL1  H11B 6364   3.928   6.057   9.723 -1.5803  0.0873  1.4704
   53CHL1    C9 6365   3.786   6.215   9.676  0.0605 -0.2141  0.2768
   53CHL1    H9 6366   3.871   6.285   9.669  0.0678 -0.2741 -0.3038
   53CHL1   C10 6367   3.728   6.234   9.815  0.2242 -1.2720 -0.8077
   53CHL1   C19 6368   3.630   6.118   9.848 -0.5882 -0.2368 -0.0236
   53CHL1  H19A 6369   3.545   6.107   9.778  0.4979 -1.1121 -1.2399
   53CHL1  H19B 6370   3.699   6.031   9.847 -2.3160 -1.6426 -0.5436
   53CHL1  H19C 6371   3.590   6.130   9.951  0.4989  0.1248  0.3752
   53CHL1    C1 6372   3.843   6.229   9.923 -1.3496  0.7305 -0.3629
   53CHL1   H1A 6373   3.894   6.130   9.930 -2.5847  0.1524  1.2853
   53CHL1   H1B 6374   3.922   6.305   9.905 -0.0335 -0.5168 -0.1063
   53CHL1    C2 6375   3.791   6.245  10.069  0.9527 -0.4745  0.2017
   53CHL1   H2A 6376   3.875   6.248  10.141  1.8602 -1.0148 -0.7901
   53CHL1   H2B 6377   3.741   6.153  10.106  2.4796 -1.6392 -0.4720
   53CHL1   C20 6378   3.878   6.022   9.154  0.9886 -0.1307  0.1828
   53CHL1   H20 6379   3.774   5.984   9.149  0.5082  1.2542 -0.9251
   53CHL1   C21 6380   3.966   5.911   9.199  0.1550  0.9604 -0.3019
   53CHL1  H21A 6381   3.988   5.842   9.114 -0.4156  0.9666 -0.4656
   53CHL1  H21B 6382   3.927   5.850   9.284  0.8293 -1.0566 -1.3723
   53CHL1  H21C 6383   4.067   5.937   9.237  0.8207 -1.1206 -0.5291
   53CHL1   C22 6384   3.920   6.069   9.016 -0.2822  0.1397  1.1334
   53CHL1  H22A 6385   3.938   5.978   8.954 -0.0071  2.5602 -2.6248
   53CHL1  H22B 6386   3.846   6.124   8.956 -0.5474 -1.3811  0.0086
   53CHL1   C23 6387   4.049   6.143   9.018  0.1864  0.5385 -0.4589
   53CHL1  H23A 6388   4.035   6.238   9.074 -1.2289  0.6398 -0.9460
   53CHL1  H23B 6389   4.116   6.077   9.078  1.4390  0.6632 -1.6533
   53CHL1   C24 6390   4.114   6.177   8.882  0.4333 -0.8627  0.9731
   53CHL1  H24A 6391   4.115   6.087   8.817 -0.8988  0.3319 -0.7933
   53CHL1  H24B 6392   4.054   6.262   8.843 -0.7216 -1.4737  1.3831
   53CHL1   C25 6393   4.259   6.228   8.885  0.1428  0.4315  0.0622
   53CHL1   H25 6394   4.327   6.147   8.919 -0.8551 -1.4062 -2.0903
   53CHL1   C26 6395   4.308   6.272   8.747  0.3021 -0.1349  0.5399
   53CHL1  H26A 6396   4.290   6.200   8.665  1.2072  2.9456 -2.6226
   53CHL1  H26B 6397   4.264   6.369   8.715 -1.6543 -1.5486 -1.2863
   53CHL1  H26C 6398   4.418   6.289   8.741  0.1327  1.7865  1.8885
   53CHL1   C27 6399   4.268   6.354   8.975 -0.8833  0.0047 -0.2507
   53CHL1  H27A 6400   4.357   6.419   8.963 -0.5082 -0.1764  1.3154
   53CHL1  H27B 6401   4.177   6.415   8.962 -0.7861  0.2713  0.2939
   53CHL1  H27C 6402   4.280   6.332   9.084 -0.8634 -1.0981 -0.4607
   54CHL1    C3 6403   2.455   0.487  10.231 -0.8943  0.0923  0.8695
   54CHL1    H3 6404   2.538   0.555  10.259  1.5423 -2.9183  1.5131
   54CHL1    O3 6405   2.442   0.391  10.330  0.0106  0.9343 -0.2265
   54CHL1   H3' 6406   2.383   0.320  10.304 -0.2314  0.8257  0.5877
   54CHL1    C4 6407   2.325   0.563  10.208 -0.4451 -0.0573  0.0288
   54CHL1   H4A 6408   2.243   0.488  10.218  0.3461 -1.0786 -0.9741
   54CHL1   H4B 6409   2.327   0.631  10.296 -0.7038  1.8730 -1.3854
   54CHL1    C5 6410   2.323   0.653  10.084  0.1373 -0.1857  0.3789
   54CHL1    C6 6411   2.289   0.781  10.085  0.5157 -0.2235 -0.3238
   54CHL1    H6 6412   2.277   0.823  10.186  1.3565 -0.8030  0.0279
   54CHL1    C7 6413   2.272   0.865   9.960 -0.3799 -0.3603  0.3058
   54CHL1   H7A 6414   2.179   0.925   9.962 -0.5078 -0.2767 -3.0414
   54CHL1   H7B 6415   2.354   0.940   9.963 -1.6983  1.1222  0.4451
   54CHL1    C8 6416   2.277   0.774   9.830  0.3623 -0.3470 -0.2665
   54CHL1    H8 6417   2.177   0.725   9.823  0.5729 -0.7167 -0.7103
   54CHL1   C14 6418   2.298   0.864   9.708 -0.2908  0.4338 -0.4327
   54CHL1   H14 6419   2.396   0.914   9.724 -0.3351  0.6039 -0.6758
   54CHL1   C15 6420   2.202   0.981   9.685  0.2002 -0.5017  0.3489
   54CHL1  H15A 6421   2.104   0.931   9.699 -2.1163  3.6492  0.3973
   54CHL1  H15B 6422   2.213   1.056   9.766  0.7245 -1.0088  0.7576
   54CHL1   C16 6423   2.246   1.035   9.551 -0.0420  0.1486  0.2072
   54CHL1  H16A 6424   2.145   1.050   9.506  0.1989  0.8723 -0.1137
   54CHL1  H16B 6425   2.295   1.134   9.555  0.0717  0.0493  2.2620
   54CHL1   C17 6426   2.326   0.916   9.485  0.7504 -0.4185 -0.6748
   54CHL1   H17 6427   2.433   0.939   9.503  1.0161 -1.2225 -1.1778
   54CHL1   C13 6428   2.306   0.795   9.572  0.6292 -0.0318 -0.4375
   54CHL1   C18 6429   2.162   0.727   9.542 -0.0130  0.3982  0.6599
   54CHL1  H18A 6430   2.181   0.643   9.472 -0.0407  0.5582  0.4586
   54CHL1  H18B 6431   2.108   0.680   9.627 -0.9045  1.4121  0.6661
   54CHL1  H18C 6432   2.092   0.798   9.495  1.2714 -0.0653 -2.1747
   54CHL1   C12 6433   2.425   0.700   9.578 -0.5292 -0.2264 -0.0145
   54CHL1  H12A 6434   2.435   0.641   9.485 -0.4652  0.0229 -0.1662
   54CHL1  H12B 6435   2.521   0.752   9.598 -1.3514  1.8037 -1.0210
   54CHL1   C11 6436   2.408   0.599   9.697 -0.8038 -0.9465 -0.1876
   54CHL1  H11A 6437   2.310   0.550   9.682 -2.2549  1.3301  1.2477
   54CHL1  H11B 6438   2.492   0.527   9.708 -1.0513 -1.1653  0.2967
   54CHL1    C9 6439   2.384   0.670   9.838 -0.1159  0.6706 -0.4333
   54CHL1    H9 6440   2.472   0.734   9.857  0.7222 -0.3673 -0.6987
   54CHL1   C10 6441   2.359   0.578   9.959  0.0389 -0.4016 -0.0423
   54CHL1   C19 6442   2.243   0.480   9.927  0.4482 -0.4218  0.0059
   54CHL1  H19A 6443   2.268   0.414   9.841  0.8277  2.5953 -2.4030
   54CHL1  H19B 6444   2.224   0.415  10.014  0.7784  1.4746  1.5848
   54CHL1  H19C 6445   2.151   0.538   9.902  0.4016 -0.5179 -0.0433
   54CHL1    C1 6446   2.497   0.508   9.982  0.0863 -0.0650 -0.6090
   54CHL1   H1A 6447   2.514   0.436   9.899  1.4096  0.4397 -0.8129
   54CHL1   H1B 6448   2.573   0.589   9.985  1.5975 -1.3849 -1.2985
   54CHL1    C2 6449   2.502   0.417  10.095 -0.0819 -0.2373 -0.6618
   54CHL1   H2A 6450   2.601   0.366  10.097 -1.0965 -2.4012 -1.9561
   54CHL1   H2B 6451   2.431   0.333  10.078 -2.1073  1.6880 -2.1949
   54CHL1   C20 6452   2.304   0.921   9.341 -0.3815  0.3180  0.0068
   54CHL1   H20 6453   2.194   0.912   9.326  0.0502 -3.5979 -2.1142
   54CHL1   C21 6454   2.373   0.799   9.276 -0.3339 -0.2769  0.6990
   54CHL1  H21A 6455   2.483   0.808   9.290  0.2245 -1.1140 -2.2933
   54CHL1  H21B 6456   2.369   0.793   9.165  1.3395 -1.5054  0.6712
   54CHL1  H21C 6457   2.326   0.701   9.298 -0.5750 -1.0369 -2.5982
   54CHL1   C22 6458   2.348   1.055   9.275 -0.0181 -0.8765 -0.3473
   54CHL1  H22A 6459   2.271   1.131   9.301  0.5751 -0.6721  0.8680
   54CHL1  H22B 6460   2.445   1.094   9.312  0.1314 -1.9389  0.4454
   54CHL1   C23 6461   2.335   1.055   9.121 -0.7250 -0.2885  0.2843
   54CHL1  H23A 6462   2.404   0.981   9.076 -1.4282  1.4354 -4.2172
   54CHL1  H23B 6463   2.230   1.025   9.101 -0.0471 -1.6735 -1.4489
   54CHL1   C24 6464   2.353   1.190   9.060 -0.7322 -0.0380 -0.5292
   54CHL1  H24A 6465   2.318   1.275   9.124  0.4423  0.7721 -0.9314
   54CHL1  H24B 6466   2.462   1.208   9.060 -0.5282 -1.2132 -0.8957
   54CHL1   C25 6467   2.300   1.213   8.911 -0.0015 -0.0703  0.6168
   54CHL1   H25 6468   2.347   1.134   8.849  2.1696  0.7517  1.1202
   54CHL1   C26 6469   2.148   1.192   8.896 -0.2707 -0.7022  0.2244
   54CHL1  H26A 6470   2.102   1.236   8.987 -0.9946  1.3798 -1.0876
   54CHL1  H26B 6471   2.110   1.237   8.802 -0.2321 -1.0027  0.0609
   54CHL1  H26C 6472   2.131   1.082   8.884 -0.2090 -0.5805 -1.1313
   54CHL1   C27 6473   2.338   1.353   8.862 -0.1480  0.3426 -0.7321
   54CHL1  H27A 6474   2.448   1.362   8.875 -0.5498  2.5057  2.4442
   54CHL1  H27B 6475   2.317   1.360   8.753  1.0358  1.0161 -0.9333
   54CHL1  H27C 6476   2.293   1.430   8.929  2.2879  1.6601 -0.4719
   55CHL1    C3 6477   4.338   5.377  10.192  1.0869 -0.1871  0.1041
   55CHL1    H3 6478   4.252   5.337  10.135  1.0827 -2.5853  1.6362
   55CHL1    O3 6479   4.308   5.387  10.327 -0.2578  0.0179  0.3153
   55CHL1   H3' 6480   4.269   5.473  10.344  1.6003  0.7098  1.4814
   55CHL1    C4 6481   4.458   5.280  10.170 -0.7052  0.5256  0.3744
   55CHL1   H4A 6482   4.542   5.327  10.225 -2.2050  3.6953  0.1979
   55CHL1   H4B 6483   4.431   5.184  10.220  0.2026 -0.7507 -1.4702
   55CHL1    C5 6484   4.484   5.268  10.019  0.2782  0.3615  0.0732
   55CHL1    C6 6485   4.460   5.152   9.959  0.3472 -0.3394  0.5985
   55CHL1    H6 6486   4.424   5.063  10.012  0.2834 -1.3386 -1.0691
   55CHL1    C7 6487   4.479   5.141   9.811  0.8132  0.4997 -0.0034
   55CHL1   H7A 6488   4.527   5.043   9.788  0.7472  0.6812 -0.9392
   55CHL1   H7B 6489   4.378   5.158   9.770  1.4220  2.1317 -0.8817
   55CHL1    C8 6490   4.576   5.247   9.751 -0.3859 -0.0645 -0.3064
   55CHL1    H8 6491   4.680   5.232   9.785 -0.3683 -0.2162 -0.4251
   55CHL1   C14 6492   4.585   5.233   9.596  0.3502  0.4314  0.0827
   55CHL1   H14 6493   4.480   5.248   9.563 -0.1582  0.9400  1.8245
   55CHL1   C15 6494   4.627   5.096   9.528  0.2818 -0.8055  0.1467
   55CHL1  H15A 6495   4.713   5.057   9.586  0.6190  0.6540  0.6636
   55CHL1  H15B 6496   4.537   5.031   9.524 -0.0496 -0.4422  1.4106
   55CHL1   C16 6497   4.662   5.135   9.386  0.1424 -0.1868 -0.3280
   55CHL1  H16A 6498   4.763   5.091   9.370  0.0284  0.1924 -2.3129
   55CHL1  H16B 6499   4.586   5.091   9.319  1.5599 -1.0878 -1.3942
   55CHL1   C17 6500   4.650   5.290   9.378  0.5147  0.7670  0.3226
   55CHL1   H17 6501   4.546   5.313   9.347  0.3135  1.5002  1.4928
   55CHL1   C13 6502   4.665   5.340   9.522 -0.5902  0.2509 -0.7571
   55CHL1   C18 6503   4.807   5.323   9.560 -0.5710 -0.0570 -0.1559
   55CHL1  H18A 6504   4.824   5.300   9.668 -1.0585 -2.9751 -0.6302
   55CHL1  H18B 6505   4.864   5.246   9.505 -0.6394  0.3777 -0.8391
   55CHL1  H18C 6506   4.860   5.420   9.546 -0.8292  0.1841  0.4383
   55CHL1   C12 6507   4.607   5.480   9.566  0.7091 -0.3791 -0.2382
   55CHL1  H12A 6508   4.654   5.573   9.530 -3.0982  1.5434 -0.7932
   55CHL1  H12B 6509   4.502   5.488   9.530  0.3127  0.5587  1.0103
   55CHL1   C11 6510   4.597   5.499   9.716 -0.3135  0.2649 -0.7723
   55CHL1  H11A 6511   4.699   5.531   9.744  0.2575 -0.4582 -1.9360
   55CHL1  H11B 6512   4.529   5.586   9.729 -0.3751  0.4659 -2.2168
   55CHL1    C9 6513   4.529   5.384   9.786  0.2254  0.9229  0.0256
   55CHL1    H9 6514   4.421   5.389   9.758  0.1062 -0.0900  0.2519
   55CHL1   C10 6515   4.521   5.394   9.943 -0.5943 -0.5447 -0.6763
   55CHL1   C19 6516   4.662   5.428  10.001 -0.1229  0.2415  0.2974
   55CHL1  H19A 6517   4.745   5.367   9.961  0.5774  0.7515  0.9530
   55CHL1  H19B 6518   4.695   5.527   9.962 -2.0170  1.1329  0.8557
   55CHL1  H19C 6519   4.664   5.427  10.112 -1.8199 -0.6079  0.3499
   55CHL1    C1 6520   4.420   5.505   9.982 -0.3177 -0.2249  0.9688
   55CHL1   H1A 6521   4.449   5.607   9.950 -2.3394  0.2643  0.5886
   55CHL1   H1B 6522   4.329   5.478   9.923  0.0823  0.6643 -0.0912
   55CHL1    C2 6523   4.384   5.517  10.134  0.0834 -0.0948 -0.8747
   55CHL1   H2A 6524   4.293   5.580  10.139 -1.8155 -2.7297  0.3707
   55CHL1   H2B 6525   4.463   5.567  10.195 -0.4910 -2.0558  1.6610
   55CHL1   C20 6526   4.737   5.354   9.271 -0.3978 -0.1255  0.0916
   55CHL1   H20 6527   4.841   5.361   9.308  0.2001 -0.4477 -1.4360
   55CHL1   C21 6528   4.680   5.492   9.239  0.0182 -0.2678  0.2560
   55CHL1  H21A 6529   4.743   5.544   9.163 -0.4756 -1.0219 -0.6826
   55CHL1  H21B 6530   4.657   5.556   9.326  0.1253 -0.6932  0.5974
   55CHL1  H21C 6531   4.583   5.483   9.186  0.1703 -0.7179  0.0489
   55CHL1   C22 6532   4.745   5.266   9.138 -0.3819 -0.0615 -0.4178
   55CHL1  H22A 6533   4.820   5.322   9.079  0.6988 -1.1908 -0.1527
   55CHL1  H22B 6534   4.794   5.172   9.171  0.0098 -0.3764 -1.8406
   55CHL1   C23 6535   4.619   5.243   9.050  0.1109 -0.3705 -0.1469
   55CHL1  H23A 6536   4.546   5.199   9.121  0.3171  0.4731  0.5948
   55CHL1  H23B 6537   4.575   5.342   9.028  0.1292 -0.3306 -0.0009
   55CHL1   C24 6538   4.635   5.154   8.927  0.2920  0.3906  0.6700
   55CHL1  H24A 6539   4.711   5.207   8.865 -0.4370  2.0606  1.1332
   55CHL1  H24B 6540   4.683   5.059   8.958 -2.6163 -1.4945 -0.1954
   55CHL1   C25 6541   4.506   5.135   8.839 -0.3162  0.5279  0.5125
   55CHL1   H25 6542   4.460   5.236   8.835  0.0628  0.6655 -0.7233
   55CHL1   C26 6543   4.535   5.071   8.707 -0.1993 -0.1570  0.1292
   55CHL1  H26A 6544   4.611   5.124   8.645  1.0614 -2.2153 -0.1900
   55CHL1  H26B 6545   4.585   4.972   8.713 -0.7033 -0.4002  0.4622
   55CHL1  H26C 6546   4.442   5.052   8.648 -0.1273 -2.4068  0.6291
   55CHL1   C27 6547   4.411   5.043   8.919 -0.1289  0.0559 -0.2442
   55CHL1  H27A 6548   4.308   5.084   8.917  0.6419  2.0891 -0.8459
   55CHL1  H27B 6549   4.413   4.943   8.872  0.2934  0.4890 -1.1734
   55CHL1  H27C 6550   4.435   5.053   9.027  3.2287  3.9275 -1.0857
   56CHL1    C3 6551   3.243   3.925  10.264 -0.0555 -1.2062  0.0673
   56CHL1    H3 6552   3.354   3.932  10.262 -0.0601 -1.1333 -1.8849
   56CHL1    O3 6553   3.192   3.938  10.392  0.2865 -0.4149 -0.2403
   56CHL1   H3' 6554   3.196   4.031  10.418 -2.8472 -0.4059  0.6845
   56CHL1    C4 6555   3.174   4.025  10.176 -0.0240  0.5238  0.5490
   56CHL1   H4A 6556   3.067   4.014  10.203  0.0690 -1.0524  0.3354
   56CHL1   H4B 6557   3.195   4.129  10.208 -0.5433  0.5612  0.7776
   56CHL1    C5 6558   3.180   4.009  10.022 -0.8001 -0.2144 -0.6739
   56CHL1    C6 6559   3.203   4.110   9.935 -0.1776 -0.1788  0.3827
   56CHL1    H6 6560   3.209   4.212   9.975  0.6766 -0.2271  0.3830
   56CHL1    C7 6561   3.229   4.091   9.788  0.1162  1.0274 -0.0117
   56CHL1   H7A 6562   3.175   4.172   9.733 -0.7986  0.5880  0.2298
   56CHL1   H7B 6563   3.335   4.121   9.772  0.1852 -0.1022 -2.0537
   56CHL1    C8 6564   3.197   3.957   9.730 -0.0646 -0.1722  0.1482
   56CHL1    H8 6565   3.088   3.957   9.708  0.0403  1.8663 -0.5633
   56CHL1   C14 6566   3.273   3.943   9.603 -0.0219  0.2813  0.1812
   56CHL1   H14 6567   3.379   3.942   9.636  0.1665  2.3013 -0.1998
   56CHL1   C15 6568   3.262   4.058   9.506  0.1645 -0.6250 -0.6058
   56CHL1  H15A 6569   3.153   4.078   9.504  0.4649  1.3069  0.0411
   56CHL1  H15B 6570   3.305   4.158   9.529 -0.6869 -0.0010 -1.6208
   56CHL1   C16 6571   3.317   4.002   9.381  0.1735  0.3520 -0.3210
   56CHL1  H16A 6572   3.242   4.027   9.303 -1.4275 -1.7637  0.4265
   56CHL1  H16B 6573   3.412   4.038   9.337  1.4013 -0.7070  1.3568
   56CHL1   C17 6574   3.325   3.843   9.399  0.9387  0.6679 -0.1251
   56CHL1   H17 6575   3.429   3.815   9.425  0.4232 -1.3916 -0.0800
   56CHL1   C13 6576   3.242   3.812   9.529 -0.5672  0.4708  0.2262
   56CHL1   C18 6577   3.094   3.801   9.499  0.2224 -0.4364  0.1138
   56CHL1  H18A 6578   3.031   3.805   9.590 -1.3649 -1.2426 -0.9067
   56CHL1  H18B 6579   3.060   3.882   9.432  2.4605 -0.1532 -0.7853
   56CHL1  H18C 6580   3.076   3.707   9.442 -3.2065  1.3700 -2.0245
   56CHL1   C12 6581   3.265   3.685   9.621 -0.9924 -0.2924  0.3762
   56CHL1  H12A 6582   3.219   3.588   9.593  1.3650 -1.5059  0.4609
   56CHL1  H12B 6583   3.375   3.684   9.635 -0.8869  2.0002  0.0412
   56CHL1   C11 6584   3.207   3.708   9.765  0.4356 -0.1561 -1.3492
   56CHL1  H11A 6585   3.098   3.700   9.745  0.2091  0.5127 -0.4479
   56CHL1  H11B 6586   3.240   3.618   9.821  1.7706  2.0298  1.6429
   56CHL1    C9 6587   3.234   3.845   9.826 -0.3632  0.4022 -0.3681
   56CHL1    H9 6588   3.343   3.845   9.848 -0.4416 -0.1191  0.0439
   56CHL1   C10 6589   3.172   3.859   9.968 -0.0522  0.1498  0.3545
   56CHL1   C19 6590   3.022   3.825   9.957 -0.4811  0.1848 -0.5217
   56CHL1  H19A 6591   3.006   3.715   9.954 -0.6187  0.2324 -2.2861
   56CHL1  H19B 6592   2.978   3.863  10.052  1.1805  0.7692  0.0510
   56CHL1  H19C 6593   2.968   3.879   9.877 -0.9627  1.7908  0.8285
   56CHL1    C1 6594   3.247   3.761  10.074  0.2462 -0.2797 -0.1753
   56CHL1   H1A 6595   3.214   3.659  10.046  1.8943 -0.9117  0.0519
   56CHL1   H1B 6596   3.358   3.762  10.066  0.2553  0.2239 -0.0665
   56CHL1    C2 6597   3.205   3.780  10.222  0.0402  0.5194 -0.3161
   56CHL1   H2A 6598   3.256   3.711  10.292  0.8359  2.4484  1.0896
   56CHL1   H2B 6599   3.096   3.768  10.241  0.2615 -0.1032  0.5983
   56CHL1   C20 6600   3.288   3.766   9.268 -0.5410 -0.1215  0.0122
   56CHL1   H20 6601   3.192   3.802   9.226 -0.1395 -0.5570 -1.3055
   56CHL1   C21 6602   3.288   3.614   9.296  0.3749 -0.0268 -0.3335
   56CHL1  H21A 6603   3.382   3.587   9.349  1.9151  1.1413 -2.3251
   56CHL1  H21B 6604   3.276   3.549   9.207 -0.4601 -1.3243  0.6777
   56CHL1  H21C 6605   3.205   3.587   9.366  0.8009 -0.0876  0.1577
   56CHL1   C22 6606   3.392   3.799   9.154 -0.0547  0.3690  0.2989
   56CHL1  H22A 6607   3.416   3.908   9.150  2.0534 -0.0330  0.6118
   56CHL1  H22B 6608   3.485   3.743   9.181  0.3559  1.5606  1.4743
   56CHL1   C23 6609   3.349   3.764   9.009  0.0914  0.2388  0.5369
   56CHL1  H23A 6610   3.318   3.658   9.007  0.9319 -0.0091 -0.7711
   56CHL1  H23B 6611   3.255   3.817   8.980 -0.1591  0.9717  2.5421
   56CHL1   C24 6612   3.461   3.773   8.901  0.3611 -0.9703  0.0052
   56CHL1  H24A 6613   3.561   3.777   8.948  0.4855 -0.7451 -0.2747
   56CHL1  H24B 6614   3.459   3.671   8.856 -0.1740 -1.0521  0.2076
   56CHL1   C25 6615   3.452   3.882   8.792 -0.1344  0.5564  0.4039
   56CHL1   H25 6616   3.439   3.984   8.835 -0.1862  0.7356 -0.0383
   56CHL1   C26 6617   3.576   3.865   8.703 -0.1109  0.1848 -1.1233
   56CHL1  H26A 6618   3.583   3.951   8.633  0.1366  1.2293  0.1557
   56CHL1  H26B 6619   3.669   3.867   8.763 -0.6435  0.2585 -0.2845
   56CHL1  H26C 6620   3.568   3.766   8.652  1.0876 -0.9201  0.7337
   56CHL1   C27 6621   3.319   3.862   8.713  1.1171  0.4830 -0.4266
   56CHL1  H27A 6622   3.319   3.760   8.669 -1.3268 -0.2166  0.9570
   56CHL1  H27B 6623   3.235   3.872   8.786  2.0373 -1.9236  1.1015
   56CHL1  H27C 6624   3.309   3.941   8.636  1.2121  0.9924  0.0771
   57CHL1    C3 6625   5.470   6.313  10.410  0.2000 -0.3344 -0.5054
   57CHL1    H3 6626   5.366   6.350  10.396  0.0133  0.2792  1.9987
   57CHL1    O3 6627   5.490   6.341  10.549  0.3935 -0.1160 -0.4506
   57CHL1   H3' 6628   5.559   6.275  10.563  0.0636 -0.1131  1.3713
   57CHL1    C4 6629   5.500   6.166  10.388 -0.1956  0.4191 -0.8670
   57CHL1   H4A 6630   5.604   6.146  10.422 -0.9092  2.0419  2.7743
   57CHL1   H4B 6631   5.431   6.108  10.452  0.4572  0.5035 -0.0761
   57CHL1    C5 6632   5.463   6.128  10.245 -0.5152  0.1976  0.7297
   57CHL1    C6 6633   5.369   6.038  10.207  0.2000  0.0546 -0.0744
   57CHL1    H6 6634   5.305   6.000  10.288  0.9965 -0.6268  0.2476
   57CHL1    C7 6635   5.347   5.993  10.062  0.0757  0.0548 -0.7270
   57CHL1   H7A 6636   5.342   5.883  10.070  0.6522  0.1432  1.2358
   57CHL1   H7B 6637   5.245   6.022  10.027  0.9947 -0.0869 -3.7976
   57CHL1    C8 6638   5.448   6.047   9.964  0.5318  0.0034  0.3011
   57CHL1    H8 6639   5.541   5.986   9.970  0.4468 -0.3570 -1.5859
   57CHL1   C14 6640   5.392   6.051   9.826 -0.6108  0.5235  0.4173
   57CHL1   H14 6641   5.313   6.129   9.826 -0.9040  0.2269  0.2341
   57CHL1   C15 6642   5.322   5.925   9.777  0.0557  0.0723 -0.1666
   57CHL1  H15A 6643   5.386   5.837   9.800 -1.2856 -0.3549  2.3393
   57CHL1  H15B 6644   5.223   5.908   9.825 -0.0141  3.0127  0.9744
   57CHL1   C16 6645   5.306   5.943   9.627 -0.4613 -0.0780  0.0040
   57CHL1  H16A 6646   5.338   5.851   9.573  0.0211 -0.0035  0.1597
   57CHL1  H16B 6647   5.199   5.959   9.601 -0.5262 -1.1879 -0.5127
   57CHL1   C17 6648   5.395   6.065   9.589  0.4907  0.5334  0.4446
   57CHL1   H17 6649   5.326   6.152   9.589 -0.6364 -0.3108  1.8896
   57CHL1   C13 6650   5.488   6.086   9.711  1.1273 -0.6515 -0.1956
   57CHL1   C18 6651   5.604   5.979   9.710 -0.2392 -0.6710 -0.2847
   57CHL1  H18A 6652   5.657   5.966   9.807 -0.1682  0.4646 -0.1556
   57CHL1  H18B 6653   5.568   5.886   9.662 -3.0446  0.7303 -1.0975
   57CHL1  H18C 6654   5.679   6.024   9.641  0.4072 -1.0436  0.1668
   57CHL1   C12 6655   5.533   6.231   9.738 -0.3951  0.6017  0.4477
   57CHL1  H12A 6656   5.599   6.271   9.657 -2.0303  1.0626 -0.7066
   57CHL1  H12B 6657   5.447   6.301   9.747 -0.0648  1.3966 -1.9447
   57CHL1   C11 6658   5.594   6.250   9.880 -0.1962 -0.3217  0.9378
   57CHL1  H11A 6659   5.691   6.196   9.889  0.9249  1.5828  0.7362
   57CHL1  H11B 6660   5.626   6.354   9.903  1.3326 -0.6344  0.3664
   57CHL1    C9 6661   5.494   6.191   9.989 -0.7729 -0.7468  0.0087
   57CHL1    H9 6662   5.401   6.251   9.983 -0.1759  0.4244  1.6809
   57CHL1   C10 6663   5.547   6.212  10.136  0.2086 -0.0116 -0.4877
   57CHL1   C19 6664   5.693   6.172  10.143 -0.2685  0.0363 -0.7465
   57CHL1  H19A 6665   5.731   6.179  10.247  0.6893 -2.3145 -0.8735
   57CHL1  H19B 6666   5.722   6.073  10.101  0.9062  0.2197 -0.4062
   57CHL1  H19C 6667   5.756   6.249  10.092  1.1473  1.0554  2.3165
   57CHL1    C1 6668   5.543   6.364  10.173 -0.0936 -0.2961  0.2968
   57CHL1   H1A 6669   5.616   6.426  10.117  0.5193 -0.0855  1.3120
   57CHL1   H1B 6670   5.446   6.412  10.149 -0.5566 -1.2188  0.2884
   57CHL1    C2 6671   5.567   6.391  10.320  0.1457 -0.1801  0.1181
   57CHL1   H2A 6672   5.555   6.496  10.355  1.5394 -0.7009  2.2967
   57CHL1   H2B 6673   5.670   6.365  10.351 -0.6160 -1.2678  1.8185
   57CHL1   C20 6674   5.451   6.055   9.443 -0.2095  0.3524  0.5808
   57CHL1   H20 6675   5.541   5.990   9.438  0.6019  1.4095  0.9332
   57CHL1   C21 6676   5.505   6.198   9.403 -0.0481 -0.0478 -0.3148
   57CHL1  H21A 6677   5.593   6.225   9.466 -1.4499 -1.0161  2.2182
   57CHL1  H21B 6678   5.423   6.271   9.424 -1.0484 -1.1595 -0.2962
   57CHL1  H21C 6679   5.543   6.207   9.299  0.2360  1.8833 -0.0851
   57CHL1   C22 6680   5.346   6.013   9.328 -0.0076 -0.0483  0.1754
   57CHL1  H22A 6681   5.251   5.991   9.380  0.0757 -0.2977  0.2213
   57CHL1  H22B 6682   5.328   6.105   9.268 -1.2630  1.0384  2.1341
   57CHL1   C23 6683   5.389   5.891   9.246 -0.4045 -0.1314 -0.1888
   57CHL1  H23A 6684   5.380   5.804   9.314 -0.1651  1.4119  1.9085
   57CHL1  H23B 6685   5.323   5.884   9.157  0.7715  3.8432 -1.5997
   57CHL1   C24 6686   5.538   5.885   9.199 -0.5421 -0.6837  0.3629
   57CHL1  H24A 6687   5.568   5.983   9.156  0.4940 -0.9395  0.4846
   57CHL1  H24B 6688   5.612   5.876   9.281 -0.1759  0.0853  0.1250
   57CHL1   C25 6689   5.567   5.790   9.081  0.1311  0.9684 -0.5077
   57CHL1   H25 6690   5.526   5.692   9.114 -0.3552  1.0741 -0.7876
   57CHL1   C26 6691   5.508   5.829   8.949 -0.3424  0.0722  0.2916
   57CHL1  H26A 6692   5.558   5.918   8.905 -0.5028 -0.2151 -0.4993
   57CHL1  H26B 6693   5.519   5.738   8.887  0.1363  0.5313 -0.3078
   57CHL1  H26C 6694   5.403   5.859   8.969 -0.6360  1.0067 -2.2913
   57CHL1   C27 6695   5.718   5.768   9.061  0.3960  0.2168 -0.2083
   57CHL1  H27A 6696   5.752   5.870   9.032 -1.5155  0.4523 -1.7548
   57CHL1  H27B 6697   5.756   5.735   9.160  0.1045 -0.1100 -0.2017
   57CHL1  H27C 6698   5.749   5.690   8.988 -1.1012 -0.8444  0.2436
   58CHL1    C3 6699   1.389   5.372  10.244  0.0634  0.3022 -0.1364
   58CHL1    H3 6700   1.487   5.329  10.216 -0.4743 -0.1393 -1.3839
   58CHL1    O3 6701   1.387   5.419  10.375  0.0707  0.6374 -0.1519
   58CHL1   H3' 6702   1.293   5.429  10.393  0.1090 -0.3576  0.6891
   58CHL1    C4 6703   1.346   5.480  10.146  0.1091  0.1275  0.5922
   58CHL1   H4A 6704   1.244   5.516  10.171  0.3055  1.8632 -0.8885
   58CHL1   H4B 6705   1.425   5.556  10.162  2.2622 -1.4985 -1.7338
   58CHL1    C5 6706   1.337   5.442   9.998 -0.4088 -0.4058 -0.0995
   58CHL1    C6 6707   1.400   5.517   9.903 -0.0826 -0.1287  0.7380
   58CHL1    H6 6708   1.441   5.617   9.925  1.0339 -0.5716  0.7000
   58CHL1    C7 6709   1.403   5.488   9.756  0.3588  0.1978 -0.3171
   58CHL1   H7A 6710   1.391   5.581   9.696  3.4681  0.5253 -0.5796
   58CHL1   H7B 6711   1.499   5.436   9.735 -0.6686 -2.7826  1.6696
   58CHL1    C8 6712   1.292   5.380   9.721  0.1700  0.5992  0.1476
   58CHL1    H8 6713   1.196   5.437   9.728  0.0086  0.3077  0.3547
   58CHL1   C14 6714   1.315   5.323   9.580  0.2290  0.2722 -0.9102
   58CHL1   H14 6715   1.415   5.276   9.590  0.6945  1.5946  1.3951
   58CHL1   C15 6716   1.323   5.428   9.468 -0.8383  0.0913 -0.0061
   58CHL1  H15A 6717   1.244   5.505   9.482 -0.4189  0.5431 -0.1269
   58CHL1  H15B 6718   1.414   5.490   9.480 -0.2889 -1.1438  3.0532
   58CHL1   C16 6719   1.306   5.349   9.338 -0.1077 -0.2331  0.0197
   58CHL1  H16A 6720   1.223   5.401   9.284  0.7342  1.4292  0.2467
   58CHL1  H16B 6721   1.399   5.365   9.279  0.7143  3.1846  1.9671
   58CHL1   C17 6722   1.265   5.206   9.384 -0.0413 -0.2432 -0.7625
   58CHL1   H17 6723   1.359   5.147   9.396 -0.3450 -0.5183  0.3438
   58CHL1   C13 6724   1.215   5.220   9.527  0.2781 -0.7421 -0.4738
   58CHL1   C18 6725   1.066   5.272   9.535  0.0108  0.2201 -0.2984
   58CHL1  H18A 6726   1.036   5.317   9.632 -0.2808  0.3937 -0.4656
   58CHL1  H18B 6727   1.047   5.340   9.449 -0.9699  0.5520  0.1644
   58CHL1  H18C 6728   0.997   5.186   9.542  1.7151 -1.0249  3.4065
   58CHL1   C12 6729   1.228   5.095   9.626 -0.5768 -0.7282  0.3324
   58CHL1  H12A 6730   1.147   5.025   9.596 -0.6114 -0.5056 -0.0880
   58CHL1  H12B 6731   1.327   5.044   9.618  0.0505  0.6168 -0.8511
   58CHL1   C11 6732   1.211   5.144   9.769 -0.2333  0.3649 -0.1146
   58CHL1  H11A 6733   1.105   5.174   9.777 -0.2345  0.3823 -0.1908
   58CHL1  H11B 6734   1.231   5.056   9.834 -1.4995  0.6604  0.6979
   58CHL1    C9 6735   1.287   5.265   9.826 -0.3323 -0.3855 -0.1364
   58CHL1    H9 6736   1.393   5.232   9.827 -0.3472 -0.6958 -3.0287
   58CHL1   C10 6737   1.254   5.317   9.972 -0.5643 -0.9154 -0.3634
   58CHL1   C19 6738   1.105   5.351   9.977 -0.1051  0.1788 -0.4166
   58CHL1  H19A 6739   1.039   5.269   9.942 -1.1471  1.2184 -0.9694
   58CHL1  H19B 6740   1.067   5.372  10.079 -1.7123 -1.1739 -0.7034
   58CHL1  H19C 6741   1.075   5.437   9.912 -1.8967 -0.2350 -0.1898
   58CHL1    C1 6742   1.293   5.211  10.074 -0.0832 -0.2544 -0.0246
   58CHL1   H1A 6743   1.223   5.125  10.063  1.6356 -1.6669 -0.3576
   58CHL1   H1B 6744   1.398   5.180  10.056  1.3791  2.9923  2.1058
   58CHL1    C2 6745   1.294   5.250  10.226 -0.0791 -0.3974  0.4980
   58CHL1   H2A 6746   1.339   5.166  10.284 -0.1035 -1.3190 -0.7829
   58CHL1   H2B 6747   1.189   5.278  10.247  0.0577  0.9150 -0.4446
   58CHL1   C20 6748   1.176   5.136   9.281 -0.1862  1.0614  0.3640
   58CHL1   H20 6749   1.079   5.189   9.271 -0.6074 -0.0070 -1.7697
   58CHL1   C21 6750   1.137   4.995   9.330  0.7846 -0.6008  0.1916
   58CHL1  H21A 6751   1.070   5.015   9.416  1.9208 -0.5387  1.0914
   58CHL1  H21B 6752   1.220   4.928   9.363  0.9285 -0.8090 -0.5811
   58CHL1  H21C 6753   1.070   4.935   9.265  0.0872  0.6676 -0.2793
   58CHL1   C22 6754   1.236   5.127   9.139 -0.0030 -0.5808 -0.7631
   58CHL1  H22A 6755   1.323   5.196   9.127 -1.6832  1.7483 -0.3192
   58CHL1  H22B 6756   1.270   5.024   9.115  0.1763 -1.2079  1.8068
   58CHL1   C23 6757   1.133   5.170   9.029  0.6710  0.4229  0.1886
   58CHL1  H23A 6758   1.046   5.101   9.036  1.9040 -1.4657 -1.7283
   58CHL1  H23B 6759   1.105   5.270   9.070  0.2494  0.5454 -0.3845
   58CHL1   C24 6760   1.195   5.180   8.895  0.4145  0.3309 -0.2195
   58CHL1  H24A 6761   1.260   5.267   8.873 -1.0000  0.7386 -3.3099
   58CHL1  H24B 6762   1.245   5.081   8.883 -2.2328 -1.5424  2.5596
   58CHL1   C25 6763   1.098   5.191   8.781 -0.3360  0.1342  0.3682
   58CHL1   H25 6764   1.027   5.106   8.787  1.2058 -1.2153  0.2740
   58CHL1   C26 6765   1.027   5.326   8.783 -0.3331 -0.1632 -0.0684
   58CHL1  H26A 6766   0.941   5.325   8.853  0.3583  2.2038  0.9416
   58CHL1  H26B 6767   1.101   5.405   8.809 -0.3697 -0.0874 -0.1930
   58CHL1  H26C 6768   0.982   5.365   8.689  0.7637 -0.4117 -0.7205
   58CHL1   C27 6769   1.166   5.172   8.650  0.1207  0.0368 -0.3340
   58CHL1  H27A 6770   1.267   5.217   8.649  0.3926 -0.5302 -2.1865
   58CHL1  H27B 6771   1.179   5.066   8.618 -0.5568  0.1650 -1.0914
   58CHL1  H27C 6772   1.111   5.219   8.565  2.1272  3.1252 -0.1057
   59CHL1    C3 6773   1.116   4.449  10.437  0.2070  0.5637  0.4300
   59CHL1    H3 6774   1.202   4.470  10.370 -0.8116 -3.0016 -2.3014
   59CHL1    O3 6775   1.146   4.459  10.574 -0.2352  0.1001 -0.3571
   59CHL1   H3' 6776   1.161   4.370  10.608 -0.1253  1.1108  2.5498
   59CHL1    C4 6777   1.016   4.552  10.388  0.0805  0.1234  0.0286
   59CHL1   H4A 6778   0.924   4.560  10.451 -0.0267  0.2334 -0.1408
   59CHL1   H4B 6779   1.045   4.658  10.403 -1.1696  0.9714 -2.8858
   59CHL1    C5 6780   0.971   4.534  10.249  0.4723 -0.7256 -0.1138
   59CHL1    C6 6781   0.974   4.631  10.155 -0.4276 -0.2347 -0.0889
   59CHL1    H6 6782   1.024   4.724  10.186  0.0749 -0.6836  0.4661
   59CHL1    C7 6783   0.922   4.621  10.018  0.0943  0.1327  0.3015
   59CHL1   H7A 6784   0.859   4.712  10.011 -0.3150  0.0547  2.3575
   59CHL1   H7B 6785   1.006   4.625   9.946  0.6208 -1.9715  0.7258
   59CHL1    C8 6786   0.835   4.495   9.993  0.4642 -0.9862 -0.6407
   59CHL1    H8 6787   0.735   4.512  10.038 -0.4749 -1.0702 -2.5787
   59CHL1   C14 6788   0.817   4.468   9.847  0.4784 -0.1630 -0.1419
   59CHL1   H14 6789   0.915   4.435   9.805 -0.6642  1.6609 -4.8647
   59CHL1   C15 6790   0.773   4.578   9.745  0.3059 -0.3863  0.4649
   59CHL1  H15A 6791   0.690   4.635   9.790 -0.9987 -0.6408 -1.5206
   59CHL1  H15B 6792   0.852   4.649   9.713 -0.6517  1.0418  1.1657
   59CHL1   C16 6793   0.691   4.502   9.641  0.1167 -0.3287  0.2847
   59CHL1  H16A 6794   0.584   4.533   9.643  0.7982  2.1637  2.7015
   59CHL1  H16B 6795   0.731   4.523   9.539 -0.6281 -0.2950 -0.0087
   59CHL1   C17 6796   0.706   4.349   9.669  0.0443  0.1982  0.0130
   59CHL1   H17 6797   0.802   4.316   9.624  1.0292 -1.7484  3.2395
   59CHL1   C13 6798   0.724   4.349   9.819 -0.3310 -0.3150  0.5507
   59CHL1   C18 6799   0.582   4.380   9.876 -0.6547  0.0066 -0.8510
   59CHL1  H18A 6800   0.518   4.450   9.818 -0.6747 -0.3997 -1.3276
   59CHL1  H18B 6801   0.537   4.280   9.861  0.4046 -0.6799  0.3065
   59CHL1  H18C 6802   0.589   4.402   9.985  1.5067  0.6974 -1.0645
   59CHL1   C12 6803   0.797   4.233   9.887 -0.7473 -0.0029  0.2836
   59CHL1  H12A 6804   0.740   4.137   9.880 -1.7474  0.6036 -0.1437
   59CHL1  H12B 6805   0.898   4.220   9.843 -0.6595  0.2547  0.4089
   59CHL1   C11 6806   0.818   4.243  10.032 -0.2381 -0.1317 -0.3963
   59CHL1  H11A 6807   0.719   4.255  10.080  0.6063  1.4792  1.0704
   59CHL1  H11B 6808   0.871   4.161  10.084 -0.7875 -0.0996  0.2235
   59CHL1    C9 6809   0.891   4.368  10.071 -0.4591 -1.0124  0.1572
   59CHL1    H9 6810   0.991   4.366  10.022 -0.7813  1.8360 -0.7884
   59CHL1   C10 6811   0.920   4.393  10.220 -0.2837  0.4820 -0.3116
   59CHL1   C19 6812   0.787   4.379  10.303  0.4292  0.5138 -0.7723
   59CHL1  H19A 6813   0.808   4.399  10.411  2.3415 -2.6698 -0.4118
   59CHL1  H19B 6814   0.699   4.441  10.275 -0.2480 -0.2055 -0.2841
   59CHL1  H19C 6815   0.747   4.276  10.313  0.3771  0.7059  1.6129
   59CHL1    C1 6816   1.025   4.282  10.263  0.4920  0.1745 -0.1278
   59CHL1   H1A 6817   0.973   4.184  10.254  0.8362 -0.4028  3.0169
   59CHL1   H1B 6818   1.110   4.291  10.193  3.3527  0.8498  3.1710
   59CHL1    C2 6819   1.077   4.295  10.407 -0.1686 -0.8081 -0.0474
   59CHL1   H2A 6820   1.167   4.233  10.427 -0.0628  0.0173  2.3610
   59CHL1   H2B 6821   1.000   4.264  10.482  2.8130 -2.8919  2.4108
   59CHL1   C20 6822   0.592   4.267   9.595  0.2407  1.0670 -0.4585
   59CHL1   H20 6823   0.495   4.292   9.643  0.3858  0.5208  0.1402
   59CHL1   C21 6824   0.615   4.114   9.612  0.3315 -0.1791  0.0443
   59CHL1  H21A 6825   0.719   4.089   9.583  0.0087 -0.7005 -0.6926
   59CHL1  H21B 6826   0.536   4.055   9.559  0.3475 -0.1180 -0.0475
   59CHL1  H21C 6827   0.605   4.089   9.720  0.1451  0.1666  0.1074
   59CHL1   C22 6828   0.568   4.308   9.448  0.8821  1.1763  0.8619
   59CHL1  H22A 6829   0.491   4.233   9.418  2.4044 -0.4890  1.0022
   59CHL1  H22B 6830   0.530   4.412   9.436 -1.1639  0.2060 -2.6126
   59CHL1   C23 6831   0.685   4.295   9.349 -0.0592  0.4782  0.9881
   59CHL1  H23A 6832   0.783   4.310   9.398  1.2437 -0.3249 -1.1850
   59CHL1  H23B 6833   0.690   4.188   9.317  2.1522  0.7469  0.2473
   59CHL1   C24 6834   0.685   4.393   9.229  0.0284 -0.6645  0.1739
   59CHL1  H24A 6835   0.608   4.354   9.160 -0.7142  1.2974 -0.1409
   59CHL1  H24B 6836   0.649   4.495   9.253  0.1179 -0.2531 -1.3325
   59CHL1   C25 6837   0.826   4.395   9.155  0.0962 -0.4153  0.0875
   59CHL1   H25 6838   0.896   4.438   9.230  0.8070 -0.5042 -0.5203
   59CHL1   C26 6839   0.882   4.264   9.106  0.4760  0.3680 -0.2422
   59CHL1  H26A 6840   0.896   4.191   9.189  2.4644 -0.7133 -1.4315
   59CHL1  H26B 6841   0.814   4.218   9.032 -0.5248  0.0295  0.8511
   59CHL1  H26C 6842   0.977   4.294   9.057 -1.0992  3.1323 -1.8573
   59CHL1   C27 6843   0.817   4.501   9.040  0.0118  0.1807  0.3144
   59CHL1  H27A 6844   0.773   4.449   8.952 -0.3551 -0.8609  1.0931
   59CHL1  H27B 6845   0.766   4.597   9.063  0.2958  0.8847 -1.7076
   59CHL1  H27C 6846   0.920   4.529   9.011 -0.8369  3.2196 -0.1862
   60CHL1    C3 6847   6.632   3.967  10.471  0.2439 -0.2348  0.2230
   60CHL1    H3 6848   6.526   3.977  10.502 -0.0020  0.8656 -0.9179
   60CHL1    O3 6849   6.703   3.993  10.590  0.0443  0.0861  0.6282
   60CHL1   H3' 6850   6.798   3.986  10.579  0.3881  0.1504  2.9813
   60CHL1    C4 6851   6.660   3.827  10.416 -0.3532  0.5547 -0.1122
   60CHL1   H4A 6852   6.771   3.819  10.421 -0.3402  0.1099 -0.9836
   60CHL1   H4B 6853   6.630   3.751  10.491 -0.1903 -0.3885 -0.9923
   60CHL1    C5 6854   6.604   3.795  10.276  0.1218  0.0656  0.0238
   60CHL1    C6 6855   6.520   3.692  10.251 -0.5241  0.2808 -0.0620
   60CHL1    H6 6856   6.499   3.630  10.339 -0.6282 -0.4229 -0.5790
   60CHL1    C7 6857   6.471   3.658  10.113  0.1897  0.6254  0.1898
   60CHL1   H7A 6858   6.496   3.553  10.088  0.8612  0.4545  1.4912
   60CHL1   H7B 6859   6.360   3.662  10.112  0.1876  0.5494  0.1642
   60CHL1    C8 6860   6.534   3.751   9.996 -0.3620 -0.2575 -0.5254
   60CHL1    H8 6861   6.629   3.703   9.965 -0.8361 -1.2346 -0.5262
   60CHL1   C14 6862   6.427   3.763   9.892  0.6884 -0.1460 -0.0927
   60CHL1   H14 6863   6.350   3.818   9.949 -0.7622  1.3887 -3.2838
   60CHL1   C15 6864   6.350   3.645   9.834 -0.7404  0.0868 -0.4080
   60CHL1  H15A 6865   6.424   3.578   9.786  0.6924  0.4574  1.2038
   60CHL1  H15B 6866   6.296   3.587   9.912 -0.2877 -1.5710 -1.2937
   60CHL1   C16 6867   6.253   3.709   9.731  0.5152 -0.3960 -0.2863
   60CHL1  H16A 6868   6.265   3.641   9.643  0.2007 -0.6029 -0.1684
   60CHL1  H16B 6869   6.151   3.707   9.774  0.4301 -4.7455 -0.2025
   60CHL1   C17 6870   6.307   3.852   9.705 -0.0107  0.3910 -0.1194
   60CHL1   H17 6871   6.243   3.926   9.759 -0.1424  1.2273 -1.3821
   60CHL1   C13 6872   6.451   3.855   9.773 -0.2570  0.5973  0.4277
   60CHL1   C18 6873   6.547   3.782   9.678 -0.0499  0.3735 -0.2505
   60CHL1  H18A 6874   6.522   3.680   9.643  1.9878 -0.4946  0.6615
   60CHL1  H18B 6875   6.590   3.849   9.601  1.4018  1.1748  1.2134
   60CHL1  H18C 6876   6.627   3.754   9.749 -1.5733 -1.9090  0.7123
   60CHL1   C12 6877   6.495   3.996   9.820 -0.4089  0.1870  0.2280
   60CHL1  H12A 6878   6.542   4.057   9.741  0.6533 -0.1066  0.6158
   60CHL1  H12B 6879   6.412   4.046   9.873  0.1847 -0.5371  1.9356
   60CHL1   C11 6880   6.600   3.983   9.932 -0.1196  1.0317  0.2242
   60CHL1  H11A 6881   6.688   3.929   9.891 -0.0918  0.8741  0.4874
   60CHL1  H11B 6882   6.631   4.082   9.972 -0.8337  1.4456 -0.2235
   60CHL1    C9 6883   6.552   3.894  10.051 -0.4632 -0.1117 -0.6871
   60CHL1    H9 6884   6.450   3.924  10.080 -1.3319 -3.8691  0.7204
   60CHL1   C10 6885   6.640   3.904  10.176  0.1011  0.2731  0.0547
   60CHL1   C19 6886   6.791   3.885  10.139 -0.7944 -0.4896 -0.0258
   60CHL1  H19A 6887   6.853   3.887  10.232 -0.3124  0.3781 -0.3545
   60CHL1  H19B 6888   6.789   3.785  10.090  1.3618 -1.0552  0.9234
   60CHL1  H19C 6889   6.824   3.957  10.062 -1.3532 -0.9137 -0.6767
   60CHL1    C1 6890   6.611   4.052  10.236 -0.1356  0.4346  0.8855
   60CHL1   H1A 6891   6.662   4.127  10.171  2.6777 -1.3697  0.8389
   60CHL1   H1B 6892   6.502   4.065  10.254  0.2150  1.5384  2.3887
   60CHL1    C2 6893   6.672   4.074  10.372 -0.2070 -0.2127  0.0958
   60CHL1   H2A 6894   6.639   4.168  10.421  2.8236  0.8643  0.2737
   60CHL1   H2B 6895   6.782   4.086  10.357 -0.0951 -0.9879  0.2249
   60CHL1   C20 6896   6.299   3.883   9.553 -0.5817  0.2323  0.1721
   60CHL1   H20 6897   6.359   3.804   9.503  1.2459  0.2111  2.2299
   60CHL1   C21 6898   6.358   4.020   9.526 -0.0009  0.3189 -0.7666
   60CHL1  H21A 6899   6.469   4.017   9.535  0.2414  0.0225 -3.1476
   60CHL1  H21B 6900   6.321   4.098   9.596  0.5226  0.7702 -0.9795
   60CHL1  H21C 6901   6.326   4.052   9.425 -1.0638 -0.5869 -0.7255
   60CHL1   C22 6902   6.149   3.877   9.504  0.0632 -0.5716 -0.0390
   60CHL1  H22A 6903   6.095   3.800   9.564  1.4079 -0.0535  1.9496
   60CHL1  H22B 6904   6.101   3.973   9.534 -3.6480 -2.3724  0.3395
   60CHL1   C23 6905   6.129   3.870   9.355 -0.2476 -0.1993 -0.3381
   60CHL1  H23A 6906   6.196   3.949   9.313 -0.7149  0.1912 -0.3678
   60CHL1  H23B 6907   6.167   3.770   9.325  1.2433 -0.0143  0.8302
   60CHL1   C24 6908   5.989   3.903   9.297  0.5494 -0.2169 -0.2289
   60CHL1  H24A 6909   5.915   3.834   9.342 -0.2025 -0.0143 -1.1256
   60CHL1  H24B 6910   5.963   4.007   9.325 -1.0022 -0.4645 -0.6649
   60CHL1   C25 6911   5.983   3.874   9.146 -0.4546 -0.7636  0.4268
   60CHL1   H25 6912   5.975   3.766   9.124 -2.1265 -0.2944 -1.6114
   60CHL1   C26 6913   5.857   3.938   9.084 -0.4444 -0.9828  0.3752
   60CHL1  H26A 6914   5.773   3.922   9.155 -0.0465  0.6764  1.2523
   60CHL1  H26B 6915   5.853   4.048   9.079  0.1267 -0.8845  1.6860
   60CHL1  H26C 6916   5.840   3.906   8.979  0.2473  1.3164 -0.4940
   60CHL1   C27 6917   6.112   3.918   9.064  0.1552 -0.2619 -0.3809
   60CHL1  H27A 6918   6.214   3.907   9.108 -0.1147 -0.4507  0.2091
   60CHL1  H27B 6919   6.114   3.866   8.966  1.2606  1.7578 -1.4859
   60CHL1  H27C 6920   6.105   4.025   9.038  2.0681  0.1427  0.5579
   61CHL1    C3 6921   4.108   1.803  10.552 -0.0656  0.1878  0.0317
   61CHL1    H3 6922   4.079   1.697  10.537 -0.8649  0.6638 -2.1569
   61CHL1    O3 6923   4.070   1.861  10.677  0.3112 -0.0156  0.2096
   61CHL1   H3' 6924   4.099   1.952  10.662 -2.9970  0.9151 -1.5823
   61CHL1    C4 6925   4.259   1.829  10.525  0.9153  0.5330  0.4191
   61CHL1   H4A 6926   4.298   1.931  10.548  1.2045  0.1539  1.6584
   61CHL1   H4B 6927   4.317   1.758  10.588 -0.1743 -1.3271 -0.5769
   61CHL1    C5 6928   4.293   1.788  10.376  0.5469  0.1536 -0.0682
   61CHL1    C6 6929   4.393   1.705  10.349 -0.6063  0.3174  0.2220
   61CHL1    H6 6930   4.465   1.678  10.427 -0.5330  1.8553  0.7296
   61CHL1    C7 6931   4.436   1.672  10.206  0.3518  1.0021 -0.0337
   61CHL1   H7A 6932   4.546   1.659  10.202  0.3576  1.0881 -0.1411
   61CHL1   H7B 6933   4.415   1.565  10.182 -0.3207  0.5814  2.1329
   61CHL1    C8 6934   4.375   1.761  10.098  0.5330  0.4153 -0.1647
   61CHL1    H8 6935   4.424   1.860  10.090  1.6107 -0.1133 -0.1941
   61CHL1   C14 6936   4.381   1.698   9.960 -0.4081 -0.0599  0.4966
   61CHL1   H14 6937   4.346   1.592   9.963  2.2607 -1.0828 -0.9710
   61CHL1   C15 6938   4.524   1.689   9.897 -0.5238  0.3529 -0.4881
   61CHL1  H15A 6939   4.579   1.785   9.910  0.8846 -0.5431  0.4558
   61CHL1  H15B 6940   4.573   1.609   9.957 -2.6409  0.2152  1.1450
   61CHL1   C16 6941   4.504   1.664   9.750 -0.7542  0.2806  0.8450
   61CHL1  H16A 6942   4.576   1.718   9.686  1.3875 -2.5064  0.6779
   61CHL1  H16B 6943   4.520   1.554   9.736  0.5297  0.6089 -0.5103
   61CHL1   C17 6944   4.348   1.686   9.724 -1.3942 -0.0822  0.4272
   61CHL1   H17 6945   4.314   1.584   9.751 -0.0927 -0.5469  0.3764
   61CHL1   C13 6946   4.310   1.767   9.849  0.4514 -0.2920 -0.5185
   61CHL1   C18 6947   4.353   1.909   9.837  0.1824  0.5334  0.3881
   61CHL1  H18A 6948   4.285   1.970   9.773  0.5698  0.8559  0.2787
   61CHL1  H18B 6949   4.362   1.965   9.933  0.2689 -0.2514  0.8462
   61CHL1  H18C 6950   4.454   1.903   9.792 -0.3455 -2.6615 -0.6259
   61CHL1   C12 6951   4.155   1.763   9.880  0.0059 -0.2318 -0.7921
   61CHL1  H12A 6952   4.107   1.823   9.800  0.7632  1.5024 -0.0057
   61CHL1  H12B 6953   4.110   1.666   9.850 -4.6372  1.6991 -0.8653
   61CHL1   C11 6954   4.119   1.824  10.015  0.4156 -0.5514 -0.0896
   61CHL1  H11A 6955   4.122   1.935  10.018 -1.1224 -0.4579 -0.9241
   61CHL1  H11B 6956   4.014   1.793  10.036  0.4814 -0.8499 -0.2028
   61CHL1    C9 6957   4.217   1.771  10.130  0.2753 -0.3443 -0.0804
   61CHL1    H9 6958   4.184   1.665  10.135 -1.9305  0.3208  0.2618
   61CHL1   C10 6959   4.195   1.845  10.266 -0.5039  0.1848  0.4915
   61CHL1   C19 6960   4.228   1.994  10.252 -0.2375  0.2732  0.1028
   61CHL1  H19A 6961   4.218   2.057  10.343  1.2137 -0.7713  1.0321
   61CHL1  H19B 6962   4.323   2.007  10.195  0.3642  1.4637  1.3099
   61CHL1  H19C 6963   4.155   2.038  10.181 -0.2677 -0.2119 -0.1728
   61CHL1    C1 6964   4.045   1.825  10.304 -0.6126  0.2265 -0.1480
   61CHL1   H1A 6965   3.977   1.871  10.229  1.4807  2.7205 -0.6544
   61CHL1   H1B 6966   4.025   1.715  10.302  0.8374 -0.0411 -1.7158
   61CHL1    C2 6967   4.014   1.872  10.449  0.7465 -0.6150  0.0409
   61CHL1   H2A 6968   3.907   1.845  10.463  1.1701 -1.8707  1.0165
   61CHL1   H2B 6969   4.023   1.983  10.454 -0.7698 -0.4205 -0.8517
   61CHL1   C20 6970   4.303   1.728   9.591 -0.3224 -0.3140  0.8623
   61CHL1   H20 6971   4.221   1.802   9.597 -0.0512  0.1930 -1.0792
   61CHL1   C21 6972   4.242   1.605   9.523  0.3852 -0.5248  0.4662
   61CHL1  H21A 6973   4.305   1.514   9.516  1.3177  0.0085  1.6625
   61CHL1  H21B 6974   4.217   1.622   9.416  0.6807 -1.5392  0.2300
   61CHL1  H21C 6975   4.147   1.580   9.575  0.4366  1.2174  1.5072
   61CHL1   C22 6976   4.411   1.798   9.502 -0.4908  0.1391 -0.2961
   61CHL1  H22A 6977   4.460   1.880   9.559 -2.3600  0.4049  1.0094
   61CHL1  H22B 6978   4.484   1.722   9.468 -0.4570 -0.5438  1.2194
   61CHL1   C23 6979   4.345   1.862   9.381 -0.4286  0.1892  0.2571
   61CHL1  H23A 6980   4.312   1.775   9.320 -0.6839  0.3211  0.2075
   61CHL1  H23B 6981   4.252   1.921   9.398 -1.2128 -1.1915  0.9682
   61CHL1   C24 6982   4.453   1.934   9.298  0.0088 -0.0970 -0.3712
   61CHL1  H24A 6983   4.465   2.035   9.345  1.6486 -0.9932  1.2485
   61CHL1  H24B 6984   4.547   1.878   9.313  0.1138  0.1899  0.0619
   61CHL1   C25 6985   4.414   1.960   9.156  0.0099 -0.2723  0.0108
   61CHL1   H25 6986   4.378   1.862   9.115 -1.2072  0.0010  0.3688
   61CHL1   C26 6987   4.300   2.059   9.150  0.4983 -0.0481  0.4953
   61CHL1  H26A 6988   4.207   2.017   9.196 -0.1044 -0.1667 -0.7880
   61CHL1  H26B 6989   4.327   2.150   9.207  0.5559 -1.1450  2.3129
   61CHL1  H26C 6990   4.282   2.098   9.048  2.3166  1.7265  0.7934
   61CHL1   C27 6991   4.535   2.003   9.068  0.7947  0.2282 -0.3719
   61CHL1  H27A 6992   4.601   1.915   9.082  1.7351  1.2101  1.7071
   61CHL1  H27B 6993   4.497   2.012   8.964 -1.4638 -0.7712  0.2947
   61CHL1  H27C 6994   4.584   2.095   9.106  1.1949  0.0630 -0.4840
   62CHL1    C3 6995   4.081   5.957  10.147  0.0437  1.0169 -0.5526
   62CHL1    H3 6996   3.988   5.988  10.096  0.7154 -0.0331 -2.5215
   62CHL1    O3 6997   4.067   5.937  10.288 -0.2457 -0.2141 -0.4046
   62CHL1   H3' 6998   4.148   5.892  10.315 -0.6234 -0.6897 -0.0456
   62CHL1    C4 6999   4.134   5.824  10.089 -0.4263 -0.7523  0.6562
   62CHL1   H4A 7000   4.230   5.808  10.143  0.8657 -0.2492 -1.3755
   62CHL1   H4B 7001   4.065   5.742  10.120  1.5768 -2.4400  0.8927
   62CHL1    C5 7002   4.166   5.843   9.946  0.1536 -0.3081  0.0126
   62CHL1    C6 7003   4.116   5.756   9.854 -0.4296 -0.3190  0.3417
   62CHL1    H6 7004   4.056   5.670   9.887  0.7199 -1.5497 -0.6596
   62CHL1    C7 7005   4.152   5.751   9.709  0.3775 -0.0453  0.9446
   62CHL1   H7A 7006   4.170   5.647   9.676 -0.2024  0.4004 -0.9141
   62CHL1   H7B 7007   4.073   5.802   9.650  1.1743 -1.1661 -1.1950
   62CHL1    C8 7008   4.276   5.843   9.682  0.7129  0.4920 -0.3134
   62CHL1    H8 7009   4.368   5.784   9.702  0.7849 -0.0827 -2.1428
   62CHL1   C14 7010   4.279   5.875   9.535 -0.8928  0.2010  0.1020
   62CHL1   H14 7011   4.187   5.933   9.514 -0.8725 -0.2916 -1.5460
   62CHL1   C15 7012   4.265   5.750   9.440 -0.9514 -0.3594  0.1896
   62CHL1  H15A 7013   4.334   5.669   9.472  2.5916  2.9102  1.5949
   62CHL1  H15B 7014   4.158   5.720   9.428 -1.7037  1.2641  2.1339
   62CHL1   C16 7015   4.327   5.803   9.304  0.4415 -0.5247  0.1221
   62CHL1  H16A 7016   4.413   5.743   9.268  1.0336  1.2172 -1.5574
   62CHL1  H16B 7017   4.242   5.796   9.232  1.1115  0.4759 -0.7836
   62CHL1   C17 7018   4.367   5.949   9.338  0.0559  0.1300  0.4579
   62CHL1   H17 7019   4.274   6.008   9.326 -1.0699 -1.4023  1.2551
   62CHL1   C13 7020   4.396   5.959   9.490  0.1768 -0.6802  0.1409
   62CHL1   C18 7021   4.529   5.893   9.515 -0.0053  0.9009  0.5899
   62CHL1  H18A 7022   4.609   5.969   9.510 -1.9683  2.9854 -1.0826
   62CHL1  H18B 7023   4.535   5.847   9.616  1.7657  1.6459  0.8629
   62CHL1  H18C 7024   4.543   5.805   9.448 -0.6631 -0.6118  2.3503
   62CHL1   C12 7025   4.369   6.092   9.556  0.2803 -0.4169 -1.2510
   62CHL1  H12A 7026   4.461   6.148   9.530  0.8108 -0.7524 -0.1561
   62CHL1  H12B 7027   4.277   6.141   9.518  1.0225  2.2923  0.1839
   62CHL1   C11 7028   4.365   6.083   9.704 -0.0930  0.4020 -0.3781
   62CHL1  H11A 7029   4.467   6.045   9.727  0.1075  1.8760  1.3642
   62CHL1  H11B 7030   4.356   6.182   9.752  0.9386 -0.7499  2.4373
   62CHL1    C9 7031   4.259   5.980   9.756  0.0884  0.1972 -0.3708
   62CHL1    H9 7032   4.162   6.022   9.722 -0.8685 -0.4538  1.4059
   62CHL1   C10 7033   4.258   5.956   9.906 -0.4655 -0.4605  0.7041
   62CHL1   C19 7034   4.402   5.919   9.945 -0.7555 -0.3786  0.4799
   62CHL1  H19A 7035   4.413   5.906  10.055  1.3362 -0.2897  0.3135
   62CHL1  H19B 7036   4.438   5.832   9.886  2.0830 -0.0689  1.6164
   62CHL1  H19C 7037   4.470   6.006   9.933 -1.1342  0.0127  1.1299
   62CHL1    C1 7038   4.212   6.093   9.971 -0.5425  0.4583 -0.5554
   62CHL1   H1A 7039   4.295   6.167   9.966  1.6129 -1.6954  0.9011
   62CHL1   H1B 7040   4.121   6.141   9.929  1.1902  1.8764 -3.0110
   62CHL1    C2 7041   4.182   6.074  10.120 -0.5132 -0.9844  0.1172
   62CHL1   H2A 7042   4.147   6.168  10.169  4.2401 -0.4850  3.3270
   62CHL1   H2B 7043   4.273   6.050  10.179 -0.6210 -0.0041  0.7093
   62CHL1   C20 7044   4.478   6.014   9.244 -0.5636  0.7485 -0.8856
   62CHL1   H20 7045   4.580   5.979   9.273 -1.2928 -0.2471  0.5918
   62CHL1   C21 7046   4.461   6.160   9.240 -0.3224  0.0135  0.0042
   62CHL1  H21A 7047   4.489   6.204   9.338 -1.1712  0.6563 -0.0361
   62CHL1  H21B 7048   4.356   6.187   9.216  0.0923 -0.7253 -2.9995
   62CHL1  H21C 7049   4.528   6.205   9.163  0.3664 -0.2385  0.4403
   62CHL1   C22 7050   4.466   5.957   9.105  0.4360 -0.1448 -0.1815
   62CHL1  H22A 7051   4.471   5.846   9.109 -1.5669 -0.4308 -2.7628
   62CHL1  H22B 7052   4.362   5.984   9.077  0.2279  2.6324  2.6762
   62CHL1   C23 7053   4.556   6.009   8.993 -0.2970  0.4873  0.3149
   62CHL1  H23A 7054   4.560   6.120   8.988 -1.1526  0.6886  2.8171
   62CHL1  H23B 7055   4.658   5.985   9.030  0.3691  1.3107 -0.9062
   62CHL1   C24 7056   4.513   5.950   8.857 -0.3164 -0.5325  0.7487
   62CHL1  H24A 7057   4.499   5.841   8.872 -1.7495 -0.1906  2.2193
   62CHL1  H24B 7058   4.409   5.976   8.827 -0.6924 -1.3635  1.3016
   62CHL1   C25 7059   4.590   5.997   8.735 -0.3343 -0.0805  0.3162
   62CHL1   H25 7060   4.595   6.108   8.736  1.5659 -0.1418  0.7346
   62CHL1   C26 7061   4.732   5.945   8.746 -0.2470 -0.1512 -0.3557
   62CHL1  H26A 7062   4.795   5.998   8.821 -2.1780  1.8044 -0.0048
   62CHL1  H26B 7063   4.716   5.838   8.772 -2.5080  0.6292  1.9417
   62CHL1  H26C 7064   4.787   5.970   8.653  2.3484  0.9539  1.3569
   62CHL1   C27 7065   4.527   5.948   8.604 -0.0076  0.0050  0.1313
   62CHL1  H27A 7066   4.519   5.838   8.597  2.0536 -0.1041 -1.4615
   62CHL1  H27B 7067   4.424   5.989   8.605  0.2368  0.6546  1.7471
   62CHL1  H27C 7068   4.579   5.994   8.517 -2.1614  3.0910  0.3027
   63CHL1    C3 7069   4.960   1.007  10.696  0.4197  0.6190  0.1350
   63CHL1    H3 7070   4.947   1.116  10.677 -0.9343  0.3575 -0.4979
   63CHL1    O3 7071   4.908   0.968  10.820 -0.0001 -0.0381 -0.3342
   63CHL1   H3' 7072   4.934   0.876  10.820  1.2909  0.3011 -0.9960
   63CHL1    C4 7073   4.898   0.916  10.591  0.0255 -0.6652 -0.0848
   63CHL1   H4A 7074   4.905   0.806  10.606 -1.0513 -0.9682 -1.5402
   63CHL1   H4B 7075   4.791   0.945  10.595  0.7331  2.6270 -1.3688
   63CHL1    C5 7076   4.956   0.943  10.446  0.5351 -0.3720 -0.5496
   63CHL1    C6 7077   4.875   0.970  10.346  0.9356 -0.5217 -0.1612
   63CHL1    H6 7078   4.767   0.966  10.365  0.5504  2.1053 -1.3532
   63CHL1    C7 7079   4.924   0.996  10.203  0.1018 -0.1399 -0.2002
   63CHL1   H7A 7080   4.863   0.939  10.131  1.2722 -1.1614 -0.4188
   63CHL1   H7B 7081   4.928   1.104  10.174  1.8117  0.3457  1.5671
   63CHL1    C8 7082   5.070   0.953  10.181 -0.0954  0.3081 -0.5502
   63CHL1    H8 7083   5.079   0.843  10.174  1.3198  0.3986 -0.5161
   63CHL1   C14 7084   5.123   1.019  10.057  0.0687  0.2510 -1.3967
   63CHL1   H14 7085   5.112   1.128  10.078 -0.5259  0.1219 -1.0107
   63CHL1   C15 7086   5.054   0.996   9.926  0.8341  0.9975  0.7027
   63CHL1  H15A 7087   5.027   0.889   9.914  2.0858  0.7092  0.2556
   63CHL1  H15B 7088   4.964   1.053   9.895 -1.0012 -2.4731 -0.8651
   63CHL1   C16 7089   5.161   1.041   9.819 -0.6062  0.6688 -0.3107
   63CHL1  H16A 7090   5.175   0.957   9.748  0.4857 -0.0104  0.6754
   63CHL1  H16B 7091   5.115   1.130   9.770 -1.2882  0.5873  0.1668
   63CHL1   C17 7092   5.290   1.070   9.895  0.6931 -0.6400 -0.5453
   63CHL1   H17 7093   5.281   1.177   9.922  1.2893 -0.7377  0.0665
   63CHL1   C13 7094   5.270   0.998  10.032  0.7017  0.0431  0.1729
   63CHL1   C18 7095   5.306   0.847  10.010  0.1470 -0.3636  0.4379
   63CHL1  H18A 7096   5.417   0.839  10.014  0.1929  0.6309  1.4547
   63CHL1  H18B 7097   5.278   0.780  10.094  1.0661  0.0222  1.0729
   63CHL1  H18C 7098   5.277   0.796   9.916  1.3241 -1.4124  0.6103
   63CHL1   C12 7099   5.351   1.055  10.150 -0.5008  0.4732 -0.1116
   63CHL1  H12A 7100   5.455   1.032  10.120 -0.7369 -0.3035 -0.3472
   63CHL1  H12B 7101   5.338   1.165  10.138 -0.0241  0.4260 -1.1902
   63CHL1   C11 7102   5.308   1.002  10.280  0.6350  0.5741 -0.0555
   63CHL1  H11A 7103   5.336   0.895  10.293 -1.6880  0.0674  1.3650
   63CHL1  H11B 7104   5.346   1.065  10.364  0.5400  1.5576 -0.7433
   63CHL1    C9 7105   5.153   0.995  10.303 -0.5092 -0.6753  0.1848
   63CHL1    H9 7106   5.129   1.104  10.314  1.0207 -0.0476 -2.0925
   63CHL1   C10 7107   5.109   0.937  10.436  0.6600  0.5957  0.5328
   63CHL1   C19 7108   5.148   0.782  10.432 -0.3974 -1.3358 -0.2407
   63CHL1  H19A 7109   5.113   0.738  10.336  2.2480 -1.6311 -1.1472
   63CHL1  H19B 7110   5.257   0.761  10.435  0.0810  0.7059 -1.6112
   63CHL1  H19C 7111   5.100   0.743  10.525  0.0694  2.6364  1.8540
   63CHL1    C1 7112   5.173   1.001  10.562  0.0173 -0.8637 -0.1600
   63CHL1   H1A 7113   5.273   0.952  10.569  1.4680  2.1002  2.3054
   63CHL1   H1B 7114   5.173   1.111  10.546 -0.2607 -0.8234  0.1149
   63CHL1    C2 7115   5.111   0.980  10.698 -0.4803 -0.2258 -0.5698
   63CHL1   H2A 7116   5.159   1.043  10.777  1.3579 -1.0426 -0.9987
   63CHL1   H2B 7117   5.129   0.877  10.735  0.7280  0.6262  1.3821
   63CHL1   C20 7118   5.418   1.048   9.815  0.4522 -0.0156 -0.7985
   63CHL1   H20 7119   5.452   0.943   9.829 -2.0146 -0.8416 -0.4228
   63CHL1   C21 7120   5.529   1.139   9.867 -0.3563 -0.1260  0.0710
   63CHL1  H21A 7121   5.505   1.247   9.860  2.8808  0.7926  1.1417
   63CHL1  H21B 7122   5.624   1.117   9.812  0.2647  2.5136 -0.0486
   63CHL1  H21C 7123   5.548   1.130   9.976  1.5059  1.8656 -0.0204
   63CHL1   C22 7124   5.398   1.086   9.669  0.0440 -0.4282 -0.3335
   63CHL1  H22A 7125   5.331   1.015   9.615  1.2321  0.5565 -3.2874
   63CHL1  H22B 7126   5.349   1.185   9.666 -0.2062 -0.4394  1.9196
   63CHL1   C23 7127   5.514   1.070   9.572 -0.3315  0.0304 -0.1801
   63CHL1  H23A 7128   5.601   1.128   9.608 -0.3633 -0.4667  0.7237
   63CHL1  H23B 7129   5.548   0.964   9.568  2.5537  0.9147 -1.1607
   63CHL1   C24 7130   5.476   1.126   9.439  0.7452  0.4613  0.1366
   63CHL1  H24A 7131   5.391   1.073   9.391  0.9069 -0.8292  1.2357
   63CHL1  H24B 7132   5.451   1.234   9.443 -1.1117  0.0441  1.8622
   63CHL1   C25 7133   5.588   1.108   9.351  0.2215  0.1615  0.2755
   63CHL1   H25 7134   5.633   1.007   9.354  1.6260  0.7558  0.1454
   63CHL1   C26 7135   5.541   1.122   9.203 -0.0553  0.4575 -0.3159
   63CHL1  H26A 7136   5.477   1.035   9.180 -1.4980  1.0273  1.3148
   63CHL1  H26B 7137   5.489   1.218   9.179  0.2256  0.8901  0.7229
   63CHL1  H26C 7138   5.623   1.130   9.129  1.3505 -1.4641  0.9293
   63CHL1   C27 7139   5.717   1.200   9.373 -0.5003  0.2643 -0.0643
   63CHL1  H27A 7140   5.793   1.177   9.296 -0.4822  1.4754 -0.4159
   63CHL1  H27B 7141   5.687   1.304   9.348 -0.8889  0.1495 -0.0917
   63CHL1  H27C 7142   5.759   1.183   9.475 -1.4313 -0.3260  0.2415
   64CHL1    C3 7143   5.212   6.719  10.122 -0.2472 -0.2341 -0.4691
   64CHL1    H3 7144   5.322   6.722  10.106 -0.3943  0.0384 -1.5524
   64CHL1    O3 7145   5.170   6.743  10.256 -0.2217 -0.3550 -0.2993
   64CHL1   H3' 7146   5.081   6.776  10.247 -0.0471 -0.1099 -1.3222
   64CHL1    C4 7147   5.150   6.824  10.024  0.8131 -0.7168  0.1379
   64CHL1   H4A 7148   5.040   6.830  10.034  0.7339  0.8999 -1.2522
   64CHL1   H4B 7149   5.196   6.924  10.040 -2.2840  0.6685  1.0380
   64CHL1    C5 7150   5.182   6.793   9.881  0.5183  0.1977  0.4403
   64CHL1    C6 7151   5.233   6.884   9.793 -0.0745  0.5545  0.2918
   64CHL1    H6 7152   5.255   6.985   9.831 -1.1956  1.0187 -0.2518
   64CHL1    C7 7153   5.255   6.871   9.648 -0.2305 -0.0301 -0.0591
   64CHL1   H7A 7154   5.215   6.957   9.590 -1.3046 -0.5687 -0.1482
   64CHL1   H7B 7155   5.364   6.861   9.628 -0.2425  1.4069 -0.9794
   64CHL1    C8 7156   5.182   6.739   9.594  0.6968 -0.4081 -0.1608
   64CHL1    H8 7157   5.075   6.769   9.597  0.7692 -0.1936  0.4674
   64CHL1   C14 7158   5.255   6.709   9.463  0.2459 -0.4024  0.2587
   64CHL1   H14 7159   5.357   6.683   9.499  0.7460 -0.7985 -1.3665
   64CHL1   C15 7160   5.275   6.822   9.359  0.0145  0.0663 -0.5677
   64CHL1  H15A 7161   5.192   6.895   9.369 -1.0106 -0.8996 -1.6648
   64CHL1  H15B 7162   5.372   6.869   9.383  0.2731 -0.0954 -1.2782
   64CHL1   C16 7163   5.277   6.744   9.225  0.5328 -0.0748  0.3449
   64CHL1  H16A 7164   5.200   6.788   9.159  0.3043  1.2357  1.4400
   64CHL1  H16B 7165   5.368   6.747   9.162  0.2949  1.0089  0.0283
   64CHL1   C17 7166   5.265   6.596   9.265 -0.8668 -0.6057  0.0742
   64CHL1   H17 7167   5.368   6.564   9.289  0.2100 -0.2532 -3.4830
   64CHL1   C13 7168   5.185   6.585   9.392  0.4184 -0.3809 -0.1331
   64CHL1   C18 7169   5.037   6.611   9.370 -0.3824 -0.5980  0.3326
   64CHL1  H18A 7170   4.984   6.546   9.297  0.7202 -1.0246 -0.1243
   64CHL1  H18B 7171   4.976   6.600   9.462 -2.9341 -0.0808 -1.2185
   64CHL1  H18C 7172   5.020   6.716   9.338  2.9423  0.9945  3.0463
   64CHL1   C12 7173   5.222   6.469   9.489  0.8156  0.5649  0.0769
   64CHL1  H12A 7174   5.188   6.377   9.435  0.1538 -1.0941  3.0885
   64CHL1  H12B 7175   5.332   6.460   9.493  0.6565 -1.4367  2.2655
   64CHL1   C11 7176   5.171   6.477   9.630  0.8822  0.5726 -0.2128
   64CHL1  H11A 7177   5.064   6.447   9.633  1.3779 -1.2976 -0.1147
   64CHL1  H11B 7178   5.227   6.398   9.683  0.9053  0.8769  0.2219
   64CHL1    C9 7179   5.203   6.618   9.694  0.3067  0.1985 -0.0423
   64CHL1    H9 7180   5.312   6.607   9.709  0.0401 -1.3447  0.9897
   64CHL1   C10 7181   5.155   6.648   9.836 -0.0961  0.2215  0.0759
   64CHL1   C19 7182   5.000   6.636   9.834  0.0371  0.3182  0.6791
   64CHL1  H19A 7183   4.984   6.527   9.817  0.9749  0.3147 -0.2198
   64CHL1  H19B 7184   4.955   6.653   9.935 -0.2940  0.3976  0.5193
   64CHL1  H19C 7185   4.944   6.688   9.754  1.4181  1.5042  0.4436
   64CHL1    C1 7186   5.218   6.543   9.940 -0.3488 -0.7019  0.6650
   64CHL1   H1A 7187   5.188   6.442   9.907 -0.0448 -0.6833  0.3276
   64CHL1   H1B 7188   5.328   6.558   9.945 -0.4238 -0.3976  1.6007
   64CHL1    C2 7189   5.173   6.573  10.083 -0.4730  0.5273  0.1790
   64CHL1   H2A 7190   5.232   6.504  10.145 -1.4878 -1.4136 -0.9242
   64CHL1   H2B 7191   5.063   6.575  10.102 -0.8094  1.3965 -1.5364
   64CHL1   C20 7192   5.219   6.500   9.157  0.9786 -0.3254 -0.7293
   64CHL1   H20 7193   5.154   6.422   9.203  1.1679  0.8164  1.6107
   64CHL1   C21 7194   5.337   6.412   9.105  0.7454 -0.0319 -0.1346
   64CHL1  H21A 7195   5.378   6.336   9.175 -0.1928 -0.5592 -0.1323
   64CHL1  H21B 7196   5.419   6.482   9.081 -0.0639  0.4406 -1.6982
   64CHL1  H21C 7197   5.307   6.366   9.008  1.0508 -0.3264 -0.0896
   64CHL1   C22 7198   5.134   6.558   9.038 -0.2852 -0.3180  0.0409
   64CHL1  H22A 7199   5.069   6.637   9.082 -0.8313  0.1573 -1.5441
   64CHL1  H22B 7200   5.199   6.605   8.961 -0.8824  0.1662 -0.1759
   64CHL1   C23 7201   5.032   6.458   8.969 -0.5748  0.7344 -0.5285
   64CHL1  H23A 7202   5.090   6.374   8.925 -0.6903  1.6871 -2.6277
   64CHL1  H23B 7203   4.987   6.418   9.062 -0.9799  0.2665 -0.9227
   64CHL1   C24 7204   4.926   6.525   8.888 -0.3561 -0.0664  0.2618
   64CHL1  H24A 7205   4.871   6.589   8.960  1.7380  0.2406  1.6599
   64CHL1  H24B 7206   4.968   6.590   8.807  0.7891  1.7121  2.1945
   64CHL1   C25 7207   4.822   6.422   8.834  1.2583  0.0046 -0.2599
   64CHL1   H25 7208   4.807   6.343   8.910  0.1725  0.2865 -0.1506
   64CHL1   C26 7209   4.680   6.483   8.816 -0.5291  0.5762  0.1213
   64CHL1  H26A 7210   4.688   6.562   8.738 -0.6710  0.4869  0.0138
   64CHL1  H26B 7211   4.602   6.412   8.781 -1.1794  0.8220  1.0472
   64CHL1  H26C 7212   4.650   6.529   8.912  0.3185 -0.5001  0.9222
   64CHL1   C27 7213   4.877   6.359   8.706 -0.3771 -0.0123  0.0927
   64CHL1  H27A 7214   4.988   6.352   8.704 -0.3221  0.2727  1.2780
   64CHL1  H27B 7215   4.825   6.262   8.696 -0.1188 -0.1143 -0.2880
   64CHL1  H27C 7216   4.844   6.420   8.619 -1.7040  1.1113  1.3359
   65CHL1    C3 7217   1.811   4.038  10.384 -0.7722  0.4765  0.1787
   65CHL1    H3 7218   1.851   4.140  10.403 -0.2726 -0.0692  2.4260
   65CHL1    O3 7219   1.789   3.973  10.508  0.2393 -0.2660  0.1020
   65CHL1   H3' 7220   1.718   4.023  10.550  0.8525 -0.5014  1.4729
   65CHL1    C4 7221   1.682   4.027  10.308 -0.2553 -0.3632  0.5299
   65CHL1   H4A 7222   1.643   3.923  10.307  0.3407 -0.6032 -1.3595
   65CHL1   H4B 7223   1.612   4.094  10.363  0.9657 -0.1238  1.8664
   65CHL1    C5 7224   1.697   4.070  10.166 -0.1932 -0.3371 -0.2185
   65CHL1    C6 7225   1.619   4.176  10.120 -0.7043 -0.4449  0.2258
   65CHL1    H6 7226   1.547   4.219  10.192  1.2243  0.1820  1.8730
   65CHL1    C7 7227   1.632   4.216   9.976  0.0272 -0.0785  0.2172
   65CHL1   H7A 7228   1.530   4.225   9.932  0.5131  2.8423 -0.4892
   65CHL1   H7B 7229   1.677   4.317   9.973 -1.1197  0.5286  1.7356
   65CHL1    C8 7230   1.707   4.117   9.878  0.3176 -0.1567 -1.3593
   65CHL1    H8 7231   1.647   4.025   9.861  1.0930 -0.6031 -1.7679
   65CHL1   C14 7232   1.740   4.178   9.740  0.5201  0.0255  0.1504
   65CHL1   H14 7233   1.801   4.268   9.762  0.0653  0.2889  0.3364
   65CHL1   C15 7234   1.619   4.244   9.670 -0.1126  0.5344 -0.4277
   65CHL1  H15A 7235   1.529   4.179   9.669 -1.1116  1.8575  0.0166
   65CHL1  H15B 7236   1.600   4.349   9.699  2.7222  1.4741 -1.5876
   65CHL1   C16 7237   1.676   4.258   9.528 -0.1079 -0.4999 -0.8836
   65CHL1  H16A 7238   1.597   4.220   9.459 -0.3740 -4.1637  1.1883
   65CHL1  H16B 7239   1.701   4.364   9.503  0.0776 -0.0097  1.2340
   65CHL1   C17 7240   1.815   4.186   9.527 -0.7293  0.1718 -1.0221
   65CHL1   H17 7241   1.888   4.263   9.561  0.5184 -0.8688 -1.2572
   65CHL1   C13 7242   1.819   4.090   9.644  0.2121 -0.4693 -0.4813
   65CHL1   C18 7243   1.742   3.968   9.592  0.0478  0.2804 -0.5002
   65CHL1  H18A 7244   1.653   3.996   9.531 -0.3254  1.0985  0.3918
   65CHL1  H18B 7245   1.801   3.915   9.515 -0.7381  0.5293 -1.2907
   65CHL1  H18C 7246   1.716   3.899   9.675 -1.9325  1.4558 -0.0717
   65CHL1   C12 7247   1.951   4.052   9.711  0.6028 -0.2246 -0.0007
   65CHL1  H12A 7248   2.010   3.982   9.648  2.6109  0.8953  0.5591
   65CHL1  H12B 7249   2.015   4.143   9.712 -1.3885  1.2358 -0.4527
   65CHL1   C11 7250   1.924   3.981   9.852  0.3159 -0.3083 -0.2985
   65CHL1  H11A 7251   1.879   3.882   9.827  0.1607  0.0776 -1.6258
   65CHL1  H11B 7252   2.020   3.956   9.902 -0.0385  1.2944  1.2913
   65CHL1    C9 7253   1.833   4.071   9.947  0.0184  0.3187 -0.8804
   65CHL1    H9 7254   1.889   4.162   9.976 -0.4955  0.1830  0.6255
   65CHL1   C10 7255   1.807   3.999  10.088  0.3604 -0.0970 -0.1306
   65CHL1   C19 7256   1.746   3.855  10.077 -0.6025 -0.0117  0.2660
   65CHL1  H19A 7257   1.656   3.848  10.012 -1.1042  0.5034  0.8866
   65CHL1  H19B 7258   1.820   3.788  10.028 -0.6285 -0.0558  0.2878
   65CHL1  H19C 7259   1.721   3.803  10.171 -0.1452  0.8963  0.9160
   65CHL1    C1 7260   1.944   4.002  10.159  0.5349  0.1116  0.4332
   65CHL1   H1A 7261   2.016   3.926  10.121 -0.4567 -0.1946 -0.9284
   65CHL1   H1B 7262   1.997   4.099  10.150  0.3470  0.4586  2.4457
   65CHL1    C2 7263   1.925   3.957  10.306 -0.2459 -0.9203  0.1597
   65CHL1   H2A 7264   2.024   3.956  10.356  0.1517 -0.6165 -0.6085
   65CHL1   H2B 7265   1.898   3.850  10.302 -0.1247 -1.0344  1.6893
   65CHL1   C20 7266   1.854   4.146   9.388 -1.0588 -0.4834  0.1208
   65CHL1   H20 7267   1.785   4.063   9.362  0.6184 -1.3166 -2.0527
   65CHL1   C21 7268   1.987   4.075   9.359 -0.2159  0.3628  0.2171
   65CHL1  H21A 7269   2.002   4.067   9.250  1.8004 -0.2653  0.4951
   65CHL1  H21B 7270   2.004   3.970   9.394  2.2678 -0.3361 -2.6656
   65CHL1  H21C 7271   2.064   4.145   9.400 -2.6528  2.3442  1.6647
   65CHL1   C22 7272   1.837   4.260   9.278 -0.0163  0.6066 -0.2651
   65CHL1  H22A 7273   1.735   4.294   9.304 -0.0371  0.0735  0.3879
   65CHL1  H22B 7274   1.919   4.335   9.287 -0.8126  1.3419  1.2569
   65CHL1   C23 7275   1.838   4.213   9.128  1.0400  0.9324  0.3803
   65CHL1  H23A 7276   1.933   4.159   9.106 -0.3590 -1.3836 -0.2563
   65CHL1  H23B 7277   1.759   4.135   9.123  0.9874  1.0523 -1.1132
   65CHL1   C24 7278   1.812   4.317   9.020 -0.4053 -0.0690 -0.4478
   65CHL1  H24A 7279   1.716   4.371   9.036  0.0094 -0.0525  2.6638
   65CHL1  H24B 7280   1.883   4.403   9.029 -2.7740  2.0241 -0.6986
   65CHL1   C25 7281   1.810   4.266   8.878 -1.2669 -0.0563  0.2401
   65CHL1   H25 7282   1.908   4.214   8.864 -0.1153  1.3676  2.4129
   65CHL1   C26 7283   1.700   4.175   8.830  0.1187 -0.7901 -0.2343
   65CHL1  H26A 7284   1.719   4.082   8.888  2.4184  1.0793  2.2907
   65CHL1  H26B 7285   1.603   4.223   8.854  0.4902 -0.2535  0.2487
   65CHL1  H26C 7286   1.708   4.172   8.720 -1.4873  1.0773 -0.4698
   65CHL1   C27 7287   1.825   4.374   8.775  0.5806 -0.5582  0.6276
   65CHL1  H27A 7288   1.843   4.326   8.676  2.5998  0.6086  0.3852
   65CHL1  H27B 7289   1.729   4.430   8.774 -0.6890 -2.5916  0.4385
   65CHL1  H27C 7290   1.912   4.441   8.789 -0.2249  0.9951 -1.2823
   66CHL1    C3 7291   5.009   1.409  10.674 -0.5570  0.3612  1.0481
   66CHL1    H3 7292   5.061   1.311  10.663 -2.3390 -0.5563  0.4890
   66CHL1    O3 7293   4.994   1.421  10.809  0.1970 -0.0148 -0.3254
   66CHL1   H3' 7294   4.976   1.514  10.822  1.8304  0.4345 -0.9797
   66CHL1    C4 7295   5.084   1.524  10.609  0.0841 -0.2680  0.1093
   66CHL1   H4A 7296   5.041   1.625  10.628 -0.3050  0.0202 -2.0867
   66CHL1   H4B 7297   5.184   1.525  10.658  1.6116 -0.9739 -2.7640
   66CHL1    C5 7298   5.091   1.504  10.459 -0.5279 -0.3456 -0.0424
   66CHL1    C6 7299   5.209   1.498  10.404  0.3373 -0.2714 -0.9263
   66CHL1    H6 7300   5.301   1.508  10.463 -0.8743 -1.1146  1.1989
   66CHL1    C7 7301   5.227   1.485  10.255  0.3415  0.1387 -0.8098
   66CHL1   H7A 7302   5.309   1.546  10.211  0.4753  0.5446 -0.0057
   66CHL1   H7B 7303   5.255   1.379  10.236  1.4705  0.0314  1.2011
   66CHL1    C8 7304   5.098   1.515  10.173  0.5384 -0.2795  0.1688
   66CHL1    H8 7305   5.083   1.625  10.177  3.5268  0.4236 -2.9554
   66CHL1   C14 7306   5.111   1.487  10.021  0.1423  0.4056  0.2442
   66CHL1   H14 7307   5.142   1.380  10.014  1.6499  0.9031 -1.3296
   66CHL1   C15 7308   5.224   1.566   9.945 -0.1052  0.0319 -0.1020
   66CHL1  H15A 7309   5.222   1.667   9.991  1.3225 -0.3038  0.7408
   66CHL1  H15B 7310   5.329   1.533   9.962  0.0490  0.2780 -0.5614
   66CHL1   C16 7311   5.175   1.558   9.800 -0.9478  0.6757  0.1001
   66CHL1  H16A 7312   5.189   1.660   9.760  1.9988  1.5790  2.9158
   66CHL1  H16B 7313   5.251   1.500   9.743 -1.0942  1.2366 -0.6796
   66CHL1   C17 7314   5.033   1.490   9.800  0.7537  0.4675  1.1590
   66CHL1   H17 7315   5.048   1.382   9.782 -2.6587  0.0200  0.2430
   66CHL1   C13 7316   4.983   1.506   9.946 -0.0922  0.2475  0.3848
   66CHL1   C18 7317   4.926   1.644   9.968  0.1116 -0.9702  0.8536
   66CHL1  H18A 7318   5.007   1.718   9.952  0.6251 -0.9919  3.0725
   66CHL1  H18B 7319   4.839   1.666   9.903 -1.2671 -0.6955  2.6920
   66CHL1  H18C 7320   4.895   1.659  10.074 -2.1548  1.4338 -0.0478
   66CHL1   C12 7321   4.883   1.402   9.999 -0.0545 -0.0412  0.6763
   66CHL1  H12A 7322   4.785   1.416   9.949  1.4455 -0.1268 -2.4944
   66CHL1  H12B 7323   4.920   1.301   9.970  2.7626  0.7439  1.2391
   66CHL1   C11 7324   4.856   1.410  10.151  0.5545  0.7463 -0.0609
   66CHL1  H11A 7325   4.781   1.491  10.169  1.3012  1.1160  1.5802
   66CHL1  H11B 7326   4.811   1.316  10.189  1.6998  0.9261  1.8748
   66CHL1    C9 7327   4.983   1.434  10.240 -0.1195 -0.5767 -0.2758
   66CHL1    H9 7328   5.020   1.331  10.258  1.7462 -0.4050 -2.5049
   66CHL1   C10 7329   4.956   1.485  10.386  0.0473 -0.0935 -0.3184
   66CHL1   C19 7330   4.866   1.612  10.386  0.3722 -0.4745  0.3098
   66CHL1  H19A 7331   4.896   1.678  10.302 -0.6058  2.5906  2.2092
   66CHL1  H19B 7332   4.759   1.584  10.374  0.3435 -0.9602  1.5962
   66CHL1  H19C 7333   4.875   1.676  10.476  2.6685 -1.8326  1.1209
   66CHL1    C1 7334   4.881   1.369  10.452 -0.5714  0.2626 -0.4360
   66CHL1   H1A 7335   4.780   1.347  10.411 -1.5823  3.1813  0.2279
   66CHL1   H1B 7336   4.938   1.275  10.439 -0.0690  0.5953 -0.6429
   66CHL1    C2 7337   4.873   1.396  10.605 -0.5046 -0.2683 -0.7214
   66CHL1   H2A 7338   4.836   1.310  10.665  0.5523  0.5161  1.1535
   66CHL1   H2B 7339   4.810   1.487  10.617 -0.1498 -0.3125  2.0958
   66CHL1   C20 7340   4.947   1.545   9.685  0.2481 -0.1688  0.0533
   66CHL1   H20 7341   4.937   1.654   9.701  0.7171 -0.0343 -0.5134
   66CHL1   C21 7342   4.806   1.477   9.686  0.4134 -0.0398 -0.2584
   66CHL1  H21A 7343   4.745   1.504   9.598 -0.3741 -2.4571 -0.5208
   66CHL1  H21B 7344   4.737   1.509   9.767 -1.8797 -0.9444 -1.7606
   66CHL1  H21C 7345   4.812   1.366   9.685  0.2593 -0.0821  1.1174
   66CHL1   C22 7346   5.018   1.509   9.551  0.3956 -0.8686 -0.5012
   66CHL1  H22A 7347   5.123   1.545   9.552 -0.3250  1.3559  1.0037
   66CHL1  H22B 7348   5.026   1.399   9.541  0.5991 -1.0953  1.6939
   66CHL1   C23 7349   4.957   1.579   9.425  0.3638 -0.2428 -0.3731
   66CHL1  H23A 7350   4.847   1.590   9.433  0.5012  0.9575  0.0665
   66CHL1  H23B 7351   5.006   1.679   9.415 -0.0772 -0.0665 -0.8091
   66CHL1   C24 7352   4.975   1.508   9.283 -0.5823  0.3482  0.5113
   66CHL1  H24A 7353   5.083   1.522   9.261 -1.2994  2.1609 -2.2951
   66CHL1  H24B 7354   4.962   1.399   9.300  2.1367 -0.3346 -1.1100
   66CHL1   C25 7355   4.901   1.574   9.171 -0.2325 -0.2632 -0.1194
   66CHL1   H25 7356   4.794   1.569   9.200  0.0555  1.8059  1.4867
   66CHL1   C26 7357   4.935   1.715   9.149  1.1759 -0.4391  0.8730
   66CHL1  H26A 7358   4.884   1.740   9.053 -0.8599  0.6295  2.1603
   66CHL1  H26B 7359   4.907   1.775   9.238  1.5096 -3.0338  2.8345
   66CHL1  H26C 7360   5.040   1.742   9.125  0.0285  1.5158 -2.7842
   66CHL1   C27 7361   4.914   1.490   9.043 -0.2791  0.4536 -0.0875
   66CHL1  H27A 7362   4.871   1.389   9.058  0.5859  0.1123  0.1926
   66CHL1  H27B 7363   4.871   1.539   8.954  0.6087  1.2980 -0.0701
   66CHL1  H27C 7364   5.020   1.473   9.012 -1.1767 -2.5317 -1.9055
   67CHL1    C3 7365   3.382   1.839  10.348  0.8710  0.0368  0.3284
   67CHL1    H3 7366   3.310   1.895  10.286  3.2221  1.1697 -1.5306
   67CHL1    O3 7367   3.340   1.839  10.483 -0.1716  0.0337  0.1447
   67CHL1   H3' 7368   3.256   1.793  10.480 -0.5797  0.7902 -1.8257
   67CHL1    C4 7369   3.389   1.696  10.299 -0.2773 -0.2862 -0.3802
   67CHL1   H4A 7370   3.454   1.632  10.363 -0.4524 -0.1529 -0.0679
   67CHL1   H4B 7371   3.287   1.654  10.310 -0.3345  0.1293  0.8328
   67CHL1    C5 7372   3.442   1.689  10.159 -0.1791  0.5031 -0.3768
   67CHL1    C6 7373   3.370   1.645  10.054  0.9187  0.3219  0.0886
   67CHL1    H6 7374   3.269   1.604  10.066  1.0091 -0.5090 -1.7147
   67CHL1    C7 7375   3.426   1.632   9.913  0.5898  0.0064  0.5119
   67CHL1   H7A 7376   3.404   1.530   9.875  0.4261 -0.0280  0.7000
   67CHL1   H7B 7377   3.363   1.694   9.846 -1.6090 -2.1539  0.4392
   67CHL1    C8 7378   3.574   1.661   9.892 -0.0160  0.2879 -0.4557
   67CHL1    H8 7379   3.630   1.569   9.920  1.4412  0.8520 -1.3944
   67CHL1   C14 7380   3.599   1.706   9.747  0.6122 -0.5475  0.4132
   67CHL1   H14 7381   3.539   1.799   9.739 -1.9702 -2.0055  1.6713
   67CHL1   C15 7382   3.551   1.617   9.628  0.2029 -0.2625  0.3165
   67CHL1  H15A 7383   3.590   1.513   9.630 -0.0434 -0.3699 -0.4469
   67CHL1  H15B 7384   3.441   1.612   9.616  0.4536 -1.8293 -1.9142
   67CHL1   C16 7385   3.620   1.688   9.514  0.0137 -0.0951 -0.1204
   67CHL1  H16A 7386   3.667   1.618   9.442 -1.1493 -0.5838 -0.4270
   67CHL1  H16B 7387   3.553   1.756   9.458  1.8907  3.2302  1.3785
   67CHL1   C17 7388   3.734   1.778   9.569  0.4979 -0.3086  0.1074
   67CHL1   H17 7389   3.694   1.882   9.568 -0.7124 -0.7581  0.0213
   67CHL1   C13 7390   3.749   1.741   9.719  0.6488  0.5270  0.7011
   67CHL1   C18 7391   3.838   1.618   9.719  0.1392 -0.7384 -0.7998
   67CHL1  H18A 7392   3.813   1.538   9.647  2.0476 -0.8072 -1.4383
   67CHL1  H18B 7393   3.944   1.640   9.694  0.1987  2.3144  1.5446
   67CHL1  H18C 7394   3.834   1.569   9.819 -0.6178  0.2988 -0.3046
   67CHL1   C12 7395   3.791   1.844   9.813 -0.7494  0.8775  0.0004
   67CHL1  H12A 7396   3.896   1.872   9.791 -1.0185  1.3672 -0.6587
   67CHL1  H12B 7397   3.729   1.934   9.795  0.2377  1.2664 -1.6541
   67CHL1   C11 7398   3.771   1.795   9.962 -0.1394  0.4158 -0.2918
   67CHL1  H11A 7399   3.830   1.702   9.978  2.0232  2.0848  2.7208
   67CHL1  H11B 7400   3.812   1.871  10.033  0.2070  2.1135 -2.2262
   67CHL1    C9 7401   3.621   1.773   9.985  0.2660  0.5220  0.2765
   67CHL1    H9 7402   3.567   1.868   9.964  1.9624  1.2969 -0.7203
   67CHL1   C10 7403   3.579   1.754  10.136 -0.0303 -0.2134 -1.0100
   67CHL1   C19 7404   3.676   1.666  10.213 -0.3671  0.4838 -0.2135
   67CHL1  H19A 7405   3.661   1.657  10.322 -1.5363  0.5234 -0.3581
   67CHL1  H19B 7406   3.670   1.567  10.162 -1.4647  0.9895 -1.1173
   67CHL1  H19C 7407   3.783   1.690  10.193 -0.6524 -0.1428 -2.8777
   67CHL1    C1 7408   3.582   1.898  10.199  0.3120  0.0690 -1.2702
   67CHL1   H1A 7409   3.686   1.936  10.204 -0.6434  2.7550  0.5688
   67CHL1   H1B 7410   3.524   1.972  10.140 -1.3085  0.0253  0.2139
   67CHL1    C2 7411   3.518   1.907  10.341 -0.1951 -0.0780 -0.2012
   67CHL1   H2A 7412   3.497   2.013  10.370  2.2019 -0.0216  1.6604
   67CHL1   H2B 7413   3.580   1.855  10.417  1.2454  0.3232 -1.0691
   67CHL1   C20 7414   3.854   1.787   9.477  0.1891  0.5916 -0.0397
   67CHL1   H20 7415   3.892   1.683   9.477 -0.7855  0.1895 -2.2820
   67CHL1   C21 7416   3.958   1.894   9.524  0.3772 -0.1721  0.5907
   67CHL1  H21A 7417   3.905   1.984   9.561  0.4901 -0.2215  0.8770
   67CHL1  H21B 7418   4.018   1.922   9.434 -1.9814 -0.3483 -1.1462
   67CHL1  H21C 7419   4.026   1.865   9.607 -0.3952  1.2906  1.7815
   67CHL1   C22 7420   3.809   1.827   9.327 -0.3949 -0.0186  0.7186
   67CHL1  H22A 7421   3.718   1.770   9.300  0.0053 -0.5275  0.4213
   67CHL1  H22B 7422   3.778   1.934   9.327  2.5462  0.9456 -0.0818
   67CHL1   C23 7423   3.917   1.811   9.210  0.0634 -0.4474  0.0446
   67CHL1  H23A 7424   3.861   1.830   9.116  0.5400 -1.6938 -0.5113
   67CHL1  H23B 7425   3.991   1.893   9.225 -0.3637  0.1296 -0.9086
   67CHL1   C24 7426   3.975   1.672   9.192  0.1839 -0.3510 -1.1409
   67CHL1  H24A 7427   4.003   1.646   9.296 -1.9475 -0.5769 -0.5890
   67CHL1  H24B 7428   3.895   1.603   9.158  0.0511 -0.9132  0.2478
   67CHL1   C25 7429   4.090   1.670   9.088  0.3450 -0.1136  0.0575
   67CHL1   H25 7430   4.174   1.740   9.109 -1.0756  1.9714 -0.9167
   67CHL1   C26 7431   4.142   1.527   9.081 -0.0950 -0.0185  0.2571
   67CHL1  H26A 7432   4.061   1.459   9.050 -1.4070  1.8691 -0.6395
   67CHL1  H26B 7433   4.236   1.529   9.021 -0.4081 -0.2884 -0.2570
   67CHL1  H26C 7434   4.179   1.506   9.184  0.0267  1.2564  0.4867
   67CHL1   C27 7435   4.045   1.725   8.948  0.2377  0.4147  0.4023
   67CHL1  H27A 7436   4.119   1.700   8.869  0.3965  1.2792  0.2603
   67CHL1  H27B 7437   3.942   1.708   8.911  1.0173 -2.7788 -0.5858
   67CHL1  H27C 7438   4.048   1.834   8.972  1.0153  1.1566 -2.6652
   68CHL1    C3 7439   1.421   4.720  10.390  0.2167  0.0580 -0.2092
   68CHL1    H3 7440   1.311   4.712  10.401 -0.0018  1.4764 -0.9957
   68CHL1    O3 7441   1.473   4.748  10.519 -0.3023  0.7350 -0.6002
   68CHL1   H3' 7442   1.537   4.820  10.516  0.3145  0.1855 -0.9100
   68CHL1    C4 7443   1.486   4.592  10.337  0.3752 -0.1753  0.2413
   68CHL1   H4A 7444   1.597   4.600  10.345  0.3021 -0.6912  2.5342
   68CHL1   H4B 7445   1.453   4.506  10.399 -2.0924 -0.6936 -1.6278
   68CHL1    C5 7446   1.428   4.552  10.197  0.3962 -0.3958  0.1575
   68CHL1    C6 7447   1.366   4.431  10.175 -0.2574 -0.2703 -0.4302
   68CHL1    H6 7448   1.355   4.349  10.248  1.4124 -0.0768  0.0730
   68CHL1    C7 7449   1.310   4.403  10.036  0.5424  0.6944 -1.3378
   68CHL1   H7A 7450   1.335   4.302   9.996  1.1001  0.4943 -0.5014
   68CHL1   H7B 7451   1.201   4.420  10.038  0.1216 -1.7361  1.7519
   68CHL1    C8 7452   1.356   4.496   9.926 -1.2833 -0.7999 -0.3960
   68CHL1    H8 7453   1.461   4.472   9.897 -0.8363  2.4848 -1.8789
   68CHL1   C14 7454   1.262   4.481   9.802  0.1947 -0.3229 -0.2431
   68CHL1   H14 7455   1.159   4.508   9.833 -0.4819 -1.9244 -0.9513
   68CHL1   C15 7456   1.242   4.343   9.738  0.1889 -0.0980  0.1233
   68CHL1  H15A 7457   1.328   4.273   9.727  0.0717 -0.3399  0.7413
   68CHL1  H15B 7458   1.179   4.277   9.801 -0.9425 -0.8765 -1.7464
   68CHL1   C16 7459   1.172   4.376   9.605 -0.0986 -0.5165  0.4495
   68CHL1  H16A 7460   1.233   4.324   9.529 -1.4838 -1.4212 -0.0846
   68CHL1  H16B 7461   1.066   4.342   9.600 -0.2561 -0.2199  1.5319
   68CHL1   C17 7462   1.169   4.534   9.593  0.1112 -0.5440  0.3366
   68CHL1   H17 7463   1.081   4.568   9.650  0.6776  1.1245  0.2515
   68CHL1   C13 7464   1.284   4.578   9.684  0.1243  0.1483  0.0016
   68CHL1   C18 7465   1.421   4.559   9.618 -0.5955 -0.2599 -0.2535
   68CHL1  H18A 7466   1.436   4.459   9.573  2.0301  1.1846 -2.9711
   68CHL1  H18B 7467   1.433   4.635   9.538 -3.0993  0.5443  0.0713
   68CHL1  H18C 7468   1.496   4.574   9.700 -1.8876  1.0896  0.7297
   68CHL1   C12 7469   1.277   4.724   9.730 -0.0059  0.8338 -0.5079
   68CHL1  H12A 7470   1.307   4.790   9.646  1.5316 -0.1667 -0.7740
   68CHL1  H12B 7471   1.177   4.753   9.768  0.3110  0.3485  0.7307
   68CHL1   C11 7472   1.384   4.740   9.848  0.6010  0.2516  0.3751
   68CHL1  H11A 7473   1.490   4.735   9.815  0.7828 -0.8687  1.0805
   68CHL1  H11B 7474   1.369   4.843   9.887 -1.6704  0.5305 -1.0246
   68CHL1    C9 7475   1.359   4.643   9.963 -0.5368  0.3335  0.3728
   68CHL1    H9 7476   1.252   4.660   9.989 -0.9482  1.5400 -1.9164
   68CHL1   C10 7477   1.440   4.671  10.093 -0.1113  0.5436  0.1463
   68CHL1   C19 7478   1.588   4.686  10.059  0.1502  0.5033 -0.0852
   68CHL1  H19A 7479   1.639   4.709  10.155  0.0461 -0.3388  0.1877
   68CHL1  H19B 7480   1.616   4.591  10.009  0.3053  0.5983 -0.1772
   68CHL1  H19C 7481   1.611   4.770   9.991 -1.3939  0.6094 -0.5263
   68CHL1    C1 7482   1.388   4.808  10.158 -0.7178 -0.3468 -0.1839
   68CHL1   H1A 7483   1.407   4.900  10.099 -2.5518  0.4128  0.3254
   68CHL1   H1B 7484   1.277   4.799  10.160 -0.7357 -0.3055 -0.8552
   68CHL1    C2 7485   1.447   4.839  10.301 -0.4413 -0.1590  0.0826
   68CHL1   H2A 7486   1.394   4.923  10.351 -0.7487 -0.1358 -0.2693
   68CHL1   H2B 7487   1.556   4.852  10.291 -0.1629 -1.6323  0.9279
   68CHL1   C20 7488   1.167   4.604   9.453 -0.0864  0.4236 -0.4957
   68CHL1   H20 7489   1.211   4.706   9.468  0.9429 -0.0844  0.0765
   68CHL1   C21 7490   1.015   4.628   9.420  0.2373 -0.1918 -0.0602
   68CHL1  H21A 7491   0.960   4.691   9.493  1.3007 -0.5477  1.0883
   68CHL1  H21B 7492   0.953   4.537   9.405  1.2934 -0.8910 -0.2726
   68CHL1  H21C 7493   1.017   4.684   9.324 -2.5785 -1.1948 -0.8085
   68CHL1   C22 7494   1.218   4.528   9.336 -1.0409  0.3477 -0.1650
   68CHL1  H22A 7495   1.298   4.464   9.379  0.1003  2.4691  0.9833
   68CHL1  H22B 7496   1.137   4.462   9.297 -0.6554 -0.3286  0.1589
   68CHL1   C23 7497   1.292   4.605   9.222  0.4984 -0.3356  0.6587
   68CHL1  H23A 7498   1.234   4.694   9.189  1.3950  0.9755  2.4553
   68CHL1  H23B 7499   1.388   4.635   9.269  0.7164 -1.1371  0.7423
   68CHL1   C24 7500   1.327   4.514   9.104 -0.3686  0.0547  0.1402
   68CHL1  H24A 7501   1.389   4.427   9.134  0.7272  0.1196 -1.7445
   68CHL1  H24B 7502   1.244   4.465   9.049 -1.0131 -1.2199  2.1383
   68CHL1   C25 7503   1.431   4.587   9.013 -0.0634 -0.8024 -0.2648
   68CHL1   H25 7504   1.390   4.689   8.993 -3.0074 -1.7851  0.2943
   68CHL1   C26 7505   1.567   4.607   9.086  0.2919  0.0361 -0.8709
   68CHL1  H26A 7506   1.575   4.700   9.147  1.1783 -0.7006  0.1698
   68CHL1  H26B 7507   1.588   4.517   9.147 -1.2270  0.9045  1.0561
   68CHL1  H26C 7508   1.642   4.618   9.005  2.4266 -1.5472  0.7595
   68CHL1   C27 7509   1.451   4.512   8.879  0.3732 -0.2309  0.2612
   68CHL1  H27A 7510   1.501   4.574   8.801 -0.2597 -0.6274 -0.4785
   68CHL1  H27B 7511   1.510   4.420   8.902  0.9487  0.5940  2.3256
   68CHL1  H27C 7512   1.358   4.480   8.826  0.0554 -0.1667  0.7681
   69CHL1    C3 7513   6.407   1.416   7.095  0.3627  0.0132 -0.2929
   69CHL1    H3 7514   6.517   1.420   7.084  0.3416 -0.4912 -0.7199
   69CHL1    O3 7515   6.329   1.407   6.972 -0.2346  0.1471  0.1222
   69CHL1   H3' 7516   6.398   1.425   6.908  0.0571  3.2124  1.1357
   69CHL1    C4 7517   6.393   1.283   7.174  0.4177 -0.6333 -0.2063
   69CHL1   H4A 7518   6.288   1.263   7.204 -0.3161  1.4115 -1.1862
   69CHL1   H4B 7519   6.420   1.205   7.100  1.0372  1.5134 -2.3713
   69CHL1    C5 7520   6.465   1.290   7.308 -0.4109  0.1957  0.3494
   69CHL1    C6 7521   6.565   1.206   7.335 -0.2146  0.4657 -1.0492
   69CHL1    H6 7522   6.594   1.124   7.268  1.0701 -0.9607  1.1322
   69CHL1    C7 7523   6.642   1.195   7.456 -0.0525 -0.2057  0.0097
   69CHL1   H7A 7524   6.656   1.092   7.496  0.7983 -0.0691  0.0941
   69CHL1   H7B 7525   6.747   1.230   7.443  0.0637  0.9963  3.2888
   69CHL1    C8 7526   6.571   1.278   7.572 -0.3620 -0.1642 -0.4347
   69CHL1    H8 7527   6.489   1.212   7.608 -0.4045 -0.0042 -0.2410
   69CHL1   C14 7528   6.671   1.299   7.685 -0.1581 -0.2720  0.1990
   69CHL1   H14 7529   6.749   1.366   7.644 -1.2243 -0.2432 -1.9101
   69CHL1   C15 7530   6.747   1.170   7.728 -0.3568 -0.3624  0.4359
   69CHL1  H15A 7531   6.671   1.090   7.737 -1.9478  1.1774  1.2295
   69CHL1  H15B 7532   6.818   1.143   7.646 -0.9772 -1.2159  0.1662
   69CHL1   C16 7533   6.805   1.213   7.862 -0.1744  0.2712  0.0098
   69CHL1  H16A 7534   6.778   1.139   7.940  2.6064  0.0078  0.8118
   69CHL1  H16B 7535   6.913   1.232   7.847 -0.6732  2.4643 -1.2460
   69CHL1   C17 7536   6.731   1.344   7.905  0.3621 -0.0400 -0.4206
   69CHL1   H17 7537   6.792   1.434   7.883 -1.8275  1.8445  0.8662
   69CHL1   C13 7538   6.610   1.367   7.807  0.2184  0.1660  0.0662
   69CHL1   C18 7539   6.486   1.296   7.871  0.1763 -0.0599 -0.6854
   69CHL1  H18A 7540   6.514   1.191   7.896 -0.9689 -0.4605 -1.0541
   69CHL1  H18B 7541   6.442   1.347   7.958 -0.9301  0.7823 -1.7078
   69CHL1  H18C 7542   6.396   1.274   7.810 -1.1246  0.2929  1.0540
   69CHL1   C12 7543   6.583   1.513   7.757 -0.0645 -0.0455 -0.1143
   69CHL1  H12A 7544   6.551   1.578   7.840 -0.1831 -0.1566 -0.0733
   69CHL1  H12B 7545   6.683   1.553   7.728 -0.5060  2.9068  2.0054
   69CHL1   C11 7546   6.490   1.514   7.639  0.0449 -0.4148 -0.0487
   69CHL1  H11A 7547   6.392   1.475   7.675  0.2273  0.0425  0.9619
   69CHL1  H11B 7548   6.478   1.617   7.599  0.1823 -0.0849  0.7434
   69CHL1    C9 7549   6.527   1.411   7.517  0.0903 -0.0524  0.0754
   69CHL1    H9 7550   6.625   1.444   7.477  0.1878 -1.1757 -0.6798
   69CHL1   C10 7551   6.428   1.408   7.399  0.0076 -0.6640 -0.1272
   69CHL1   C19 7552   6.285   1.412   7.460 -0.3776  0.0949 -0.4154
   69CHL1  H19A 7553   6.279   1.320   7.523 -0.1094  1.5583  1.8624
   69CHL1  H19B 7554   6.260   1.508   7.510  1.1040  1.2352 -1.7339
   69CHL1  H19C 7555   6.212   1.384   7.381 -2.2802 -1.4958  1.7805
   69CHL1    C1 7556   6.438   1.536   7.313 -0.4431 -0.2917 -0.4063
   69CHL1   H1A 7557   6.399   1.620   7.374 -1.6603  1.1588 -3.0191
   69CHL1   H1B 7558   6.545   1.562   7.297  0.2092 -1.2823  1.9229
   69CHL1    C2 7559   6.364   1.535   7.178  0.5687 -0.2002  0.0058
   69CHL1   H2A 7560   6.377   1.630   7.122 -1.1869 -1.2716 -2.4155
   69CHL1   H2B 7561   6.258   1.524   7.212  0.8296 -0.9883  0.5827
   69CHL1   C20 7562   6.700   1.359   8.061 -0.5147 -0.5583 -0.7912
   69CHL1   H20 7563   6.636   1.277   8.101  0.3053 -0.4826  0.7685
   69CHL1   C21 7564   6.627   1.490   8.102  0.1226 -0.2028 -0.8323
   69CHL1  H21A 7565   6.605   1.497   8.211 -1.8212 -0.0870 -1.1983
   69CHL1  H21B 7566   6.536   1.498   8.039  1.1533 -1.4588 -2.5838
   69CHL1  H21C 7567   6.692   1.579   8.085 -0.2454 -0.0918 -1.7227
   69CHL1   C22 7568   6.838   1.340   8.132  0.1122 -0.5913  0.4638
   69CHL1  H22A 7569   6.888   1.246   8.102 -0.4458 -1.3351  1.7982
   69CHL1  H22B 7570   6.907   1.423   8.106 -1.3501  1.2558  2.1349
   69CHL1   C23 7571   6.826   1.338   8.280 -0.1585  0.5550  0.2851
   69CHL1  H23A 7572   6.772   1.429   8.314 -0.1045  1.2993 -1.5553
   69CHL1  H23B 7573   6.783   1.250   8.333  2.2157 -0.4169  0.7063
   69CHL1   C24 7574   6.965   1.345   8.350 -0.0375  0.2864 -0.4745
   69CHL1  H24A 7575   7.023   1.255   8.324  1.6031  1.0313  0.4547
   69CHL1  H24B 7576   7.000   1.445   8.317  0.5855  0.0924 -0.4032
   69CHL1   C25 7577   6.951   1.351   8.506  0.4327 -0.6354  0.3799
   69CHL1   H25 7578   6.858   1.410   8.521  1.7236  1.6785 -0.1396
   69CHL1   C26 7579   6.936   1.211   8.560 -0.6242  0.2124  0.2652
   69CHL1  H26A 7580   6.846   1.170   8.510 -0.9779  1.7942 -0.4347
   69CHL1  H26B 7581   7.030   1.159   8.530  0.7258  3.6011 -1.9896
   69CHL1  H26C 7582   6.927   1.213   8.671 -1.1738 -2.8311  0.3610
   69CHL1   C27 7583   7.065   1.437   8.561 -0.1520  0.1609 -0.6155
   69CHL1  H27A 7584   7.066   1.436   8.672  1.8744  0.4614 -0.5890
   69CHL1  H27B 7585   7.166   1.405   8.526 -0.1426  1.8856 -2.3373
   69CHL1  H27C 7586   7.051   1.543   8.531 -0.4772  0.6732  1.2179
   70CHL1    C3 7587   0.412   6.495   7.045 -0.5580  0.1658  0.2254
   70CHL1    H3 7588   0.478   6.585   7.049  1.3357 -1.1937  1.7602
   70CHL1    O3 7589   0.354   6.491   6.912 -0.2063 -0.0343 -0.2362
   70CHL1   H3' 7590   0.283   6.429   6.931  1.1079 -1.5929 -0.2697
   70CHL1    C4 7591   0.510   6.372   7.062 -0.5427  0.0761  0.1168
   70CHL1   H4A 7592   0.459   6.274   7.051 -0.4321  0.2755 -3.0906
   70CHL1   H4B 7593   0.577   6.375   6.974 -1.0811 -1.5037 -0.3708
   70CHL1    C5 7594   0.568   6.401   7.196  0.7227  0.5312 -0.5485
   70CHL1    C6 7595   0.701   6.428   7.217  0.1781  0.2504 -0.2153
   70CHL1    H6 7596   0.767   6.418   7.129 -1.1650 -1.5222 -1.0755
   70CHL1    C7 7597   0.771   6.447   7.352  0.1453  0.4438  0.5399
   70CHL1   H7A 7598   0.871   6.398   7.352 -1.3736 -2.9624  0.4285
   70CHL1   H7B 7599   0.786   6.555   7.372 -0.6148  0.7069 -0.2372
   70CHL1    C8 7600   0.685   6.380   7.460 -0.2721 -0.5157 -0.8418
   70CHL1    H8 7601   0.687   6.271   7.442 -0.2138 -0.7136  0.3018
   70CHL1   C14 7602   0.751   6.419   7.591 -0.4013 -0.0786 -0.4638
   70CHL1   H14 7603   0.750   6.530   7.593 -1.9249 -0.0839  1.0721
   70CHL1   C15 7604   0.895   6.376   7.608 -0.0003  0.1521 -0.2810
   70CHL1  H15A 7605   0.914   6.281   7.553  0.8975  0.8170 -1.1519
   70CHL1  H15B 7606   0.980   6.438   7.573  0.4663 -0.9205 -1.1329
   70CHL1   C16 7607   0.914   6.375   7.758  0.6926  0.0774 -0.7543
   70CHL1  H16A 7608   0.935   6.269   7.786  0.7476  0.1397 -0.5560
   70CHL1  H16B 7609   0.996   6.440   7.794 -0.7921  1.1697  0.7881
   70CHL1   C17 7610   0.779   6.416   7.820 -0.6218 -0.3582 -0.6223
   70CHL1   H17 7611   0.769   6.527   7.822 -0.8474 -0.3459 -1.9300
   70CHL1   C13 7612   0.680   6.369   7.716 -0.7402 -0.0410 -0.2253
   70CHL1   C18 7613   0.680   6.209   7.710  0.8028 -0.4171 -0.8498
   70CHL1  H18A 7614   0.626   6.168   7.798  1.7858  1.6438  0.7605
   70CHL1  H18B 7615   0.628   6.170   7.620  2.2043 -0.9252 -1.4654
   70CHL1  H18C 7616   0.779   6.160   7.717 -0.3409 -2.9329 -0.9030
   70CHL1   C12 7617   0.535   6.425   7.711  0.6654 -0.6217  0.3830
   70CHL1  H12A 7618   0.471   6.390   7.795  0.4640  0.5649  0.7511
   70CHL1  H12B 7619   0.537   6.535   7.725  2.8608 -0.2025 -2.3073
   70CHL1   C11 7620   0.458   6.384   7.581 -0.6871  0.4134 -0.2806
   70CHL1  H11A 7621   0.444   6.274   7.571 -0.9360  0.3825  0.3677
   70CHL1  H11B 7622   0.356   6.428   7.583 -0.8924 -0.0825  0.2087
   70CHL1    C9 7623   0.540   6.435   7.451 -0.5105  0.1043  0.1313
   70CHL1    H9 7624   0.540   6.546   7.461 -1.2609  0.2678 -1.3317
   70CHL1   C10 7625   0.469   6.398   7.319  0.2978 -0.4776  0.0341
   70CHL1   C19 7626   0.401   6.258   7.330 -0.1590 -0.0322  0.2246
   70CHL1  H19A 7627   0.324   6.255   7.411  0.1295 -0.4125  0.4878
   70CHL1  H19B 7628   0.361   6.219   7.233  0.7738 -1.2929  0.3257
   70CHL1  H19C 7629   0.483   6.192   7.365  0.3085 -0.3089 -1.3147
   70CHL1    C1 7630   0.359   6.502   7.296  0.1085 -0.3999  0.0308
   70CHL1   H1A 7631   0.286   6.485   7.378  1.7887  2.0722  2.2123
   70CHL1   H1B 7632   0.399   6.604   7.316 -0.6511 -0.2701  0.9576
   70CHL1    C2 7633   0.300   6.505   7.155 -0.2054  0.2067  1.4295
   70CHL1   H2A 7634   0.229   6.589   7.138  0.6057  0.5618 -0.5343
   70CHL1   H2B 7635   0.235   6.416   7.139  2.2434 -1.4698  0.1895
   70CHL1   C20 7636   0.756   6.366   7.969 -0.2057 -0.4672 -0.6699
   70CHL1   H20 7637   0.739   6.257   7.970 -2.6662 -0.1831 -2.6092
   70CHL1   C21 7638   0.636   6.446   8.038  0.4056  0.0750  0.1994
   70CHL1  H21A 7639   0.548   6.443   7.969  0.3835  0.4351  0.2127
   70CHL1  H21B 7640   0.659   6.550   8.068 -1.1624  0.3357  0.5873
   70CHL1  H21C 7641   0.605   6.393   8.131 -1.6895  0.2691 -0.3239
   70CHL1   C22 7642   0.887   6.398   8.054  0.4586 -0.6338 -0.1241
   70CHL1  H22A 7643   0.973   6.344   8.010 -1.1998 -4.2021  0.6596
   70CHL1  H22B 7644   0.904   6.508   8.050 -1.1955 -0.4013 -1.5449
   70CHL1   C23 7645   0.871   6.337   8.191  0.0088 -0.5478 -0.2250
   70CHL1  H23A 7646   0.804   6.403   8.251  2.8202  0.6445  1.8531
   70CHL1  H23B 7647   0.844   6.229   8.192 -2.8293  0.0792  0.1210
   70CHL1   C24 7648   1.008   6.345   8.261  0.1387 -0.0550 -0.0901
   70CHL1  H24A 7649   1.078   6.278   8.206 -1.2922 -0.1947 -1.8207
   70CHL1  H24B 7650   1.060   6.442   8.271  1.0371 -0.3473 -1.5898
   70CHL1   C25 7651   0.988   6.299   8.410 -0.8953 -0.3257  0.3752
   70CHL1   H25 7652   0.921   6.210   8.413  0.7012 -1.5922  0.3128
   70CHL1   C26 7653   1.122   6.263   8.478  0.1315 -0.0890  0.3803
   70CHL1  H26A 7654   1.190   6.351   8.482  2.4989 -1.8456  1.0937
   70CHL1  H26B 7655   1.102   6.230   8.582 -1.8863 -0.4922 -0.0887
   70CHL1  H26C 7656   1.165   6.176   8.423  0.5911 -1.4976  2.8000
   70CHL1   C27 7657   0.919   6.405   8.498  0.1654  0.0527  0.0254
   70CHL1  H27A 7658   0.820   6.435   8.457 -0.2432 -1.2884 -0.0127
   70CHL1  H27B 7659   0.919   6.388   8.608 -0.2871 -0.3851 -0.0373
   70CHL1  H27C 7660   0.977   6.498   8.477  0.7991 -0.2607  0.3572
   71CHL1    C3 7661   5.021   1.553   6.903 -0.0575 -0.1043  0.3204
   71CHL1    H3 7662   4.942   1.486   6.944 -0.7031 -0.8436 -2.0132
   71CHL1    O3 7663   5.001   1.585   6.764 -0.4389 -0.3248 -0.3922
   71CHL1   H3' 7664   5.016   1.507   6.710 -0.9136 -0.1394 -0.7986
   71CHL1    C4 7665   5.033   1.684   6.989 -0.1281 -0.7979 -0.4794
   71CHL1   H4A 7666   5.107   1.742   6.931 -0.0668 -2.4897 -2.1941
   71CHL1   H4B 7667   4.937   1.739   6.976  0.0347 -0.5377 -0.5851
   71CHL1    C5 7668   5.072   1.654   7.135 -0.4019 -0.0032 -0.5169
   71CHL1    C6 7669   4.999   1.705   7.238  0.1519 -0.5265  0.1702
   71CHL1    H6 7670   4.916   1.772   7.212  0.5349 -0.2069 -0.2306
   71CHL1    C7 7671   5.037   1.675   7.381  0.0695  0.3724  0.7630
   71CHL1   H7A 7672   5.026   1.777   7.425  1.7785  1.6958 -1.6185
   71CHL1   H7B 7673   4.965   1.600   7.419  1.6507 -2.5626 -1.5958
   71CHL1    C8 7674   5.184   1.632   7.398  0.4012 -0.7095 -0.0002
   71CHL1    H8 7675   5.257   1.711   7.371  0.8383 -1.4099 -0.9669
   71CHL1   C14 7676   5.217   1.582   7.542  0.6236 -0.1330  0.1042
   71CHL1   H14 7677   5.149   1.498   7.567 -0.0694  1.0692  2.6078
   71CHL1   C15 7678   5.196   1.692   7.653  0.9498  0.1213  0.3557
   71CHL1  H15A 7679   5.250   1.785   7.624 -0.8872  0.4340 -2.4350
   71CHL1  H15B 7680   5.092   1.719   7.681  0.5774 -0.0631 -0.8015
   71CHL1   C16 7681   5.268   1.632   7.779 -1.0489  0.4718  1.3352
   71CHL1  H16A 7682   5.348   1.699   7.816  1.6176 -1.6383 -0.2716
   71CHL1  H16B 7683   5.204   1.608   7.867 -2.2247 -0.2690  0.3042
   71CHL1   C17 7684   5.341   1.503   7.723  0.1468 -0.2515 -0.3218
   71CHL1   H17 7685   5.267   1.423   7.744  1.8682 -1.4689  1.4477
   71CHL1   C13 7686   5.353   1.524   7.565 -0.1005 -0.1122 -1.0879
   71CHL1   C18 7687   5.464   1.625   7.537 -0.4124  0.0191 -0.3362
   71CHL1  H18A 7688   5.566   1.581   7.527 -1.0085 -1.5648  0.3298
   71CHL1  H18B 7689   5.446   1.686   7.446 -1.3676 -0.2156 -0.3102
   71CHL1  H18C 7690   5.462   1.691   7.627 -2.5926 -1.0315  0.4352
   71CHL1   C12 7691   5.372   1.400   7.482  0.1173  0.6005 -0.3406
   71CHL1  H12A 7692   5.475   1.359   7.491 -0.3295 -0.7033 -0.8692
   71CHL1  H12B 7693   5.313   1.310   7.510  1.6336 -0.4740 -0.4487
   71CHL1   C11 7694   5.349   1.427   7.326  0.8439  0.5476 -0.3321
   71CHL1  H11A 7695   5.426   1.504   7.300  0.7854  0.7650  0.1232
   71CHL1  H11B 7696   5.367   1.336   7.265 -2.4826 -1.5369  1.5685
   71CHL1    C9 7697   5.216   1.508   7.301  0.3725  0.2306  0.3161
   71CHL1    H9 7698   5.131   1.440   7.323 -0.1888  0.6023 -0.6292
   71CHL1   C10 7699   5.196   1.558   7.155 -0.7431  0.5826  0.4740
   71CHL1   C19 7700   5.308   1.651   7.103  0.1953  0.1822  0.1341
   71CHL1  H19A 7701   5.410   1.612   7.122  0.7235 -0.3272 -3.1735
   71CHL1  H19B 7702   5.299   1.670   6.994 -2.9033  0.6276  0.3801
   71CHL1  H19C 7703   5.291   1.750   7.151 -3.0232 -1.3088  2.4493
   71CHL1    C1 7704   5.171   1.435   7.065 -0.3110  0.1522 -0.0999
   71CHL1   H1A 7705   5.268   1.380   7.065 -0.2168  0.2161  2.0382
   71CHL1   H1B 7706   5.087   1.365   7.085 -0.3875  0.1343 -0.4727
   71CHL1    C2 7707   5.145   1.473   6.915  0.7640 -0.0342  0.8669
   71CHL1   H2A 7708   5.136   1.377   6.860 -1.4659 -0.6017  2.1117
   71CHL1   H2B 7709   5.232   1.527   6.871  0.1589  0.2627  0.0182
   71CHL1   C20 7710   5.463   1.476   7.804  0.6233  1.0134  0.2999
   71CHL1   H20 7711   5.532   1.562   7.790  0.4702  1.1642  0.4834
   71CHL1   C21 7712   5.547   1.357   7.749  0.4304 -0.0548  0.6778
   71CHL1  H21A 7713   5.617   1.410   7.681  0.2856  0.9470  1.2965
   71CHL1  H21B 7714   5.486   1.281   7.695  1.2483  0.3626 -0.8811
   71CHL1  H21C 7715   5.598   1.309   7.836  0.1554 -1.3162  0.1622
   71CHL1   C22 7716   5.441   1.460   7.954 -0.1211 -0.0701 -0.1387
   71CHL1  H22A 7717   5.369   1.526   8.006  1.1048  0.3358  1.1031
   71CHL1  H22B 7718   5.401   1.356   7.963  1.9343 -1.0898 -1.8043
   71CHL1   C23 7719   5.570   1.479   8.043  0.4829  0.0467 -0.1915
   71CHL1  H23A 7720   5.635   1.393   8.017 -0.8733 -0.9900 -0.2899
   71CHL1  H23B 7721   5.621   1.577   8.030 -0.6034  0.8888  1.5106
   71CHL1   C24 7722   5.525   1.470   8.193  0.2641 -1.1134  0.1600
   71CHL1  H24A 7723   5.429   1.523   8.208 -0.1415 -1.1263 -2.0642
   71CHL1  H24B 7724   5.512   1.361   8.208 -0.5659 -0.9864  0.3983
   71CHL1   C25 7725   5.631   1.508   8.291 -0.2489  0.7587 -0.2816
   71CHL1   H25 7726   5.654   1.615   8.274 -0.7421  1.2342  1.8092
   71CHL1   C26 7727   5.585   1.492   8.431 -0.3167 -0.6424 -0.5942
   71CHL1  H26A 7728   5.605   1.386   8.457 -1.2664 -0.7889 -0.4192
   71CHL1  H26B 7729   5.644   1.554   8.502  0.6692 -0.5290 -1.4916
   71CHL1  H26C 7730   5.478   1.521   8.438 -0.5271 -1.0931 -1.6710
   71CHL1   C27 7731   5.748   1.410   8.273 -0.3035  0.1094  0.8644
   71CHL1  H27A 7732   5.717   1.305   8.292  2.0880 -0.4584  2.0228
   71CHL1  H27B 7733   5.813   1.418   8.183  0.9425 -2.9506  1.3489
   71CHL1  H27C 7734   5.830   1.438   8.343  0.7212  1.6590 -0.8365
   72CHL1    C3 7735   6.396   0.331   7.345 -0.2624  0.1092 -0.2561
   72CHL1    H3 7736   6.377   0.425   7.401  1.1557  0.0399  0.3609
   72CHL1    O3 7737   6.396   0.353   7.210  0.1237 -0.0436  0.9824
   72CHL1   H3' 7738   6.308   0.353   7.173 -0.0586  2.5669  1.2351
   72CHL1    C4 7739   6.539   0.283   7.397 -0.2548 -0.3853 -0.2863
   72CHL1   H4A 7740   6.564   0.192   7.339 -1.1003 -0.7159 -0.1421
   72CHL1   H4B 7741   6.601   0.372   7.373  0.4695 -0.6752  0.4625
   72CHL1    C5 7742   6.535   0.247   7.549  0.7586  0.5383 -0.1549
   72CHL1    C6 7743   6.601   0.315   7.643 -0.2176 -0.3941  0.7936
   72CHL1    H6 7744   6.657   0.408   7.621 -0.6212 -0.2304  0.4464
   72CHL1    C7 7745   6.592   0.284   7.788  0.3325  0.4268  0.0586
   72CHL1   H7A 7746   6.684   0.321   7.839  0.2525  2.3761 -1.1284
   72CHL1   H7B 7747   6.515   0.351   7.830 -0.0317 -0.2799  0.5448
   72CHL1    C8 7748   6.561   0.134   7.816 -0.5024 -0.3384  0.6161
   72CHL1    H8 7749   6.653   0.076   7.796  0.2175  0.6628  0.9647
   72CHL1   C14 7750   6.532   0.118   7.963  0.0447  0.2127  0.4637
   72CHL1   H14 7751   6.449   0.188   7.986  0.5030  0.4594  1.4311
   72CHL1   C15 7752   6.643   0.153   8.059 -0.4334 -0.1873  0.1987
   72CHL1  H15A 7753   6.746   0.133   8.021 -0.3234 -0.6449  0.7229
   72CHL1  H15B 7754   6.659   0.257   8.093 -1.5780 -0.7462  2.7399
   72CHL1   C16 7755   6.610   0.074   8.187 -0.8324 -0.1608  0.0414
   72CHL1  H16A 7756   6.691  -0.002   8.194  1.1039  1.7046 -0.8914
   72CHL1  H16B 7757   6.610   0.126   8.285  0.1677 -0.6937  0.3429
   72CHL1   C17 7758   6.489  -0.016   8.152 -0.1401 -0.2265  0.3151
   72CHL1   H17 7759   6.405   0.055   8.170 -0.0868 -0.2243  0.5547
   72CHL1   C13 7760   6.490  -0.024   8.001 -0.5544  0.5794 -0.6751
   72CHL1   C18 7761   6.597  -0.140   7.970 -0.3450  0.4613 -0.3864
   72CHL1  H18A 7762   6.641  -0.140   7.868  4.0019 -0.7076  1.2744
   72CHL1  H18B 7763   6.673  -0.135   8.051 -1.2929 -1.0400  0.6388
   72CHL1  H18C 7764   6.545  -0.238   7.978  0.2395  0.2270  0.8946
   72CHL1   C12 7765   6.358  -0.055   7.933 -0.2625 -0.1065  0.3892
   72CHL1  H12A 7766   6.321  -0.159   7.942 -1.3814  0.1369 -1.0054
   72CHL1  H12B 7767   6.288   0.020   7.977 -0.4380 -1.5571  2.7332
   72CHL1   C11 7768   6.369  -0.035   7.779  0.1023  0.2980 -0.3144
   72CHL1  H11A 7769   6.437  -0.116   7.742  1.5477  1.8275 -1.1438
   72CHL1  H11B 7770   6.271  -0.045   7.728  0.9663  1.2580 -2.3094
   72CHL1    C9 7771   6.439   0.098   7.735 -0.2091 -0.4658  0.0773
   72CHL1    H9 7772   6.362   0.173   7.763  0.6056  0.3575  0.1661
   72CHL1   C10 7773   6.443   0.131   7.583  0.0568 -0.3175 -0.2554
   72CHL1   C19 7774   6.470  -0.006   7.517 -0.2640 -0.3177  0.2841
   72CHL1  H19A 7775   6.475  -0.004   7.406  0.2389 -0.5358  0.3020
   72CHL1  H19B 7776   6.552  -0.063   7.563  2.7496  2.0927 -1.6482
   72CHL1  H19C 7777   6.384  -0.074   7.536 -2.3442  2.5727  2.1446
   72CHL1    C1 7778   6.300   0.182   7.533  0.6349 -0.3230 -0.2110
   72CHL1   H1A 7779   6.230   0.097   7.545 -0.2135  0.2206 -1.1449
   72CHL1   H1B 7780   6.265   0.265   7.598  0.5299 -2.4861  2.6728
   72CHL1    C2 7781   6.295   0.226   7.384  0.0593  0.5545 -0.5426
   72CHL1   H2A 7782   6.193   0.255   7.350 -0.5217  0.2069  0.8173
   72CHL1   H2B 7783   6.327   0.137   7.326  0.3946 -0.3408  0.9655
   72CHL1   C20 7784   6.480  -0.138   8.242  0.5602 -0.2393  0.2233
   72CHL1   H20 7785   6.536  -0.221   8.195 -1.8729 -1.6586 -0.3306
   72CHL1   C21 7786   6.340  -0.189   8.250  0.7051  0.2442  0.3693
   72CHL1  H21A 7787   6.262  -0.112   8.271  0.4460  0.2708 -0.6076
   72CHL1  H21B 7788   6.337  -0.272   8.323 -1.4918 -0.6745 -0.6797
   72CHL1  H21C 7789   6.314  -0.236   8.153 -0.2117  0.5987  0.4325
   72CHL1   C22 7790   6.534  -0.125   8.392 -0.0670 -0.2785 -0.0742
   72CHL1  H22A 7791   6.528  -0.220   8.449  0.7685  0.0917  0.6547
   72CHL1  H22B 7792   6.644  -0.112   8.383  0.6631 -3.3954  2.5885
   72CHL1   C23 7793   6.466  -0.029   8.494 -0.0500 -0.3113  0.1621
   72CHL1  H23A 7794   6.479   0.074   8.455 -2.7517  0.7108  1.6742
   72CHL1  H23B 7795   6.356  -0.039   8.488  0.0283 -0.3811 -2.2009
   72CHL1   C24 7796   6.507  -0.048   8.649  0.5515 -0.0115  0.4474
   72CHL1  H24A 7797   6.432   0.010   8.707  1.2689  0.3854  0.9986
   72CHL1  H24B 7798   6.484  -0.152   8.683 -2.0922  0.7292  1.0970
   72CHL1   C25 7799   6.655  -0.018   8.691 -0.2446  0.0373  0.4257
   72CHL1   H25 7800   6.718  -0.076   8.619 -0.2134  1.0399 -0.3837
   72CHL1   C26 7801   6.693   0.130   8.671  0.6504  1.1612 -0.5353
   72CHL1  H26A 7802   6.800   0.140   8.646  0.5674 -1.4950 -2.5176
   72CHL1  H26B 7803   6.632   0.170   8.587 -0.2582  1.1143  0.0802
   72CHL1  H26C 7804   6.672   0.189   8.763  0.2279  0.9746 -0.5099
   72CHL1   C27 7805   6.697  -0.076   8.831  0.0379 -0.4068  0.2134
   72CHL1  H27A 7806   6.643  -0.010   8.903 -0.2587  2.1341 -2.1624
   72CHL1  H27B 7807   6.657  -0.179   8.841  2.1267 -1.2666  0.1107
   72CHL1  H27C 7808   6.807  -0.079   8.842  0.2802  1.9830 -0.8355
   73CHL1    C3 7809   5.470   1.000   7.238  0.0791 -0.0476 -0.5117
   73CHL1    H3 7810   5.407   1.079   7.284  2.2352  3.2680 -2.7872
   73CHL1    O3 7811   5.464   1.013   7.095  0.3075  0.2814  0.5593
   73CHL1   H3' 7812   5.503   0.936   7.053 -1.3544  0.6035 -1.7644
   73CHL1    C4 7813   5.610   0.999   7.302  0.3731  0.0228 -0.2600
   73CHL1   H4A 7814   5.676   0.941   7.234 -1.2568  0.2454 -2.1295
   73CHL1   H4B 7815   5.641   1.104   7.283  0.6804 -0.4081 -2.3200
   73CHL1    C5 7816   5.618   0.967   7.452  0.5740  0.2518  0.3689
   73CHL1    C6 7817   5.673   1.048   7.537 -0.5220 -0.7290  0.1538
   73CHL1    H6 7818   5.727   1.138   7.502  0.3957 -1.4309 -0.2816
   73CHL1    C7 7819   5.692   1.017   7.683 -0.1989  0.5612 -0.5472
   73CHL1   H7A 7820   5.790   1.050   7.722 -0.9428  1.9148  0.2313
   73CHL1   H7B 7821   5.620   1.076   7.743 -0.3927  2.3455 -2.4202
   73CHL1    C8 7822   5.673   0.861   7.707  0.8311  0.3074 -1.1394
   73CHL1    H8 7823   5.766   0.808   7.678  0.8242 -0.0013 -0.6307
   73CHL1   C14 7824   5.643   0.843   7.854  0.7236 -0.4356 -0.1221
   73CHL1   H14 7825   5.546   0.893   7.873  0.3809 -1.9178  2.5483
   73CHL1   C15 7826   5.744   0.910   7.956  0.3213  0.2100  0.3257
   73CHL1  H15A 7827   5.847   0.904   7.915  0.3612  3.8544 -0.4637
   73CHL1  H15B 7828   5.711   1.015   7.970  0.8855  0.1960  1.9774
   73CHL1   C16 7829   5.727   0.834   8.084  0.2819  0.5917 -1.0623
   73CHL1  H16A 7830   5.825   0.783   8.096 -0.3172 -0.2416  0.7050
   73CHL1  H16B 7831   5.704   0.891   8.176 -0.8372 -1.4627 -0.0049
   73CHL1   C17 7832   5.626   0.711   8.058 -0.3265  0.1512  0.0516
   73CHL1   H17 7833   5.532   0.764   8.083 -0.6267  0.1195 -0.9755
   73CHL1   C13 7834   5.623   0.701   7.905  0.5538 -0.1073  0.0485
   73CHL1   C18 7835   5.754   0.618   7.874  0.2930 -0.6474  0.6918
   73CHL1  H18A 7836   5.750   0.515   7.915 -0.8844 -0.6710  0.5574
   73CHL1  H18B 7837   5.760   0.612   7.763  1.0171  2.0847  0.5210
   73CHL1  H18C 7838   5.851   0.668   7.896  0.3202 -1.1456  1.7996
   73CHL1   C12 7839   5.503   0.644   7.828  0.4707  0.1162  0.7852
   73CHL1  H12A 7840   5.485   0.539   7.861  0.6487  0.3941  1.8172
   73CHL1  H12B 7841   5.412   0.699   7.861  0.0425 -0.0762 -0.0729
   73CHL1   C11 7842   5.513   0.661   7.677 -0.2002  0.0907  0.6255
   73CHL1  H11A 7843   5.584   0.585   7.639 -2.2465 -0.6274 -2.0404
   73CHL1  H11B 7844   5.418   0.633   7.626 -0.9333  1.3832  1.2115
   73CHL1    C9 7845   5.555   0.806   7.632  0.4629  0.3744  0.0696
   73CHL1    H9 7846   5.464   0.861   7.664 -1.2455 -2.6072  0.7630
   73CHL1   C10 7847   5.558   0.827   7.476 -0.4263 -0.0840 -0.2396
   73CHL1   C19 7848   5.648   0.718   7.409 -0.3898  0.7638  0.0163
   73CHL1  H19A 7849   5.610   0.615   7.428  0.3623  0.7832  1.8270
   73CHL1  H19B 7850   5.663   0.728   7.299  0.4549 -2.2000 -0.2256
   73CHL1  H19C 7851   5.742   0.723   7.468 -1.1478 -1.7531  1.6059
   73CHL1    C1 7852   5.413   0.819   7.409  0.3078 -0.3939 -0.1884
   73CHL1   H1A 7853   5.366   0.721   7.430 -0.0567  0.0003  0.9358
   73CHL1   H1B 7854   5.347   0.892   7.461  0.7348 -0.2263  0.1201
   73CHL1    C2 7855   5.410   0.862   7.262 -0.3063 -0.2895  0.0148
   73CHL1   H2A 7856   5.307   0.856   7.222 -0.8502  3.5407  0.4500
   73CHL1   H2B 7857   5.473   0.787   7.209 -3.2702 -1.8220 -1.5732
   73CHL1   C20 7858   5.666   0.588   8.155  0.1301 -0.2766 -0.0139
   73CHL1   H20 7859   5.774   0.561   8.153 -0.0443 -1.0085 -1.9575
   73CHL1   C21 7860   5.587   0.463   8.127 -0.3427 -0.2422 -0.0423
   73CHL1  H21A 7861   5.573   0.408   8.223  1.2014 -0.7105 -0.0523
   73CHL1  H21B 7862   5.646   0.404   8.053 -1.6801 -2.5702  0.6365
   73CHL1  H21C 7863   5.495   0.503   8.080 -0.7170  0.1098  0.9574
   73CHL1   C22 7864   5.648   0.616   8.303 -0.2413  0.4315 -0.6744
   73CHL1  H22A 7865   5.676   0.715   8.344  0.3364 -0.3275  0.8459
   73CHL1  H22B 7866   5.539   0.609   8.318  0.0230  0.6329  1.7038
   73CHL1   C23 7867   5.735   0.520   8.398  0.4940  0.1423 -0.5894
   73CHL1  H23A 7868   5.730   0.415   8.362  0.4581 -0.7544  1.8134
   73CHL1  H23B 7869   5.844   0.541   8.396  0.7173 -0.7613  0.7745
   73CHL1   C24 7870   5.686   0.532   8.544  0.2323  0.4165 -0.1690
   73CHL1  H24A 7871   5.715   0.637   8.569 -0.1163  1.0188 -2.1265
   73CHL1  H24B 7872   5.576   0.522   8.554  0.2415 -0.0731 -0.5640
   73CHL1   C25 7873   5.761   0.432   8.630  0.2062 -0.6404 -0.2455
   73CHL1   H25 7874   5.868   0.462   8.628 -0.1283  1.0696  2.3255
   73CHL1   C26 7875   5.719   0.450   8.776  0.0774  0.6946  0.1589
   73CHL1  H26A 7876   5.713   0.558   8.802 -1.5302  0.8427 -0.6958
   73CHL1  H26B 7877   5.617   0.408   8.784 -0.0393  0.6420 -1.3078
   73CHL1  H26C 7878   5.787   0.402   8.850 -1.2916  1.6494  2.1395
   73CHL1   C27 7879   5.744   0.281   8.583 -0.1483 -0.6747  0.1063
   73CHL1  H27A 7880   5.636   0.261   8.566 -0.5155  0.7806  0.5811
   73CHL1  H27B 7881   5.802   0.261   8.491  0.1506 -2.2830  0.6148
   73CHL1  H27C 7882   5.783   0.204   8.653  2.1488 -0.8503 -1.2552
   74CHL1    C3 7883   4.228   0.338   7.166 -0.1713  0.2534  0.4130
   74CHL1    H3 7884   4.124   0.329   7.204  0.1804 -0.3814  1.2510
   74CHL1    O3 7885   4.227   0.323   7.024 -0.0551 -0.3818  0.1621
   74CHL1   H3' 7886   4.321   0.311   7.011  0.2493  0.7405  1.1226
   74CHL1    C4 7887   4.281   0.484   7.193 -1.0778 -0.4783 -0.4013
   74CHL1   H4A 7888   4.378   0.497   7.141 -1.9511 -1.5054 -2.3930
   74CHL1   H4B 7889   4.220   0.558   7.136  1.3712 -0.1223 -2.7268
   74CHL1    C5 7890   4.290   0.517   7.340 -0.0199  0.9463  0.5145
   74CHL1    C6 7891   4.225   0.624   7.395 -0.4546  0.3808  0.0670
   74CHL1    H6 7892   4.173   0.693   7.327 -0.7995  0.6214  0.5759
   74CHL1    C7 7893   4.249   0.658   7.538  0.6628  0.1483  0.4791
   74CHL1   H7A 7894   4.268   0.766   7.556 -0.6813  0.4099  0.4123
   74CHL1   H7B 7895   4.158   0.626   7.593  0.6245 -2.2355 -0.8238
   74CHL1    C8 7896   4.364   0.574   7.606 -0.2990 -0.3776 -0.3718
   74CHL1    H8 7897   4.462   0.617   7.576 -0.6703 -0.1092 -1.2167
   74CHL1   C14 7898   4.357   0.588   7.754 -0.2515 -0.5359 -0.2394
   74CHL1   H14 7899   4.272   0.526   7.790  0.9157 -0.5944  2.6889
   74CHL1   C15 7900   4.329   0.728   7.809 -0.2475 -0.3397  0.0509
   74CHL1  H15A 7901   4.399   0.804   7.770 -2.2416  1.1783 -0.7441
   74CHL1  H15B 7902   4.223   0.750   7.784  0.1481  2.9071  0.7995
   74CHL1   C16 7903   4.351   0.706   7.960  0.1643 -0.1868  0.2382
   74CHL1  H16A 7904   4.408   0.791   8.004 -0.2770 -0.7497  1.9982
   74CHL1  H16B 7905   4.252   0.706   8.012  0.2009  0.6262  0.3305
   74CHL1   C17 7906   4.429   0.570   7.979 -0.0997  0.6779 -0.4417
   74CHL1   H17 7907   4.355   0.494   8.013  0.2501  1.1360  1.4441
   74CHL1   C13 7908   4.474   0.530   7.837  0.3444 -0.0357  0.0846
   74CHL1   C18 7909   4.609   0.586   7.803 -0.2821  0.8749 -0.4757
   74CHL1  H18A 7910   4.633   0.559   7.698 -1.1071  1.2873 -0.7817
   74CHL1  H18B 7911   4.616   0.695   7.821 -0.1585  0.9324 -0.8609
   74CHL1  H18C 7912   4.696   0.546   7.859  0.2944  2.4298 -0.2100
   74CHL1   C12 7913   4.460   0.379   7.798 -0.1735  0.5538 -0.2554
   74CHL1  H12A 7914   4.548   0.329   7.845  0.6280 -0.8043 -3.0028
   74CHL1  H12B 7915   4.368   0.342   7.849 -0.3981 -0.8421 -1.5929
   74CHL1   C11 7916   4.458   0.353   7.649  0.1073 -0.0083 -0.2339
   74CHL1  H11A 7917   4.562   0.365   7.611 -0.5533 -1.0729 -2.6265
   74CHL1  H11B 7918   4.434   0.245   7.635  1.7125 -0.3344 -0.7366
   74CHL1    C9 7919   4.362   0.432   7.567 -0.0418 -0.0245 -0.6589
   74CHL1    H9 7920   4.260   0.401   7.597  0.6112 -3.4193 -1.5688
   74CHL1   C10 7921   4.377   0.406   7.412  0.1479 -0.5787 -0.4647
   74CHL1   C19 7922   4.529   0.421   7.370 -0.5059  0.6828 -0.4425
   74CHL1  H19A 7923   4.539   0.403   7.261 -2.3357 -4.1300 -0.0485
   74CHL1  H19B 7924   4.558   0.524   7.400 -0.9051  0.2531  1.5947
   74CHL1  H19C 7925   4.592   0.343   7.418  0.7045  1.1943 -1.1658
   74CHL1    C1 7926   4.343   0.258   7.381 -0.7831  0.0976 -0.4412
   74CHL1   H1A 7927   4.424   0.195   7.425  0.8502  2.0076 -0.5515
   74CHL1   H1B 7928   4.248   0.222   7.425  1.6816 -2.7514  3.2223
   74CHL1    C2 7929   4.328   0.241   7.224  1.3781  0.1869 -0.4387
   74CHL1   H2A 7930   4.303   0.136   7.199 -0.6669  0.0091  1.9876
   74CHL1   H2B 7931   4.428   0.263   7.181  1.3628  2.1986  0.4340
   74CHL1   C20 7932   4.545   0.571   8.084 -0.7359 -0.3206 -0.5336
   74CHL1   H20 7933   4.624   0.640   8.046  1.5101 -2.9862 -1.0387
   74CHL1   C21 7934   4.609   0.433   8.089 -0.0138 -0.0127 -0.8472
   74CHL1  H21A 7935   4.691   0.414   8.161  0.7798 -3.7563 -2.4804
   74CHL1  H21B 7936   4.670   0.413   7.999  2.1916  0.9198  0.3698
   74CHL1  H21C 7937   4.534   0.355   8.115 -0.0810  0.4094  0.2827
   74CHL1   C22 7938   4.495   0.626   8.226  0.4884  0.7767  0.4439
   74CHL1  H22A 7939   4.583   0.620   8.294 -0.0150  0.1419  1.0524
   74CHL1  H22B 7940   4.457   0.729   8.208 -2.8256  0.0085  2.2231
   74CHL1   C23 7941   4.382   0.543   8.292 -0.6939 -0.1092 -0.6119
   74CHL1  H23A 7942   4.289   0.563   8.233 -0.1630 -4.2894 -3.2665
   74CHL1  H23B 7943   4.398   0.434   8.300  0.6076  0.0302 -1.1335
   74CHL1   C24 7944   4.363   0.597   8.436  0.0034  0.7052 -0.3382
   74CHL1  H24A 7945   4.457   0.594   8.495 -0.3934 -1.1967  0.2915
   74CHL1  H24B 7946   4.338   0.705   8.431  0.5987  0.7834 -1.8973
   74CHL1   C25 7947   4.240   0.539   8.514 -0.4209  0.5726 -0.3559
   74CHL1   H25 7948   4.150   0.564   8.454  0.1360 -2.0136 -2.4512
   74CHL1   C26 7949   4.236   0.386   8.513 -0.5276  0.6447  0.3709
   74CHL1  H26A 7950   4.178   0.356   8.423 -0.2187  1.0072  0.0453
   74CHL1  H26B 7951   4.333   0.335   8.530 -0.2835  1.5761  1.9984
   74CHL1  H26C 7952   4.175   0.349   8.598 -2.5589 -0.6743 -1.5362
   74CHL1   C27 7953   4.230   0.590   8.661 -0.3729 -0.8951  0.4070
   74CHL1  H27A 7954   4.138   0.544   8.703 -2.2686  3.4258  1.5199
   74CHL1  H27B 7955   4.319   0.567   8.724  0.9694 -1.8790 -1.7380
   74CHL1  H27C 7956   4.216   0.700   8.664  0.4215 -0.7745 -0.0982
   75CHL1    C3 7957   0.438   1.751   6.951 -0.2242  0.2486 -0.1446
   75CHL1    H3 7958   0.398   1.650   6.971  2.0711 -0.4029  1.5805
   75CHL1    O3 7959   0.397   1.778   6.814 -0.3955 -0.1700 -0.1129
   75CHL1   H3' 7960   0.301   1.783   6.815 -0.3316  2.9077 -0.1875
   75CHL1    C4 7961   0.376   1.848   7.044  0.6177 -0.1378  0.1379
   75CHL1   H4A 7962   0.396   1.950   7.005  2.5008 -0.4242  0.2583
   75CHL1   H4B 7963   0.266   1.835   7.039  0.3873  0.3620  2.4732
   75CHL1    C5 7964   0.421   1.827   7.190 -0.4415 -0.4620  0.7426
   75CHL1    C6 7965   0.331   1.794   7.283  0.0206  0.6586  0.3805
   75CHL1    H6 7966   0.223   1.791   7.263  0.1983  0.8374 -0.6374
   75CHL1    C7 7967   0.365   1.794   7.428 -0.2238  0.5789 -1.1704
   75CHL1   H7A 7968   0.296   1.858   7.487  1.3386  1.8707 -0.6591
   75CHL1   H7B 7969   0.362   1.695   7.480 -2.9257  1.5751  0.8011
   75CHL1    C8 7970   0.504   1.860   7.453  0.0697  0.7268 -0.0522
   75CHL1    H8 7971   0.492   1.970   7.443 -1.0202  0.6025 -0.2920
   75CHL1   C14 7972   0.563   1.823   7.596 -0.6274 -0.0709 -0.3857
   75CHL1   H14 7973   0.567   1.713   7.605  2.2892 -0.2645 -2.6548
   75CHL1   C15 7974   0.479   1.875   7.717  0.7308  0.0483 -0.1082
   75CHL1  H15A 7975   0.456   1.982   7.699  2.0138 -0.1541 -3.7839
   75CHL1  H15B 7976   0.378   1.833   7.737  0.7627  0.6968  1.5442
   75CHL1   C16 7977   0.582   1.864   7.828  0.4475 -0.5835  0.0681
   75CHL1  H16A 7978   0.578   1.956   7.891  2.1762 -0.2485 -0.2514
   75CHL1  H16B 7979   0.570   1.773   7.890  0.4560 -1.6946 -1.5104
   75CHL1   C17 7980   0.724   1.855   7.775 -0.4787 -0.0486  0.5343
   75CHL1   H17 7981   0.761   1.750   7.774  0.8356  0.3751 -1.4095
   75CHL1   C13 7982   0.712   1.880   7.620 -0.0871  0.2049 -0.3961
   75CHL1   C18 7983   0.710   2.035   7.585  0.0697 -0.0338 -0.3282
   75CHL1  H18A 7984   0.634   2.104   7.629 -0.7518 -1.3655  0.4091
   75CHL1  H18B 7985   0.812   2.063   7.619 -0.3824  0.5976  0.5585
   75CHL1  H18C 7986   0.704   2.049   7.475  1.2634 -0.9432 -0.5258
   75CHL1   C12 7987   0.798   1.804   7.519 -0.3737 -0.1339  0.9061
   75CHL1  H12A 7988   0.905   1.829   7.535 -0.2526 -1.3246  2.1914
   75CHL1  H12B 7989   0.778   1.696   7.538  0.2241 -0.0796  1.8823
   75CHL1   C11 7990   0.756   1.812   7.376  0.0868  0.2054  0.5195
   75CHL1  H11A 7991   0.801   1.910   7.347  1.2807 -0.1325  1.1486
   75CHL1  H11B 7992   0.811   1.738   7.314  3.2017  1.0520  2.0690
   75CHL1    C9 7993   0.605   1.804   7.347 -0.3639  0.3112  0.2167
   75CHL1    H9 7994   0.595   1.694   7.355  1.9716  0.1323  1.6521
   75CHL1   C10 7995   0.571   1.856   7.203  0.6328 -0.1848 -0.6454
   75CHL1   C19 7996   0.623   1.995   7.185 -0.7290  0.1834  0.2692
   75CHL1  H19A 7997   0.613   2.045   7.086  0.4529 -0.3895 -0.1569
   75CHL1  H19B 7998   0.573   2.059   7.261 -0.4296 -1.8227  2.2599
   75CHL1  H19C 7999   0.733   2.003   7.197 -0.5444  0.0131 -1.1268
   75CHL1    C1 8000   0.647   1.761   7.107 -0.6622 -0.4522 -0.2426
   75CHL1   H1A 8001   0.755   1.785   7.107 -0.5225 -1.0541 -0.5531
   75CHL1   H1B 8002   0.644   1.656   7.144  0.6376  0.4247  2.5933
   75CHL1    C2 8003   0.593   1.759   6.967 -0.7664 -0.2908  0.3996
   75CHL1   H2A 8004   0.633   1.674   6.908 -2.5465 -1.9471  1.4444
   75CHL1   H2B 8005   0.631   1.846   6.909 -1.4230 -0.5168 -0.3891
   75CHL1   C20 8006   0.823   1.941   7.860  0.1369 -0.1264  0.1726
   75CHL1   H20 8007   0.792   2.048   7.858  0.6161  0.0349  1.1243
   75CHL1   C21 8008   0.966   1.943   7.805  0.0357 -0.4604 -0.0238
   75CHL1  H21A 8009   0.986   1.836   7.781 -1.3348 -0.4868 -1.1813
   75CHL1  H21B 8010   1.034   1.974   7.887  0.5691  0.3622 -0.7672
   75CHL1  H21C 8011   0.984   1.997   7.710 -0.2711 -1.9753 -0.9777
   75CHL1   C22 8012   0.832   1.898   8.005 -0.8121 -0.8733 -0.5834
   75CHL1  H22A 8013   0.738   1.857   8.049 -0.0724 -0.7710  1.1639
   75CHL1  H22B 8014   0.913   1.825   8.022 -0.6877 -0.5041  0.5328
   75CHL1   C23 8015   0.862   2.022   8.098 -1.1278 -0.3448 -0.1932
   75CHL1  H23A 8016   0.960   2.064   8.070 -1.2980 -0.4732 -1.0069
   75CHL1  H23B 8017   0.786   2.102   8.082 -1.1834 -0.0220  1.5181
   75CHL1   C24 8018   0.858   1.979   8.246 -0.1665 -0.5461 -0.0505
   75CHL1  H24A 8019   0.749   1.963   8.262 -0.7868 -0.7478 -3.6459
   75CHL1  H24B 8020   0.909   1.882   8.263 -1.4826 -1.2514  0.0014
   75CHL1   C25 8021   0.912   2.091   8.338 -0.1245  0.4625 -0.3307
   75CHL1   H25 8022   1.008   2.131   8.297  0.3430  1.4580  1.6309
   75CHL1   C26 8023   0.816   2.216   8.340  0.3924  0.3440 -0.0480
   75CHL1  H26A 8024   0.860   2.294   8.406 -2.6742  3.4681 -1.3571
   75CHL1  H26B 8025   0.808   2.269   8.242  0.9853  0.6357  0.0586
   75CHL1  H26C 8026   0.714   2.197   8.380  0.0374 -0.0679 -1.1125
   75CHL1   C27 8027   0.942   2.030   8.480 -0.1481 -0.7827 -0.9873
   75CHL1  H27A 8028   0.999   1.935   8.486  1.4690  0.2635  1.7112
   75CHL1  H27B 8029   1.002   2.110   8.528 -2.2245 -0.0199  0.5194
   75CHL1  H27C 8030   0.845   2.022   8.534  0.7175 -1.8146  0.4909
   76CHL1    C3 8031   5.105   4.290   7.493  0.4491  0.0792 -0.6849
   76CHL1    H3 8032   5.042   4.378   7.464  1.2933  1.4919  1.4539
   76CHL1    O3 8033   5.166   4.247   7.376 -0.0627  0.0384 -0.6813
   76CHL1   H3' 8034   5.228   4.179   7.405 -0.0063 -0.2867 -1.5465
   76CHL1    C4 8035   5.205   4.341   7.596 -0.1354  0.3107 -0.2138
   76CHL1   H4A 8036   5.270   4.254   7.619 -1.4214 -0.3828  0.9522
   76CHL1   H4B 8037   5.259   4.422   7.542 -1.1498  0.5995 -0.8305
   76CHL1    C5 8038   5.144   4.389   7.722  0.1571 -0.5147 -0.2142
   76CHL1    C6 8039   5.170   4.509   7.766  1.0191  0.1752 -0.6916
   76CHL1    H6 8040   5.239   4.573   7.707  0.7170  0.6863 -0.4988
   76CHL1    C7 8041   5.128   4.562   7.902 -0.4927 -0.3263 -0.4323
   76CHL1   H7A 8042   5.220   4.590   7.959 -0.2449 -0.4608 -0.7611
   76CHL1   H7B 8043   5.056   4.645   7.887  0.1645  0.5588  1.0180
   76CHL1    C8 8044   5.074   4.448   7.989 -0.7112  0.0090  0.8846
   76CHL1    H8 8045   5.151   4.378   8.026 -0.2259 -1.1719 -2.0703
   76CHL1   C14 8046   5.005   4.516   8.099  0.3012 -0.4591  0.0643
   76CHL1   H14 8047   4.921   4.571   8.052 -0.6656 -1.3839  0.6471
   76CHL1   C15 8048   5.081   4.620   8.180 -0.6691 -0.2914  0.3085
   76CHL1  H15A 8049   5.179   4.580   8.213 -1.2743 -0.9494  1.3907
   76CHL1  H15B 8050   5.099   4.719   8.134  2.4726  0.2272  2.3571
   76CHL1   C16 8051   4.993   4.632   8.308  0.7085 -0.1749 -0.5599
   76CHL1  H16A 8052   5.056   4.584   8.386 -1.2100 -1.9534  0.0159
   76CHL1  H16B 8053   4.970   4.735   8.342  0.1098  0.2269 -2.1000
   76CHL1   C17 8054   4.867   4.534   8.288 -1.3903  0.1358 -0.1086
   76CHL1   H17 8055   4.782   4.582   8.235 -0.6656 -0.7761 -2.1812
   76CHL1   C13 8056   4.925   4.423   8.194  0.0587 -0.1339 -0.5981
   76CHL1   C18 8057   5.019   4.329   8.268  0.3847 -1.1079 -0.3497
   76CHL1  H18A 8058   5.086   4.384   8.337 -1.9608  0.7672  0.5894
   76CHL1  H18B 8059   4.953   4.257   8.320 -1.4227 -0.3215 -1.4222
   76CHL1  H18C 8060   5.087   4.282   8.194  0.8437 -0.1993 -0.5215
   76CHL1   C12 8061   4.822   4.344   8.109 -0.0451  0.7576  0.6009
   76CHL1  H12A 8062   4.763   4.278   8.177 -1.7375  1.7150  0.1174
   76CHL1  H12B 8063   4.758   4.416   8.054 -0.3023  0.8506  1.0123
   76CHL1   C11 8064   4.891   4.259   7.998  0.0459 -0.3131  0.1817
   76CHL1  H11A 8065   4.945   4.175   8.045 -1.3361 -3.2350 -3.0151
   76CHL1  H11B 8066   4.816   4.206   7.936 -0.2113 -1.5863  1.5351
   76CHL1    C9 8067   4.976   4.359   7.906 -0.3204 -0.1248 -0.2803
   76CHL1    H9 8068   4.896   4.423   7.864  0.2550 -0.4163 -1.8555
   76CHL1   C10 8069   5.048   4.289   7.789  0.9370 -0.6294 -0.2255
   76CHL1   C19 8070   5.131   4.168   7.840  0.4842  0.0432 -0.0730
   76CHL1  H19A 8071   5.218   4.199   7.901  1.0476  1.4128 -1.5038
   76CHL1  H19B 8072   5.066   4.097   7.896  1.6386  0.0256  1.3007
   76CHL1  H19C 8073   5.165   4.100   7.758  2.6223 -1.4321  1.9322
   76CHL1    C1 8074   4.946   4.241   7.677 -0.5048 -0.6595  0.0251
   76CHL1   H1A 8075   4.878   4.161   7.714 -2.1758  0.0975 -1.2556
   76CHL1   H1B 8076   4.878   4.323   7.645 -0.4530 -0.9287 -0.7876
   76CHL1    C2 8077   5.004   4.186   7.550 -0.2300 -0.3574 -0.3914
   76CHL1   H2A 8078   4.929   4.155   7.474 -1.4969  2.1380 -0.2677
   76CHL1   H2B 8079   5.066   4.098   7.576  2.2461  1.3629 -0.0825
   76CHL1   C20 8080   4.815   4.495   8.423  0.3579 -0.0236  0.0896
   76CHL1   H20 8081   4.888   4.441   8.487 -2.8787 -2.2234  2.2297
   76CHL1   C21 8082   4.694   4.408   8.403  0.0639 -0.0173 -0.5363
   76CHL1  H21A 8083   4.619   4.444   8.329 -1.7143  2.6022  2.2697
   76CHL1  H21B 8084   4.632   4.407   8.496  2.6953  2.5677  1.4253
   76CHL1  H21C 8085   4.736   4.307   8.382  0.2599 -0.0690  0.0970
   76CHL1   C22 8086   4.772   4.628   8.502 -0.0995 -0.8008  0.2488
   76CHL1  H22A 8087   4.821   4.724   8.478 -2.0600  0.4193  0.8913
   76CHL1  H22B 8088   4.664   4.646   8.481  0.6087 -0.1205 -3.7018
   76CHL1   C23 8089   4.800   4.603   8.648  0.0799 -0.1761 -0.9089
   76CHL1  H23A 8090   4.771   4.496   8.661  0.6794 -0.2039  0.3930
   76CHL1  H23B 8091   4.908   4.619   8.669 -0.1275  0.4090 -0.2545
   76CHL1   C24 8092   4.714   4.694   8.745 -0.1064 -0.0584  0.0221
   76CHL1  H24A 8093   4.749   4.797   8.724  0.9715 -0.5208 -0.5419
   76CHL1  H24B 8094   4.607   4.701   8.717  0.5362  0.5129 -2.5998
   76CHL1   C25 8095   4.741   4.659   8.897  0.3133  0.9500 -0.0249
   76CHL1   H25 8096   4.851   4.671   8.909  0.4305 -0.2858  0.2579
   76CHL1   C26 8097   4.659   4.755   8.979  0.3950  0.1247 -0.4497
   76CHL1  H26A 8098   4.553   4.728   8.956  0.6612 -1.0556 -0.3829
   76CHL1  H26B 8099   4.683   4.743   9.087  0.8761  2.7921 -0.2019
   76CHL1  H26C 8100   4.670   4.860   8.946  1.4706 -0.2165 -1.2358
   76CHL1   C27 8101   4.716   4.505   8.928  0.2035  0.0670  0.1753
   76CHL1  H27A 8102   4.760   4.498   9.030 -0.2625  0.8808  0.4427
   76CHL1  H27B 8103   4.608   4.480   8.934  0.9219 -3.1641  2.2894
   76CHL1  H27C 8104   4.776   4.442   8.859 -0.6604  0.4254 -0.9339
   77CHL1    C3 8105   5.260   2.706   6.913  0.2993  0.5120  0.8377
   77CHL1    H3 8106   5.358   2.748   6.884 -0.1711 -0.6934 -3.1472
   77CHL1    O3 8107   5.180   2.706   6.796  0.1535 -0.2683  0.3358
   77CHL1   H3' 8108   5.092   2.682   6.825  0.4798 -0.8695  0.8627
   77CHL1    C4 8109   5.274   2.559   6.959 -0.4811  0.3629  0.5060
   77CHL1   H4A 8110   5.177   2.505   6.967 -0.4185  0.0812 -0.4649
   77CHL1   H4B 8111   5.321   2.489   6.887 -3.0280 -1.8040  0.8012
   77CHL1    C5 8112   5.341   2.553   7.097  0.4872 -0.0680  0.0534
   77CHL1    C6 8113   5.443   2.477   7.122 -0.6463  0.0439  0.1655
   77CHL1    H6 8114   5.486   2.421   7.038  1.2946  1.4933  0.1138
   77CHL1    C7 8115   5.495   2.448   7.258  0.1167 -0.3279 -0.4785
   77CHL1   H7A 8116   5.518   2.339   7.257  0.0768 -0.3939  1.5986
   77CHL1   H7B 8117   5.593   2.500   7.263 -0.8038  1.3556  1.5099
   77CHL1    C8 8118   5.397   2.494   7.366  0.1607 -0.1973 -0.6675
   77CHL1    H8 8119   5.310   2.425   7.371  0.1269 -0.0754  0.8805
   77CHL1   C14 8120   5.469   2.492   7.501  0.4516 -0.0180 -0.4478
   77CHL1   H14 8121   5.560   2.552   7.480  1.2486 -1.0030  0.0872
   77CHL1   C15 8122   5.522   2.359   7.561 -0.8376 -0.9055  0.0477
   77CHL1  H15A 8123   5.450   2.274   7.556  2.4420 -4.0633  1.7538
   77CHL1  H15B 8124   5.615   2.335   7.505 -0.0293  2.5927 -0.3307
   77CHL1   C16 8125   5.551   2.389   7.715  0.3219  0.5231  0.5349
   77CHL1  H16A 8126   5.511   2.309   7.780  3.3023 -0.3380  1.4593
   77CHL1  H16B 8127   5.658   2.401   7.741 -0.0247  0.3458  2.1537
   77CHL1   C17 8128   5.489   2.528   7.736 -0.2068 -1.0200  0.0754
   77CHL1   H17 8129   5.568   2.605   7.727 -1.1988  0.1652  1.1081
   77CHL1   C13 8130   5.394   2.553   7.616  0.1857  0.1267  0.2886
   77CHL1   C18 8131   5.263   2.481   7.651 -0.2166 -0.0309  0.3252
   77CHL1  H18A 8132   5.197   2.557   7.698 -1.4501 -0.2087 -1.0465
   77CHL1  H18B 8133   5.207   2.448   7.560  0.2291 -0.0076  0.0349
   77CHL1  H18C 8134   5.268   2.390   7.713  0.1083 -0.0876  0.2196
   77CHL1   C12 8135   5.356   2.708   7.584  0.9013  0.1703 -0.7992
   77CHL1  H12A 8136   5.287   2.754   7.657  1.1736 -0.0173 -0.4171
   77CHL1  H12B 8137   5.451   2.765   7.592  1.1623 -0.5596  2.6548
   77CHL1   C11 8138   5.275   2.713   7.452 -0.4347 -0.0168 -0.0797
   77CHL1  H11A 8139   5.175   2.667   7.468 -1.7754  2.3602 -1.0639
   77CHL1  H11B 8140   5.251   2.818   7.426  2.4266  0.2589 -2.0166
   77CHL1    C9 8141   5.353   2.640   7.335  0.1860  0.7241 -0.0297
   77CHL1    H9 8142   5.441   2.705   7.310 -0.8759  1.7939 -1.1899
   77CHL1   C10 8143   5.271   2.636   7.202  0.1710 -0.0044  0.5693
   77CHL1   C19 8144   5.119   2.590   7.235 -0.0307  0.4018 -0.0971
   77CHL1  H19A 8145   5.062   2.678   7.270  0.8446  0.8908  0.1223
   77CHL1  H19B 8146   5.068   2.565   7.139 -0.4794 -1.1690  0.5171
   77CHL1  H19C 8147   5.115   2.506   7.307 -0.6774  0.9964  0.5705
   77CHL1    C1 8148   5.259   2.785   7.153  0.2655 -0.4726  0.4011
   77CHL1   H1A 8149   5.208   2.854   7.223 -1.2348  0.5956 -1.6304
   77CHL1   H1B 8150   5.361   2.823   7.132 -0.9360  2.0389 -1.5139
   77CHL1    C2 8151   5.187   2.794   7.015 -0.7734  0.5022  0.2191
   77CHL1   H2A 8152   5.187   2.902   6.989  2.7297  1.3408  2.8592
   77CHL1   H2B 8153   5.085   2.750   7.018 -0.4320 -0.5591 -1.7258
   77CHL1   C20 8154   5.436   2.538   7.885 -0.0610 -0.5086  0.0570
   77CHL1   H20 8155   5.342   2.478   7.888  0.2264 -0.9252  2.3028
   77CHL1   C21 8156   5.388   2.680   7.917 -0.3848  0.0134  0.1925
   77CHL1  H21A 8157   5.369   2.694   8.026  1.9936  1.5390  0.4851
   77CHL1  H21B 8158   5.290   2.705   7.870 -1.9736 -2.6657  1.8385
   77CHL1  H21C 8159   5.458   2.765   7.899 -0.3819  0.0648  0.4395
   77CHL1   C22 8160   5.531   2.490   7.996  0.1486 -0.3839 -0.2825
   77CHL1  H22A 8161   5.561   2.388   7.966 -1.4381 -0.2732 -2.4655
   77CHL1  H22B 8162   5.628   2.545   7.997  0.8582 -1.4166 -3.5693
   77CHL1   C23 8163   5.475   2.475   8.134 -0.0511 -0.0386 -0.3176
   77CHL1  H23A 8164   5.409   2.559   8.163  0.6580  0.6188 -0.5822
   77CHL1  H23B 8165   5.408   2.386   8.136  0.0080 -0.0749  0.1590
   77CHL1   C24 8166   5.586   2.461   8.240  0.0726 -0.0466 -0.1804
   77CHL1  H24A 8167   5.627   2.358   8.236 -0.7019 -0.4007  0.6415
   77CHL1  H24B 8168   5.675   2.520   8.209  0.7177 -1.2636 -0.6746
   77CHL1   C25 8169   5.538   2.491   8.387  0.2273 -0.5169 -0.1229
   77CHL1   H25 8170   5.447   2.433   8.415  0.6358 -0.9898  0.2392
   77CHL1   C26 8171   5.636   2.439   8.486  0.2476  0.2124  0.7409
   77CHL1  H26A 8172   5.641   2.328   8.481 -1.3215  0.1514 -0.1317
   77CHL1  H26B 8173   5.734   2.482   8.458  0.3518 -0.1439  0.5462
   77CHL1  H26C 8174   5.608   2.481   8.585  0.1538  1.1592  0.3234
   77CHL1   C27 8175   5.516   2.635   8.418  0.5440 -0.6032  0.7279
   77CHL1  H27A 8176   5.495   2.658   8.524 -2.2050  0.5555  0.0191
   77CHL1  H27B 8177   5.602   2.704   8.403 -1.3539  1.9941  1.1965
   77CHL1  H27C 8178   5.429   2.683   8.368 -0.7560 -2.1143  1.4365
   78CHL1    C3 8179   1.152   6.143   6.841  0.1764 -0.2694 -0.1682
   78CHL1    H3 8180   1.256   6.108   6.828  0.3803 -0.0609  0.8025
   78CHL1    O3 8181   1.103   6.169   6.714 -0.4560 -0.3248 -0.2872
   78CHL1   H3' 8182   1.035   6.236   6.723 -1.5044 -0.8750 -3.1249
   78CHL1    C4 8183   1.073   6.019   6.888  0.3686  0.1743 -0.7262
   78CHL1   H4A 8184   0.964   6.037   6.891  0.1998 -0.8673  0.9863
   78CHL1   H4B 8185   1.093   5.936   6.817  0.6018  0.8932 -1.5279
   78CHL1    C5 8186   1.106   5.982   7.035  0.3101 -0.1549 -0.5537
   78CHL1    C6 8187   1.148   5.857   7.077 -0.0531  0.1494 -0.1381
   78CHL1    H6 8188   1.149   5.773   7.006  1.5963  1.0557 -1.2412
   78CHL1    C7 8189   1.173   5.823   7.223  0.2983  0.2273  0.5580
   78CHL1   H7A 8190   1.140   5.718   7.235 -0.6798  0.4175 -0.3012
   78CHL1   H7B 8191   1.284   5.813   7.228  0.6528  0.3207 -3.4864
   78CHL1    C8 8192   1.116   5.932   7.321 -0.2147 -0.6167  0.7381
   78CHL1    H8 8193   1.005   5.922   7.318 -0.2667  0.0743  0.3358
   78CHL1   C14 8194   1.188   5.906   7.455 -0.3897  0.7447 -0.7834
   78CHL1   H14 8195   1.297   5.917   7.437  0.3052 -2.5041  0.6836
   78CHL1   C15 8196   1.153   5.767   7.529 -0.0513  0.0990 -0.1188
   78CHL1  H15A 8197   1.051   5.730   7.501  1.1226 -2.5777 -1.1924
   78CHL1  H15B 8198   1.220   5.686   7.494  0.0556 -0.4516  1.3009
   78CHL1   C16 8199   1.162   5.793   7.677  0.0367 -0.0381  0.3383
   78CHL1  H16A 8200   1.056   5.788   7.710  0.5153  1.1878  2.1389
   78CHL1  H16B 8201   1.216   5.709   7.727 -2.0396 -2.1707 -0.7740
   78CHL1   C17 8202   1.210   5.938   7.693 -0.4011 -0.3187  0.0531
   78CHL1   H17 8203   1.319   5.921   7.683 -0.5387 -1.1501 -0.0946
   78CHL1   C13 8204   1.156   6.007   7.569  0.5652 -0.4390  0.5804
   78CHL1   C18 8205   1.004   6.014   7.581  0.0459 -0.2532 -0.1176
   78CHL1  H18A 8206   0.956   6.040   7.484 -2.0541 -2.7475  0.1506
   78CHL1  H18B 8207   0.949   5.922   7.611  0.8737 -1.1536 -1.2543
   78CHL1  H18C 8208   0.975   6.098   7.648 -1.1933  0.0864 -1.0333
   78CHL1   C12 8209   1.204   6.143   7.521  0.2141 -0.1590  0.8649
   78CHL1  H12A 8210   1.169   6.220   7.594 -3.1220  0.0229 -0.7412
   78CHL1  H12B 8211   1.315   6.143   7.512  0.0953 -2.4859 -2.4847
   78CHL1   C11 8212   1.153   6.181   7.379 -0.0716  0.0495 -0.8750
   78CHL1  H11A 8213   1.051   6.214   7.405 -0.8065 -2.0088 -0.9698
   78CHL1  H11B 8214   1.211   6.270   7.345  1.1084 -1.0565 -1.8857
   78CHL1    C9 8215   1.161   6.071   7.279  0.3148 -0.4522  1.1687
   78CHL1    H9 8216   1.271   6.063   7.271  0.1517 -1.0682 -2.1781
   78CHL1   C10 8217   1.102   6.106   7.134  0.5608 -0.6555  0.8028
   78CHL1   C19 8218   0.955   6.147   7.155 -0.2563  0.0827 -0.4077
   78CHL1  H19A 8219   0.956   6.230   7.228  2.8454  0.3192 -0.5521
   78CHL1  H19B 8220   0.903   6.174   7.061  1.0520  1.9245 -0.6681
   78CHL1  H19C 8221   0.891   6.062   7.185  1.1921 -1.6915 -2.0396
   78CHL1    C1 8222   1.182   6.232   7.080 -0.7024 -0.7068 -0.0154
   78CHL1   H1A 8223   1.182   6.320   7.147  0.1929 -1.4794  1.0528
   78CHL1   H1B 8224   1.287   6.196   7.068 -0.4982  0.4696 -2.1740
   78CHL1    C2 8225   1.136   6.267   6.934  0.4596  0.0427  0.7071
   78CHL1   H2A 8226   1.209   6.343   6.898  1.0729  0.1731  2.1420
   78CHL1   H2B 8227   1.036   6.315   6.929  0.8778  0.9627  0.9454
   78CHL1   C20 8228   1.189   6.007   7.825 -0.0164  0.2668 -0.5935
   78CHL1   H20 8229   1.084   6.043   7.837 -0.8517 -1.9033 -0.8013
   78CHL1   C21 8230   1.289   6.124   7.855 -0.1132 -0.1656  0.5801
   78CHL1  H21A 8231   1.256   6.227   7.828 -1.7376 -1.1383 -1.4439
   78CHL1  H21B 8232   1.387   6.100   7.809 -0.2806 -0.4131  0.3486
   78CHL1  H21C 8233   1.303   6.131   7.965  0.0875  1.1836  0.4858
   78CHL1   C22 8234   1.208   5.901   7.943 -0.2542 -0.0571 -0.3227
   78CHL1  H22A 8235   1.175   5.954   8.035 -0.9519 -2.3876  0.8564
   78CHL1  H22B 8236   1.132   5.822   7.926 -1.9356  1.8011 -1.8883
   78CHL1   C23 8237   1.353   5.849   7.965  0.7746  0.1789 -0.4254
   78CHL1  H23A 8238   1.381   5.766   7.897 -2.3975 -0.4534 -1.1118
   78CHL1  H23B 8239   1.427   5.929   7.947 -0.2818  0.9033 -1.7443
   78CHL1   C24 8240   1.364   5.780   8.102 -0.0418  0.2270 -0.4873
   78CHL1  H24A 8241   1.267   5.734   8.132  1.4841 -2.4007  0.7380
   78CHL1  H24B 8242   1.434   5.695   8.087  0.8826  1.1864 -1.8071
   78CHL1   C25 8243   1.410   5.861   8.224 -0.1539 -0.4004  0.3868
   78CHL1   H25 8244   1.421   5.789   8.308  1.3507  0.7515  1.2258
   78CHL1   C26 8245   1.544   5.926   8.192  0.0038 -0.4815  0.6226
   78CHL1  H26A 8246   1.535   6.007   8.117 -2.9519  0.1344  1.4915
   78CHL1  H26B 8247   1.597   5.978   8.275  2.1507  1.5902 -1.8791
   78CHL1  H26C 8248   1.611   5.846   8.154  3.1024  1.7692  1.0122
   78CHL1   C27 8249   1.315   5.970   8.274  0.4470  0.2101 -0.7134
   78CHL1  H27A 8250   1.217   5.926   8.304 -0.5820  3.3581  1.0034
   78CHL1  H27B 8251   1.363   6.004   8.368 -1.8252 -0.0055  0.6032
   78CHL1  H27C 8252   1.299   6.058   8.209  1.3965  1.0451  0.1550
   79CHL1    C3 8253   6.066   3.266   7.444 -0.5818 -0.1676 -0.6006
   79CHL1    H3 8254   6.094   3.159   7.457 -2.6878 -0.6845 -0.0478
   79CHL1    O3 8255   5.972   3.264   7.337  0.0679 -0.5778  0.2183
   79CHL1   H3' 8256   5.980   3.356   7.311  3.8010 -0.8219  0.0035
   79CHL1    C4 8257   5.993   3.324   7.562 -0.5420 -0.3240 -0.6708
   79CHL1   H4A 8258   5.984   3.433   7.541 -2.6914 -0.5795 -1.4033
   79CHL1   H4B 8259   5.892   3.277   7.557 -0.2456 -1.1206  0.5348
   79CHL1    C5 8260   6.071   3.296   7.688 -0.1999  0.7304  0.2761
   79CHL1    C6 8261   6.024   3.217   7.785 -0.1459  0.3487  0.0990
   79CHL1    H6 8262   5.928   3.164   7.773  0.5321 -0.5104 -2.0218
   79CHL1    C7 8263   6.103   3.185   7.904 -0.6502  0.2600 -0.3412
   79CHL1   H7A 8264   6.039   3.201   7.994  1.7372  0.4594  1.4271
   79CHL1   H7B 8265   6.115   3.075   7.899 -2.8231 -0.0272 -0.4754
   79CHL1    C8 8266   6.225   3.275   7.922  0.4467  0.3808 -0.1189
   79CHL1    H8 8267   6.192   3.377   7.952  1.3963  0.5736  0.2977
   79CHL1   C14 8268   6.315   3.211   8.027  0.1150  0.0903 -0.0114
   79CHL1   H14 8269   6.343   3.119   7.970  0.9223 -1.2105  2.3465
   79CHL1   C15 8270   6.252   3.162   8.158  0.6212 -0.8418  0.0718
   79CHL1  H15A 8271   6.194   3.243   8.207  1.6516  0.1155 -0.2454
   79CHL1  H15B 8272   6.184   3.075   8.146  0.5591 -1.1219  2.1112
   79CHL1   C16 8273   6.370   3.141   8.250  0.4515  0.1081 -0.0654
   79CHL1  H16A 8274   6.357   3.182   8.352  0.0740  0.1884 -0.1448
   79CHL1  H16B 8275   6.389   3.032   8.263 -0.9693 -0.8483 -4.3896
   79CHL1   C17 8276   6.493   3.202   8.174  0.2575 -0.0192  0.4573
   79CHL1   H17 8277   6.537   3.108   8.137  1.0060 -0.2202  1.7753
   79CHL1   C13 8278   6.436   3.287   8.066  0.2359 -0.7712 -0.3657
   79CHL1   C18 8279   6.399   3.428   8.127 -0.1579  0.2657 -0.4825
   79CHL1  H18A 8280   6.322   3.418   8.207  1.2232  0.2848  0.9045
   79CHL1  H18B 8281   6.488   3.470   8.178  0.9896 -0.0038 -2.2125
   79CHL1  H18C 8282   6.361   3.500   8.051 -2.0025  0.2341  0.3448
   79CHL1   C12 8283   6.524   3.308   7.936  0.1023  0.6002  0.1855
   79CHL1  H12A 8284   6.620   3.362   7.945  0.7619 -0.7024  1.2642
   79CHL1  H12B 8285   6.546   3.201   7.917 -1.1414 -0.0969  2.3283
   79CHL1   C11 8286   6.443   3.365   7.823 -0.2781  0.0412 -0.0136
   79CHL1  H11A 8287   6.434   3.472   7.851 -0.3284 -0.1741  0.8121
   79CHL1  H11B 8288   6.500   3.348   7.729 -0.2212 -1.6357  0.2903
   79CHL1    C9 8289   6.304   3.302   7.794 -0.1753 -0.2720  0.0304
   79CHL1    H9 8290   6.330   3.199   7.762 -1.4858 -0.7779  0.5730
   79CHL1   C10 8291   6.210   3.364   7.680 -0.2647  0.3364  0.9665
   79CHL1   C19 8292   6.207   3.521   7.700  0.5160  0.5735  0.5414
   79CHL1  H19A 8293   6.131   3.540   7.778  0.1722 -2.0987  0.9509
   79CHL1  H19B 8294   6.302   3.577   7.719  0.5601  1.4121 -1.7597
   79CHL1  H19C 8295   6.162   3.561   7.607 -3.7971 -1.2419  1.6152
   79CHL1    C1 8296   6.280   3.331   7.536 -0.1771  0.4756  0.1367
   79CHL1   H1A 8297   6.384   3.370   7.536  0.1844 -0.4545  0.0916
   79CHL1   H1B 8298   6.296   3.221   7.535  1.0821  0.6434 -0.5683
   79CHL1    C2 8299   6.191   3.348   7.417  0.3639 -0.5116 -0.4559
   79CHL1   H2A 8300   6.261   3.322   7.335 -0.7154  0.0283 -1.5718
   79CHL1   H2B 8301   6.163   3.454   7.403 -1.9479 -0.9242  0.6162
   79CHL1   C20 8302   6.590   3.261   8.283  0.6645  0.5693  0.2231
   79CHL1   H20 8303   6.543   3.335   8.350 -0.9254  0.0704 -0.2974
   79CHL1   C21 8304   6.703   3.331   8.214 -0.4407  0.1170  0.4219
   79CHL1  H21A 8305   6.753   3.260   8.144 -1.3069 -0.6453  0.5569
   79CHL1  H21B 8306   6.770   3.373   8.292 -0.5009  2.7891 -0.8343
   79CHL1  H21C 8307   6.665   3.420   8.159  0.0444  0.6029  0.8632
   79CHL1   C22 8308   6.637   3.150   8.385 -0.6443 -0.2692  0.8235
   79CHL1  H22A 8309   6.700   3.205   8.459 -1.3632  1.0120  0.5136
   79CHL1  H22B 8310   6.555   3.094   8.434 -0.6580  0.1368  1.2761
   79CHL1   C23 8311   6.730   3.045   8.313  0.2157 -0.1106  0.8595
   79CHL1  H23A 8312   6.680   2.991   8.229 -0.4691 -1.1433  1.8973
   79CHL1  H23B 8313   6.823   3.089   8.271  0.6648 -0.5565  1.3666
   79CHL1   C24 8314   6.769   2.936   8.407 -0.2897  0.8603  0.2213
   79CHL1  H24A 8315   6.813   2.988   8.495 -3.2499 -0.9653  2.9962
   79CHL1  H24B 8316   6.679   2.875   8.431  0.4459 -0.8981 -1.3090
   79CHL1   C25 8317   6.860   2.821   8.347 -0.3679 -0.5910 -0.3774
   79CHL1   H25 8318   6.954   2.864   8.307  0.1008 -1.7440 -0.5518
   79CHL1   C26 8319   6.903   2.739   8.469  0.2280 -0.2544 -0.6691
   79CHL1  H26A 8320   6.939   2.639   8.437  0.1430 -1.9836  3.8532
   79CHL1  H26B 8321   6.983   2.793   8.523 -0.9956 -0.3007  1.3030
   79CHL1  H26C 8322   6.811   2.714   8.527  1.0480  1.0567  1.2888
   79CHL1   C27 8323   6.787   2.737   8.246  0.1202  0.3301 -0.5745
   79CHL1  H27A 8324   6.839   2.647   8.207 -0.3247 -0.0334 -0.3411
   79CHL1  H27B 8325   6.688   2.712   8.290 -0.2855  0.5336 -1.3437
   79CHL1  H27C 8326   6.762   2.802   8.159  2.0812  0.6281 -0.9756
   80CHL1    C3 8327   3.898   2.069   7.126 -0.7968 -0.1786 -0.1808
   80CHL1    H3 8328   3.793   2.034   7.141 -1.1499  1.9041  3.0802
   80CHL1    O3 8329   3.912   2.093   6.990  0.4115  0.1951 -0.1117
   80CHL1   H3' 8330   4.001   2.128   6.991  0.8630 -0.6177 -2.7734
   80CHL1    C4 8331   3.915   2.199   7.206 -0.6576  0.3852  0.4107
   80CHL1   H4A 8332   4.006   2.252   7.173 -1.5484  1.5901 -0.1804
   80CHL1   H4B 8333   3.822   2.257   7.189 -0.1470  1.2638  0.5743
   80CHL1    C5 8334   3.947   2.176   7.348  0.4312 -0.7671 -0.6385
   80CHL1    C6 8335   3.872   2.234   7.444 -0.3409 -0.4432  0.0129
   80CHL1    H6 8336   3.795   2.309   7.419 -1.2416 -0.7538  1.6554
   80CHL1    C7 8337   3.902   2.225   7.591  0.3284 -0.3107  0.6987
   80CHL1   H7A 8338   3.888   2.317   7.650  0.9279  0.3452 -0.1575
   80CHL1   H7B 8339   3.830   2.151   7.632  0.4089 -0.0163  1.3893
   80CHL1    C8 8340   4.044   2.181   7.623 -0.0207 -0.7210  0.3867
   80CHL1    H8 8341   4.101   2.273   7.602 -2.0576  0.3478 -0.7323
   80CHL1   C14 8342   4.046   2.144   7.773  0.3937  0.4720 -0.1502
   80CHL1   H14 8343   3.970   2.066   7.797  2.0438 -0.5446  2.1696
   80CHL1   C15 8344   4.015   2.258   7.868  0.5408 -0.6429 -0.5495
   80CHL1  H15A 8345   4.070   2.349   7.835  0.5709 -1.1723 -2.0331
   80CHL1  H15B 8346   3.905   2.275   7.872  0.4773 -1.2407  0.5139
   80CHL1   C16 8347   4.075   2.211   8.004  1.2599  0.0034  0.1283
   80CHL1  H16A 8348   4.146   2.289   8.039  0.7336  0.5754 -0.0665
   80CHL1  H16B 8349   3.993   2.195   8.078 -0.9886 -0.7113 -2.3713
   80CHL1   C17 8350   4.158   2.085   7.974  0.4626  0.1522 -0.0234
   80CHL1   H17 8351   4.090   1.999   7.992  3.0072 -2.3590 -1.6388
   80CHL1   C13 8352   4.180   2.090   7.823 -0.2212 -0.2993  0.3945
   80CHL1   C18 8353   4.300   2.188   7.811 -0.8227 -0.2242  0.5724
   80CHL1  H18A 8354   4.402   2.152   7.834 -1.0869 -0.3879  1.5631
   80CHL1  H18B 8355   4.318   2.229   7.710  1.0054  2.2290  1.7774
   80CHL1  H18C 8356   4.286   2.280   7.872  0.5695  1.0080 -0.8926
   80CHL1   C12 8357   4.215   1.964   7.748  0.5123  0.5408 -0.7658
   80CHL1  H12A 8358   4.315   1.919   7.767  0.5971  0.4002 -1.4971
   80CHL1  H12B 8359   4.131   1.894   7.762 -0.3720  1.9444  1.4924
   80CHL1   C11 8360   4.210   1.992   7.597 -0.6975  0.0176 -0.4439
   80CHL1  H11A 8361   4.299   2.054   7.572  0.2961 -1.4437 -0.6872
   80CHL1  H11B 8362   4.229   1.892   7.551  3.8961  0.9879 -1.1052
   80CHL1    C9 8363   4.077   2.059   7.545 -0.0619 -0.1267  0.4464
   80CHL1    H9 8364   3.994   1.992   7.574 -1.1075  0.8716 -0.1559
   80CHL1   C10 8365   4.058   2.076   7.388  0.5002 -0.3953  0.1808
   80CHL1   C19 8366   4.194   2.129   7.334 -0.3199 -0.3626 -0.3444
   80CHL1  H19A 8367   4.212   2.224   7.390  0.9902 -1.0241  0.4088
   80CHL1  H19B 8368   4.270   2.054   7.363 -0.3130 -1.1000 -2.1795
   80CHL1  H19C 8369   4.198   2.148   7.225  0.1651 -1.0910 -0.4553
   80CHL1    C1 8370   4.026   1.944   7.315  0.2367 -0.1255 -0.2096
   80CHL1   H1A 8371   4.115   1.880   7.331  1.0702  1.1255  0.2404
   80CHL1   H1B 8372   3.933   1.904   7.361  0.1445  3.5117  3.3080
   80CHL1    C2 8373   4.006   1.963   7.163 -0.0014  0.2338 -0.6249
   80CHL1   H2A 8374   3.970   1.866   7.124 -2.2000  0.1370  1.4347
   80CHL1   H2B 8375   4.105   1.994   7.124  0.8530  0.8683  1.8710
   80CHL1   C20 8376   4.276   2.071   8.075  0.1288  0.3836 -0.0360
   80CHL1   H20 8377   4.362   2.141   8.071  0.1646  0.6899  3.1668
   80CHL1   C21 8378   4.326   1.923   8.058  0.0711 -0.4098 -0.8526
   80CHL1  H21A 8379   4.391   1.910   7.969  1.6007 -2.0532  0.4165
   80CHL1  H21B 8380   4.247   1.845   8.066  1.8157 -2.2093  0.0428
   80CHL1  H21C 8381   4.400   1.902   8.139  0.6326 -0.7392 -1.4420
   80CHL1   C22 8382   4.221   2.083   8.224 -0.3948 -0.0399 -0.1160
   80CHL1  H22A 8383   4.159   2.172   8.244  1.4076  1.5225 -1.1698
   80CHL1  H22B 8384   4.148   2.003   8.251 -2.9154  0.8907 -3.5257
   80CHL1   C23 8385   4.332   2.086   8.334 -0.0539 -0.5698  0.1482
   80CHL1  H23A 8386   4.402   2.000   8.322 -0.9396 -1.1164 -1.3621
   80CHL1  H23B 8387   4.397   2.175   8.322  0.4805 -0.8674  0.7555
   80CHL1   C24 8388   4.280   2.095   8.479 -0.8740 -0.6607  0.2686
   80CHL1  H24A 8389   4.329   2.181   8.530  1.8122 -1.9197 -0.0166
   80CHL1  H24B 8390   4.171   2.115   8.478 -1.0185 -1.3235 -1.9652
   80CHL1   C25 8391   4.325   1.974   8.568  0.0519 -0.2430  0.2228
   80CHL1   H25 8392   4.307   1.880   8.512 -0.3364  1.4721 -2.7067
   80CHL1   C26 8393   4.471   1.979   8.602  0.1680  0.0544  0.0360
   80CHL1  H26A 8394   4.490   2.023   8.703 -0.3981 -0.7790  0.5246
   80CHL1  H26B 8395   4.507   1.874   8.599 -2.1409 -0.7712 -0.7126
   80CHL1  H26C 8396   4.522   2.036   8.522 -0.4184  0.8209  0.1946
   80CHL1   C27 8397   4.248   1.983   8.699 -0.3123  0.1181 -0.3720
   80CHL1  H27A 8398   4.267   1.894   8.762  1.0561  0.4767 -0.2622
   80CHL1  H27B 8399   4.282   2.075   8.752  2.6711 -2.0831  1.9203
   80CHL1  H27C 8400   4.138   1.981   8.679 -0.0431 -0.3812 -1.9196
   81CHL1    C3 8401   0.100   2.241   7.135  0.2585  0.2110  0.6151
   81CHL1    H3 8402   0.003   2.252   7.188  0.0543  0.6590  0.1628
   81CHL1    O3 8403   0.079   2.230   6.994 -0.3556 -0.1608 -0.0780
   81CHL1   H3' 8404   0.168   2.242   6.961 -0.9958  0.3094 -1.7226
   81CHL1    C4 8405   0.180   2.370   7.160 -0.4227  0.0502 -0.4537
   81CHL1   H4A 8406   0.277   2.370   7.106 -0.3339  1.1741 -0.3216
   81CHL1   H4B 8407   0.111   2.446   7.118 -0.3090  0.0577 -0.6296
   81CHL1    C5 8408   0.201   2.402   7.309 -0.1479 -0.8489  0.6980
   81CHL1    C6 8409   0.150   2.515   7.354  0.3822  0.1467  0.0696
   81CHL1    H6 8410   0.097   2.593   7.297  0.0889  0.7623  1.1549
   81CHL1    C7 8411   0.151   2.552   7.498 -0.0503  0.1878 -0.0829
   81CHL1   H7A 8412   0.190   2.655   7.516  1.1138 -0.3946  0.8745
   81CHL1   H7B 8413   0.056   2.520   7.546  1.3382 -3.5883  0.4392
   81CHL1    C8 8414   0.260   2.464   7.572  0.7170 -1.2598  0.6568
   81CHL1    H8 8415   0.360   2.499   7.539  0.1295  1.1413  1.2681
   81CHL1   C14 8416   0.252   2.487   7.721  0.0242  0.0744  0.1918
   81CHL1   H14 8417   0.152   2.449   7.750 -0.1143  1.3639  1.5433
   81CHL1   C15 8418   0.243   2.627   7.781  0.2264 -0.3595  0.1703
   81CHL1  H15A 8419   0.322   2.690   7.736  1.4888 -1.1502  1.1963
   81CHL1  H15B 8420   0.143   2.670   7.762 -1.0071 -1.9710  2.5749
   81CHL1   C16 8421   0.281   2.602   7.931  0.0227 -0.4996  0.4494
   81CHL1  H16A 8422   0.370   2.666   7.946 -0.3326 -0.2550  1.6205
   81CHL1  H16B 8423   0.196   2.642   7.992 -0.8914 -2.4519  0.5229
   81CHL1   C17 8424   0.318   2.455   7.945  0.2809  0.0811 -0.3112
   81CHL1   H17 8425   0.225   2.404   7.979  1.6203 -3.6265 -1.6769
   81CHL1   C13 8426   0.348   2.396   7.802  0.2634 -0.9535 -0.4557
   81CHL1   C18 8427   0.493   2.424   7.761 -0.0911  0.3851  0.4500
   81CHL1  H18A 8428   0.503   2.379   7.660 -0.3109 -2.0867  1.4528
   81CHL1  H18B 8429   0.516   2.533   7.765  0.8252  0.1641  2.0087
   81CHL1  H18C 8430   0.569   2.377   7.827  0.9431 -0.2756 -1.1666
   81CHL1   C12 8431   0.303   2.254   7.776 -0.4160  1.0675  0.4641
   81CHL1  H12A 8432   0.366   2.199   7.849 -2.3268  0.4081  1.6970
   81CHL1  H12B 8433   0.201   2.232   7.815 -0.4034  0.6684  0.2712
   81CHL1   C11 8434   0.310   2.214   7.632  0.2334  0.3293 -0.7192
   81CHL1  H11A 8435   0.415   2.192   7.605  0.5956  3.8137 -2.8545
   81CHL1  H11B 8436   0.255   2.118   7.620 -1.8900  1.2811  0.6944
   81CHL1    C9 8437   0.247   2.319   7.533 -0.4435 -0.0015 -0.2244
   81CHL1    H9 8438   0.140   2.294   7.548 -0.6999  1.9316  1.4520
   81CHL1   C10 8439   0.264   2.286   7.387  0.0127 -0.6791  0.1027
   81CHL1   C19 8440   0.413   2.296   7.347  0.3809  0.7671  0.8793
   81CHL1  H19A 8441   0.457   2.398   7.346 -1.3679  1.6194 -2.0961
   81CHL1  H19B 8442   0.466   2.224   7.412  0.5635  0.1002  0.0109
   81CHL1  H19C 8443   0.427   2.248   7.248  0.7225  1.3795  0.6294
   81CHL1    C1 8444   0.196   2.158   7.350 -0.8157 -0.0471  0.5039
   81CHL1   H1A 8445   0.252   2.072   7.393 -0.2307 -0.4439 -0.9781
   81CHL1   H1B 8446   0.093   2.158   7.391 -1.4435  0.3880 -1.0054
   81CHL1    C2 8447   0.185   2.124   7.199  0.0470 -0.2008  0.2926
   81CHL1   H2A 8448   0.135   2.028   7.174  0.3032 -0.1853 -0.2969
   81CHL1   H2B 8449   0.286   2.119   7.154  0.2246  0.7959  0.5409
   81CHL1   C20 8450   0.421   2.421   8.058  0.0801  0.1031 -0.3878
   81CHL1   H20 8451   0.511   2.472   8.018  1.1514 -0.4611  1.2041
   81CHL1   C21 8452   0.467   2.277   8.072 -0.3808  0.5085 -0.1891
   81CHL1  H21A 8453   0.384   2.210   8.102  0.9833 -0.5236  1.4480
   81CHL1  H21B 8454   0.550   2.278   8.145 -2.5337 -0.0861  2.4422
   81CHL1  H21C 8455   0.504   2.232   7.978 -1.8565  1.3724 -1.2148
   81CHL1   C22 8456   0.384   2.488   8.191 -0.4624 -0.4124 -0.0384
   81CHL1  H22A 8457   0.411   2.595   8.181  1.4656 -0.8236  0.3611
   81CHL1  H22B 8458   0.278   2.467   8.217 -0.2157 -1.0488  0.5014
   81CHL1   C23 8459   0.453   2.429   8.315 -0.0185  0.6592  1.0717
   81CHL1  H23A 8460   0.400   2.334   8.338 -1.5183  1.3038  0.3804
   81CHL1  H23B 8461   0.557   2.405   8.287 -1.1261 -2.7709 -0.7210
   81CHL1   C24 8462   0.456   2.520   8.441 -0.0720  0.7685  0.1114
   81CHL1  H24A 8463   0.484   2.618   8.398  0.1332  0.3907 -0.6302
   81CHL1  H24B 8464   0.358   2.542   8.490 -0.8038  0.9042 -1.3754
   81CHL1   C25 8465   0.559   2.473   8.539 -0.0950  0.5018  0.5963
   81CHL1   H25 8466   0.659   2.490   8.494  0.2922 -0.6968  0.9679
   81CHL1   C26 8467   0.573   2.568   8.659  0.2867  0.2484 -0.1766
   81CHL1  H26A 8468   0.487   2.557   8.729 -0.0648 -0.5460 -0.7131
   81CHL1  H26B 8469   0.658   2.530   8.720  0.6421 -0.4543 -1.0744
   81CHL1  H26C 8470   0.590   2.674   8.633  0.7983 -0.1186 -1.4673
   81CHL1   C27 8471   0.543   2.325   8.565  0.3015 -0.2689  0.0998
   81CHL1  H27A 8472   0.544   2.269   8.468  2.8358 -0.1429 -0.0066
   81CHL1  H27B 8473   0.629   2.286   8.623  0.7187  3.3737  2.2384
   81CHL1  H27C 8474   0.445   2.301   8.611  1.4008 -1.8394  1.7375
   82CHL1    C3 8475   3.486   6.514   7.190  0.3181 -0.3067  0.9503
   82CHL1    H3 8476   3.386   6.509   7.236 -0.7883  0.3494 -1.2414
   82CHL1    O3 8477   3.460   6.507   7.052 -0.2273  0.1798  0.2033
   82CHL1   H3' 8478   3.543   6.476   7.016 -0.5592  0.4285 -0.8095
   82CHL1    C4 8479   3.553   6.651   7.218 -0.0038  0.0982  0.6417
   82CHL1   H4A 8480   3.644   6.646   7.154 -1.0526  0.4694 -0.9544
   82CHL1   H4B 8481   3.501   6.742   7.182  0.0334  0.5293  1.6698
   82CHL1    C5 8482   3.587   6.665   7.364  0.9892 -0.5508 -0.1535
   82CHL1    C6 8483   3.523   6.759   7.441 -0.4224 -0.4319 -0.3045
   82CHL1    H6 8484   3.450   6.822   7.389  0.9617  0.5540 -1.1234
   82CHL1    C7 8485   3.539   6.780   7.591  0.4104 -0.2442 -0.4102
   82CHL1   H7A 8486   3.553   6.887   7.616 -0.1317 -0.2651 -0.0121
   82CHL1   H7B 8487   3.446   6.751   7.644 -0.1391  1.1189 -0.5871
   82CHL1    C8 8488   3.652   6.697   7.648 -0.2700 -0.2087 -0.4625
   82CHL1    H8 8489   3.746   6.754   7.631 -0.3999  0.2609  0.3800
   82CHL1   C14 8490   3.622   6.679   7.809  0.3391  0.8373  0.1901
   82CHL1   H14 8491   3.532   6.615   7.809 -0.4369  1.6874  3.9450
   82CHL1   C15 8492   3.582   6.798   7.888 -0.4340 -0.3556  0.4405
   82CHL1  H15A 8493   3.648   6.883   7.863 -1.3853  0.6194  1.1231
   82CHL1  H15B 8494   3.478   6.836   7.873  0.0776  1.0425  0.2488
   82CHL1   C16 8495   3.607   6.750   8.033 -0.2942 -0.0953 -0.6973
   82CHL1  H16A 8496   3.683   6.818   8.076  0.1048 -2.5922  3.0329
   82CHL1  H16B 8497   3.516   6.763   8.096 -0.4506  1.3869 -1.1868
   82CHL1   C17 8498   3.668   6.609   8.026  0.4957 -0.3000  0.8447
   82CHL1   H17 8499   3.580   6.541   8.024 -0.6922  1.1729  1.7737
   82CHL1   C13 8500   3.732   6.606   7.887 -0.6874  0.3300 -0.4623
   82CHL1   C18 8501   3.866   6.680   7.876 -0.5028 -0.2092  0.4708
   82CHL1  H18A 8502   3.945   6.630   7.936  1.1319  1.5578 -0.0924
   82CHL1  H18B 8503   3.914   6.681   7.775 -0.3814 -2.1790  0.4699
   82CHL1  H18C 8504   3.852   6.788   7.902 -0.3619  1.0985 -4.0042
   82CHL1   C12 8505   3.756   6.467   7.815 -0.2781 -1.0268 -0.0712
   82CHL1  H12A 8506   3.836   6.410   7.865  0.4039 -0.0987 -0.0758
   82CHL1  H12B 8507   3.660   6.411   7.816 -0.4326 -0.8048 -1.1553
   82CHL1   C11 8508   3.775   6.479   7.657 -0.1439 -0.0114  0.5599
   82CHL1  H11A 8509   3.874   6.523   7.636 -0.1150  1.2924  3.0461
   82CHL1  H11B 8510   3.779   6.380   7.608 -0.7613  0.1441  0.1719
   82CHL1    C9 8511   3.669   6.555   7.585  0.5089  0.4529  0.1986
   82CHL1    H9 8512   3.574   6.500   7.606  1.4778 -1.3241  0.1536
   82CHL1   C10 8513   3.675   6.552   7.425  0.1013  0.2205  0.2574
   82CHL1   C19 8514   3.825   6.584   7.384  0.2544  0.4568 -0.3668
   82CHL1  H19A 8515   3.843   6.613   7.279  4.6015  1.8693  0.5603
   82CHL1  H19B 8516   3.878   6.666   7.437  3.3838 -1.4002 -0.4018
   82CHL1  H19C 8517   3.887   6.495   7.407 -0.0228  0.5634  0.8640
   82CHL1    C1 8518   3.623   6.415   7.372  0.1003 -0.1270  0.1981
   82CHL1   H1A 8519   3.704   6.343   7.397  1.4539  1.2226 -0.1419
   82CHL1   H1B 8520   3.530   6.389   7.427 -0.7047 -1.4079 -1.6958
   82CHL1    C2 8521   3.588   6.414   7.224 -1.1631  0.3456  0.6454
   82CHL1   H2A 8522   3.552   6.315   7.191 -1.7778  0.3274  1.3464
   82CHL1   H2B 8523   3.683   6.432   7.168 -1.8148  1.1583 -0.2285
   82CHL1   C20 8524   3.758   6.573   8.149 -0.2219 -0.2977 -0.5373
   82CHL1   H20 8525   3.847   6.640   8.146  0.2947 -0.9647 -0.3566
   82CHL1   C21 8526   3.804   6.420   8.153 -0.0005  0.5636  0.3407
   82CHL1  H21A 8527   3.884   6.401   8.228  1.5442 -1.5252 -1.6958
   82CHL1  H21B 8528   3.848   6.402   8.053  0.9206 -0.5174  0.9063
   82CHL1  H21C 8529   3.711   6.362   8.171  1.0546 -1.1182  0.6761
   82CHL1   C22 8530   3.685   6.607   8.285  0.5955 -0.7172  0.1116
   82CHL1  H22A 8531   3.669   6.717   8.288 -0.0562 -0.8267  0.8508
   82CHL1  H22B 8532   3.586   6.559   8.268  0.2071 -0.2141  0.9425
   82CHL1   C23 8533   3.728   6.549   8.419 -0.0902 -0.3438 -0.6742
   82CHL1  H23A 8534   3.632   6.548   8.476 -0.2074  1.7392 -0.7540
   82CHL1  H23B 8535   3.765   6.444   8.420 -2.5128 -1.2873  1.2609
   82CHL1   C24 8536   3.826   6.634   8.495  0.1887 -0.4250  0.3993
   82CHL1  H24A 8537   3.798   6.741   8.489  0.1086 -0.4907 -0.4865
   82CHL1  H24B 8538   3.833   6.598   8.600 -0.9536  0.2803  0.7299
   82CHL1   C25 8539   3.974   6.630   8.441  0.5454 -0.1098  0.1555
   82CHL1   H25 8540   3.982   6.638   8.330  1.4572  0.8946  0.2788
   82CHL1   C26 8541   4.063   6.743   8.499 -0.2743 -0.0801  0.1083
   82CHL1  H26A 8542   4.162   6.750   8.449 -0.2274 -3.0513 -0.3815
   82CHL1  H26B 8543   4.019   6.846   8.498  0.5007  0.2871  1.4332
   82CHL1  H26C 8544   4.079   6.712   8.604  0.8544 -0.6632 -0.2258
   82CHL1   C27 8545   4.036   6.499   8.478 -0.7559 -0.2525 -0.1228
   82CHL1  H27A 8546   4.144   6.506   8.450 -0.1803 -0.2294  1.9676
   82CHL1  H27B 8547   4.023   6.481   8.587  0.2761  2.8081  0.5872
   82CHL1  H27C 8548   3.990   6.406   8.437  0.2742 -1.2835  0.9942
   83CHL1    C3 8549   5.360   3.443   7.139 -0.8969  0.0472  0.4480
   83CHL1    H3 8550   5.400   3.541   7.174  1.4915 -1.1093  1.2343
   83CHL1    O3 8551   5.340   3.445   7.000 -0.2164  0.4580 -0.3845
   83CHL1   H3' 8552   5.249   3.423   6.983 -0.5622  1.2643  0.2880
   83CHL1    C4 8553   5.470   3.330   7.187  0.3301 -0.3218 -1.0793
   83CHL1   H4A 8554   5.460   3.225   7.151  1.3716 -0.9439  0.3240
   83CHL1   H4B 8555   5.564   3.369   7.141  0.4985 -0.1948 -0.6383
   83CHL1    C5 8556   5.479   3.325   7.340  0.2750  0.1996  0.3566
   83CHL1    C6 8557   5.594   3.337   7.403 -0.2015 -0.1534 -0.5227
   83CHL1    H6 8558   5.690   3.350   7.351 -0.1881  1.6440 -0.0902
   83CHL1    C7 8559   5.600   3.328   7.553 -0.2116 -0.1273 -0.0188
   83CHL1   H7A 8560   5.682   3.259   7.583  1.1469  1.3029 -0.2928
   83CHL1   H7B 8561   5.621   3.432   7.589  0.4406  0.1779 -1.2337
   83CHL1    C8 8562   5.481   3.248   7.609 -0.4432 -0.1274 -0.1982
   83CHL1    H8 8563   5.479   3.143   7.572  0.6250 -1.2161  2.5204
   83CHL1   C14 8564   5.487   3.253   7.763 -0.9408  0.2626  0.1735
   83CHL1   H14 8565   5.466   3.358   7.793  1.1429 -0.1442  3.5494
   83CHL1   C15 8566   5.620   3.210   7.837 -0.4770  0.2165 -0.2270
   83CHL1  H15A 8567   5.654   3.120   7.782 -0.5113 -0.7842  1.3347
   83CHL1  H15B 8568   5.700   3.286   7.826  0.9226 -1.4155 -2.1631
   83CHL1   C16 8569   5.565   3.174   7.978  0.0080 -0.0185  0.3734
   83CHL1  H16A 8570   5.591   3.066   7.985 -1.1062 -0.7164 -3.5977
   83CHL1  H16B 8571   5.608   3.242   8.054  1.1153  1.3813 -1.4032
   83CHL1   C17 8572   5.408   3.177   7.977 -0.0882  0.2789 -0.5050
   83CHL1   H17 8573   5.394   3.282   8.009  3.7725  0.6488  0.4603
   83CHL1   C13 8574   5.372   3.166   7.831  1.2909  0.5026  0.3616
   83CHL1   C18 8575   5.379   3.019   7.787 -0.3777  0.2626 -0.4341
   83CHL1  H18A 8576   5.473   2.968   7.818 -1.3709 -0.1905  2.1367
   83CHL1  H18B 8577   5.299   2.955   7.831 -0.1817 -0.5080 -1.1812
   83CHL1  H18C 8578   5.372   3.009   7.677  2.7538  0.6723 -0.7594
   83CHL1   C12 8579   5.230   3.232   7.788  0.4435  0.0571  0.2350
   83CHL1  H12A 8580   5.155   3.173   7.844 -0.4431  0.2993 -0.6620
   83CHL1  H12B 8581   5.223   3.337   7.824 -0.4662  0.5026 -1.1595
   83CHL1   C11 8582   5.221   3.231   7.636  0.0746 -0.0612  0.0035
   83CHL1  H11A 8583   5.222   3.126   7.602  1.2884  0.8062 -2.9467
   83CHL1  H11B 8584   5.128   3.282   7.602 -1.9205 -2.7094  1.1771
   83CHL1    C9 8585   5.343   3.305   7.561 -0.0035  0.8371 -0.4670
   83CHL1    H9 8586   5.346   3.408   7.601  1.4741  0.6268  0.0133
   83CHL1   C10 8587   5.340   3.307   7.407 -0.1999  0.0927 -0.2539
   83CHL1   C19 8588   5.295   3.170   7.358  0.3071  0.0659 -0.3117
   83CHL1  H19A 8589   5.280   3.164   7.248  0.0126 -0.3891 -0.2509
   83CHL1  H19B 8590   5.361   3.090   7.398  0.2733 -0.6630 -1.6478
   83CHL1  H19C 8591   5.194   3.150   7.399  0.4635 -0.2823 -0.0813
   83CHL1    C1 8592   5.240   3.417   7.358 -0.0335 -0.5591 -0.2700
   83CHL1   H1A 8593   5.143   3.398   7.409 -0.4464  1.0541 -0.4162
   83CHL1   H1B 8594   5.282   3.512   7.396 -0.1781 -1.0872  1.2769
   83CHL1    C2 8595   5.228   3.427   7.207 -0.2083  0.0733 -0.2064
   83CHL1   H2A 8596   5.182   3.522   7.171  1.2501  0.6527 -0.6391
   83CHL1   H2B 8597   5.167   3.341   7.174 -0.7700  0.1814  0.5335
   83CHL1   C20 8598   5.346   3.088   8.089  0.3207  0.4897  0.4836
   83CHL1   H20 8599   5.339   2.989   8.039 -1.3489  0.7894  0.0581
   83CHL1   C21 8600   5.198   3.114   8.121  0.1339 -0.2909 -0.0303
   83CHL1  H21A 8601   5.184   3.225   8.120  0.7008 -0.1204  2.8581
   83CHL1  H21B 8602   5.167   3.070   8.218  1.4552  0.5305  0.7860
   83CHL1  H21C 8603   5.132   3.071   8.042 -1.4217 -2.5332  2.3385
   83CHL1   C22 8604   5.431   3.066   8.220  0.1654  0.5055 -0.2668
   83CHL1  H22A 8605   5.370   2.989   8.271 -0.2350  0.5697 -0.6383
   83CHL1  H22B 8606   5.530   3.025   8.189 -0.1932  0.6263 -1.6225
   83CHL1   C23 8607   5.455   3.185   8.314 -0.3002 -0.4732  0.4870
   83CHL1  H23A 8608   5.500   3.267   8.255  2.0162 -0.8999  1.5471
   83CHL1  H23B 8609   5.351   3.216   8.339 -0.4994 -0.8785  0.1664
   83CHL1   C24 8610   5.522   3.145   8.446 -0.1130 -1.2226  0.3905
   83CHL1  H24A 8611   5.443   3.084   8.495 -0.2037 -1.9240 -0.5849
   83CHL1  H24B 8612   5.609   3.080   8.424  2.1056  1.1556  1.7149
   83CHL1   C25 8613   5.563   3.267   8.531 -0.8186 -0.0333  0.3578
   83CHL1   H25 8614   5.605   3.344   8.462 -1.0682 -0.4283 -0.2481
   83CHL1   C26 8615   5.442   3.318   8.608 -0.2563 -0.4811  0.8518
   83CHL1  H26A 8616   5.362   3.347   8.537 -1.7838 -1.1529  2.2045
   83CHL1  H26B 8617   5.396   3.246   8.679 -0.8293 -0.9106  0.0642
   83CHL1  H26C 8618   5.463   3.412   8.663 -0.5336  1.0232 -1.4641
   83CHL1   C27 8619   5.663   3.235   8.637 -0.0412  0.7021  0.4144
   83CHL1  H27A 8620   5.626   3.154   8.704  3.6011 -1.3618  0.2071
   83CHL1  H27B 8621   5.755   3.197   8.586 -1.2018  0.6816 -1.7499
   83CHL1  H27C 8622   5.694   3.325   8.694  2.1477 -0.9058  2.0016
   84CHL1    C3 8623   2.243   6.164   6.969  0.1403 -0.2671 -0.3453
   84CHL1    H3 8624   2.305   6.252   6.997  0.6469 -0.5603 -0.5252
   84CHL1    O3 8625   2.228   6.140   6.830  0.3979 -0.0527  0.2328
   84CHL1   H3' 8626   2.215   6.228   6.796  1.4191  0.1957  0.4796
   84CHL1    C4 8627   2.328   6.054   7.013  0.0715  0.6709  0.1165
   84CHL1   H4A 8628   2.277   5.958   6.991 -1.8725  1.7777 -0.4120
   84CHL1   H4B 8629   2.423   6.084   6.963 -2.0913  4.0725 -2.4375
   84CHL1    C5 8630   2.356   6.053   7.158 -0.4303  0.0595  0.4323
   84CHL1    C6 8631   2.479   6.055   7.210  0.1466  0.1658 -0.6946
   84CHL1    H6 8632   2.570   6.042   7.149 -0.5145 -0.7679 -1.5178
   84CHL1    C7 8633   2.514   6.040   7.354  0.9229 -0.0483  0.6173
   84CHL1   H7A 8634   2.594   5.964   7.365  0.0136 -1.6820 -2.6953
   84CHL1   H7B 8635   2.558   6.132   7.397  0.3488  0.8823 -0.7011
   84CHL1    C8 8636   2.392   6.004   7.437  0.4007  0.5475 -1.3281
   84CHL1    H8 8637   2.375   5.894   7.433  1.4006  0.2652  0.7230
   84CHL1   C14 8638   2.426   6.048   7.585 -0.3303  0.4669 -0.5611
   84CHL1   H14 8639   2.435   6.158   7.577 -2.8367  0.8342  0.7886
   84CHL1   C15 8640   2.555   6.000   7.650 -0.2490 -0.1378  0.3617
   84CHL1  H15A 8641   2.580   5.893   7.635 -1.6735 -0.2208 -1.7414
   84CHL1  H15B 8642   2.632   6.072   7.615  1.2296 -2.2763 -0.9970
   84CHL1   C16 8643   2.529   6.012   7.801  0.3601  0.7215  0.2668
   84CHL1  H16A 8644   2.533   5.910   7.845 -0.1602  0.4882 -0.2149
   84CHL1  H16B 8645   2.605   6.073   7.853  1.2844  0.7473 -1.0679
   84CHL1   C17 8646   2.386   6.061   7.818  0.3620  0.0751  0.1955
   84CHL1   H17 8647   2.390   6.172   7.829  0.0256  0.2742 -1.4771
   84CHL1   C13 8648   2.318   6.021   7.687  0.8915  0.3565  0.0316
   84CHL1   C18 8649   2.280   5.874   7.692 -0.2678  0.2918  0.5383
   84CHL1  H18A 8650   2.241   5.837   7.594  2.7061  1.0317 -1.0349
   84CHL1  H18B 8651   2.359   5.799   7.715 -2.9705 -2.8168  0.5239
   84CHL1  H18C 8652   2.206   5.867   7.775 -1.2364  0.1149 -0.3171
   84CHL1   C12 8653   2.198   6.109   7.643  0.2544 -0.2648  0.2954
   84CHL1  H12A 8654   2.111   6.095   7.711 -0.7639 -0.9484 -1.0921
   84CHL1  H12B 8655   2.237   6.213   7.641  0.2201 -0.2566 -1.1115
   84CHL1   C11 8656   2.150   6.069   7.500  0.4118 -0.1855 -0.4085
   84CHL1  H11A 8657   2.101   5.970   7.485  1.3907 -0.6937 -0.2816
   84CHL1  H11B 8658   2.073   6.146   7.477 -1.3893 -1.2641  1.6442
   84CHL1    C9 8659   2.261   6.084   7.394 -0.4119 -0.0026  0.0826
   84CHL1    H9 8660   2.292   6.191   7.397 -1.3308  0.2471  1.4111
   84CHL1   C10 8661   2.230   6.049   7.242  0.1073  0.8547  0.0033
   84CHL1   C19 8662   2.158   5.914   7.225 -0.1041 -0.3265 -0.4427
   84CHL1  H19A 8663   2.125   5.888   7.122 -0.1549  1.9484 -1.0594
   84CHL1  H19B 8664   2.219   5.831   7.266  1.9220  1.0295 -0.5818
   84CHL1  H19C 8665   2.067   5.909   7.289  0.9359 -0.3199  1.0874
   84CHL1    C1 8666   2.133   6.161   7.194 -0.6058  1.4979 -0.0714
   84CHL1   H1A 8667   2.034   6.152   7.246 -1.1483 -1.3600 -1.4218
   84CHL1   H1B 8668   2.173   6.262   7.218 -0.3743  1.6544 -1.0761
   84CHL1    C2 8669   2.104   6.169   7.043 -0.2786 -0.0446  0.1037
   84CHL1   H2A 8670   2.048   6.261   7.013  1.6656  2.3738  3.3191
   84CHL1   H2B 8671   2.039   6.083   7.017 -2.3847  1.4788  0.0460
   84CHL1   C20 8672   2.320   6.017   7.953 -0.6401 -0.0800 -0.2426
   84CHL1   H20 8673   2.308   5.907   7.951  1.1762 -0.2918 -1.8210
   84CHL1   C21 8674   2.177   6.073   7.968 -0.8155  0.1142 -0.2133
   84CHL1  H21A 8675   2.162   6.178   7.935 -0.8250 -0.0434 -0.7175
   84CHL1  H21B 8676   2.137   6.076   8.071  0.7987  1.6102  0.4059
   84CHL1  H21C 8677   2.112   6.009   7.905  1.4734 -2.3903 -0.2046
   84CHL1   C22 8678   2.415   6.054   8.076  0.4981 -0.7472  0.3552
   84CHL1  H22A 8679   2.524   6.055   8.058  0.7487 -0.1519  1.7723
   84CHL1  H22B 8680   2.382   6.158   8.100 -0.8574 -0.3031 -2.9385
   84CHL1   C23 8681   2.394   5.969   8.202  0.2854 -0.3314  0.3565
   84CHL1  H23A 8682   2.287   5.949   8.223  0.4172 -3.0857 -1.1805
   84CHL1  H23B 8683   2.441   5.870   8.185 -1.4959 -1.3735  1.1689
   84CHL1   C24 8684   2.454   6.038   8.330  0.0865 -0.2238  0.2879
   84CHL1  H24A 8685   2.564   6.023   8.317 -0.2691 -0.7420 -3.1819
   84CHL1  H24B 8686   2.425   6.145   8.328 -0.9453 -0.5037 -0.8149
   84CHL1   C25 8687   2.410   5.988   8.470  0.7994  0.0178 -0.2787
   84CHL1   H25 8688   2.301   6.004   8.484  0.5665 -1.2694 -0.4548
   84CHL1   C26 8689   2.451   5.844   8.493 -0.4680  0.4144 -0.1328
   84CHL1  H26A 8690   2.381   5.764   8.459  1.1664 -0.2083 -2.2910
   84CHL1  H26B 8691   2.551   5.813   8.456 -1.8348 -2.2624 -1.9543
   84CHL1  H26C 8692   2.433   5.840   8.602 -1.2075 -1.1683 -0.2779
   84CHL1   C27 8693   2.482   6.079   8.569  0.2390 -0.0407 -0.3343
   84CHL1  H27A 8694   2.445   6.183   8.554  2.7197  0.6991 -2.0629
   84CHL1  H27B 8695   2.451   6.049   8.672 -0.1651 -1.6970 -0.9106
   84CHL1  H27C 8696   2.593   6.081   8.567  0.4524  0.4304  3.5799
   85CHL1    C3 8697   1.756   4.929   6.866  0.3323 -0.5296  0.2192
   85CHL1    H3 8698   1.838   4.997   6.897  0.8783 -1.7066  1.4440
   85CHL1    O3 8699   1.726   4.931   6.730  0.2963  0.0485 -0.9172
   85CHL1   H3' 8700   1.651   4.874   6.711 -0.7027  0.6030  0.9882
   85CHL1    C4 8701   1.805   4.786   6.900 -0.1743 -0.4314  0.3640
   85CHL1   H4A 8702   1.733   4.716   6.852 -0.1589 -1.1744  1.4079
   85CHL1   H4B 8703   1.905   4.772   6.853 -0.1399  2.8661 -0.8206
   85CHL1    C5 8704   1.810   4.765   7.054  0.3291 -0.6197 -0.4567
   85CHL1    C6 8705   1.922   4.713   7.107 -0.3151 -0.3794 -0.2444
   85CHL1    H6 8706   1.997   4.692   7.029  1.2267 -0.2362  1.1356
   85CHL1    C7 8707   1.940   4.695   7.257  0.0195 -0.8121  0.2598
   85CHL1   H7A 8708   1.968   4.588   7.266 -3.1387 -1.6622  1.1062
   85CHL1   H7B 8709   2.011   4.764   7.308 -0.3132  0.7087 -1.2682
   85CHL1    C8 8710   1.807   4.696   7.335  0.2704  0.4560  0.0724
   85CHL1    H8 8711   1.755   4.599   7.319 -0.7426  0.9425  0.3069
   85CHL1   C14 8712   1.832   4.718   7.485 -0.4219 -0.0641  0.8618
   85CHL1   H14 8713   1.868   4.821   7.503  0.0241 -0.5878  3.2695
   85CHL1   C15 8714   1.937   4.618   7.547 -0.0259  0.0101  0.9938
   85CHL1  H15A 8715   1.927   4.515   7.506  1.8559 -0.5409  1.8085
   85CHL1  H15B 8716   2.041   4.653   7.530 -0.2908  0.6085  0.5417
   85CHL1   C16 8717   1.906   4.615   7.695  0.2915  0.0430 -0.1848
   85CHL1  H16A 8718   1.917   4.506   7.714  0.6637  0.3553  1.5957
   85CHL1  H16B 8719   1.979   4.670   7.759  0.5915 -1.3617  0.7306
   85CHL1   C17 8720   1.762   4.680   7.715 -0.0408 -0.0971 -0.0197
   85CHL1   H17 8721   1.786   4.786   7.738  0.8915 -0.0432 -1.1648
   85CHL1   C13 8722   1.707   4.685   7.571  0.5703  0.2366  0.5215
   85CHL1   C18 8723   1.647   4.536   7.540 -0.4171  0.1760 -0.5406
   85CHL1  H18A 8724   1.721   4.453   7.547 -1.1413 -0.5814 -1.4572
   85CHL1  H18B 8725   1.565   4.506   7.609 -1.8198 -0.1384 -2.2516
   85CHL1  H18C 8726   1.605   4.532   7.437  0.5279  1.1418 -0.9763
   85CHL1   C12 8727   1.616   4.800   7.529  0.8248  0.2214 -0.0158
   85CHL1  H12A 8728   1.513   4.796   7.570  0.9240 -2.4263  0.2044
   85CHL1  H12B 8729   1.659   4.897   7.561 -2.9577  2.3580 -0.7907
   85CHL1   C11 8730   1.584   4.805   7.379  0.0998 -0.1157  0.8382
   85CHL1  H11A 8731   1.525   4.715   7.353  0.3827 -0.1556  0.3180
   85CHL1  H11B 8732   1.535   4.902   7.355 -0.3293 -0.0246  2.0340
   85CHL1    C9 8733   1.711   4.806   7.290 -0.2497  0.7568 -0.1262
   85CHL1    H9 8734   1.757   4.902   7.321 -0.4652 -0.0278  2.8876
   85CHL1   C10 8735   1.681   4.808   7.131  0.3277 -0.8623 -0.2416
   85CHL1   C19 8736   1.568   4.702   7.096 -0.8611  0.1845 -0.1387
   85CHL1  H19A 8737   1.600   4.603   7.135  2.1069  0.3420 -1.9202
   85CHL1  H19B 8738   1.484   4.731   7.163  0.0280  1.1188  0.5975
   85CHL1  H19C 8739   1.558   4.687   6.987  4.5571  0.9754 -1.0186
   85CHL1    C1 8740   1.632   4.953   7.086  0.2184 -0.2226 -0.5225
   85CHL1   H1A 8741   1.531   4.962   7.131 -0.7284 -0.1246 -2.5824
   85CHL1   H1B 8742   1.700   5.030   7.128  2.3835 -1.9657 -0.6109
   85CHL1    C2 8743   1.625   4.962   6.937 -0.2363  0.0476  0.4639
   85CHL1   H2A 8744   1.600   5.065   6.901 -4.3508 -1.1633 -0.7162
   85CHL1   H2B 8745   1.543   4.901   6.894 -0.5402  1.0838 -0.4798
   85CHL1   C20 8746   1.671   4.624   7.834 -0.5162 -0.1836 -0.3828
   85CHL1   H20 8747   1.657   4.514   7.831 -1.7915 -0.0058 -2.0029
   85CHL1   C21 8748   1.528   4.688   7.834 -0.3256 -0.8868  0.6203
   85CHL1  H21A 8749   1.465   4.650   7.917 -0.2545  0.6481  1.4151
   85CHL1  H21B 8750   1.469   4.649   7.748  0.1699 -1.4153  0.5061
   85CHL1  H21C 8751   1.540   4.798   7.845  0.4220 -1.0007  1.0244
   85CHL1   C22 8752   1.747   4.645   7.968  0.5570 -0.6402 -0.2553
   85CHL1  H22A 8753   1.856   4.629   7.955  1.3346  3.1195  0.5364
   85CHL1  H22B 8754   1.745   4.755   7.981 -1.3696 -0.3609 -2.3417
   85CHL1   C23 8755   1.691   4.565   8.090  0.3201  0.6142  0.2447
   85CHL1  H23A 8756   1.580   4.569   8.091  0.3437  2.8517 -0.9891
   85CHL1  H23B 8757   1.706   4.455   8.083 -1.4869  0.3316  0.3814
   85CHL1   C24 8758   1.740   4.626   8.221  0.1049  0.4985  0.4424
   85CHL1  H24A 8759   1.798   4.718   8.200  0.3577 -0.1854 -2.1537
   85CHL1  H24B 8760   1.649   4.653   8.278 -0.3857 -1.4060  0.6379
   85CHL1   C25 8761   1.843   4.529   8.296  0.1977 -0.3689  0.2456
   85CHL1   H25 8762   1.787   4.434   8.302 -1.1805  0.4502  1.0476
   85CHL1   C26 8763   1.963   4.501   8.210 -0.2635 -0.4760 -0.0775
   85CHL1  H26A 8764   2.025   4.593   8.216 -1.3930  0.2198  1.3310
   85CHL1  H26B 8765   2.020   4.414   8.249 -2.3572 -0.7069  2.7386
   85CHL1  H26C 8766   1.943   4.493   8.101  2.4124  0.8638 -0.7683
   85CHL1   C27 8767   1.883   4.567   8.440 -0.5390 -0.8906  0.2561
   85CHL1  H27A 8768   1.793   4.597   8.500  0.1695 -1.1981  1.5079
   85CHL1  H27B 8769   1.928   4.481   8.493 -1.4370 -0.7748  1.2559
   85CHL1  H27C 8770   1.962   4.645   8.447  0.4231 -1.9911  2.9200
   86CHL1    C3 8771   3.707   5.516   7.224  0.0415 -0.4396 -0.3046
   86CHL1    H3 8772   3.703   5.412   7.262  0.2674 -0.7357 -1.0785
   86CHL1    O3 8773   3.699   5.523   7.081 -0.1858  0.2563  0.0691
   86CHL1   H3' 8774   3.776   5.570   7.049 -0.0838 -0.4360 -0.7214
   86CHL1    C4 8775   3.588   5.591   7.282  0.2588 -0.1244  0.6471
   86CHL1   H4A 8776   3.597   5.695   7.244  0.4367 -0.0310  0.9416
   86CHL1   H4B 8777   3.503   5.537   7.235  0.8147 -0.2385 -0.2434
   86CHL1    C5 8778   3.595   5.591   7.435  0.6921 -0.1538  0.3075
   86CHL1    C6 8779   3.494   5.542   7.508 -0.1341  0.2218 -0.6144
   86CHL1    H6 8780   3.403   5.493   7.469 -0.2070 -1.6227  1.6638
   86CHL1    C7 8781   3.499   5.538   7.662  0.3106 -0.5370 -0.2118
   86CHL1   H7A 8782   3.404   5.573   7.707  1.3513  0.2081  1.5291
   86CHL1   H7B 8783   3.511   5.432   7.695 -0.2807 -1.3209 -2.3814
   86CHL1    C8 8784   3.606   5.631   7.716  0.0438  0.4871 -0.8371
   86CHL1    H8 8785   3.574   5.737   7.706  0.1272  0.6951  0.8235
   86CHL1   C14 8786   3.612   5.602   7.860  0.4760 -0.0909 -0.4356
   86CHL1   H14 8787   3.628   5.492   7.867 -0.2169 -0.4739 -3.5358
   86CHL1   C15 8788   3.481   5.638   7.948 -0.4875  0.2352  0.0521
   86CHL1  H15A 8789   3.435   5.735   7.918  0.2191  0.4600 -0.3391
   86CHL1  H15B 8790   3.400   5.562   7.947 -1.9583  1.7508 -0.1657
   86CHL1   C16 8791   3.548   5.651   8.089 -0.4069 -0.2966  0.0223
   86CHL1  H16A 8792   3.524   5.754   8.121 -3.4850 -0.6005 -0.9540
   86CHL1  H16B 8793   3.506   5.580   8.163 -0.1403 -0.0772  0.3847
   86CHL1   C17 8794   3.706   5.628   8.075  0.1207 -0.0372  1.2583
   86CHL1   H17 8795   3.706   5.518   8.087 -1.5749 -0.3091 -0.6778
   86CHL1   C13 8796   3.732   5.665   7.931 -0.6222  0.0407 -0.5021
   86CHL1   C18 8797   3.721   5.822   7.921  0.2818 -0.3391  0.2222
   86CHL1  H18A 8798   3.702   5.853   7.816 -2.6013 -2.4646  0.0033
   86CHL1  H18B 8799   3.642   5.874   7.981  0.0482 -1.1870  0.6614
   86CHL1  H18C 8800   3.816   5.874   7.946  0.5570 -0.7307 -0.0013
   86CHL1   C12 8801   3.864   5.632   7.870  0.1863 -0.0257  0.0251
   86CHL1  H12A 8802   3.947   5.694   7.911  0.3393  3.0707 -4.2606
   86CHL1  H12B 8803   3.887   5.524   7.873 -0.0498 -0.0535  1.0639
   86CHL1   C11 8804   3.858   5.670   7.720  0.2020 -0.2127  0.2131
   86CHL1  H11A 8805   3.866   5.780   7.707  0.1314 -0.0214  1.6221
   86CHL1  H11B 8806   3.941   5.621   7.664 -1.1379 -0.4907 -1.6092
   86CHL1    C9 8807   3.737   5.604   7.645  0.2009 -0.1661  0.5842
   86CHL1    H9 8808   3.764   5.497   7.635 -0.2048 -0.1372 -1.1523
   86CHL1   C10 8809   3.724   5.641   7.501  0.0304 -0.4942 -0.4630
   86CHL1   C19 8810   3.729   5.794   7.483 -0.5319 -0.7240 -0.6720
   86CHL1  H19A 8811   3.829   5.836   7.504 -0.9888 -0.1697  0.5620
   86CHL1  H19B 8812   3.705   5.823   7.378  0.2885 -0.5387 -0.8103
   86CHL1  H19C 8813   3.657   5.853   7.546  0.6341 -0.1600  0.1678
   86CHL1    C1 8814   3.849   5.585   7.426 -0.1708 -0.1699  0.2666
   86CHL1   H1A 8815   3.949   5.630   7.446  0.4034 -0.6783 -1.3038
   86CHL1   H1B 8816   3.861   5.477   7.448  2.2674 -0.1408 -0.5207
   86CHL1    C2 8817   3.837   5.585   7.273 -0.0826 -0.0843  0.0473
   86CHL1   H2A 8818   3.920   5.520   7.235  1.4433  0.4058  2.3486
   86CHL1   H2B 8819   3.846   5.689   7.235 -0.2224 -0.7955 -2.0992
   86CHL1   C20 8820   3.799   5.687   8.188 -0.5418 -0.7390 -0.2575
   86CHL1   H20 8821   3.867   5.760   8.137 -2.2976  0.1949 -1.3640
   86CHL1   C21 8822   3.903   5.577   8.238  0.0896 -0.0421  0.5432
   86CHL1  H21A 8823   3.961   5.613   8.325  2.3944  0.3891 -1.0733
   86CHL1  H21B 8824   3.974   5.553   8.156  1.8323 -0.5684  2.1436
   86CHL1  H21C 8825   3.849   5.483   8.262 -0.9770  0.6203  0.7852
   86CHL1   C22 8826   3.723   5.755   8.300  0.4595 -0.2309  0.2239
   86CHL1  H22A 8827   3.669   5.841   8.254  0.9804 -0.3688 -0.6687
   86CHL1  H22B 8828   3.645   5.680   8.324  1.0140 -1.3892 -1.4130
   86CHL1   C23 8829   3.796   5.811   8.421  0.3021  0.3693  0.1854
   86CHL1  H23A 8830   3.722   5.846   8.496 -1.3340 -1.8580 -0.2785
   86CHL1  H23B 8831   3.845   5.721   8.464  0.5785  1.1402  1.5203
   86CHL1   C24 8832   3.903   5.915   8.401 -0.1954 -0.3023  0.4887
   86CHL1  H24A 8833   3.976   5.863   8.336 -3.4799 -2.0885 -2.0346
   86CHL1  H24B 8834   3.870   6.001   8.339  1.9392  0.6977  0.6217
   86CHL1   C25 8835   3.971   5.967   8.534 -0.2518 -0.3937  0.0235
   86CHL1   H25 8836   3.889   5.986   8.607  1.7254 -1.3420  2.6860
   86CHL1   C26 8837   4.058   5.863   8.605 -0.1169  0.2426  0.6440
   86CHL1  H26A 8838   4.135   5.837   8.529  0.5378  2.0566  0.6501
   86CHL1  H26B 8839   4.108   5.910   8.691  0.7105 -0.7001  0.7020
   86CHL1  H26C 8840   3.996   5.775   8.633  2.0280 -1.1578  1.2269
   86CHL1   C27 8841   4.043   6.101   8.515 -0.0732 -0.3350  0.2965
   86CHL1  H27A 8842   3.970   6.178   8.481  1.7792  1.9097  1.1044
   86CHL1  H27B 8843   4.088   6.138   8.610 -1.9345 -2.0232  1.9245
   86CHL1  H27C 8844   4.125   6.099   8.439 -1.7319  1.0051 -1.6195
   87CHL1    C3 8845   4.365   5.512   7.032 -0.0274 -0.4542  0.4101
   87CHL1    H3 8846   4.345   5.621   7.037 -0.4411 -0.5603  3.7951
   87CHL1    O3 8847   4.380   5.456   6.905 -0.0610  0.4058 -0.5793
   87CHL1   H3' 8848   4.443   5.387   6.925 -1.4133 -0.6242  0.2461
   87CHL1    C4 8849   4.496   5.489   7.120 -0.1878 -0.1066  0.2615
   87CHL1   H4A 8850   4.526   5.382   7.116  1.1629  0.2660  0.0669
   87CHL1   H4B 8851   4.574   5.556   7.080 -0.2903 -0.6965 -0.9936
   87CHL1    C5 8852   4.467   5.511   7.270  0.2507 -0.2657  0.9450
   87CHL1    C6 8853   4.532   5.603   7.335  0.2638 -0.1753  0.5843
   87CHL1    H6 8854   4.600   5.666   7.276  1.3600 -1.3199  0.5841
   87CHL1    C7 8855   4.514   5.646   7.478  0.3657 -0.2505 -0.0711
   87CHL1   H7A 8856   4.614   5.669   7.520 -0.0600  0.0342  0.8000
   87CHL1   H7B 8857   4.446   5.734   7.481 -0.7512 -1.0800 -0.3124
   87CHL1    C8 8858   4.440   5.539   7.553  0.5188 -0.4866 -0.3564
   87CHL1    H8 8859   4.508   5.452   7.557 -1.0375 -1.7226  0.2559
   87CHL1   C14 8860   4.399   5.590   7.690  0.0105 -0.0385 -0.0308
   87CHL1   H14 8861   4.330   5.674   7.667 -0.7532 -0.5073  0.5192
   87CHL1   C15 8862   4.504   5.671   7.775 -0.5748 -0.1711 -1.0653
   87CHL1  H15A 8863   4.602   5.618   7.762 -0.8399 -0.4894 -1.8446
   87CHL1  H15B 8864   4.519   5.775   7.740 -0.9129  0.0372 -0.5815
   87CHL1   C16 8865   4.442   5.662   7.916  0.0654 -0.0026 -0.0875
   87CHL1  H16A 8866   4.517   5.629   7.991  0.0842 -0.4504 -0.2985
   87CHL1  H16B 8867   4.402   5.761   7.946  2.4111  0.6700  1.0340
   87CHL1   C17 8868   4.329   5.563   7.904  0.0733  0.1144 -0.1410
   87CHL1   H17 8869   4.234   5.618   7.893 -1.1235 -1.8380 -0.0816
   87CHL1   C13 8870   4.342   5.489   7.782  0.7079  0.4593 -0.9027
   87CHL1   C18 8871   4.441   5.368   7.802  0.0486 -0.0603  0.3457
   87CHL1  H18A 8872   4.519   5.408   7.870 -0.4687  0.9303  0.3883
   87CHL1  H18B 8873   4.393   5.278   7.845  0.8061 -0.8698 -0.4509
   87CHL1  H18C 8874   4.485   5.336   7.706 -0.6547 -0.8404  0.2759
   87CHL1   C12 8875   4.210   5.445   7.710 -0.2060 -0.4772  0.1047
   87CHL1  H12A 8876   4.143   5.384   7.774 -0.6933  0.2157  0.2584
   87CHL1  H12B 8877   4.151   5.536   7.690 -1.7442 -1.4397  0.0842
   87CHL1   C11 8878   4.236   5.390   7.566  0.3782  0.8818 -0.1531
   87CHL1  H11A 8879   4.286   5.291   7.575 -1.0507  0.0814 -0.7125
   87CHL1  H11B 8880   4.140   5.363   7.516 -0.0921 -1.1662  1.6854
   87CHL1    C9 8881   4.318   5.488   7.475  0.4264  0.0313 -0.6223
   87CHL1    H9 8882   4.248   5.572   7.456 -0.1281 -0.7143 -1.9552
   87CHL1   C10 8883   4.344   5.440   7.330 -0.2300 -0.1540 -0.2213
   87CHL1   C19 8884   4.368   5.285   7.332 -0.0475 -0.5448  0.2689
   87CHL1  H19A 8885   4.439   5.253   7.411  0.6320  0.7007  0.1953
   87CHL1  H19B 8886   4.274   5.231   7.356  1.0676 -2.8694 -0.2274
   87CHL1  H19C 8887   4.401   5.251   7.231 -0.1239  0.2765 -0.0444
   87CHL1    C1 8888   4.227   5.481   7.237  0.6531 -0.8992 -0.0572
   87CHL1   H1A 8889   4.131   5.434   7.268 -0.1477 -0.7374 -2.1473
   87CHL1   H1B 8890   4.220   5.590   7.256  1.1647 -0.9967  0.7462
   87CHL1    C2 8891   4.241   5.444   7.094  0.3874  0.2338  0.0753
   87CHL1   H2A 8892   4.155   5.482   7.035 -0.8195 -0.6700  1.2150
   87CHL1   H2B 8893   4.243   5.334   7.086 -0.2537  0.2047  0.2747
   87CHL1   C20 8894   4.312   5.476   8.035  0.1493 -0.3213 -0.3323
   87CHL1   H20 8895   4.405   5.418   8.050  0.3794  0.4523  1.5303
   87CHL1   C21 8896   4.189   5.385   8.031  0.1103 -0.6273 -0.2743
   87CHL1  H21A 8897   4.095   5.434   7.998 -0.5292 -0.5627  1.5457
   87CHL1  H21B 8898   4.165   5.352   8.134 -0.6606  0.8181  0.0340
   87CHL1  H21C 8899   4.208   5.293   7.971  1.8685  0.9942 -2.4037
   87CHL1   C22 8900   4.302   5.563   8.166  0.5786 -0.0368 -0.0724
   87CHL1  H22A 8901   4.390   5.630   8.157 -0.6189  1.3217 -3.3781
   87CHL1  H22B 8902   4.207   5.622   8.167 -0.3294 -1.3682 -1.7970
   87CHL1   C23 8903   4.324   5.498   8.311 -0.0587 -0.3868 -0.0368
   87CHL1  H23A 8904   4.263   5.406   8.320 -0.5838  0.1843  3.2797
   87CHL1  H23B 8905   4.430   5.467   8.300  0.7089  1.8896  0.4503
   87CHL1   C24 8906   4.307   5.585   8.436 -0.1773 -0.4754 -0.2990
   87CHL1  H24A 8907   4.372   5.675   8.434 -1.9865  0.9292  0.8463
   87CHL1  H24B 8908   4.198   5.605   8.447 -0.4572 -0.8426 -2.0928
   87CHL1   C25 8909   4.357   5.509   8.561 -0.3568 -0.1379  0.5646
   87CHL1   H25 8910   4.323   5.566   8.651 -0.0047 -0.9762  1.2491
   87CHL1   C26 8911   4.316   5.365   8.577 -0.0633  0.0243  0.0213
   87CHL1  H26A 8912   4.206   5.357   8.562  0.0340  0.4611 -1.0597
   87CHL1  H26B 8913   4.357   5.301   8.496  1.7257 -0.3478  1.1719
   87CHL1  H26C 8914   4.360   5.325   8.671  0.0548 -2.5023 -1.0491
   87CHL1   C27 8915   4.512   5.521   8.569 -0.3179  0.0028  0.2386
   87CHL1  H27A 8916   4.554   5.466   8.482  0.1868 -4.5883  3.0241
   87CHL1  H27B 8917   4.549   5.625   8.561  0.6573 -0.3795 -0.4569
   87CHL1  H27C 8918   4.561   5.476   8.659 -0.7092 -1.3018 -0.1709
   88CHL1    C3 8919   0.001   4.992   7.135  0.5892 -0.4494 -0.2803
   88CHL1    H3 8920  -0.074   4.911   7.147 -0.6303  0.7345  0.3789
   88CHL1    O3 8921  -0.000   5.018   6.997 -0.0969  0.2106 -0.2819
   88CHL1   H3' 8922   0.042   4.946   6.951  1.9903  2.7414 -2.7374
   88CHL1    C4 8923  -0.036   5.118   7.213  0.1032 -0.2722 -0.7973
   88CHL1   H4A 8924   0.033   5.203   7.192 -2.6032  1.9165 -1.3277
   88CHL1   H4B 8925  -0.131   5.162   7.176 -1.0706 -1.1998  0.9539
   88CHL1    C5 8926  -0.045   5.092   7.365 -0.8867  0.2597 -0.3488
   88CHL1    C6 8927  -0.153   5.120   7.440  0.8294  0.0323 -0.1788
   88CHL1    H6 8928  -0.241   5.166   7.393  0.9111  0.6980  0.3098
   88CHL1    C7 8929  -0.158   5.100   7.589  0.3793  0.9041  0.5387
   88CHL1   H7A 8930  -0.195   5.188   7.645 -1.4025 -0.3848  1.4816
   88CHL1   H7B 8931  -0.244   5.031   7.603  0.8584  0.1422 -0.1727
   88CHL1    C8 8932  -0.036   5.046   7.662 -0.0198  0.2376  0.2463
   88CHL1    H8 8933   0.022   5.140   7.678 -1.5395  1.0154  1.5109
   88CHL1   C14 8934  -0.058   4.992   7.804  0.3322  0.5736 -0.5172
   88CHL1   H14 8935  -0.120   4.900   7.803 -0.2261  0.8971  1.1515
   88CHL1   C15 8936  -0.142   5.086   7.904 -0.4886  0.6276  0.0557
   88CHL1  H15A 8937  -0.111   5.190   7.882  0.4740 -0.2840 -3.6383
   88CHL1  H15B 8938  -0.251   5.075   7.888 -1.0435  2.2041  2.2272
   88CHL1   C16 8939  -0.092   5.026   8.041 -0.0181  0.3825 -0.6972
   88CHL1  H16A 8940  -0.050   5.115   8.092  0.7866 -0.7643  0.7211
   88CHL1  H16B 8941  -0.174   4.992   8.108  1.2097  0.0458  0.6917
   88CHL1   C17 8942   0.014   4.915   8.017  0.4516 -0.0641 -0.2155
   88CHL1   H17 8943  -0.041   4.819   8.007  1.0983 -0.4297 -0.3606
   88CHL1   C13 8944   0.072   4.949   7.882 -0.1837 -0.2230  0.4440
   88CHL1   C18 8945   0.166   5.071   7.894 -0.2603  0.6190  0.1333
   88CHL1  H18A 8946   0.223   5.102   7.804  0.5566 -0.8819  0.1098
   88CHL1  H18B 8947   0.122   5.159   7.945 -1.8092 -0.6962  1.1725
   88CHL1  H18C 8948   0.250   5.043   7.961 -0.9027  0.0474  0.7270
   88CHL1   C12 8949   0.138   4.837   7.794  0.0741  0.1497  0.0079
   88CHL1  H12A 8950   0.237   4.813   7.837 -0.6087  0.3572  1.7632
   88CHL1  H12B 8951   0.071   4.749   7.801 -0.1494  0.3953  1.1824
   88CHL1   C11 8952   0.154   4.877   7.645 -1.0402 -0.7050 -0.2760
   88CHL1  H11A 8953   0.242   4.945   7.645 -0.9743 -0.7769  0.3581
   88CHL1  H11B 8954   0.167   4.785   7.586 -2.1613 -0.9216 -0.2130
   88CHL1    C9 8955   0.042   4.952   7.573  0.1522 -0.2550  0.4760
   88CHL1    H9 8956  -0.035   4.875   7.549  1.0039 -0.6102 -1.2678
   88CHL1   C10 8957   0.070   5.014   7.435  0.6643  0.2408  0.4411
   88CHL1   C19 8958   0.187   5.107   7.451  0.0745 -0.3780  0.2868
   88CHL1  H19A 8959   0.275   5.050   7.487  0.2654 -0.6468 -0.5952
   88CHL1  H19B 8960   0.220   5.160   7.359  2.4542  0.0812  1.3219
   88CHL1  H19C 8961   0.168   5.188   7.526  0.9200  0.3497 -0.2580
   88CHL1    C1 8962   0.116   4.902   7.339  0.4856  0.3780  0.8868
   88CHL1   H1A 8963   0.201   4.853   7.390  0.8736  1.0171  0.8697
   88CHL1   H1B 8964   0.041   4.821   7.336  0.5814  0.0985  3.4752
   88CHL1    C2 8965   0.130   4.941   7.185 -0.1534 -0.6777 -0.2787
   88CHL1   H2A 8966   0.166   4.852   7.129  0.2274 -0.0438 -1.0655
   88CHL1   H2B 8967   0.209   5.020   7.182 -0.7408  0.0014  1.2793
   88CHL1   C20 8968   0.117   4.906   8.139 -0.0158 -0.8972  0.5759
   88CHL1   H20 8969   0.165   5.006   8.138 -1.5503 -0.1418 -0.1719
   88CHL1   C21 8970   0.226   4.806   8.116  0.7196  0.6299 -0.0460
   88CHL1  H21A 8971   0.268   4.772   8.213 -0.6576 -1.1661 -0.0142
   88CHL1  H21B 8972   0.305   4.831   8.042  0.7084 -0.4711 -0.4656
   88CHL1  H21C 8973   0.180   4.712   8.077  0.9966  0.8999 -1.0464
   88CHL1   C22 8974   0.038   4.880   8.271 -1.1441 -0.2802 -0.7690
   88CHL1  H22A 8975  -0.060   4.932   8.279 -1.7901 -1.6169  0.2868
   88CHL1  H22B 8976   0.010   4.773   8.270 -0.0251 -0.6047  0.4980
   88CHL1   C23 8977   0.098   4.913   8.411 -0.1569  0.1539 -0.2872
   88CHL1  H23A 8978   0.185   4.845   8.424  0.5082  1.1155  0.3736
   88CHL1  H23B 8979   0.146   5.012   8.398  0.4130 -0.1606 -0.6111
   88CHL1   C24 8980  -0.007   4.910   8.523 -0.5709  0.1758  0.3069
   88CHL1  H24A 8981  -0.076   4.996   8.509 -0.8637 -0.2815 -1.2952
   88CHL1  H24B 8982  -0.055   4.810   8.515 -0.6192 -0.2078  3.8379
   88CHL1   C25 8983   0.058   4.913   8.662 -0.3436  0.6366 -0.3209
   88CHL1   H25 8984   0.136   4.833   8.662 -0.9092  0.0323  1.4721
   88CHL1   C26 8985   0.135   5.036   8.699 -0.1844  0.0547 -0.1140
   88CHL1  H26A 8986   0.067   5.123   8.695 -0.8016 -0.4672 -1.3924
   88CHL1  H26B 8987   0.187   5.039   8.798  1.3981  0.9473 -0.9445
   88CHL1  H26C 8988   0.214   5.051   8.623 -0.7964  0.2730 -0.7136
   88CHL1   C27 8989  -0.054   4.880   8.760 -0.2349  0.8033 -0.5273
   88CHL1  H27A 8990  -0.010   4.861   8.860 -1.3236  1.0126  0.0004
   88CHL1  H27B 8991  -0.142   4.948   8.761  0.3581  1.5851 -0.2008
   88CHL1  H27C 8992  -0.096   4.782   8.730  2.2494 -0.2937 -0.6231
   89CHL1    C3 8993   3.995   5.943   7.215  0.1979 -0.5149  0.3119
   89CHL1    H3 8994   3.951   5.865   7.281 -0.2904 -1.3634 -0.9629
   89CHL1    O3 8995   3.952   5.928   7.080  0.0296  0.2843  0.0313
   89CHL1   H3' 8996   3.990   6.000   7.029  1.8397 -0.6536  0.0057
   89CHL1    C4 8997   3.957   6.083   7.272  0.1580 -0.2845  0.6820
   89CHL1   H4A 8998   4.004   6.158   7.204 -1.8224  0.0674 -0.3861
   89CHL1   H4B 8999   3.850   6.105   7.252  0.4412 -0.4208 -1.2463
   89CHL1    C5 9000   4.008   6.091   7.419  1.3021 -0.9024  0.0367
   89CHL1    C6 9001   3.908   6.110   7.509  1.2655  0.2823 -0.5922
   89CHL1    H6 9002   3.805   6.118   7.470 -0.6269 -2.0843  3.2549
   89CHL1    C7 9003   3.930   6.106   7.659 -0.2327  0.1326  0.4058
   89CHL1   H7A 9004   3.866   6.183   7.707  0.7135  2.3146 -1.5889
   89CHL1   H7B 9005   3.910   6.004   7.699 -1.1954  0.2449  0.2391
   89CHL1    C8 9006   4.077   6.128   7.689  0.2194  0.1344  0.3176
   89CHL1    H8 9007   4.090   6.237   7.669  0.1736  0.2304  0.7929
   89CHL1   C14 9008   4.107   6.092   7.835 -0.0950  0.4624  0.4348
   89CHL1   H14 9009   4.083   5.984   7.840 -0.0202  0.4608  0.7891
   89CHL1   C15 9010   4.013   6.145   7.948 -0.3515  0.9515 -0.1585
   89CHL1  H15A 9011   3.994   6.254   7.942 -0.2376  1.0032  0.3507
   89CHL1  H15B 9012   3.917   6.090   7.956  0.0152  0.1443 -1.0943
   89CHL1   C16 9013   4.098   6.121   8.076  0.1352 -0.3192 -0.4168
   89CHL1  H16A 9014   4.108   6.224   8.116  1.0852 -0.9398  1.0639
   89CHL1  H16B 9015   4.040   6.069   8.156 -1.5916  2.7999  0.5131
   89CHL1   C17 9016   4.230   6.064   8.029  0.2613  0.6488  0.6427
   89CHL1   H17 9017   4.217   5.953   8.031  0.5293  0.6199  0.8395
   89CHL1   C13 9018   4.249   6.106   7.877 -0.0164 -0.2231  0.0819
   89CHL1   C18 9019   4.296   6.259   7.868  0.5870 -0.2767  0.2080
   89CHL1  H18A 9020   4.267   6.290   7.766 -0.1865 -2.0376 -0.1338
   89CHL1  H18B 9021   4.222   6.316   7.929  1.7056 -0.2541  1.6020
   89CHL1  H18C 9022   4.404   6.271   7.892  0.1288 -0.6129  2.7725
   89CHL1   C12 9023   4.338   6.009   7.786 -0.3209  0.2141 -0.3981
   89CHL1  H12A 9024   4.442   6.014   7.825 -1.0948 -0.2216  1.8071
   89CHL1  H12B 9025   4.296   5.907   7.799 -0.4891  0.5216  1.8228
   89CHL1   C11 9026   4.322   6.043   7.642 -0.2151 -0.1543 -0.4977
   89CHL1  H11A 9027   4.364   6.144   7.627  1.9218 -1.1605 -1.7665
   89CHL1  H11B 9028   4.371   5.975   7.569 -2.3042 -0.2558 -1.9344
   89CHL1    C9 9029   4.171   6.042   7.599  1.0890  0.1027  0.2671
   89CHL1    H9 9030   4.147   5.935   7.615  1.1838 -0.3744 -2.2406
   89CHL1   C10 9031   4.145   6.058   7.450 -0.3725 -0.1357  0.1106
   89CHL1   C19 9032   4.212   6.192   7.402  0.6014 -0.6212  0.1332
   89CHL1  H19A 9033   4.322   6.182   7.414  0.5976  1.7573  4.0274
   89CHL1  H19B 9034   4.180   6.221   7.300 -1.0008  0.8031  0.9740
   89CHL1  H19C 9035   4.183   6.281   7.463  2.0589  0.8327 -1.1780
   89CHL1    C1 9036   4.200   5.933   7.365  0.7555 -1.0430  0.2835
   89CHL1   H1A 9037   4.311   5.939   7.363  0.6648  1.2072 -0.2354
   89CHL1   H1B 9038   4.157   5.850   7.425  0.6728  0.7108  2.7999
   89CHL1    C2 9039   4.150   5.929   7.222 -0.2163 -0.3893  0.5598
   89CHL1   H2A 9040   4.183   5.831   7.180  2.9395  0.9133 -0.2652
   89CHL1   H2B 9041   4.189   6.014   7.162 -3.0371  0.3950 -0.3614
   89CHL1   C20 9042   4.345   6.102   8.126 -0.0492  0.2895  0.1836
   89CHL1   H20 9043   4.442   6.084   8.074  0.8505  1.1425  1.5017
   89CHL1   C21 9044   4.344   6.002   8.242  0.0210  0.2686  0.5282
   89CHL1  H21A 9045   4.434   6.012   8.306 -1.0790 -1.0052  2.3758
   89CHL1  H21B 9046   4.320   5.897   8.215  1.5442 -0.1141  0.5531
   89CHL1  H21C 9047   4.259   6.034   8.306 -2.5497  4.1234 -4.1815
   89CHL1   C22 9048   4.344   6.245   8.191  0.1838  0.3957  0.5800
   89CHL1  H22A 9049   4.299   6.322   8.124  1.2435  1.4171  1.0080
   89CHL1  H22B 9050   4.269   6.242   8.273  0.2203 -0.6317  0.5838
   89CHL1   C23 9051   4.475   6.311   8.226  0.3935  0.5309 -0.0631
   89CHL1  H23A 9052   4.512   6.244   8.305 -1.4493 -0.2648  0.1731
   89CHL1  H23B 9053   4.540   6.309   8.136 -1.3125 -1.4141 -1.3275
   89CHL1   C24 9054   4.464   6.459   8.276 -0.7645  0.3171 -0.0843
   89CHL1  H24A 9055   4.400   6.517   8.205 -1.0923  2.0527  1.5564
   89CHL1  H24B 9056   4.416   6.457   8.376 -0.2373  0.5675  0.1718
   89CHL1   C25 9057   4.602   6.526   8.288  1.0697  0.2704 -0.0079
   89CHL1   H25 9058   4.652   6.520   8.189 -0.7956  0.1897 -1.0025
   89CHL1   C26 9059   4.571   6.667   8.318 -0.1944  0.5457  0.7802
   89CHL1  H26A 9060   4.663   6.714   8.357  0.7265  0.7067 -1.4293
   89CHL1  H26B 9061   4.540   6.726   8.229 -1.1967  0.0367  0.7723
   89CHL1  H26C 9062   4.493   6.682   8.395  0.2912  0.1174  1.3645
   89CHL1   C27 9063   4.697   6.464   8.389 -0.5734 -0.4643 -0.3997
   89CHL1  H27A 9064   4.731   6.361   8.364 -0.6879 -0.7091  0.4251
   89CHL1  H27B 9065   4.786   6.530   8.391 -1.6896  1.0707 -0.2029
   89CHL1  H27C 9066   4.658   6.473   8.492  1.3082 -1.3323  0.4323
   90CHL1    C3 9067   3.646   1.637   7.040  0.4819 -0.6908 -0.4611
   90CHL1    H3 9068   3.755   1.650   7.022  0.3276 -1.6285 -2.3203
   90CHL1    O3 9069   3.568   1.637   6.917 -0.4278  0.1613 -0.2561
   90CHL1   H3' 9070   3.591   1.551   6.879  1.7116  0.1818  0.7885
   90CHL1    C4 9071   3.604   1.516   7.124 -0.3394 -0.2608 -0.1101
   90CHL1   H4A 9072   3.495   1.532   7.137 -0.0718  2.9325 -0.8229
   90CHL1   H4B 9073   3.623   1.422   7.069  0.6246 -1.3623  1.9933
   90CHL1    C5 9074   3.666   1.511   7.256 -0.0618  0.4698 -0.4825
   90CHL1    C6 9075   3.751   1.407   7.292 -0.5132 -0.0702  0.0301
   90CHL1    H6 9076   3.775   1.323   7.225  2.1666  0.4398  0.2682
   90CHL1    C7 9077   3.812   1.390   7.428  0.0819 -0.0174 -0.6191
   90CHL1   H7A 9078   3.790   1.288   7.467 -1.5447  0.6204  0.2110
   90CHL1   H7B 9079   3.922   1.409   7.433  0.0621 -0.1160  0.7688
   90CHL1    C8 9080   3.751   1.497   7.536  0.5010 -0.1685 -0.0998
   90CHL1    H8 9081   3.648   1.469   7.566 -0.7356  4.1829  0.4292
   90CHL1   C14 9082   3.844   1.500   7.660 -0.3450  0.4194 -0.2494
   90CHL1   H14 9083   3.945   1.524   7.621  0.7748 -1.8438  1.0714
   90CHL1   C15 9084   3.868   1.368   7.734  0.6074 -1.2895 -0.3096
   90CHL1  H15A 9085   3.769   1.318   7.746  0.4349 -0.7183  0.7577
   90CHL1  H15B 9086   3.933   1.297   7.678  0.3120 -2.2447  0.5266
   90CHL1   C16 9087   3.929   1.413   7.868 -0.0926 -0.1786  0.1979
   90CHL1  H16A 9088   3.882   1.355   7.950  2.0945 -2.8511 -0.2771
   90CHL1  H16B 9089   4.040   1.408   7.873  0.0363  0.5716 -1.2708
   90CHL1   C17 9090   3.910   1.570   7.871  0.0229 -0.5632 -0.1591
   90CHL1   H17 9091   4.004   1.617   7.833 -0.2954 -0.1485 -0.4444
   90CHL1   C13 9092   3.802   1.603   7.763 -0.0905  0.2698  0.1175
   90CHL1   C18 9093   3.659   1.572   7.823 -0.0874  0.2883  0.3638
   90CHL1  H18A 9094   3.636   1.472   7.867 -0.3122  1.3698  2.9107
   90CHL1  H18B 9095   3.657   1.641   7.910 -0.2234 -2.2175  2.4820
   90CHL1  H18C 9096   3.578   1.605   7.755 -1.6897 -0.3031  1.8899
   90CHL1   C12 9097   3.814   1.745   7.694  0.5705  0.2587 -0.2601
   90CHL1  H12A 9098   3.764   1.816   7.764 -0.6368  0.0526 -0.8856
   90CHL1  H12B 9099   3.922   1.769   7.683  0.1516  2.7522  0.4157
   90CHL1   C11 9100   3.737   1.755   7.562  0.2070 -0.0938 -0.3664
   90CHL1  H11A 9101   3.630   1.780   7.580  1.0521  3.5550  0.6395
   90CHL1  H11B 9102   3.776   1.843   7.506  0.2884  1.3177  1.7816
   90CHL1    C9 9103   3.752   1.632   7.464  0.3344 -0.4582 -0.2379
   90CHL1    H9 9104   3.849   1.637   7.410  0.5632  0.6130  0.2659
   90CHL1   C10 9105   3.643   1.634   7.350  0.4416  0.8297  0.7885
   90CHL1   C19 9106   3.499   1.624   7.402 -0.2996  0.1146 -0.2395
   90CHL1  H19A 9107   3.464   1.538   7.462 -0.6827 -0.5138 -1.3206
   90CHL1  H19B 9108   3.493   1.712   7.469  1.2380 -1.1817  1.6850
   90CHL1  H19C 9109   3.430   1.643   7.317 -1.5777  0.7010  0.9028
   90CHL1    C1 9110   3.663   1.767   7.266  0.1856 -0.2820  0.5291
   90CHL1   H1A 9111   3.618   1.850   7.326  1.6965 -0.2883  1.7402
   90CHL1   H1B 9112   3.771   1.792   7.257  0.2027 -1.2455 -4.4203
   90CHL1    C2 9113   3.602   1.761   7.119 -0.1840  0.0153 -0.9370
   90CHL1   H2A 9114   3.640   1.854   7.072 -2.7382  1.3417 -0.5828
   90CHL1   H2B 9115   3.491   1.768   7.120 -0.1926 -0.1253 -0.7396
   90CHL1   C20 9116   3.904   1.622   8.017  0.1349  0.2572 -1.0926
   90CHL1   H20 9117   3.822   1.571   8.073  2.2785 -2.5349 -0.2324
   90CHL1   C21 9118   3.880   1.772   8.028  0.3528 -0.0062 -0.4274
   90CHL1  H21A 9119   3.781   1.805   7.990  0.2220 -1.5404 -1.5053
   90CHL1  H21B 9120   3.957   1.831   7.975 -0.7373  1.9865  0.1087
   90CHL1  H21C 9121   3.869   1.799   8.135  0.9109 -1.2536 -0.0345
   90CHL1   C22 9122   4.035   1.579   8.100  0.1618 -0.2874  0.7528
   90CHL1  H22A 9123   4.093   1.487   8.076  1.3828  0.1599  1.8732
   90CHL1  H22B 9124   4.101   1.667   8.081 -2.6361  1.7204 -0.4774
   90CHL1   C23 9125   3.998   1.561   8.248 -0.0337  0.1187 -0.2948
   90CHL1  H23A 9126   3.937   1.650   8.274 -1.0243 -0.5860 -0.1181
   90CHL1  H23B 9127   3.932   1.472   8.264 -0.1304  0.3824  0.9120
   90CHL1   C24 9128   4.121   1.554   8.344  0.0674 -0.5975 -0.4458
   90CHL1  H24A 9129   4.210   1.502   8.302  0.8269  0.3361 -0.0169
   90CHL1  H24B 9130   4.157   1.659   8.352  1.8246 -1.1660 -0.5103
   90CHL1   C25 9131   4.081   1.496   8.485  0.3359 -0.1317 -0.1833
   90CHL1   H25 9132   4.031   1.401   8.458 -0.1078  0.2455 -0.7222
   90CHL1   C26 9133   4.196   1.455   8.577 -0.0819  0.3871  0.1087
   90CHL1  H26A 9134   4.268   1.538   8.588 -0.6439  1.5403 -3.6996
   90CHL1  H26B 9135   4.159   1.418   8.676  1.3743 -0.4142  0.3936
   90CHL1  H26C 9136   4.256   1.370   8.536  0.8916  0.5419  1.1421
   90CHL1   C27 9137   3.984   1.578   8.567  0.3376 -0.2770 -0.3211
   90CHL1  H27A 9138   4.029   1.675   8.598  0.6780 -0.8831  1.1647
   90CHL1  H27B 9139   3.892   1.601   8.508  0.3018 -0.4260 -0.3247
   90CHL1  H27C 9140   3.952   1.529   8.662  1.5580 -2.0826 -0.7836
   91CHL1    C3 9141   6.733   3.483   7.221 -0.2391  0.3807  0.2664
   91CHL1    H3 9142   6.840   3.511   7.212 -0.2065  0.1682 -0.0032
   91CHL1    O3 9143   6.698   3.399   7.116  0.5229  0.3640 -0.3979
   91CHL1   H3' 9144   6.724   3.442   7.035  0.8676  1.8197  0.4466
   91CHL1    C4 9145   6.722   3.411   7.361  0.0581  0.4731  1.1853
   91CHL1   H4A 9146   6.623   3.360   7.364 -0.0161  0.5799  0.5383
   91CHL1   H4B 9147   6.807   3.341   7.349  1.1194  2.2068 -2.9447
   91CHL1    C5 9148   6.747   3.499   7.480  0.5871  0.3086  0.4955
   91CHL1    C6 9149   6.826   3.468   7.578 -0.9049  0.4509 -0.0046
   91CHL1    H6 9150   6.874   3.369   7.579  1.4574  1.4432 -2.1300
   91CHL1    C7 9151   6.850   3.560   7.701  0.1754  0.0756  0.4869
   91CHL1   H7A 9152   6.857   3.498   7.792  1.1606  0.2952  0.5691
   91CHL1   H7B 9153   6.951   3.605   7.689  0.7387 -1.3894 -0.5944
   91CHL1    C8 9154   6.739   3.670   7.715 -0.2923  0.6795 -0.5981
   91CHL1    H8 9155   6.641   3.624   7.742  0.5835 -1.1476 -0.4393
   91CHL1   C14 9156   6.777   3.771   7.824 -0.5675  0.3999 -0.5280
   91CHL1   H14 9157   6.867   3.826   7.790  0.4205 -1.3061 -0.7733
   91CHL1   C15 9158   6.805   3.731   7.961  0.6992 -0.2722  0.4287
   91CHL1  H15A 9159   6.713   3.678   7.996 -0.6311 -0.4029 -2.8692
   91CHL1  H15B 9160   6.887   3.659   7.978 -0.8365 -2.2260 -0.0332
   91CHL1   C16 9161   6.818   3.864   8.035 -0.0361  0.0842  0.7295
   91CHL1  H16A 9162   6.769   3.863   8.135 -0.4840  0.5982  0.5171
   91CHL1  H16B 9163   6.917   3.913   8.052  0.1150 -0.3186  1.0561
   91CHL1   C17 9164   6.745   3.971   7.955 -0.2928  0.1139  0.0902
   91CHL1   H17 9165   6.822   4.037   7.911 -1.3036  2.0073  1.0310
   91CHL1   C13 9166   6.681   3.890   7.838  0.1223 -0.8895  0.5940
   91CHL1   C18 9167   6.541   3.841   7.873 -0.0847  0.2294  0.1625
   91CHL1  H18A 9168   6.492   3.789   7.788 -0.1908 -0.6162  0.7290
   91CHL1  H18B 9169   6.532   3.765   7.954 -0.8801 -1.3681 -1.3587
   91CHL1  H18C 9170   6.475   3.925   7.902  0.7326 -0.1543  3.5587
   91CHL1   C12 9171   6.679   3.965   7.707 -0.7688  0.0118  0.5723
   91CHL1  H12A 9172   6.611   4.052   7.716 -0.5524  0.1395  1.0611
   91CHL1  H12B 9173   6.782   4.000   7.684 -0.9550 -0.9674 -2.0030
   91CHL1   C11 9174   6.642   3.883   7.583  0.5544  0.3932  0.2280
   91CHL1  H11A 9175   6.538   3.843   7.582  0.3633  0.8818 -1.0693
   91CHL1  H11B 9176   6.651   3.938   7.487 -1.4708  0.1417 -0.1513
   91CHL1    C9 9177   6.720   3.742   7.582  0.7947 -0.1675 -0.1552
   91CHL1    H9 9178   6.824   3.770   7.558  0.6625 -0.4139 -1.0443
   91CHL1   C10 9179   6.673   3.635   7.480 -0.2557  0.3789 -0.4608
   91CHL1   C19 9180   6.519   3.618   7.492  0.2756 -0.0650 -0.2413
   91CHL1  H19A 9181   6.469   3.712   7.461 -2.2932 -1.4197 -0.5150
   91CHL1  H19B 9182   6.485   3.534   7.427  0.3616 -2.2441  2.3335
   91CHL1  H19C 9183   6.490   3.598   7.598 -0.2628  1.6483 -0.0386
   91CHL1    C1 9184   6.696   3.706   7.340  0.0023 -0.3851 -0.7173
   91CHL1   H1A 9185   6.630   3.795   7.331 -1.1964 -0.7957  2.6174
   91CHL1   H1B 9186   6.803   3.734   7.346 -0.0561 -0.1654 -0.6989
   91CHL1    C2 9187   6.664   3.625   7.219  0.3310  0.5459 -0.4123
   91CHL1   H2A 9188   6.679   3.679   7.124  1.2720  0.1314 -0.5101
   91CHL1   H2B 9189   6.553   3.613   7.221  0.3061  0.7267 -0.6922
   91CHL1   C20 9190   6.661   4.057   8.046  1.2697 -0.5457 -0.0800
   91CHL1   H20 9191   6.572   3.996   8.076  0.8075 -1.0478 -2.3386
   91CHL1   C21 9192   6.603   4.175   7.957  0.8335 -0.0645  0.1383
   91CHL1  H21A 9193   6.681   4.213   7.887 -0.1760  1.5724 -0.1411
   91CHL1  H21B 9194   6.584   4.261   8.025 -0.3612 -0.1125 -0.1193
   91CHL1  H21C 9195   6.508   4.144   7.909  2.9495 -1.1164 -3.8343
   91CHL1   C22 9196   6.722   4.107   8.178 -0.6447 -0.3218 -0.2634
   91CHL1  H22A 9197   6.645   4.145   8.248 -0.9861  0.4255 -1.0239
   91CHL1  H22B 9198   6.758   4.016   8.231 -0.2431 -1.0481 -1.7196
   91CHL1   C23 9199   6.842   4.202   8.155  0.5362  0.2495  0.5133
   91CHL1  H23A 9200   6.916   4.150   8.090  0.2577  0.5695 -0.0707
   91CHL1  H23B 9201   6.819   4.300   8.108 -1.6386 -1.1544 -1.6161
   91CHL1   C24 9202   6.896   4.236   8.293  0.1325 -0.0855  0.5398
   91CHL1  H24A 9203   6.833   4.309   8.347  2.5539  1.2104  1.7446
   91CHL1  H24B 9204   6.897   4.141   8.351 -0.4086 -0.1619  0.4263
   91CHL1   C25 9205   7.028   4.313   8.307  0.6994  0.5778 -0.1528
   91CHL1   H25 9206   7.033   4.336   8.415  0.4238  1.1960 -0.2690
   91CHL1   C26 9207   7.143   4.218   8.269  0.7180  0.4665 -0.3353
   91CHL1  H26A 9208   7.123   4.179   8.167 -0.6947  2.0521 -0.7191
   91CHL1  H26B 9209   7.231   4.282   8.250  2.1609 -2.0849 -3.1853
   91CHL1  H26C 9210   7.164   4.143   8.348  1.1498 -0.2295 -1.0947
   91CHL1   C27 9211   7.025   4.435   8.224 -0.3452 -0.1959 -0.5213
   91CHL1  H27A 9212   7.127   4.478   8.220  0.6330 -2.1654  1.1899
   91CHL1  H27B 9213   6.996   4.416   8.119 -1.1408 -1.0574 -0.1659
   91CHL1  H27C 9214   6.953   4.516   8.247 -1.3456 -0.8487 -1.2283
   92CHL1    C3 9215   2.259   5.138   6.865 -0.2670 -0.4091 -0.2532
   92CHL1    H3 9216   2.182   5.060   6.851 -0.5284 -0.2161  0.1164
   92CHL1    O3 9217   2.291   5.192   6.738 -0.5849  0.3279 -0.0780
   92CHL1   H3' 9218   2.337   5.275   6.754 -0.3318  0.1989 -0.1326
   92CHL1    C4 9219   2.206   5.252   6.952  0.9360  0.0612 -0.4502
   92CHL1   H4A 9220   2.283   5.332   6.961  0.8971 -0.0784  2.0268
   92CHL1   H4B 9221   2.119   5.298   6.903 -0.1391  0.2610  1.5297
   92CHL1    C5 9222   2.162   5.214   7.091  0.4561  0.9120 -0.1984
   92CHL1    C6 9223   2.042   5.225   7.129  0.2722  0.6734 -0.4943
   92CHL1    H6 9224   1.977   5.273   7.055  0.7551 -1.5402 -2.4835
   92CHL1    C7 9225   1.987   5.164   7.257 -0.6840  0.5404  0.2302
   92CHL1   H7A 9226   1.908   5.230   7.298 -1.3980  0.1723 -0.5117
   92CHL1   H7B 9227   1.943   5.065   7.233  1.4619 -0.5435  0.5477
   92CHL1    C8 9228   2.103   5.145   7.357  0.4046  0.3611 -0.0217
   92CHL1    H8 9229   2.142   5.243   7.391  0.1832  0.6267 -0.5336
   92CHL1   C14 9230   2.039   5.076   7.481 -0.4006 -0.7446 -0.3285
   92CHL1   H14 9231   2.004   4.973   7.458 -0.1143 -0.6021 -1.5112
   92CHL1   C15 9232   1.931   5.158   7.553 -0.3788 -0.0948 -0.0963
   92CHL1  H15A 9233   1.946   5.268   7.547 -3.7561  0.4069 -1.7804
   92CHL1  H15B 9234   1.839   5.134   7.497 -0.8454  0.2223  0.5277
   92CHL1   C16 9235   1.931   5.107   7.695 -0.1575 -0.2254  0.1197
   92CHL1  H16A 9236   1.932   5.205   7.746 -1.6044  0.8437 -1.7588
   92CHL1  H16B 9237   1.848   5.043   7.733 -0.0849 -0.6121 -0.3657
   92CHL1   C17 9238   2.060   5.008   7.702  0.4316  0.2245 -0.9477
   92CHL1   H17 9239   2.014   4.910   7.679 -0.7038  0.5473 -0.1418
   92CHL1   C13 9240   2.147   5.049   7.584  0.1744  0.6579  0.5114
   92CHL1   C18 9241   2.229   5.173   7.634 -0.6851  0.1957 -0.0767
   92CHL1  H18A 9242   2.170   5.231   7.708 -2.7143 -0.1400 -1.3382
   92CHL1  H18B 9243   2.314   5.131   7.693 -1.5059  1.1232  1.8733
   92CHL1  H18C 9244   2.267   5.239   7.554 -2.0544 -0.5660 -1.4029
   92CHL1   C12 9245   2.248   4.952   7.513  0.8121  0.4591 -0.2044
   92CHL1  H12A 9246   2.334   4.932   7.580  1.8480  0.4018 -1.5150
   92CHL1  H12B 9247   2.187   4.862   7.487 -1.6807  2.8877 -3.6803
   92CHL1   C11 9248   2.316   5.012   7.390 -0.1349  1.3048 -0.8589
   92CHL1  H11A 9249   2.367   5.104   7.424  2.2785 -0.9534  2.1907
   92CHL1  H11B 9250   2.399   4.949   7.351  0.7346 -0.4421  3.3261
   92CHL1    C9 9251   2.209   5.057   7.291  0.0558 -0.4626 -0.5849
   92CHL1    H9 9252   2.157   4.967   7.253 -0.3802 -0.9267  1.0629
   92CHL1   C10 9253   2.272   5.132   7.173 -0.4819  0.4817  0.8880
   92CHL1   C19 9254   2.370   5.245   7.219 -0.8240  0.5923 -0.8425
   92CHL1  H19A 9255   2.458   5.199   7.270 -1.8299  0.7384  1.1484
   92CHL1  H19B 9256   2.429   5.287   7.135  2.5760 -2.1052 -0.0503
   92CHL1  H19C 9257   2.319   5.325   7.278 -0.5262  1.7134 -2.0718
   92CHL1    C1 9258   2.352   5.027   7.084 -0.1989  0.0803  0.6349
   92CHL1   H1A 9259   2.445   4.996   7.136 -0.5274  1.7059  2.2965
   92CHL1   H1B 9260   2.280   4.942   7.081 -1.1683  0.7739  2.4774
   92CHL1    C2 9261   2.388   5.086   6.937 -0.3979  0.0807 -0.3846
   92CHL1   H2A 9262   2.424   4.996   6.881 -0.4866 -0.4641  0.4142
   92CHL1   H2B 9263   2.475   5.155   6.947  0.9830 -1.8313  2.0495
   92CHL1   C20 9264   2.132   4.986   7.841  0.4978 -0.2612 -0.4358
   92CHL1   H20 9265   2.202   5.071   7.856  3.0690 -2.4694  1.0822
   92CHL1   C21 9266   2.219   4.863   7.840  0.4681 -0.6173 -0.0014
   92CHL1  H21A 9267   2.294   4.868   7.758  0.7660  0.4525  0.3247
   92CHL1  H21B 9268   2.150   4.776   7.835  0.2354 -0.4096 -0.3258
   92CHL1  H21C 9269   2.292   4.857   7.924 -1.1749  1.6665  1.7077
   92CHL1   C22 9270   2.030   4.988   7.962 -0.1990  0.1818  0.1193
   92CHL1  H22A 9271   1.984   5.089   7.957 -0.5287 -0.0293 -1.7266
   92CHL1  H22B 9272   1.956   4.907   7.948 -2.5866  1.9021  1.9110
   92CHL1   C23 9273   2.098   4.959   8.097  0.0610  0.2172  0.0917
   92CHL1  H23A 9274   2.111   4.849   8.104  0.1180  0.2303  0.1864
   92CHL1  H23B 9275   2.196   5.008   8.115  0.1136  0.2865 -0.3801
   92CHL1   C24 9276   2.013   5.002   8.221 -0.0075 -0.2319  0.0339
   92CHL1  H24A 9277   1.988   5.110   8.212 -1.5397 -0.6926 -2.0141
   92CHL1  H24B 9278   1.922   4.942   8.198  1.8775 -3.6216  0.7104
   92CHL1   C25 9279   2.052   4.947   8.358 -0.6020  0.0701  0.2990
   92CHL1   H25 9280   2.060   4.839   8.333 -1.1882  0.4409 -1.6190
   92CHL1   C26 9281   2.187   5.003   8.405 -0.0003 -0.3637  0.1313
   92CHL1  H26A 9282   2.277   4.970   8.350 -0.8823 -0.4295 -1.3185
   92CHL1  H26B 9283   2.190   5.113   8.394 -0.2680 -0.5884 -3.0454
   92CHL1  H26C 9284   2.207   4.997   8.514  0.6123 -1.1648 -0.0128
   92CHL1   C27 9285   1.945   4.962   8.460 -0.1162  0.7293 -0.0127
   92CHL1  H27A 9286   1.851   4.918   8.421 -1.2110  0.0871  3.1015
   92CHL1  H27B 9287   1.972   4.906   8.552  1.8111  0.8361 -0.4668
   92CHL1  H27C 9288   1.927   5.072   8.466 -2.4857  0.3860 -0.1821
   93CHL1    C3 9289   0.371   3.193   6.758 -0.7610 -0.4520  0.5208
   93CHL1    H3 9290   0.455   3.141   6.707  0.1730 -0.3022  1.8636
   93CHL1    O3 9291   0.289   3.268   6.671  0.4581 -0.1464  0.1716
   93CHL1   H3' 9292   0.354   3.318   6.621  0.9039 -0.6291  0.2593
   93CHL1    C4 9293   0.282   3.096   6.838  0.2815 -0.9143 -0.1288
   93CHL1   H4A 9294   0.193   3.158   6.860 -0.8500 -2.3963 -0.3042
   93CHL1   H4B 9295   0.256   3.021   6.759  1.3768  0.5408 -1.9549
   93CHL1    C5 9296   0.340   3.035   6.970 -0.2090 -0.0536  0.4048
   93CHL1    C6 9297   0.363   2.903   6.976 -0.0377 -0.0205  0.1139
   93CHL1    H6 9298   0.315   2.838   6.902  2.2387  0.0047 -1.4900
   93CHL1    C7 9299   0.431   2.831   7.094  0.5626 -0.6460 -0.5005
   93CHL1   H7A 9300   0.378   2.737   7.123  0.5813 -0.3446  0.5591
   93CHL1   H7B 9301   0.536   2.813   7.065  0.7797 -1.9490  0.9542
   93CHL1    C8 9302   0.436   2.934   7.214 -0.3998 -0.2442  1.2677
   93CHL1    H8 9303   0.330   2.950   7.245 -1.1314  0.6285 -1.3871
   93CHL1   C14 9304   0.525   2.874   7.323  0.0672  0.2545  0.2783
   93CHL1   H14 9305   0.626   2.866   7.279  0.5361  0.4012  1.3120
   93CHL1   C15 9306   0.506   2.730   7.373  0.1452  0.0348  0.1232
   93CHL1  H15A 9307   0.402   2.710   7.407 -0.3181 -0.4432 -1.4572
   93CHL1  H15B 9308   0.524   2.650   7.297 -1.2587  0.1044 -0.3084
   93CHL1   C16 9309   0.601   2.715   7.497 -0.3182 -0.6517  0.2061
   93CHL1  H16A 9310   0.535   2.670   7.574  0.2574  0.8438  1.6274
   93CHL1  H16B 9311   0.689   2.649   7.479 -0.3379  0.2563 -4.4071
   93CHL1   C17 9312   0.644   2.863   7.526 -0.1049  0.1958  0.3280
   93CHL1   H17 9313   0.739   2.864   7.470 -0.3227  1.8659 -0.0728
   93CHL1   C13 9314   0.549   2.958   7.447  0.0723  0.1653 -0.0623
   93CHL1   C18 9315   0.418   2.975   7.522 -0.4249  0.2523  0.7493
   93CHL1  H18A 9316   0.367   2.882   7.558 -0.1236 -1.1610 -2.1444
   93CHL1  H18B 9317   0.434   3.034   7.615  2.0368 -0.5440  0.8838
   93CHL1  H18C 9318   0.342   3.023   7.456 -3.0261 -1.5143  2.2493
   93CHL1   C12 9319   0.609   3.091   7.397  0.1261  0.1772  0.0697
   93CHL1  H12A 9320   0.630   3.162   7.481  1.3451 -1.6813  1.4090
   93CHL1  H12B 9321   0.700   3.081   7.334 -0.4183 -0.7573 -0.5829
   93CHL1   C11 9322   0.511   3.157   7.297  0.4751 -0.0561  0.2192
   93CHL1  H11A 9323   0.419   3.189   7.349 -0.0563  2.5933 -2.1176
   93CHL1  H11B 9324   0.564   3.249   7.265 -0.2618 -0.4310 -2.2904
   93CHL1    C9 9325   0.491   3.068   7.173 -0.0217  0.9610  0.5094
   93CHL1    H9 9326   0.586   3.040   7.124 -0.5271  2.0387 -1.1837
   93CHL1   C10 9327   0.402   3.143   7.064 -0.5532  0.1899  0.4777
   93CHL1   C19 9328   0.288   3.222   7.129 -0.5935  0.0479 -1.0227
   93CHL1  H19A 9329   0.214   3.269   7.060 -2.5882 -0.3996  0.6982
   93CHL1  H19B 9330   0.237   3.158   7.204  1.5574  0.4384  0.8766
   93CHL1  H19C 9331   0.335   3.307   7.183 -0.8639  0.8924 -2.0661
   93CHL1    C1 9332   0.499   3.225   6.976  0.1776  0.2173 -0.4237
   93CHL1   H1A 9333   0.556   3.297   7.039 -2.1873  3.6488 -1.8796
   93CHL1   H1B 9334   0.573   3.153   6.935  0.3054  1.0928 -1.7800
   93CHL1    C2 9335   0.438   3.301   6.852  0.4709  0.2410 -0.1773
   93CHL1   H2A 9336   0.526   3.345   6.799  0.3885 -0.8557 -1.2543
   93CHL1   H2B 9337   0.359   3.372   6.883  0.5633  0.1789  0.2027
   93CHL1   C20 9338   0.673   2.893   7.677  0.2958  0.0132  0.1373
   93CHL1   H20 9339   0.579   2.901   7.735  1.7936 -2.4139  3.2230
   93CHL1   C21 9340   0.754   3.017   7.706 -0.4129  0.0028  0.4344
   93CHL1  H21A 9341   0.704   3.109   7.670 -0.9465 -1.5845 -3.3752
   93CHL1  H21B 9342   0.853   3.006   7.657 -1.2160 -2.3952 -0.8069
   93CHL1  H21C 9343   0.777   3.029   7.814  0.3902  1.6557  0.1072
   93CHL1   C22 9344   0.743   2.767   7.747 -0.1373  0.0415 -0.4580
   93CHL1  H22A 9345   0.661   2.692   7.747 -2.7717  2.7121  1.1868
   93CHL1  H22B 9346   0.825   2.726   7.685  0.4556  1.4483 -0.6431
   93CHL1   C23 9347   0.794   2.780   7.897 -0.9059  0.3037  0.3936
   93CHL1  H23A 9348   0.893   2.830   7.897  1.0970 -3.3369  1.5486
   93CHL1  H23B 9349   0.719   2.832   7.960 -3.2601  0.3450 -2.2192
   93CHL1   C24 9350   0.835   2.640   7.946 -0.2859 -0.1333  0.4063
   93CHL1  H24A 9351   0.738   2.585   7.950  0.2436 -1.1303  0.0661
   93CHL1  H24B 9352   0.895   2.591   7.865 -0.1911  1.0440 -0.2597
   93CHL1   C25 9353   0.904   2.636   8.079 -0.1668 -0.0447 -0.8127
   93CHL1   H25 9354   1.001   2.689   8.064  0.4494 -0.4072  1.4921
   93CHL1   C26 9355   0.816   2.700   8.190  0.3487  0.1301  0.7389
   93CHL1  H26A 9356   0.851   2.695   8.296 -1.0536  0.7122  1.2610
   93CHL1  H26B 9357   0.794   2.806   8.166 -1.5266 -0.4042 -0.1048
   93CHL1  H26C 9358   0.724   2.637   8.194  1.3823 -1.6989 -1.8711
   93CHL1   C27 9359   0.948   2.490   8.115  0.7751 -0.0630 -0.1344
   93CHL1  H27A 9360   0.903   2.420   8.041  0.0340  1.8352 -1.5959
   93CHL1  H27B 9361   1.058   2.475   8.113  0.6916 -1.1381  1.5658
   93CHL1  H27C 9362   0.917   2.471   8.220 -0.3341  1.3026 -0.1731
   94CHL1    C3 9363   2.031   0.303   7.000  0.0269 -0.0446  0.2505
   94CHL1    H3 9364   2.087   0.211   6.973 -0.6995 -0.2195 -0.7391
   94CHL1    O3 9365   1.994   0.356   6.875  0.2986 -0.1061  0.3928
   94CHL1   H3' 9366   2.077   0.368   6.827 -1.3014  0.6519 -2.4847
   94CHL1    C4 9367   1.906   0.263   7.089  0.0834  0.3218 -0.3674
   94CHL1   H4A 9368   1.818   0.331   7.080 -1.8007 -1.4079  2.7867
   94CHL1   H4B 9369   1.864   0.167   7.051 -0.2529 -0.3595  1.5763
   94CHL1    C5 9370   1.936   0.237   7.239 -0.5558  0.1581  0.4631
   94CHL1    C6 9371   1.893   0.121   7.298  0.1394  0.2068  0.2852
   94CHL1    H6 9372   1.820   0.056   7.247  1.9960 -0.1710 -2.1210
   94CHL1    C7 9373   1.911   0.096   7.444 -0.2953 -0.2739  0.1847
   94CHL1   H7A 9374   1.808   0.078   7.483 -0.7282 -0.4180 -0.9802
   94CHL1   H7B 9375   1.974   0.005   7.458 -1.3057 -1.3136 -1.5511
   94CHL1    C8 9376   1.961   0.216   7.520  0.4308 -0.2533  0.5724
   94CHL1    H8 9377   1.883   0.294   7.534  0.1046 -0.6330  0.8893
   94CHL1   C14 9378   2.015   0.185   7.660  0.1120 -0.6660 -0.5702
   94CHL1   H14 9379   2.099   0.112   7.648  1.6144  1.0295 -0.8219
   94CHL1   C15 9380   1.923   0.109   7.754  0.3618 -0.2161 -0.2938
   94CHL1  H15A 9381   1.818   0.144   7.765 -0.3003 -2.5792  1.6057
   94CHL1  H15B 9382   1.919  -0.001   7.738 -0.1147 -0.3399  0.6317
   94CHL1   C16 9383   1.988   0.119   7.889  0.1130 -0.0154 -0.1891
   94CHL1  H16A 9384   1.913   0.160   7.960 -0.4327 -3.1114  1.2243
   94CHL1  H16B 9385   2.024   0.022   7.930 -1.4064  0.0026  1.2751
   94CHL1   C17 9386   2.108   0.223   7.871  0.2125 -0.6451  0.4958
   94CHL1   H17 9387   2.207   0.176   7.848  0.6084 -0.5297  1.8475
   94CHL1   C13 9388   2.076   0.299   7.735 -0.5655  0.0732  0.2724
   94CHL1   C18 9389   1.970   0.407   7.772  0.0845 -0.3510  0.4116
   94CHL1  H18A 9390   2.025   0.478   7.838 -0.7004  1.9702 -1.2748
   94CHL1  H18B 9391   1.930   0.462   7.684 -0.0665 -1.5287 -0.2666
   94CHL1  H18C 9392   1.883   0.359   7.821 -0.8228  0.0916 -0.7310
   94CHL1   C12 9393   2.203   0.357   7.657  0.2070  0.0472 -0.2266
   94CHL1  H12A 9394   2.257   0.440   7.707  0.1621  0.6012 -1.0628
   94CHL1  H12B 9395   2.268   0.268   7.643  1.6953  0.8747  1.1990
   94CHL1   C11 9396   2.158   0.404   7.520  0.7244 -0.2937  0.0137
   94CHL1  H11A 9397   2.102   0.499   7.531 -0.1820 -0.9239  0.9290
   94CHL1  H11B 9398   2.246   0.441   7.463 -1.2701  1.5984 -2.0661
   94CHL1    C9 9399   2.073   0.293   7.447  0.1026  0.0232  0.6705
   94CHL1    H9 9400   2.145   0.211   7.425 -0.1539 -0.4743  1.6301
   94CHL1   C10 9401   2.027   0.344   7.307  0.2843  0.8884  0.0157
   94CHL1   C19 9402   1.946   0.474   7.310 -0.0847  0.6444  0.5193
   94CHL1  H19A 9403   2.007   0.553   7.359  0.6182 -0.5094  1.5671
   94CHL1  H19B 9404   1.910   0.507   7.210  1.6378 -1.4698 -0.8783
   94CHL1  H19C 9405   1.861   0.459   7.380 -0.1673 -0.4667  0.1881
   94CHL1    C1 9406   2.163   0.366   7.222 -0.5411  0.5999  0.4480
   94CHL1   H1A 9407   2.227   0.448   7.260 -0.0270  0.3770  0.0689
   94CHL1   H1B 9408   2.213   0.269   7.241  1.4143  1.5747  0.4294
   94CHL1    C2 9409   2.139   0.388   7.066 -0.1121  0.5098  0.6244
   94CHL1   H2A 9410   2.228   0.386   7.000 -0.2340 -4.4044  0.2152
   94CHL1   H2B 9411   2.098   0.491   7.058  0.3554  0.6943  0.5781
   94CHL1   C20 9412   2.148   0.297   8.007 -0.5988  0.4827 -0.6598
   94CHL1   H20 9413   2.069   0.370   8.037 -1.3380 -0.7114  0.4068
   94CHL1   C21 9414   2.269   0.393   7.987  0.2021  0.1082 -0.3547
   94CHL1  H21A 9415   2.271   0.449   8.083  1.7651 -1.4281  0.5783
   94CHL1  H21B 9416   2.241   0.478   7.921 -0.3472  0.0344 -0.2147
   94CHL1  H21C 9417   2.363   0.342   7.956 -1.1861 -1.1233 -2.8788
   94CHL1   C22 9418   2.162   0.206   8.134 -0.3741 -0.4798  0.0407
   94CHL1  H22A 9419   2.066   0.153   8.152 -0.8543  0.7282  1.1575
   94CHL1  H22B 9420   2.245   0.136   8.109  0.7651  0.8763 -0.1032
   94CHL1   C23 9421   2.190   0.260   8.276  0.4444 -0.1588 -0.1235
   94CHL1  H23A 9422   2.186   0.176   8.348 -1.1752 -0.0819 -0.0855
   94CHL1  H23B 9423   2.289   0.310   8.264  0.1707 -0.0587 -2.2812
   94CHL1   C24 9424   2.081   0.353   8.318  0.0400 -0.1681 -0.5194
   94CHL1  H24A 9425   2.062   0.446   8.260 -0.9912 -0.3667 -0.5178
   94CHL1  H24B 9426   1.990   0.291   8.331  0.5684 -1.0828 -1.1064
   94CHL1   C25 9427   2.108   0.409   8.461  0.1574  0.1324  1.0221
   94CHL1   H25 9428   2.139   0.327   8.529  1.9569  0.8734  1.1365
   94CHL1   C26 9429   2.225   0.513   8.462  0.5102 -0.2326 -0.2238
   94CHL1  H26A 9430   2.202   0.582   8.379 -0.6188  0.7170  0.8336
   94CHL1  H26B 9431   2.235   0.573   8.555  2.7601 -2.8096  1.3410
   94CHL1  H26C 9432   2.326   0.471   8.445  1.6860  2.4098 -0.1834
   94CHL1   C27 9433   1.978   0.482   8.514  0.0326  0.0075  0.1781
   94CHL1  H27A 9434   1.901   0.409   8.546  1.4006 -0.5758  2.4191
   94CHL1  H27B 9435   2.013   0.540   8.602 -0.9754 -0.4180  0.8829
   94CHL1  H27C 9436   1.938   0.550   8.437 -1.2814 -0.0968  0.7450
   95CHL1    C3 9437   3.479   3.550   6.816 -0.7262  0.0494  0.3074
   95CHL1    H3 9438   3.453   3.444   6.797 -1.2556  0.4086 -1.1112
   95CHL1    O3 9439   3.482   3.628   6.692  0.1799  0.7385 -0.1459
   95CHL1   H3' 9440   3.538   3.704   6.708 -0.7596  1.0934  1.7233
   95CHL1    C4 9441   3.368   3.613   6.899  0.6231 -0.0127  0.4472
   95CHL1   H4A 9442   3.399   3.719   6.907  1.0808 -0.2532  2.0924
   95CHL1   H4B 9443   3.271   3.615   6.844  1.0025 -4.4312 -0.7541
   95CHL1    C5 9444   3.362   3.563   7.041  0.1748 -0.4642  0.0275
   95CHL1    C6 9445   3.249   3.505   7.095  0.2754  0.1994 -0.3901
   95CHL1    H6 9446   3.159   3.503   7.032 -0.1219 -0.3385  0.1755
   95CHL1    C7 9447   3.238   3.457   7.238 -0.3512  0.0681 -0.2510
   95CHL1   H7A 9448   3.136   3.478   7.277 -0.8234 -0.2630 -1.2976
   95CHL1   H7B 9449   3.243   3.348   7.220 -1.2566 -0.0600  0.2103
   95CHL1    C8 9450   3.349   3.503   7.322 -0.5511  0.1027  0.3156
   95CHL1    H8 9451   3.334   3.613   7.325 -2.3648 -0.0230 -1.6563
   95CHL1   C14 9452   3.345   3.432   7.451  0.8118 -0.4593  0.9100
   95CHL1   H14 9453   3.376   3.327   7.433 -1.7169 -0.9354 -1.4143
   95CHL1   C15 9454   3.212   3.432   7.524 -0.2955  0.6228 -0.0538
   95CHL1  H15A 9455   3.174   3.535   7.517  2.1964  1.9372  2.9755
   95CHL1  H15B 9456   3.146   3.349   7.492  1.2818 -1.1734  1.0723
   95CHL1   C16 9457   3.260   3.404   7.671 -0.7049 -0.3666  0.1491
   95CHL1  H16A 9458   3.236   3.501   7.719  0.8965  0.0767  0.1203
   95CHL1  H16B 9459   3.210   3.321   7.726 -0.5896  0.8636  2.2312
   95CHL1   C17 9460   3.415   3.398   7.674 -0.2989  0.2707 -0.2023
   95CHL1   H17 9461   3.445   3.292   7.658 -0.6588  0.0106  0.7432
   95CHL1   C13 9462   3.455   3.484   7.551 -0.0428 -0.3665  0.2541
   95CHL1   C18 9463   3.436   3.630   7.578  0.1375 -0.7808  0.4814
   95CHL1  H18A 9464   3.481   3.693   7.499 -0.0246  1.1644  1.8518
   95CHL1  H18B 9465   3.329   3.655   7.590  0.4717  1.3757 -0.5262
   95CHL1  H18C 9466   3.484   3.665   7.673 -1.3796  1.7616  0.4115
   95CHL1   C12 9467   3.596   3.452   7.486  0.6449 -0.2218  0.1074
   95CHL1  H12A 9468   3.678   3.509   7.535  1.0656  0.5797 -1.4644
   95CHL1  H12B 9469   3.611   3.342   7.491 -0.1788 -0.2890  2.0109
   95CHL1   C11 9470   3.605   3.508   7.346 -0.2704  0.2307  0.9540
   95CHL1  H11A 9471   3.611   3.617   7.367 -0.0029  0.6593 -1.1259
   95CHL1  H11B 9472   3.697   3.463   7.302 -2.1552 -2.1696 -0.7931
   95CHL1    C9 9473   3.482   3.483   7.254 -0.2722  0.1785 -0.4192
   95CHL1    H9 9474   3.491   3.376   7.225  0.5303  0.7279 -2.4195
   95CHL1   C10 9475   3.495   3.563   7.122  0.1457  0.0294  0.7087
   95CHL1   C19 9476   3.531   3.710   7.153 -0.3447 -0.1715  0.6119
   95CHL1  H19A 9477   3.634   3.736   7.185 -0.1304  1.2753 -1.0534
   95CHL1  H19B 9478   3.518   3.785   7.071  0.0055  1.0216  1.6176
   95CHL1  H19C 9479   3.460   3.753   7.227  0.1877  0.0608  0.9856
   95CHL1    C1 9480   3.603   3.494   7.038 -0.0126  0.3299  0.2119
   95CHL1   H1A 9481   3.704   3.508   7.083  0.2514  2.1070 -0.8633
   95CHL1   H1B 9482   3.598   3.383   7.034 -0.5865  0.3783 -1.4027
   95CHL1    C2 9483   3.606   3.554   6.899  0.3217  0.2704  0.5372
   95CHL1   H2A 9484   3.687   3.513   6.834  0.6423  2.2961 -0.4052
   95CHL1   H2B 9485   3.635   3.660   6.913 -1.3851  0.8478 -0.0366
   95CHL1   C20 9486   3.467   3.426   7.817  1.1190  0.3697  0.1874
   95CHL1   H20 9487   3.449   3.528   7.858  0.1416 -1.6533  5.7546
   95CHL1   C21 9488   3.619   3.418   7.807  0.2695 -1.0583  0.2166
   95CHL1  H21A 9489   3.655   3.320   7.769  2.7504  0.5871 -2.0040
   95CHL1  H21B 9490   3.670   3.439   7.903  3.0853  0.2472 -1.4390
   95CHL1  H21C 9491   3.659   3.484   7.727 -0.1658 -2.7108 -1.4430
   95CHL1   C22 9492   3.422   3.321   7.916  0.0496  0.2750  0.4081
   95CHL1  H22A 9493   3.311   3.322   7.924 -0.0330  1.5261 -0.4852
   95CHL1  H22B 9494   3.453   3.229   7.862 -0.5510  1.0203 -1.2966
   95CHL1   C23 9495   3.475   3.322   8.061  0.0558  0.0954  0.4212
   95CHL1  H23A 9496   3.584   3.301   8.051 -0.5225 -2.4490 -1.9345
   95CHL1  H23B 9497   3.463   3.426   8.098  1.3569  0.4061  0.0277
   95CHL1   C24 9498   3.406   3.216   8.147  0.8816 -0.4517 -0.7314
   95CHL1  H24A 9499   3.298   3.233   8.161  1.3822  1.1043  1.8360
   95CHL1  H24B 9500   3.425   3.118   8.098  0.6952 -0.1291 -1.4634
   95CHL1   C25 9501   3.466   3.205   8.284 -0.4779  0.0780 -0.3458
   95CHL1   H25 9502   3.478   3.308   8.323 -1.3875  0.2499 -0.4989
   95CHL1   C26 9503   3.375   3.120   8.374 -0.1685  0.1351  0.4954
   95CHL1  H26A 9504   3.412   3.109   8.478  0.7221 -0.5204  0.1173
   95CHL1  H26B 9505   3.272   3.161   8.386 -0.5540  0.1660 -2.3011
   95CHL1  H26C 9506   3.361   3.022   8.324  1.1028 -0.6260  1.5800
   95CHL1   C27 9507   3.615   3.146   8.270 -0.1753 -0.0391  0.2087
   95CHL1  H27A 9508   3.617   3.048   8.217  0.6526  0.3208 -0.4456
   95CHL1  H27B 9509   3.679   3.220   8.219 -0.5847  0.0219 -0.2263
   95CHL1  H27C 9510   3.652   3.117   8.371  0.7108 -2.4702 -0.7320
   96CHL1    C3 9511   2.804   3.690   6.764 -0.1702 -0.6748 -0.2708
   96CHL1    H3 9512   2.801   3.579   6.757  2.0179 -0.7269 -0.9948
   96CHL1    O3 9513   2.796   3.733   6.628  0.5611  0.1843  0.2530
   96CHL1   H3' 9514   2.824   3.825   6.620 -1.0543  0.7186  0.4699
   96CHL1    C4 9515   2.689   3.747   6.848 -0.1813  0.0637 -0.6854
   96CHL1   H4A 9516   2.674   3.855   6.828  1.3570  0.4327  0.0118
   96CHL1   H4B 9517   2.598   3.698   6.808  0.4360  0.6633 -2.9655
   96CHL1    C5 9518   2.719   3.707   6.991  0.2108 -0.7809 -0.0383
   96CHL1    C6 9519   2.633   3.635   7.066 -0.3945  0.1869 -0.2888
   96CHL1    H6 9520   2.539   3.598   7.022  0.7319  0.1945 -2.9061
   96CHL1    C7 9521   2.656   3.602   7.210  0.1955  0.4845  0.6988
   96CHL1   H7A 9522   2.563   3.592   7.269 -1.5532  1.1859 -1.7965
   96CHL1   H7B 9523   2.703   3.501   7.219 -0.3083  0.1915  0.1243
   96CHL1    C8 9524   2.753   3.711   7.275 -0.5326 -0.2690 -0.7821
   96CHL1    H8 9525   2.698   3.808   7.278 -1.2964 -0.7145  0.7664
   96CHL1   C14 9526   2.778   3.662   7.413  0.2132 -0.0357  0.5287
   96CHL1   H14 9527   2.815   3.560   7.393 -0.4900  0.0808 -1.6820
   96CHL1   C15 9528   2.658   3.629   7.507 -0.3536  0.0043 -0.1992
   96CHL1  H15A 9529   2.591   3.718   7.509 -0.8590 -0.3746  1.9789
   96CHL1  H15B 9530   2.612   3.538   7.462  0.7558 -1.0333  0.7088
   96CHL1   C16 9531   2.739   3.603   7.635  0.4040 -0.4551  0.1995
   96CHL1  H16A 9532   2.687   3.668   7.708  1.7166 -0.2588  1.0050
   96CHL1  H16B 9533   2.727   3.498   7.666 -2.7198  0.2595  1.7888
   96CHL1   C17 9534   2.893   3.666   7.618  0.6890  0.0435 -0.6219
   96CHL1   H17 9535   2.955   3.575   7.603 -0.8429 -1.4754  1.7464
   96CHL1   C13 9536   2.886   3.748   7.487  0.4441  0.2441  0.2164
   96CHL1   C18 9537   2.832   3.891   7.508  0.1940  0.1125 -0.2316
   96CHL1  H18A 9538   2.749   3.904   7.581 -1.5207 -0.9813 -1.8824
   96CHL1  H18B 9539   2.924   3.949   7.531 -0.2783  1.4113 -1.4240
   96CHL1  H18C 9540   2.790   3.931   7.413 -1.9172 -0.3520  0.4667
   96CHL1   C12 9541   3.016   3.766   7.409 -0.4765  0.8111  0.1063
   96CHL1  H12A 9542   3.091   3.836   7.453 -0.4312 -1.0969  3.4224
   96CHL1  H12B 9543   3.059   3.664   7.418  1.5211  1.3539 -2.1470
   96CHL1   C11 9544   2.989   3.810   7.262 -0.0170  0.1374  0.0979
   96CHL1  H11A 9545   2.944   3.910   7.284 -1.7922 -0.5395 -0.2569
   96CHL1  H11B 9546   3.090   3.814   7.218  1.5595  0.9333  3.4916
   96CHL1    C9 9547   2.879   3.715   7.190 -0.2972 -0.3042  0.1893
   96CHL1    H9 9548   2.921   3.612   7.180 -1.7844 -1.2361  2.5827
   96CHL1   C10 9549   2.853   3.764   7.038  0.5154 -0.8850 -0.3105
   96CHL1   C19 9550   2.846   3.919   7.042  0.1848  0.9712 -0.2812
   96CHL1  H19A 9551   2.796   3.963   6.954  0.3621 -0.6093 -1.2193
   96CHL1  H19B 9552   2.791   3.955   7.132 -1.0895 -1.0648 -0.1705
   96CHL1  H19C 9553   2.949   3.959   7.053  0.6192 -0.4164  1.2389
   96CHL1    C1 9554   2.960   3.708   6.957 -0.0846  0.2499  0.0192
   96CHL1   H1A 9555   3.053   3.760   6.990  1.5168 -0.3551 -3.1357
   96CHL1   H1B 9556   2.982   3.600   6.966  3.6382  0.9050  0.4118
   96CHL1    C2 9557   2.945   3.738   6.807  0.3597  0.1321 -1.1653
   96CHL1   H2A 9558   3.016   3.676   6.749  0.8001 -0.7550  0.2899
   96CHL1   H2B 9559   2.951   3.846   6.778 -0.3197  0.4635 -0.1294
   96CHL1   C20 9560   2.957   3.727   7.744  0.7495  0.3820  0.3120
   96CHL1   H20 9561   2.890   3.803   7.789 -0.8277 -0.0195 -1.2378
   96CHL1   C21 9562   3.096   3.787   7.716  0.2984 -0.2550 -0.1490
   96CHL1  H21A 9563   3.144   3.720   7.642 -1.8964 -0.8861 -1.0892
   96CHL1  H21B 9564   3.165   3.804   7.802  0.4805  4.3881 -0.9477
   96CHL1  H21C 9565   3.097   3.886   7.665  4.3936  0.4005  0.8265
   96CHL1   C22 9566   2.960   3.615   7.862  0.2227 -0.0721 -0.7160
   96CHL1  H22A 9567   2.866   3.556   7.863 -0.2870  0.7352  0.2631
   96CHL1  H22B 9568   3.046   3.545   7.851  0.5722  0.1111  0.6614
   96CHL1   C23 9569   2.956   3.689   8.000 -0.4857  0.9917  0.8014
   96CHL1  H23A 9570   3.054   3.742   7.997 -0.6996  1.3471 -0.0372
   96CHL1  H23B 9571   2.877   3.766   7.991  1.0968  2.4678 -1.7842
   96CHL1   C24 9572   2.942   3.610   8.123 -0.2624  0.3168  0.4145
   96CHL1  H24A 9573   2.940   3.679   8.210 -1.3824 -0.2644  0.8754
   96CHL1  H24B 9574   2.843   3.560   8.124 -1.1764  2.0493 -0.0750
   96CHL1   C25 9575   3.048   3.502   8.135  0.3874 -0.4373 -0.2457
   96CHL1   H25 9576   3.058   3.452   8.036 -1.6146 -3.2171  0.8220
   96CHL1   C26 9577   3.191   3.554   8.170 -0.8441 -0.4976  0.4515
   96CHL1  H26A 9578   3.267   3.475   8.183 -0.3961 -0.0467  0.6430
   96CHL1  H26B 9579   3.227   3.629   8.096 -0.5999 -0.2059  0.8612
   96CHL1  H26C 9580   3.178   3.609   8.266 -0.9576  1.1546 -0.4676
   96CHL1   C27 9581   3.006   3.395   8.241 -0.6492 -0.9546 -0.3791
   96CHL1  H27A 9582   2.920   3.339   8.198 -2.7633  2.0709 -0.4643
   96CHL1  H27B 9583   3.090   3.328   8.266  0.1319  0.0515 -0.2287
   96CHL1  H27C 9584   2.979   3.442   8.338 -2.6269  0.3890 -1.4914
   97OSM      N 9585   6.655   6.520  11.465  0.2437  0.0712  0.7693
   97OSM    C15 9586   6.561   6.407  11.472 -0.3861 -0.1573 -0.1958
   97OSM   H15A 9587   6.608   6.317  11.508 -1.3684 -0.3868  0.5597
   97OSM   H15B 9588   6.527   6.383  11.372  0.4912  0.3937 -0.6371
   97OSM   H15C 9589   6.478   6.436  11.534 -1.1199  1.7919 -1.9741
   97OSM    C14 9590   6.697   6.543  11.604 -0.8932 -0.0520 -0.6954
   97OSM   H14A 9591   6.755   6.634  11.610 -0.3858 -0.1703 -2.8823
   97OSM   H14B 9592   6.765   6.461  11.621  0.7110  1.3478 -0.1381
   97OSM   H14C 9593   6.617   6.542  11.677 -0.2574  0.7866  0.0263
   97OSM    C13 9594   6.770   6.490  11.385 -0.0827 -0.0599 -0.0293
   97OSM   H13A 9595   6.824   6.400  11.411  0.1333  0.9219  3.3401
   97OSM   H13B 9596   6.848   6.564  11.388  1.2192 -1.2693 -1.7424
   97OSM   H13C 9597   6.745   6.482  11.280  0.9505 -0.7105 -0.2407
   97OSM    C12 9598   6.581   6.642  11.401  0.1234 -0.5362 -0.3498
   97OSM   H12A 9599   6.535   6.610  11.309 -1.1300  0.9843 -0.2813
   97OSM   H12B 9600   6.656   6.716  11.376 -1.9451  0.5132 -4.1974
   97OSM    C11 9601   6.472   6.718  11.486 -0.5909  0.4083 -0.1148
   97OSM   H11A 9602   6.438   6.804  11.425  0.0453  0.9003  0.2185
   97OSM   H11B 9603   6.524   6.766  11.572  0.8448  3.2447 -2.3933
   97OSM      P 9604   6.240   6.623  11.418  0.3721  0.1757  0.0734
   97OSM    O13 9605   6.149   6.509  11.455  0.6312 -0.2983 -0.2951
   97OSM    O14 9606   6.178   6.753  11.418  0.0648 -0.5665 -0.5095
   97OSM    O11 9607   6.302   6.605  11.272 -0.0534 -0.6396 -0.0282
   97OSM    O12 9608   6.359   6.644  11.522 -0.3052  0.4422 -0.3923
   97OSM    C1S 9609   6.310   6.716  11.181  0.2854 -0.1554 -0.4081
   97OSM    H1S 9610   6.418   6.741  11.172  0.4228 -0.6292 -0.1291
   97OSM    H1T 9611   6.250   6.801  11.219  0.4002 -0.8253  1.3492
   97OSM     NF 9612   6.294   6.784  10.940  0.3837  0.1534  0.1670
   97OSM    HNF 9613   6.239   6.866  10.927 -0.5090 -0.3716  0.5868
   97OSM    C2S 9614   6.252   6.686  11.035 -0.3066  0.3958 -0.6078
   97OSM    H2S 9615   6.295   6.587  11.007 -2.2711 -0.6350 -0.1330
   97OSM    C3S 9616   6.094   6.663  11.034 -0.2295 -0.2876 -0.6520
   97OSM    H3S 9617   6.039   6.755  11.061 -0.9012 -1.6104  3.1243
   97OSM     O3 9618   6.047   6.573  11.133 -0.3628  0.5228 -0.0138
   97OSM    HO3 9619   6.128   6.534  11.168  0.1933  1.4485 -0.2299
   97OSM    C4S 9620   6.057   6.619  10.900 -0.2305  0.0200 -0.1081
   97OSM    H4S 9621   6.112   6.531  10.862 -0.9276  0.1020 -1.3776
   97OSM    C5S 9622   5.961   6.685  10.833  0.5345  0.1128  0.4017
   97OSM    H5S 9623   5.919   6.773  10.885 -0.3595  0.6283 -1.1220
   97OSM    C6S 9624   5.900   6.659  10.693  0.0176 -0.7622 -0.6792
   97OSM    H6S 9625   5.936   6.732  10.618 -0.3325  2.4142  1.9906
   97OSM    H6T 9626   5.791   6.682  10.690  0.4361  1.5402 -0.7281
   97OSM    C7S 9627   5.928   6.512  10.643 -0.4670  0.0358  0.0175
   97OSM    H7S 9628   5.881   6.432  10.704  0.0743  0.7398  1.3988
   97OSM    H7T 9629   6.037   6.497  10.661 -0.2745  1.4895  0.1938
   97OSM    C8S 9630   5.893   6.485  10.495 -0.0880  0.4623  0.0202
   97OSM    H8S 9631   5.953   6.542  10.422 -0.7260  1.3787  0.1806
   97OSM    H8T 9632   5.786   6.505  10.471  0.3545 -0.4794 -3.1386
   97OSM    C9S 9633   5.908   6.338  10.463 -0.0524 -0.2364 -0.1263
   97OSM    H9S 9634   5.875   6.325  10.358  1.4999 -0.2041 -0.6411
   97OSM    H9T 9635   5.853   6.271  10.533  0.2463 -0.3253  0.0261
   97OSM   C10S 9636   6.048   6.279  10.466  0.3694 -0.1310 -0.8444
   97OSM   H10S 9637   6.085   6.286  10.571  0.1696  1.5896 -0.8599
   97OSM   H10T 9638   6.111   6.353  10.412  1.7810 -2.2761 -2.2897
   97OSM   C11S 9639   6.074   6.154  10.396 -1.6653  0.1104  0.9769
   97OSM   H11S 9640   5.992   6.079  10.402 -0.2696 -1.6701 -0.9339
   97OSM   H11T 9641   6.170   6.112  10.430 -1.8535 -0.9771  0.2190
   97OSM   C12S 9642   6.085   6.184  10.247  0.4583  0.4019  0.4621
   97OSM   H12S 9643   6.161   6.265  10.240 -0.2050  1.1702  1.7631
   97OSM   H12T 9644   5.988   6.221  10.208  0.6814  0.3251 -0.1907
   97OSM   C13S 9645   6.132   6.069  10.158  0.7115 -0.3822 -0.3831
   97OSM   H13S 9646   6.068   5.979  10.163  0.2390  0.0061  0.8872
   97OSM   H13T 9647   6.234   6.052  10.198  0.1100  0.0285  1.3808
   97OSM   C14S 9648   6.122   6.109  10.013 -0.4594  0.4029 -0.5275
   97OSM   H14S 9649   6.193   6.038   9.965 -1.7427 -0.7663 -0.7610
   97OSM   H14T 9650   6.178   6.204  10.001  0.0329  0.1311 -0.4091
   97OSM   C15S 9651   5.991   6.101   9.939 -0.3265 -0.2350  0.4503
   97OSM   H15S 9652   5.933   6.194   9.961 -2.0731 -0.9529 -0.8653
   97OSM   H15T 9653   5.928   6.015   9.971  1.4450 -1.7869 -0.0700
   97OSM   C16S 9654   6.019   6.077   9.787 -0.1500 -0.2864 -0.0501
   97OSM   H16S 9655   5.921   6.058   9.739 -0.4265  2.3206 -0.6754
   97OSM   H16T 9656   6.080   5.984   9.792  0.8205  0.3552  0.4057
   97OSM   C17S 9657   6.092   6.190   9.717  0.0678  0.1858 -0.3319
   97OSM   H17S 9658   6.079   6.171   9.609 -0.2134  2.5651 -0.7765
   97OSM   H17T 9659   6.202   6.198   9.733 -0.1999  1.2370  1.3555
   97OSM   C18S 9660   6.021   6.322   9.740  0.0167  0.6546  0.1158
   97OSM   H18S 9661   6.069   6.398   9.675 -1.1683  1.0200 -0.3589
   97OSM   H18T 9662   6.017   6.352   9.847  0.4161 -0.7990  0.5667
   97OSM   H18U 9663   5.913   6.311   9.713 -0.0210 -0.8369  0.7306
   97OSM    C1F 9664   6.420   6.785  10.895  0.2984  0.5529  0.3812
   97OSM     OF 9665   6.501   6.702  10.931  0.3163  0.8851  0.2863
   97OSM    C2F 9666   6.444   6.888  10.798  0.0743  0.5160  0.3543
   97OSM    H2F 9667   6.444   6.988  10.847 -1.0165 -0.5961  2.8355
   97OSM    H2G 9668   6.362   6.886  10.723 -0.3037  1.3898  0.7185
   97OSM    C3F 9669   6.573   6.872  10.710 -0.2398  0.1312  0.0154
   97OSM    H3F 9670   6.561   6.774  10.660 -3.1860  0.3554  0.1294
   97OSM    H3G 9671   6.660   6.878  10.779 -1.5282 -0.0398  1.7072
   97OSM    C4F 9672   6.583   6.978  10.606  0.3085  0.1834  0.5160
   97OSM    H4F 9673   6.555   7.075  10.652  0.9813 -0.4571  2.3662
   97OSM    H4G 9674   6.511   6.961  10.523  0.2270  2.5443  0.0253
   97OSM    C5F 9675   6.726   6.983  10.556  0.1519  0.6995 -0.1700
   97OSM    H5F 9676   6.736   6.884  10.507  0.6755  0.6003  0.1210
   97OSM    H5G 9677   6.799   6.987  10.640  2.6651  2.6303 -2.2589
   97OSM    C6F 9678   6.764   7.093  10.441 -0.2977  0.1077 -0.5102
   97OSM    H6F 9679   6.871   7.068  10.425 -0.3464 -1.1125  0.8402
   97OSM    H6G 9680   6.775   7.195  10.483 -1.1189 -0.1417  0.3349
   97OSM    C7F 9681   6.676   7.092  10.319 -0.6554 -0.2408 -0.6280
   97OSM    H7F 9682   6.571   7.121  10.336 -0.8253 -1.3709  0.3393
   97OSM    H7G 9683   6.656   6.989  10.283 -1.2812 -0.3677  0.0660
   97OSM    C8F 9684   6.735   7.176  10.195 -0.4045  0.0226 -0.7102
   97OSM    H8F 9685   6.684   7.144  10.102 -2.3316  0.6846  0.0736
   97OSM    H8G 9686   6.841   7.143  10.205 -0.4055  0.2926  0.3313
   97OSM    C9F 9687   6.721   7.324  10.225  0.0564  0.2273  0.2422
   97OSM    H9F 9688   6.806   7.374  10.275  1.1159  0.1334 -1.4009
   97OSM   C10F 9689   6.617   7.404  10.194  0.2837  0.1769 -1.0839
   97OSM   H10F 9690   6.620   7.510  10.222 -0.8056 -0.6167  2.6238
   97OSM   C11F 9691   6.494   7.360  10.123  0.3434 -0.2839  0.5989
   97OSM   H11F 9692   6.411   7.373  10.196  1.5506  2.6937  1.5748
   97OSM   H11G 9693   6.482   7.253  10.095  0.2200 -0.5382  1.5754
   97OSM   C12F 9694   6.456   7.444  10.004 -0.4745 -0.1736  0.5469
   97OSM   H12F 9695   6.469   7.552  10.026  0.5068 -0.0484 -0.5588
   97OSM   H12G 9696   6.353   7.428   9.968  0.3588 -1.7388 -1.3216
   97OSM   C13F 9697   6.558   7.418   9.894 -0.3010  0.2921  0.2319
   97OSM   H13F 9698   6.553   7.307   9.886 -2.5173  0.3156  0.6200
   97OSM   H13G 9699   6.657   7.458   9.922 -0.6652 -0.4602  2.8673
   97OSM   C14F 9700   6.510   7.471   9.759 -0.4443  0.2531 -0.2040
   97OSM   H14F 9701   6.458   7.568   9.774 -0.2039  0.2483  0.6664
   97OSM   H14G 9702   6.431   7.405   9.718 -0.4280 -0.6236  1.1482
   97OSM   C15F 9703   6.613   7.473   9.653  0.3908  0.3833 -0.1080
   97OSM   H15F 9704   6.662   7.373   9.646 -1.1545 -0.3290 -1.4990
   97OSM   H15G 9705   6.693   7.542   9.687  0.7757  0.6235 -1.4260
   97OSM   C16F 9706   6.552   7.523   9.520 -0.4553 -0.5203 -0.1790
   97OSM   H16F 9707   6.547   7.634   9.522  1.1685 -0.3364 -2.5694
   97OSM   H16G 9708   6.458   7.468   9.498  0.4862 -3.4453  2.3358
   97OSM   C17F 9709   6.643   7.500   9.397  0.3946 -0.5696  0.1600
   97OSM   H17F 9710   6.678   7.395   9.401  3.6578  0.2935 -1.5916
   97OSM   H17G 9711   6.729   7.571   9.403 -0.2476  0.2725 -0.2977
   97OSM   C18F 9712   6.555   7.540   9.276  0.3393 -0.1559 -0.6407
   97OSM   H18F 9713   6.464   7.477   9.268 -0.5454  0.5943  2.2853
   97OSM   H18G 9714   6.610   7.530   9.180 -0.5578 -0.6008 -1.1123
   97OSM   H18H 9715   6.512   7.636   9.312 -0.8569 -0.4631 -1.2174
   98OSM      N 9716   5.411   6.412  10.931 -0.0880 -0.1643 -0.2643
   98OSM    C15 9717   5.284   6.381  10.851 -0.3127 -0.3104 -0.0718
   98OSM   H15A 9718   5.285   6.402  10.745  0.1389  0.3258  0.0517
   98OSM   H15B 9719   5.204   6.434  10.900  2.3608  2.6654  1.3973
   98OSM   H15C 9720   5.256   6.277  10.850  2.5665 -1.1864 -1.5325
   98OSM    C14 9721   5.438   6.560  10.928  0.2085  0.1795  0.4665
   98OSM   H14A 9722   5.523   6.577  10.993  0.9850  0.5183 -0.6081
   98OSM   H14B 9723   5.354   6.615  10.968 -1.5316 -1.1894 -1.1503
   98OSM   H14C 9724   5.468   6.599  10.832  0.9674 -1.1092  0.1556
   98OSM    C13 9725   5.384   6.364  11.070 -0.0289 -0.9243 -0.2995
   98OSM   H13A 9726   5.287   6.401  11.097  0.3936  0.5562 -0.7362
   98OSM   H13B 9727   5.459   6.409  11.134 -2.0664  1.8477  0.2634
   98OSM   H13C 9728   5.387   6.256  11.073 -0.8691 -1.0675 -2.5423
   98OSM    C12 9729   5.526   6.329  10.877 -0.5685  0.5607  1.1418
   98OSM   H12A 9730   5.532   6.339  10.770  0.4503  1.9225  1.3066
   98OSM   H12B 9731   5.515   6.223  10.899 -1.9300  0.6108  0.8043
   98OSM    C11 9732   5.670   6.370  10.909  0.1615  0.3831  0.0172
   98OSM   H11A 9733   5.682   6.476  10.875 -0.5679  0.3029 -0.5300
   98OSM   H11B 9734   5.743   6.312  10.849 -0.4036 -0.1775 -0.1487
   98OSM      P 9735   5.766   6.259  11.136  0.5834 -0.0975 -0.4849
   98OSM    O13 9736   5.794   6.313  11.271 -0.3704  0.0057 -0.4540
   98OSM    O14 9737   5.679   6.144  11.125  0.0739  0.7146 -0.0966
   98OSM    O11 9738   5.898   6.249  11.054 -0.0590  0.5165  0.4395
   98OSM    O12 9739   5.687   6.371  11.051  0.2830 -0.0416  0.6861
   98OSM    C1S 9740   5.919   6.126  10.978 -0.1906 -0.2363  0.0097
   98OSM    H1S 9741   5.822   6.097  10.932 -1.4628  1.9687  1.1451
   98OSM    H1T 9742   5.954   6.044  11.043  1.4224 -0.0362 -0.5717
   98OSM     NF 9743   6.067   6.004  10.819 -0.0095  0.3022 -0.0316
   98OSM    HNF 9744   6.155   5.965  10.844  1.6475  3.7038 -0.0927
   98OSM    C2S 9745   6.042   6.133  10.878  0.0928 -0.5471  0.3301
   98OSM    H2S 9746   6.023   6.203  10.794  1.8632  1.6658  1.6553
   98OSM    C3S 9747   6.176   6.203  10.936  0.5712  0.1670 -0.4143
   98OSM    H3S 9748   6.221   6.120  10.995 -0.3203  1.6296  2.5632
   98OSM     O3 9749   6.152   6.313  11.021  0.8047  0.5631  0.2812
   98OSM    HO3 9750   6.057   6.311  11.032  0.4597  1.2386 -2.0285
   98OSM    C4S 9751   6.269   6.261  10.833  0.4406  0.4859  0.1382
   98OSM    H4S 9752   6.209   6.288  10.745 -2.4562  0.3330  1.9521
   98OSM    C5S 9753   6.405   6.261  10.838  0.2769  0.2193 -0.1705
   98OSM    H5S 9754   6.452   6.235  10.934  1.4337  1.1290 -0.4578
   98OSM    C6S 9755   6.502   6.320  10.729  0.0314  0.5383  0.2287
   98OSM    H6S 9756   6.559   6.233  10.691 -0.6569  0.2764 -0.2340
   98OSM    H6T 9757   6.566   6.403  10.765 -1.2088  1.1983  0.9894
   98OSM    C7S 9758   6.433   6.365  10.596  1.1341 -0.3179 -0.8054
   98OSM    H7S 9759   6.356   6.442  10.621  0.7084 -0.9690 -0.0757
   98OSM    H7T 9760   6.378   6.278  10.556 -1.2049  1.3193 -1.3370
   98OSM    C8S 9761   6.518   6.414  10.481  0.1492  0.4071  0.6734
   98OSM    H8S 9762   6.575   6.326  10.445  2.5448  1.7558  0.9887
   98OSM    H8T 9763   6.593   6.479  10.531  2.5314 -2.6647  1.3639
   98OSM    C9S 9764   6.436   6.495  10.372  0.1278  0.6603 -0.5985
   98OSM    H9S 9765   6.360   6.424  10.333 -1.7948 -0.1310  3.9199
   98OSM    H9T 9766   6.514   6.501  10.293 -0.6464 -1.1755 -1.5578
   98OSM   C10S 9767   6.366   6.621  10.406 -0.3106  0.2996 -0.6098
   98OSM   H10S 9768   6.451   6.678  10.449  0.7157 -2.3825  1.1722
   98OSM   H10T 9769   6.285   6.592  10.476  2.1607 -1.9967  1.5374
   98OSM   C11S 9770   6.316   6.700  10.290 -0.3372  0.1872  0.4010
   98OSM   H11S 9771   6.287   6.801  10.328 -0.0371  0.5966 -0.4331
   98OSM   H11T 9772   6.220   6.663  10.250 -0.5621  0.5785  0.5723
   98OSM   C12S 9773   6.411   6.711  10.168  0.3916 -0.0562  0.0832
   98OSM   H12S 9774   6.404   6.618  10.108  2.2669 -0.3842  0.2874
   98OSM   H12T 9775   6.511   6.712  10.216  0.4552 -0.6010 -0.0272
   98OSM   C13S 9776   6.377   6.838  10.088  0.1005  0.0413 -0.4747
   98OSM   H13S 9777   6.385   6.926  10.155  2.6881 -1.5194  1.4571
   98OSM   H13T 9778   6.278   6.826  10.039 -0.7482 -1.1558  1.4131
   98OSM   C14S 9779   6.482   6.873   9.977 -0.9396  0.2748 -0.3963
   98OSM   H14S 9780   6.488   6.800   9.893 -0.3776 -0.7236  0.4980
   98OSM   H14T 9781   6.582   6.890  10.022 -0.7282 -0.8437 -0.4256
   98OSM   C15S 9782   6.443   6.999   9.905  0.3501 -0.1104 -0.3518
   98OSM   H15S 9783   6.419   7.071   9.987  0.5948 -0.1409 -0.2538
   98OSM   H15T 9784   6.345   6.986   9.854 -0.3828 -0.5903  1.1027
   98OSM   C16S 9785   6.546   7.062   9.808  0.3975  0.2441  0.5696
   98OSM   H16S 9786   6.636   7.081   9.870  0.7011 -1.0355  0.5408
   98OSM   H16T 9787   6.499   7.156   9.770  1.5878  0.9060  0.6965
   98OSM   C17S 9788   6.570   6.976   9.679 -0.0312  0.6326 -0.0353
   98OSM   H17S 9789   6.472   6.956   9.631 -1.2059  1.0199  2.0540
   98OSM   H17T 9790   6.629   6.887   9.710 -0.4123  0.9581  1.7295
   98OSM   C18S 9791   6.653   7.054   9.576 -0.3924 -0.1400  0.1898
   98OSM   H18S 9792   6.595   7.146   9.551 -2.3681 -0.7030  2.3406
   98OSM   H18T 9793   6.675   6.988   9.489  0.4460  0.5979 -0.1676
   98OSM   H18U 9794   6.746   7.071   9.633  0.6692 -2.5152 -0.7157
   98OSM    C1F 9795   5.992   5.942  10.724  0.6962  0.0632 -0.0701
   98OSM     OF 9796   5.877   5.982  10.701 -0.4150 -0.1621 -0.3789
   98OSM    C2F 9797   6.067   5.846  10.643 -0.0702  0.0317 -0.0254
   98OSM    H2F 9798   6.113   5.765  10.704 -0.3003  0.1219  0.2677
   98OSM    H2G 9799   6.156   5.896  10.600  0.5427 -1.0814 -0.0995
   98OSM    C3F 9800   5.986   5.775  10.524  0.1136  0.5579 -0.6144
   98OSM    H3F 9801   5.953   5.859  10.459  1.0606  0.9922 -0.5428
   98OSM    H3G 9802   5.892   5.728  10.561  0.7407 -0.5938 -0.4531
   98OSM    C4F 9803   6.052   5.666  10.436 -0.1635  0.0405  0.5081
   98OSM    H4F 9804   6.048   5.566  10.484 -2.2407 -0.1607  0.0017
   98OSM    H4G 9805   6.161   5.681  10.422 -0.1331  1.5175  2.0305
   98OSM    C5F 9806   5.984   5.645  10.298 -0.0722 -0.3207 -0.4736
   98OSM    H5F 9807   6.013   5.732  10.234  0.1462  0.6210  0.8594
   98OSM    H5G 9808   5.873   5.634  10.306  0.0454 -0.3995  1.3677
   98OSM    C6F 9809   6.036   5.521  10.226 -0.2198  0.0621 -0.1341
   98OSM    H6F 9810   6.022   5.427  10.284  0.1693  0.4610  0.6187
   98OSM    H6G 9811   6.143   5.529  10.195 -0.3656  1.2443 -0.4012
   98OSM    C7F 9812   5.954   5.506  10.091  0.7418 -0.3790 -0.0817
   98OSM    H7F 9813   5.949   5.609  10.050  0.5013  1.8561  4.8199
   98OSM    H7G 9814   5.846   5.491  10.115  0.0570  0.6609 -2.2237
   98OSM    C8F 9815   6.004   5.395  10.006 -0.3677 -0.2193 -0.1768
   98OSM    H8F 9816   5.993   5.303  10.068  0.2824 -0.4069 -0.3319
   98OSM    H8G 9817   6.110   5.427   9.997 -0.6579  1.9874  2.7710
   98OSM    C9F 9818   5.939   5.372   9.873 -0.5439 -0.2705  0.0267
   98OSM    H9F 9819   5.838   5.330   9.884 -1.1021  0.6119 -1.4708
   98OSM   C10F 9820   5.993   5.397   9.752  0.0785 -0.1496  0.1617
   98OSM   H10F 9821   5.927   5.363   9.670  0.0306  0.2057  0.0532
   98OSM   C11F 9822   6.118   5.470   9.714  0.0473  0.2801 -0.2069
   98OSM   H11F 9823   6.190   5.385   9.707 -3.0110 -2.4545 -1.1065
   98OSM   H11G 9824   6.157   5.536   9.794  1.1327 -0.6195  0.0416
   98OSM   C12F 9825   6.105   5.545   9.588  0.2265  0.3005  0.4280
   98OSM   H12F 9826   6.093   5.479   9.499  1.5262  1.8479 -0.9522
   98OSM   H12G 9827   6.203   5.598   9.587 -0.6250  1.9391 -0.7627
   98OSM   C13F 9828   6.003   5.656   9.586  0.3796  0.5884 -0.0806
   98OSM   H13F 9829   6.038   5.721   9.669  0.9449  1.0575 -0.6712
   98OSM   H13G 9830   5.897   5.631   9.608  0.4495  1.0702  0.8661
   98OSM   C14F 9831   6.015   5.752   9.464 -0.0575 -0.5931 -0.3513
   98OSM   H14F 9832   5.974   5.693   9.380 -1.3095  0.5349 -0.5612
   98OSM   H14G 9833   6.119   5.784   9.438 -0.6312  0.0864 -1.9093
   98OSM   C15F 9834   5.942   5.884   9.477 -0.4219 -0.1999  1.1184
   98OSM   H15F 9835   6.009   5.956   9.529  0.1049  0.4968 -0.4793
   98OSM   H15G 9836   5.848   5.877   9.535 -0.6372  0.6125  0.8795
   98OSM   C16F 9837   5.912   5.959   9.344 -0.3480 -0.1179 -0.5302
   98OSM   H16F 9838   5.840   5.898   9.286 -0.6551  0.4780 -0.7785
   98OSM   H16G 9839   6.004   5.942   9.284  1.0345 -0.6777  1.6321
   98OSM   C17F 9840   5.877   6.104   9.366 -0.0705  0.1934  0.2341
   98OSM   H17F 9841   5.964   6.158   9.408  0.8343 -1.2204  0.2489
   98OSM   H17G 9842   5.785   6.117   9.427 -1.3253  0.7893 -1.6730
   98OSM   C18F 9843   5.844   6.167   9.232  1.1032 -0.4155  0.2231
   98OSM   H18F 9844   5.839   6.278   9.231 -2.1458 -0.4795 -1.5932
   98OSM   H18G 9845   5.744   6.135   9.199  1.0210  0.3191 -0.2592
   98OSM   H18H 9846   5.915   6.132   9.154  1.9677 -1.1163  1.2994
   99OSM      N 9847   1.820   6.135  11.361  0.4687 -0.0994  0.2195
   99OSM    C15 9848   1.788   6.222  11.486 -0.1632  0.1430 -0.1552
   99OSM   H15A 9849   1.684   6.204  11.507 -0.5319  1.6816 -0.5661
   99OSM   H15B 9850   1.793   6.327  11.460  0.2295  0.3981  0.8965
   99OSM   H15C 9851   1.846   6.203  11.575 -1.5365 -0.6167  0.5996
   99OSM    C14 9852   1.950   6.180  11.310  0.3811 -0.0491  0.2282
   99OSM   H14A 9853   2.031   6.172  11.381 -0.0719  0.0635  0.7729
   99OSM   H14B 9854   1.944   6.286  11.296 -1.0124 -0.2146 -0.6132
   99OSM   H14C 9855   1.970   6.138  11.213  0.8467 -1.0878  0.7470
   99OSM    C13 9856   1.822   5.987  11.393  0.1308 -0.3383  0.3470
   99OSM   H13A 9857   1.724   5.942  11.387  0.7839 -1.7022 -0.4805
   99OSM   H13B 9858   1.874   5.960  11.485 -0.0587 -0.6645  0.3576
   99OSM   H13C 9859   1.872   5.936  11.313  0.4201  1.2465 -0.5352
   99OSM    C12 9860   1.724   6.151  11.243  0.0221  0.4585 -0.3649
   99OSM   H12A 9861   1.726   6.254  11.210 -0.2959  0.3367 -0.7647
   99OSM   H12B 9862   1.625   6.124  11.276 -0.8453  1.8364 -1.6969
   99OSM    C11 9863   1.752   6.071  11.118 -0.1362 -0.3395  0.4611
   99OSM   H11A 9864   1.859   6.076  11.087 -0.2384 -1.5572 -0.1517
   99OSM   H11B 9865   1.699   6.127  11.039  0.5794 -0.4646 -0.1178
   99OSM      P 9866   1.572   5.874  11.102 -0.1599  0.3653 -0.3312
   99OSM    O13 9867   1.561   5.746  11.174  0.5087  0.4556 -0.1724
   99OSM    O14 9868   1.481   5.979  11.153  0.5614  0.5886  0.4860
   99OSM    O11 9869   1.554   5.860  10.952  0.2129  0.1588 -0.8214
   99OSM    O12 9870   1.712   5.933  11.130 -0.5532  0.2843  0.6333
   99OSM    C1S 9871   1.661   5.838  10.858  0.5681  0.0091 -0.5572
   99OSM    H1S 9872   1.722   5.750  10.889 -1.1938 -1.0064  0.1951
   99OSM    H1T 9873   1.715   5.935  10.852 -1.5594  1.3305  0.2509
   99OSM     NF 9874   1.724   5.762  10.624 -0.1924  0.1490  0.0076
   99OSM    HNF 9875   1.723   5.799  10.531  3.9025  0.4209 -0.0763
   99OSM    C2S 9876   1.613   5.798  10.714 -1.1463 -0.5161 -0.1074
   99OSM    H2S 9877   1.543   5.712  10.715 -1.9732  0.1475  0.4855
   99OSM    C3S 9878   1.522   5.923  10.660 -0.4979 -0.2094 -0.8196
   99OSM    H3S 9879   1.584   6.015  10.657 -0.5497 -0.1438 -0.1395
   99OSM     O3 9880   1.430   5.968  10.759  0.9583  0.2941 -0.0762
   99OSM    HO3 9881   1.463   5.940  10.845  0.9699  0.7832  0.0783
   99OSM    C4S 9882   1.454   5.885  10.529  0.3118 -0.2372 -0.2119
   99OSM    H4S 9883   1.512   5.922  10.443  0.1505  0.0663 -0.1885
   99OSM    C5S 9884   1.340   5.811  10.502  0.0611 -0.0920  0.0562
   99OSM    H5S 9885   1.271   5.782  10.583  0.2479 -3.1644 -0.7416
   99OSM    C6S 9886   1.288   5.779  10.360 -0.0549 -0.0944 -0.0205
   99OSM    H6S 9887   1.238   5.680  10.354 -0.8793  0.2538  0.7811
   99OSM    H6T 9888   1.367   5.785  10.283 -1.4248 -0.0434 -1.4618
   99OSM    C7S 9889   1.180   5.880  10.312  0.2730  0.5390 -0.5777
   99OSM    H7S 9890   1.219   5.982  10.293 -0.2782  0.5363 -1.7956
   99OSM    H7T 9891   1.099   5.879  10.388 -0.5948 -2.8159 -1.3776
   99OSM    C8S 9892   1.108   5.830  10.186  0.1143 -0.0615  0.0230
   99OSM    H8S 9893   1.031   5.907  10.167 -0.5856 -0.0305  2.5666
   99OSM    H8T 9894   1.059   5.732  10.202  3.0196 -1.3371  2.1275
   99OSM    C9S 9895   1.203   5.829  10.064 -0.4247 -0.3987 -0.3574
   99OSM    H9S 9896   1.267   5.739  10.052 -1.1945 -0.7043 -2.5005
   99OSM    H9T 9897   1.268   5.919  10.068  0.7282 -1.2170  3.1395
   99OSM   C10S 9898   1.123   5.829   9.932 -0.5482 -0.5645 -0.1061
   99OSM   H10S 9899   1.052   5.914   9.926  1.0829  0.8301 -0.3248
   99OSM   H10T 9900   1.059   5.739   9.932 -1.1852 -0.1246 -0.8587
   99OSM   C11S 9901   1.213   5.839   9.810  0.2533  0.0700  0.0311
   99OSM   H11S 9902   1.290   5.759   9.822  0.6363  0.2347 -1.1513
   99OSM   H11T 9903   1.254   5.941   9.801  0.7561  0.0112  1.4703
   99OSM   C12S 9904   1.132   5.801   9.685 -0.0837 -0.3143  0.4768
   99OSM   H12S 9905   1.098   5.696   9.690 -0.7756 -0.1393 -0.2183
   99OSM   H12T 9906   1.043   5.866   9.665  0.4906 -0.4957 -3.4633
   99OSM   C13S 9907   1.219   5.824   9.559  0.0086 -0.4142  0.1096
   99OSM   H13S 9908   1.302   5.750   9.547  0.0802 -0.5131  1.1407
   99OSM   H13T 9909   1.264   5.925   9.566 -1.8382  0.3613  1.9207
   99OSM   C14S 9910   1.131   5.808   9.435  0.2628  0.0527  0.6822
   99OSM   H14S 9911   1.050   5.885   9.435 -1.9787 -2.1523  0.4900
   99OSM   H14T 9912   1.066   5.718   9.440 -0.2980  0.4816  1.4128
   99OSM   C15S 9913   1.203   5.820   9.303  0.3926  0.4534 -0.0416
   99OSM   H15S 9914   1.311   5.803   9.322  0.1937  1.3480  2.2194
   99OSM   H15T 9915   1.169   5.914   9.254 -1.8549 -0.8661 -1.1330
   99OSM   C16S 9916   1.169   5.708   9.205 -0.0723  0.2899 -0.1012
   99OSM   H16S 9917   1.058   5.707   9.214 -0.1430  3.9821  0.9599
   99OSM   H16T 9918   1.214   5.612   9.237  1.2457  1.3147  1.2317
   99OSM   C17S 9919   1.223   5.720   9.066 -0.7060 -0.6431 -0.4129
   99OSM   H17S 9920   1.331   5.695   9.074 -0.0691  0.1838 -4.3857
   99OSM   H17T 9921   1.201   5.824   9.036 -1.9614  0.0055  2.4261
   99OSM   C18S 9922   1.176   5.623   8.958  0.2402 -0.7406 -0.3012
   99OSM   H18S 9923   1.232   5.644   8.864  3.1847 -2.9824  0.8145
   99OSM   H18T 9924   1.066   5.637   8.944 -0.4940 -2.4709  2.7716
   99OSM   H18U 9925   1.194   5.514   8.967  2.6225 -0.2453  2.1707
   99OSM    C1F 9926   1.806   5.660  10.648  0.0976 -0.3019  0.2053
   99OSM     OF 9927   1.829   5.611  10.757 -0.7823  0.1798 -0.5032
   99OSM    C2F 9928   1.895   5.625  10.526 -0.7159  0.1077 -0.5902
   99OSM    H2F 9929   1.954   5.718  10.510  0.0093 -0.3736 -0.7551
   99OSM    H2G 9930   1.823   5.614  10.442 -0.8199  0.4216 -0.5439
   99OSM    C3F 9931   1.975   5.496  10.550  0.6587  0.4688 -0.0996
   99OSM    H3F 9932   2.064   5.520  10.612 -1.0224  0.4917  2.4160
   99OSM    H3G 9933   1.904   5.431  10.605 -0.8468  0.7807 -1.5893
   99OSM    C4F 9934   2.006   5.433  10.416  0.3325 -0.3721  0.1568
   99OSM    H4F 9935   1.921   5.455  10.348  0.2196  4.5402  1.5414
   99OSM    H4G 9936   2.004   5.325  10.441 -1.8223  0.0579  2.1597
   99OSM    C5F 9937   2.140   5.472  10.360 -0.4061 -0.5626  0.2383
   99OSM    H5F 9938   2.223   5.443  10.428 -0.6727  0.8154  1.1896
   99OSM    H5G 9939   2.153   5.581  10.343 -0.2805 -0.8953 -2.1277
   99OSM    C6F 9940   2.183   5.398  10.232 -0.4850  0.7207  0.5881
   99OSM    H6F 9941   2.174   5.287  10.241  1.0536  0.6701  1.9240
   99OSM    H6G 9942   2.285   5.428  10.202 -0.5186 -1.7270 -2.4837
   99OSM    C7F 9943   2.103   5.441  10.105 -0.0672 -0.2117 -0.0715
   99OSM    H7F 9944   2.091   5.551  10.111  0.1227 -0.1658 -0.5063
   99OSM    H7G 9945   2.005   5.387  10.107 -1.5832  2.3757  0.8350
   99OSM    C8F 9946   2.175   5.413   9.967  0.5604 -0.0818  0.2174
   99OSM    H8F 9947   2.095   5.432   9.892 -1.3673  0.2302  2.2381
   99OSM    H8G 9948   2.205   5.306   9.961  2.3614  0.4000  0.0530
   99OSM    C9F 9949   2.300   5.497   9.946  0.1062  0.3426  0.0935
   99OSM    H9F 9950   2.379   5.493  10.022  0.7213 -0.9277 -0.5897
   99OSM   C10F 9951   2.342   5.549   9.834  0.3975  0.2555 -0.5816
   99OSM   H10F 9952   2.445   5.589   9.831  0.6152 -0.3286 -1.1877
   99OSM   C11F 9953   2.268   5.560   9.699  0.4827 -0.7976  0.6215
   99OSM   H11F 9954   2.158   5.574   9.702  0.8005  2.5274  0.5718
   99OSM   H11G 9955   2.294   5.467   9.645  0.6756 -0.1820 -0.3626
   99OSM   C12F 9956   2.331   5.676   9.617  0.9481 -0.3659 -0.9628
   99OSM   H12F 9957   2.441   5.667   9.604  1.4205  3.1009 -0.3996
   99OSM   H12G 9958   2.321   5.770   9.677 -2.0944 -1.7807  1.0083
   99OSM   C13F 9959   2.261   5.689   9.481 -0.5938 -0.5868 -0.3365
   99OSM   H13F 9960   2.152   5.687   9.500 -0.8424 -1.6674 -1.7495
   99OSM   H13G 9961   2.294   5.606   9.415 -2.0782 -0.3844 -1.3679
   99OSM   C14F 9962   2.310   5.831   9.421  0.3292 -0.2364 -0.0401
   99OSM   H14F 9963   2.421   5.823   9.413  0.2408 -3.2966  0.5681
   99OSM   H14G 9964   2.288   5.917   9.488  0.7347 -0.9066  0.9823
   99OSM   C15F 9965   2.249   5.853   9.283 -0.7293 -0.0221 -0.5140
   99OSM   H15F 9966   2.139   5.868   9.295 -0.6436 -0.4130  1.0210
   99OSM   H15G 9967   2.266   5.761   9.223 -0.6551 -0.4908  0.2067
   99OSM   C16F 9968   2.311   5.971   9.208 -0.1825  0.2120 -0.1640
   99OSM   H16F 9969   2.421   5.956   9.217 -0.3567 -0.6356  0.6730
   99OSM   H16G 9970   2.285   6.065   9.261  0.1099  0.5176 -0.5584
   99OSM   C17F 9971   2.257   5.974   9.060 -0.1106  0.0468 -0.5108
   99OSM   H17F 9972   2.146   5.975   9.073 -0.5695 -0.7224 -3.7091
   99OSM   H17G 9973   2.294   5.877   9.020  0.5026  0.7960 -1.8074
   99OSM   C18F 9974   2.316   6.087   8.980 -0.3975 -0.9597  0.0450
   99OSM   H18F 9975   2.331   6.054   8.875 -0.2572 -2.1260  0.4163
   99OSM   H18G 9976   2.413   6.128   9.015 -1.4407  2.1743 -0.4829
   99OSM   H18H 9977   2.243   6.170   8.979 -0.6486 -1.0988  2.1282
  100OSM      N 9978   3.425   6.239  11.113  0.0844 -1.1714  0.5215
  100OSM    C15 9979   3.420   6.120  11.207  0.0154  0.5318 -0.2608
  100OSM   H15A 9980   3.520   6.081  11.218  0.5754  1.3672 -2.0302
  100OSM   H15B 9981   3.367   6.038  11.162  0.9773 -0.5844  0.5948
  100OSM   H15C 9982   3.375   6.147  11.302  0.9613 -1.0247  0.6715
  100OSM    C14 9983   3.292   6.303  11.108  0.1298 -0.1159  0.1688
  100OSM   H14A 9984   3.289   6.386  11.038  1.3462  0.3029  0.5897
  100OSM   H14B 9985   3.273   6.350  11.204 -1.0386  0.1497 -0.1758
  100OSM   H14C 9986   3.210   6.235  11.090 -0.9491  1.5202 -1.4442
  100OSM    C13 9987   3.526   6.333  11.166 -0.7450  0.1809 -0.4518
  100OSM   H13A 9988   3.627   6.303  11.140 -1.1142 -1.5098 -0.0483
  100OSM   H13B 9989   3.527   6.348  11.273 -0.9350 -1.1931 -0.2437
  100OSM   H13C 9990   3.506   6.433  11.129 -1.9667  0.2063  0.2460
  100OSM    C12 9991   3.473   6.191  10.982  0.8949 -0.4420  0.3394
  100OSM   H12A 9992   3.391   6.132  10.944 -0.4359  1.3176  0.3314
  100OSM   H12B 9993   3.557   6.123  10.985  2.3470  1.2606 -0.0371
  100OSM    C11 9994   3.504   6.299  10.873  0.7274  0.3783 -0.0251
  100OSM   H11A 9995   3.527   6.234  10.786 -1.8785 -1.2026  0.3613
  100OSM   H11B 9996   3.594   6.362  10.887  1.2744 -0.3220 -0.3372
  100OSM      P 9997   3.375   6.536  10.863  0.3311 -0.1184 -0.4865
  100OSM    O13 9998   3.238   6.545  10.899  0.2904  0.0873  0.1324
  100OSM    O14 9999   3.465   6.594  10.972  0.4943 -0.1299  0.0196
  100OSM    O1110000   3.400   6.605  10.728  0.3891  0.3529 -0.3051
  100OSM    O1210001   3.389   6.380  10.833 -0.6253 -0.1282 -0.0225
  100OSM    C1S10002   3.407   6.516  10.613  0.6810  0.3936  0.6093
  100OSM    H1S10003   3.303   6.478  10.606  0.0561  1.8853  1.2214
  100OSM    H1T10004   3.475   6.431  10.632 -1.3630 -1.3032  0.6946
  100OSM     NF10005   3.406   6.535  10.363 -0.2793 -0.1895  0.1151
  100OSM    HNF10006   3.470   6.470  10.322 -1.0300 -2.0944  1.7937
  100OSM    C2S10007   3.454   6.594  10.484  0.2125  0.1782  0.2639
  100OSM    H2S10008   3.406   6.694  10.489  1.2784  0.7154 -0.0057
  100OSM    C3S10009   3.606   6.635  10.491  0.9728  0.0126 -0.4323
  100OSM    H3S10010   3.671   6.546  10.479  2.5151  0.9580  0.5418
  100OSM     O310011   3.638   6.692  10.615  0.2370  0.1512  0.0731
  100OSM    HO310012   3.564   6.671  10.672 -1.8843  1.9923 -1.7883
  100OSM    C4S10013   3.640   6.740  10.392 -0.5777 -1.2924  0.2694
  100OSM    H4S10014   3.585   6.835  10.397  0.4242 -0.4602 -2.6593
  100OSM    C5S10015   3.729   6.729  10.293 -0.2079  0.1400  0.3280
  100OSM    H5S10016   3.759   6.624  10.284  0.7336  0.2591  1.6246
  100OSM    C6S10017   3.767   6.824  10.178 -0.0016  0.3156 -0.2697
  100OSM    H6S10018   3.872   6.857  10.193 -0.4294  1.4699  0.2988
  100OSM    H6T10019   3.703   6.914  10.191 -0.1255  0.0613  1.1075
  100OSM    C7S10020   3.772   6.769  10.034  0.5743 -0.7711 -0.4669
  100OSM    H7S10021   3.672   6.747   9.992  1.1939 -0.2038 -2.3635
  100OSM    H7T10022   3.836   6.679  10.023 -0.0244 -1.5912  2.1068
  100OSM    C8S10023   3.829   6.878   9.938 -0.0521  0.3946  0.3877
  100OSM    H8S10024   3.938   6.876   9.963 -0.2134 -4.1018  1.7166
  100OSM    H8T10025   3.776   6.969   9.971 -0.6050  0.1446  0.1943
  100OSM    C9S10026   3.809   6.844   9.792  0.0389  0.5508  0.4891
  100OSM    H9S10027   3.705   6.826   9.759  0.2724 -1.0570  0.5470
  100OSM    H9T10028   3.861   6.747   9.778  1.0240  1.1119  0.1323
  100OSM   C10S10029   3.852   6.960   9.697  0.0247  0.9372  0.3601
  100OSM   H10S10030   3.961   6.949   9.681 -0.0951  1.3909 -0.8340
  100OSM   H10T10031   3.842   7.059   9.746  0.1315  1.2682 -0.2721
  100OSM   C11S10032   3.774   6.969   9.565 -0.0172 -0.5266  0.1630
  100OSM   H11S10033   3.688   7.036   9.587  0.3159  1.0369 -2.7293
  100OSM   H11T10034   3.739   6.872   9.523  0.0419 -0.6060  0.2985
  100OSM   C12S10035   3.857   7.043   9.457 -0.1682 -0.4695  0.7220
  100OSM   H12S10036   3.937   6.970   9.429  1.6577  1.7188 -0.0590
  100OSM   H12T10037   3.899   7.141   9.488 -1.0800 -0.4943  2.1221
  100OSM   C13S10038   3.767   7.062   9.332  0.3973  0.0703 -0.0487
  100OSM   H13S10039   3.678   7.117   9.367  0.6639 -0.0046  0.7693
  100OSM   H13T10040   3.724   6.965   9.298 -1.5038  0.0081  2.2341
  100OSM   C14S10041   3.855   7.112   9.218 -0.4670  1.2971  1.2040
  100OSM   H14S10042   3.917   7.033   9.169 -0.6890  3.0476 -2.2058
  100OSM   H14T10043   3.929   7.186   9.253 -0.6488  1.3997  1.3697
  100OSM   C15S10044   3.764   7.174   9.109 -0.9468  0.9118  0.1614
  100OSM   H15S10045   3.725   7.273   9.143 -1.8427  0.3061  0.9465
  100OSM   H15T10046   3.671   7.117   9.088  0.8408 -2.1601  0.0282
  100OSM   C16S10047   3.846   7.204   8.981  0.8775  0.3819  0.1857
  100OSM   H16S10048   3.948   7.244   8.996  1.3783 -0.6443 -0.3215
  100OSM   H16T10049   3.793   7.289   8.932  0.6729 -0.6322 -1.4629
  100OSM   C17S10050   3.839   7.081   8.885  0.0818  0.0496  0.3804
  100OSM   H17S10051   3.730   7.060   8.873 -0.1015  1.7525 -1.5537
  100OSM   H17T10052   3.895   6.991   8.917 -0.0966 -0.1420  0.1615
  100OSM   C18S10053   3.894   7.131   8.747 -0.5784  0.2443  0.6738
  100OSM   H18S10054   4.005   7.129   8.747 -0.5359  1.4681  1.6816
  100OSM   H18T10055   3.853   7.229   8.714  3.7153  1.7292 -0.8603
  100OSM   H18U10056   3.871   7.049   8.676 -1.2660  0.0821  1.0676
  100OSM    C1F10057   3.275   6.555  10.337  0.5501  0.7510  0.6374
  100OSM     OF10058   3.225   6.664  10.354 -0.1043  0.2711  0.3030
  100OSM    C2F10059   3.202   6.436  10.289 -0.1111 -0.6775  0.1532
  100OSM    H2F10060   3.133   6.406  10.370 -0.9301 -0.1170 -0.3324
  100OSM    H2G10061   3.274   6.351  10.284  1.5752  0.5653  1.8737
  100OSM    C3F10062   3.136   6.468  10.153  0.1816 -0.2732  0.3494
  100OSM    H3F10063   3.123   6.577  10.136  3.2697 -0.0925 -1.6819
  100OSM    H3G10064   3.037   6.417  10.145 -0.4029  0.8587  0.1876
  100OSM    C4F10065   3.208   6.428  10.028  0.4864  0.1094  1.3898
  100OSM    H4F10066   3.258   6.329  10.021  0.4378  0.1982 -0.7816
  100OSM    H4G10067   3.280   6.503   9.989  0.2820 -0.3838  0.0184
  100OSM    C5F10068   3.115   6.422   9.897 -0.0240  0.4271  0.0450
  100OSM    H5F10069   3.037   6.501   9.900 -0.4300  0.0556 -0.5004
  100OSM    H5G10070   3.070   6.321   9.899  0.0014  0.3764  2.9586
  100OSM    C6F10071   3.200   6.442   9.766  0.1585 -0.2491 -0.3568
  100OSM    H6F10072   3.302   6.402   9.782  0.8210  1.1880 -0.8647
  100OSM    H6G10073   3.220   6.550   9.750  0.2484 -0.3803 -1.1696
  100OSM    C7F10074   3.132   6.377   9.648 -0.4365  0.2575  0.4493
  100OSM    H7F10075   3.038   6.434   9.638 -2.6240 -2.8868  1.3519
  100OSM    H7G10076   3.103   6.272   9.670  0.5534  0.2890  2.0891
  100OSM    C8F10077   3.226   6.374   9.526  0.5664 -0.0207  0.3066
  100OSM    H8F10078   3.302   6.298   9.555 -0.8610 -2.1928 -1.3114
  100OSM    H8G10079   3.273   6.470   9.499  0.9755 -0.5163 -0.7900
  100OSM    C9F10080   3.155   6.328   9.405  0.1772  0.1687 -0.0213
  100OSM    H9F10081   3.056   6.282   9.417 -0.9673  1.9731 -1.9695
  100OSM   C10F10082   3.201   6.330   9.278  0.6315 -0.4499 -0.4812
  100OSM   H10F10083   3.139   6.278   9.204  0.5572 -1.8230  0.5116
  100OSM   C11F10084   3.327   6.390   9.236 -0.2348  0.5482  0.6207
  100OSM   H11F10085   3.393   6.321   9.179  2.9179  3.1924  0.8290
  100OSM   H11G10086   3.389   6.433   9.317  0.4200  0.6933  0.0461
  100OSM   C12F10087   3.311   6.509   9.140  0.2723 -0.8786  0.3485
  100OSM   H12F10088   3.401   6.572   9.121 -0.7644 -0.1236 -2.5229
  100OSM   H12G10089   3.242   6.581   9.187 -1.8362 -0.2869 -3.3402
  100OSM   C13F10090   3.248   6.481   9.004 -0.0623  0.4652 -0.0581
  100OSM   H13F10091   3.215   6.569   8.944  0.5657  1.6159  1.2342
  100OSM   H13G10092   3.159   6.416   9.021  1.7291 -2.2722 -0.5765
  100OSM   C14F10093   3.345   6.406   8.913  0.2430  0.2615 -0.1273
  100OSM   H14F10094   3.379   6.325   8.980 -1.7660  1.9257  3.1789
  100OSM   H14G10095   3.432   6.471   8.887  0.6223  0.0774  0.6446
  100OSM   C15F10096   3.285   6.356   8.780 -0.4509  0.5553 -0.0073
  100OSM   H15F10097   3.374   6.351   8.712  1.2942 -2.0151  2.2628
  100OSM   H15G10098   3.209   6.432   8.752  0.8317  0.7278 -3.5535
  100OSM   C16F10099   3.220   6.223   8.800  0.5907 -0.1176  0.4972
  100OSM   H16F10100   3.159   6.218   8.893  1.0750 -1.2186  0.7738
  100OSM   H16G10101   3.306   6.153   8.813  1.0458  0.1214 -1.0796
  100OSM   C17F10102   3.138   6.180   8.675  0.2717 -0.3575  0.0498
  100OSM   H17F10103   3.223   6.180   8.604  0.5495 -0.8044  0.3775
  100OSM   H17G10104   3.068   6.266   8.663  1.5358  0.6492 -0.2515
  100OSM   C18F10105   3.068   6.045   8.681  0.0882 -0.2566  0.7162
  100OSM   H18F10106   3.144   5.968   8.708  1.5708  0.2873 -1.5816
  100OSM   H18G10107   3.020   6.023   8.584  2.4007  2.7443 -1.3103
  100OSM   H18H10108   2.987   6.033   8.756 -0.5356 -2.9086 -0.2694
  101OSM      N10109   6.556   0.977  11.258 -0.2202  0.4432 -0.1476
  101OSM    C1510110   6.621   0.956  11.391  0.3980  0.9514  0.9071
  101OSM   H15A10111   6.610   1.047  11.449 -0.8471  2.4457 -1.4991
  101OSM   H15B10112   6.720   0.913  11.386 -0.6256 -1.4757  0.0641
  101OSM   H15C10113   6.558   0.885  11.442  0.2204  1.1879  1.0192
  101OSM    C1410114   6.407   0.996  11.276  0.1874 -0.7177  0.2758
  101OSM   H14A10115   6.351   0.991  11.184  0.6535 -1.2267  0.0108
  101OSM   H14B10116   6.375   1.093  11.312  0.0750 -0.9038  0.6841
  101OSM   H14C10117   6.363   0.916  11.333  0.4541  0.0232  1.5630
  101OSM    C1310118   6.615   1.101  11.207 -0.2361 -0.1236  0.1961
  101OSM   H13A10119   6.592   1.187  11.268 -2.0748 -0.6408  0.2752
  101OSM   H13B10120   6.570   1.126  11.112 -2.5471 -1.7402  0.7805
  101OSM   H13C10121   6.723   1.097  11.196 -0.1023 -0.5626  1.4686
  101OSM    C1210122   6.582   0.850  11.175 -0.1472  0.8081 -1.0450
  101OSM   H12A10123   6.538   0.769  11.231  0.8742  0.7550 -0.2965
  101OSM   H12B10124   6.684   0.818  11.181 -0.6692 -0.9590 -1.0591
  101OSM    C1110125   6.526   0.849  11.030 -0.1882 -0.7421  0.0029
  101OSM   H11A10126   6.582   0.783  10.960  0.0394 -0.8283  0.2685
  101OSM   H11B10127   6.527   0.952  10.989  2.2284 -1.5482 -2.2671
  101OSM      P10128   6.339   0.657  11.038  0.0067 -0.2154 -0.3528
  101OSM    O1310129   6.447   0.564  11.078  0.6836  0.5885 -0.2392
  101OSM    O1410130   6.218   0.651  11.118 -0.1044 -0.0482 -0.2657
  101OSM    O1110131   6.302   0.630  10.887 -0.1439 -0.5597  0.0955
  101OSM    O1210132   6.395   0.806  11.034  0.3143  0.9082 -0.2499
  101OSM    C1S10133   6.298   0.730  10.779 -0.3882  0.0781  0.5155
  101OSM    H1S10134   6.367   0.816  10.792 -0.4707  0.4029 -1.0936
  101OSM    H1T10135   6.200   0.782  10.785 -0.0559  0.7387  0.3086
  101OSM     NF10136   6.281   0.772  10.526  0.9784  0.0586 -0.0479
  101OSM    HNF10137   6.209   0.738  10.465  1.6788 -3.0223  0.6358
  101OSM    C2S10138   6.315   0.674  10.630 -0.2154 -0.2464 -0.4679
  101OSM    H2S10139   6.422   0.645  10.624  0.0659  0.3119  1.3348
  101OSM    C3S10140   6.242   0.540  10.622  0.1940  0.6163  0.3221
  101OSM    H3S10141   6.134   0.561  10.637  0.2611  0.4756  1.0551
  101OSM     O310142   6.275   0.437  10.718 -0.0969  0.6245 -0.2893
  101OSM    HO310143   6.344   0.476  10.771 -0.1988  1.0116 -0.4381
  101OSM    C4S10144   6.253   0.489  10.481  0.5969  0.3290  0.2067
  101OSM    H4S10145   6.350   0.476  10.431  0.9345  0.2476  0.8682
  101OSM    C5S10146   6.150   0.444  10.410  0.0543  0.1170 -0.8853
  101OSM    H5S10147   6.046   0.449  10.447  0.1500  0.7709 -0.6944
  101OSM    C6S10148   6.161   0.386  10.269 -0.3833  0.9069 -0.8812
  101OSM    H6S10149   6.136   0.279  10.286  1.9046  0.3765 -0.5629
  101OSM    H6T10150   6.263   0.383  10.227 -0.1605  0.4502 -0.3086
  101OSM    C7S10151   6.062   0.444  10.169 -0.5821 -0.6024 -0.1228
  101OSM    H7S10152   6.084   0.553  10.159  1.9551 -1.0623 -0.2641
  101OSM    H7T10153   5.955   0.423  10.190 -0.8874  0.7838 -0.1600
  101OSM    C8S10154   6.104   0.401  10.024 -0.9096 -0.7255 -0.0500
  101OSM    H8S10155   6.090   0.291  10.014  1.1248 -1.1148  0.8453
  101OSM    H8T10156   6.213   0.416  10.009 -0.9310  1.0862  1.2411
  101OSM    C9S10157   6.029   0.471   9.901  0.0124 -0.4526  0.1436
  101OSM    H9S10158   6.062   0.576   9.889  0.1136 -0.7236 -2.8196
  101OSM    H9T10159   5.920   0.462   9.922  0.1060 -1.1575  0.3511
  101OSM   C10S10160   6.045   0.392   9.770 -0.6577  0.1099  0.5391
  101OSM   H10S10161   6.031   0.282   9.777  1.4758 -0.3063 -0.9241
  101OSM   H10T10162   6.150   0.398   9.733 -1.1105 -0.9048 -1.0611
  101OSM   C11S10163   5.955   0.443   9.651  0.5056  0.4536  0.2507
  101OSM   H11S10164   5.950   0.554   9.648 -1.9736  0.3939 -0.8556
  101OSM   H11T10165   5.848   0.420   9.674  1.0029 -0.9682  1.2279
  101OSM   C12S10166   5.981   0.386   9.511  0.1137 -0.1360 -0.1436
  101OSM   H12S10167   5.907   0.429   9.440  0.2073  0.1920 -0.0425
  101OSM   H12T10168   5.972   0.276   9.525  2.0305 -0.2442  0.4830
  101OSM   C13S10169   6.123   0.418   9.457  0.1626  0.4640 -0.7098
  101OSM   H13S10170   6.185   0.351   9.520 -1.8756 -2.4110 -1.6015
  101OSM   H13T10171   6.147   0.520   9.494  1.2502  0.2131 -0.6700
  101OSM   C14S10172   6.152   0.409   9.303 -0.4717  0.4247 -0.4172
  101OSM   H14S10173   6.174   0.301   9.291  0.3321  0.1542  2.6004
  101OSM   H14T10174   6.256   0.449   9.298 -1.1723  2.2786 -0.8204
  101OSM   C15S10175   6.061   0.456   9.187 -0.5854 -0.2803  0.5659
  101OSM   H15S10176   5.967   0.397   9.184 -1.4140  0.9400  1.6357
  101OSM   H15T10177   6.110   0.438   9.089  0.7691  2.2311  0.7033
  101OSM   C16S10178   6.020   0.603   9.190 -0.7426  0.0073  0.6334
  101OSM   H16S10179   6.116   0.657   9.172 -0.5830 -0.5244 -0.1892
  101OSM   H16T10180   5.967   0.623   9.285 -0.8295  1.0322  0.3868
  101OSM   C17S10181   5.929   0.638   9.074  0.2354 -0.3569  0.0030
  101OSM   H17S10182   5.896   0.744   9.089  2.3261  0.3596 -0.1251
  101OSM   H17T10183   5.842   0.570   9.090 -1.9850  2.5300  1.1990
  101OSM   C18S10184   5.984   0.651   8.928  0.4353  0.1404  0.3652
  101OSM   H18S10185   5.906   0.674   8.852  1.5153  1.1387 -0.4948
  101OSM   H18T10186   6.035   0.557   8.897 -0.2308  0.2654 -1.2329
  101OSM   H18U10187   6.067   0.725   8.923 -0.5547  1.2891  0.5850
  101OSM    C1F10188   6.354   0.881  10.504 -0.5272 -0.0723 -0.6314
  101OSM     OF10189   6.446   0.909  10.581  0.3761  0.3848 -0.1288
  101OSM    C2F10190   6.334   0.965  10.377 -0.2966 -0.2848 -0.4488
  101OSM    H2F10191   6.232   1.008  10.371  0.2302  1.5196  1.8090
  101OSM    H2G10192   6.330   0.884  10.302 -1.4960  0.0868 -0.8107
  101OSM    C3F10193   6.437   1.073  10.352 -1.0961  0.3034  0.1891
  101OSM    H3F10194   6.526   1.017  10.316 -1.5803 -0.3061 -0.0869
  101OSM    H3G10195   6.455   1.127  10.447  0.4386 -0.0974  0.1626
  101OSM    C4F10196   6.382   1.177  10.253 -0.4991 -1.0100  0.2871
  101OSM    H4F10197   6.460   1.254  10.232 -1.3115 -0.4594 -0.8159
  101OSM    H4G10198   6.306   1.239  10.304  0.1217  0.2035 -0.2041
  101OSM    C5F10199   6.320   1.124  10.122  0.3395 -0.1639  0.1803
  101OSM    H5F10200   6.250   1.042  10.147 -1.9979  1.8683  0.6835
  101OSM    H5G10201   6.403   1.108  10.050  1.7396  1.8605  1.2447
  101OSM    C6F10202   6.236   1.236  10.053  0.2991 -0.3008 -0.5548
  101OSM    H6F10203   6.151   1.256  10.122  0.7612 -0.3310  0.0304
  101OSM    H6G10204   6.294   1.329  10.040  0.5976 -0.0932  1.8463
  101OSM    C7F10205   6.188   1.189   9.915 -0.3320 -0.5866 -0.3434
  101OSM    H7F10206   6.163   1.082   9.932 -1.2313 -0.0490  2.1504
  101OSM    H7G10207   6.276   1.204   9.849 -1.6849 -0.8989 -2.3100
  101OSM    C8F10208   6.062   1.262   9.875  0.3767  0.5138 -0.2053
  101OSM    H8F10209   5.975   1.232   9.938 -0.6752  0.7050 -1.5051
  101OSM    H8G10210   6.032   1.229   9.773  0.8889  1.5519 -0.7039
  101OSM    C9F10211   6.072   1.415   9.877 -0.3448  0.9543 -0.3200
  101OSM    H9F10212   6.070   1.465   9.975  0.0332  0.6421 -0.1527
  101OSM   C10F10213   6.109   1.494   9.774 -0.0386  0.4971  0.0255
  101OSM   H10F10214   6.100   1.604   9.773 -0.2079  0.4890  0.6778
  101OSM   C11F10215   6.134   1.449   9.635 -0.0274 -0.2708 -0.1683
  101OSM   H11F10216   6.184   1.350   9.627  3.8090  1.4131  0.5626
  101OSM   H11G10217   6.220   1.507   9.595  1.6331 -0.1952  3.1533
  101OSM   C12F10218   6.023   1.467   9.533 -0.9095  0.3445 -0.8568
  101OSM   H12F10219   5.953   1.548   9.563 -0.7229  1.3276 -2.8924
  101OSM   H12G10220   5.959   1.376   9.530 -1.2282  0.5877 -2.2693
  101OSM   C13F10221   6.072   1.487   9.397  0.5658  0.0361  0.9598
  101OSM   H13F10222   6.149   1.414   9.365 -0.2471 -0.3593 -0.1228
  101OSM   H13G10223   6.115   1.589   9.386 -0.6912  0.3476 -1.6757
  101OSM   C14F10224   5.956   1.480   9.296  0.9604 -0.1913 -0.2725
  101OSM   H14F10225   5.862   1.526   9.333 -1.0816 -3.7213 -0.6337
  101OSM   H14G10226   5.927   1.373   9.292 -1.2453  0.1851  2.7615
  101OSM   C15F10227   5.988   1.530   9.154 -0.0873  0.0824  0.1300
  101OSM   H15F10228   5.898   1.507   9.093 -0.1244  0.7809 -0.0857
  101OSM   H15G10229   6.077   1.470   9.127  0.5082  1.3691 -0.8495
  101OSM   C16F10230   6.007   1.677   9.128  0.1137  0.0388 -0.4950
  101OSM   H16F10231   6.066   1.690   9.034 -0.7310 -1.0362 -1.2008
  101OSM   H16G10232   6.070   1.716   9.210  0.4140  0.5169 -0.9481
  101OSM   C17F10233   5.873   1.760   9.111  0.6604 -0.8350  0.5481
  101OSM   H17F10234   5.805   1.732   9.194 -1.5038  1.4975 -0.3073
  101OSM   H17G10235   5.828   1.724   9.016  1.0005  0.6574 -0.2103
  101OSM   C18F10236   5.895   1.911   9.109 -0.4394 -0.8193 -0.5960
  101OSM   H18F10237   5.981   1.941   9.172 -1.0291 -0.5053  0.0821
  101OSM   H18G10238   5.819   1.976   9.158  0.4800 -1.6649  2.1410
  101OSM   H18H10239   5.909   1.943   9.004  1.0283  0.2004 -0.1136
  102OSM      N10240   1.608   1.842  10.808  0.5260  0.1170 -0.3983
  102OSM    C1510241   1.591   1.915  10.682  1.1523  0.6315  0.6535
  102OSM   H15A10242   1.678   1.903  10.618  1.6463  0.0994  1.3979
  102OSM   H15B10243   1.568   2.018  10.701 -4.0545 -0.0001 -0.7965
  102OSM   H15C10244   1.507   1.871  10.630  1.9150 -0.0478 -0.0512
  102OSM    C1410245   1.731   1.885  10.891  0.5836 -0.6539  0.5830
  102OSM   H14A10246   1.747   1.992  10.883 -0.2120 -0.4523  1.4579
  102OSM   H14B10247   1.815   1.837  10.843 -0.6256 -2.1568 -0.1052
  102OSM   H14C10248   1.735   1.860  10.996 -0.1472 -0.2746  0.7096
  102OSM    C1310249   1.485   1.861  10.894 -0.5604  0.0952 -0.5573
  102OSM   H13A10250   1.487   1.802  10.984 -1.0932 -1.0192 -1.2600
  102OSM   H13B10251   1.399   1.820  10.845 -0.2768 -0.4991 -0.5675
  102OSM   H13C10252   1.462   1.964  10.917 -3.5559 -0.6183  0.0413
  102OSM    C1210253   1.621   1.697  10.756 -0.2285  0.2388 -0.2609
  102OSM   H12A10254   1.538   1.678  10.689 -1.1077 -1.8849  1.2967
  102OSM   H12B10255   1.609   1.626  10.836  1.4887  0.0967 -0.0894
  102OSM    C1110256   1.764   1.663  10.696  0.2286 -0.4189  0.3462
  102OSM   H11A10257   1.787   1.733  10.612  1.6042 -2.5147 -1.1395
  102OSM   H11B10258   1.744   1.559  10.663  1.3106 -1.9240  3.9702
  102OSM      P10259   2.021   1.662  10.765 -0.4506  0.3791 -0.6007
  102OSM    O1310260   2.095   1.630  10.889 -0.0337 -0.1583 -0.2607
  102OSM    O1410261   2.045   1.580  10.643 -0.2577 -0.3632  0.6357
  102OSM    O1110262   2.048   1.804  10.730  0.2582 -0.3218  0.6296
  102OSM    O1210263   1.868   1.670  10.796  0.1581  0.3154 -0.2645
  102OSM    C1S10264   2.168   1.852  10.661 -0.3687 -0.3538  0.1527
  102OSM    H1S10265   2.225   1.770  10.612 -1.4350 -0.7377 -0.4614
  102OSM    H1T10266   2.246   1.910  10.716 -0.8797  0.5881 -0.1096
  102OSM     NF10267   2.235   1.966  10.443 -0.6041 -0.1567  0.7270
  102OSM    HNF10268   2.274   2.058  10.449 -3.3664  1.1535  0.4928
  102OSM    C2S10269   2.123   1.935  10.531 -0.2189 -0.8034 -0.0650
  102OSM    H2S10270   2.054   1.863  10.482 -1.0604  0.0605 -0.1674
  102OSM    C3S10271   2.036   2.060  10.576 -0.4495 -0.1067  0.1636
  102OSM    H3S10272   2.093   2.131  10.640 -0.4414 -2.2997  2.7646
  102OSM     O310273   1.923   2.030  10.660  0.1494  0.2582  0.0058
  102OSM    HO310274   1.938   1.936  10.675  0.0949 -0.1307 -2.1182
  102OSM    C4S10275   1.992   2.137  10.457  0.7252 -0.3371 -0.2113
  102OSM    H4S10276   1.950   2.076  10.375 -2.2972  1.2189  0.0063
  102OSM    C5S10277   2.004   2.269  10.437  0.4049 -1.2974 -0.0018
  102OSM    H5S10278   2.065   2.327  10.507  0.4035  2.2392 -2.6638
  102OSM    C6S10279   1.966   2.348  10.316  0.2417 -0.1598  0.2117
  102OSM    H6S10280   2.049   2.410  10.277  0.6856 -1.5769 -1.2177
  102OSM    H6T10281   1.886   2.420  10.343  0.0405 -0.3982  0.2604
  102OSM    C7S10282   1.933   2.270  10.186 -0.3410  0.4155 -0.7592
  102OSM    H7S10283   1.851   2.198  10.207  0.0926  0.2674  0.5071
  102OSM    H7T10284   2.026   2.220  10.154  0.1275 -1.4484  3.0038
  102OSM    C8S10285   1.886   2.357  10.066  0.4009  0.4035  0.1430
  102OSM    H8S10286   1.964   2.433  10.046  0.5713  0.1272 -0.2547
  102OSM    H8T10287   1.791   2.402  10.102 -0.3377 -2.0256  1.5407
  102OSM    C9S10288   1.875   2.288   9.934 -0.5634 -0.0160  0.6658
  102OSM    H9S10289   1.814   2.195   9.942 -1.3137  0.2953 -0.9702
  102OSM    H9T10290   1.974   2.240   9.917 -0.1017  0.8411  0.8949
  102OSM   C10S10291   1.830   2.378   9.820  0.5931 -0.9601  0.2102
  102OSM   H10S10292   1.893   2.469   9.825  0.6129 -1.0152  1.2300
  102OSM   H10T10293   1.731   2.414   9.855 -0.6466 -3.2715 -0.6882
  102OSM   C11S10294   1.832   2.317   9.683  0.4261 -0.2335 -0.6791
  102OSM   H11S10295   1.734   2.281   9.644  0.3644  1.2369 -2.0170
  102OSM   H11T10296   1.899   2.229   9.686  1.1705  0.3499  0.0750
  102OSM   C12S10297   1.866   2.421   9.574  0.2120 -0.0132 -0.5691
  102OSM   H12S10298   1.973   2.445   9.594  0.6582 -0.1674 -2.5797
  102OSM   H12T10299   1.794   2.505   9.581  0.6104  0.2002  1.8857
  102OSM   C13S10300   1.864   2.368   9.429  1.0664  0.4683 -0.2006
  102OSM   H13S10301   1.762   2.346   9.392  0.6236  1.3745  0.4425
  102OSM   H13T10302   1.912   2.267   9.423  0.6687  0.2121  0.7722
  102OSM   C14S10303   1.928   2.476   9.338 -1.2757  0.3729  0.2902
  102OSM   H14S10304   2.025   2.511   9.379 -1.4867 -1.1008  2.2268
  102OSM   H14T10305   1.857   2.562   9.329  1.1010  2.6462  1.8207
  102OSM   C15S10306   1.954   2.410   9.196 -0.1696 -0.7199  0.1268
  102OSM   H15S10307   1.932   2.484   9.116  0.6874 -0.1296  0.4224
  102OSM   H15T10308   1.873   2.335   9.181 -0.5222 -0.3746  0.2810
  102OSM   C16S10309   2.102   2.366   9.168 -0.3541  0.5058  0.2493
  102OSM   H16S10310   2.114   2.317   9.069 -0.8941  0.3132  0.2747
  102OSM   H16T10311   2.124   2.294   9.249 -0.5165  2.1435  1.7989
  102OSM   C17S10312   2.205   2.474   9.163  0.6047 -0.2424  0.3740
  102OSM   H17S10313   2.307   2.434   9.180  2.3472  3.6878  0.3287
  102OSM   H17T10314   2.184   2.542   9.248  1.1954 -0.1240  0.4252
  102OSM   C18S10315   2.195   2.554   9.032 -0.8335 -0.0745 -0.1528
  102OSM   H18S10316   2.276   2.630   9.032  0.2885 -1.2089  0.9668
  102OSM   H18T10317   2.097   2.603   9.017 -1.1519 -1.1869 -2.0061
  102OSM   H18U10318   2.212   2.485   8.946 -2.1490  1.8778 -2.0973
  102OSM    C1F10319   2.284   1.878  10.357  0.0761  0.7241  0.5414
  102OSM     OF10320   2.224   1.773  10.330 -0.3837  0.1448  0.5396
  102OSM    C2F10321   2.419   1.903  10.304 -0.1996 -0.7458 -0.0990
  102OSM    H2F10322   2.421   1.850  10.207 -1.1706  0.3693 -0.7501
  102OSM    H2G10323   2.492   1.855  10.374  1.2730  0.9070 -0.4224
  102OSM    C3F10324   2.464   2.049  10.278 -0.8693 -0.4247  0.5237
  102OSM    H3F10325   2.561   2.036  10.227 -1.0771 -1.1745  0.3074
  102OSM    H3G10326   2.495   2.110  10.366 -1.3534  0.8832 -0.1771
  102OSM    C4F10327   2.376   2.139  10.178 -0.6450  0.8629 -0.5825
  102OSM    H4F10328   2.440   2.227  10.155  1.0506 -0.6205 -1.8094
  102OSM    H4G10329   2.288   2.170  10.239  0.8168  0.0135  2.1278
  102OSM    C5F10330   2.334   2.061  10.058 -0.7411  0.3167  0.6938
  102OSM    H5F10331   2.260   1.981  10.078 -0.7997  0.3514  0.6178
  102OSM    H5G10332   2.423   2.009  10.014 -2.0855  0.6822 -2.8261
  102OSM    C6F10333   2.284   2.155   9.947  0.8160 -0.0804 -0.4182
  102OSM    H6F10334   2.373   2.217   9.923  1.7437 -1.1022  0.2783
  102OSM    H6G10335   2.199   2.219   9.977 -0.6776 -2.2967  0.3104
  102OSM    C7F10336   2.245   2.080   9.823 -0.2051 -0.1985 -0.1836
  102OSM    H7F10337   2.153   2.023   9.847 -0.6775  0.6876  0.1459
  102OSM    H7G10338   2.323   2.004   9.799  1.1960  1.2919 -0.5527
  102OSM    C8F10339   2.235   2.172   9.706 -0.3046 -0.0481  0.3224
  102OSM    H8F10340   2.334   2.218   9.685  0.1909 -1.1826  0.0962
  102OSM    H8G10341   2.160   2.248   9.736 -0.5704 -0.2333  0.1381
  102OSM    C9F10342   2.184   2.104   9.584 -0.3220  0.3033  0.0567
  102OSM    H9F10343   2.088   2.052   9.598 -0.4780  0.1162 -1.5183
  102OSM   C10F10344   2.245   2.093   9.466 -0.1283 -0.2194 -0.3166
  102OSM   H10F10345   2.206   2.027   9.388  0.3105  2.3845 -2.9000
  102OSM   C11F10346   2.380   2.156   9.431  0.2862  0.0908  0.7308
  102OSM   H11F10347   2.445   2.154   9.520  2.3842 -0.7111 -0.7489
  102OSM   H11G10348   2.359   2.264   9.413 -4.2860 -0.5585  0.7428
  102OSM   C12F10349   2.455   2.103   9.313  0.7055 -0.5359  0.0195
  102OSM   H12F10350   2.380   2.105   9.230 -0.9779  0.2079  1.4902
  102OSM   H12G10351   2.483   1.996   9.312 -0.0954 -0.7477 -0.4101
  102OSM   C13F10352   2.583   2.185   9.270 -0.9674  0.5714 -0.5257
  102OSM   H13F10353   2.643   2.195   9.363  1.0203  1.8301 -1.8655
  102OSM   H13G10354   2.539   2.277   9.227 -0.7294  1.1848  0.5125
  102OSM   C14F10355   2.677   2.101   9.175  0.0597  0.2071 -0.8610
  102OSM   H14F10356   2.612   2.041   9.109  0.7640 -2.0354  0.3540
  102OSM   H14G10357   2.743   2.036   9.238  0.9909  2.1992  0.3198
  102OSM   C15F10358   2.753   2.202   9.090  0.9195 -0.1869 -0.6220
  102OSM   H15F10359   2.816   2.264   9.157 -3.5153  3.2409  0.8071
  102OSM   H15G10360   2.682   2.278   9.052 -0.9076 -0.5531  1.8375
  102OSM   C16F10361   2.836   2.148   8.974  0.5632  0.1272  0.6583
  102OSM   H16F10362   2.882   2.236   8.925  2.5670 -1.6579 -0.8781
  102OSM   H16G10363   2.763   2.109   8.899  2.2407 -2.8600  0.4206
  102OSM   C17F10364   2.934   2.038   9.014 -0.2324 -0.4968 -0.7290
  102OSM   H17F10365   2.871   1.953   9.048 -3.6491  1.3275 -2.1063
  102OSM   H17G10366   2.987   2.089   9.098 -1.3246  0.6962 -0.7538
  102OSM   C18F10367   3.032   1.970   8.909 -0.3190 -0.0901 -0.0644
  102OSM   H18F10368   3.110   2.040   8.875 -0.3610  0.2480  0.5190
  102OSM   H18G10369   2.966   1.938   8.825  0.9651 -0.1479 -1.0765
  102OSM   H18H10370   3.081   1.888   8.966 -1.4179  0.3994  1.6555
  103OSM      N10371   1.164   5.702  11.331  0.3554 -1.2103  0.2196
  103OSM    C1510372   1.250   5.698  11.454 -0.4146 -0.1681  0.3096
  103OSM   H15A10373   1.197   5.711  11.547  2.6262 -1.2678  2.3677
  103OSM   H15B10374   1.325   5.776  11.442 -0.1057 -0.4632  0.3029
  103OSM   H15C10375   1.298   5.602  11.465  0.8051  0.5272  1.4730
  103OSM    C1410376   1.050   5.606  11.345  0.6359  0.0619  0.0746
  103OSM   H14A10377   1.025   5.606  11.450  1.4541 -0.0584  0.2758
  103OSM   H14B10378   1.074   5.504  11.318  0.0012  0.4385 -2.0640
  103OSM   H14C10379   0.966   5.638  11.286  1.5129  1.3195 -0.5323
  103OSM    C1310380   1.107   5.841  11.335 -0.4165 -1.0287  0.4926
  103OSM   H13A10381   1.027   5.848  11.263  0.1571 -1.1409 -0.1638
  103OSM   H13B10382   1.186   5.907  11.301  0.4007 -2.0591  0.3660
  103OSM   H13C10383   1.070   5.875  11.431  0.2461  0.4002  0.2750
  103OSM    C1210384   1.244   5.675  11.206  0.6463 -0.0092 -0.0810
  103OSM   H12A10385   1.273   5.571  11.201 -0.0935 -0.2534  0.5751
  103OSM   H12B10386   1.336   5.732  11.194  0.5621  0.2074  0.2852
  103OSM    C1110387   1.159   5.691  11.074  0.2192  0.0793  0.2706
  103OSM   H11A10388   1.103   5.786  11.067 -1.6494 -1.0744 -2.6059
  103OSM   H11B10389   1.081   5.611  11.074  0.8666 -0.5676  1.0565
  103OSM      P10390   1.306   5.535  10.914  0.0232 -0.2556  0.1860
  103OSM    O1310391   1.409   5.563  10.816  0.5340  0.2635  0.6548
  103OSM    O1410392   1.348   5.473  11.040 -0.3106  0.1346  0.4963
  103OSM    O1110393   1.180   5.454  10.862 -0.8365  0.8730  0.5934
  103OSM    O1210394   1.235   5.672  10.951 -0.1646  0.1512 -0.2769
  103OSM    C1S10395   1.131   5.509  10.739  1.4165  0.5630 -0.1958
  103OSM    H1S10396   1.207   5.519  10.658  1.9048 -1.0371  0.0130
  103OSM    H1T10397   1.074   5.601  10.764  2.3522  1.1958 -0.3374
  103OSM     NF10398   0.962   5.464  10.579  0.3440  0.4737  0.5983
  103OSM    HNF10399   0.901   5.542  10.591  0.1481  0.5706 -0.8475
  103OSM    C2S10400   1.014   5.410  10.697 -0.5354  0.0669  0.2780
  103OSM    H2S10401   1.060   5.311  10.679 -0.7316 -0.0419  0.3584
  103OSM    C3S10402   0.916   5.381  10.823 -0.0664 -0.5941 -0.9986
  103OSM    H3S10403   0.884   5.481  10.861  0.3675 -0.9890  0.4547
  103OSM     O310404   0.976   5.328  10.947  0.1145  0.6948  0.1817
  103OSM    HO310405   1.071   5.339  10.935  0.3488 -0.0050  1.2809
  103OSM    C4S10406   0.799   5.301  10.772 -0.4774 -0.2961 -0.8075
  103OSM    H4S10407   0.709   5.361  10.751 -2.0979 -1.8148  1.2733
  103OSM    C5S10408   0.789   5.167  10.771  0.0839  0.7586  0.2177
  103OSM    H5S10409   0.854   5.094  10.822 -1.0132 -1.8918 -1.8813
  103OSM    C6S10410   0.662   5.106  10.728  0.9686  0.0139 -0.3695
  103OSM    H6S10411   0.581   5.102  10.803 -0.0629 -0.3561 -1.4720
  103OSM    H6T10412   0.676   4.996  10.719 -1.7237 -0.3746 -0.8214
  103OSM    C7S10413   0.598   5.157  10.594 -0.7150  0.1078 -0.1918
  103OSM    H7S10414   0.667   5.119  10.516 -0.9419 -0.1181 -0.2820
  103OSM    H7T10415   0.598   5.268  10.582 -1.0130  0.0405 -0.8842
  103OSM    C8S10416   0.457   5.104  10.567  0.4058 -0.2112  0.0522
  103OSM    H8S10417   0.375   5.146  10.630  0.7967  2.0224 -0.8186
  103OSM    H8T10418   0.464   4.998  10.600  0.2697 -0.0954  0.4612
  103OSM    C9S10419   0.401   5.112  10.422  0.1060  0.2478 -0.2604
  103OSM    H9S10420   0.324   5.033  10.407 -0.3809  0.6818 -0.0751
  103OSM    H9T10421   0.479   5.110  10.342  0.2172 -1.9595 -0.1606
  103OSM   C10S10422   0.321   5.243  10.392 -0.3733 -0.5695 -0.9632
  103OSM   H10S10423   0.394   5.319  10.359  0.2488  0.3163  2.1313
  103OSM   H10T10424   0.267   5.274  10.484 -2.7589  1.9387 -3.0389
  103OSM   C11S10425   0.229   5.226  10.277 -0.4584 -0.1250  0.5613
  103OSM   H11S10426   0.166   5.317  10.276  0.6775  0.7065 -0.8664
  103OSM   H11T10427   0.167   5.134  10.284  0.2492 -0.5820  0.9803
  103OSM   C12S10428   0.307   5.220  10.147  0.0679  0.7655  0.7069
  103OSM   H12S10429   0.372   5.130  10.137 -1.3979 -0.0033 -4.2538
  103OSM   H12T10430   0.383   5.300  10.137  2.0023 -1.1806 -1.4679
  103OSM   C13S10431   0.215   5.210  10.022 -0.1636 -0.1465 -1.0975
  103OSM   H13S10432   0.148   5.297  10.011  0.1580  0.3340  0.4975
  103OSM   H13T10433   0.165   5.111  10.017  3.1496 -2.1667  1.5396
  103OSM   C14S10434   0.310   5.223   9.900 -0.0580  0.5049  0.4627
  103OSM   H14S10435   0.389   5.149   9.923  0.8077  1.0723 -0.5863
  103OSM   H14T10436   0.349   5.326   9.905 -3.6444  1.9601  1.8268
  103OSM   C15S10437   0.244   5.195   9.767  0.5845  0.0974 -0.4351
  103OSM   H15S10438   0.166   5.274   9.759  0.0713 -0.3153  0.3320
  103OSM   H15T10439   0.198   5.093   9.763  0.0877  0.3006 -0.0393
  103OSM   C16S10440   0.335   5.192   9.645  0.6299 -0.4544  0.7459
  103OSM   H16S10441   0.421   5.123   9.648  0.2077 -1.1061 -0.7895
  103OSM   H16T10442   0.372   5.296   9.632 -0.1291 -0.2787 -0.1926
  103OSM   C17S10443   0.252   5.149   9.519  0.2693  0.3180  0.0570
  103OSM   H17S10444   0.161   5.209   9.500 -3.0682 -3.6744  1.9440
  103OSM   H17T10445   0.209   5.048   9.529  1.8085 -0.3467  0.3145
  103OSM   C18S10446   0.340   5.151   9.390 -0.0594 -0.3381 -0.3252
  103OSM   H18S10447   0.277   5.138   9.300 -2.2937  0.7500  0.9992
  103OSM   H18T10448   0.409   5.064   9.383  0.6189  0.3041 -2.3632
  103OSM   H18U10449   0.403   5.243   9.381 -1.1241  0.3262 -1.2080
  103OSM    C1F10450   1.009   5.436  10.456 -0.1837  0.2770  0.2578
  103OSM     OF10451   1.120   5.388  10.445  0.0771 -0.6464  0.0069
  103OSM    C2F10452   0.928   5.470  10.331  0.0669  0.4022 -0.4812
  103OSM    H2F10453   0.923   5.378  10.269 -1.0457  0.0247  0.1504
  103OSM    H2G10454   0.996   5.545  10.284  1.1559 -1.5326 -2.1530
  103OSM    C3F10455   0.784   5.517  10.347  0.2734 -0.2720  0.2474
  103OSM    H3F10456   0.787   5.610  10.407  1.9103 -0.5839  0.6931
  103OSM    H3G10457   0.709   5.443  10.383 -1.2451  1.5960  1.0588
  103OSM    C4F10458   0.735   5.570  10.203  0.1001  0.9275  0.9434
  103OSM    H4F10459   0.816   5.592  10.130 -0.6670 -2.5944 -1.1801
  103OSM    H4G10460   0.675   5.662  10.222  0.0623  1.3815 -1.1278
  103OSM    C5F10461   0.655   5.459  10.125  0.7526  0.3365 -0.0337
  103OSM    H5F10462   0.561   5.438  10.181 -0.4738 -1.5129 -2.5632
  103OSM    H5G10463   0.698   5.360  10.151 -3.0980 -1.1726  1.3145
  103OSM    C6F10464   0.625   5.497   9.977 -0.0140 -0.2804 -0.2954
  103OSM    H6F10465   0.564   5.590   9.967  2.1601  1.2845  0.1706
  103OSM    H6G10466   0.556   5.418   9.941 -0.7769  0.3622 -0.2812
  103OSM    C7F10467   0.744   5.491   9.881 -0.2334  0.5311  1.3805
  103OSM    H7F10468   0.795   5.394   9.898  0.2373  0.3660 -0.7580
  103OSM    H7G10469   0.814   5.569   9.917  1.2995 -1.0512  1.9533
  103OSM    C8F10470   0.721   5.498   9.735 -0.4769  1.2520 -0.1768
  103OSM    H8F10471   0.818   5.521   9.685 -0.3816 -0.5022 -0.8603
  103OSM    H8G10472   0.652   5.585   9.723 -1.6423  0.5336  1.0246
  103OSM    C9F10473   0.656   5.379   9.671 -0.2124 -0.5218  0.5466
  103OSM    H9F10474   0.613   5.302   9.737  0.6817 -0.2311  1.5104
  103OSM   C10F10475   0.650   5.359   9.542  0.4576  0.9353  0.1723
  103OSM   H10F10476   0.610   5.261   9.512  0.6249  1.3714 -1.5459
  103OSM   C11F10477   0.709   5.445   9.436  0.3392  0.0853  0.1098
  103OSM   H11F10478   0.819   5.429   9.442  0.6453  2.4652  2.8786
  103OSM   H11G10479   0.690   5.554   9.447 -0.3360  0.3082 -2.4911
  103OSM   C12F10480   0.661   5.438   9.289 -0.9242 -0.0273  0.0167
  103OSM   H12F10481   0.554   5.466   9.278 -1.1103  0.2600  2.1124
  103OSM   H12G10482   0.664   5.332   9.256  0.6808  0.9891 -3.5998
  103OSM   C13F10483   0.736   5.526   9.189  0.4232  0.4273  0.7461
  103OSM   H13F10484   0.844   5.525   9.213  0.6124 -1.3112 -0.0531
  103OSM   H13G10485   0.694   5.629   9.195 -1.0325 -0.1842  2.2475
  103OSM   C14F10486   0.710   5.477   9.045 -0.1833  0.7001 -0.1231
  103OSM   H14F10487   0.600   5.458   9.043 -0.0378 -0.1361 -0.7296
  103OSM   H14G10488   0.754   5.378   9.021  0.2601  1.2344 -1.6373
  103OSM   C15F10489   0.752   5.580   8.935  0.5501  0.5036 -0.6501
  103OSM   H15F10490   0.851   5.543   8.900  2.3595  3.6935  0.7040
  103OSM   H15G10491   0.775   5.679   8.980 -1.2783  0.2765  0.9010
  103OSM   C16F10492   0.654   5.585   8.824  0.0616  0.4041  0.4811
  103OSM   H16F10493   0.685   5.678   8.771 -1.5287  1.3115  1.0856
  103OSM   H16G10494   0.558   5.616   8.870  0.7227  0.4321  1.8799
  103OSM   C17F10495   0.645   5.463   8.732 -0.2164 -0.6315  0.5645
  103OSM   H17F10496   0.590   5.387   8.792 -2.1670  0.6294  0.4639
  103OSM   H17G10497   0.746   5.426   8.707  0.8159  2.8597 -0.9867
  103OSM   C18F10498   0.563   5.503   8.615  0.5778 -0.3867 -0.2097
  103OSM   H18F10499   0.570   5.419   8.543  1.1830 -0.6152  0.1167
  103OSM   H18G10500   0.586   5.604   8.574 -0.4772 -0.1553 -0.2589
  103OSM   H18H10501   0.457   5.499   8.649  0.8903 -0.4633  0.7790
  104OSM      N10502   2.585   4.648  11.413  0.0469 -0.4136  0.3455
  104OSM    C1510503   2.731   4.680  11.394 -0.2666 -0.1015  0.4466
  104OSM   H15A10504   2.759   4.676  11.290  2.4528 -1.7889  1.1453
  104OSM   H15B10505   2.800   4.614  11.444 -1.0864  0.2771  2.1319
  104OSM   H15C10506   2.751   4.780  11.428  1.1629 -0.5663  1.0425
  104OSM    C1410507   2.581   4.502  11.425 -0.1191  0.2960 -0.1630
  104OSM   H14A10508   2.612   4.455  11.333  0.6850  2.0616 -0.8428
  104OSM   H14B10509   2.479   4.474  11.450 -0.4808  0.5316 -1.3000
  104OSM   H14C10510   2.641   4.463  11.505  1.4014 -0.8872 -1.8164
  104OSM    C1310511   2.546   4.717  11.543 -0.0998 -0.4573  0.2455
  104OSM   H13A10512   2.441   4.700  11.562 -0.7646  3.5468  1.0335
  104OSM   H13B10513   2.541   4.825  11.531 -1.1849 -0.5843 -0.6003
  104OSM   H13C10514   2.609   4.690  11.627 -1.3951  1.3979  1.9182
  104OSM    C1210515   2.500   4.691  11.295 -0.2482 -0.2047  0.2047
  104OSM   H12A10516   2.514   4.797  11.278 -1.6679 -0.0950 -0.3853
  104OSM   H12B10517   2.395   4.685  11.317 -0.3758  0.3312 -0.2350
  104OSM    C1110518   2.536   4.607  11.158  0.0064 -0.6478  0.3991
  104OSM   H11A10519   2.467   4.654  11.084  0.0988  1.5463  1.6265
  104OSM   H11B10520   2.502   4.504  11.180 -1.3312 -0.3281 -0.0780
  104OSM      P10521   2.775   4.512  11.079  0.2427  0.3148  0.4395
  104OSM    O1310522   2.907   4.572  11.099 -0.2671 -0.2519 -0.7628
  104OSM    O1410523   2.748   4.389  11.158 -0.1026 -0.8098  0.0935
  104OSM    O1110524   2.761   4.479  10.930 -0.3597 -0.0232  0.1383
  104OSM    O1210525   2.669   4.630  11.115  0.1481  0.6890 -0.2079
  104OSM    C1S10526   2.642   4.525  10.852  0.5686 -0.4233  0.6403
  104OSM    H1S10527   2.641   4.635  10.836 -0.2819 -0.2528  1.7602
  104OSM    H1T10528   2.550   4.492  10.905  1.1414 -0.9872  1.2912
  104OSM     NF10529   2.544   4.501  10.623 -0.1974 -0.2088 -0.4542
  104OSM    HNF10530   2.469   4.442  10.594 -0.8238 -0.3049  1.2585
  104OSM    C2S10531   2.645   4.449  10.718 -0.4379 -0.7742 -0.9619
  104OSM    H2S10532   2.747   4.464  10.678  0.2419  0.7830  1.1621
  104OSM    C3S10533   2.630   4.299  10.739  0.1042  0.2488  0.2409
  104OSM    H3S10534   2.526   4.279  10.773  0.5335  1.1555  2.2159
  104OSM     O310535   2.706   4.242  10.847  0.1129 -0.2778  0.4923
  104OSM    HO310536   2.722   4.314  10.909  1.1467 -0.2246  0.1648
  104OSM    C4S10537   2.670   4.227  10.623 -0.1501  0.1610  0.1778
  104OSM    H4S10538   2.776   4.245  10.601 -1.1471  3.3634 -3.1413
  104OSM    C5S10539   2.595   4.171  10.525 -0.1761  0.2314 -0.5407
  104OSM    H5S10540   2.490   4.156  10.553 -0.0569  2.2698  1.2720
  104OSM    C6S10541   2.644   4.115  10.395 -0.1637  0.0448  0.1595
  104OSM    H6S10542   2.562   4.117  10.320  0.6430  0.8017 -0.7419
  104OSM    H6T10543   2.666   4.007  10.405 -0.1118  0.0013 -0.3891
  104OSM    C7S10544   2.763   4.199  10.345  0.5544  0.0560  0.4970
  104OSM    H7S10545   2.851   4.213  10.411 -0.6355  1.7174  1.8230
  104OSM    H7T10546   2.729   4.299  10.310 -1.5208 -0.6994  0.1704
  104OSM    C8S10547   2.811   4.129  10.210  0.0914  0.1010 -0.2375
  104OSM    H8S10548   2.824   4.022  10.235  4.0647  0.7701  1.2704
  104OSM    H8T10549   2.918   4.155  10.196  0.2119 -0.0516  0.3841
  104OSM    C9S10550   2.731   4.156  10.086  0.5526  0.4343 -0.1461
  104OSM    H9S10551   2.724   4.267  10.078  2.8019  0.5813 -0.9712
  104OSM    H9T10552   2.630   4.112  10.097 -0.2240  1.8752 -1.1501
  104OSM   C10S10553   2.793   4.081   9.960  0.4144  0.6710 -0.6487
  104OSM   H10S10554   2.787   3.973   9.987 -1.9506  1.2338  1.5692
  104OSM   H10T10555   2.898   4.105   9.935  0.4419 -0.5238 -1.7526
  104OSM   C11S10556   2.712   4.115   9.847  0.0742  1.0439  0.2504
  104OSM   H11S10557   2.717   4.226   9.837  0.9417  0.9621 -0.2926
  104OSM   H11T10558   2.608   4.075   9.854  0.9991 -1.5314  0.1217
  104OSM   C12S10559   2.770   4.053   9.719  0.4084  0.3554  0.3717
  104OSM   H12S10560   2.771   3.942   9.711  2.8368  0.3691 -0.3060
  104OSM   H12T10561   2.875   4.087   9.717  1.4481 -2.3616  2.1921
  104OSM   C13S10562   2.690   4.092   9.595 -0.1013  0.2766  0.4224
  104OSM   H13S10563   2.706   4.201   9.585  2.3041 -0.0360  0.3446
  104OSM   H13T10564   2.586   4.057   9.612 -0.6199  2.0378  1.0451
  104OSM   C14S10565   2.755   4.033   9.466  0.2289  0.0358 -0.0102
  104OSM   H14S10566   2.751   3.922   9.459  1.3384  0.0611 -1.3925
  104OSM   H14T10567   2.860   4.069   9.474  0.2903 -0.0103 -0.6058
  104OSM   C15S10568   2.690   4.086   9.338  0.7754  0.3194  0.8562
  104OSM   H15S10569   2.712   4.195   9.332  0.9884  0.2242 -0.2302
  104OSM   H15T10570   2.581   4.071   9.326  0.9274 -1.3589  1.3476
  104OSM   C16S10571   2.752   4.026   9.208  0.3695 -0.1089 -0.1761
  104OSM   H16S10572   2.717   4.084   9.120  0.0080 -1.3417 -0.8601
  104OSM   H16T10573   2.708   3.924   9.210  0.0407  0.0308  1.4556
  104OSM   C17S10574   2.902   4.010   9.197 -0.7833 -0.2861 -0.3719
  104OSM   H17S10575   2.934   3.917   9.249 -0.7879  0.4787  1.0529
  104OSM   H17T10576   2.954   4.095   9.247 -0.3366 -0.8236  0.0832
  104OSM   C18S10577   2.961   3.987   9.053 -0.4328  0.6469  0.6320
  104OSM   H18S10578   2.905   4.039   8.973  1.2864 -0.1059 -1.1484
  104OSM   H18T10579   2.957   3.879   9.024 -1.3848  0.6744  0.6370
  104OSM   H18U10580   3.066   4.023   9.052  0.1677 -0.8676 -1.8472
  104OSM    C1F10581   2.563   4.609  10.549 -0.0530 -0.8791 -0.0972
  104OSM     OF10582   2.639   4.697  10.593  0.2831  0.1267 -0.7824
  104OSM    C2F10583   2.493   4.613  10.422  0.4917  0.9696 -0.5527
  104OSM    H2F10584   2.432   4.704  10.402  1.4377  1.2691 -2.2742
  104OSM    H2G10585   2.429   4.522  10.411 -1.6830  2.1953  1.1280
  104OSM    C3F10586   2.596   4.617  10.310 -0.3107  0.3145  1.0496
  104OSM    H3F10587   2.666   4.532  10.324 -0.1665  0.1157 -0.6845
  104OSM    H3G10588   2.649   4.713  10.328 -1.1379  0.8705  0.6191
  104OSM    C4F10589   2.527   4.598  10.175 -0.1256 -0.1850 -0.9581
  104OSM    H4F10590   2.435   4.660  10.182 -2.0447 -2.9750  1.3797
  104OSM    H4G10591   2.486   4.495  10.167 -0.5013 -0.0725 -0.5420
  104OSM    C5F10592   2.613   4.634  10.053  0.1677 -0.3214 -0.1738
  104OSM    H5F10593   2.712   4.584  10.066  1.0563  0.9771 -1.6562
  104OSM    H5G10594   2.627   4.744  10.051  3.2483 -0.6015  0.7599
  104OSM    C6F10595   2.539   4.597   9.922 -0.1622  0.2057  0.0846
  104OSM    H6F10596   2.431   4.620   9.919 -0.0562  0.6594 -2.2974
  104OSM    H6G10597   2.535   4.486   9.920 -0.6311  0.2226 -1.4877
  104OSM    C7F10598   2.603   4.658   9.794  0.0712  0.3318 -0.2846
  104OSM    H7F10599   2.580   4.588   9.710 -4.1816 -0.0922  1.0356
  104OSM    H7G10600   2.713   4.665   9.813  0.1236  0.1968 -0.5376
  104OSM    C8F10601   2.553   4.797   9.764  0.1476 -0.2289 -0.4577
  104OSM    H8F10602   2.615   4.830   9.677 -1.2468  0.0127 -1.3929
  104OSM    H8G10603   2.574   4.853   9.857  1.3331 -1.7810  0.2538
  104OSM    C9F10604   2.410   4.810   9.728 -0.1304  0.3161 -0.1006
  104OSM    H9F10605   2.346   4.818   9.817  0.8172 -0.2655  0.6544
  104OSM   C10F10606   2.354   4.810   9.604  0.4208  0.0818 -0.5726
  104OSM   H10F10607   2.252   4.848   9.590  0.7292  1.3556  0.4814
  104OSM   C11F10608   2.436   4.799   9.476  0.2987  0.6040  0.1175
  104OSM   H11F10609   2.421   4.701   9.426 -0.2121  1.3080 -1.1571
  104OSM   H11G10610   2.544   4.816   9.497  0.9975 -0.2460 -2.3441
  104OSM   C12F10611   2.395   4.899   9.370  0.7424  0.3093 -0.9481
  104OSM   H12F10612   2.430   4.996   9.411  0.4024 -0.2902  0.8590
  104OSM   H12G10613   2.287   4.889   9.345  0.5993 -0.7182 -0.0138
  104OSM   C13F10614   2.462   4.891   9.235 -0.0035 -0.1015  0.3451
  104OSM   H13F10615   2.436   4.791   9.192 -0.3759 -0.2465  0.9017
  104OSM   H13G10616   2.571   4.899   9.251 -0.0320 -0.1472  0.5665
  104OSM   C14F10617   2.434   4.986   9.121 -0.4440 -0.3157  0.0295
  104OSM   H14F10618   2.475   5.079   9.166  0.3467 -0.8354  0.4011
  104OSM   H14G10619   2.323   4.992   9.111 -0.5393  1.0971  1.4850
  104OSM   C15F10620   2.488   4.957   8.981 -0.3467  0.5707  0.1801
  104OSM   H15F10621   2.475   4.847   8.973  0.6771  0.5029 -0.8898
  104OSM   H15G10622   2.595   4.984   8.970 -0.8741  3.4953  1.4571
  104OSM   C16F10623   2.419   5.031   8.866 -0.2446 -0.0011 -0.0524
  104OSM   H16F10624   2.424   5.139   8.892 -1.1474 -0.2135  1.1078
  104OSM   H16G10625   2.314   4.996   8.855  0.9657 -4.1794 -0.1522
  104OSM   C17F10626   2.489   5.015   8.735  0.3438 -0.4138  0.4255
  104OSM   H17F10627   2.459   4.918   8.689  0.0736  0.1011 -0.5066
  104OSM   H17G10628   2.598   5.016   8.759  0.0830  1.7462  1.8307
  104OSM   C18F10629   2.475   5.126   8.620 -0.9367  0.5529 -0.2397
  104OSM   H18F10630   2.528   5.218   8.652 -2.8711  0.9150  2.2074
  104OSM   H18G10631   2.367   5.139   8.598 -0.6372  2.0792 -0.9400
  104OSM   H18H10632   2.523   5.080   8.531 -2.3336 -0.7024 -0.3894
  105OSM      N10633   5.161   1.035  11.199  0.1504  0.3102  0.0894
  105OSM    C1510634   5.153   1.046  11.046 -0.2944 -0.9610 -0.3569
  105OSM   H15A10635   5.051   1.030  11.015  0.3329 -2.4733 -1.7844
  105OSM   H15B10636   5.209   0.960  11.014  0.3550 -1.7724  2.6607
  105OSM   H15C10637   5.189   1.139  11.004 -1.8153 -1.2260 -2.3679
  105OSM    C1410638   5.307   1.048  11.230 -0.1768  0.6990 -0.4915
  105OSM   H14A10639   5.368   0.998  11.157  1.2613  1.6342  0.0290
  105OSM   H14B10640   5.341   1.001  11.321 -0.2731  0.3531 -0.6331
  105OSM   H14C10641   5.329   1.154  11.222 -1.0980  0.9349 -0.1083
  105OSM    C1310642   5.089   1.142  11.267  0.6007 -0.3482 -0.0443
  105OSM   H13A10643   5.152   1.229  11.279  0.0440  0.1472 -0.6126
  105OSM   H13B10644   5.063   1.108  11.366  1.0636  1.1435  0.6262
  105OSM   H13C10645   5.006   1.171  11.204  1.8162 -0.3463 -1.7215
  105OSM    C1210646   5.105   0.899  11.239  0.5507  0.5753  0.1330
  105OSM   H12A10647   4.999   0.900  11.215  0.4475 -0.7702  0.4311
  105OSM   H12B10648   5.103   0.873  11.344 -0.4357  2.3370  0.5895
  105OSM    C1110649   5.163   0.775  11.167 -0.1605  0.4936  0.0967
  105OSM   H11A10650   5.139   0.690  11.234  0.6839  0.5182  0.4457
  105OSM   H11B10651   5.274   0.782  11.167 -0.1949  1.3998  1.0384
  105OSM      P10652   5.010   0.653  10.986 -0.1580  0.4581 -0.4955
  105OSM    O1310653   4.930   0.607  11.101 -0.1100 -0.0545 -0.3635
  105OSM    O1410654   4.950   0.703  10.865 -0.4500 -0.1049 -0.1085
  105OSM    O1110655   5.107   0.535  10.949 -0.3079  0.2784 -0.0114
  105OSM    O1210656   5.114   0.763  11.037  0.3516 -0.3894  0.4446
  105OSM    C1S10657   5.090   0.459  10.827  0.1854  0.2293 -0.0604
  105OSM    H1S10658   4.986   0.443  10.791  1.1165  1.3639 -3.6606
  105OSM    H1T10659   5.132   0.359  10.852 -1.3486 -0.5123 -0.3314
  105OSM     NF10660   5.145   0.408  10.594 -0.0875 -0.3038 -0.1865
  105OSM    HNF10661   5.190   0.321  10.613 -0.4916 -0.3877  0.3924
  105OSM    C2S10662   5.179   0.502  10.701  0.3378  0.2524 -0.9566
  105OSM    H2S10663   5.151   0.605  10.669 -3.3241 -0.4118 -0.4050
  105OSM    C3S10664   5.326   0.510  10.741  0.3259  0.1201 -0.2220
  105OSM    H3S10665   5.365   0.414  10.783  2.1203  1.5587  1.5784
  105OSM     O310666   5.348   0.601  10.848  0.7430 -0.0492 -0.4084
  105OSM    HO310667   5.260   0.608  10.885  2.2352  1.9682  3.2576
  105OSM    C4S10668   5.409   0.531  10.619 -0.0792 -0.1735 -0.3609
  105OSM    H4S10669   5.409   0.433  10.569 -2.9885 -1.5655  2.0451
  105OSM    C5S10670   5.471   0.642  10.578 -0.6024  0.2463 -0.3511
  105OSM    H5S10671   5.466   0.738  10.632  2.4281  1.0793 -1.3399
  105OSM    C6S10672   5.546   0.642  10.445 -0.2102 -0.1641 -0.1280
  105OSM    H6S10673   5.638   0.581  10.450 -0.6061 -1.4099 -4.3228
  105OSM    H6T10674   5.569   0.747  10.416 -2.5307  0.9863  1.7645
  105OSM    C7S10675   5.473   0.584  10.323 -0.9575  0.1385  0.7325
  105OSM    H7S10676   5.370   0.626  10.322 -0.2158  2.0573 -0.0005
  105OSM    H7T10677   5.470   0.473  10.332  0.6048  0.1486  2.1011
  105OSM    C8S10678   5.555   0.627  10.201  0.0641  0.3563 -0.4210
  105OSM    H8S10679   5.661   0.594  10.208  0.1504  0.8573  0.9551
  105OSM    H8T10680   5.549   0.738  10.207 -2.5380  0.2990 -0.5646
  105OSM    C9S10681   5.504   0.575  10.070  0.3004  0.1105  0.0949
  105OSM    H9S10682   5.402   0.613  10.049  0.0634  0.2182  1.4061
  105OSM    H9T10683   5.500   0.464  10.061 -2.5292  0.2437 -1.6928
  105OSM   C10S10684   5.588   0.622   9.944  0.0501  0.4858 -0.6022
  105OSM   H10S10685   5.690   0.580   9.955 -1.0282 -1.8768  1.3887
  105OSM   H10T10686   5.586   0.733   9.939 -1.3972  0.5459  0.5501
  105OSM   C11S10687   5.523   0.583   9.807 -0.0743 -0.5038  0.6106
  105OSM   H11S10688   5.413   0.580   9.822 -0.2945  1.5967 -0.1917
  105OSM   H11T10689   5.547   0.475   9.791 -0.2832 -0.5468  0.5823
  105OSM   C12S10690   5.573   0.666   9.691  0.1352  0.7702 -1.7277
  105OSM   H12S10691   5.681   0.689   9.704  0.9310 -2.8410 -0.8747
  105OSM   H12T10692   5.518   0.762   9.684  0.1972  0.9363 -0.2608
  105OSM   C13S10693   5.558   0.600   9.555 -0.0358  0.0592  0.1968
  105OSM   H13S10694   5.466   0.545   9.526  0.7206 -1.9553  1.3705
  105OSM   H13T10695   5.634   0.520   9.560  2.1323  2.0713  1.3123
  105OSM   C14S10696   5.570   0.695   9.441  0.2962  0.0020 -0.5509
  105OSM   H14S10697   5.670   0.742   9.442  1.2068 -1.8286  1.4825
  105OSM   H14T10698   5.492   0.774   9.453 -0.4023 -0.6224 -0.8379
  105OSM   C15S10699   5.542   0.627   9.302 -0.8769  0.4412 -0.1404
  105OSM   H15S10700   5.442   0.578   9.302 -0.2311 -1.0471  2.3474
  105OSM   H15T10701   5.616   0.546   9.290 -1.1355  0.0129  1.0914
  105OSM   C16S10702   5.523   0.726   9.188  0.3317  0.9043  0.9486
  105OSM   H16S10703   5.613   0.792   9.190 -0.3634  2.0556 -1.6114
  105OSM   H16T10704   5.427   0.780   9.201 -2.7349 -3.5817 -0.7507
  105OSM   C17S10705   5.523   0.647   9.058 -0.4726 -1.2407 -0.0269
  105OSM   H17S10706   5.437   0.577   9.055 -1.4444 -0.1662  1.3762
  105OSM   H17T10707   5.614   0.585   9.046  0.4550 -0.9530  4.0524
  105OSM   C18S10708   5.518   0.744   8.951  0.1293 -0.6005  0.0740
  105OSM   H18S10709   5.413   0.778   8.941  0.6073  1.2345  0.8304
  105OSM   H18T10710   5.554   0.710   8.851 -0.0998 -2.7181  0.6709
  105OSM   H18U10711   5.590   0.827   8.968  1.7155 -1.5931 -1.4448
  105OSM    C1F10712   5.035   0.408  10.526  0.1784 -0.7860  0.1114
  105OSM     OF10713   4.958   0.501  10.538 -0.4251  0.3005  0.1033
  105OSM    C2F10714   5.002   0.290  10.433  0.1865 -0.0844  1.4816
  105OSM    H2F10715   4.918   0.234  10.479 -0.9814 -0.9063 -1.4143
  105OSM    H2G10716   5.100   0.243  10.409 -0.1221 -0.4991  1.0187
  105OSM    C3F10717   4.955   0.325  10.288  0.5038  0.8160 -0.2019
  105OSM    H3F10718   4.863   0.387  10.288 -0.2075 -0.1978  1.1824
  105OSM    H3G10719   4.929   0.220  10.261  1.0834 -0.1170  2.5353
  105OSM    C4F10720   5.060   0.373  10.189  0.1158 -0.4223  0.2645
  105OSM    H4F10721   5.151   0.310  10.187  0.1787 -0.3371 -1.8651
  105OSM    H4G10722   5.086   0.475  10.224 -0.6672  0.5044 -1.6949
  105OSM    C5F10723   5.007   0.375  10.045  0.0609  0.3739  0.0397
  105OSM    H5F10724   4.905   0.419  10.044 -0.0994  0.0955  1.7657
  105OSM    H5G10725   4.998   0.275   9.998 -1.1001  0.9705 -1.0828
  105OSM    C6F10726   5.080   0.462   9.944  0.1841 -0.2158 -0.5384
  105OSM    H6F10727   5.183   0.420   9.938  0.5813  0.8670 -2.2214
  105OSM    H6G10728   5.095   0.569   9.970 -1.5083  0.2027 -1.1973
  105OSM    C7F10729   5.016   0.442   9.805  0.0681 -0.1469 -0.0022
  105OSM    H7F10730   4.918   0.493   9.809  0.4216  0.4523  2.2082
  105OSM    H7G10731   4.997   0.333   9.789 -0.8583  0.0896 -0.5245
  105OSM    C8F10732   5.106   0.497   9.696  0.0545 -0.0586  0.2002
  105OSM    H8F10733   5.077   0.455   9.597  2.4011 -0.4740 -0.3644
  105OSM    H8G10734   5.210   0.461   9.713 -0.5554 -2.1018 -0.0583
  105OSM    C9F10735   5.105   0.646   9.681 -0.1401 -0.1629  0.9999
  105OSM    H9F10736   5.084   0.700   9.775 -1.5495  1.4610 -0.1916
  105OSM   C10F10737   5.147   0.709   9.567  0.3148 -0.1416 -0.8730
  105OSM   H10F10738   5.153   0.819   9.570 -0.2159 -0.0452 -2.4481
  105OSM   C11F10739   5.195   0.644   9.444  0.3811  0.5180 -0.4371
  105OSM   H11F10740   5.118   0.565   9.427  1.1075 -0.2839 -0.0656
  105OSM   H11G10741   5.288   0.586   9.461  0.8305  1.4856  0.5802
  105OSM   C12F10742   5.177   0.719   9.310  0.4383 -0.2615  0.1773
  105OSM   H12F10743   5.216   0.644   9.238 -0.6158 -2.1339  1.4930
  105OSM   H12G10744   5.239   0.812   9.309 -1.1461  0.8222 -0.5372
  105OSM   C13F10745   5.031   0.744   9.261  0.2857  0.4750 -0.8872
  105OSM   H13F10746   4.992   0.831   9.317  0.3515  1.5313 -2.4404
  105OSM   H13G10747   4.967   0.655   9.281 -0.9750  1.2893 -1.2182
  105OSM   C14F10748   5.008   0.769   9.117  0.7063  0.2949 -0.2699
  105OSM   H14F10749   4.897   0.771   9.111  0.7361  1.2459 -0.6430
  105OSM   H14G10750   5.036   0.685   9.050  0.3797 -0.4775  0.5425
  105OSM   C15F10751   5.077   0.896   9.070 -0.3690 -0.0613 -0.2970
  105OSM   H15F10752   5.187   0.898   9.081  0.0903  3.7604 -3.3356
  105OSM   H15G10753   5.044   0.980   9.134 -0.3053 -0.4857  0.2993
  105OSM   C16F10754   5.044   0.938   8.918 -1.0232  0.1130 -0.2756
  105OSM   H16F10755   4.935   0.958   8.903 -0.7730  2.1394  0.2607
  105OSM   H16G10756   5.074   0.847   8.864  1.7068  0.4022  0.5893
  105OSM   C17F10757   5.125   1.060   8.873 -0.0929  0.3321 -0.0088
  105OSM   H17F10758   5.101   1.082   8.766  2.2746  2.0142 -0.2616
  105OSM   H17G10759   5.230   1.028   8.888  0.1572  1.1312 -0.0033
  105OSM   C18F10760   5.097   1.192   8.943 -0.5423  0.2173 -0.9059
  105OSM   H18F10761   4.996   1.234   8.928 -1.3934 -1.7400 -1.0272
  105OSM   H18G10762   5.165   1.270   8.902  0.1728  0.5389  0.7971
  105OSM   H18H10763   5.131   1.182   9.048 -0.5309  0.7539 -0.8603
  106OSM      N10764   4.289   6.321  10.921  0.7177 -0.2564 -0.4133
  106OSM    C1510765   4.180   6.266  10.834  0.7104 -0.0792  0.1938
  106OSM   H15A10766   4.217   6.199  10.758  1.5850  0.5220  0.0764
  106OSM   H15B10767   4.124   6.336  10.773  1.5737 -1.2286 -2.0311
  106OSM   H15C10768   4.097   6.218  10.884 -1.0903  0.7438 -1.8573
  106OSM    C1410769   4.222   6.424  11.011 -0.4304  0.4640 -0.3679
  106OSM   H14A10770   4.273   6.433  11.106 -3.1268 -0.3844  1.2595
  106OSM   H14B10771   4.127   6.380  11.037  0.8187 -2.7741 -0.7672
  106OSM   H14C10772   4.204   6.518  10.961 -1.0926  0.3628 -0.3302
  106OSM    C1310773   4.358   6.210  10.990 -0.4226 -0.3701  0.8608
  106OSM   H13A10774   4.377   6.142  10.908 -0.3039  0.2066  0.3988
  106OSM   H13B10775   4.302   6.160  11.067 -1.3945  2.9951  2.5415
  106OSM   H13C10776   4.450   6.251  11.029  1.1529 -2.5617 -0.3605
  106OSM    C1210777   4.388   6.404  10.837  0.1993 -0.2330  0.4356
  106OSM   H12A10778   4.465   6.442  10.901 -0.4126  0.3851  0.8220
  106OSM   H12B10779   4.331   6.486  10.795 -0.4322 -1.2697 -0.8414
  106OSM    C1110780   4.458   6.339  10.710 -0.7347 -0.1533  0.4313
  106OSM   H11A10781   4.502   6.421  10.649  1.8669 -0.0068  2.3640
  106OSM   H11B10782   4.373   6.300  10.649 -1.0587  0.7611  0.2823
  106OSM      P10783   4.541   6.088  10.678 -0.0232 -0.0853 -0.2941
  106OSM    O1310784   4.668   6.019  10.707  0.0930  0.0376 -0.0857
  106OSM    O1410785   4.418   6.011  10.720  0.6750 -0.3233 -0.6564
  106OSM    O1110786   4.530   6.135  10.522  0.0581 -0.1319 -0.0384
  106OSM    O1210787   4.551   6.232  10.745  0.6303  0.0047 -0.0291
  106OSM    C1S10788   4.646   6.218  10.484  0.2338  0.1734 -0.0231
  106OSM    H1S10789   4.727   6.141  10.489 -0.2072 -0.3897 -1.1407
  106OSM    H1T10790   4.666   6.308  10.546  2.7582  0.1395 -0.6817
  106OSM     NF10791   4.769   6.279  10.278  0.7861  0.2291 -0.3720
  106OSM    HNF10792   4.787   6.376  10.269  1.0414  0.0579 -1.9591
  106OSM    C2S10793   4.639   6.247  10.332 -0.7834  0.1616 -0.0180
  106OSM    H2S10794   4.614   6.148  10.287 -1.0466  0.3959 -0.3939
  106OSM    C3S10795   4.523   6.350  10.296 -0.4100  0.0949 -0.5110
  106OSM    H3S10796   4.536   6.442  10.356  0.1246 -0.3599  0.0863
  106OSM     O310797   4.390   6.296  10.333 -0.2174 -0.5132  0.2447
  106OSM    HO310798   4.407   6.223  10.393 -0.6174  0.3672  1.4876
  106OSM    C4S10799   4.526   6.380  10.141  0.4351 -0.0866 -0.8783
  106OSM    H4S10800   4.501   6.294  10.078 -0.4157 -0.2254 -0.3640
  106OSM    C5S10801   4.563   6.496  10.083 -0.6133  0.0096 -0.0543
  106OSM    H5S10802   4.597   6.578  10.148 -1.9800  0.0512  0.6432
  106OSM    C6S10803   4.575   6.515   9.932 -0.6652  0.2950 -0.2461
  106OSM    H6S10804   4.669   6.570   9.911 -0.8825  0.9463  0.4570
  106OSM    H6T10805   4.490   6.575   9.893  1.4095  2.5659 -1.5466
  106OSM    C7S10806   4.590   6.391   9.836  0.2469  0.0578 -0.0210
  106OSM    H7S10807   4.508   6.321   9.860  0.8681 -0.9153 -0.6351
  106OSM    H7T10808   4.691   6.349   9.855  0.0938  0.5349  2.0163
  106OSM    C8S10809   4.581   6.429   9.690  0.6369 -0.1195  0.9478
  106OSM    H8S10810   4.493   6.496   9.698  0.6390 -0.1527  1.3019
  106OSM    H8T10811   4.556   6.333   9.640 -1.0147  0.5480  0.4301
  106OSM    C9S10812   4.711   6.494   9.643 -0.0891 -0.5995 -0.3503
  106OSM    H9S10813   4.802   6.434   9.661  0.1649  0.0044  0.4323
  106OSM    H9T10814   4.717   6.600   9.675 -0.2171 -0.1943 -1.6010
  106OSM   C10S10815   4.710   6.512   9.486 -0.2970 -0.6524  0.1530
  106OSM   H10S10816   4.710   6.413   9.437  1.3037  0.1788 -1.6675
  106OSM   H10T10817   4.804   6.564   9.457 -0.1221  0.9824  3.2363
  106OSM   C11S10818   4.584   6.584   9.430  0.0890 -0.1026 -0.9034
  106OSM   H11S10819   4.572   6.669   9.500 -0.7038 -1.4012  0.6137
  106OSM   H11T10820   4.498   6.518   9.452 -1.6674  1.9893 -1.1602
  106OSM   C12S10821   4.587   6.606   9.285 -0.0099 -0.4212 -0.3579
  106OSM   H12S10822   4.584   6.510   9.230 -1.4443  0.2929 -1.6064
  106OSM   H12T10823   4.678   6.657   9.247 -0.6634  1.4058  0.4110
  106OSM   C13S10824   4.452   6.671   9.239 -0.5720  0.5612 -0.2167
  106OSM   H13S10825   4.423   6.763   9.293 -1.2253  0.2253  0.0248
  106OSM   H13T10826   4.370   6.596   9.248 -1.5391  1.8191  2.2641
  106OSM   C14S10827   4.467   6.704   9.085 -0.1198  0.6571 -0.2342
  106OSM   H14S10828   4.483   6.618   9.017  0.9721 -0.2576  1.1135
  106OSM   H14T10829   4.557   6.768   9.077  0.0292  0.4789 -0.0088
  106OSM   C15S10830   4.344   6.794   9.046 -0.1827  0.0216  0.7497
  106OSM   H15S10831   4.344   6.886   9.108  0.6477  2.6383 -2.8093
  106OSM   H15T10832   4.247   6.740   9.059  0.0036 -0.8168 -1.0433
  106OSM   C16S10833   4.363   6.842   8.899  0.2518 -0.1640  0.2736
  106OSM   H16S10834   4.345   6.762   8.824  1.4991  0.8203 -1.1321
  106OSM   H16T10835   4.468   6.875   8.888  0.5208 -1.2081 -0.3891
  106OSM   C17S10836   4.282   6.967   8.859  0.0428 -0.6198 -0.4803
  106OSM   H17S10837   4.175   6.940   8.868  0.1441 -0.9551 -0.2587
  106OSM   H17T10838   4.302   6.993   8.752  0.6115 -0.0815 -0.2521
  106OSM   C18S10839   4.310   7.095   8.941  0.0801  0.2238 -0.1142
  106OSM   H18S10840   4.277   7.075   9.045  3.2366 -0.3206  0.9070
  106OSM   H18T10841   4.251   7.182   8.905 -2.3948 -1.6993 -0.9970
  106OSM   H18U10842   4.419   7.118   8.938  0.3588 -0.8917  0.8324
  106OSM    C1F10843   4.864   6.188  10.265  0.1457 -0.0197 -0.7231
  106OSM     OF10844   4.838   6.070  10.276  0.2125  0.6937 -0.0334
  106OSM    C2F10845   4.996   6.241  10.230  0.6275  0.0857  0.7004
  106OSM    H2F10846   5.071   6.164  10.257 -0.1597 -1.1740 -0.5838
  106OSM    H2G10847   5.027   6.324  10.298  2.2940  0.3869 -0.3529
  106OSM    C3F10848   5.000   6.282  10.079 -1.0146 -0.4315 -0.0274
  106OSM    H3F10849   5.105   6.311  10.057 -0.3545 -1.9867  0.8420
  106OSM    H3G10850   4.940   6.370  10.050 -1.1096 -0.3661  0.3542
  106OSM    C4F10851   4.975   6.170   9.974  0.8363 -0.2203  0.3725
  106OSM    H4F10852   4.868   6.140   9.970 -0.1460  2.8945  0.8076
  106OSM    H4G10853   5.038   6.080   9.992 -0.5956 -1.2750  0.3038
  106OSM    C5F10854   5.010   6.210   9.828  0.1194 -0.8544 -0.0561
  106OSM    H5F10855   5.119   6.225   9.810 -0.1969 -1.3872 -2.9984
  106OSM    H5G10856   4.963   6.308   9.808 -1.6181 -1.7244 -0.3659
  106OSM    C6F10857   4.954   6.117   9.724  0.2570 -0.0175 -0.9583
  106OSM    H6F10858   4.846   6.104   9.745  0.4061  0.9445  0.4854
  106OSM    H6G10859   4.995   6.014   9.730 -1.8521 -0.8301  0.6776
  106OSM    C7F10860   4.971   6.160   9.580  0.1936 -0.0939 -0.3569
  106OSM    H7F10861   5.077   6.168   9.550  0.6521  2.3811  1.6108
  106OSM    H7G10862   4.926   6.262   9.587  0.4227 -0.0525  0.6242
  106OSM    C8F10863   4.900   6.076   9.472  0.0781 -0.3971  0.8227
  106OSM    H8F10864   4.814   6.036   9.529  1.0779 -1.8658  1.3869
  106OSM    H8G10865   4.953   5.985   9.435  0.8293  0.3828 -0.0737
  106OSM    C9F10866   4.832   6.155   9.353 -0.0491 -0.3264 -0.3717
  106OSM    H9F10867   4.729   6.188   9.374  0.1777 -0.3012  0.7902
  106OSM   C10F10868   4.875   6.186   9.228 -0.8819  0.1646 -0.1239
  106OSM   H10F10869   4.804   6.241   9.164 -0.2417  1.9370  0.6181
  106OSM   C11F10870   5.006   6.145   9.169 -0.4103  0.8656  0.3701
  106OSM   H11F10871   5.059   6.073   9.234 -1.8809  0.0400  0.6990
  106OSM   H11G10872   5.079   6.228   9.156  0.6465 -0.1842 -0.6388
  106OSM   C12F10873   4.999   6.080   9.030 -0.6943 -0.4366  0.0840
  106OSM   H12F10874   4.974   6.166   8.964 -2.1855 -0.8331  0.0903
  106OSM   H12G10875   4.921   6.002   9.015 -0.7201 -0.1539 -1.3960
  106OSM   C13F10876   5.133   6.011   8.994  0.3150 -0.7179  0.7920
  106OSM   H13F10877   5.134   5.926   9.065  2.3333 -2.9381 -1.6979
  106OSM   H13G10878   5.222   6.076   9.009 -0.0799 -0.2076  0.9638
  106OSM   C14F10879   5.126   5.960   8.853 -1.3220 -0.2297  0.7316
  106OSM   H14F10880   5.052   5.882   8.826 -0.2880 -0.6728 -1.0339
  106OSM   H14G10881   5.228   5.920   8.830 -0.5876  2.0006 -0.1933
  106OSM   C15F10882   5.122   6.076   8.746  0.3569  0.0572  1.1838
  106OSM   H15F10883   5.193   6.155   8.779  2.1613 -1.6237  1.4731
  106OSM   H15G10884   5.017   6.111   8.742 -0.3196 -1.8653 -2.5549
  106OSM   C16F10885   5.157   6.020   8.608 -0.2914  0.1094 -0.1850
  106OSM   H16F10886   5.115   5.917   8.605 -2.1634  0.7609  1.4923
  106OSM   H16G10887   5.267   6.010   8.592 -0.2663 -0.7514  0.4420
  106OSM   C17F10888   5.097   6.110   8.493  0.0833 -0.2261  0.0644
  106OSM   H17F10889   5.156   6.204   8.494  0.8348 -0.6843 -0.8819
  106OSM   H17G10890   4.999   6.156   8.520  0.4873 -0.1999  1.5831
  106OSM   C18F10891   5.078   6.032   8.362 -0.1963 -0.4515 -0.4904
  106OSM   H18F10892   5.179   5.992   8.339  0.3034 -0.8123  2.0165
  106OSM   H18G10893   5.042   6.104   8.286  1.2834 -1.4036 -2.1671
  106OSM   H18H10894   5.003   5.953   8.384 -0.4247  0.3857  2.1008
  107OSM      N10895   1.371   5.155  11.407  0.6411  0.2666  0.1876
  107OSM    C1510896   1.367   5.302  11.425 -0.3220 -0.7093 -0.5968
  107OSM   H15A10897   1.427   5.356  11.353  1.6201 -0.8236  0.8598
  107OSM   H15B10898   1.389   5.323  11.528 -3.2532  0.3188 -0.0972
  107OSM   H15C10899   1.266   5.335  11.407 -0.6408 -2.3159 -2.0498
  107OSM    C1410900   1.500   5.092  11.430 -0.1653  0.3621  0.4843
  107OSM   H14A10901   1.580   5.152  11.388  0.9708 -1.9368 -0.8217
  107OSM   H14B10902   1.506   4.986  11.412 -0.2255  0.3787  0.3634
  107OSM   H14C10903   1.522   5.110  11.534  0.0521 -0.0744  0.5123
  107OSM    C1310904   1.282   5.095  11.506  0.0438 -0.3141 -0.5393
  107OSM   H13A10905   1.305   4.989  11.513 -1.5693 -0.8523 -2.4718
  107OSM   H13B10906   1.176   5.106  11.485 -0.3930 -1.6140  0.7921
  107OSM   H13C10907   1.305   5.119  11.609 -0.3531  0.7665 -0.6901
  107OSM    C1210908   1.323   5.115  11.266  0.1204  1.0044  0.2496
  107OSM   H12A10909   1.223   5.156  11.263  0.3931  1.8581  1.8384
  107OSM   H12B10910   1.323   5.007  11.264  1.9757  0.9752 -0.1055
  107OSM    C1110911   1.409   5.156  11.148 -0.4180  0.1766 -0.4351
  107OSM   H11A10912   1.450   5.259  11.156 -1.2961  0.4733  0.4645
  107OSM   H11B10913   1.340   5.171  11.062 -0.3266  2.6916 -0.1507
  107OSM      P10914   1.476   4.935  11.051 -0.0169  0.0758 -0.0536
  107OSM    O1310915   1.596   4.872  11.001 -0.3460  0.7542  0.0435
  107OSM    O1410916   1.397   4.854  11.143  0.2267  0.0009 -0.5302
  107OSM    O1110917   1.398   4.966  10.922 -0.5275 -0.6465 -0.0756
  107OSM    O1210918   1.521   5.072  11.117  0.1767  0.0548  0.0238
  107OSM    C1S10919   1.456   5.064  10.825 -0.2419 -1.2083 -0.0954
  107OSM    H1S10920   1.564   5.043  10.811 -0.1532 -1.3157  0.7498
  107OSM    H1T10921   1.448   5.169  10.860  0.2781 -1.1147 -0.2489
  107OSM     NF10922   1.462   5.116  10.581 -0.0946  0.0478 -0.6401
  107OSM    HNF10923   1.471   5.215  10.578  0.5752 -0.0079 -0.6145
  107OSM    C2S10924   1.382   5.055  10.688  0.1159 -0.6447  0.5908
  107OSM    H2S10925   1.375   4.946  10.668  3.3705 -1.0254  0.9126
  107OSM    C3S10926   1.239   5.116  10.698 -0.3156 -0.2770 -0.9004
  107OSM    H3S10927   1.256   5.226  10.698  0.6046 -0.3597  1.4866
  107OSM     O310928   1.171   5.087  10.818 -0.1823  0.0201 -0.0817
  107OSM    HO310929   1.239   5.041  10.868 -0.4359 -2.0195 -1.4835
  107OSM    C4S10930   1.158   5.090  10.574 -0.4549 -0.0106 -0.1012
  107OSM    H4S10931   1.190   5.146  10.484  4.8748 -2.2903 -0.0193
  107OSM    C5S10932   1.058   5.002  10.570 -0.1473 -0.2177  0.2780
  107OSM    H5S10933   1.032   4.953  10.665  0.2317  1.5084  1.2981
  107OSM    C6S10934   0.976   4.972  10.453  0.8575 -0.0096 -0.1612
  107OSM    H6S10935   0.893   4.907  10.488  1.9188 -0.0905  2.4395
  107OSM    H6T10936   1.037   4.903  10.390 -0.4465 -1.1660 -0.1909
  107OSM    C7S10937   0.912   5.096  10.383  0.3080  0.1943  1.2084
  107OSM    H7S10938   0.993   5.155  10.335 -1.1190  1.0832 -0.2232
  107OSM    H7T10939   0.865   5.160  10.461 -0.9822 -0.6859  1.1763
  107OSM    C8S10940   0.818   5.065  10.268 -0.0703 -0.0805  0.7505
  107OSM    H8S10941   0.761   5.158  10.246 -1.6090 -1.2303 -0.3247
  107OSM    H8T10942   0.741   4.989  10.288 -1.1450  0.4396 -1.1765
  107OSM    C9S10943   0.896   5.046  10.135  0.7081 -0.1008  0.4251
  107OSM    H9S10944   0.925   4.939  10.141  0.9086 -0.1382 -0.8529
  107OSM    H9T10945   0.993   5.101  10.131  1.0969 -0.8068  0.0699
  107OSM   C10S10946   0.800   5.051  10.010 -0.0357  0.1867  0.1398
  107OSM   H10S10947   0.780   5.159   9.996  0.2835 -0.0811 -3.0417
  107OSM   H10T10948   0.712   4.987  10.032  0.2293 -0.7990 -1.4829
  107OSM   C11S10949   0.869   5.004   9.874 -0.1324  0.4996 -0.5927
  107OSM   H11S10950   0.907   4.899   9.878 -0.5209  0.3696 -0.2283
  107OSM   H11T10951   0.959   5.067   9.858 -1.8364  3.2964  0.3287
  107OSM   C12S10952   0.783   5.017   9.748 -0.2502  0.2498 -0.0672
  107OSM   H12S10953   0.784   5.124   9.716  0.8291  0.0680 -0.6959
  107OSM   H12T10954   0.679   4.991   9.776 -0.1837  2.2066  2.3786
  107OSM   C13S10955   0.840   4.938   9.630  0.3685  0.2209  0.1862
  107OSM   H13S10956   0.881   4.846   9.676  0.7653  0.2457 -0.1161
  107OSM   H13T10957   0.913   4.999   9.573 -1.3068  1.0965 -1.1451
  107OSM   C14S10958   0.717   4.895   9.539 -0.4033  0.0742 -0.8615
  107OSM   H14S10959   0.620   4.949   9.545  0.2389  1.1378  0.5014
  107OSM   H14T10960   0.689   4.796   9.581 -1.4740  1.2736  1.4511
  107OSM   C15S10961   0.758   4.867   9.395 -0.0675 -0.0983 -0.2450
  107OSM   H15S10962   0.716   4.771   9.357  1.8411 -1.4144  0.7857
  107OSM   H15T10963   0.867   4.851   9.386 -0.2589 -2.0886  0.3836
  107OSM   C16S10964   0.706   4.969   9.298  0.4169 -0.5891 -0.4657
  107OSM   H16S10965   0.734   5.070   9.335 -1.0630  0.6115 -2.4456
  107OSM   H16T10966   0.596   4.965   9.291  0.3125 -0.0021  0.5831
  107OSM   C17S10967   0.761   4.954   9.152 -0.1995 -0.6712 -0.2425
  107OSM   H17S10968   0.755   4.847   9.123 -1.2516 -1.2868  2.0546
  107OSM   H17T10969   0.871   4.969   9.153 -0.1826 -0.7968  1.0098
  107OSM   C18S10970   0.699   5.050   9.047  0.0328 -0.0744  0.4230
  107OSM   H18S10971   0.706   5.156   9.081  2.7270  0.1996 -0.7592
  107OSM   H18T10972   0.592   5.020   9.043  0.3498 -1.0361 -1.4889
  107OSM   H18U10973   0.739   5.046   8.944  0.2787 -2.6040  0.5410
  107OSM    C1F10974   1.570   5.061  10.534 -0.7966 -0.5192  0.6318
  107OSM     OF10975   1.613   4.956  10.572 -0.1072 -0.6005 -0.2192
  107OSM    C2F10976   1.644   5.128  10.420 -1.0072 -0.6052  0.2626
  107OSM    H2F10977   1.698   5.212  10.469 -1.2107 -0.2647 -0.0934
  107OSM    H2G10978   1.571   5.167  10.345  0.1013  1.8384  0.3536
  107OSM    C3F10979   1.752   5.046  10.336 -0.5596  0.3624  0.3187
  107OSM    H3F10980   1.707   4.959  10.284  2.1323 -0.4946 -0.7657
  107OSM    H3G10981   1.822   4.997  10.408 -0.5889  0.5173  0.4538
  107OSM    C4F10982   1.833   5.125  10.238 -0.3285  0.4789  0.4218
  107OSM    H4F10983   1.910   5.052  10.205 -1.0620 -0.3663  0.5668
  107OSM    H4G10984   1.894   5.203  10.287  1.3001 -0.0915 -0.6172
  107OSM    C5F10985   1.764   5.187  10.118 -0.1197  0.0665  0.0941
  107OSM    H5F10986   1.836   5.237  10.050 -1.9460  1.7775 -0.7045
  107OSM    H5G10987   1.693   5.264  10.157 -0.7178 -1.7555  2.9227
  107OSM    C6F10988   1.686   5.086  10.037 -0.2178 -1.2056  0.3835
  107OSM    H6F10989   1.583   5.057  10.066 -0.9050  1.3274  0.7677
  107OSM    H6G10990   1.748   4.995  10.029  2.3076  0.5093 -1.1879
  107OSM    C7F10991   1.678   5.154   9.894  0.8615  0.1888  0.1802
  107OSM    H7F10992   1.776   5.187   9.854  0.8917  0.7455  0.6942
  107OSM    H7G10993   1.619   5.247   9.906 -0.0808 -0.1583 -1.4282
  107OSM    C8F10994   1.601   5.058   9.794  0.0712  0.1620 -0.4706
  107OSM    H8F10995   1.558   5.118   9.711  0.6120 -1.6153 -2.1065
  107OSM    H8G10996   1.517   5.012   9.851  0.9281 -0.4596  0.3204
  107OSM    C9F10997   1.675   4.940   9.735 -0.8930 -1.0571 -0.5134
  107OSM    H9F10998   1.716   4.864   9.804  0.4744 -2.1868 -2.4620
  107OSM   C10F10999   1.699   4.938   9.600 -0.4005  0.2554 -0.3025
  107OSM   H10F11000   1.758   4.851   9.567 -1.0399  0.1502 -1.2046
  107OSM   C11F11001   1.659   5.023   9.486 -0.8519 -0.3022 -1.0156
  107OSM   H11F11002   1.708   5.123   9.478 -0.5463 -0.5484 -2.6065
  107OSM   H11G11003   1.554   5.055   9.501 -0.8323 -0.7524  0.1789
  107OSM   C12F11004   1.656   4.960   9.345 -0.6359  0.3815 -0.1017
  107OSM   H12F11005   1.582   4.877   9.338  0.8542 -1.0358  0.2680
  107OSM   H12G11006   1.757   4.916   9.332 -1.1503 -1.1070  0.6729
  107OSM   C13F11007   1.631   5.062   9.237  0.5904  0.0120 -0.0744
  107OSM   H13F11008   1.716   5.129   9.209 -0.2869  0.5768 -1.5160
  107OSM   H13G11009   1.543   5.125   9.261 -0.2583 -1.9938  2.4867
  107OSM   C14F11010   1.581   4.990   9.112  0.2459  0.4536 -0.1913
  107OSM   H14F11011   1.482   4.944   9.131  1.5300 -2.5565 -0.2356
  107OSM   H14G11012   1.652   4.908   9.088 -0.0919  0.2956 -0.6661
  107OSM   C15F11013   1.579   5.076   8.986  0.6567  0.4300  0.8220
  107OSM   H15F11014   1.668   5.134   8.956 -0.8156  1.4573 -1.9374
  107OSM   H15G11015   1.493   5.143   9.011 -1.5984 -2.7357  2.2918
  107OSM   C16F11016   1.538   4.994   8.862 -0.1355  0.1756  0.1301
  107OSM   H16F11017   1.442   4.945   8.887 -0.4178  2.1304  3.4522
  107OSM   H16G11018   1.610   4.911   8.844 -0.0805 -0.0940  1.4834
  107OSM   C17F11019   1.521   5.074   8.733 -0.2033 -0.1495  0.1679
  107OSM   H17F11020   1.618   5.121   8.704 -0.5135  0.4521  0.0985
  107OSM   H17G11021   1.448   5.157   8.742  0.0204  0.0457  0.1838
  107OSM   C18F11022   1.478   4.979   8.626  0.3625 -0.2065 -0.0378
  107OSM   H18F11023   1.569   4.921   8.602  2.6299  3.4408 -1.0120
  107OSM   H18G11024   1.450   5.036   8.534  1.6388  1.2686  0.4372
  107OSM   H18H11025   1.395   4.920   8.671  0.8723  1.2705  3.0939
  108OSM      N11026   4.145   5.502  11.030  0.0480 -0.3329 -0.5720
  108OSM    C1511027   4.178   5.635  11.096  0.5920  0.2614  0.2325
  108OSM   H15A11028   4.090   5.673  11.146  0.6105 -1.1129  1.3278
  108OSM   H15B11029   4.213   5.711  11.027  0.3449  0.4445  0.3038
  108OSM   H15C11030   4.246   5.612  11.176  1.0924  2.9410  0.6693
  108OSM    C1411031   4.275   5.438  11.006  0.0656  0.9027 -0.5546
  108OSM   H14A11032   4.325   5.399  11.093  1.9619  0.3517 -1.8378
  108OSM   H14B11033   4.347   5.508  10.966  1.5549 -1.0776 -1.4798
  108OSM   H14C11034   4.270   5.360  10.932 -1.6264  0.0174  0.4182
  108OSM    C1311035   4.061   5.422  11.124 -0.4535 -0.4796 -0.4377
  108OSM   H13A11036   4.073   5.316  11.106 -1.4484 -0.3580 -1.9341
  108OSM   H13B11037   3.960   5.458  11.126  0.0696  1.1292  2.1157
  108OSM   H13C11038   4.097   5.429  11.226  1.1384  1.1046 -1.0479
  108OSM    C1211039   4.067   5.514  10.895  0.2383 -0.0348  0.0485
  108OSM   H12A11040   3.964   5.545  10.907  0.9040  2.3573 -0.0046
  108OSM   H12B11041   4.063   5.417  10.846 -2.2035 -1.4669  2.7319
  108OSM    C1111042   4.140   5.611  10.798 -0.6573 -0.0619  0.6370
  108OSM   H11A11043   4.085   5.600  10.701 -0.9631 -0.4059  0.8448
  108OSM   H11B11044   4.246   5.582  10.782 -0.1674  1.6775  0.5227
  108OSM      P11045   4.012   5.841  10.814 -0.0573 -0.1595 -0.0574
  108OSM    O1311046   3.975   5.910  10.942  0.2094  0.3525  0.4239
  108OSM    O1411047   4.037   5.936  10.700  0.1302  0.8286 -0.2165
  108OSM    O1111048   3.914   5.733  10.766 -0.1444 -0.1416 -0.1301
  108OSM    O1211049   4.130   5.744  10.843  0.1767 -0.1109 -0.3357
  108OSM    C1S11050   3.773   5.746  10.734  0.3007 -1.4574 -0.0977
  108OSM    H1S11051   3.722   5.811  10.809  0.7513 -3.1995  1.8068
  108OSM    H1T11052   3.728   5.645  10.725  1.0937 -1.7178 -1.5144
  108OSM     NF11053   3.622   5.855  10.580  0.1662 -0.1237 -0.1623
  108OSM    HNF11054   3.547   5.788  10.574 -0.1228  0.3239 -2.1616
  108OSM    C2S11055   3.757   5.810  10.590  0.6329  0.5394 -0.2431
  108OSM    H2S11056   3.833   5.889  10.572 -0.6799  1.7170 -0.7979
  108OSM    C3S11057   3.793   5.709  10.481  0.1624  0.4386 -0.7462
  108OSM    H3S11058   3.741   5.613  10.498 -0.7118  0.8270 -1.1135
  108OSM     O311059   3.932   5.667  10.480 -0.2678 -1.0295 -0.4220
  108OSM    HO311060   3.976   5.716  10.550 -1.0920  0.3107 -0.8078
  108OSM    C4S11061   3.754   5.765  10.347 -0.7033 -0.8231 -0.2707
  108OSM    H4S11062   3.799   5.861  10.317  4.2482 -1.9782  2.4428
  108OSM    C5S11063   3.663   5.712  10.266  0.2924  0.5317  0.3151
  108OSM    H5S11064   3.611   5.620  10.296  0.2750  0.8714  1.3498
  108OSM    C6S11065   3.612   5.751  10.133  0.7737 -0.7006 -0.1755
  108OSM    H6S11066   3.623   5.860  10.114  1.1731 -0.6391  0.3561
  108OSM    H6T11067   3.502   5.744  10.123  0.7477  0.9618 -1.6848
  108OSM    C7S11068   3.687   5.680  10.023  0.1295 -0.1571  0.4656
  108OSM    H7S11069   3.693   5.570  10.039  0.2093 -0.2769 -0.3322
  108OSM    H7T11070   3.791   5.718  10.012  0.7556 -1.8299  0.3821
  108OSM    C8S11071   3.623   5.701   9.875 -0.6828 -0.0519  0.9357
  108OSM    H8S11072   3.585   5.805   9.867 -0.2804 -0.0126 -0.8487
  108OSM    H8T11073   3.545   5.622   9.866  0.6626 -1.2017 -2.1842
  108OSM    C9S11074   3.728   5.687   9.766 -0.1610 -0.2419  0.2501
  108OSM    H9S11075   3.765   5.583   9.757  0.6275  0.0276  0.3564
  108OSM    H9T11076   3.815   5.747   9.802 -0.3472 -1.0953  2.2545
  108OSM   C10S11077   3.672   5.720   9.628 -0.2081 -0.6173  0.0760
  108OSM   H10S11078   3.753   5.721   9.551 -0.4350  0.4576 -0.1562
  108OSM   H10T11079   3.640   5.826   9.636  3.6346  0.8199 -1.2987
  108OSM   C11S11080   3.552   5.633   9.585  0.0023  0.1711  1.0110
  108OSM   H11S11081   3.510   5.681   9.494  4.6652 -1.9769 -2.6934
  108OSM   H11T11082   3.480   5.628   9.670 -0.5232 -1.7741  0.5009
  108OSM   C12S11083   3.590   5.492   9.548 -0.5987 -0.3192 -0.4165
  108OSM   H12S11084   3.499   5.445   9.504 -1.3474  1.2905 -0.6552
  108OSM   H12T11085   3.624   5.435   9.637  2.1459  2.2167  0.3354
  108OSM   C13S11086   3.697   5.488   9.442 -0.7589  0.4562  0.3992
  108OSM   H13S11087   3.711   5.378   9.436 -1.9425  0.2567  1.0437
  108OSM   H13T11088   3.792   5.530   9.481 -0.3808  2.3253 -2.2100
  108OSM   C14S11089   3.654   5.545   9.302  1.0104 -0.7176  0.2077
  108OSM   H14S11090   3.641   5.654   9.314  0.0017 -0.8437  0.4233
  108OSM   H14T11091   3.557   5.511   9.261  0.5064  1.4174 -0.4584
  108OSM   C15S11092   3.761   5.524   9.197 -0.7378  0.0588 -0.7959
  108OSM   H15S11093   3.801   5.423   9.174  0.2396  0.2681 -0.0775
  108OSM   H15T11094   3.853   5.571   9.239 -0.3150 -0.6142 -0.9471
  108OSM   C16S11095   3.721   5.598   9.061  0.4276  0.4587 -0.4460
  108OSM   H16S11096   3.675   5.697   9.075 -0.4386  0.1139 -0.8298
  108OSM   H16T11097   3.639   5.544   9.009  0.2479  0.9715 -0.6928
  108OSM   C17S11098   3.832   5.597   8.964  0.2538  0.0634 -0.1367
  108OSM   H17S11099   3.883   5.499   8.959 -1.1706 -0.6992 -0.3078
  108OSM   H17T11100   3.904   5.673   9.001  0.2919 -0.9773  2.0825
  108OSM   C18S11101   3.795   5.626   8.824 -0.0526  0.3568  0.4922
  108OSM   H18S11102   3.718   5.554   8.790  1.5226 -1.7366  1.1985
  108OSM   H18T11103   3.886   5.622   8.761  0.0651 -1.6864  0.7289
  108OSM   H18U11104   3.747   5.727   8.817 -1.5994 -0.1741  2.4648
  108OSM    C1F11105   3.587   5.983  10.592 -0.0856  0.0825  0.9821
  108OSM     OF11106   3.677   6.067  10.608  0.5844  0.2872  0.1170
  108OSM    C2F11107   3.437   6.005  10.586  0.2607 -0.2746 -0.5370
  108OSM    H2F11108   3.422   6.047  10.688  1.7219 -3.5964  1.1943
  108OSM    H2G11109   3.391   5.904  10.581  1.8609 -1.2015  1.9225
  108OSM    C3F11110   3.395   6.103  10.472 -0.6952 -0.6496  0.0240
  108OSM    H3F11111   3.452   6.196  10.492 -1.6900 -0.2492  1.0769
  108OSM    H3G11112   3.290   6.137  10.486 -0.6734 -1.1292  1.5600
  108OSM    C4F11113   3.432   6.055  10.331  0.2389  0.1111  1.1158
  108OSM    H4F11114   3.540   6.049  10.306  0.1293 -0.5742  0.8002
  108OSM    H4G11115   3.392   6.137  10.268  1.2162  1.2146  1.8926
  108OSM    C5F11116   3.349   5.932  10.282 -0.6876  0.2276  0.2256
  108OSM    H5F11117   3.251   5.925  10.334  0.3496 -0.6474  2.1898
  108OSM    H5G11118   3.408   5.845  10.320  0.3605  0.7051 -0.2607
  108OSM    C6F11119   3.319   5.947  10.131  0.1373 -0.1923 -0.2495
  108OSM    H6F11120   3.292   5.848  10.089 -1.8032 -1.4159  3.4868
  108OSM    H6G11121   3.410   5.981  10.076  0.0455  1.1209  0.3749
  108OSM    C7F11122   3.194   6.032  10.106  0.1372 -0.0133  0.3069
  108OSM    H7F11123   3.231   6.137  10.111  1.5908 -0.5064  0.4517
  108OSM    H7G11124   3.109   6.010  10.175 -0.3658 -1.2993 -0.6805
  108OSM    C8F11125   3.154   6.027   9.956 -0.4407 -0.1006 -0.4927
  108OSM    H8F11126   3.239   6.036   9.886 -0.9937  0.3178 -1.1305
  108OSM    H8G11127   3.093   6.114   9.923 -0.1240 -0.5492 -2.3709
  108OSM    C9F11128   3.078   5.896   9.919  0.1652 -0.5506 -0.1476
  108OSM    H9F11129   2.982   5.886   9.970 -1.6052  0.9727 -2.9267
  108OSM   C10F11130   3.110   5.805   9.822 -0.1685  0.1262  0.0107
  108OSM   H10F11131   3.049   5.714   9.810  0.3724 -0.1246 -0.9096
  108OSM   C11F11132   3.228   5.815   9.724  0.2075  0.3572 -0.4012
  108OSM   H11F11133   3.278   5.717   9.717  2.1735  1.2696  0.2011
  108OSM   H11G11134   3.311   5.866   9.778  1.0360 -0.2192 -1.1040
  108OSM   C12F11135   3.191   5.876   9.591  0.4211 -0.0502 -0.0694
  108OSM   H12F11136   3.191   5.987   9.600 -0.1252 -0.1441  1.4216
  108OSM   H12G11137   3.099   5.830   9.551  0.6893  0.0770 -0.8469
  108OSM   C13F11138   3.304   5.852   9.480 -0.0621  0.0215  0.1500
  108OSM   H13F11139   3.311   5.745   9.452 -1.0315  0.0891 -0.4139
  108OSM   H13G11140   3.399   5.889   9.524  0.8575 -0.5721 -1.2795
  108OSM   C14F11141   3.287   5.929   9.345  0.2499  0.5443 -0.3897
  108OSM   H14F11142   3.363   6.009   9.341  0.9245 -0.0915 -0.4772
  108OSM   H14G11143   3.182   5.964   9.341  0.3923  0.9069 -1.0816
  108OSM   C15F11144   3.301   5.840   9.210  0.5224  0.0179 -0.4030
  108OSM   H15F11145   3.220   5.764   9.199 -0.6568  1.5303 -3.3174
  108OSM   H15G11146   3.394   5.779   9.213  0.0444 -0.7212 -0.4125
  108OSM   C16F11147   3.314   5.924   9.085  0.2685 -0.1838 -0.4494
  108OSM   H16F11148   3.402   5.991   9.098 -1.4674  1.9133  1.2364
  108OSM   H16G11149   3.230   5.997   9.090 -0.6528 -1.2959  1.6906
  108OSM   C17F11150   3.321   5.858   8.943 -0.1822 -0.8045  0.3062
  108OSM   H17F11151   3.337   5.951   8.885  1.6174 -1.1940  0.1176
  108OSM   H17G11152   3.222   5.813   8.921 -1.3595  0.2508  3.0131
  108OSM   C18F11153   3.431   5.758   8.921 -0.6007 -0.3488  0.2242
  108OSM   H18F11154   3.535   5.783   8.950 -0.3770 -0.3826 -0.5399
  108OSM   H18G11155   3.418   5.738   8.813 -2.0601  1.7749 -0.0583
  108OSM   H18H11156   3.406   5.661   8.969  1.2841 -0.9024  0.1664
  109OSM      N11157   3.588   2.652  11.265  0.6818 -0.0854  0.7846
  109OSM    C1511158   3.650   2.537  11.206  0.1566 -0.6079  0.0325
  109OSM   H15A11159   3.585   2.452  11.188 -0.7781  0.0324  0.2912
  109OSM   H15B11160   3.721   2.488  11.271 -0.0726  1.1538  1.7002
  109OSM   H15C11161   3.694   2.556  11.110  0.0595 -0.3208  0.0456
  109OSM    C1411162   3.494   2.705  11.163 -0.1144 -0.0313  0.4420
  109OSM   H14A11163   3.403   2.648  11.167 -0.1323  0.0658  1.6966
  109OSM   H14B11164   3.530   2.711  11.061  1.7579  1.3311  1.1224
  109OSM   H14C11165   3.463   2.807  11.179 -1.4814 -0.5645  1.2767
  109OSM    C1311166   3.509   2.613  11.385 -0.0804 -0.3102  0.0960
  109OSM   H13A11167   3.567   2.558  11.458 -1.2122 -1.6791  0.0077
  109OSM   H13B11168   3.422   2.552  11.365  0.5039 -2.0146  2.3321
  109OSM   H13C11169   3.474   2.706  11.427  1.4853  0.2001  0.3222
  109OSM    C1211170   3.701   2.753  11.309  0.7199  0.3800 -0.4796
  109OSM   H12A11171   3.752   2.790  11.221  1.1470  0.5883 -0.1502
  109OSM   H12B11172   3.776   2.691  11.356 -1.7611 -2.8842 -0.5202
  109OSM    C1111173   3.655   2.876  11.392 -1.0374  0.3122 -0.1534
  109OSM   H11A11174   3.748   2.932  11.417 -0.0795  0.2147 -3.1340
  109OSM   H11B11175   3.625   2.830  11.488  0.4423 -0.5212 -0.0627
  109OSM      P11176   3.563   3.064  11.228 -0.3352  0.6653 -0.0094
  109OSM    O1311177   3.514   3.190  11.289  0.8156 -0.1327 -0.4772
  109OSM    O1411178   3.698   3.063  11.177 -0.4106  0.0988 -0.3168
  109OSM    O1111179   3.469   3.017  11.112 -0.0993 -0.2751 -0.2741
  109OSM    O1211180   3.544   2.946  11.338 -0.1738  0.5640 -0.3059
  109OSM    C1S11181   3.523   3.025  10.972 -0.3101  0.1947 -0.2897
  109OSM    H1S11182   3.606   2.952  10.967 -1.6048 -1.2573 -1.1459
  109OSM    H1T11183   3.551   3.129  10.943 -1.3307  0.8395  0.9083
  109OSM     NF11184   3.488   2.978  10.738  0.3079  0.8154 -0.5908
  109OSM    HNF11185   3.467   3.043  10.665  1.9877  0.6398 -1.2624
  109OSM    C2S11186   3.419   2.988  10.866  0.5242 -0.9962  0.1077
  109OSM    H2S11187   3.369   2.892  10.893 -3.0655  0.4345 -0.7783
  109OSM    C3S11188   3.306   3.102  10.864 -0.1479 -0.1290 -0.3780
  109OSM    H3S11189   3.359   3.193  10.828  1.7754 -0.9219  0.3104
  109OSM     O311190   3.257   3.138  10.993 -0.3360  0.1623 -0.3896
  109OSM    HO311191   3.317   3.094  11.053 -1.7575  0.9351  1.6807
  109OSM    C4S11192   3.196   3.068  10.770 -0.1132 -0.4765  0.4337
  109OSM    H4S11193   3.204   3.114  10.670  0.1321  0.2339  0.7708
  109OSM    C5S11194   3.083   3.000  10.792 -0.0562 -0.6277  0.4672
  109OSM    H5S11195   3.066   2.950  10.889  1.8621 -2.6473 -0.1366
  109OSM    C6S11196   2.981   2.974  10.682  0.3212 -0.6069 -0.3995
  109OSM    H6S11197   2.882   2.972  10.732 -0.1323 -0.1694 -1.2643
  109OSM    H6T11198   3.006   2.870  10.653  1.3272 -1.5816  3.4094
  109OSM    C7S11199   2.970   3.050  10.550  0.3020 -0.0253 -0.2104
  109OSM    H7S11200   3.070   3.057  10.503 -0.0593  2.8782 -0.7216
  109OSM    H7T11201   2.949   3.158  10.564  0.3656  0.0613 -0.7835
  109OSM    C8S11202   2.869   2.985  10.458  0.4415 -0.0266  0.2049
  109OSM    H8S11203   2.773   2.956  10.506  1.0911 -0.1168  1.4956
  109OSM    H8T11204   2.915   2.888  10.429  0.0283  0.0642 -0.7788
  109OSM    C9S11205   2.830   3.079  10.336 -0.4337  0.0120 -0.4126
  109OSM    H9S11206   2.924   3.132  10.311  1.7986 -3.0173  1.0110
  109OSM    H9T11207   2.755   3.159  10.355  1.1776  1.4410  0.1344
  109OSM   C10S11208   2.781   3.002  10.216 -0.0569  0.6311 -0.4668
  109OSM   H10S11209   2.674   2.974  10.231  0.3979 -0.4791  0.9277
  109OSM   H10T11210   2.840   2.909  10.199 -1.4991 -1.0542  2.7513
  109OSM   C11S11211   2.770   3.083  10.092 -0.4867 -0.3130  0.9886
  109OSM   H11S11212   2.870   3.106  10.049 -0.8834  0.2072  0.3306
  109OSM   H11T11213   2.725   3.180  10.121 -2.7783 -0.6195 -1.2389
  109OSM   C12S11214   2.709   3.021   9.958  0.2475  0.0994 -0.2872
  109OSM   H12S11215   2.598   3.015   9.970  0.5375 -2.2036  1.8268
  109OSM   H12T11216   2.751   2.918   9.956 -0.1361 -0.0546 -1.7887
  109OSM   C13S11217   2.727   3.108   9.835 -0.3269 -0.1085 -0.1853
  109OSM   H13S11218   2.836   3.118   9.817  0.1043  0.1404  2.2339
  109OSM   H13T11219   2.692   3.207   9.873  1.1655  0.9068 -1.3444
  109OSM   C14S11220   2.651   3.056   9.711 -0.2846 -0.2477 -0.1963
  109OSM   H14S11221   2.551   3.030   9.753 -0.4284 -0.4339 -0.6520
  109OSM   H14T11222   2.695   2.965   9.665 -0.6636 -0.1239 -0.8258
  109OSM   C15S11223   2.619   3.158   9.598  0.4081 -0.2532  0.4005
  109OSM   H15S11224   2.712   3.188   9.546 -0.6976  1.8735 -0.4827
  109OSM   H15T11225   2.574   3.250   9.640 -1.1086 -0.9061  0.2951
  109OSM   C16S11226   2.517   3.117   9.492  0.4901 -0.5357  0.0741
  109OSM   H16S11227   2.476   3.209   9.444  0.3241 -1.4690 -1.6696
  109OSM   H16T11228   2.439   3.061   9.547  0.0671  0.8604  0.9614
  109OSM   C17S11229   2.571   3.018   9.392  0.3847  0.1869 -0.2633
  109OSM   H17S11230   2.611   2.928   9.443 -1.4319 -0.2115  0.5531
  109OSM   H17T11231   2.658   3.058   9.336 -0.6633  0.1816 -1.9579
  109OSM   C18S11232   2.461   2.969   9.298 -0.7980 -0.1183 -0.2273
  109OSM   H18S11233   2.376   2.933   9.359 -0.3259 -0.5360  0.1959
  109OSM   H18T11234   2.496   2.883   9.238 -2.0235 -0.9776  0.2599
  109OSM   H18U11235   2.438   3.050   9.225 -1.2842 -1.6901 -1.8723
  109OSM    C1F11236   3.571   2.885  10.697 -0.8406  0.2036  0.6649
  109OSM     OF11237   3.612   2.798  10.772 -0.3217  0.3209 -0.0854
  109OSM    C2F11238   3.618   2.896  10.560 -0.0548  0.7180 -0.5085
  109OSM    H2F11239   3.636   3.002  10.534  0.8246  0.7696  0.2447
  109OSM    H2G11240   3.534   2.859  10.498 -0.0678  1.1763 -0.7656
  109OSM    C3F11241   3.753   2.818  10.533  0.4493 -0.0567  0.2329
  109OSM    H3F11242   3.719   2.713  10.549 -0.3478  0.2315  0.4664
  109OSM    H3G11243   3.826   2.858  10.606  0.4059  0.2587  0.1031
  109OSM    C4F11244   3.816   2.814  10.396 -0.5807 -0.7689  0.6416
  109OSM    H4F11245   3.921   2.778  10.400  0.8269  2.7348  6.0895
  109OSM    H4G11246   3.823   2.920  10.364 -2.2696 -0.8333 -0.0471
  109OSM    C5F11247   3.741   2.740  10.288 -0.6372 -0.4858  0.3426
  109OSM    H5F11248   3.643   2.791  10.281 -0.9146 -1.1806 -1.4423
  109OSM    H5G11249   3.732   2.634  10.319  0.9809  0.1996  3.5677
  109OSM    C6F11250   3.814   2.731  10.153  0.6236 -0.4546  0.2209
  109OSM    H6F11251   3.764   2.650  10.096  0.4968  0.2424 -0.6884
  109OSM    H6G11252   3.919   2.695  10.155  0.1611 -1.9445 -0.8909
  109OSM    C7F11253   3.792   2.864  10.072 -0.6031 -0.0925 -0.6797
  109OSM    H7F11254   3.810   2.951  10.137 -1.5937  0.3059 -0.9139
  109OSM    H7G11255   3.683   2.875  10.053 -0.6039  1.3077  0.0286
  109OSM    C8F11256   3.865   2.876   9.935  0.0833  0.2891 -0.9044
  109OSM    H8F11257   3.975   2.861   9.943  0.0262  0.4984  0.4621
  109OSM    H8G11258   3.851   2.982   9.906 -0.0264  0.6806  0.4990
  109OSM    C9F11259   3.813   2.779   9.837 -0.7706 -0.9857  0.2545
  109OSM    H9F11260   3.707   2.751   9.850 -0.8191 -0.5121  0.9162
  109OSM   C10F11261   3.875   2.738   9.726 -0.2880  0.7117 -0.0069
  109OSM   H10F11262   3.828   2.655   9.671 -0.5008  0.6054  0.3283
  109OSM   C11F11263   4.014   2.772   9.680 -0.4040  0.0092 -0.5934
  109OSM   H11F11264   4.080   2.686   9.701  0.4302  1.2533  2.4719
  109OSM   H11G11265   4.072   2.837   9.749  1.7482 -0.5728 -1.7763
  109OSM   C12F11266   3.999   2.822   9.540  0.6819  0.3448  0.1985
  109OSM   H12F11267   3.959   2.925   9.543  0.6051  0.2996  1.1284
  109OSM   H12G11268   3.926   2.765   9.479  0.1989 -0.9694  1.9077
  109OSM   C13F11269   4.139   2.824   9.473  0.8664 -0.0863 -0.0275
  109OSM   H13F11270   4.180   2.722   9.483 -1.4461 -0.9904  1.0752
  109OSM   H13G11271   4.201   2.904   9.517  0.7093  0.4878 -0.8238
  109OSM   C14F11272   4.130   2.842   9.322  0.5132  0.5360  0.3110
  109OSM   H14F11273   4.103   2.945   9.291 -0.0067 -0.3117 -2.3870
  109OSM   H14G11274   4.052   2.785   9.267 -1.1313  2.5524  0.4410
  109OSM   C15F11275   4.256   2.813   9.253 -0.2332 -0.3222 -0.4804
  109OSM   H15F11276   4.289   2.719   9.301 -2.8270 -1.8431 -1.4792
  109OSM   H15G11277   4.329   2.894   9.275 -2.2014  1.1743  0.8683
  109OSM   C16F11278   4.233   2.797   9.111 -0.2364  0.0388 -0.0204
  109OSM   H16F11279   4.160   2.714   9.113 -1.8385  1.4263  1.9313
  109OSM   H16G11280   4.321   2.765   9.050 -0.7223  1.0286 -1.2742
  109OSM   C17F11281   4.174   2.911   9.034 -0.1052  0.4565 -0.8254
  109OSM   H17F11282   4.223   3.002   9.073  0.2276  0.4012 -1.1139
  109OSM   H17G11283   4.063   2.917   9.034 -0.1399 -0.1442 -0.3556
  109OSM   C18F11284   4.216   2.917   8.885 -0.3241  0.6131  0.1388
  109OSM   H18F11285   4.180   2.821   8.841  0.2425  0.1964  0.5627
  109OSM   H18G11286   4.324   2.932   8.863 -0.1386  1.0783  1.2882
  109OSM   H18H11287   4.163   2.997   8.829  1.9425  1.4495 -0.9297
  110OSM      N11288   3.681   1.899  10.896  0.7896 -0.0165 -0.3890
  110OSM    C1511289   3.631   1.776  10.953 -0.3990 -0.0825 -0.5941
  110OSM   H15A11290   3.632   1.776  11.061  1.0650  0.8969 -0.5660
  110OSM   H15B11291   3.695   1.693  10.929  1.9511  0.6115  2.5779
  110OSM   H15C11292   3.536   1.743  10.915 -1.0804  1.5192 -0.3591
  110OSM    C1411293   3.820   1.914  10.939 -0.6970  0.9387  0.4810
  110OSM   H14A11294   3.863   2.007  10.906  0.4653 -0.1658 -1.3114
  110OSM   H14B11295   3.892   1.842  10.902 -0.2281  1.8698 -0.4673
  110OSM   H14C11296   3.819   1.911  11.047  1.0902 -0.3314  0.5061
  110OSM    C1311297   3.665   1.884  10.752  0.3375  0.8631  0.0080
  110OSM   H13A11298   3.718   1.797  10.714 -1.7909 -0.4982 -0.0459
  110OSM   H13B11299   3.662   1.981  10.705  1.7431  2.0462  2.1988
  110OSM   H13C11300   3.561   1.854  10.744  1.0492 -1.7809 -0.3394
  110OSM    C1211301   3.594   2.013  10.952 -1.1844  0.1556 -0.3634
  110OSM   H12A11302   3.579   1.995  11.057 -2.9514 -1.5791 -0.8562
  110OSM   H12B11303   3.494   2.018  10.911 -1.1126  0.2380 -0.5315
  110OSM    C1111304   3.659   2.156  10.949  0.2072  0.3493 -0.3396
  110OSM   H11A11305   3.579   2.233  10.958 -0.8457 -0.8596  1.0829
  110OSM   H11B11306   3.703   2.176  10.849 -1.2961  1.0785 -0.8892
  110OSM      P11307   3.890   2.215  11.068  0.2043 -0.2058 -0.0318
  110OSM    O1311308   3.897   2.310  11.181 -0.2368  0.2021 -0.0415
  110OSM    O1411309   3.990   2.108  11.063 -0.5286 -0.1079 -0.4474
  110OSM    O1111310   3.907   2.307  10.948 -0.4921 -0.1353  0.4181
  110OSM    O1211311   3.746   2.165  11.058 -0.4418  0.4502  0.0253
  110OSM    C1S11312   4.033   2.349  10.887 -0.1220 -0.9149  0.3774
  110OSM    H1S11313   4.121   2.294  10.926  2.5905  0.1847 -3.4986
  110OSM    H1T11314   4.045   2.457  10.912 -1.1345 -0.7158  0.0237
  110OSM     NF11315   4.160   2.320  10.670  0.6230 -0.4545  0.2348
  110OSM    HNF11316   4.194   2.407  10.637 -0.4600  0.3516  1.1996
  110OSM    C2S11317   4.030   2.325  10.733  0.4697 -0.2402 -0.6806
  110OSM    H2S11318   3.976   2.229  10.716 -0.8031  0.2385  0.5054
  110OSM    C3S11319   3.939   2.436  10.677  0.4428 -0.5810  0.0192
  110OSM    H3S11320   3.960   2.537  10.720 -1.7598  1.4875 -3.2959
  110OSM     O311321   3.802   2.417  10.730 -0.3494  0.7714 -0.1339
  110OSM    HO311322   3.813   2.357  10.805 -1.4130 -0.0945 -0.6374
  110OSM    C4S11323   3.947   2.447  10.534 -0.5958  0.4426  1.0555
  110OSM    H4S11324   4.049   2.480  10.510 -0.2813  0.4072  2.2458
  110OSM    C5S11325   3.865   2.413  10.425  0.3040  0.3999 -1.0730
  110OSM    H5S11326   3.770   2.358  10.437  0.3255  0.5999  0.1455
  110OSM    C6S11327   3.910   2.421  10.278  0.0163  0.0738  0.0918
  110OSM    H6S11328   4.018   2.448  10.277  0.6926 -2.4266  0.3552
  110OSM    H6T11329   3.852   2.497  10.221  2.5671  0.1472 -2.6477
  110OSM    C7S11330   3.908   2.287  10.199 -0.4299 -0.2022  0.1631
  110OSM    H7S11331   3.808   2.241  10.210 -0.5852 -0.0207 -0.5003
  110OSM    H7T11332   3.984   2.217  10.241  2.5675  1.7861 -1.5151
  110OSM    C8S11333   3.937   2.303  10.051 -0.0960 -0.2415 -0.1646
  110OSM    H8S11334   4.037   2.349  10.035  0.6447 -1.7591 -0.0473
  110OSM    H8T11335   3.870   2.381  10.008  0.4009  0.9197  1.0931
  110OSM    C9S11336   3.930   2.167   9.984  0.2910  0.1319 -0.1048
  110OSM    H9S11337   3.820   2.152   9.985 -0.0476  1.5739 -3.6088
  110OSM    H9T11338   3.991   2.091  10.037 -0.2329 -0.5418 -0.4567
  110OSM   C10S11339   3.981   2.166   9.840 -0.4485 -0.0934 -0.8126
  110OSM   H10S11340   3.978   2.069   9.786  1.8978 -2.6572  3.1751
  110OSM   H10T11341   4.089   2.184   9.857 -0.3704 -1.3393  0.1296
  110OSM   C11S11342   3.915   2.268   9.744 -0.7192  0.3769 -0.0533
  110OSM   H11S11343   3.965   2.358   9.786 -0.9210  0.2330  0.5098
  110OSM   H11T11344   3.804   2.273   9.743 -0.7355 -0.0851 -0.6227
  110OSM   C12S11345   3.961   2.263   9.598 -0.0027  0.9023  0.5628
  110OSM   H12S11346   3.871   2.233   9.540 -0.1981  0.7514  0.9365
  110OSM   H12T11347   4.041   2.186   9.587 -0.3806  0.6889 -0.8765
  110OSM   C13S11348   4.016   2.395   9.541 -0.0073 -0.2640  0.2376
  110OSM   H13S11349   4.095   2.427   9.613 -0.1810 -0.9111  0.7204
  110OSM   H13T11350   3.933   2.469   9.544 -0.0339 -0.3001  0.4095
  110OSM   C14S11351   4.072   2.383   9.402 -0.7122 -0.5955  0.1107
  110OSM   H14S11352   4.144   2.298   9.407 -1.6044 -1.3342  0.6278
  110OSM   H14T11353   4.124   2.477   9.373 -1.2494 -1.1656 -3.0360
  110OSM   C15S11354   3.968   2.336   9.292  0.4614 -0.2776 -0.1977
  110OSM   H15S11355   3.884   2.408   9.305  2.1986  1.6503  0.9987
  110OSM   H15T11356   3.941   2.231   9.318  0.0782 -0.2745 -0.5782
  110OSM   C16S11357   4.022   2.349   9.145  0.7735 -0.0962  0.4349
  110OSM   H16S11358   4.125   2.308   9.136  1.1722 -0.1549  3.8572
  110OSM   H16T11359   4.037   2.455   9.114  0.2724 -0.2353 -0.3035
  110OSM   C17S11360   3.934   2.286   9.036 -0.4772  0.7503  0.1232
  110OSM   H17S11361   3.981   2.297   8.936  0.8308  1.3660  0.7853
  110OSM   H17T11362   3.831   2.326   9.050 -0.9086 -0.8432  1.9142
  110OSM   C18S11363   3.922   2.132   9.056 -0.0168  0.4856 -0.7719
  110OSM   H18S11364   3.857   2.095   8.974  0.6449 -1.5520 -0.4304
  110OSM   H18T11365   3.887   2.102   9.157  2.4151  4.4429  1.4916
  110OSM   H18U11366   4.015   2.074   9.036 -0.9801 -0.8879 -1.4845
  110OSM    C1F11367   4.227   2.210  10.668 -0.0395 -0.3928 -0.1929
  110OSM     OF11368   4.175   2.103  10.688  0.0551  0.5831 -0.0058
  110OSM    C2F11369   4.374   2.227  10.631 -0.3026 -0.1980 -0.1397
  110OSM    H2F11370   4.406   2.125  10.598  0.7671 -0.0453  0.3787
  110OSM    H2G11371   4.436   2.247  10.721 -0.5261  2.4507 -0.4967
  110OSM    C3F11372   4.404   2.331  10.526 -0.0692 -0.1326 -0.0640
  110OSM    H3F11373   4.514   2.339  10.512 -0.3412  3.4802 -1.2322
  110OSM    H3G11374   4.381   2.434  10.563  1.9472  0.0188  0.8860
  110OSM    C4F11375   4.358   2.315  10.378 -1.1452 -0.3585  0.5259
  110OSM    H4F11376   4.255   2.275  10.373 -1.2265 -0.5514  2.6886
  110OSM    H4G11377   4.424   2.237  10.334 -1.7858 -1.0873  0.8396
  110OSM    C5F11378   4.377   2.451  10.304 -0.5635  0.2237 -0.2326
  110OSM    H5F11379   4.485   2.475  10.314 -0.3932 -0.8382  0.5480
  110OSM    H5G11380   4.318   2.532  10.353 -0.8999  0.0422 -0.3319
  110OSM    C6F11381   4.339   2.456  10.154  0.5090  0.0905 -0.2205
  110OSM    H6F11382   4.363   2.555  10.110 -1.9749 -0.5246 -3.2668
  110OSM    H6G11383   4.229   2.447  10.150  0.3964  0.8138  0.8975
  110OSM    C7F11384   4.410   2.348  10.076  0.5620 -0.4485  0.1973
  110OSM    H7F11385   4.382   2.249  10.119  1.0801 -0.0189  1.5553
  110OSM    H7G11386   4.521   2.350  10.078  0.6010  0.8511 -1.3577
  110OSM    C8F11387   4.361   2.325   9.934  0.4011 -0.7479  0.5304
  110OSM    H8F11388   4.256   2.291   9.925  0.2422 -0.0663 -0.3151
  110OSM    H8G11389   4.427   2.255   9.878 -1.1326 -1.9450  0.1627
  110OSM    C9F11390   4.351   2.453   9.854  0.1985  0.1322  1.2029
  110OSM    H9F11391   4.282   2.529   9.895 -0.3634  1.0874 -1.3069
  110OSM   C10F11392   4.401   2.476   9.727  0.0702  0.8359  0.6411
  110OSM   H10F11393   4.380   2.569   9.672  0.2882 -0.2738 -1.4444
  110OSM   C11F11394   4.485   2.383   9.643 -0.0217 -0.1290 -0.4897
  110OSM   H11F11395   4.474   2.278   9.678 -0.7735 -0.8711 -2.8103
  110OSM   H11G11396   4.594   2.403   9.651 -0.3709  2.2985 -1.0835
  110OSM   C12F11397   4.446   2.365   9.494  0.9587 -0.9432 -0.1000
  110OSM   H12F11398   4.335   2.365   9.487  0.8886 -2.3621  0.6049
  110OSM   H12G11399   4.477   2.263   9.462  0.1889 -1.5155  0.8929
  110OSM   C13F11400   4.497   2.474   9.392  0.5846 -0.4518 -0.0526
  110OSM   H13F11401   4.603   2.495   9.417  0.3201  1.1312 -0.1841
  110OSM   H13G11402   4.447   2.573   9.402 -0.1497 -0.9127  1.0895
  110OSM   C14F11403   4.468   2.426   9.249  0.2684  0.2888 -0.4558
  110OSM   H14F11404   4.357   2.423   9.250  0.0020  2.4226  4.3209
  110OSM   H14G11405   4.522   2.329   9.238  2.3806  1.2052  1.1851
  110OSM   C15F11406   4.513   2.529   9.155 -1.0214 -0.3457  0.2792
  110OSM   H15F11407   4.612   2.573   9.178 -1.8895  1.4153  0.8014
  110OSM   H15G11408   4.438   2.610   9.165 -0.3159  0.7382 -2.2787
  110OSM   C16F11409   4.498   2.502   9.007 -0.3410  0.4040  1.5364
  110OSM   H16F11410   4.582   2.438   8.972 -0.5250  0.7477  0.4326
  110OSM   H16G11411   4.491   2.591   8.942  1.7648  0.2608  1.0227
  110OSM   C17F11412   4.367   2.430   8.971  0.1911 -0.2713 -0.6424
  110OSM   H17F11413   4.285   2.491   9.014 -0.1749 -1.2287  0.0624
  110OSM   H17G11414   4.365   2.329   9.017 -0.0108 -0.7037 -1.5625
  110OSM   C18F11415   4.346   2.417   8.823  0.3439  0.6475  0.3997
  110OSM   H18F11416   4.242   2.384   8.803  1.0103 -0.7271 -1.0242
  110OSM   H18G11417   4.407   2.334   8.783 -4.4961 -2.3363 -1.6748
  110OSM   H18H11418   4.381   2.504   8.762  0.1658  0.0987 -0.5139
  111OSM      N11419   4.683   0.311  10.944  0.0914 -0.0760 -0.0573
  111OSM    C1511420   4.705   0.431  11.022  0.3286  0.1778  0.2596
  111OSM   H15A11421   4.760   0.505  10.965  0.8764 -1.1672 -0.9953
  111OSM   H15B11422   4.762   0.400  11.109 -0.2327 -0.7806  0.2974
  111OSM   H15C11423   4.615   0.469  11.069  0.0065  0.3740 -0.4980
  111OSM    C1411424   4.586   0.218  11.020  0.3921 -0.4755 -0.7633
  111OSM   H14A11425   4.559   0.139  10.951  0.1715  0.8476 -2.2472
  111OSM   H14B11426   4.501   0.276  11.054  1.4245 -0.5946  2.2991
  111OSM   H14C11427   4.632   0.181  11.110 -0.8257 -0.8734 -0.2812
  111OSM    C1311428   4.607   0.359  10.825 -0.3389 -0.0526  0.2440
  111OSM   H13A11429   4.572   0.275  10.766 -0.7530  0.8452 -0.8380
  111OSM   H13B11430   4.665   0.420  10.757 -0.7739 -1.9431 -1.9245
  111OSM   H13C11431   4.520   0.413  10.861  1.0718 -0.0963  4.1802
  111OSM    C1211432   4.813   0.234  10.919 -0.0236  0.2686  0.0577
  111OSM   H12A11433   4.842   0.176  11.006  1.8597  0.5055 -0.3625
  111OSM   H12B11434   4.893   0.302  10.894  1.1855 -1.4051 -0.8601
  111OSM    C1111435   4.805   0.127  10.802 -0.3931 -0.3142  0.3313
  111OSM   H11A11436   4.907   0.084  10.795 -0.3092 -0.0234 -0.2906
  111OSM   H11B11437   4.779   0.180  10.707 -2.5305  1.1459  1.6303
  111OSM      P11438   4.693  -0.118  10.773 -0.7840  0.1113 -0.0427
  111OSM    O1311439   4.826  -0.160  10.726  0.0142  0.2203 -0.1429
  111OSM    O1411440   4.632  -0.201  10.880 -0.2255 -0.4168  0.1552
  111OSM    O1111441   4.592  -0.110  10.655 -0.4158 -1.0715  0.0063
  111OSM    O1211442   4.708   0.029  10.829 -0.3903  0.1882 -0.5880
  111OSM    C1S11443   4.604   0.003  10.569  0.2146 -0.0105  0.3988
  111OSM    H1S11444   4.705   0.007  10.523  0.5118  0.2655  1.0552
  111OSM    H1T11445   4.595   0.096  10.630  1.3194 -0.0728  0.6697
  111OSM     NF11446   4.525   0.093  10.342  0.4599  0.3051 -0.0289
  111OSM    HNF11447   4.472   0.175  10.364 -0.6961 -0.2777 -0.5533
  111OSM    C2S11448   4.502  -0.008  10.441 -0.0633 -0.4782  0.5988
  111OSM    H2S11449   4.526  -0.102  10.388  0.7430  0.7867 -1.4083
  111OSM    C3S11450   4.353  -0.015  10.501 -0.5166 -0.6467 -0.2541
  111OSM    H3S11451   4.341   0.077  10.562  0.3549  0.5225 -1.7792
  111OSM     O311452   4.338  -0.128  10.583  0.2526 -0.3631  0.4067
  111OSM    HO311453   4.431  -0.148  10.595  0.8746  0.3211 -2.5680
  111OSM    C4S11454   4.256  -0.014  10.383 -0.4087 -0.1038 -0.1006
  111OSM    H4S11455   4.211   0.082  10.356 -0.2939  0.0959  0.4102
  111OSM    C5S11456   4.228  -0.125  10.311 -0.1556 -0.5268 -0.0321
  111OSM    H5S11457   4.270  -0.221  10.346 -0.7236 -1.4577 -1.7729
  111OSM    C6S11458   4.138  -0.133  10.194 -0.2103  0.5082  0.4231
  111OSM    H6S11459   4.085  -0.039  10.170  1.0536  0.1622 -5.2334
  111OSM    H6T11460   4.068  -0.217  10.215  1.3013 -0.4795  1.7833
  111OSM    C7S11461   4.214  -0.166  10.067 -0.0016  1.0747  0.0872
  111OSM    H7S11462   4.240  -0.274  10.061 -0.7341  0.8902  0.2354
  111OSM    H7T11463   4.301  -0.098  10.056  0.2022  0.7181 -0.6076
  111OSM    C8S11464   4.120  -0.170   9.947  0.0722  0.6024  0.0015
  111OSM    H8S11465   4.079  -0.068   9.934  0.0329  0.7081  0.9083
  111OSM    H8T11466   4.030  -0.234   9.961  0.1627  0.2277 -1.0240
  111OSM    C9S11467   4.185  -0.231   9.821  0.9958 -0.0533  0.0372
  111OSM    H9S11468   4.228  -0.330   9.846  0.7572 -0.1891 -0.0893
  111OSM    H9T11469   4.260  -0.154   9.794 -0.1810  0.5970 -1.5418
  111OSM   C10S11470   4.084  -0.241   9.699  0.7515 -0.1487 -0.1166
  111OSM   H10S11471   4.016  -0.154   9.686  0.4245 -0.6379 -2.1080
  111OSM   H10T11472   4.012  -0.320   9.729  2.7684 -1.1586  2.4872
  111OSM   C11S11473   4.151  -0.291   9.572  0.0148 -0.1357  0.0560
  111OSM   H11S11474   4.151  -0.402   9.583  0.8575 -0.3114 -1.3573
  111OSM   H11T11475   4.261  -0.275   9.571  0.6085 -3.5182 -0.8736
  111OSM   C12S11476   4.082  -0.246   9.444  0.2641  0.6623 -0.9111
  111OSM   H12S11477   3.979  -0.286   9.433 -0.6670  3.0695 -1.3607
  111OSM   H12T11478   4.136  -0.296   9.360  1.7668  0.4435  0.1296
  111OSM   C13S11479   4.080  -0.095   9.419 -0.1010 -0.7010 -0.1346
  111OSM   H13S11480   4.180  -0.058   9.448 -0.2491 -0.7584  0.4599
  111OSM   H13T11481   4.004  -0.039   9.478  0.5910  0.7269 -0.5342
  111OSM   C14S11482   4.066  -0.054   9.276  0.0061 -0.4483 -0.1140
  111OSM   H14S11483   4.134  -0.114   9.211  2.1864  1.7909 -0.0876
  111OSM   H14T11484   4.096   0.050   9.250  0.3859 -0.7046 -0.7367
  111OSM   C15S11485   3.920  -0.072   9.242  0.1974 -0.2282  0.0008
  111OSM   H15S11486   3.857  -0.004   9.303 -0.6497  0.0960 -1.2135
  111OSM   H15T11487   3.903  -0.181   9.255  0.5554 -0.0820  2.2254
  111OSM   C16S11488   3.902  -0.048   9.090 -0.0618  0.4731  0.3434
  111OSM   H16S11489   3.970  -0.109   9.027 -1.8481 -1.2993  0.0468
  111OSM   H16T11490   3.929   0.059   9.075 -3.2189  1.4448  0.9123
  111OSM   C17S11491   3.755  -0.064   9.050 -0.0628  0.0316 -0.7043
  111OSM   H17S11492   3.693   0.023   9.082 -0.8027 -0.8810  0.4510
  111OSM   H17T11493   3.719  -0.151   9.109  2.6259  0.5474  1.9262
  111OSM   C18S11494   3.740  -0.080   8.899 -0.0168 -0.4324 -0.4760
  111OSM   H18S11495   3.804  -0.162   8.859  0.5847 -0.6817  0.9447
  111OSM   H18T11496   3.758   0.014   8.844 -2.8183 -0.9612 -2.5460
  111OSM   H18U11497   3.632  -0.100   8.882 -0.2398 -0.5909  0.9637
  111OSM    C1F11498   4.623   0.086  10.249  0.0998 -0.3200 -1.1067
  111OSM     OF11499   4.713   0.004  10.271  0.0888 -0.2830 -0.1089
  111OSM    C2F11500   4.619   0.180  10.131  0.0441  0.2479 -0.8821
  111OSM    H2F11501   4.672   0.272  10.164  1.1435 -0.8279  0.4902
  111OSM    H2G11502   4.509   0.192  10.118  0.1490  1.0996 -1.0200
  111OSM    C3F11503   4.672   0.112  10.003  0.0671 -0.0979  0.2778
  111OSM    H3F11504   4.613   0.028   9.961  0.5295  0.6653 -2.0361
  111OSM    H3G11505   4.778   0.085  10.022  0.1068 -1.8618 -1.9835
  111OSM    C4F11506   4.686   0.216   9.890  0.4029 -0.5147  0.6457
  111OSM    H4F11507   4.738   0.308   9.925 -0.9627  0.0249  1.3003
  111OSM    H4G11508   4.583   0.249   9.865  1.0527  0.4650 -0.8571
  111OSM    C5F11509   4.752   0.155   9.762  0.3791  0.2625 -0.9910
  111OSM    H5F11510   4.709   0.056   9.738 -0.3461  0.3215 -0.0105
  111OSM    H5G11511   4.862   0.147   9.776  0.3221  0.1073 -0.6089
  111OSM    C6F11512   4.740   0.240   9.637 -0.3255  0.5495  0.0315
  111OSM    H6F11513   4.772   0.339   9.677 -0.7649  0.9048 -0.4796
  111OSM    H6G11514   4.639   0.249   9.593 -0.4816  2.8515  0.7211
  111OSM    C7F11515   4.831   0.203   9.526 -0.6926  0.0849 -0.0032
  111OSM    H7F11516   4.786   0.108   9.489  0.6580 -0.9002  0.7968
  111OSM    H7G11517   4.929   0.183   9.574 -1.6946 -2.9748  1.0059
  111OSM    C8F11518   4.837   0.314   9.421 -0.2391  0.3471 -0.1824
  111OSM    H8F11519   4.843   0.410   9.476 -0.2731 -0.4585  1.2695
  111OSM    H8G11520   4.733   0.326   9.383 -1.1018 -1.5721  1.3975
  111OSM    C9F11521   4.947   0.290   9.318 -0.0206 -0.9353  0.4476
  111OSM    H9F11522   5.046   0.323   9.354 -0.8355 -0.1498  2.0638
  111OSM   C10F11523   4.923   0.259   9.190  0.8765 -0.0844  0.6033
  111OSM   H10F11524   5.004   0.242   9.117 -1.5826  0.0564 -2.3738
  111OSM   C11F11525   4.789   0.224   9.134  0.1848 -0.1177  0.6288
  111OSM   H11F11526   4.712   0.204   9.211 -0.1003  0.6217  0.5460
  111OSM   H11G11527   4.803   0.131   9.073  2.2366 -0.1108  1.0063
  111OSM   C12F11528   4.711   0.314   9.034 -0.2491 -0.1690  0.2328
  111OSM   H12F11529   4.703   0.418   9.071  2.4740 -0.1338  0.9080
  111OSM   H12G11530   4.606   0.277   9.025 -0.4107  0.3742 -0.1338
  111OSM   C13F11531   4.770   0.289   8.892 -0.9626 -0.2273 -0.2036
  111OSM   H13F11532   4.766   0.179   8.876 -1.8089 -0.8960  3.7090
  111OSM   H13G11533   4.868   0.339   8.906 -0.8401  0.3147 -2.6015
  111OSM   C14F11534   4.701   0.347   8.765  0.4689  0.6413  0.2381
  111OSM   H14F11535   4.595   0.319   8.781 -0.0335  1.0324 -2.1507
  111OSM   H14G11536   4.738   0.288   8.679  2.6900  1.1614  0.7514
  111OSM   C15F11537   4.705   0.497   8.751  0.1764 -0.1354  0.2821
  111OSM   H15F11538   4.794   0.533   8.806 -0.2259 -0.0458  0.8862
  111OSM   H15G11539   4.622   0.560   8.790 -0.9787 -0.8444 -0.9466
  111OSM   C16F11540   4.724   0.538   8.609  0.0237 -0.0389  0.6630
  111OSM   H16F11541   4.641   0.513   8.540  0.7561 -0.7476  0.0198
  111OSM   H16G11542   4.810   0.492   8.556  0.1535  1.6553 -0.6863
  111OSM   C17F11543   4.745   0.692   8.613 -1.0351 -0.3253 -0.1037
  111OSM   H17F11544   4.812   0.723   8.696 -0.2038 -0.4222 -0.7275
  111OSM   H17G11545   4.641   0.722   8.640 -0.6020 -0.7761  2.3341
  111OSM   C18F11546   4.804   0.738   8.480 -0.2505 -0.4245  0.2336
  111OSM   H18F11547   4.910   0.705   8.477 -0.0900  0.0930  0.1866
  111OSM   H18G11548   4.802   0.848   8.468 -1.0586 -0.4050  0.4598
  111OSM   H18H11549   4.756   0.682   8.397 -0.9449  0.6962 -0.1372
  112OSM      N11550   3.500   5.312  11.406 -0.2916  0.0324 -0.0324
  112OSM    C1511551   3.629   5.383  11.427  0.6108  0.1566 -0.1550
  112OSM   H15A11552   3.620   5.475  11.484  3.3462  0.9465 -0.8701
  112OSM   H15B11553   3.658   5.418  11.329 -0.5196  2.8963  0.3757
  112OSM   H15C11554   3.697   5.309  11.467 -0.9908 -0.5701  1.3865
  112OSM    C1411555   3.462   5.245  11.536  0.7665 -0.0322 -0.1308
  112OSM   H14A11556   3.438   5.317  11.612  0.3252 -2.6099  2.3340
  112OSM   H14B11557   3.543   5.184  11.573  0.4651  0.5080  1.4823
  112OSM   H14C11558   3.379   5.180  11.516  0.4548  0.2726  0.1820
  112OSM    C1311559   3.393   5.417  11.369  0.5715  0.2523  0.0881
  112OSM   H13A11560   3.414   5.452  11.269 -1.0935  2.9742  0.6067
  112OSM   H13B11561   3.396   5.506  11.430 -0.0616  0.2229  0.1640
  112OSM   H13C11562   3.298   5.367  11.365  0.9082 -0.3344 -0.6969
  112OSM    C1211563   3.524   5.207  11.297  0.1760 -0.9307  0.0746
  112OSM   H12A11564   3.433   5.149  11.302  1.0411 -2.2403  1.2361
  112OSM   H12B11565   3.599   5.141  11.336  1.5478  1.4905  1.8046
  112OSM    C1111566   3.550   5.261  11.153  0.4334  0.8151  0.2753
  112OSM   H11A11567   3.460   5.316  11.120  1.5600  2.0274 -0.8652
  112OSM   H11B11568   3.558   5.175  11.083 -2.4676  0.4504  0.2871
  112OSM      P11569   3.660   5.461  11.018 -0.1063 -0.0920 -0.1269
  112OSM    O1311570   3.538   5.545  11.034 -0.3634 -0.1331  0.3144
  112OSM    O1411571   3.789   5.526  11.000  0.7387  0.5154 -0.7500
  112OSM    O1111572   3.636   5.373  10.895  0.0983  0.2035 -0.1123
  112OSM    O1211573   3.663   5.350  11.134 -0.0966 -0.1544 -0.8778
  112OSM    C1S11574   3.524   5.366  10.804 -1.1932  0.0542  0.7375
  112OSM    H1S11575   3.453   5.450  10.818 -1.5253 -0.2412  0.8644
  112OSM    H1T11576   3.469   5.272  10.825  0.8183 -1.3957 -0.1448
  112OSM     NF11577   3.463   5.361  10.561  0.1700 -0.4307 -0.0446
  112OSM    HNF11578   3.446   5.270  10.526  1.9873 -0.3389 -1.3388
  112OSM    C2S11579   3.576   5.349  10.656 -0.1541 -0.8823 -0.2867
  112OSM    H2S11580   3.651   5.426  10.628  0.9828 -2.0757 -0.6290
  112OSM    C3S11581   3.655   5.215  10.641 -0.4701 -0.0519  0.8742
  112OSM    H3S11582   3.579   5.144  10.604  0.3711 -1.1295  1.1632
  112OSM     O311583   3.721   5.159  10.755 -0.3522  0.2480  0.4525
  112OSM    HO311584   3.688   5.218  10.823 -2.0235 -1.5252  1.2858
  112OSM    C4S11585   3.759   5.244  10.534 -0.0550  0.5598  0.2684
  112OSM    H4S11586   3.839   5.311  10.567  0.0893  0.0712  0.9297
  112OSM    C5S11587   3.754   5.199  10.407 -0.3645  0.0054  0.0592
  112OSM    H5S11588   3.666   5.149  10.364 -0.0007  0.6889 -1.5765
  112OSM    C6S11589   3.857   5.223  10.299 -0.5154  0.6897 -0.8262
  112OSM    H6S11590   3.897   5.123  10.272  1.3227  1.2057 -0.1732
  112OSM    H6T11591   3.945   5.275  10.343  0.5640  0.1608 -2.2849
  112OSM    C7S11592   3.830   5.285  10.161  0.2511  0.4177  0.5354
  112OSM    H7S11593   3.762   5.373  10.164 -0.5552 -0.2242  1.2596
  112OSM    H7T11594   3.770   5.224  10.090 -0.3605  2.9260 -1.2474
  112OSM    C8S11595   3.961   5.308  10.085  0.1639  0.0656  0.3648
  112OSM    H8S11596   4.025   5.217  10.090  0.1385 -0.0227 -0.7435
  112OSM    H8T11597   4.020   5.391  10.129 -0.2525  0.8895 -0.5992
  112OSM    C9S11598   3.922   5.326   9.935 -0.0613 -0.0118 -0.6121
  112OSM    H9S11599   3.847   5.407   9.944  1.1553  1.2009 -1.0857
  112OSM    H9T11600   3.866   5.238   9.896 -0.0892 -0.7316  0.9699
  112OSM   C10S11601   4.037   5.357   9.842 -0.6398  0.0669  0.1877
  112OSM   H10S11602   4.107   5.271   9.847  0.6243  1.1256  1.7149
  112OSM   H10T11603   4.101   5.442   9.874  1.7995 -0.9047 -1.7818
  112OSM   C11S11604   3.989   5.394   9.701  0.7527 -0.2057 -0.3788
  112OSM   H11S11605   3.969   5.503   9.705  0.0479 -0.3763  1.6828
  112OSM   H11T11606   3.889   5.351   9.679 -0.5631  1.1560  2.4180
  112OSM   C12S11607   4.096   5.369   9.595 -0.1792 -0.1222  0.0968
  112OSM   H12S11608   4.122   5.261   9.597  0.4129  0.0215  0.5353
  112OSM   H12T11609   4.187   5.431   9.610  1.3639 -2.2493  0.0374
  112OSM   C13S11610   4.047   5.394   9.448  0.6935  0.3450 -0.4843
  112OSM   H13S11611   4.004   5.496   9.448 -0.9595 -0.3158 -0.0775
  112OSM   H13T11612   3.971   5.316   9.425  0.4836  0.0730  1.0653
  112OSM   C14S11613   4.163   5.379   9.352  0.5404  0.3470  0.4344
  112OSM   H14S11614   4.183   5.270   9.363 -0.6699 -0.0108 -0.7071
  112OSM   H14T11615   4.244   5.445   9.392 -0.3913  1.1029  1.1024
  112OSM   C15S11616   4.128   5.413   9.205 -0.0854  0.4673  0.0741
  112OSM   H15S11617   4.067   5.505   9.200 -0.7090  0.1284  1.1924
  112OSM   H15T11618   4.058   5.337   9.164 -0.4483  0.6802  0.2964
  112OSM   C16S11619   4.255   5.415   9.108 -0.5885 -0.9499 -0.1503
  112OSM   H16S11620   4.248   5.332   9.035  1.7669  0.9740 -2.7768
  112OSM   H16T11621   4.336   5.403   9.183  0.4425  1.6469 -0.7595
  112OSM   C17S11622   4.276   5.545   9.020  0.1186  0.5036  0.6585
  112OSM   H17S11623   4.289   5.629   9.091 -3.0087  0.7305  1.1040
  112OSM   H17T11624   4.185   5.556   8.957 -0.6967  0.8822  1.8785
  112OSM   C18S11625   4.387   5.542   8.922 -0.6241  0.9603 -0.2889
  112OSM   H18S11626   4.378   5.458   8.851  1.4317 -1.1206  1.7513
  112OSM   H18T11627   4.487   5.525   8.968  0.9738  4.3260 -2.1246
  112OSM   H18U11628   4.397   5.645   8.880  1.7781  1.2407  0.7866
  112OSM    C1F11629   3.392   5.469  10.533  0.5044 -0.7170 -0.1419
  112OSM     OF11630   3.412   5.586  10.581 -0.1644  0.4791  0.2787
  112OSM    C2F11631   3.281   5.439  10.436 -0.2537  0.0360 -0.7886
  112OSM    H2F11632   3.188   5.474  10.486  1.9620 -0.2751  4.1307
  112OSM    H2G11633   3.272   5.329  10.421  0.6047 -0.5109  2.0995
  112OSM    C3F11634   3.310   5.512  10.301 -0.1897  0.3021 -0.3050
  112OSM    H3F11635   3.380   5.598  10.305 -1.0361  1.0110 -0.3523
  112OSM    H3G11636   3.221   5.568  10.266  1.5175  2.2355 -1.8000
  112OSM    C4F11637   3.366   5.413  10.190  0.6448  0.1523 -0.4481
  112OSM    H4F11638   3.440   5.351  10.245  2.4935  1.2583 -1.5815
  112OSM    H4G11639   3.416   5.464  10.105 -0.4356 -1.2692 -2.0115
  112OSM    C5F11640   3.256   5.326  10.124  0.3541  0.3677 -0.1251
  112OSM    H5F11641   3.200   5.263  10.198 -0.8308 -1.4151 -2.3962
  112OSM    H5G11642   3.312   5.262  10.052  1.6646  0.2922  0.9252
  112OSM    C6F11643   3.155   5.399  10.037 -0.0849  0.0662  0.3533
  112OSM    H6F11644   3.196   5.500  10.016  3.2383 -0.4363  3.3719
  112OSM    H6G11645   3.070   5.416  10.107 -0.0145  1.4634  0.1153
  112OSM    C7F11646   3.124   5.313   9.908 -0.0789  1.0628 -0.7337
  112OSM    H7F11647   3.055   5.230   9.936 -1.2890  1.2939 -2.8186
  112OSM    H7G11648   3.216   5.269   9.865 -1.0770 -2.5410  0.4095
  112OSM    C8F11649   3.049   5.383   9.798  0.1457 -0.6127 -0.0507
  112OSM    H8F11650   3.102   5.479   9.784 -1.4653  0.6376  1.8897
  112OSM    H8G11651   2.954   5.419   9.843  0.7748 -0.0097  0.8304
  112OSM    C9F11652   3.015   5.314   9.671 -0.3621  0.1224  0.4006
  112OSM    H9F11653   2.952   5.224   9.675  0.5025 -0.4635  1.0652
  112OSM   C10F11654   3.039   5.356   9.541 -1.1181 -0.0793 -0.3041
  112OSM   H10F11655   3.011   5.301   9.450  0.7901  1.5967 -2.0160
  112OSM   C11F11656   3.126   5.477   9.507 -0.0226 -0.5989  0.2826
  112OSM   H11F11657   3.226   5.471   9.555  0.3368  0.8904 -0.2204
  112OSM   H11G11658   3.076   5.566   9.552  2.9166  1.0258  0.5474
  112OSM   C12F11659   3.149   5.510   9.364 -1.0021  0.0085  0.0687
  112OSM   H12F11660   3.177   5.616   9.351 -1.2583  0.3532  1.9585
  112OSM   H12G11661   3.051   5.502   9.311 -1.4537 -0.8744  0.9924
  112OSM   C13F11662   3.245   5.409   9.293  0.1567 -0.1889 -0.1505
  112OSM   H13F11663   3.199   5.310   9.314 -1.8520  0.7391  0.0516
  112OSM   H13G11664   3.341   5.429   9.345  0.4580  0.0609 -0.7905
  112OSM   C14F11665   3.256   5.421   9.140 -0.2248 -0.9926  0.1488
  112OSM   H14F11666   3.307   5.516   9.114 -0.1880 -1.1578 -0.4036
  112OSM   H14G11667   3.157   5.409   9.093  0.7663 -1.6686 -1.8950
  112OSM   C15F11668   3.345   5.312   9.087  0.5567  0.3525 -0.2096
  112OSM   H15F11669   3.301   5.213   9.115 -0.8397  0.4196 -2.0139
  112OSM   H15G11670   3.446   5.330   9.131  1.2693  0.9170 -1.9806
  112OSM   C16F11671   3.364   5.328   8.937  0.7181 -0.3840 -0.1151
  112OSM   H16F11672   3.366   5.430   8.892  0.4127 -1.1035 -1.8444
  112OSM   H16G11673   3.267   5.281   8.910 -0.8094  0.7695  2.8986
  112OSM   C17F11674   3.482   5.243   8.889  0.9009  0.0020  0.0222
  112OSM   H17F11675   3.579   5.280   8.927  0.7350 -1.2534  1.7727
  112OSM   H17G11676   3.495   5.257   8.779 -0.5951 -0.8830 -0.2914
  112OSM   C18F11677   3.462   5.096   8.926 -0.0483 -0.7084  0.2162
  112OSM   H18F11678   3.476   5.092   9.036  1.6294  2.3225  0.2122
  112OSM   H18G11679   3.538   5.024   8.887  2.0870 -0.9540  4.2949
  112OSM   H18H11680   3.359   5.065   8.898  0.6801 -3.6609  0.4858
  113OSM      N11681   4.797   5.552  11.320  0.3875  1.0803  0.1863
  113OSM    C1511682   4.860   5.502  11.191  0.8075  0.3286 -0.4898
  113OSM   H15A11683   4.955   5.550  11.174  1.4977 -1.2303 -1.2034
  113OSM   H15B11684   4.794   5.527  11.109 -0.6828 -2.2567 -0.1847
  113OSM   H15C11685   4.879   5.396  11.197  1.4569  0.4338 -0.6681
  113OSM    C1411686   4.918   5.569  11.412  1.0595 -0.5292 -0.4301
  113OSM   H14A11687   4.986   5.644  11.373 -1.8894  1.3107 -2.4586
  113OSM   H14B11688   4.979   5.480  11.414 -1.0589 -2.0505  0.0269
  113OSM   H14C11689   4.893   5.606  11.510 -1.1384  0.1070 -1.1832
  113OSM    C1311690   4.730   5.677  11.289  0.4659 -0.8423 -0.0556
  113OSM   H13A11691   4.641   5.669  11.228 -0.7666  1.1133  1.3528
  113OSM   H13B11692   4.801   5.753  11.261  0.7209 -0.2898  1.9753
  113OSM   H13C11693   4.697   5.714  11.385  0.7726  0.1808 -0.3338
  113OSM    C1211694   4.706   5.458  11.393  0.0699 -0.4310  0.0969
  113OSM   H12A11695   4.615   5.465  11.336  1.3930 -1.5473 -2.3031
  113OSM   H12B11696   4.683   5.495  11.492  0.0489 -0.5970  0.1552
  113OSM    C1111697   4.747   5.307  11.400  0.4252  0.0952  0.3594
  113OSM   H11A11698   4.692   5.262  11.486 -2.5368 -3.2141 -2.9164
  113OSM   H11B11699   4.853   5.295  11.430  0.3728 -0.4919  0.3261
  113OSM      P11700   4.586   5.198  11.235  0.1035  0.1279 -0.1177
  113OSM    O1311701   4.544   5.082  11.318  0.0050  0.5505 -0.0946
  113OSM    O1411702   4.495   5.316  11.229  0.5558  0.0073  0.5138
  113OSM    O1111703   4.595   5.140  11.088  0.4477  0.4532  0.5169
  113OSM    O1211704   4.733   5.238  11.272  0.8956  0.5254  0.3574
  113OSM    C1S11705   4.681   5.028  11.052  1.0901 -0.1790 -0.2534
  113OSM    H1S11706   4.674   4.948  11.130 -0.5209  1.9034  1.8711
  113OSM    H1T11707   4.784   5.066  11.071  1.8321 -0.8857 -2.5829
  113OSM     NF11708   4.661   4.832  10.910 -0.0621 -0.0432 -0.2345
  113OSM    HNF11709   4.749   4.791  10.891  1.3140  1.4418  2.3999
  113OSM    C2S11710   4.656   4.978  10.914  0.6883 -0.0473  0.0684
  113OSM    H2S11711   4.554   5.004  10.879  0.7809 -0.2843 -0.3828
  113OSM    C3S11712   4.751   5.058  10.823  0.8370  0.0448  0.9375
  113OSM    H3S11713   4.852   5.029  10.857  1.5135  1.1078 -0.0599
  113OSM     O311714   4.730   5.198  10.823  0.5687  0.5151  0.1675
  113OSM    HO311715   4.668   5.199  10.897  0.0930 -1.2470 -0.1590
  113OSM    C4S11716   4.732   4.996  10.687  0.2190  0.3180  0.4347
  113OSM    H4S11717   4.802   4.912  10.675  1.4335  1.3018  0.4031
  113OSM    C5S11718   4.650   5.035  10.584 -0.4470 -0.2102 -0.5725
  113OSM    H5S11719   4.598   5.131  10.595  0.1534  0.1683 -0.9653
  113OSM    C6S11720   4.632   4.976  10.448 -0.4892  0.2872 -0.8079
  113OSM    H6S11721   4.619   5.059  10.375  0.2010  1.5639  0.4924
  113OSM    H6T11722   4.551   4.900  10.436  0.1350 -0.2718 -1.5586
  113OSM    C7S11723   4.755   4.902  10.384 -0.6800  0.0019 -0.6606
  113OSM    H7S11724   4.782   4.819  10.453 -2.4362 -0.1847 -0.1413
  113OSM    H7T11725   4.842   4.970  10.374  0.8143 -1.8728 -0.8933
  113OSM    C8S11726   4.720   4.858  10.247  0.5710 -0.2314  0.4482
  113OSM    H8S11727   4.694   4.946  10.185 -1.4393 -1.4445 -0.5568
  113OSM    H8T11728   4.619   4.811  10.247 -0.0100  0.9862  0.4372
  113OSM    C9S11729   4.834   4.772  10.181  0.6266 -0.5539 -0.1169
  113OSM    H9S11730   4.870   4.706  10.263 -2.1937  0.7136  2.3164
  113OSM    H9T11731   4.920   4.830  10.141 -0.1338  0.2323 -0.6440
  113OSM   C10S11732   4.766   4.699  10.067 -0.2262 -1.6018  0.6681
  113OSM   H10S11733   4.731   4.767   9.987  3.4450  0.1551  0.3693
  113OSM   H10T11734   4.675   4.644  10.099 -0.4875 -1.7884 -0.3666
  113OSM   C11S11735   4.857   4.594   9.999  0.6423  0.4552  0.2108
  113OSM   H11S11736   4.902   4.534  10.080  0.3035  0.1080  0.1408
  113OSM   H11T11737   4.934   4.653   9.944  0.6436 -0.4883 -0.8336
  113OSM   C12S11738   4.779   4.517   9.894 -0.0361  0.1407 -0.2943
  113OSM   H12S11739   4.726   4.584   9.824  0.1097 -1.7637 -2.3526
  113OSM   H12T11740   4.701   4.455   9.943  1.3462 -0.7798  0.8514
  113OSM   C13S11741   4.866   4.429   9.807 -0.7868  1.0063  0.0178
  113OSM   H13S11742   4.792   4.400   9.730 -1.5292  3.2941 -0.1831
  113OSM   H13T11743   4.910   4.344   9.864  0.2934  0.9486 -0.8599
  113OSM   C14S11744   4.994   4.492   9.743  0.5194 -0.2369 -0.3489
  113OSM   H14S11745   5.079   4.492   9.815  1.6634 -0.2857 -1.6556
  113OSM   H14T11746   4.980   4.601   9.725  3.5180  0.2611 -0.1961
  113OSM   C15S11747   5.035   4.410   9.620 -0.2423  0.2311  0.2884
  113OSM   H15S11748   4.945   4.363   9.575 -1.2060 -0.9768  3.2336
  113OSM   H15T11749   5.093   4.324   9.659 -1.6701  0.1349  2.3457
  113OSM   C16S11750   5.107   4.490   9.511 -0.6240  0.2912  0.0969
  113OSM   H16S11751   5.216   4.503   9.523  0.1824 -3.5134 -1.7191
  113OSM   H16T11752   5.052   4.585   9.491 -2.3904 -0.9937 -1.6938
  113OSM   C17S11753   5.099   4.411   9.377 -0.7958  0.6366  0.0627
  113OSM   H17S11754   4.993   4.387   9.356 -0.5764 -0.3245  0.0389
  113OSM   H17T11755   5.163   4.321   9.387 -0.8402  0.5747 -0.2059
  113OSM   C18S11756   5.147   4.483   9.258 -0.2740 -0.9816 -0.3426
  113OSM   H18S11757   5.251   4.518   9.273 -1.0566  1.9818 -1.1674
  113OSM   H18T11758   5.094   4.577   9.232 -2.2785 -2.2173 -0.9446
  113OSM   H18U11759   5.140   4.417   9.169  2.1923 -0.8915 -0.6799
  113OSM    C1F11760   4.563   4.750  10.952 -0.8661 -0.1051 -0.3639
  113OSM     OF11761   4.463   4.802  11.009  0.6144  0.1743  0.0250
  113OSM    C2F11762   4.581   4.600  10.936  0.9105  0.2445  0.2943
  113OSM    H2F11763   4.566   4.536  11.025 -0.2606 -4.5202 -2.9878
  113OSM    H2G11764   4.686   4.575  10.909  1.8164  1.6233  2.2761
  113OSM    C3F11765   4.485   4.545  10.833 -0.1468  1.1271  1.0119
  113OSM    H3F11766   4.389   4.588  10.869  0.3921  2.6598  0.6864
  113OSM    H3G11767   4.472   4.434  10.833 -1.1280  1.2231 -0.2351
  113OSM    C4F11768   4.515   4.589  10.687  0.2903  0.5959  0.8887
  113OSM    H4F11769   4.505   4.699  10.673  0.4445  0.3036 -1.9557
  113OSM    H4G11770   4.449   4.528  10.622  1.9059  0.8382 -1.0821
  113OSM    C5F11771   4.658   4.555  10.631 -0.3507  0.4436  0.2812
  113OSM    H5F11772   4.734   4.615  10.686 -0.4291  1.4392 -0.6578
  113OSM    H5G11773   4.671   4.584  10.524  0.6604 -0.5807  0.1066
  113OSM    C6F11774   4.708   4.406  10.636 -0.3371 -0.7997  0.3951
  113OSM    H6F11775   4.665   4.357  10.546  1.9530  0.0919 -1.2831
  113OSM    H6G11776   4.680   4.361  10.734  1.1569 -2.2492  0.2028
  113OSM    C7F11777   4.864   4.411  10.629  0.6419  0.3866 -0.3584
  113OSM    H7F11778   4.903   4.464  10.718 -1.0711 -0.5120  0.9868
  113OSM    H7G11779   4.894   4.463  10.535 -1.1147 -0.7705 -1.6132
  113OSM    C8F11780   4.910   4.260  10.632 -0.3636  0.5705  0.4093
  113OSM    H8F11781   4.833   4.210  10.570 -0.3017  3.5555 -2.3449
  113OSM    H8G11782   4.903   4.219  10.736  0.9487 -2.6866 -0.6496
  113OSM    C9F11783   5.054   4.245  10.583 -0.3858 -0.9089 -0.0504
  113OSM    H9F11784   5.127   4.276  10.659  1.4196  0.0162 -2.0525
  113OSM   C10F11785   5.093   4.218  10.459 -0.2768  0.6343  1.0347
  113OSM   H10F11786   5.199   4.230  10.435 -0.1160 -1.3341  0.5808
  113OSM   C11F11787   5.013   4.188  10.340 -0.1765  0.4006  0.4052
  113OSM   H11F11788   5.036   4.254  10.253  1.8124 -3.4344 -2.2330
  113OSM   H11G11789   4.905   4.197  10.366 -0.2637  2.3305 -0.3974
  113OSM   C12F11790   5.033   4.041  10.305  0.0180  0.3688  0.7185
  113OSM   H12F11791   5.140   4.013  10.315  0.9562  1.6583 -3.5938
  113OSM   H12G11792   5.008   4.031  10.197 -1.2916  0.7717  0.9617
  113OSM   C13F11793   4.952   3.936  10.380  0.4885  0.0959  0.3878
  113OSM   H13F11794   4.842   3.950  10.369  0.1826 -0.6492  2.1273
  113OSM   H13G11795   4.976   3.954  10.487  0.3368  0.0966  0.4219
  113OSM   C14F11796   4.988   3.795  10.332  0.1459  0.0686 -0.7159
  113OSM   H14F11797   4.957   3.725  10.412 -2.3512  1.3455 -0.4535
  113OSM   H14G11798   5.096   3.788  10.312  0.4859 -0.0210  0.9573
  113OSM   C15F11799   4.899   3.749  10.213 -0.5541  0.0726 -0.0444
  113OSM   H15F11800   4.910   3.831  10.139  3.0772  0.6392  0.9205
  113OSM   H15G11801   4.796   3.752  10.256  0.3778  0.2839  2.3063
  113OSM   C16F11802   4.949   3.627  10.132  0.1723  0.5384 -0.3851
  113OSM   H16F11803   4.970   3.536  10.191  0.7339  0.5028 -0.6314
  113OSM   H16G11804   5.040   3.646  10.069  0.4704 -2.7478 -1.1073
  113OSM   C17F11805   4.841   3.571  10.046 -0.0093  0.1543  0.6763
  113OSM   H17F11806   4.782   3.652   9.999 -0.5241 -0.2928  0.5354
  113OSM   H17G11807   4.764   3.524  10.111  2.6167 -1.1320  3.0810
  113OSM   C18F11808   4.890   3.470   9.941 -0.2635 -0.5548 -0.6238
  113OSM   H18F11809   4.971   3.506   9.875  1.1121 -0.8277  0.8514
  113OSM   H18G11810   4.805   3.447   9.874  0.8666  3.0727 -3.6176
  113OSM   H18H11811   4.927   3.372   9.980  3.3535  0.9468  0.1721
  114OSM      N11812   5.304   3.094  11.875  0.5720 -0.0936  0.5249
  114OSM    C1511813   5.388   3.210  11.901 -0.3649 -0.0368  0.4541
  114OSM   H15A11814   5.417   3.222  12.004 -1.2786 -0.7173  0.8044
  114OSM   H15B11815   5.357   3.296  11.844  3.6725  1.5156  0.2612
  114OSM   H15C11816   5.485   3.200  11.853 -1.5266 -0.1658 -1.9999
  114OSM    C1411817   5.372   2.967  11.891  0.2684  0.5740 -0.1056
  114OSM   H14A11818   5.418   2.959  11.988  2.6451  0.5940 -1.1706
  114OSM   H14B11819   5.447   2.966  11.813 -0.7959 -2.1223 -1.1876
  114OSM   H14C11820   5.309   2.880  11.881  0.2896  0.7114 -1.6700
  114OSM    C1311821   5.180   3.099  11.963  0.3665 -0.1771 -0.1996
  114OSM   H13A11822   5.208   3.133  12.062 -1.4209  0.5962  0.0641
  114OSM   H13B11823   5.135   3.002  11.975 -0.0706 -0.1053 -1.1601
  114OSM   H13C11824   5.119   3.175  11.917 -0.0872  0.8286  1.9846
  114OSM    C1211825   5.258   3.099  11.722  0.6920 -0.6798 -1.0573
  114OSM   H12A11826   5.207   3.191  11.698 -0.1426 -1.4380 -2.2947
  114OSM   H12B11827   5.195   3.015  11.700 -0.3596 -0.2955  0.3044
  114OSM    C1111828   5.373   3.109  11.615  0.2400 -0.2951  0.7427
  114OSM   H11A11829   5.453   3.178  11.650  0.8827 -0.1270 -0.9529
  114OSM   H11B11830   5.335   3.150  11.519 -1.7590  1.5436  2.2320
  114OSM      P11831   5.536   2.959  11.479  0.1175  0.2652 -0.0636
  114OSM    O1311832   5.666   3.020  11.502  0.9164 -0.6810  0.1563
  114OSM    O1411833   5.539   2.816  11.451  0.1202  0.1028  0.0291
  114OSM    O1111834   5.477   3.030  11.358  0.5351  0.0159  0.5512
  114OSM    O1211835   5.424   2.980  11.593 -0.2058 -0.1435 -0.2262
  114OSM    C1S11836   5.404   2.966  11.255  0.7036  1.2653 -0.1664
  114OSM    H1S11837   5.324   2.903  11.299  1.2633  0.9750  0.4545
  114OSM    H1T11838   5.477   2.891  11.216  0.6779  0.2739  1.5943
  114OSM     NF11839   5.254   2.969  11.052 -0.0532 -0.8227  0.0036
  114OSM    HNF11840   5.300   2.899  10.999  0.1657 -2.0400  1.6948
  114OSM    C2S11841   5.343   3.054  11.141  0.0143  0.1339 -0.7853
  114OSM    H2S11842   5.284   3.135  11.188  0.3873  0.9877 -1.7481
  114OSM    C3S11843   5.459   3.125  11.068 -0.8477 -0.1315  0.1863
  114OSM    H3S11844   5.519   3.048  11.014  0.8205  0.2010  1.5052
  114OSM     O311845   5.552   3.187  11.157 -0.0146  0.2220  0.1204
  114OSM    HO311846   5.540   3.127  11.231  0.3971 -1.5587 -1.1859
  114OSM    C4S11847   5.386   3.228  10.989 -0.2003  0.1448  0.4493
  114OSM    H4S11848   5.334   3.305  11.047 -0.6926  0.4000 -0.3090
  114OSM    C5S11849   5.390   3.238  10.856  0.1445 -0.2236  0.4587
  114OSM    H5S11850   5.440   3.162  10.794 -1.2369 -1.4765  0.8304
  114OSM    C6S11851   5.315   3.349  10.781 -0.0536 -0.0716  0.5240
  114OSM    H6S11852   5.280   3.431  10.847 -0.4212 -0.7907  1.2346
  114OSM    H6T11853   5.236   3.305  10.717 -0.5670  1.6679 -0.0843
  114OSM    C7S11854   5.398   3.427  10.691 -0.3801 -0.0870  0.9837
  114OSM    H7S11855   5.488   3.463  10.745  1.9651 -2.0954 -1.3450
  114OSM    H7T11856   5.342   3.512  10.647  1.3736  0.7019  0.1913
  114OSM    C8S11857   5.446   3.354  10.563  0.4267 -0.2826 -1.1412
  114OSM    H8S11858   5.476   3.252  10.595  0.5127  0.1559  0.2414
  114OSM    H8T11859   5.529   3.411  10.517  1.7307 -0.0580  1.3016
  114OSM    C9S11860   5.336   3.350  10.453  0.7346  0.4700 -0.1526
  114OSM    H9S11861   5.293   3.448  10.424  0.0020  0.2174  0.0788
  114OSM    H9T11862   5.251   3.299  10.502  1.9443  0.4874  2.1023
  114OSM   C10S11863   5.369   3.268  10.327 -0.3013  0.7305 -0.4544
  114OSM   H10S11864   5.437   3.183  10.348  0.7112  1.8294  0.9537
  114OSM   H10T11865   5.434   3.335  10.266  2.1340  0.4450  1.6714
  114OSM   C11S11866   5.245   3.205  10.265  0.7902  0.7800 -0.5778
  114OSM   H11S11867   5.171   3.288  10.269 -0.7985 -0.6315  0.4858
  114OSM   H11T11868   5.205   3.128  10.334  0.0388 -0.1876 -2.0437
  114OSM   C12S11869   5.273   3.154  10.124 -0.3985 -0.0079  0.3227
  114OSM   H12S11870   5.257   3.044  10.135  1.9549 -0.3269  1.2550
  114OSM   H12T11871   5.382   3.173  10.108 -0.4420  1.4824  1.6228
  114OSM   C13S11872   5.189   3.226  10.018 -0.6549  0.3418  0.2544
  114OSM   H13S11873   5.200   3.336  10.031 -0.3462  0.1708  1.5892
  114OSM   H13T11874   5.083   3.205  10.043 -1.3619  0.6385 -2.2945
  114OSM   C14S11875   5.204   3.179   9.869  0.1574 -0.7288 -0.9260
  114OSM   H14S11876   5.211   3.069   9.854 -2.6035 -1.1688  0.4042
  114OSM   H14T11877   5.296   3.234   9.837  0.2742 -0.9158 -0.9168
  114OSM   C15S11878   5.082   3.211   9.778  0.3678  0.0432  0.2090
  114OSM   H15S11879   5.083   3.322   9.770 -1.5450  0.1207  0.6437
  114OSM   H15T11880   4.987   3.172   9.819  1.5719  0.3348  3.6307
  114OSM   C16S11881   5.080   3.153   9.632 -0.4248  0.2857  0.1244
  114OSM   H16S11882   5.056   3.046   9.648 -1.6907  0.6308  0.7137
  114OSM   H16T11883   5.181   3.167   9.590 -0.3298 -0.5567  0.0560
  114OSM   C17S11884   4.974   3.223   9.545 -0.2956  0.2335  0.0619
  114OSM   H17S11885   5.001   3.330   9.536  0.6069  0.0276  0.1747
  114OSM   H17T11886   4.879   3.211   9.600  0.4563 -0.3291  1.2672
  114OSM   C18S11887   4.957   3.159   9.406  0.7825  0.3305 -0.3180
  114OSM   H18S11888   4.962   3.049   9.417  1.1357  0.4546  0.8237
  114OSM   H18T11889   5.049   3.173   9.345  2.3042 -0.9944  1.5634
  114OSM   H18U11890   4.857   3.181   9.362 -0.4785  0.7970  2.5335
  114OSM    C1F11891   5.125   2.960  11.078 -0.5118  1.2406  0.6846
  114OSM     OF11892   5.074   3.012  11.175 -0.0837  0.3730 -0.0550
  114OSM    C2F11893   5.043   2.867  10.986  0.0417 -0.5867 -0.3811
  114OSM    H2F11894   5.017   2.785  11.057 -0.4204  0.4444  0.6758
  114OSM    H2G11895   5.096   2.821  10.900 -1.8378 -1.4322 -1.1642
  114OSM    C3F11896   4.915   2.936  10.944  0.7296  0.0198 -0.0682
  114OSM    H3F11897   4.859   2.977  11.030 -2.3940  2.0166 -2.8120
  114OSM    H3G11898   4.863   2.852  10.894  0.6180  0.6756 -1.0796
  114OSM    C4F11899   4.937   3.053  10.853  0.3712 -0.4159 -0.2839
  114OSM    H4F11900   4.978   3.135  10.917 -0.8235 -0.4505  0.5473
  114OSM    H4G11901   4.838   3.085  10.813  0.5229  0.6710  0.1655
  114OSM    C5F11902   5.035   3.032  10.736 -0.6267 -0.4603 -0.6013
  114OSM    H5F11903   5.137   3.010  10.773 -0.6193  0.3665 -0.1060
  114OSM    H5G11904   5.032   3.124  10.673 -0.7852 -0.2851 -0.3371
  114OSM    C6F11905   5.000   2.905  10.652 -0.9883  0.2446  0.3266
  114OSM    H6F11906   4.889   2.892  10.651 -1.0543  0.7949  0.4455
  114OSM    H6G11907   5.034   2.811  10.700 -2.4572 -1.3921 -1.6200
  114OSM    C7F11908   5.055   2.913  10.501  0.0191  0.4922  0.1751
  114OSM    H7F11909   5.159   2.878  10.483  0.0555 -0.3013  1.8220
  114OSM    H7G11910   5.057   3.021  10.474 -0.7339  0.4420 -0.1002
  114OSM    C8F11911   4.967   2.837  10.402 -0.3931 -0.8047 -0.2960
  114OSM    H8F11912   4.985   2.867  10.296 -1.8953 -3.2337 -1.3248
  114OSM    H8G11913   4.864   2.864  10.431  0.2781  0.1350  1.3663
  114OSM    C9F11914   4.993   2.684  10.404  0.6109 -0.5792  0.3525
  114OSM    H9F11915   5.099   2.658  10.416  0.5114 -1.1705 -0.0491
  114OSM   C10F11916   4.901   2.588  10.384 -0.0652 -0.5622  0.1368
  114OSM   H10F11917   4.924   2.483  10.360 -2.6047 -0.6302 -2.6287
  114OSM   C11F11918   4.751   2.603  10.370 -0.2173  0.9406 -0.6721
  114OSM   H11F11919   4.691   2.665  10.441 -0.9533  0.4603 -0.8635
  114OSM   H11G11920   4.711   2.500  10.373 -0.3488  0.9008 -2.6493
  114OSM   C12F11921   4.719   2.659  10.230  0.1934  0.2304 -0.1041
  114OSM   H12F11922   4.737   2.768  10.213  2.0086 -0.0910 -0.3493
  114OSM   H12G11923   4.612   2.632  10.212 -0.2682  0.9242  1.3799
  114OSM   C13F11924   4.788   2.578  10.118  0.2563  0.0631  0.4265
  114OSM   H13F11925   4.788   2.470  10.143  0.7661  0.2189  1.1554
  114OSM   H13G11926   4.894   2.614  10.114 -0.0332  0.9107 -0.1422
  114OSM   C14F11927   4.720   2.603   9.981 -0.1259 -0.6903  0.0457
  114OSM   H14F11928   4.717   2.712   9.959 -0.9385 -0.9626 -1.3057
  114OSM   H14G11929   4.614   2.576  10.000 -0.7371  0.5661 -1.3722
  114OSM   C15F11930   4.767   2.516   9.861 -0.7907 -0.3240 -0.1388
  114OSM   H15F11931   4.698   2.528   9.775  0.2523 -0.6068 -1.0390
  114OSM   H15G11932   4.767   2.410   9.894  1.1716  0.2085  1.8625
  114OSM   C16F11933   4.907   2.542   9.813 -0.6903 -0.6388  0.0129
  114OSM   H16F11934   4.986   2.529   9.890  0.4014  3.0233 -0.3305
  114OSM   H16G11935   4.926   2.644   9.774  1.1210  0.3213  3.1311
  114OSM   C17F11936   4.937   2.454   9.690  0.8829  0.0562  0.2582
  114OSM   H17F11937   4.872   2.367   9.667  1.6421 -0.7767  1.2104
  114OSM   H17G11938   5.040   2.412   9.694 -0.1835 -2.6804  1.3704
  114OSM   C18F11939   4.954   2.543   9.564 -0.5060  0.7641 -0.1498
  114OSM   H18F11940   5.000   2.497   9.475  0.8575  0.6157  0.5929
  114OSM   H18G11941   5.021   2.630   9.585  2.8956 -1.6607 -0.1708
  114OSM   H18H11942   4.854   2.574   9.528 -1.4463  0.0004  1.6310
  115OSM      N11943   1.070   0.540   6.127 -0.5175 -0.8495  0.1550
  115OSM    C1511944   0.925   0.535   6.082  0.0093  0.0237  0.2305
  115OSM   H15A11945   0.888   0.637   6.078 -0.5721 -0.1187  1.3627
  115OSM   H15B11946   0.859   0.470   6.139 -2.8501  0.8717 -1.8603
  115OSM   H15C11947   0.934   0.492   5.984  0.9951  0.6967  0.0112
  115OSM    C1411948   1.127   0.406   6.122  0.1166  0.4975 -0.1992
  115OSM   H14A11949   1.226   0.405   6.165  0.7895  3.3229 -1.4256
  115OSM   H14B11950   1.144   0.363   6.024 -0.2500  0.0311 -0.0606
  115OSM   H14C11951   1.061   0.344   6.180 -0.0185  1.9633  1.2889
  115OSM    C1311952   1.165   0.624   6.048  0.5466 -0.3892 -0.6404
  115OSM   H13A11953   1.170   0.583   5.948 -0.4677 -0.7354 -0.5600
  115OSM   H13B11954   1.258   0.648   6.097  0.6922 -1.0734 -0.5697
  115OSM   H13C11955   1.121   0.720   6.026 -0.5962 -1.1593 -1.8659
  115OSM    C1211956   1.062   0.592   6.275  0.1437 -0.2955  0.0298
  115OSM   H12A11957   0.999   0.520   6.326 -2.0773  0.0021 -2.1291
  115OSM   H12B11958   1.019   0.691   6.278  0.4449 -0.1807  0.9490
  115OSM    C1111959   1.187   0.602   6.363 -0.6224  0.7661 -0.4292
  115OSM   H11A11960   1.247   0.508   6.368 -0.3757  0.9356 -0.1119
  115OSM   H11B11961   1.147   0.613   6.466 -0.1552  2.1395 -0.3692
  115OSM      P11962   1.250   0.860   6.377 -0.1226 -0.1387  0.5117
  115OSM    O1311963   1.345   0.953   6.313 -0.2439  0.4323 -0.4814
  115OSM    O1411964   1.108   0.891   6.353  0.1574 -0.1006  0.1534
  115OSM    O1111965   1.277   0.858   6.532 -0.5694 -0.4937  0.4171
  115OSM    O1211966   1.270   0.712   6.327 -0.3082  0.4871  0.1613
  115OSM    C1S11967   1.387   0.789   6.590  0.3011  0.2189 -1.2273
  115OSM    H1S11968   1.480   0.849   6.595 -0.0811  0.7451  0.5499
  115OSM    H1T11969   1.407   0.693   6.540  1.1609 -1.1865  1.5967
  115OSM     NF11970   1.464   0.709   6.816 -0.0353 -0.4216 -0.4643
  115OSM    HNF11971   1.476   0.610   6.819  1.7705 -0.2342 -0.0061
  115OSM    C2S11972   1.350   0.759   6.744  0.4261  0.6824  0.1286
  115OSM    H2S11973   1.318   0.859   6.780 -0.8954  0.3230  0.0231
  115OSM    C3S11974   1.218   0.673   6.758 -0.2479 -0.3733 -0.1542
  115OSM    H3S11975   1.235   0.583   6.695  2.9899  1.3833 -2.0480
  115OSM     O311976   1.106   0.731   6.692  0.6469  0.0945 -0.5452
  115OSM    HO311977   1.147   0.798   6.636  0.4274 -0.0439 -0.8734
  115OSM    C4S11978   1.167   0.638   6.897 -0.6479  0.4081 -0.4371
  115OSM    H4S11979   1.128   0.718   6.960  0.2995  0.7483 -0.2694
  115OSM    C5S11980   1.169   0.513   6.950  0.2035 -0.3121  0.5019
  115OSM    H5S11981   1.211   0.427   6.897  0.6985 -0.1241  0.5878
  115OSM    C6S11982   1.117   0.482   7.089 -0.2817  0.7166 -0.6028
  115OSM    H6S11983   1.147   0.379   7.118  0.9784  1.6073  1.5102
  115OSM    H6T11984   1.006   0.472   7.091 -0.4304  2.0418  1.4303
  115OSM    C7S11985   1.150   0.585   7.193  0.5188 -0.4619 -0.3835
  115OSM    H7S11986   1.087   0.675   7.180  0.2610 -0.4868  0.6322
  115OSM    H7T11987   1.259   0.609   7.194  0.2747  0.6894 -0.4042
  115OSM    C8S11988   1.112   0.527   7.331  0.8906  0.4246  0.1318
  115OSM    H8S11989   1.168   0.431   7.336 -0.7036 -0.8343 -2.9456
  115OSM    H8T11990   1.005   0.497   7.326  1.0214 -0.3724  1.6941
  115OSM    C9S11991   1.145   0.620   7.445 -0.0056 -1.1856  0.4446
  115OSM    H9S11992   1.073   0.703   7.432 -1.0875 -2.0091  1.0003
  115OSM    H9T11993   1.249   0.655   7.428 -0.4378  0.5623  1.2387
  115OSM   C10S11994   1.143   0.565   7.580 -1.0367 -0.1792 -0.6227
  115OSM   H10S11995   1.192   0.465   7.588 -1.2729 -0.2268  0.3255
  115OSM   H10T11996   1.042   0.555   7.626 -0.8682 -0.5265 -0.3148
  115OSM   C11S11997   1.218   0.665   7.679 -0.0337 -0.2561 -0.8152
  115OSM   H11S11998   1.168   0.763   7.669  0.7740  0.1068 -1.3906
  115OSM   H11T11999   1.324   0.667   7.645  0.1754 -0.3156 -0.1865
  115OSM   C12S12000   1.208   0.615   7.824 -0.3264 -0.6622  0.1556
  115OSM   H12S12001   1.246   0.511   7.829  3.2801  0.4518 -0.8978
  115OSM   H12T12002   1.101   0.627   7.850 -0.4208 -0.2498 -0.3854
  115OSM   C13S12003   1.300   0.685   7.916 -0.1576 -0.2425  0.5685
  115OSM   H13S12004   1.269   0.791   7.918 -2.4564 -0.7860 -1.3234
  115OSM   H13T12005   1.400   0.672   7.870  0.2361  4.2857 -0.2602
  115OSM   C14S12006   1.309   0.614   8.052  0.9154  0.2777 -0.4751
  115OSM   H14S12007   1.313   0.503   8.040 -0.2405  0.0824  0.7155
  115OSM   H14T12008   1.212   0.621   8.106  1.0495 -2.2484  0.2283
  115OSM   C15S12009   1.415   0.671   8.139 -0.6407  0.2600 -0.7378
  115OSM   H15S12010   1.402   0.660   8.248 -1.6923 -2.8185 -1.0882
  115OSM   H15T12011   1.410   0.782   8.127 -3.4931 -0.0128 -3.2370
  115OSM   C16S12012   1.561   0.634   8.110  0.7025  0.2972 -0.0502
  115OSM   H16S12013   1.637   0.712   8.130  0.6492  0.0720  1.0803
  115OSM   H16T12014   1.579   0.606   8.004  2.7182 -1.2654  0.6484
  115OSM   C17S12015   1.612   0.515   8.194 -0.3955  0.5248  0.1274
  115OSM   H17S12016   1.558   0.422   8.167  2.3880 -0.5363 -2.2775
  115OSM   H17T12017   1.578   0.529   8.299 -1.0623  2.1213 -0.2730
  115OSM   C18S12018   1.763   0.494   8.188 -0.3541  0.0857  0.9969
  115OSM   H18S12019   1.793   0.402   8.243 -1.2919 -0.3465  0.7984
  115OSM   H18T12020   1.819   0.583   8.226  0.8840  0.5097 -1.5549
  115OSM   H18U12021   1.793   0.478   8.082 -0.5963  0.5024  0.8619
  115OSM    C1F12022   1.566   0.790   6.850  0.6961  0.0207  0.6277
  115OSM     OF12023   1.562   0.911   6.837 -0.1175 -0.2884 -0.0538
  115OSM    C2F12024   1.692   0.722   6.891  0.1050  0.2897  0.3319
  115OSM    H2F12025   1.771   0.799   6.876 -0.2217  0.3951 -1.0265
  115OSM    H2G12026   1.724   0.645   6.818  0.3818  0.7282 -0.0200
  115OSM    C3F12027   1.703   0.679   7.042  0.5622  0.4048  0.5541
  115OSM    H3F12028   1.798   0.624   7.056  0.7568  0.3798 -0.7269
  115OSM    H3G12029   1.634   0.593   7.057  0.4848  0.5310  0.9273
  115OSM    C4F12030   1.679   0.785   7.143 -0.4275  0.1938 -0.1034
  115OSM    H4F12031   1.582   0.835   7.127 -0.6652  0.7920  2.7410
  115OSM    H4G12032   1.748   0.865   7.107 -0.7469  0.4070 -0.2452
  115OSM    C5F12033   1.690   0.741   7.287 -0.0059 -0.6563  0.1817
  115OSM    H5F12034   1.792   0.698   7.291 -0.1944 -1.0689  0.7192
  115OSM    H5G12035   1.621   0.658   7.312 -0.2307 -0.7642 -0.7495
  115OSM    C6F12036   1.664   0.866   7.375 -0.8191  0.4146  0.2433
  115OSM    H6F12037   1.556   0.892   7.370 -1.1617 -0.6787  1.4987
  115OSM    H6G12038   1.714   0.955   7.332  2.6829 -0.7450  1.5751
  115OSM    C7F12039   1.714   0.827   7.520 -0.3788  0.0603  0.5670
  115OSM    H7F12040   1.823   0.848   7.530  0.0435  0.8765 -3.8353
  115OSM    H7G12041   1.703   0.718   7.531  0.0172  0.2029  2.9034
  115OSM    C8F12042   1.633   0.903   7.625  0.4672  0.3744  0.7365
  115OSM    H8F12043   1.527   0.874   7.610  0.6790 -0.7813  1.3478
  115OSM    H8G12044   1.629   1.012   7.602  0.2895 -0.1943 -2.3972
  115OSM    C9F12045   1.681   0.869   7.761 -0.1189  0.4968 -0.6659
  115OSM    H9F12046   1.766   0.800   7.772 -1.2454 -0.6396  1.5525
  115OSM   C10F12047   1.637   0.945   7.858  0.5155 -0.4811 -0.0878
  115OSM   H10F12048   1.674   0.935   7.961  0.9139 -1.3427 -0.3040
  115OSM   C11F12049   1.531   1.053   7.846 -0.4359 -0.2052  0.3842
  115OSM   H11F12050   1.436   1.020   7.800 -0.4064  2.2339 -1.6488
  115OSM   H11G12051   1.564   1.133   7.776  0.7717  0.2249  1.3942
  115OSM   C12F12052   1.496   1.100   7.991  0.5013  0.2411 -0.1923
  115OSM   H12F12053   1.583   1.155   8.032  0.3596 -0.2206  0.7568
  115OSM   H12G12054   1.491   1.013   8.060  0.0978 -0.9012 -1.6267
  115OSM   C13F12055   1.367   1.183   8.012 -0.3682 -0.1478 -0.4957
  115OSM   H13F12056   1.291   1.118   7.962 -0.5622  0.4195 -0.9444
  115OSM   H13G12057   1.375   1.280   7.959 -1.7843 -2.5047 -5.6677
  115OSM   C14F12058   1.316   1.188   8.150 -0.0113  0.5530  0.2335
  115OSM   H14F12059   1.389   1.231   8.222  1.5566 -0.6008 -0.5981
  115OSM   H14G12060   1.302   1.080   8.173  1.0318  0.5083  0.7239
  115OSM   C15F12061   1.193   1.280   8.170  0.0380 -0.0879  0.1784
  115OSM   H15F12062   1.102   1.252   8.112 -1.2727 -1.2953  2.6719
  115OSM   H15G12063   1.206   1.390   8.160 -3.4707  0.4824  0.4626
  115OSM   C16F12064   1.146   1.263   8.321 -0.4658  0.5932  0.0457
  115OSM   H16F12065   1.242   1.266   8.377  0.4986 -0.6206 -1.4570
  115OSM   H16G12066   1.102   1.162   8.336 -3.0797  1.7396  0.8053
  115OSM   C17F12067   1.035   1.354   8.362  0.1152 -0.5214  0.1548
  115OSM   H17F12068   0.947   1.330   8.299 -0.7391  1.9681  0.3062
  115OSM   H17G12069   1.054   1.461   8.338  0.8028 -1.0338 -1.8137
  115OSM   C18F12070   1.008   1.340   8.508  0.4007  0.4267 -0.3593
  115OSM   H18F12071   0.935   1.416   8.541 -0.4330 -0.9515  1.1326
  115OSM   H18G12072   1.102   1.354   8.566  0.5222 -1.2850 -0.0836
  115OSM   H18H12073   0.966   1.241   8.536 -0.8861  1.3267  1.0195
  116OSM      N12074   6.742   4.345   6.116  0.3277 -0.0967 -0.5348
  116OSM    C1512075   6.639   4.371   6.017  0.0554 -0.4896 -0.1095
  116OSM   H15A12076   6.625   4.477   6.005  2.7333 -0.0089  0.4299
  116OSM   H15B12077   6.545   4.333   6.052  1.5879 -1.8546  2.8465
  116OSM   H15C12078   6.657   4.320   5.923 -1.4268  1.0381 -1.2769
  116OSM    C1412079   6.760   4.200   6.147 -0.2598  0.5529 -0.4726
  116OSM   H14A12080   6.841   4.167   6.211 -0.7898 -0.6518 -0.3913
  116OSM   H14B12081   6.796   4.156   6.055 -3.2927 -0.2244 -1.3849
  116OSM   H14C12082   6.670   4.148   6.174 -0.4039 -0.6384 -2.9215
  116OSM    C1312083   6.872   4.401   6.065 -0.0522  0.1147  0.2981
  116OSM   H13A12084   6.959   4.371   6.122 -0.8208 -1.2291  0.8051
  116OSM   H13B12085   6.849   4.507   6.074 -1.2132 -0.0432 -0.7254
  116OSM   H13C12086   6.896   4.381   5.962  1.6564 -0.1884  0.7111
  116OSM    C1212087   6.710   4.423   6.245 -0.3233  0.1190  0.2335
  116OSM   H12A12088   6.608   4.403   6.274  0.0087  0.5898  1.7822
  116OSM   H12B12089   6.712   4.530   6.228  1.0244  0.1889  0.6830
  116OSM    C1112090   6.795   4.390   6.366  0.1520 -0.5010 -0.0507
  116OSM   H11A12091   6.803   4.281   6.387  0.4628 -0.1333  1.8785
  116OSM   H11B12092   6.731   4.435   6.445 -0.7173 -2.5698  0.4914
  116OSM      P12093   6.961   4.585   6.413  0.1320  0.0383 -0.0923
  116OSM    O1312094   7.102   4.599   6.387 -0.2711 -0.0741 -0.1119
  116OSM    O1412095   6.869   4.690   6.358  0.5441  0.4435 -0.0713
  116OSM    O1112096   6.922   4.555   6.567  0.4356  0.0420 -0.4606
  116OSM    O1212097   6.925   4.447   6.344  0.0299 -0.6804 -0.7968
  116OSM    C1S12098   7.001   4.468   6.650 -0.0558 -0.4759  0.4658
  116OSM    H1S12099   7.105   4.506   6.644 -0.4870  0.5556 -4.2641
  116OSM    H1T12100   7.000   4.367   6.605 -1.2590  0.1549 -1.0496
  116OSM     NF12101   7.071   4.430   6.875  0.0096 -0.0720 -0.3989
  116OSM    HNF12102   7.082   4.331   6.876  2.2374  0.0927  2.1666
  116OSM    C2S12103   6.961   4.472   6.793  0.6493  0.2971 -0.4080
  116OSM    H2S12104   6.941   4.579   6.818  1.5227  0.1144  1.2593
  116OSM    C3S12105   6.837   4.383   6.827  0.1499  0.6089 -0.4633
  116OSM    H3S12106   6.871   4.278   6.819 -0.1974  0.4391  0.1872
  116OSM     O312107   6.729   4.389   6.731 -0.5441 -0.1386 -0.5406
  116OSM    HO312108   6.759   4.464   6.679  1.3878 -0.3395  0.1753
  116OSM    C4S12109   6.790   4.410   6.964 -0.7951  0.8084 -0.3082
  116OSM    H4S12110   6.831   4.339   7.036 -0.4348  2.0269  0.7197
  116OSM    C5S12111   6.701   4.494   7.021 -0.3047 -0.0735 -0.2630
  116OSM    H5S12112   6.653   4.571   6.959 -1.8579 -0.8718 -0.1087
  116OSM    C6S12113   6.671   4.516   7.166  0.3957  0.4518 -0.6950
  116OSM    H6S12114   6.576   4.465   7.195  0.8296 -0.9037 -1.5496
  116OSM    H6T12115   6.650   4.622   7.192  1.3209  0.2285  1.1469
  116OSM    C7S12116   6.776   4.461   7.262 -0.3759  0.4791  0.1059
  116OSM    H7S12117   6.879   4.492   7.233  0.8960 -2.9797  0.4850
  116OSM    H7T12118   6.778   4.351   7.247 -0.2265  0.7501 -2.2089
  116OSM    C8S12119   6.749   4.503   7.409  0.7774 -0.3375  0.1592
  116OSM    H8S12120   6.640   4.499   7.426  0.0582  0.3032 -3.5496
  116OSM    H8T12121   6.792   4.604   7.428 -0.6733  0.4148 -0.4498
  116OSM    C9S12122   6.817   4.404   7.505 -0.3049  0.3373  0.5637
  116OSM    H9S12123   6.917   4.421   7.461 -1.1061  1.1963 -0.9958
  116OSM    H9T12124   6.802   4.296   7.487 -0.7387  0.5106 -0.1723
  116OSM   C10S12125   6.806   4.434   7.645 -0.0079  0.3184  0.4442
  116OSM   H10S12126   6.707   4.399   7.680 -0.9874  4.1346  2.0055
  116OSM   H10T12127   6.801   4.543   7.666 -1.1924  0.0413  1.7098
  116OSM   C11S12128   6.905   4.354   7.735  0.6598 -0.1781 -0.2953
  116OSM   H11S12129   6.936   4.251   7.706  1.0766  0.4131 -2.0881
  116OSM   H11T12130   6.858   4.352   7.836 -0.8343 -1.3580 -0.9686
  116OSM   C12S12131   7.042   4.433   7.755 -0.3597  0.2726  0.5620
  116OSM   H12S12132   7.017   4.534   7.794  1.4373  2.0494 -2.4522
  116OSM   H12T12133   7.087   4.445   7.654  0.5948  0.3102  0.9883
  116OSM   C13S12134   7.145   4.363   7.840 -0.2533 -0.3168 -0.6771
  116OSM   H13S12135   7.199   4.289   7.777  0.1722 -0.3441 -0.2883
  116OSM   H13T12136   7.111   4.314   7.934  2.2972  2.0019  1.6639
  116OSM   C14S12137   7.257   4.459   7.891  0.1548 -0.1913 -0.1009
  116OSM   H14S12138   7.209   4.547   7.939 -1.4998  0.3319 -2.5055
  116OSM   H14T12139   7.302   4.501   7.798  0.2433  0.6572  0.3176
  116OSM   C15S12140   7.356   4.382   7.972 -0.1329  0.4544  0.2785
  116OSM   H15S12141   7.412   4.316   7.902 -2.4471 -1.5659  0.1949
  116OSM   H15T12142   7.295   4.318   8.040  0.1431 -0.2516 -0.1282
  116OSM   C16S12143   7.463   4.459   8.054  0.1096  0.0250 -0.1017
  116OSM   H16S12144   7.412   4.511   8.138 -3.9575 -1.4968 -1.3835
  116OSM   H16T12145   7.528   4.528   7.997  0.5326  0.0302  0.3886
  116OSM   C17S12146   7.542   4.363   8.139 -0.6777  0.0649 -0.4348
  116OSM   H17S12147   7.606   4.298   8.075 -0.9095 -2.9929  2.1987
  116OSM   H17T12148   7.475   4.288   8.185 -0.8034 -0.1082 -0.8886
  116OSM   C18S12149   7.633   4.438   8.242 -0.4864  0.4907  0.1340
  116OSM   H18S12150   7.570   4.491   8.317 -2.6552 -0.2438 -1.0818
  116OSM   H18T12151   7.689   4.520   8.193  0.6788  0.2099  0.9346
  116OSM   H18U12152   7.701   4.369   8.297  1.0804  0.0942 -2.1790
  116OSM    C1F12153   7.170   4.521   6.910  0.5600 -0.2780  0.2031
  116OSM     OF12154   7.153   4.640   6.883  0.0460 -0.1699  0.5184
  116OSM    C2F12155   7.298   4.471   6.977  0.3975 -0.2657 -0.2848
  116OSM    H2F12156   7.370   4.555   6.986 -0.7417  0.5910  1.3891
  116OSM    H2G12157   7.350   4.393   6.918  3.3413  1.8559 -0.7155
  116OSM    C3F12158   7.266   4.416   7.120 -0.1366 -0.1069 -0.0039
  116OSM    H3F12159   7.347   4.349   7.158 -1.0932 -0.6816  1.0746
  116OSM    H3G12160   7.181   4.346   7.110 -1.8320  1.8315  0.2532
  116OSM    C4F12161   7.232   4.527   7.222  0.2827 -0.2336  0.0842
  116OSM    H4F12162   7.138   4.580   7.194  0.4430 -1.1728 -2.4610
  116OSM    H4G12163   7.307   4.609   7.215  0.6983 -0.5055  1.1704
  116OSM    C5F12164   7.210   4.472   7.362 -0.3982  0.0270  0.1648
  116OSM    H5F12165   7.144   4.384   7.346 -0.5580  0.1845 -0.0427
  116OSM    H5G12166   7.169   4.550   7.430 -1.1874  0.2206 -0.5154
  116OSM    C6F12167   7.331   4.408   7.427  0.0273  0.3970  0.1476
  116OSM    H6F12168   7.386   4.343   7.356  1.1657  0.6122  0.8185
  116OSM    H6G12169   7.299   4.339   7.508  1.0215  0.2592  0.4351
  116OSM    C7F12170   7.422   4.516   7.474 -0.7422  0.1714  0.0063
  116OSM    H7F12171   7.384   4.563   7.567 -0.6001 -0.6150  0.4797
  116OSM    H7G12172   7.424   4.603   7.406  0.7636  0.5737  0.5338
  116OSM    C8F12173   7.563   4.468   7.495  0.1943  0.6144  0.2493
  116OSM    H8F12174   7.585   4.405   7.406 -0.1338  1.2199 -0.2670
  116OSM    H8G12175   7.560   4.397   7.581  0.5956 -0.5596 -0.6629
  116OSM    C9F12176   7.659   4.581   7.525  0.1077  0.0179 -0.4246
  116OSM    H9F12177   7.670   4.660   7.450  1.2402 -0.7781 -1.1196
  116OSM   C10F12178   7.722   4.612   7.638  0.2347 -0.5731 -0.2015
  116OSM   H10F12179   7.797   4.691   7.650  0.7116 -0.5218 -2.8756
  116OSM   C11F12180   7.710   4.542   7.773 -0.1156 -0.1673  0.0658
  116OSM   H11F12181   7.675   4.436   7.767  0.5587 -0.3953  0.1143
  116OSM   H11G12182   7.637   4.597   7.838 -0.3222 -0.0768 -0.2398
  116OSM   C12F12183   7.848   4.556   7.843 -0.3235 -0.1072 -0.0746
  116OSM   H12F12184   7.882   4.661   7.850  1.2111 -0.4707 -1.4512
  116OSM   H12G12185   7.918   4.507   7.772  1.5292  1.7257  0.4085
  116OSM   C13F12186   7.848   4.490   7.981 -0.3408 -0.0464  0.0118
  116OSM   H13F12187   7.788   4.396   7.975  0.9331 -0.8035 -2.2976
  116OSM   H13G12188   7.786   4.560   8.040 -1.8599 -0.6249 -0.8534
  116OSM   C14F12189   7.982   4.480   8.053  0.3989  0.2883  0.1909
  116OSM   H14F12190   8.052   4.566   8.052 -0.1473  0.7277 -0.6815
  116OSM   H14G12191   8.041   4.404   7.998  0.3296  0.0333  0.4630
  116OSM   C15F12192   7.976   4.439   8.199  0.0409 -0.1115  0.2772
  116OSM   H15F12193   8.072   4.397   8.236  1.3457  0.1778 -2.4995
  116OSM   H15G12194   7.904   4.359   8.228 -0.2396  0.4278  1.0982
  116OSM   C16F12195   7.953   4.558   8.294 -0.1163 -1.0162  0.0869
  116OSM   H16F12196   7.864   4.611   8.256 -0.2451 -1.3778 -0.1129
  116OSM   H16G12197   8.044   4.622   8.284  0.3589 -1.1348  2.8278
  116OSM   C17F12198   7.924   4.510   8.434  0.0068  0.1559  0.6226
  116OSM   H17F12199   7.849   4.429   8.436 -0.0579  0.0620 -2.0713
  116OSM   H17G12200   7.884   4.595   8.493 -0.7481  1.1348 -1.2262
  116OSM   C18F12201   8.051   4.463   8.504 -0.1345  0.0894 -0.3353
  116OSM   H18F12202   8.094   4.371   8.458 -1.1269 -0.2886 -0.5350
  116OSM   H18G12203   8.029   4.457   8.613 -0.8067  1.2460 -0.3918
  116OSM   H18H12204   8.127   4.544   8.501 -0.5833  0.5239 -0.0328
  117OSM      N12205   5.268   6.224   6.327  0.0622 -0.4884 -0.4653
  117OSM    C1512206   5.183   6.324   6.258 -0.2180  0.1234 -0.0829
  117OSM   H15A12207   5.187   6.420   6.308  0.9744  0.3909 -0.6333
  117OSM   H15B12208   5.082   6.288   6.250 -0.3836  0.0022  2.1321
  117OSM   H15C12209   5.213   6.339   6.155 -1.7821 -0.6672 -0.6832
  117OSM    C1412210   5.253   6.085   6.271  0.1520 -0.5773 -0.6218
  117OSM   H14A12211   5.284   6.077   6.168 -0.4288  1.3525 -0.9813
  117OSM   H14B12212   5.146   6.066   6.271  0.3051 -1.4874 -0.0293
  117OSM   H14C12213   5.298   6.016   6.341 -1.9547 -2.6985 -1.1958
  117OSM    C1312214   5.410   6.268   6.319 -0.0171  0.1079  0.2145
  117OSM   H13A12215   5.457   6.229   6.229 -0.9590 -1.2576  0.2705
  117OSM   H13B12216   5.473   6.232   6.399 -1.9058  0.5538  1.9673
  117OSM   H13C12217   5.422   6.373   6.337 -1.2801 -0.1099  2.8389
  117OSM    C1212218   5.229   6.223   6.469  0.4563 -0.2834 -0.5233
  117OSM   H12A12219   5.137   6.173   6.495  1.4814 -0.3497  3.7865
  117OSM   H12B12220   5.240   6.324   6.507  0.9212 -0.9030  1.0836
  117OSM    C1112221   5.315   6.143   6.578 -0.1228 -0.1367 -0.0428
  117OSM   H11A12222   5.272   6.161   6.679 -2.0341 -0.8240 -0.6983
  117OSM   H11B12223   5.412   6.198   6.569  1.0353 -2.2880 -1.8923
  117OSM      P12224   5.435   5.915   6.607 -0.1653 -0.2266 -0.1175
  117OSM    O1312225   5.393   5.776   6.561 -0.2387 -0.2854 -0.5004
  117OSM    O1412226   5.569   5.962   6.560  0.4949 -0.0570 -0.4194
  117OSM    O1112227   5.414   5.925   6.762  0.2660  0.0650  0.1851
  117OSM    O1212228   5.318   6.005   6.548 -0.1694 -0.2581  0.4720
  117OSM    C1S12229   5.489   6.007   6.843 -0.4223 -0.6380 -0.0325
  117OSM    H1S12230   5.456   6.113   6.835  0.2406 -0.3384  0.9961
  117OSM    H1T12231   5.596   6.000   6.815 -0.4914 -0.3832 -0.3705
  117OSM     NF12232   5.578   6.021   7.076  0.3951 -0.3016 -0.1495
  117OSM    HNF12233   5.658   5.961   7.082  1.4018  0.7713 -2.0075
  117OSM    C2S12234   5.467   5.968   6.994 -0.5165 -0.5883  0.0007
  117OSM    H2S12235   5.372   6.016   7.025 -1.6010 -1.5025 -1.7291
  117OSM    C3S12236   5.450   5.820   7.003  0.0871  0.8205  0.1224
  117OSM    H3S12237   5.535   5.766   6.955 -0.0539 -0.5651  1.3475
  117OSM     O312238   5.325   5.768   6.944 -0.4863  0.3722 -0.0713
  117OSM    HO312239   5.293   5.842   6.893 -1.2166  0.5957  0.7051
  117OSM    C4S12240   5.456   5.776   7.152 -0.1104 -0.1027  0.7437
  117OSM    H4S12241   5.560   5.750   7.173  0.4224  0.8501 -0.5383
  117OSM    C5S12242   5.349   5.752   7.232 -0.1695 -0.7947  0.2077
  117OSM    H5S12243   5.247   5.750   7.189  1.3175 -2.5794 -3.7033
  117OSM    C6S12244   5.366   5.713   7.378  0.8350 -0.6288  0.0740
  117OSM    H6S12245   5.302   5.624   7.396 -0.0253  0.0542  0.4916
  117OSM    H6T12246   5.327   5.792   7.446 -0.6419 -0.3725 -1.0208
  117OSM    C7S12247   5.509   5.682   7.427  0.4476 -0.2337  0.7014
  117OSM    H7S12248   5.583   5.760   7.399 -1.0013  1.0316  0.2509
  117OSM    H7T12249   5.548   5.585   7.388 -0.7409 -0.6143  0.4104
  117OSM    C8S12250   5.510   5.693   7.586 -0.5347  0.2457 -0.3740
  117OSM    H8S12251   5.435   5.623   7.630  0.6074  0.7893  2.6049
  117OSM    H8T12252   5.501   5.800   7.613  2.0279  0.6365 -0.8501
  117OSM    C9S12253   5.650   5.658   7.642 -0.5727  0.1203  0.3715
  117OSM    H9S12254   5.721   5.744   7.644  0.6952 -0.8858  1.5140
  117OSM    H9T12255   5.691   5.576   7.578 -1.2784 -1.9220  2.3953
  117OSM   C10S12256   5.636   5.604   7.787 -0.5096  0.3270  0.4798
  117OSM   H10S12257   5.558   5.525   7.783 -0.3534  0.0318  2.3567
  117OSM   H10T12258   5.607   5.688   7.854 -0.4967  0.3043  0.5142
  117OSM   C11S12259   5.767   5.550   7.828 -0.9614  0.1863 -0.6456
  117OSM   H11S12260   5.838   5.628   7.792 -1.9088  0.8644 -1.0632
  117OSM   H11T12261   5.787   5.446   7.793  1.4690  0.5917 -0.6741
  117OSM   C12S12262   5.772   5.536   7.983  0.0630 -0.4983  0.5122
  117OSM   H12S12263   5.853   5.465   8.009  1.3217  0.5191 -0.4619
  117OSM   H12T12264   5.679   5.482   8.009 -0.4347  0.6780  1.2469
  117OSM   C13S12265   5.787   5.662   8.048 -0.2252 -0.2408 -0.5631
  117OSM   H13S12266   5.712   5.742   8.030 -1.2024 -0.8392  0.7123
  117OSM   H13T12267   5.885   5.704   8.016  0.5810 -0.6749  1.2126
  117OSM   C14S12268   5.792   5.643   8.194 -0.5681 -0.0933 -0.3560
  117OSM   H14S12269   5.880   5.580   8.215 -1.0215 -0.8007 -0.5563
  117OSM   H14T12270   5.707   5.579   8.226  0.1509 -0.7391  0.2991
  117OSM   C15S12271   5.813   5.763   8.281 -0.7732 -0.5904  0.2917
  117OSM   H15S12272   5.734   5.840   8.267  1.1126  1.1335 -1.3946
  117OSM   H15T12273   5.913   5.804   8.259 -0.4098 -1.2327  0.7126
  117OSM   C16S12274   5.811   5.722   8.426 -0.4642 -0.4267 -0.1185
  117OSM   H16S12275   5.872   5.631   8.443  0.4490 -0.1624 -1.7881
  117OSM   H16T12276   5.709   5.694   8.461 -0.0865 -1.3523  0.2681
  117OSM   C17S12277   5.867   5.836   8.514 -0.0731  0.7348  0.5136
  117OSM   H17S12278   5.799   5.924   8.517  1.7266  2.2154 -0.2047
  117OSM   H17T12279   5.962   5.867   8.466  0.8524 -1.7105  0.6449
  117OSM   C18S12280   5.890   5.786   8.657 -0.4892  0.0889  0.3116
  117OSM   H18S12281   5.920   5.875   8.716 -1.2883 -0.0131  0.8949
  117OSM   H18T12282   5.966   5.705   8.655 -0.1432  0.4208 -0.6197
  117OSM   H18U12283   5.789   5.765   8.700  0.4049 -0.9037  2.0361
  117OSM    C1F12284   5.577   6.144   7.126 -0.7664  0.4506  0.0910
  117OSM     OF12285   5.493   6.228   7.100  0.6343 -0.2895 -0.1439
  117OSM    C2F12286   5.694   6.174   7.230  0.3649 -0.3102 -0.2161
  117OSM    H2F12287   5.682   6.277   7.269 -1.7486 -0.3153 -0.7453
  117OSM    H2G12288   5.791   6.167   7.176  0.4287 -1.1645 -0.0141
  117OSM    C3F12289   5.691   6.071   7.348 -0.0908  0.3797 -0.0452
  117OSM    H3F12290   5.714   5.966   7.318 -1.7237 -0.3179  0.9916
  117OSM    H3G12291   5.586   6.058   7.383 -0.0739  0.2555 -0.0400
  117OSM    C4F12292   5.774   6.116   7.466  0.6117  0.6257  0.6564
  117OSM    H4F12293   5.732   6.215   7.496  0.2363  0.5521  0.3783
  117OSM    H4G12294   5.878   6.136   7.433  0.8332 -2.2798 -0.7122
  117OSM    C5F12295   5.759   6.020   7.585 -0.6568 -0.6297  0.0077
  117OSM    H5F12296   5.818   5.929   7.563 -2.3392 -1.2983 -2.0066
  117OSM    H5G12297   5.651   5.993   7.587 -1.1512  1.0755 -1.2204
  117OSM    C6F12298   5.806   6.076   7.719 -0.6467 -0.1989  0.1119
  117OSM    H6F12299   5.767   6.176   7.745  0.3539  0.1567  0.2992
  117OSM    H6G12300   5.916   6.092   7.719 -0.5818 -0.0285  3.2649
  117OSM    C7F12301   5.758   5.982   7.825 -0.3277 -0.2534  0.5395
  117OSM    H7F12302   5.796   5.880   7.800  2.9759  0.9275  0.2681
  117OSM    H7G12303   5.647   5.991   7.825 -0.3816 -0.8813  1.0600
  117OSM    C8F12304   5.813   6.032   7.960 -0.0076 -0.5528 -0.4006
  117OSM    H8F12305   5.746   5.985   8.035 -1.6357 -0.5001 -1.7447
  117OSM    H8G12306   5.809   6.142   7.973  0.6929 -0.6778  1.0531
  117OSM    C9F12307   5.952   5.992   7.987  0.5755 -0.3477  0.2848
  117OSM    H9F12308   6.008   5.948   7.903  0.4529  2.9469 -1.6705
  117OSM   C10F12309   6.023   6.031   8.101 -0.1666  0.5307  0.0630
  117OSM   H10F12310   6.125   5.994   8.120 -1.1170 -1.7141  1.2145
  117OSM   C11F12311   5.963   6.101   8.229  0.0925 -0.7737  0.0584
  117OSM   H11F12312   5.912   6.024   8.292 -0.7625  0.3870  0.8271
  117OSM   H11G12313   5.888   6.181   8.214  0.0310 -0.8737 -0.1672
  117OSM   C12F12314   6.083   6.155   8.314  0.6016  0.4305  0.1794
  117OSM   H12F12315   6.107   6.255   8.270 -2.7332  1.0355 -0.5436
  117OSM   H12G12316   6.171   6.088   8.305  1.6042  1.9161 -2.0200
  117OSM   C13F12317   6.047   6.158   8.462 -0.3962  0.1792 -0.3271
  117OSM   H13F12318   6.053   6.053   8.499  0.1290 -0.2536 -1.5565
  117OSM   H13G12319   5.943   6.195   8.468  0.0652  1.3657  0.7398
  117OSM   C14F12320   6.139   6.251   8.533 -0.0387 -0.2355  1.0068
  117OSM   H14F12321   6.130   6.357   8.503  0.5877 -0.7100 -1.0163
  117OSM   H14G12322   6.241   6.216   8.505 -0.1290  0.9585 -1.0470
  117OSM   C15F12323   6.139   6.242   8.693  0.1869 -0.3655  0.4458
  117OSM   H15F12324   6.170   6.137   8.715  3.3131  0.3730  0.1383
  117OSM   H15G12325   6.037   6.275   8.720  1.0101  1.0853  1.9408
  117OSM   C16F12326   6.244   6.325   8.765 -0.2824  0.0804  0.1002
  117OSM   H16F12327   6.203   6.333   8.868  1.1779 -0.1531  0.7325
  117OSM   H16G12328   6.260   6.426   8.722 -0.2337 -0.4270 -1.1057
  117OSM   C17F12329   6.386   6.258   8.764 -0.2944 -0.3069 -0.6141
  117OSM   H17F12330   6.387   6.155   8.807  1.2854 -0.7666 -1.6549
  117OSM   H17G12331   6.416   6.244   8.658  3.7366  0.4154  0.2644
  117OSM   C18F12332   6.494   6.345   8.830  0.6460  0.7422  0.3165
  117OSM   H18F12333   6.521   6.419   8.753 -0.4584 -0.9387 -1.7798
  117OSM   H18G12334   6.577   6.286   8.874  0.4366  0.9795  1.0562
  117OSM   H18H12335   6.437   6.398   8.910 -0.8518  1.3044 -1.0699
  118OSM      N12336   6.199   1.499   6.143 -0.2009  0.2525  0.6924
  118OSM    C1512337   6.248   1.401   6.033  0.2062 -0.6931  0.4451
  118OSM   H15A12338   6.350   1.370   6.047 -0.2163 -2.5071 -0.2117
  118OSM   H15B12339   6.234   1.440   5.933 -0.5879  0.6890  1.0545
  118OSM   H15C12340   6.182   1.316   6.039  0.7779 -1.0590  1.8884
  118OSM    C1412341   6.217   1.426   6.275 -0.0132 -0.8100  0.0588
  118OSM   H14A12342   6.173   1.496   6.344  1.5695 -0.5364  0.8118
  118OSM   H14B12343   6.318   1.413   6.311 -0.0580 -0.0353  0.4718
  118OSM   H14C12344   6.161   1.334   6.286  0.0798 -1.1184 -1.6579
  118OSM    C1312345   6.298   1.611   6.136 -0.3298 -0.4950  0.6751
  118OSM   H13A12346   6.276   1.695   6.200 -0.4906  0.3216 -0.4231
  118OSM   H13B12347   6.298   1.643   6.033  0.7021 -3.7333 -0.4757
  118OSM   H13C12348   6.402   1.583   6.150  0.1847  0.2350 -1.3303
  118OSM    C1212349   6.059   1.538   6.121  0.1194 -0.6831 -0.1428
  118OSM   H12A12350   5.995   1.452   6.130  0.3657 -0.9965 -1.2621
  118OSM   H12B12351   6.044   1.571   6.019  2.4061 -0.2603 -0.4003
  118OSM    C1112352   6.000   1.648   6.205  0.5826  0.0382  0.3535
  118OSM   H11A12353   5.898   1.677   6.172  0.8568 -0.2440 -0.7909
  118OSM   H11B12354   6.060   1.741   6.205 -0.8025  1.0087  2.5718
  118OSM      P12355   5.886   1.515   6.389  0.0497 -0.0942  0.3523
  118OSM    O1312356   5.779   1.599   6.446  0.3034 -0.1140 -0.1505
  118OSM    O1412357   5.839   1.426   6.279 -1.1037 -0.3867  0.1973
  118OSM    O1112358   5.958   1.431   6.506  0.4505  0.4773  0.1438
  118OSM    O1212359   5.995   1.610   6.342 -0.2431  0.0438 -0.0490
  118OSM    C1S12360   6.061   1.494   6.583 -0.0119  0.5596  0.3519
  118OSM    H1S12361   6.039   1.603   6.591  1.8363  0.8646  1.8505
  118OSM    H1T12362   6.161   1.476   6.539  0.4343 -0.4716  1.7255
  118OSM     NF12363   6.129   1.528   6.821  0.6071  0.7207 -0.1299
  118OSM    HNF12364   6.201   1.487   6.876  0.9091  0.6490 -0.5649
  118OSM    C2S12365   6.063   1.439   6.730 -0.1180  0.4159  0.5849
  118OSM    H2S12366   5.956   1.448   6.758  0.0233  2.9503  0.5332
  118OSM    C3S12367   6.110   1.298   6.731 -0.2618  1.1653  0.3597
  118OSM    H3S12368   6.220   1.295   6.721 -0.1998  0.3870  1.1860
  118OSM     O312369   6.057   1.206   6.634  0.2039 -0.4695  0.5742
  118OSM    HO312370   6.014   1.265   6.573 -0.7374 -0.6029  1.0880
  118OSM    C4S12371   6.081   1.240   6.876  0.3305  0.3359 -0.1508
  118OSM    H4S12372   6.167   1.265   6.940  3.7024 -2.8269 -2.9732
  118OSM    C5S12373   5.968   1.171   6.917  0.4043  0.1485 -0.7470
  118OSM    H5S12374   5.881   1.163   6.850 -0.3957 -1.0076  0.3767
  118OSM    C6S12375   5.935   1.103   7.057  0.3689 -0.3228 -0.2586
  118OSM    H6S12376   5.899   0.998   7.053  0.5888 -0.4234  0.2721
  118OSM    H6T12377   5.851   1.158   7.103  3.2484  1.2529  3.7263
  118OSM    C7S12378   6.045   1.094   7.167 -0.3728  0.3436  0.7344
  118OSM    H7S12379   6.097   1.192   7.176 -0.6546  0.6618 -0.7460
  118OSM    H7T12380   6.119   1.018   7.134 -0.0263  1.7177 -1.9556
  118OSM    C8S12381   5.983   1.062   7.304  0.1999  0.0428 -0.4880
  118OSM    H8S12382   5.924   0.969   7.294 -0.4401  0.6811 -4.4859
  118OSM    H8T12383   5.906   1.138   7.330  1.9716  1.8095 -0.1761
  118OSM    C9S12384   6.090   1.056   7.412 -0.0820 -0.0432  0.1028
  118OSM    H9S12385   6.163   1.136   7.388  0.7052 -1.1077 -1.2496
  118OSM    H9T12386   6.148   0.961   7.407 -0.6556 -0.3537 -0.9019
  118OSM   C10S12387   6.045   1.069   7.563 -0.3955  0.2427 -0.2794
  118OSM   H10S12388   5.971   0.987   7.571  1.1102 -1.2164 -0.7625
  118OSM   H10T12389   5.994   1.168   7.569 -0.0727  0.3277  1.4554
  118OSM   C11S12390   6.165   1.062   7.660 -0.0841 -0.0465 -0.3756
  118OSM   H11S12391   6.236   1.147   7.651 -1.9949  1.4827 -1.9512
  118OSM   H11T12392   6.216   0.967   7.635  1.7211  0.2208  1.9226
  118OSM   C12S12393   6.115   1.058   7.805 -0.9706  0.3729 -0.1611
  118OSM   H12S12394   6.011   1.021   7.811 -1.1735  0.8649 -0.6121
  118OSM   H12T12395   6.113   1.155   7.860  1.3208 -0.9117  2.4315
  118OSM   C13S12396   6.203   0.958   7.882  0.0483 -0.2189  0.2630
  118OSM   H13S12397   6.306   0.998   7.892 -0.2750  0.1589  3.1863
  118OSM   H13T12398   6.207   0.866   7.819  0.4945 -0.2658  0.3561
  118OSM   C14S12399   6.144   0.928   8.014 -0.6080  0.2162  0.1139
  118OSM   H14S12400   6.195   0.836   8.051 -1.5560 -0.6904 -0.7510
  118OSM   H14T12401   6.034   0.917   8.013 -0.5992 -0.2005  1.5023
  118OSM   C15S12402   6.180   1.038   8.122 -0.7535 -0.3069 -0.0332
  118OSM   H15S12403   6.108   1.123   8.118  0.8266  1.0457 -1.5751
  118OSM   H15T12404   6.276   1.082   8.089 -1.1977  0.7255  0.0025
  118OSM   C16S12405   6.187   0.976   8.261 -0.2607 -0.1044 -0.4579
  118OSM   H16S12406   6.233   1.061   8.317  2.7081 -1.7503 -0.2258
  118OSM   H16T12407   6.254   0.888   8.269 -2.5344 -2.1052 -1.8920
  118OSM   C17S12408   6.057   0.910   8.310  0.0897  0.2525 -0.9436
  118OSM   H17S12409   6.072   0.873   8.413  0.9788  0.8438 -0.8554
  118OSM   H17T12410   6.021   0.816   8.262 -1.8840 -0.5451  1.8653
  118OSM   C18S12411   5.947   1.015   8.325 -0.6973  0.8702  0.0546
  118OSM   H18S12412   5.920   1.057   8.225 -1.7767  0.7561  0.2915
  118OSM   H18T12413   5.967   1.099   8.394  0.5165  1.4619 -0.9659
  118OSM   H18U12414   5.851   0.969   8.357 -0.7516  0.6062 -0.4731
  118OSM    C1F12415   6.073   1.646   6.854  0.9402 -0.0038  0.6063
  118OSM     OF12416   5.965   1.682   6.801 -0.2830 -0.3295 -0.7386
  118OSM    C2F12417   6.137   1.733   6.959 -0.7997  0.2973  0.3759
  118OSM    H2F12418   6.240   1.759   6.926 -1.2312 -0.0064 -1.3176
  118OSM    H2G12419   6.152   1.662   7.042 -0.2598  0.0303  0.0535
  118OSM    C3F12420   6.059   1.855   6.997 -0.3053  0.4323  0.0732
  118OSM    H3F12421   5.951   1.832   7.000  0.0622 -1.6145 -0.8530
  118OSM    H3G12422   6.072   1.934   6.920  4.4907 -0.0469  0.0683
  118OSM    C4F12423   6.090   1.904   7.142 -0.2548  0.5321  0.6189
  118OSM    H4F12424   6.052   1.833   7.219 -1.5694 -0.3496 -0.7916
  118OSM    H4G12425   6.038   1.999   7.166  1.5566  1.7157  0.0739
  118OSM    C5F12426   6.237   1.941   7.174  0.7308 -0.2099 -0.3386
  118OSM    H5F12427   6.253   2.019   7.097  0.3095  0.4736  0.2495
  118OSM    H5G12428   6.308   1.858   7.154  0.2487 -0.6467 -0.2668
  118OSM    C6F12429   6.240   2.003   7.317 -0.4428 -0.5825  0.8943
  118OSM    H6F12430   6.160   2.080   7.325 -0.7203 -0.7973  0.2786
  118OSM    H6G12431   6.330   2.064   7.339  0.9289 -2.2866  0.1732
  118OSM    C7F12432   6.206   1.895   7.417 -0.8614 -0.7575 -0.3300
  118OSM    H7F12433   6.239   1.791   7.396 -1.8086 -1.2585  0.5328
  118OSM    H7G12434   6.095   1.885   7.408 -0.9954  0.7841 -0.6379
  118OSM    C8F12435   6.253   1.932   7.556 -0.2857 -0.0624  0.1297
  118OSM    H8F12436   6.216   2.035   7.574 -2.8841 -0.9315  0.1492
  118OSM    H8G12437   6.363   1.945   7.557 -0.2754 -0.1613  0.4707
  118OSM    C9F12438   6.220   1.837   7.667 -0.6055  0.7842 -0.7409
  118OSM    H9F12439   6.179   1.738   7.641 -1.5197  0.9381  0.0919
  118OSM   C10F12440   6.232   1.864   7.800 -0.1975 -0.5904  0.5736
  118OSM   H10F12441   6.214   1.788   7.877  0.1548 -0.7865  0.4671
  118OSM   C11F12442   6.279   1.996   7.860 -0.1506  0.7506 -0.1251
  118OSM   H11F12443   6.190   2.046   7.904 -0.3228  0.5655 -0.2600
  118OSM   H11G12444   6.324   2.067   7.787 -0.0603  2.1200  1.1965
  118OSM   C12F12445   6.385   1.989   7.970 -0.1035 -0.4702  0.1975
  118OSM   H12F12446   6.379   2.093   8.008 -0.9313 -0.5313  0.2362
  118OSM   H12G12447   6.478   1.978   7.910  1.2183  1.7922  1.6612
  118OSM   C13F12448   6.378   1.885   8.083 -0.6255 -0.3550  0.5644
  118OSM   H13F12449   6.375   1.788   8.030  1.3591  0.7651 -1.8052
  118OSM   H13G12450   6.287   1.895   8.145 -0.2941  0.4988  0.9235
  118OSM   C14F12451   6.507   1.887   8.170  0.2234  0.8895  0.3514
  118OSM   H14F12452   6.522   1.993   8.201 -1.3902  0.6397  2.1372
  118OSM   H14G12453   6.590   1.848   8.107  0.8174  0.2740  1.4839
  118OSM   C15F12454   6.498   1.799   8.296  0.7252 -0.3533  0.9782
  118OSM   H15F12455   6.483   1.691   8.274 -2.2930 -0.0064  0.8899
  118OSM   H15G12456   6.393   1.826   8.321  0.6691  0.8685 -0.4562
  118OSM   C16F12457   6.610   1.831   8.383 -0.2858  0.3228 -0.0578
  118OSM   H16F12458   6.613   1.942   8.381  2.6208  0.3197 -0.0099
  118OSM   H16G12459   6.715   1.804   8.356 -0.7945 -0.7146 -1.0890
  118OSM   C17F12460   6.596   1.792   8.537  0.2724  0.3176  0.1550
  118OSM   H17F12461   6.497   1.820   8.579 -0.0527 -0.4966 -0.0401
  118OSM   H17G12462   6.674   1.848   8.591  0.6130 -0.2707  0.2839
  118OSM   C18F12463   6.610   1.645   8.572  0.7601  0.0698  0.2167
  118OSM   H18F12464   6.601   1.636   8.683  0.8351  1.8282  0.3811
  118OSM   H18G12465   6.708   1.605   8.540 -0.0859 -1.4582 -0.6272
  118OSM   H18H12466   6.537   1.577   8.522  2.5090 -2.7654  1.2780
  119OSM      N12467   0.175   2.326   5.887  1.0807 -0.4210 -0.4401
  119OSM    C1512468   0.180   2.456   5.955  0.4682  0.2398  0.0296
  119OSM   H15A12469   0.117   2.470   6.041  0.0536  0.1781 -0.2587
  119OSM   H15B12470   0.148   2.540   5.896  0.4724 -0.1081 -0.4801
  119OSM   H15C12471   0.278   2.490   5.987  0.9516 -0.1197 -0.9936
  119OSM    C1412472   0.031   2.289   5.865  0.3486 -0.4116 -0.6092
  119OSM   H14A12473  -0.021   2.280   5.959 -2.5256 -2.5056 -2.2306
  119OSM   H14B12474   0.024   2.189   5.824 -1.1878 -0.6123  0.0750
  119OSM   H14C12475  -0.013   2.363   5.800 -1.5035 -0.6292  0.3255
  119OSM    C1312476   0.244   2.350   5.759 -0.7573  0.1072 -0.3039
  119OSM   H13A12477   0.198   2.434   5.709  1.1390  1.3519 -0.0731
  119OSM   H13B12478   0.230   2.256   5.706 -2.3297 -0.0877  0.4101
  119OSM   H13C12479   0.349   2.371   5.771 -0.6854  0.0087 -0.7153
  119OSM    C1212480   0.240   2.223   5.978  0.4216  0.2820  0.3596
  119OSM   H12A12481   0.180   2.213   6.066 -1.1714  1.4232 -0.5537
  119OSM   H12B12482   0.338   2.258   6.009  0.9322  0.4910 -1.3899
  119OSM    C1112483   0.263   2.079   5.923  0.0530  0.1187 -0.2630
  119OSM   H11A12484   0.326   2.076   5.832 -0.0224 -1.7665 -0.2827
  119OSM   H11B12485   0.166   2.036   5.891 -0.2588 -0.2647  1.1406
  119OSM      P12486   0.473   2.000   6.045 -0.2262 -0.1169 -0.4758
  119OSM    O1312487   0.554   1.951   5.930 -0.6759 -0.2894 -0.9788
  119OSM    O1412488   0.509   2.131   6.099  0.0516  0.3985 -0.1881
  119OSM    O1112489   0.497   1.909   6.161  0.1664 -0.4604  0.2179
  119OSM    O1212490   0.316   2.003   6.031  0.5171 -0.3287 -0.1821
  119OSM    C1S12491   0.415   1.885   6.284 -0.2572 -0.0427  0.3977
  119OSM    H1S12492   0.370   1.785   6.268 -0.9300  0.3964 -0.5157
  119OSM    H1T12493   0.332   1.954   6.308 -0.6180 -0.1250 -0.5634
  119OSM     NF12494   0.496   1.778   6.514  0.0386  0.2000  0.7093
  119OSM    HNF12495   0.471   1.804   6.607 -0.0446  0.4968  0.6064
  119OSM    C2S12496   0.521   1.878   6.407  0.1816 -0.4869 -0.3702
  119OSM    H2S12497   0.620   1.847   6.367 -0.0424 -2.0004  0.1964
  119OSM    C3S12498   0.535   2.022   6.469 -0.0014 -0.2196 -0.2918
  119OSM    H3S12499   0.442   2.033   6.529 -0.6779 -1.6672 -1.0094
  119OSM     O312500   0.526   2.133   6.371 -0.3534 -0.1928  0.2537
  119OSM    HO312501   0.519   2.092   6.285  1.1957 -0.0174  0.0239
  119OSM    C4S12502   0.654   2.025   6.555 -0.0221 -0.7033  0.3248
  119OSM    H4S12503   0.635   1.981   6.654  0.9233 -1.0066  0.3810
  119OSM    C5S12504   0.770   2.088   6.526  0.1982 -0.1247  0.1628
  119OSM    H5S12505   0.771   2.139   6.428 -3.0180  0.2707  0.2422
  119OSM    C6S12506   0.885   2.108   6.624 -0.5902  0.4727  0.1184
  119OSM    H6S12507   0.920   2.213   6.621 -1.5031  0.7715 -1.1462
  119OSM    H6T12508   0.969   2.044   6.590  0.6664  1.6416  0.9249
  119OSM    C7S12509   0.862   2.068   6.768 -0.4934 -1.1037  0.1240
  119OSM    H7S12510   0.800   1.975   6.777 -0.2853 -1.2076  0.5037
  119OSM    H7T12511   0.805   2.152   6.814  1.3204 -0.0118  0.4663
  119OSM    C8S12512   0.980   2.031   6.856 -0.3032 -0.8141  0.6067
  119OSM    H8S12513   1.050   2.117   6.846  0.7288 -1.9008 -3.0396
  119OSM    H8T12514   1.036   1.949   6.806  0.2688  0.6209 -1.2306
  119OSM    C9S12515   0.952   2.014   7.004 -0.4613 -0.1712  0.0254
  119OSM    H9S12516   0.879   1.931   6.999 -0.5973  0.0175 -2.6216
  119OSM    H9T12517   0.899   2.100   7.050  0.1317 -0.1466  0.6900
  119OSM   C10S12518   1.078   1.989   7.084 -0.1284 -0.3131 -1.0704
  119OSM   H10S12519   1.140   2.079   7.066  0.4003 -0.3452  0.4552
  119OSM   H10T12520   1.136   1.905   7.040 -0.1699 -1.1030  0.3227
  119OSM   C11S12521   1.066   1.970   7.239 -0.6136  0.6221 -0.0747
  119OSM   H11S12522   1.031   1.866   7.259 -3.1803  1.8089  2.1913
  119OSM   H11T12523   0.996   2.034   7.297 -2.0720 -0.5154 -0.5118
  119OSM   C12S12524   1.194   1.994   7.317  0.5333  0.0716 -0.8611
  119OSM   H12S12525   1.240   2.092   7.291 -0.5714  0.8417 -0.0296
  119OSM   H12T12526   1.264   1.912   7.288  2.1154  0.7513  0.8160
  119OSM   C13S12527   1.176   1.985   7.470  0.2996 -0.8358  0.4292
  119OSM   H13S12528   1.123   1.897   7.511  0.2989 -1.5079 -0.9844
  119OSM   H13T12529   1.142   2.084   7.509  2.7659 -0.3243  1.5331
  119OSM   C14S12530   1.316   1.988   7.533  0.1500 -0.2607  0.4145
  119OSM   H14S12531   1.373   2.075   7.494 -1.0868  0.4156  0.0595
  119OSM   H14T12532   1.367   1.893   7.507 -1.1407 -0.7382 -0.4442
  119OSM   C15S12533   1.333   1.979   7.686 -0.0482  0.4327 -0.8977
  119OSM   H15S12534   1.303   1.876   7.714  0.5436  0.4179 -0.2999
  119OSM   H15T12535   1.259   2.044   7.737 -0.6416 -0.7892 -0.1720
  119OSM   C16S12536   1.477   2.010   7.733 -0.3871  0.6429 -0.0463
  119OSM   H16S12537   1.503   2.118   7.728  0.8319  0.3394 -0.4780
  119OSM   H16T12538   1.554   1.955   7.675 -2.4285 -3.4168  0.6737
  119OSM   C17S12539   1.499   1.983   7.884  0.2860  0.3867 -0.1131
  119OSM   H17S12540   1.606   2.004   7.902  0.1400  0.2428  0.9839
  119OSM   H17T12541   1.473   1.877   7.902  0.6759  0.6747  2.4534
  119OSM   C18S12542   1.421   2.085   7.970 -0.1453  0.6428 -0.5921
  119OSM   H18S12543   1.484   2.176   7.965  1.4494 -0.4479 -1.2781
  119OSM   H18T12544   1.431   2.046   8.074  0.7800  0.5664 -0.7024
  119OSM   H18U12545   1.319   2.111   7.936 -0.0694  0.0487 -1.2893
  119OSM    C1F12546   0.514   1.644   6.487 -0.3675 -0.2331 -0.2595
  119OSM     OF12547   0.546   1.609   6.371 -0.3115 -0.1054 -0.8184
  119OSM    C2F12548   0.512   1.547   6.601  0.0048 -0.1803 -0.6621
  119OSM    H2F12549   0.408   1.535   6.638 -0.1508 -2.6682 -1.7492
  119OSM    H2G12550   0.581   1.577   6.684  1.2815 -2.5465 -0.7820
  119OSM    C3F12551   0.570   1.415   6.555 -0.1011 -0.4120  0.2506
  119OSM    H3F12552   0.677   1.428   6.528 -0.4376  1.8161 -0.2115
  119OSM    H3G12553   0.527   1.374   6.461 -0.3225  0.3850 -0.0002
  119OSM    C4F12554   0.560   1.300   6.654  0.3929 -0.3390 -0.0970
  119OSM    H4F12555   0.610   1.214   6.605  0.1476 -1.6242  1.8328
  119OSM    H4G12556   0.454   1.270   6.667  0.2435 -0.9069 -2.2562
  119OSM    C5F12557   0.640   1.327   6.787 -0.9259  0.1499 -0.0861
  119OSM    H5F12558   0.588   1.395   6.857 -0.0469  0.3669  0.3738
  119OSM    H5G12559   0.741   1.367   6.762  0.5116 -2.0634  1.6691
  119OSM    C6F12560   0.662   1.193   6.858 -0.1378  0.1284 -0.4808
  119OSM    H6F12561   0.760   1.200   6.911  0.6239  1.7346 -1.9695
  119OSM    H6G12562   0.669   1.120   6.775  0.7446  0.2605 -0.5357
  119OSM    C7F12563   0.557   1.149   6.955  0.6284 -0.4275 -0.2276
  119OSM    H7F12564   0.465   1.126   6.898  0.1102 -0.9947  0.8001
  119OSM    H7G12565   0.542   1.236   7.022 -1.2115  0.3490 -1.5829
  119OSM    C8F12566   0.596   1.049   7.055 -0.0615 -0.4568 -0.2235
  119OSM    H8F12567   0.523   1.056   7.138  0.0692  0.3980 -0.1793
  119OSM    H8G12568   0.696   1.084   7.088  0.6059 -2.3922 -0.0493
  119OSM    C9F12569   0.609   0.908   7.008  0.9446  0.0474 -0.0824
  119OSM    H9F12570   0.550   0.883   6.919 -0.4157 -1.1532  1.1011
  119OSM   C10F12571   0.689   0.815   7.052  0.6701 -0.6108 -0.5588
  119OSM   H10F12572   0.672   0.710   7.022 -0.9400 -0.3406 -0.6605
  119OSM   C11F12573   0.790   0.829   7.160  0.0619  0.1982 -0.6466
  119OSM   H11F12574   0.816   0.937   7.172  0.0365  0.1690 -0.3235
  119OSM   H11G12575   0.887   0.780   7.141  0.5846  0.2148  1.6720
  119OSM   C12F12576   0.726   0.798   7.293  0.0078  0.1088  0.1101
  119OSM   H12F12577   0.642   0.870   7.297 -0.1021  0.1793 -2.1688
  119OSM   H12G12578   0.803   0.818   7.370  0.7866 -1.7800 -0.1277
  119OSM   C13F12579   0.689   0.648   7.323 -0.1829  0.3890 -0.1672
  119OSM   H13F12580   0.770   0.573   7.309 -0.1795  0.4051 -0.2309
  119OSM   H13G12581   0.602   0.622   7.260 -1.5940  2.6402  0.7194
  119OSM   C14F12582   0.647   0.626   7.470 -0.5267 -0.0700  0.1119
  119OSM   H14F12583   0.618   0.520   7.488 -0.4085 -0.1541 -0.1922
  119OSM   H14G12584   0.555   0.685   7.491 -2.3621 -3.5339  2.8484
  119OSM   C15F12585   0.757   0.654   7.571  0.0439  0.6506 -0.4357
  119OSM   H15F12586   0.788   0.760   7.575 -0.9620  1.0151 -1.9149
  119OSM   H15G12587   0.852   0.597   7.556  1.2568  2.1773  1.0105
  119OSM   C16F12588   0.706   0.620   7.716  0.6803 -0.6401  0.3257
  119OSM   H16F12589   0.672   0.516   7.696 -0.9658 -0.2336  0.8752
  119OSM   H16G12590   0.616   0.677   7.746 -0.2106 -3.0430  2.6089
  119OSM   C17F12591   0.817   0.643   7.823  0.3690 -0.2286  0.4254
  119OSM   H17F12592   0.857   0.746   7.814  0.2503 -0.2986 -1.1910
  119OSM   H17G12593   0.902   0.581   7.789  1.2328 -0.0542  2.1935
  119OSM   C18F12594   0.777   0.613   7.966  0.2673 -0.0127 -0.3706
  119OSM   H18F12595   0.872   0.632   8.021  0.7490 -2.3687 -0.2578
  119OSM   H18G12596   0.749   0.506   7.973  0.5083 -0.2233 -2.1162
  119OSM   H18H12597   0.695   0.677   8.005  0.3548 -0.9783  1.5101
  120OSM      N12598   6.640   5.389   6.138  0.6870 -0.3020  0.0159
  120OSM    C1512599   6.574   5.517   6.175  0.0991 -0.7371 -0.2350
  120OSM   H15A12600   6.466   5.513   6.171  0.0537 -0.1225  0.1403
  120OSM   H15B12601   6.604   5.607   6.124 -1.0793  1.3590  2.4554
  120OSM   H15C12602   6.588   5.535   6.281 -2.8132  1.2669 -0.0615
  120OSM    C1412603   6.605   5.367   5.994 -0.2285  0.1514 -0.7150
  120OSM   H14A12604   6.646   5.448   5.936  0.9048  1.4656  1.7809
  120OSM   H14B12605   6.499   5.362   5.975 -0.6119  2.1558  0.6822
  120OSM   H14C12606   6.651   5.275   5.961  2.2236  1.0627 -0.0015
  120OSM    C1312607   6.785   5.411   6.144 -0.4129  0.1760 -0.1238
  120OSM   H13A12608   6.841   5.319   6.138 -1.7162 -0.7739  1.4590
  120OSM   H13B12609   6.825   5.441   6.240  0.9387  1.8840 -1.1584
  120OSM   H13C12610   6.807   5.481   6.065 -1.6719  1.0618  0.2707
  120OSM    C1212611   6.586   5.281   6.228  0.3184 -0.1155  0.3222
  120OSM   H12A12612   6.637   5.189   6.206  1.1677  0.9513 -2.5158
  120OSM   H12B12613   6.481   5.269   6.204  0.5116 -0.3394 -0.4418
  120OSM    C1112614   6.600   5.297   6.382  0.0129 -0.1106 -0.3715
  120OSM   H11A12615   6.702   5.336   6.404 -0.9515  1.4526  1.7162
  120OSM   H11B12616   6.592   5.199   6.433 -1.8417 -0.1810 -0.7359
  120OSM      P12617   6.351   5.329   6.452  0.1561 -0.2046  0.1078
  120OSM    O1312618   6.255   5.442   6.469  0.0488 -0.2366  0.9030
  120OSM    O1412619   6.323   5.243   6.335 -0.1563 -0.2555 -0.4213
  120OSM    O1112620   6.347   5.241   6.576 -0.8022 -0.1134 -0.2137
  120OSM    O1212621   6.500   5.388   6.434  0.2609  0.2652  0.1998
  120OSM    C1S12622   6.447   5.278   6.673  0.4847  0.7744 -0.4197
  120OSM    H1S12623   6.431   5.375   6.723  0.3044 -0.8211  2.9016
  120OSM    H1T12624   6.553   5.272   6.639  0.8255  2.3330  0.2924
  120OSM     NF12625   6.517   5.235   6.908 -0.2639  0.2288  0.3990
  120OSM    HNF12626   6.610   5.198   6.913 -1.1872 -2.2725  0.5804
  120OSM    C2S12627   6.449   5.178   6.792  0.3837 -0.0836 -0.1760
  120OSM    H2S12628   6.343   5.172   6.825 -0.0570  1.7187 -1.1548
  120OSM    C3S12629   6.509   5.041   6.752 -0.3701 -0.4932 -0.1925
  120OSM    H3S12630   6.620   5.047   6.742 -0.2597 -1.5291  0.2691
  120OSM     O312631   6.476   4.999   6.614 -0.8267 -0.4322  0.2805
  120OSM    HO312632   6.411   5.067   6.599 -0.9714 -0.9257 -1.5577
  120OSM    C4S12633   6.470   4.945   6.853 -0.0363  0.1633  0.5035
  120OSM    H4S12634   6.531   4.953   6.944 -0.4119 -0.0229  0.7711
  120OSM    C5S12635   6.374   4.850   6.840  0.0037  0.2594 -0.4550
  120OSM    H5S12636   6.321   4.835   6.745  1.4304 -2.2427 -0.9323
  120OSM    C6S12637   6.330   4.757   6.956 -0.4233 -0.6793  0.7467
  120OSM    H6S12638   6.359   4.654   6.927  1.2494  0.1256 -0.6480
  120OSM    H6T12639   6.220   4.768   6.955 -0.5556 -1.9134 -0.6003
  120OSM    C7S12640   6.391   4.801   7.087 -0.4018 -0.5687  0.3806
  120OSM    H7S12641   6.367   4.905   7.120 -0.8349 -0.1686 -1.1146
  120OSM    H7T12642   6.500   4.791   7.069 -0.6001  1.5895 -2.6841
  120OSM    C8S12643   6.343   4.703   7.198  0.1802 -1.0353 -0.1620
  120OSM    H8S12644   6.367   4.597   7.174 -1.4091 -1.2457 -0.9776
  120OSM    H8T12645   6.234   4.707   7.218  0.3707 -3.1276  1.8005
  120OSM    C9S12646   6.415   4.749   7.329  0.1868  0.2484 -0.2525
  120OSM    H9S12647   6.386   4.854   7.354  0.0639  0.3679 -0.8947
  120OSM    H9T12648   6.525   4.730   7.329  0.3531  1.1414  0.4708
  120OSM   C10S12649   6.364   4.664   7.448  0.5539  0.1138  0.0743
  120OSM   H10S12650   6.374   4.557   7.419  1.2336 -0.3508  1.8512
  120OSM   H10T12651   6.255   4.669   7.468 -0.2468 -1.1298 -3.3670
  120OSM   C11S12652   6.443   4.698   7.574 -0.0651 -0.0699 -0.6316
  120OSM   H11S12653   6.439   4.808   7.585  0.1331  0.0057 -1.2702
  120OSM   H11T12654   6.551   4.675   7.564 -0.3585 -1.8213 -0.1036
  120OSM   C12S12655   6.386   4.635   7.699 -0.0818 -0.5165 -0.2235
  120OSM   H12S12656   6.372   4.526   7.679  2.4789 -0.6181 -1.8371
  120OSM   H12T12657   6.281   4.672   7.709 -0.8496 -2.1162 -1.7873
  120OSM   C13S12658   6.479   4.652   7.818 -0.7921  0.1863 -0.6148
  120OSM   H13S12659   6.473   4.759   7.846  0.1107  0.0688  0.1005
  120OSM   H13T12660   6.580   4.623   7.784 -0.0923  1.3302  0.4019
  120OSM   C14S12661   6.443   4.564   7.939 -0.1767 -0.4416 -0.0144
  120OSM   H14S12662   6.462   4.455   7.924 -0.0406 -0.8273  2.5246
  120OSM   H14T12663   6.336   4.580   7.963  0.0957  2.6384 -0.4469
  120OSM   C15S12664   6.525   4.599   8.065 -0.5902  0.2805  0.2808
  120OSM   H15S12665   6.519   4.707   8.092  0.5967 -0.1608  2.5637
  120OSM   H15T12666   6.633   4.582   8.045 -0.4585 -2.2678  2.5839
  120OSM   C16S12667   6.491   4.524   8.194  0.6950  0.1092  0.1349
  120OSM   H16S12668   6.481   4.414   8.184 -0.5907  0.1872  0.4315
  120OSM   H16T12669   6.389   4.548   8.232  0.3186  0.0681 -0.8135
  120OSM   C17S12670   6.589   4.554   8.314  0.5994  0.5914  0.0121
  120OSM   H17S12671   6.586   4.665   8.321  1.0270  0.5460  1.3217
  120OSM   H17T12672   6.693   4.531   8.282 -1.0608 -2.7492 -3.8363
  120OSM   C18S12673   6.564   4.485   8.447 -0.2753 -1.1092 -0.1408
  120OSM   H18S12674   6.645   4.511   8.518 -1.3925  1.3641  0.3430
  120OSM   H18T12675   6.566   4.374   8.441 -1.1537 -1.1255 -0.2560
  120OSM   H18U12676   6.464   4.520   8.482  0.3116  0.5382 -0.0098
  120OSM    C1F12677   6.480   5.352   6.972 -0.3287  0.6757 -0.3093
  120OSM     OF12678   6.366   5.394   6.964  0.3745 -0.0907  0.1059
  120OSM    C2F12679   6.583   5.421   7.056  0.7401  0.5993 -0.6157
  120OSM    H2F12680   6.637   5.491   6.989 -1.6531  2.4397 -0.7496
  120OSM    H2G12681   6.665   5.360   7.098 -1.1816 -1.5514  0.2087
  120OSM    C3F12682   6.522   5.490   7.184 -0.1821 -0.3479  0.1984
  120OSM    H3F12683   6.473   5.410   7.245 -0.2218  0.0419  0.6869
  120OSM    H3G12684   6.437   5.556   7.158  0.5038  0.4048 -0.1532
  120OSM    C4F12685   6.629   5.566   7.262  0.3894  0.5726 -0.5450
  120OSM    H4F12686   6.648   5.667   7.220  0.4262  0.8803  0.1867
  120OSM    H4G12687   6.724   5.510   7.269  0.3691  0.5230 -0.6822
  120OSM    C5F12688   6.580   5.615   7.405 -0.7287 -0.6663 -0.1321
  120OSM    H5F12689   6.485   5.669   7.387 -0.1425  0.3513 -0.2602
  120OSM    H5G12690   6.653   5.691   7.442  0.7781 -1.8197 -0.6129
  120OSM    C6F12691   6.567   5.501   7.507  0.5321  0.7560  0.2925
  120OSM    H6F12692   6.656   5.433   7.506  0.6399  0.8474  1.9117
  120OSM    H6G12693   6.484   5.431   7.485  1.7138 -0.5309 -0.2859
  120OSM    C7F12694   6.548   5.538   7.657 -0.4461  0.3203 -0.6020
  120OSM    H7F12695   6.524   5.438   7.699 -0.7052  0.9997  0.9132
  120OSM    H7G12696   6.454   5.596   7.664  0.0117  0.8768  1.5310
  120OSM    C8F12697   6.666   5.611   7.723 -0.0418  0.0103  0.6794
  120OSM    H8F12698   6.644   5.680   7.807  0.4336  0.3593  0.5203
  120OSM    H8G12699   6.701   5.682   7.645 -2.0530  0.6298  0.3020
  120OSM    C9F12700   6.773   5.520   7.760 -1.4032 -0.3109 -0.5146
  120OSM    H9F12701   6.819   5.473   7.671 -1.9086 -3.4106  0.7245
  120OSM   C10F12702   6.808   5.487   7.884 -1.0256  0.5577  0.2635
  120OSM   H10F12703   6.890   5.413   7.889 -1.6284 -0.0727  2.9242
  120OSM   C11F12704   6.762   5.535   8.025  0.6057  0.2113  0.2168
  120OSM   H11F12705   6.683   5.612   8.014 -1.5175 -1.8519  0.0895
  120OSM   H11G12706   6.848   5.589   8.069  0.6418  1.1213 -0.9209
  120OSM   C12F12707   6.718   5.424   8.120 -0.5164 -0.3658  0.5257
  120OSM   H12F12708   6.795   5.346   8.101  0.0549  0.6244 -1.4210
  120OSM   H12G12709   6.623   5.383   8.080 -0.0928 -1.1514  0.3157
  120OSM   C13F12710   6.708   5.471   8.262  0.4702  0.1848  0.2387
  120OSM   H13F12711   6.633   5.553   8.263  1.8364  1.5113 -1.1927
  120OSM   H13G12712   6.814   5.496   8.284  0.2854 -0.0810  1.5389
  120OSM   C14F12713   6.685   5.357   8.365 -0.0987 -0.0394 -0.6749
  120OSM   H14F12714   6.764   5.280   8.356 -1.5103 -1.7152  0.6345
  120OSM   H14G12715   6.593   5.303   8.335 -0.9270 -0.1591  1.8325
  120OSM   C15F12716   6.652   5.394   8.514 -0.0910 -0.8196  1.0919
  120OSM   H15F12717   6.609   5.497   8.514  1.1276 -0.2817 -0.0892
  120OSM   H15G12718   6.745   5.403   8.574 -1.5253  0.6988  3.2415
  120OSM   C16F12719   6.550   5.292   8.566  0.0152  0.0356  0.6609
  120OSM   H16F12720   6.593   5.196   8.528 -0.9266  0.3075 -1.2431
  120OSM   H16G12721   6.451   5.317   8.522  1.0705  0.4938 -1.5960
  120OSM   C17F12722   6.547   5.290   8.718 -0.4502 -0.1302  0.1046
  120OSM   H17F12723   6.538   5.397   8.748  0.8393  0.2837 -0.9055
  120OSM   H17G12724   6.636   5.232   8.752 -1.7520 -1.7588  0.9158
  120OSM   C18F12725   6.433   5.196   8.755  0.4724  0.0049  0.0687
  120OSM   H18F12726   6.428   5.173   8.864  0.1529  0.7683  0.2227
  120OSM   H18G12727   6.438   5.095   8.709 -1.8124 -0.8243  1.4738
  120OSM   H18H12728   6.334   5.245   8.739  0.1837 -0.8360 -0.7861
  121OSM      N12729   1.903   0.357   6.308 -0.4353  0.5820 -0.0456
  121OSM    C1512730   1.981   0.484   6.323 -0.1257  0.3860  0.2163
  121OSM   H15A12731   2.025   0.501   6.225  1.2561 -0.9610  0.5566
  121OSM   H15B12732   2.057   0.471   6.398 -1.0877  2.7872  1.6942
  121OSM   H15C12733   1.928   0.571   6.358  0.3099  0.6963  0.1161
  121OSM    C1412734   1.812   0.381   6.199  0.5116  0.2371  0.3266
  121OSM   H14A12735   1.750   0.465   6.227  0.4853  0.9016 -1.5535
  121OSM   H14B12736   1.746   0.296   6.185  1.4031 -0.7822  1.9954
  121OSM   H14C12737   1.855   0.388   6.100  0.0923 -2.7587 -0.1709
  121OSM    C1312738   1.990   0.248   6.261 -0.6150 -0.5046 -0.7602
  121OSM   H13A12739   2.070   0.244   6.334 -0.1757  0.6353 -1.1612
  121OSM   H13B12740   2.032   0.261   6.162 -1.1184 -3.2884 -1.4518
  121OSM   H13C12741   1.934   0.156   6.247 -1.2335  0.2233 -3.7339
  121OSM    C1212742   1.828   0.317   6.437  0.1285 -0.1236 -0.3999
  121OSM   H12A12743   1.773   0.408   6.460  0.5122 -0.1265  0.5951
  121OSM   H12B12744   1.899   0.299   6.516  0.3489  1.5283 -0.1919
  121OSM    C1112745   1.721   0.202   6.437  0.0369  0.0287 -0.1740
  121OSM   H11A12746   1.701   0.163   6.539 -1.1196 -1.8677 -1.0671
  121OSM   H11B12747   1.772   0.121   6.379 -0.6239 -1.8409  1.7361
  121OSM      P12748   1.500   0.339   6.444  0.2074 -0.1366 -0.0574
  121OSM    O1312749   1.551   0.475   6.410 -0.0495 -1.1981  0.0328
  121OSM    O1412750   1.365   0.299   6.400  0.8092 -0.4731 -0.0906
  121OSM    O1112751   1.523   0.312   6.596 -0.1566  0.2618  0.1861
  121OSM    O1212752   1.598   0.245   6.372 -0.1349  0.7270  0.2986
  121OSM    C1S12753   1.477   0.195   6.663  0.6807  0.5282  0.1135
  121OSM    H1S12754   1.496   0.105   6.601 -0.8765 -0.9826  1.6706
  121OSM    H1T12755   1.366   0.204   6.669  0.6228  0.3288 -0.5576
  121OSM     NF12756   1.492   0.045   6.855 -0.4775  0.3286 -0.3595
  121OSM    HNF12757   1.423   0.024   6.923  1.2940 -0.1241  1.4054
  121OSM    C2S12758   1.520   0.179   6.809 -0.3141  1.0219 -0.3407
  121OSM    H2S12759   1.630   0.197   6.812  0.0490 -0.8663 -0.9384
  121OSM    C3S12760   1.450   0.292   6.893  0.0565  0.8281  0.1482
  121OSM    H3S12761   1.342   0.273   6.910  0.6677 -0.5910  2.9048
  121OSM     O312762   1.476   0.425   6.832  0.0174  0.3353  0.3174
  121OSM    HO312763   1.519   0.404   6.749 -2.3422 -0.6501 -0.7553
  121OSM    C4S12764   1.506   0.294   7.032 -0.1054  0.0845 -0.2118
  121OSM    H4S12765   1.610   0.259   7.021 -0.0892 -0.2773  0.9881
  121OSM    C5S12766   1.459   0.342   7.150 -0.1754  0.1500  0.1698
  121OSM    H5S12767   1.353   0.373   7.142 -1.0462 -2.7789 -0.8729
  121OSM    C6S12768   1.523   0.351   7.282  0.0026  0.4252  0.8162
  121OSM    H6S12769   1.472   0.431   7.339  1.8960  1.1355  1.5778
  121OSM    H6T12770   1.622   0.395   7.259  0.2874  0.5786  2.2839
  121OSM    C7S12771   1.528   0.210   7.344  0.0287  0.8364  0.3071
  121OSM    H7S12772   1.602   0.151   7.286 -2.6126 -2.5020  0.0808
  121OSM    H7T12773   1.436   0.154   7.321 -0.9289  2.0920  0.9142
  121OSM    C8S12774   1.540   0.207   7.500  0.1778  0.8934 -0.4151
  121OSM    H8S12775   1.639   0.238   7.539  0.6993 -1.0483 -0.0660
  121OSM    H8T12776   1.533   0.100   7.530  0.7882  1.3802  1.5968
  121OSM    C9S12777   1.442   0.294   7.585 -0.0884 -0.1904  0.5623
  121OSM    H9S12778   1.341   0.248   7.578 -0.1540  0.1242 -0.7720
  121OSM    H9T12779   1.442   0.388   7.525  2.9978  0.0988  0.8241
  121OSM   C10S12780   1.491   0.322   7.731  0.1739 -0.1461  0.1702
  121OSM   H10S12781   1.436   0.397   7.791 -2.2740 -0.7597 -1.1513
  121OSM   H10T12782   1.596   0.359   7.735  0.0973  0.0310  0.6289
  121OSM   C11S12783   1.487   0.196   7.815  0.5988  0.4940  0.6531
  121OSM   H11S12784   1.540   0.117   7.757 -0.1866 -0.1379  0.7685
  121OSM   H11T12785   1.383   0.160   7.831  0.9919 -1.0700 -0.1337
  121OSM   C12S12786   1.553   0.221   7.948  0.0061  0.3884  0.2228
  121OSM   H12S12787   1.479   0.275   8.010 -0.7745  0.9576 -1.1649
  121OSM   H12T12788   1.647   0.281   7.946  0.0693  0.2770 -0.1535
  121OSM   C13S12789   1.582   0.092   8.030 -0.1425 -0.1854 -0.5611
  121OSM   H13S12790   1.642   0.015   7.976  2.8670 -0.5293  2.9222
  121OSM   H13T12791   1.481   0.059   8.064 -0.6327  1.4114 -0.3965
  121OSM   C14S12792   1.651   0.123   8.166 -0.5777  0.3487 -0.2127
  121OSM   H14S12793   1.569   0.142   8.238  1.1369  2.2101  1.3555
  121OSM   H14T12794   1.719   0.210   8.173  1.5886 -1.4139  2.5686
  121OSM   C15S12795   1.741   0.008   8.215  0.2565  0.4121 -0.2666
  121OSM   H15S12796   1.824  -0.013   8.144 -0.0903  4.3016 -2.1195
  121OSM   H15T12797   1.675  -0.081   8.225  1.6356 -0.5861  0.2419
  121OSM   C16S12798   1.790   0.040   8.355 -0.3039  0.0452  0.1695
  121OSM   H16S12799   1.703   0.057   8.423  0.1500 -1.2360  1.1067
  121OSM   H16T12800   1.845   0.136   8.343 -0.9980  0.6068  1.2541
  121OSM   C17S12801   1.883  -0.068   8.408  0.3182  0.0845  0.2074
  121OSM   H17S12802   1.978  -0.065   8.351  0.3658  0.8137  0.3080
  121OSM   H17T12803   1.834  -0.165   8.388  1.1149  0.0168 -1.6719
  121OSM   C18S12804   1.916  -0.042   8.551  0.2669  0.1238 -0.6360
  121OSM   H18S12805   1.834  -0.076   8.617  0.9908 -0.0806  0.1890
  121OSM   H18T12806   1.942   0.064   8.575 -0.5771  0.0486  0.7580
  121OSM   H18U12807   1.993  -0.117   8.578  0.9995  0.5065 -1.6152
  121OSM    C1F12808   1.551  -0.064   6.805 -0.4945 -0.3285 -1.4734
  121OSM     OF12809   1.649  -0.060   6.733 -0.2323 -0.1903 -0.2443
  121OSM    C2F12810   1.493  -0.189   6.856 -0.3100  1.0514  0.4670
  121OSM    H2F12811   1.512  -0.278   6.793 -0.9139  0.8674  0.5297
  121OSM    H2G12812   1.382  -0.185   6.847 -0.3044  0.5305  0.1017
  121OSM    C3F12813   1.544  -0.218   6.990  0.7086  0.1557 -0.5032
  121OSM    H3F12814   1.514  -0.131   7.051  1.5427  1.4083 -1.8093
  121OSM    H3G12815   1.654  -0.220   6.998  0.6559 -1.8481  0.5865
  121OSM    C4F12816   1.487  -0.352   7.049  0.9459  0.4934  0.2243
  121OSM    H4F12817   1.502  -0.428   6.970 -1.0280 -1.3389  1.4930
  121OSM    H4G12818   1.377  -0.355   7.065  0.8237 -0.7391 -0.6514
  121OSM    C5F12819   1.569  -0.392   7.171  0.1976  0.9451  0.0907
  121OSM    H5F12820   1.674  -0.357   7.159  0.5666  0.2739  1.2049
  121OSM    H5G12821   1.566  -0.502   7.187 -0.0718  0.9234 -0.1042
  121OSM    C6F12822   1.525  -0.339   7.304 -0.2305 -0.5667  0.4781
  121OSM    H6F12823   1.415  -0.323   7.298 -0.2113 -0.6087 -0.0041
  121OSM    H6G12824   1.568  -0.237   7.305 -0.7354 -0.2744 -1.8194
  121OSM    C7F12825   1.570  -0.420   7.423  0.2036  0.6521 -0.7933
  121OSM    H7F12826   1.681  -0.418   7.428  0.1652  1.5565  0.2655
  121OSM    H7G12827   1.521  -0.519   7.410  0.8995  0.2210 -0.1942
  121OSM    C8F12828   1.506  -0.362   7.554 -0.3050  0.4782  0.3277
  121OSM    H8F12829   1.509  -0.441   7.632  3.2570 -1.0201 -1.1143
  121OSM    H8G12830   1.398  -0.340   7.536 -0.6056  0.4450  1.9151
  121OSM    C9F12831   1.577  -0.244   7.602 -0.5325 -0.3193  0.4085
  121OSM    H9F12832   1.632  -0.180   7.532 -0.0522  0.6903  1.6659
  121OSM   C10F12833   1.594  -0.200   7.730  0.4556  0.1853 -0.4557
  121OSM   H10F12834   1.641  -0.102   7.744  1.0419  0.2493 -2.5217
  121OSM   C11F12835   1.535  -0.270   7.849 -0.0934  0.0314 -0.4853
  121OSM   H11F12836   1.601  -0.269   7.938  0.1832  1.6832 -0.6783
  121OSM   H11G12837   1.498  -0.375   7.841 -0.6837  0.1908  0.0720
  121OSM   C12F12838   1.414  -0.196   7.908  0.4272  0.2356 -0.0261
  121OSM   H12F12839   1.338  -0.174   7.830  0.6050  0.1582 -0.2227
  121OSM   H12G12840   1.441  -0.093   7.939 -2.7023  1.4900 -1.0768
  121OSM   C13F12841   1.329  -0.281   8.009 -1.0151  0.0996  0.1931
  121OSM   H13F12842   1.282  -0.361   7.948  0.2434 -1.1234  0.7593
  121OSM   H13G12843   1.247  -0.213   8.041 -0.9436  0.0877  0.4043
  121OSM   C14F12844   1.406  -0.342   8.129  0.3247  0.6433 -0.3509
  121OSM   H14F12845   1.511  -0.359   8.099  0.4509 -0.1902  0.5066
  121OSM   H14G12846   1.365  -0.443   8.151  0.2159  0.4478 -1.4098
  121OSM   C15F12847   1.401  -0.261   8.252  0.7058  0.4357  0.1676
  121OSM   H15F12848   1.298  -0.254   8.294  0.8580  2.3120  0.2975
  121OSM   H15G12849   1.429  -0.156   8.231  2.9748  0.3493  2.3870
  121OSM   C16F12850   1.496  -0.301   8.373  0.0129  0.9909 -0.0451
  121OSM   H16F12851   1.596  -0.267   8.337  1.0925  0.1397  2.0040
  121OSM   H16G12852   1.503  -0.411   8.373 -0.3153  0.9364 -1.7349
  121OSM   C17F12853   1.454  -0.241   8.508 -0.7539 -0.2336 -0.2154
  121OSM   H17F12854   1.343  -0.232   8.520 -0.6406 -1.5817  3.1456
  121OSM   H17G12855   1.504  -0.143   8.511 -1.2273 -0.0108  0.7686
  121OSM   C18F12856   1.499  -0.325   8.627 -0.0468 -0.2732  0.3276
  121OSM   H18F12857   1.608  -0.343   8.632 -0.0860 -0.2868  4.1940
  121OSM   H18G12858   1.453  -0.426   8.623 -0.3487 -0.2007  1.4193
  121OSM   H18H12859   1.467  -0.283   8.725 -1.1614 -1.9661  0.7396
  122OSM      N12860   0.133   3.314   6.271  0.3377  0.2675 -0.1930
  122OSM    C1512861   0.208   3.274   6.146 -0.0877 -0.1137 -0.3368
  122OSM   H15A12862   0.194   3.335   6.058  0.1595 -0.8359 -0.8912
  122OSM   H15B12863   0.184   3.175   6.111  0.9145  0.4072 -2.7287
  122OSM   H15C12864   0.311   3.277   6.178 -1.1134  1.2226  3.3184
  122OSM    C1412865   0.175   3.448   6.310  0.2910 -0.6051 -0.4088
  122OSM   H14A12866   0.128   3.473   6.404  0.3247 -1.4629 -0.1553
  122OSM   H14B12867   0.152   3.524   6.237  0.4807 -1.4129 -1.3272
  122OSM   H14C12868   0.282   3.463   6.322  0.3799 -2.5366  2.0759
  122OSM    C1312869  -0.012   3.313   6.242  0.2615  0.2547  0.0582
  122OSM   H13A12870  -0.049   3.213   6.229 -0.3712  0.4123  0.5650
  122OSM   H13B12871  -0.043   3.372   6.157 -3.1908  0.3391  1.2057
  122OSM   H13C12872  -0.066   3.357   6.325 -2.0108  1.8477 -2.1000
  122OSM    C1212873   0.157   3.218   6.388  0.2125 -0.1186 -0.2197
  122OSM   H12A12874   0.128   3.272   6.476  0.7057  0.7180 -0.5558
  122OSM   H12B12875   0.264   3.207   6.396  0.0106 -0.8341  1.8854
  122OSM    C1112876   0.089   3.077   6.387  0.0931  0.3365  0.6207
  122OSM   H11A12877  -0.018   3.090   6.411 -0.0489 -0.3724  0.4104
  122OSM   H11B12878   0.119   3.021   6.478 -0.9347  1.7507  1.8699
  122OSM      P12879  -0.008   2.930   6.182  0.3299 -0.5967  0.0454
  122OSM    O1312880  -0.065   3.022   6.078 -0.3742 -0.3753 -0.3735
  122OSM    O1412881   0.037   2.801   6.130 -0.3597  0.2907  0.0093
  122OSM    O1112882  -0.121   2.916   6.287  0.6444 -0.3519  0.0614
  122OSM    O1212883   0.114   3.009   6.264 -0.5492 -0.2240 -0.7949
  122OSM    C1S12884  -0.119   2.806   6.382 -0.1451 -0.7845  0.2349
  122OSM    H1S12885  -0.015   2.771   6.399  0.7279  0.7346 -1.5407
  122OSM    H1T12886  -0.188   2.725   6.348 -0.8483 -0.2899  0.4638
  122OSM     NF12887  -0.168   2.737   6.613  0.2055  0.2839  0.4565
  122OSM    HNF12888  -0.258   2.702   6.636 -0.3567 -0.1143 -2.0700
  122OSM    C2S12889  -0.168   2.851   6.522  0.4961  0.1035  0.2979
  122OSM    H2S12890  -0.090   2.920   6.560  0.6546  0.3246 -0.4027
  122OSM    C3S12891  -0.311   2.922   6.508 -0.6493 -0.0959 -0.4724
  122OSM    H3S12892  -0.382   2.843   6.473 -1.3917  1.0545 -1.6444
  122OSM     O312893  -0.322   3.025   6.411 -0.1673  0.3853 -0.2103
  122OSM    HO312894  -0.237   3.024   6.365 -0.0377  0.3947  0.0288
  122OSM    C4S12895  -0.352   2.972   6.647 -0.4476 -0.0903  0.1607
  122OSM    H4S12896  -0.278   3.039   6.692 -1.6373  0.8528  0.7820
  122OSM    C5S12897  -0.460   2.927   6.717  0.0315 -0.3077  0.1757
  122OSM    H5S12898  -0.512   2.847   6.662  0.7305 -0.1071 -0.7920
  122OSM    C6S12899  -0.508   2.962   6.853 -0.0949  0.2383  0.2912
  122OSM    H6S12900  -0.617   2.977   6.845  0.1809  1.6643 -1.6374
  122OSM    H6T12901  -0.472   3.058   6.895  1.2296 -0.1893  0.1862
  122OSM    C7S12902  -0.475   2.846   6.953  0.1579  0.7222  0.2219
  122OSM    H7S12903  -0.365   2.830   6.953  0.0950  0.2097 -0.6483
  122OSM    H7T12904  -0.515   2.749   6.915 -1.2271  1.4065 -0.1076
  122OSM    C8S12905  -0.539   2.880   7.089  0.4414  0.4860  0.8960
  122OSM    H8S12906  -0.649   2.896   7.091 -0.2545 -3.0537 -0.5429
  122OSM    H8T12907  -0.498   2.980   7.114  0.9125  0.5942 -0.2511
  122OSM    C9S12908  -0.493   2.782   7.200 -0.1275  0.3573 -0.3526
  122OSM    H9S12909  -0.384   2.765   7.218 -0.0553  0.5609 -0.5894
  122OSM    H9T12910  -0.543   2.686   7.179  1.2219 -0.3143 -0.5704
  122OSM   C10S12911  -0.528   2.845   7.333 -0.1182 -0.7180  0.3504
  122OSM   H10S12912  -0.633   2.881   7.338  0.2932  0.4703  0.9826
  122OSM   H10T12913  -0.460   2.933   7.339 -0.2512 -0.5948  0.0872
  122OSM   C11S12914  -0.499   2.761   7.452 -0.3203 -0.3391 -0.4166
  122OSM   H11S12915  -0.419   2.690   7.421 -1.2641 -0.8872 -1.6984
  122OSM   H11T12916  -0.579   2.689   7.479  0.3395 -0.8860  0.1310
  122OSM   C12S12917  -0.444   2.845   7.571  0.8652  0.0645 -0.0549
  122OSM   H12S12918  -0.531   2.908   7.600 -1.7413 -2.5535 -1.6674
  122OSM   H12T12919  -0.348   2.901   7.563  0.8773 -0.2386 -3.4810
  122OSM   C13S12920  -0.436   2.757   7.704 -1.5526  0.1160 -0.0854
  122OSM   H13S12921  -0.365   2.672   7.704 -3.0721 -1.1905  0.4581
  122OSM   H13T12922  -0.532   2.706   7.725 -2.3393  1.5232 -0.1237
  122OSM   C14S12923  -0.388   2.843   7.827 -1.0578 -0.4767  0.4704
  122OSM   H14S12924  -0.461   2.926   7.844 -0.9610 -0.1904 -0.4411
  122OSM   H14T12925  -0.297   2.903   7.809 -2.0341  1.5800  1.8906
  122OSM   C15S12926  -0.367   2.755   7.955  0.0758 -0.8361  0.7206
  122OSM   H15S12927  -0.324   2.829   8.026 -1.7369 -1.4741  2.5955
  122OSM   H15T12928  -0.289   2.679   7.932  1.0527  0.5973 -0.9162
  122OSM   C16S12929  -0.493   2.691   8.013 -0.1833  0.6617  0.4907
  122OSM   H16S12930  -0.550   2.631   7.938 -1.2644  2.4327 -0.1854
  122OSM   H16T12931  -0.566   2.774   8.030 -1.6120 -0.5485  0.4533
  122OSM   C17S12932  -0.474   2.604   8.141  0.3066  0.2846  0.0667
  122OSM   H17S12933  -0.446   2.499   8.120  3.4745  0.5868  2.0951
  122OSM   H17T12934  -0.572   2.605   8.193  0.9320 -0.5924  1.3174
  122OSM   C18S12935  -0.375   2.668   8.244  0.3217  0.7735  0.4013
  122OSM   H18S12936  -0.377   2.619   8.344 -1.0442 -0.0322  0.0128
  122OSM   H18T12937  -0.411   2.770   8.269 -0.4330  0.6196 -0.0275
  122OSM   H18U12938  -0.271   2.675   8.205 -0.6027 -1.2372 -2.8319
  122OSM    C1F12939  -0.057   2.684   6.666  0.4420  0.1358 -0.2384
  122OSM     OF12940   0.054   2.718   6.623 -0.1540  0.6143 -0.1693
  122OSM    C2F12941  -0.086   2.591   6.783  0.5002 -0.0727  0.3712
  122OSM    H2F12942  -0.127   2.490   6.763  2.5466 -1.3420  2.1656
  122OSM    H2G12943  -0.172   2.633   6.839 -1.8434 -1.3019 -2.1004
  122OSM    C3F12944   0.033   2.584   6.881  0.5950 -0.5583 -0.1013
  122OSM    H3F12945   0.117   2.523   6.841  0.4779  0.8089 -2.5573
  122OSM    H3G12946  -0.011   2.520   6.962  2.4975 -0.9141  0.7075
  122OSM    C4F12947   0.073   2.708   6.962  0.0063 -0.3843  0.6015
  122OSM    H4F12948   0.089   2.793   6.892  2.0627  0.0136  1.4733
  122OSM    H4G12949   0.165   2.689   7.020  0.5554  2.5487  0.8466
  122OSM    C5F12950  -0.037   2.764   7.057 -0.2927  0.9660 -0.2381
  122OSM    H5F12951  -0.087   2.691   7.124  1.6205  0.0119  0.2034
  122OSM    H5G12952  -0.112   2.806   6.986  2.3176  3.8604 -1.5227
  122OSM    C6F12953   0.005   2.878   7.149 -0.1619  0.2681  0.3501
  122OSM    H6F12954   0.030   2.960   7.078 -0.0958 -1.1131 -1.2760
  122OSM    H6G12955   0.098   2.850   7.202  1.1090  1.2096 -1.2793
  122OSM    C7F12956  -0.095   2.919   7.249  0.8094 -0.1921  0.0463
  122OSM    H7F12957  -0.103   2.826   7.310 -3.2182 -0.0748 -0.0657
  122OSM    H7G12958  -0.193   2.940   7.202  0.0935 -1.8853  0.7182
  122OSM    C8F12959  -0.063   3.041   7.336  0.1676 -0.1467  0.0342
  122OSM    H8F12960  -0.037   3.127   7.271  2.3704 -0.5382  0.3060
  122OSM    H8G12961   0.027   3.021   7.397 -0.5703 -1.9096  0.6030
  122OSM    C9F12962  -0.175   3.078   7.435 -0.2330 -0.1597  0.9979
  122OSM    H9F12963  -0.275   3.087   7.390  1.1665  2.5904 -1.9130
  122OSM   C10F12964  -0.162   3.106   7.565  0.0850 -0.3119  0.2948
  122OSM   H10F12965  -0.251   3.136   7.623  0.6146  1.4734  0.2435
  122OSM   C11F12966  -0.029   3.112   7.645  0.1849 -0.3171 -0.8127
  122OSM   H11F12967  -0.040   3.206   7.702 -1.3995 -1.5386  1.0459
  122OSM   H11G12968   0.061   3.112   7.581  0.5026  0.5488 -0.3720
  122OSM   C12F12969  -0.008   2.998   7.748 -0.7117  0.0509 -0.3894
  122OSM   H12F12970  -0.004   2.898   7.700  0.8049 -0.1923  0.1900
  122OSM   H12G12971  -0.085   2.985   7.826 -0.6510 -0.8336 -0.4737
  122OSM   C13F12972   0.127   3.010   7.831  0.4217  0.6140 -0.1596
  122OSM   H13F12973   0.201   3.055   7.761 -0.7811  1.8374 -0.6837
  122OSM   H13G12974   0.161   2.908   7.859 -1.4576 -0.4851 -1.6987
  122OSM   C14F12975   0.112   3.087   7.966  0.3157  0.5888 -0.0564
  122OSM   H14F12976   0.040   3.028   8.026  0.0740  1.5938  0.6544
  122OSM   H14G12977   0.068   3.186   7.942 -1.3370  0.5030  2.3039
  122OSM   C15F12978   0.248   3.084   8.042  0.1429  0.1363  0.7084
  122OSM   H15F12979   0.320   3.022   7.985 -2.3511 -2.2050 -0.1025
  122OSM   H15G12980   0.240   3.052   8.147  0.3805 -1.2844  0.3118
  122OSM   C16F12981   0.301   3.232   8.042  0.5405 -0.3541  0.5774
  122OSM   H16F12982   0.386   3.241   8.113  0.3354 -0.0581  0.7891
  122OSM   H16G12983   0.217   3.297   8.075  1.0405  1.7714 -2.0498
  122OSM   C17F12984   0.343   3.282   7.904 -0.1323 -0.4088 -0.1157
  122OSM   H17F12985   0.362   3.391   7.890 -0.8767 -0.4258 -1.4640
  122OSM   H17G12986   0.271   3.254   7.824 -0.1087  0.1327 -0.3283
  122OSM   C18F12987   0.479   3.223   7.865  0.5167 -0.8925  0.4016
  122OSM   H18F12988   0.498   3.246   7.758 -1.8217 -0.2140  0.0875
  122OSM   H18G12989   0.480   3.112   7.873  0.4869 -0.8983  0.3194
  122OSM   H18H12990   0.561   3.269   7.925 -0.1912 -1.6665  2.0373
  123OSM      N12991   4.959   4.395   6.439  0.3918  0.5485  0.1539
  123OSM    C1512992   4.982   4.486   6.321  0.0603 -0.0835  0.0202
  123OSM   H15A12993   4.901   4.555   6.303 -0.3646 -0.3693  0.8216
  123OSM   H15B12994   4.994   4.429   6.230  0.2219 -2.3411  1.3897
  123OSM   H15C12995   5.074   4.543   6.324  0.5903 -0.9624  1.6167
  123OSM    C1412996   4.813   4.352   6.427 -0.2620  0.4796 -0.3746
  123OSM   H14A12997   4.780   4.314   6.523 -0.9155  1.9749  0.0167
  123OSM   H14B12998   4.802   4.276   6.350  2.8279  0.8486 -1.3254
  123OSM   H14C12999   4.746   4.435   6.409  0.0321  1.3488  2.1320
  123OSM    C1313000   5.045   4.273   6.418  0.4176  0.1998 -0.2412
  123OSM   H13A13001   5.013   4.196   6.486 -1.8431  1.0113 -0.3099
  123OSM   H13B13002   5.145   4.295   6.452 -0.6443  3.2771  1.2824
  123OSM   H13C13003   5.047   4.242   6.315 -1.9553  0.3132 -0.3683
  123OSM    C1213004   4.994   4.462   6.562 -0.3137  0.1681  0.2391
  123OSM   H12A13005   5.005   4.386   6.638  0.7088 -0.5634 -0.6055
  123OSM   H12B13006   4.915   4.526   6.597  0.5042  0.6436  1.2859
  123OSM    C1113007   5.118   4.550   6.565 -0.7112  0.0527  0.5424
  123OSM   H11A13008   5.121   4.608   6.660 -0.3677  2.8086 -1.0404
  123OSM   H11B13009   5.116   4.621   6.480 -1.0700  0.0322  0.5336
  123OSM      P13010   5.312   4.385   6.648  0.3344  0.2725 -0.4742
  123OSM    O1313011   5.229   4.262   6.669 -0.6270 -0.2921 -0.3529
  123OSM    O1413012   5.448   4.383   6.605 -0.1773 -0.3000  0.0015
  123OSM    O1113013   5.307   4.471   6.776  0.0346 -0.1453  0.2306
  123OSM    O1213014   5.231   4.470   6.545 -0.4284 -1.0622 -0.6139
  123OSM    C1S13015   5.366   4.417   6.897  0.2313  0.2977  0.0960
  123OSM    H1S13016   5.468   4.460   6.909 -0.1735  0.9282  1.4874
  123OSM    H1T13017   5.376   4.308   6.914  0.0065  0.1572 -0.6659
  123OSM     NF13018   5.331   4.405   7.141  0.3182 -0.1040 -0.3755
  123OSM    HNF13019   5.258   4.364   7.195  0.9548 -0.6084  0.1086
  123OSM    C2S13020   5.277   4.463   7.020  0.1142  0.1281 -0.2514
  123OSM    H2S13021   5.283   4.573   7.035  1.1451  0.1756 -0.9390
  123OSM    C3S13022   5.124   4.425   7.000 -0.1344 -0.2565 -0.4972
  123OSM    H3S13023   5.095   4.318   6.996 -1.1011 -0.0443  0.3659
  123OSM     O313024   5.066   4.467   6.885  0.0127 -0.2430  0.1815
  123OSM    HO313025   5.129   4.509   6.826  0.6011 -1.7295 -0.2699
  123OSM    C4S13026   5.044   4.479   7.122  0.3556  0.4975  0.6376
  123OSM    H4S13027   5.016   4.399   7.192  0.7914 -1.0939 -0.9355
  123OSM    C5S13028   4.993   4.603   7.138 -0.1047  0.0407 -0.4086
  123OSM    H5S13029   5.006   4.685   7.066 -1.9478 -0.1201 -0.9682
  123OSM    C6S13030   4.909   4.632   7.262  0.6975  0.3908 -0.2176
  123OSM    H6S13031   4.899   4.544   7.329  0.1660  2.0040  1.9312
  123OSM    H6T13032   4.812   4.677   7.230 -0.5647 -0.6724  1.8750
  123OSM    C7S13033   4.971   4.738   7.360  0.0221  1.0267  0.6111
  123OSM    H7S13034   4.979   4.837   7.311  0.4180  0.1758 -1.1322
  123OSM    H7T13035   5.073   4.698   7.382 -1.3026 -1.2570  3.3374
  123OSM    C8S13036   4.898   4.752   7.496 -0.0971  0.8108  0.3193
  123OSM    H8S13037   4.883   4.651   7.541 -0.0651 -0.0168 -1.4354
  123OSM    H8T13038   4.797   4.793   7.473  0.7150  1.4314 -2.5118
  123OSM    C9S13039   4.975   4.845   7.591  0.0468  0.1492  0.4285
  123OSM    H9S13040   4.984   4.946   7.547 -1.3494  0.3007  0.4515
  123OSM    H9T13041   5.082   4.814   7.596  0.7050  2.3120  0.5577
  123OSM   C10S13042   4.905   4.854   7.728 -0.4612  0.2523  0.3811
  123OSM   H10S13043   4.871   4.755   7.765 -0.4335  0.0985  0.0068
  123OSM   H10T13044   4.805   4.900   7.718 -0.6423 -0.5316 -2.5423
  123OSM   C11S13045   4.992   4.908   7.845 -0.5559  0.0986  0.5148
  123OSM   H11S13046   5.024   5.012   7.819 -0.2466 -0.5777 -2.0839
  123OSM   H11T13047   5.086   4.852   7.859 -0.3092 -0.8461 -3.5108
  123OSM   C12S13048   4.904   4.913   7.969  0.1041  0.5520 -0.3447
  123OSM   H12S13049   4.898   4.807   7.999  2.9794 -0.0470 -1.5753
  123OSM   H12T13050   4.799   4.940   7.946 -0.0596  1.1977  1.0378
  123OSM   C13S13051   4.959   5.008   8.077 -0.8390 -0.8469  0.0173
  123OSM   H13S13052   4.989   5.104   8.030 -1.3672 -0.3208  0.7367
  123OSM   H13T13053   5.053   4.967   8.120  0.6065  1.6400 -0.5552
  123OSM   C14S13054   4.869   5.022   8.199  0.2667 -0.2269  0.6538
  123OSM   H14S13055   4.857   4.924   8.250 -1.8096 -0.6867 -0.5896
  123OSM   H14T13056   4.774   5.058   8.153  0.6391  1.0881  0.8788
  123OSM   C15S13057   4.915   5.132   8.299  0.4236  0.4545  0.5701
  123OSM   H15S13058   4.939   5.229   8.251  1.0570  0.2118  0.3737
  123OSM   H15T13059   5.003   5.086   8.349  1.3398  0.2382 -1.1440
  123OSM   C16S13060   4.802   5.141   8.402  0.0897  0.0412  0.4806
  123OSM   H16S13061   4.838   5.190   8.494  2.2322 -1.7937  0.7098
  123OSM   H16T13062   4.788   5.036   8.437  1.5277  0.0477  1.1539
  123OSM   C17S13063   4.665   5.204   8.351 -0.1809  0.7651 -0.6159
  123OSM   H17S13064   4.604   5.228   8.441 -0.7462  0.6887 -0.9758
  123OSM   H17T13065   4.620   5.119   8.296  1.9511 -0.8829  0.0052
  123OSM   C18S13066   4.692   5.319   8.255 -0.0419 -0.0160 -0.0327
  123OSM   H18S13067   4.600   5.378   8.235  1.0373  2.1189  0.9317
  123OSM   H18T13068   4.740   5.286   8.161  0.5610 -1.2709  0.6755
  123OSM   H18U13069   4.753   5.396   8.307  1.2018 -1.6934  1.1261
  123OSM    C1F13070   5.448   4.436   7.198 -0.1708 -0.6122  0.4418
  123OSM     OF13071   5.531   4.495   7.136 -0.1516 -0.8577  0.0120
  123OSM    C2F13072   5.459   4.380   7.340 -0.8075  0.6629  0.0491
  123OSM    H2F13073   5.410   4.280   7.332  0.3565  0.1098 -0.3573
  123OSM    H2G13074   5.411   4.444   7.417  0.4466  0.2649  1.1974
  123OSM    C3F13075   5.610   4.377   7.374  0.8885  0.5182 -0.4173
  123OSM    H3F13076   5.651   4.480   7.381  0.7331  0.6537 -1.2927
  123OSM    H3G13077   5.672   4.331   7.293 -0.7339 -2.4777 -0.1294
  123OSM    C4F13078   5.640   4.299   7.501 -0.0520 -0.2750 -0.1300
  123OSM    H4F13079   5.748   4.277   7.504  0.0467  0.1753 -0.2241
  123OSM    H4G13080   5.596   4.198   7.486  0.7638 -0.8385  1.1429
  123OSM    C5F13081   5.620   4.383   7.632 -0.3187  0.5312  0.3897
  123OSM    H5F13082   5.529   4.447   7.633  0.1403  1.2574  2.7915
  123OSM    H5G13083   5.697   4.462   7.647  0.5696 -0.4618  1.2687
  123OSM    C6F13084   5.619   4.303   7.764  0.8170 -0.5790 -0.8277
  123OSM    H6F13085   5.722   4.268   7.787  1.0283  0.1397 -0.6647
  123OSM    H6G13086   5.549   4.217   7.759  0.0264 -0.1405  1.5158
  123OSM    C7F13087   5.579   4.398   7.884  0.2548  0.5031  0.2078
  123OSM    H7F13088   5.475   4.434   7.870  0.0516  0.2792  1.1152
  123OSM    H7G13089   5.645   4.488   7.873  1.1511 -0.3066 -1.5002
  123OSM    C8F13090   5.595   4.337   8.023  0.2299  0.0446  0.1285
  123OSM    H8F13091   5.574   4.421   8.092  0.0880  0.4599 -0.4043
  123OSM    H8G13092   5.702   4.308   8.032 -0.3669 -1.7984  2.1316
  123OSM    C9F13093   5.505   4.212   8.033  0.6638 -0.4441 -0.5041
  123OSM    H9F13094   5.505   4.139   7.950 -2.7869  0.6479 -1.6455
  123OSM   C10F13095   5.423   4.179   8.138  0.6578 -0.0692  0.7504
  123OSM   H10F13096   5.378   4.078   8.140 -1.6973  0.8767 -0.0466
  123OSM   C11F13097   5.395   4.259   8.257 -0.2679 -0.1124  0.1220
  123OSM   H11F13098   5.286   4.277   8.264 -0.3245 -0.7105  0.9398
  123OSM   H11G13099   5.444   4.357   8.241 -1.9506  1.0666  1.7489
  123OSM   C12F13100   5.435   4.206   8.398 -0.1899 -0.2770  0.3813
  123OSM   H12F13101   5.378   4.116   8.430  0.1407 -1.1070 -1.2867
  123OSM   H12G13102   5.410   4.288   8.468 -1.2778 -2.2614  2.4357
  123OSM   C13F13103   5.585   4.171   8.417 -0.1410  0.1184  0.3240
  123OSM   H13F13104   5.655   4.238   8.362  0.1583 -0.5861 -0.1679
  123OSM   H13G13105   5.608   4.080   8.357  1.1117  0.3025  0.5069
  123OSM   C14F13106   5.634   4.162   8.562 -0.3913 -0.2861 -0.2210
  123OSM   H14F13107   5.582   4.077   8.612  1.6115 -1.4058  0.0824
  123OSM   H14G13108   5.615   4.255   8.619  2.3276  0.3336 -0.2184
  123OSM   C15F13109   5.785   4.158   8.572 -0.0180  1.2281 -0.2766
  123OSM   H15F13110   5.833   4.257   8.557 -0.1364  1.5781  1.5234
  123OSM   H15G13111   5.819   4.085   8.495 -1.8903  1.2251 -1.1686
  123OSM   C16F13112   5.825   4.114   8.713 -0.3015 -0.2954  0.2410
  123OSM   H16F13113   5.781   4.012   8.720 -0.3854 -0.6024 -2.9790
  123OSM   H16G13114   5.784   4.179   8.792 -3.3238  0.8390 -2.0589
  123OSM   C17F13115   5.977   4.111   8.719  0.0432 -0.0217  0.2910
  123OSM   H17F13116   5.996   4.104   8.828  0.7702 -0.0377  0.1722
  123OSM   H17G13117   6.010   4.206   8.671  0.4226 -0.1659  0.2603
  123OSM   C18F13118   6.048   3.991   8.661 -0.3316 -0.4664  0.0780
  123OSM   H18F13119   6.016   3.907   8.727 -1.1750  0.0363  0.3294
  123OSM   H18G13120   6.156   4.017   8.667 -0.5813  1.3713 -2.2595
  123OSM   H18H13121   6.029   3.963   8.556  0.0559  1.0298 -0.4165
  124OSM      N13122   5.223   0.642   6.556 -0.5305 -0.6240 -0.2344
  124OSM    C1513123   5.310   0.526   6.513 -0.0425 -0.3612  0.1218
  124OSM   H15A13124   5.379   0.562   6.438  0.2305  1.4499  1.1733
  124OSM   H15B13125   5.249   0.449   6.467  0.0964 -0.2492 -0.2567
  124OSM   H15C13126   5.361   0.484   6.598 -0.5308 -2.0363 -0.3743
  124OSM    C1413127   5.144   0.691   6.437  0.1398  0.2868  0.7128
  124OSM   H14A13128   5.201   0.719   6.350 -0.8715  0.8917  0.2325
  124OSM   H14B13129   5.078   0.776   6.447 -0.0016  0.3750 -0.8494
  124OSM   H14C13130   5.078   0.606   6.425 -0.2191  0.4048  1.7338
  124OSM    C1313131   5.139   0.614   6.677  0.3374 -0.5055 -0.1394
  124OSM   H13A13132   5.080   0.701   6.702  0.2891 -0.5721 -0.0198
  124OSM   H13B13133   5.196   0.606   6.769 -4.3383  1.1020  3.3078
  124OSM   H13C13134   5.070   0.533   6.662 -0.0000 -0.9328  2.9487
  124OSM    C1213135   5.325   0.754   6.593 -0.1536  0.0320  0.5277
  124OSM   H12A13136   5.377   0.725   6.682  0.7285  0.0219  0.0185
  124OSM   H12B13137   5.263   0.841   6.609 -0.1439  0.5165 -1.6791
  124OSM    C1113138   5.426   0.806   6.482  0.1072 -0.3175 -0.6163
  124OSM   H11A13139   5.469   0.712   6.441 -0.9275 -1.8790  1.6527
  124OSM   H11B13140   5.505   0.864   6.535  0.9829 -1.1010 -1.0278
  124OSM      P13141   5.378   1.042   6.379  0.0871  0.0844  0.4687
  124OSM    O1313142   5.527   1.071   6.374 -0.0536  0.2962  0.3379
  124OSM    O1413143   5.293   1.095   6.273  0.4335  0.3230  0.5149
  124OSM    O1113144   5.312   1.095   6.521  0.5840  0.3328 -0.2316
  124OSM    O1213145   5.362   0.883   6.384 -0.6458  0.4515  0.6327
  124OSM    C1S13146   5.387   1.141   6.631 -0.1272 -0.3431  0.6036
  124OSM    H1S13147   5.445   1.233   6.609  1.4624 -1.3444  0.4468
  124OSM    H1T13148   5.466   1.067   6.655  0.6216  0.7570  1.6746
  124OSM     NF13149   5.381   1.188   6.874 -0.3394 -0.4681 -0.0332
  124OSM    HNF13150   5.405   1.108   6.930 -1.3244  1.1137  2.8889
  124OSM    C2S13151   5.301   1.160   6.756 -0.9651  0.0150  0.0060
  124OSM    H2S13152   5.239   1.252   6.748  1.1606  1.4253 -1.0646
  124OSM    C3S13153   5.213   1.035   6.778 -0.7680 -0.1173  0.2485
  124OSM    H3S13154   5.287   0.951   6.773  0.5320  0.8870  1.6428
  124OSM     O313155   5.122   1.016   6.674  0.3267 -0.5371 -0.0035
  124OSM    HO313156   5.155   1.066   6.599 -0.0398 -1.3448 -0.7246
  124OSM    C4S13157   5.143   1.035   6.912  0.0406 -0.5432  0.4513
  124OSM    H4S13158   5.206   0.989   6.990 -0.4614 -0.6527  0.7976
  124OSM    C5S13159   5.022   1.087   6.940  0.3395 -0.5566 -0.2778
  124OSM    H5S13160   4.958   1.136   6.865  2.2962  0.7886 -1.1660
  124OSM    C6S13161   4.963   1.081   7.074  0.4401  0.1475 -0.4209
  124OSM    H6S13162   4.871   1.019   7.077 -1.6285  3.0358  0.3869
  124OSM    H6T13163   4.922   1.181   7.099  0.3451 -0.2606  1.1621
  124OSM    C7S13164   5.059   1.035   7.188  1.0956 -0.5159 -0.5990
  124OSM    H7S13165   5.159   1.081   7.175  0.4395  1.1541 -0.1116
  124OSM    H7T13166   5.068   0.926   7.202 -0.0170 -0.5962 -0.3780
  124OSM    C8S13167   5.015   1.102   7.324  0.3244  0.7131 -0.3023
  124OSM    H8S13168   4.908   1.077   7.345  0.3653  0.1996 -0.6876
  124OSM    H8T13169   5.015   1.213   7.316 -0.8497  0.7122 -0.6172
  124OSM    C9S13170   5.113   1.055   7.425 -0.1482 -0.3843 -0.3503
  124OSM    H9S13171   5.216   1.083   7.394  0.6801 -3.9111 -1.2657
  124OSM    H9T13172   5.114   0.944   7.430  0.8052 -0.3420  0.8007
  124OSM   C10S13173   5.084   1.114   7.563  0.3696 -0.1026 -0.2240
  124OSM   H10S13174   4.989   1.065   7.594 -0.1428 -0.1794 -1.7912
  124OSM   H10T13175   5.076   1.225   7.568 -2.0807 -0.2476  0.1768
  124OSM   C11S13176   5.183   1.071   7.670 -0.1340 -0.0251 -0.0771
  124OSM   H11S13177   5.286   1.109   7.654  0.3551 -0.9660  0.7300
  124OSM   H11T13178   5.192   0.960   7.674  0.1804  0.0085  0.2685
  124OSM   C12S13179   5.148   1.117   7.812  0.3461 -0.2020  0.1236
  124OSM   H12S13180   5.055   1.066   7.842  0.1128 -0.5734 -1.1509
  124OSM   H12T13181   5.137   1.228   7.815 -1.9506 -0.3368 -1.0487
  124OSM   C13S13182   5.255   1.079   7.921  0.5677 -0.5742  0.6418
  124OSM   H13S13183   5.349   1.130   7.889 -0.1994  0.3073 -0.2954
  124OSM   H13T13184   5.269   0.969   7.914 -0.1517 -0.7629  1.8562
  124OSM   C14S13185   5.198   1.113   8.061  0.0906 -0.0421  0.3244
  124OSM   H14S13186   5.089   1.096   8.069  0.1944 -0.5064  0.7812
  124OSM   H14T13187   5.214   1.222   8.074 -2.3154  0.4121 -0.0575
  124OSM   C15S13188   5.272   1.041   8.173  0.6717  0.0314  0.2003
  124OSM   H15S13189   5.381   1.060   8.166  0.7754 -0.6002  0.0322
  124OSM   H15T13190   5.242   0.935   8.162  2.6092 -0.4306 -1.1569
  124OSM   C16S13191   5.220   1.106   8.309 -0.5318  0.3269 -0.2106
  124OSM   H16S13192   5.109   1.116   8.310 -0.5625  0.1524  2.0766
  124OSM   H16T13193   5.250   1.210   8.330 -3.7037  1.8632 -2.3979
  124OSM   C17S13194   5.247   1.018   8.437  0.7189 -0.8922 -0.0239
  124OSM   H17S13195   5.179   0.930   8.435  0.4638 -0.7294  1.0137
  124OSM   H17T13196   5.218   1.090   8.517 -0.8436 -0.8642 -0.5731
  124OSM   C18S13197   5.390   0.970   8.460  0.1757  0.3922 -0.3657
  124OSM   H18S13198   5.460   1.023   8.393  1.1924 -1.1572 -0.5803
  124OSM   H18T13199   5.388   0.867   8.416 -0.3623  1.2768 -2.5669
  124OSM   H18U13200   5.425   0.981   8.564  0.5808  0.1919 -0.4797
  124OSM    C1F13201   5.458   1.302   6.869 -0.5171 -0.2295 -1.5392
  124OSM     OF13202   5.437   1.395   6.791 -0.6798 -0.3153 -0.0184
  124OSM    C2F13203   5.580   1.300   6.961  0.0502  0.1123  0.2481
  124OSM    H2F13204   5.667   1.251   6.912  1.9504  1.4627  2.0844
  124OSM    H2G13205   5.548   1.248   7.054  3.7926 -0.6792  1.2945
  124OSM    C3F13206   5.621   1.445   6.993  0.7164 -0.2456  0.3607
  124OSM    H3F13207   5.555   1.477   7.077  0.3804  0.8613 -0.3044
  124OSM    H3G13208   5.605   1.517   6.910  1.1878  0.6922  1.0703
  124OSM    C4F13209   5.771   1.459   7.041  0.7876  0.2254  0.0333
  124OSM    H4F13210   5.834   1.474   6.951  0.9434 -2.2768 -0.3468
  124OSM    H4G13211   5.811   1.366   7.087 -0.4520 -0.4192 -0.1595
  124OSM    C5F13212   5.790   1.578   7.137  0.1763 -0.0637 -0.6388
  124OSM    H5F13213   5.687   1.607   7.168  0.5250  0.5912 -0.0740
  124OSM    H5G13214   5.824   1.663   7.075 -0.4381  0.5911 -0.0949
  124OSM    C6F13215   5.870   1.554   7.262  0.2075 -0.0041  0.1125
  124OSM    H6F13216   5.921   1.646   7.297  0.3062  0.4347 -1.1257
  124OSM    H6G13217   5.947   1.478   7.239  1.2624  1.2305 -0.5869
  124OSM    C7F13218   5.793   1.492   7.377 -0.5333 -0.9364  0.0875
  124OSM    H7F13219   5.748   1.410   7.317 -0.2841  0.9529 -2.9023
  124OSM    H7G13220   5.713   1.561   7.409  0.9346  1.0082 -0.2007
  124OSM    C8F13221   5.877   1.439   7.495 -0.1636 -0.5533  0.1072
  124OSM    H8F13222   5.956   1.366   7.467  0.3530  0.6456 -1.6898
  124OSM    H8G13223   5.809   1.384   7.563 -0.5452  0.5379  0.6258
  124OSM    C9F13224   5.931   1.554   7.574 -0.0871  0.3703 -0.3995
  124OSM    H9F13225   5.928   1.651   7.521  1.7666 -0.1506 -1.5441
  124OSM   C10F13226   5.995   1.550   7.696  0.3912  1.4821 -0.2202
  124OSM   H10F13227   6.044   1.636   7.743  0.8633  1.6201 -0.9545
  124OSM   C11F13228   6.019   1.418   7.772  0.1295 -0.0613 -0.1377
  124OSM   H11F13229   6.115   1.367   7.749  0.7365  0.2867  1.4743
  124OSM   H11G13230   5.944   1.342   7.739 -0.1877 -0.3428  1.1731
  124OSM   C12F13231   6.007   1.415   7.933  0.0767  0.1190 -0.1776
  124OSM   H12F13232   5.994   1.307   7.958  2.0899 -0.3005 -0.7398
  124OSM   H12G13233   5.914   1.471   7.957 -0.1598 -0.3750  0.0749
  124OSM   C13F13234   6.124   1.469   8.008 -0.3067 -0.4612  0.1457
  124OSM   H13F13235   6.134   1.576   7.978 -2.8595 -0.8154 -2.3857
  124OSM   H13G13236   6.213   1.412   7.976 -0.5046 -2.4946  2.8730
  124OSM   C14F13237   6.103   1.459   8.161  0.0031  0.6392  0.1570
  124OSM   H14F13238   6.077   1.355   8.193  0.7443  0.1959 -0.6623
  124OSM   H14G13239   6.020   1.529   8.186 -0.4584  0.7902 -1.6880
  124OSM   C15F13240   6.222   1.502   8.241 -0.1355  0.2206  0.2995
  124OSM   H15F13241   6.239   1.607   8.209 -1.3065 -0.2617 -2.1023
  124OSM   H15G13242   6.310   1.440   8.215 -0.4054  0.3631 -1.0147
  124OSM   C16F13243   6.198   1.521   8.392  0.2167 -0.1991 -0.5552
  124OSM   H16F13244   6.105   1.581   8.400  0.3631  0.0313 -0.5562
  124OSM   H16G13245   6.288   1.575   8.429 -0.8771  0.9777  0.5193
  124OSM   C17F13246   6.176   1.385   8.463  0.1075  0.1564  0.0042
  124OSM   H17F13247   6.265   1.329   8.429 -0.5635 -0.9650  0.0364
  124OSM   H17G13248   6.080   1.344   8.424 -0.5129  0.4351  1.1610
  124OSM   C18F13249   6.181   1.391   8.614  0.7969 -0.1090 -0.0424
  124OSM   H18F13250   6.259   1.460   8.654 -0.0800  0.2684  1.0918
  124OSM   H18G13251   6.169   1.292   8.662 -2.5173  0.8006  1.3306
  124OSM   H18H13252   6.088   1.445   8.645  1.6964  2.0275 -0.8458
  125OSM      N13253   2.424   6.026   6.233 -0.6109  0.3744  0.3115
  125OSM    C1513254   2.285   6.009   6.298 -0.0060 -0.7232  0.0568
  125OSM   H15A13255   2.292   5.949   6.388 -0.3301 -0.1182  0.4958
  125OSM   H15B13256   2.207   5.967   6.236  0.3599 -1.7315  0.2519
  125OSM   H15C13257   2.251   6.109   6.321  1.8046  0.2237 -1.1832
  125OSM    C1413258   2.474   5.897   6.176 -0.1887 -0.3684  0.6848
  125OSM   H14A13259   2.404   5.846   6.112  0.7270 -0.9145  0.0981
  125OSM   H14B13260   2.495   5.835   6.262  1.7409 -0.0524  0.4926
  125OSM   H14C13261   2.569   5.926   6.132 -0.3801 -0.9344 -0.1082
  125OSM    C1313262   2.429   6.121   6.119 -0.1415 -0.3148 -0.4032
  125OSM   H13A13263   2.408   6.222   6.151 -0.5532 -0.5720  0.1755
  125OSM   H13B13264   2.359   6.088   6.044  1.2702  0.1001 -1.9351
  125OSM   H13C13265   2.526   6.121   6.074 -0.3616 -2.4977 -1.0176
  125OSM    C1213266   2.521   6.070   6.351  0.0824  0.3689 -0.0159
  125OSM   H12A13267   2.614   6.085   6.298  0.1112 -1.3311 -0.5006
  125OSM   H12B13268   2.526   5.989   6.422 -2.4412 -1.0718 -1.3268
  125OSM    C1113269   2.486   6.196   6.435  0.3223 -0.0936 -0.1702
  125OSM   H11A13270   2.570   6.209   6.506 -0.0480 -0.0110  0.2539
  125OSM   H11B13271   2.395   6.179   6.496  0.3621  2.6863  0.8029
  125OSM      P13272   2.571   6.429   6.351  0.2092  0.1348  0.0183
  125OSM    O1313273   2.705   6.375   6.323  0.9552 -0.4951  0.2121
  125OSM    O1413274   2.532   6.529   6.248 -0.1893 -0.2810 -0.1470
  125OSM    O1113275   2.570   6.489   6.501  0.0002 -0.1979  0.3878
  125OSM    O1213276   2.465   6.316   6.361  0.0138  0.1979  0.8455
  125OSM    C1S13277   2.441   6.508   6.557 -0.0240  0.1271 -0.3977
  125OSM    H1S13278   2.377   6.418   6.540 -2.2409  1.3699  0.8310
  125OSM    H1T13279   2.396   6.588   6.493  0.5566  1.3469  0.6724
  125OSM     NF13280   2.275   6.595   6.704  0.4938 -0.3404 -0.3360
  125OSM    HNF13281   2.244   6.690   6.695 -0.1914 -0.4587  0.6099
  125OSM    C2S13282   2.417   6.565   6.694  0.4486  0.1442  0.3471
  125OSM    H2S13283   2.448   6.489   6.769  2.5325  1.6438  1.1251
  125OSM    C3S13284   2.508   6.688   6.722  0.0426 -0.5058 -0.5638
  125OSM    H3S13285   2.468   6.774   6.665  2.2244  1.2300  0.3958
  125OSM     O313286   2.646   6.674   6.687 -0.3511  0.3933  0.6457
  125OSM    HO313287   2.642   6.612   6.614  1.3866  0.1742  0.6929
  125OSM    C4S13288   2.490   6.724   6.875  0.2465 -0.1506 -0.1971
  125OSM    H4S13289   2.485   6.644   6.950 -0.2653 -0.8790 -0.9882
  125OSM    C5S13290   2.448   6.855   6.911 -0.7265 -0.1431 -0.4121
  125OSM    H5S13291   2.432   6.928   6.831 -2.5864  0.4993  0.4931
  125OSM    C6S13292   2.409   6.903   7.051 -0.2279 -0.5633 -0.7734
  125OSM    H6S13293   2.314   6.853   7.079  0.4199 -0.6617  1.4347
  125OSM    H6T13294   2.378   7.010   7.051 -1.5237 -0.9162 -1.4457
  125OSM    C7S13295   2.515   6.889   7.167 -0.2889  0.4638 -0.7783
  125OSM    H7S13296   2.600   6.950   7.129  0.0756 -0.2889 -1.1883
  125OSM    H7T13297   2.560   6.788   7.156  1.2524  0.4026  3.7185
  125OSM    C8S13298   2.482   6.919   7.307  0.9636  0.7907 -0.1644
  125OSM    H8S13299   2.411   6.842   7.345  1.1482  0.3860 -0.6187
  125OSM    H8T13300   2.439   7.021   7.299  0.6661  0.6861  0.1058
  125OSM    C9S13301   2.603   6.909   7.401 -0.0878  0.0518  0.4080
  125OSM    H9S13302   2.669   6.995   7.377  2.0846 -1.4846  0.5655
  125OSM    H9T13303   2.660   6.814   7.389  0.5214  0.5672 -1.0696
  125OSM   C10S13304   2.548   6.934   7.540  0.6202 -0.8420  0.1414
  125OSM   H10S13305   2.488   6.847   7.575  1.6848 -0.7560  2.3301
  125OSM   H10T13306   2.480   7.021   7.549 -2.4558 -3.2252  1.9751
  125OSM   C11S13307   2.653   6.957   7.653 -0.3299 -0.3645  0.2402
  125OSM   H11S13308   2.705   7.053   7.632 -0.9733 -0.1876 -0.5744
  125OSM   H11T13309   2.728   6.875   7.650  1.3359  1.1411 -1.4771
  125OSM   C12S13310   2.595   6.964   7.798  1.2026  0.0002 -0.2146
  125OSM   H12S13311   2.513   6.892   7.820  0.9653 -0.0419 -1.1833
  125OSM   H12T13312   2.539   7.059   7.813 -1.0657 -1.5033  1.6751
  125OSM   C13S13313   2.700   6.939   7.898 -0.1657  0.1375  0.1914
  125OSM   H13S13314   2.781   7.014   7.901  1.2498 -1.3050 -0.4893
  125OSM   H13T13315   2.754   6.847   7.867  0.3975  0.2991  0.6810
  125OSM   C14S13316   2.647   6.918   8.045 -0.4441  0.5877 -0.6543
  125OSM   H14S13317   2.572   6.837   8.058 -0.1744  0.5174  0.5976
  125OSM   H14T13318   2.603   7.016   8.074 -1.0350  0.0873  0.1918
  125OSM   C15S13319   2.762   6.891   8.142  0.6866  0.3240 -0.4741
  125OSM   H15S13320   2.812   6.991   8.145 -0.3370  0.9855 -3.0498
  125OSM   H15T13321   2.834   6.816   8.103  0.6793 -1.2776  2.3108
  125OSM   C16S13322   2.725   6.839   8.282  0.1499  0.2096 -0.3577
  125OSM   H16S13323   2.734   6.728   8.289  0.1455  0.2300  0.0067
  125OSM   H16T13324   2.618   6.859   8.301  0.6457  1.1870  1.6477
  125OSM   C17S13325   2.808   6.888   8.402 -0.1760  0.0922 -0.1323
  125OSM   H17S13326   2.912   6.852   8.387 -0.7625 -0.7887 -2.7366
  125OSM   H17T13327   2.783   6.828   8.492 -0.0478  0.5104  0.1865
  125OSM   C18S13328   2.786   7.043   8.413  0.2141 -0.0006 -0.0989
  125OSM   H18S13329   2.822   7.087   8.509 -0.6396  2.3914 -0.7927
  125OSM   H18T13330   2.676   7.057   8.410  0.3785  1.8612  1.0708
  125OSM   H18U13331   2.835   7.101   8.333  1.3700 -0.2408  0.4215
  125OSM    C1F13332   2.186   6.500   6.717 -0.2784 -0.0850 -0.0895
  125OSM     OF13333   2.212   6.380   6.719 -0.5164  0.5422  0.2922
  125OSM    C2F13334   2.041   6.544   6.727  0.1723 -0.0598  0.3900
  125OSM    H2F13335   1.974   6.506   6.647 -2.6920  0.2258  2.4808
  125OSM    H2G13336   2.040   6.654   6.713  1.1050 -0.1644 -0.6384
  125OSM    C3F13337   1.973   6.514   6.864  0.0470 -0.3017  0.6736
  125OSM    H3F13338   1.987   6.404   6.873  1.1199 -0.3020 -0.5461
  125OSM    H3G13339   1.867   6.544   6.853 -0.3611 -2.1769 -1.5428
  125OSM    C4F13340   2.040   6.588   6.982 -0.3445 -0.0982 -0.6529
  125OSM    H4F13341   2.030   6.699   6.975  0.9482  0.0741 -0.1449
  125OSM    H4G13342   2.149   6.571   6.998 -0.5488  0.6249  2.0708
  125OSM    C5F13343   1.960   6.552   7.117 -0.0503 -0.1447 -0.7664
  125OSM    H5F13344   1.919   6.450   7.102  3.5077 -1.8466 -0.0504
  125OSM    H5G13345   1.873   6.619   7.133 -0.4701 -0.7267 -0.5506
  125OSM    C6F13346   2.047   6.531   7.240  0.3324 -0.8725  0.4289
  125OSM    H6F13347   2.098   6.620   7.284  2.4408 -3.0641  2.6794
  125OSM    H6G13348   2.131   6.460   7.224  1.6161  0.6085  0.2781
  125OSM    C7F13349   1.970   6.464   7.348  0.5185 -0.5236  0.2214
  125OSM    H7F13350   1.927   6.368   7.312  1.4908 -1.6277  1.8812
  125OSM    H7G13351   1.891   6.526   7.394  0.1504 -1.7581  1.3163
  125OSM    C8F13352   2.060   6.416   7.467 -0.3168 -1.1058 -0.4483
  125OSM    H8F13353   2.146   6.351   7.438 -1.2530 -2.7518  0.3378
  125OSM    H8G13354   2.005   6.342   7.529  1.3831 -2.2681 -0.2661
  125OSM    C9F13355   2.110   6.533   7.556 -0.4958  0.7143 -0.2977
  125OSM    H9F13356   2.140   6.619   7.496  0.4029  1.4845  1.2014
  125OSM   C10F13357   2.118   6.552   7.688  0.4645 -0.1934  0.1769
  125OSM   H10F13358   2.147   6.654   7.716  1.4367 -0.1988 -0.7510
  125OSM   C11F13359   2.086   6.452   7.797 -0.6099 -0.1077 -0.5968
  125OSM   H11F13360   2.112   6.346   7.775  1.1239  0.5571 -1.9612
  125OSM   H11G13361   1.976   6.447   7.807 -0.4495 -1.3031  0.9953
  125OSM   C12F13362   2.142   6.497   7.943 -0.6540 -0.1449  0.0736
  125OSM   H12F13363   2.085   6.436   8.016  3.0030 -1.1129  2.3833
  125OSM   H12G13364   2.120   6.603   7.968  0.3307 -0.2916  1.6749
  125OSM   C13F13365   2.291   6.488   7.963 -0.0601  0.3619  0.1000
  125OSM   H13F13366   2.337   6.540   7.876 -0.1415 -0.0489 -0.1884
  125OSM   H13G13367   2.328   6.384   7.955  2.2055  0.7999  3.0875
  125OSM   C14F13368   2.335   6.557   8.091 -0.2477  0.8535 -0.1070
  125OSM   H14F13369   2.318   6.665   8.077 -1.3931  0.7563  0.4277
  125OSM   H14G13370   2.439   6.522   8.111 -0.5022 -0.9884 -1.7127
  125OSM   C15F13371   2.257   6.511   8.217  0.1428 -0.0134 -0.5249
  125OSM   H15F13372   2.232   6.403   8.209 -3.1888  0.7178 -1.5395
  125OSM   H15G13373   2.161   6.565   8.206  0.5568  0.9403  0.4117
  125OSM   C16F13374   2.316   6.549   8.348 -0.4427 -0.4864 -0.2111
  125OSM   H16F13375   2.409   6.490   8.365 -0.9722 -0.8013  1.8998
  125OSM   H16G13376   2.253   6.506   8.430  0.1428 -1.2899 -0.1664
  125OSM   C17F13377   2.329   6.700   8.380 -0.4674 -0.3177  0.2983
  125OSM   H17F13378   2.226   6.740   8.372 -0.5308 -0.4758  0.3360
  125OSM   H17G13379   2.398   6.738   8.300 -0.7576 -0.0865  0.1553
  125OSM   C18F13380   2.386   6.732   8.520  0.2617 -0.4509  0.0903
  125OSM   H18F13381   2.489   6.694   8.540  0.5516  0.4927  0.4426
  125OSM   H18G13382   2.316   6.696   8.598 -0.3846 -0.2013 -0.3676
  125OSM   H18H13383   2.386   6.843   8.531  0.4819 -0.6232  2.1374
  126OSM      N13384   6.265   3.409   6.671  0.6198  0.9525  0.7903
  126OSM    C1513385   6.192   3.506   6.589 -0.5448 -0.5020  0.1997
  126OSM   H15A13386   6.093   3.478   6.557 -0.8800  2.2917 -1.5036
  126OSM   H15B13387   6.246   3.531   6.499  1.5635 -1.5165  1.1130
  126OSM   H15C13388   6.170   3.598   6.641 -0.7513 -0.3514 -0.1521
  126OSM    C1413389   6.173   3.358   6.778  0.0931 -0.1805  0.3486
  126OSM   H14A13390   6.218   3.302   6.858  0.0583  1.8971  1.9058
  126OSM   H14B13391   6.093   3.298   6.737  1.0800 -1.6236  0.4711
  126OSM   H14C13392   6.123   3.445   6.818 -0.2035 -0.4126  0.4809
  126OSM    C1313393   6.294   3.281   6.586 -0.4437 -0.8965 -1.1945
  126OSM   H13A13394   6.201   3.247   6.541 -0.4523 -0.3450 -1.6098
  126OSM   H13B13395   6.325   3.200   6.649  0.8685  0.8163  0.4581
  126OSM   H13C13396   6.354   3.303   6.499 -0.6247 -1.1701 -1.3897
  126OSM    C1213397   6.397   3.456   6.725 -0.6053  0.8819 -0.6037
  126OSM   H12A13398   6.458   3.469   6.637 -0.5526  1.5264 -0.4771
  126OSM   H12B13399   6.437   3.372   6.780 -1.7505  1.5568  1.3837
  126OSM    C1113400   6.402   3.576   6.814 -0.1713  0.8911 -0.5093
  126OSM   H11A13401   6.509   3.587   6.841  0.0417  0.4085 -1.1082
  126OSM   H11B13402   6.344   3.560   6.907  0.1476  3.0045  0.0955
  126OSM      P13403   6.446   3.785   6.669  0.2443 -0.5403 -0.0987
  126OSM    O1313404   6.555   3.713   6.607  0.3751  0.2018  0.0594
  126OSM    O1413405   6.361   3.867   6.584 -0.1634 -0.4819 -0.0421
  126OSM    O1113406   6.505   3.880   6.772  0.3106  0.1141 -0.5847
  126OSM    O1213407   6.352   3.691   6.753  0.3114  0.2166 -0.3414
  126OSM    C1S13408   6.430   3.940   6.885  0.6747 -0.2242 -0.4665
  126OSM    H1S13409   6.339   3.880   6.909 -0.0575  0.7555 -0.7140
  126OSM    H1T13410   6.398   4.041   6.851  1.2102 -0.5237 -1.9259
  126OSM     NF13411   6.440   3.967   7.127 -0.0864 -0.3667 -0.3992
  126OSM    HNF13412   6.420   4.061   7.155  0.8167 -0.7611  1.7654
  126OSM    C2S13413   6.520   3.937   7.010  0.7289 -0.3835  0.0961
  126OSM    H2S13414   6.557   3.834   7.029 -1.1787 -0.9427  0.9122
  126OSM    C3S13415   6.635   4.040   6.987 -0.6787  0.0309 -0.0538
  126OSM    H3S13416   6.598   4.145   6.983 -1.9403 -0.4335 -1.2870
  126OSM     O313417   6.700   4.017   6.857  0.6115 -0.3996 -0.1301
  126OSM    HO313418   6.640   3.952   6.819 -0.8058  0.0932  1.1783
  126OSM    C4S13419   6.737   4.037   7.095 -0.8273  0.0621 -1.3835
  126OSM    H4S13420   6.743   4.128   7.156  2.0597 -0.8203 -0.1579
  126OSM    C5S13421   6.840   3.944   7.116 -0.1530  0.7027 -0.2177
  126OSM    H5S13422   6.850   3.859   7.047  1.0321  1.9254 -1.6267
  126OSM    C6S13423   6.956   3.950   7.220  0.4878 -0.0255 -0.3629
  126OSM    H6S13424   7.051   3.943   7.162  1.2655  1.6133  0.6503
  126OSM    H6T13425   6.945   3.855   7.276  1.7524 -2.5437 -3.9731
  126OSM    C7S13426   6.976   4.075   7.308  0.2050  0.3662 -0.0514
  126OSM    H7S13427   6.884   4.109   7.361 -1.2887  1.0883 -2.9195
  126OSM    H7T13428   7.000   4.159   7.240 -0.0803 -1.1289 -2.0932
  126OSM    C8S13429   7.085   4.059   7.417  0.9569 -0.0235 -0.5152
  126OSM    H8S13430   7.097   4.155   7.471  0.6891 -0.4743  0.3568
  126OSM    H8T13431   7.187   4.039   7.376  1.1370  0.6653 -0.4182
  126OSM    C9S13432   7.050   3.969   7.538 -0.5403  0.0424 -0.3165
  126OSM    H9S13433   7.033   3.864   7.507 -1.1500  0.2526 -0.7032
  126OSM    H9T13434   6.953   4.003   7.581  0.3095  0.1571  1.6057
  126OSM   C10S13435   7.161   3.973   7.642 -1.0551 -0.2110 -0.7002
  126OSM   H10S13436   7.188   4.079   7.661 -0.5655 -0.1728 -1.5524
  126OSM   H10T13437   7.258   3.938   7.600 -1.1880 -0.7386 -0.5732
  126OSM   C11S13438   7.129   3.911   7.776 -0.2187  0.5304 -0.7477
  126OSM   H11S13439   7.111   3.801   7.772 -1.8058  0.7311  0.2426
  126OSM   H11T13440   7.046   3.966   7.825 -0.6137  0.4881 -1.3541
  126OSM   C12S13441   7.259   3.927   7.860 -0.5298 -0.2557  0.0653
  126OSM   H12S13442   7.273   4.034   7.888 -1.6261  0.3684 -1.5973
  126OSM   H12T13443   7.354   3.907   7.807 -0.7769  0.7699 -0.8095
  126OSM   C13S13444   7.253   3.847   7.998 -0.3778  0.7225 -0.4533
  126OSM   H13S13445   7.243   3.739   7.973  0.1347  0.4024  0.6923
  126OSM   H13T13446   7.153   3.870   8.041  0.2594 -0.4703  1.8380
  126OSM   C14S13447   7.373   3.879   8.091  1.0057  0.3422 -0.4247
  126OSM   H14S13448   7.373   3.984   8.125  0.1325  0.3068 -0.2749
  126OSM   H14T13449   7.459   3.833   8.038  1.1479 -0.1977  0.2553
  126OSM   C15S13450   7.360   3.788   8.211  0.0362  0.4168  0.0724
  126OSM   H15S13451   7.365   3.679   8.191  0.4277  0.1450  1.5217
  126OSM   H15T13452   7.268   3.804   8.271  0.4627  0.6293  0.6874
  126OSM   C16S13453   7.476   3.816   8.311 -0.5731  0.4959 -0.5821
  126OSM   H16S13454   7.445   3.892   8.385 -1.1433 -0.5934  0.3290
  126OSM   H16T13455   7.565   3.862   8.262  1.5771  0.9639  3.3792
  126OSM   C17S13456   7.523   3.693   8.389  0.0652  0.0247  0.7297
  126OSM   H17S13457   7.611   3.715   8.452  1.3656 -3.1657  0.1876
  126OSM   H17T13458   7.574   3.626   8.317  0.3556  0.6434  0.3527
  126OSM   C18S13459   7.418   3.615   8.467  0.7048 -0.1934  0.3744
  126OSM   H18S13460   7.456   3.518   8.505  1.1899 -0.4516 -0.7276
  126OSM   H18T13461   7.332   3.589   8.401  1.5141 -0.4469 -0.6079
  126OSM   H18U13462   7.388   3.676   8.555  0.0486 -1.2429  0.8954
  126OSM    C1F13463   6.362   3.869   7.179  0.4052  0.8924  0.7070
  126OSM     OF13464   6.354   3.756   7.125  0.5836  0.4090  0.1463
  126OSM    C2F13465   6.293   3.914   7.307 -0.3461  0.1715 -0.0269
  126OSM    H2F13466   6.252   4.016   7.298  1.3370  1.0219  1.2338
  126OSM    H2G13467   6.378   3.911   7.379 -0.5637 -1.8285  0.2176
  126OSM    C3F13468   6.181   3.816   7.355 -0.3563 -0.3788  0.3835
  126OSM    H3F13469   6.225   3.715   7.362 -0.9630 -0.7779 -1.2215
  126OSM    H3G13470   6.097   3.805   7.283  0.0694  2.1382 -0.6035
  126OSM    C4F13471   6.112   3.866   7.483  0.1086  0.1468 -0.3322
  126OSM    H4F13472   6.191   3.888   7.557  0.2681  0.9588 -0.7269
  126OSM    H4G13473   6.035   3.795   7.518 -0.2017 -0.4801 -2.1584
  126OSM    C5F13474   6.038   3.996   7.478 -0.4566 -0.0565  1.1206
  126OSM    H5F13475   5.981   4.017   7.384 -0.5481  0.1990  1.2303
  126OSM    H5G13476   6.121   4.069   7.469  1.0871 -2.0242 -2.5610
  126OSM    C6F13477   5.951   4.027   7.604 -1.0433 -0.2486  0.5225
  126OSM    H6F13478   5.886   3.937   7.613 -2.1257  0.3877 -0.6155
  126OSM    H6G13479   5.881   4.113   7.599 -0.5036  0.1229 -1.6426
  126OSM    C7F13480   6.033   4.032   7.731 -0.0040 -0.4106  0.5795
  126OSM    H7F13481   6.098   4.122   7.719  0.2542 -0.7095 -0.3970
  126OSM    H7G13482   6.103   3.946   7.730  0.4199 -0.0962 -1.2783
  126OSM    C8F13483   5.966   4.036   7.874  0.1302 -0.1479  0.2604
  126OSM    H8F13484   5.898   3.951   7.892 -0.7698  0.8834  1.9746
  126OSM    H8G13485   5.888   4.116   7.875 -0.9708 -1.0317 -2.6927
  126OSM    C9F13486   6.069   4.057   7.980 -0.2532 -0.3098  0.2089
  126OSM    H9F13487   6.077   4.163   8.009  2.2282 -0.0031 -1.2762
  126OSM   C10F13488   6.142   3.968   8.050  0.9077 -0.3757  0.9683
  126OSM   H10F13489   6.212   4.005   8.127  1.9962  1.2941 -0.7285
  126OSM   C11F13490   6.134   3.820   8.030  0.3231  0.4867  0.0892
  126OSM   H11F13491   6.233   3.782   7.995  0.0218 -0.3465  0.1184
  126OSM   H11G13492   6.069   3.787   7.946  0.8388  2.6103 -1.2464
  126OSM   C12F13493   6.103   3.745   8.165 -0.2600 -0.0455  0.1800
  126OSM   H12F13494   6.182   3.773   8.238  0.3409  1.7678 -1.0724
  126OSM   H12G13495   6.117   3.637   8.147 -1.8005  0.0033 -1.5357
  126OSM   C13F13496   5.961   3.773   8.211 -0.9753  0.1978  0.5182
  126OSM   H13F13497   5.883   3.730   8.144 -1.7974  0.2280  1.4425
  126OSM   H13G13498   5.921   3.876   8.217  0.7738  0.8965  0.6639
  126OSM   C14F13499   5.958   3.707   8.351 -0.1627 -0.2307  0.3119
  126OSM   H14F13500   6.048   3.728   8.411  0.4166 -0.3783 -0.4913
  126OSM   H14G13501   5.950   3.598   8.333 -1.9959 -0.0907  0.0554
  126OSM   C15F13502   5.837   3.750   8.444  0.0637  0.2222  0.0499
  126OSM   H15F13503   5.831   3.859   8.464  2.3593  0.0569  2.3412
  126OSM   H15G13504   5.856   3.705   8.545  1.0423  2.4988  0.9422
  126OSM   C16F13505   5.702   3.682   8.399  0.2019 -0.0158  0.4530
  126OSM   H16F13506   5.735   3.595   8.339  1.1752 -0.1750  1.1798
  126OSM   H16G13507   5.646   3.751   8.333  0.4841  0.6313  0.8705
  126OSM   C17F13508   5.613   3.641   8.520 -0.3678 -0.0252 -0.3792
  126OSM   H17F13509   5.658   3.555   8.574 -0.1593  0.5441  0.3786
  126OSM   H17G13510   5.512   3.605   8.489 -3.0068  4.8176  1.4210
  126OSM   C18F13511   5.582   3.751   8.619  0.3677  0.0904  0.3706
  126OSM   H18F13512   5.668   3.751   8.689  0.9536  0.0263 -0.3458
  126OSM   H18G13513   5.486   3.730   8.671  0.4424 -0.0394  0.4566
  126OSM   H18H13514   5.578   3.850   8.569  0.1912 -0.8639 -1.5712
  127OSM      N13515   5.366   4.894   6.186 -0.0040 -0.2120  0.0120
  127OSM    C1513516   5.347   5.037   6.143 -0.2935 -0.1551  0.2386
  127OSM   H15A13517   5.341   5.037   6.036  2.0222 -0.2824  0.0648
  127OSM   H15B13518   5.437   5.092   6.168 -1.2406  1.5940  0.0123
  127OSM   H15C13519   5.270   5.094   6.194  0.4208  1.4213 -0.3776
  127OSM    C1413520   5.453   4.816   6.088 -0.1608  0.4151  0.0952
  127OSM   H14A13521   5.447   4.710   6.107  3.5493  0.3420  1.7097
  127OSM   H14B13522   5.555   4.848   6.106 -0.1071  0.9451 -1.0772
  127OSM   H14C13523   5.419   4.828   5.987 -2.5947 -0.3449  0.7579
  127OSM    C1313524   5.427   4.899   6.321 -0.5123  0.7874  0.1279
  127OSM   H13A13525   5.532   4.919   6.305 -0.4300  0.3191  0.0635
  127OSM   H13B13526   5.405   4.807   6.372 -1.5957  0.3416 -1.0831
  127OSM   H13C13527   5.392   4.988   6.372 -0.0273  0.2774  1.3789
  127OSM    C1213528   5.230   4.827   6.194  0.2258 -0.3607  0.2891
  127OSM   H12A13529   5.240   4.720   6.205 -1.6069 -0.5759  0.1298
  127OSM   H12B13530   5.174   4.841   6.103 -0.2809  2.1305  0.9063
  127OSM    C1113531   5.138   4.880   6.298  0.4700  0.1464  1.0713
  127OSM   H11A13532   5.118   4.989   6.300 -1.2718 -0.1441  2.8066
  127OSM   H11B13533   5.170   4.861   6.403 -1.2045  1.1676  1.8167
  127OSM      P13534   4.886   4.869   6.364 -0.4167 -0.0109 -0.0551
  127OSM    O1313535   4.864   5.008   6.326  0.3607 -0.5773  0.4232
  127OSM    O1413536   4.770   4.783   6.353  0.5352 -0.1636  0.1204
  127OSM    O1113537   4.937   4.870   6.510 -0.5359  0.4717 -0.0679
  127OSM    O1213538   5.011   4.809   6.279 -0.3328  0.1473  0.3876
  127OSM    C1S13539   4.854   4.907   6.622 -0.2875  0.1055  0.0980
  127OSM    H1S13540   4.761   4.845   6.624  0.7734 -1.5633 -0.0153
  127OSM    H1T13541   4.850   5.017   6.614  1.3395  0.1116 -1.0531
  127OSM     NF13542   4.842   4.886   6.868  0.3606 -0.8553  0.0409
  127OSM    HNF13543   4.859   4.956   6.937  1.7972 -1.1209 -0.0035
  127OSM    C2S13544   4.932   4.876   6.758  0.1977 -0.2116 -0.8949
  127OSM    H2S13545   4.954   4.767   6.756  2.7952  0.1726  1.0067
  127OSM    C3S13546   5.061   4.960   6.772 -0.4862  0.1720  0.0236
  127OSM    H3S13547   5.023   5.058   6.807  0.6163 -0.0306  1.9434
  127OSM     O313548   5.140   4.983   6.653  0.0400 -0.7002 -0.2799
  127OSM    HO313549   5.070   4.964   6.590 -2.2690 -0.5776  2.0747
  127OSM    C4S13550   5.154   4.894   6.870 -0.1996  0.8473  1.0726
  127OSM    H4S13551   5.148   4.784   6.870  0.5766  0.7760 -0.7131
  127OSM    C5S13552   5.236   4.957   6.957  0.4477  0.4878 -0.5065
  127OSM    H5S13553   5.237   5.067   6.962  1.6872  0.4310  1.1795
  127OSM    C6S13554   5.322   4.891   7.056 -0.0416 -0.8892 -0.3233
  127OSM    H6S13555   5.426   4.898   7.018 -0.1360  0.0654 -0.4414
  127OSM    H6T13556   5.279   4.790   7.073 -1.2160 -0.0647  2.2031
  127OSM    C7S13557   5.333   4.951   7.197 -0.4976 -0.6546  0.3801
  127OSM    H7S13558   5.232   4.972   7.237 -0.3102 -0.1089  0.5625
  127OSM    H7T13559   5.391   5.044   7.180 -0.3306 -0.7529  0.4014
  127OSM    C8S13560   5.415   4.857   7.298  0.0280 -0.0263  0.3336
  127OSM    H8S13561   5.518   4.899   7.296 -0.2967  0.7836 -1.2841
  127OSM    H8T13562   5.407   4.751   7.266  1.9488 -0.1630  0.2065
  127OSM    C9S13563   5.369   4.879   7.438 -0.3454 -0.0417  0.6325
  127OSM    H9S13564   5.259   4.863   7.448 -0.2335 -0.8023  0.7557
  127OSM    H9T13565   5.379   4.986   7.466  1.4997 -0.5745  2.2031
  127OSM   C10S13566   5.452   4.796   7.538  0.0001 -0.4581 -0.2274
  127OSM   H10S13567   5.559   4.821   7.520  0.1023 -2.2604 -2.6089
  127OSM   H10T13568   5.440   4.689   7.510  1.9934 -0.5224 -0.9783
  127OSM   C11S13569   5.411   4.830   7.684  0.2634  0.3763  0.1141
  127OSM   H11S13570   5.306   4.799   7.702  1.3597 -1.8155  3.9593
  127OSM   H11T13571   5.417   4.939   7.701  1.2733  0.4096 -0.3761
  127OSM   C12S13572   5.493   4.759   7.786 -0.0884  0.7012 -0.7378
  127OSM   H12S13573   5.603   4.773   7.780  0.1799 -1.3024 -1.3561
  127OSM   H12T13574   5.483   4.649   7.770  1.2637  0.1931  1.4798
  127OSM   C13S13575   5.445   4.801   7.924  0.2820 -0.0328  0.5315
  127OSM   H13S13576   5.335   4.785   7.932  0.7130 -3.5560  0.6520
  127OSM   H13T13577   5.462   4.909   7.943 -0.1611 -0.1502  1.6651
  127OSM   C14S13578   5.507   4.719   8.036  0.1047 -0.1090 -0.1884
  127OSM   H14S13579   5.616   4.737   8.034  0.0747 -0.0115 -1.2066
  127OSM   H14T13580   5.477   4.615   8.011  1.3112 -0.4653 -0.2165
  127OSM   C15S13581   5.454   4.769   8.170 -0.2813 -0.1033 -0.3109
  127OSM   H15S13582   5.343   4.775   8.172 -0.3418 -0.4644 -1.8252
  127OSM   H15T13583   5.492   4.873   8.183 -0.4002  0.0613 -1.2227
  127OSM   C16S13584   5.506   4.682   8.290 -0.1911  0.7707  0.7300
  127OSM   H16S13585   5.480   4.574   8.291  1.1305  0.4275  1.5403
  127OSM   H16T13586   5.458   4.723   8.382  0.4562  2.2830  0.4322
  127OSM   C17S13587   5.656   4.686   8.305  0.1410 -0.1753  0.2108
  127OSM   H17S13588   5.682   4.790   8.335 -1.4239 -0.7780  4.2599
  127OSM   H17T13589   5.696   4.643   8.210 -0.7209 -0.9159  0.1739
  127OSM   C18S13590   5.717   4.604   8.415 -0.4651  0.3635 -0.5636
  127OSM   H18S13591   5.786   4.678   8.461 -2.0686  1.9518 -0.6169
  127OSM   H18T13592   5.756   4.508   8.374  0.2415 -0.0173  0.9242
  127OSM   H18U13593   5.638   4.571   8.485 -3.2235 -2.2888 -4.4736
  127OSM    C1F13594   4.737   4.803   6.881 -0.2363  0.6779  0.1789
  127OSM     OF13595   4.733   4.702   6.812 -0.6281 -0.0533 -0.0639
  127OSM    C2F13596   4.632   4.845   6.977 -0.7753 -0.2166 -0.1369
  127OSM    H2F13597   4.548   4.905   6.934 -1.7552 -1.1587  0.4214
  127OSM    H2G13598   4.681   4.905   7.056 -0.5813 -0.6064  0.0395
  127OSM    C3F13599   4.557   4.735   7.052  0.7640  0.1667 -1.0088
  127OSM    H3F13600   4.629   4.708   7.133 -2.4008 -1.3344  1.5043
  127OSM    H3G13601   4.533   4.657   6.977  1.6216  0.4940 -1.6450
  127OSM    C4F13602   4.428   4.784   7.110 -0.1004  0.2153  0.3888
  127OSM    H4F13603   4.374   4.696   7.151  0.9835 -1.6283 -1.8936
  127OSM    H4G13604   4.369   4.824   7.025 -0.5869 -2.2930 -0.5306
  127OSM    C5F13605   4.448   4.887   7.225  0.3263 -0.0781  0.3624
  127OSM    H5F13606   4.376   4.971   7.215 -2.4360 -2.5742 -2.8710
  127OSM    H5G13607   4.548   4.936   7.220  0.6923 -0.9665 -2.2004
  127OSM    C6F13608   4.454   4.824   7.359  0.4208 -0.2763 -0.8833
  127OSM    H6F13609   4.539   4.753   7.366 -0.2102 -1.2899 -2.7097
  127OSM    H6G13610   4.355   4.777   7.380  0.2382  1.0872  1.7535
  127OSM    C7F13611   4.476   4.927   7.476  0.8625 -0.1388 -0.1908
  127OSM    H7F13612   4.380   4.983   7.485  1.2478  0.5405 -0.2320
  127OSM    H7G13613   4.552   5.001   7.444  0.0290  0.2118 -1.4554
  127OSM    C8F13614   4.515   4.874   7.615  0.3735 -0.1200  0.8568
  127OSM    H8F13615   4.553   4.955   7.681  2.7411 -0.3131 -0.1517
  127OSM    H8G13616   4.606   4.812   7.599 -0.7735 -1.4275 -0.9859
  127OSM    C9F13617   4.411   4.783   7.676  0.3629 -0.2814  0.3072
  127OSM    H9F13618   4.311   4.785   7.629  1.2120  2.4413 -1.6073
  127OSM   C10F13619   4.433   4.682   7.765 -0.6838 -0.2711 -0.3588
  127OSM   H10F13620   4.351   4.620   7.805  0.0386  0.0620  1.7860
  127OSM   C11F13621   4.570   4.644   7.821  0.0193 -0.2753  0.6849
  127OSM   H11F13622   4.653   4.670   7.752 -0.3695 -1.1460 -0.1405
  127OSM   H11G13623   4.578   4.535   7.839 -0.5791 -1.0969 -3.1144
  127OSM   C12F13624   4.596   4.718   7.952 -0.0281  0.8813  0.0854
  127OSM   H12F13625   4.573   4.826   7.943  0.6475  0.9102 -1.6671
  127OSM   H12G13626   4.706   4.709   7.965 -0.0462  0.5790  0.0397
  127OSM   C13F13627   4.529   4.648   8.067  0.6961 -0.2609 -0.6509
  127OSM   H13F13628   4.572   4.546   8.076  0.7978 -0.0984  1.1239
  127OSM   H13G13629   4.420   4.634   8.053  0.7147 -0.6029 -0.4580
  127OSM   C14F13630   4.540   4.710   8.203 -0.0177 -0.0530  0.0055
  127OSM   H14F13631   4.644   4.739   8.230  0.1693  0.0453 -0.8093
  127OSM   H14G13632   4.495   4.626   8.262 -1.2682 -1.0975 -2.3109
  127OSM   C15F13633   4.450   4.834   8.212 -0.2986 -0.4482 -0.3894
  127OSM   H15F13634   4.356   4.813   8.157 -0.7209 -2.1985  0.8920
  127OSM   H15G13635   4.505   4.920   8.169  5.1628 -4.0470 -1.5075
  127OSM   C16F13636   4.397   4.856   8.352 -0.1238 -0.2191 -0.0659
  127OSM   H16F13637   4.481   4.873   8.423  0.3624 -0.6175 -0.5384
  127OSM   H16G13638   4.345   4.763   8.383 -1.4391  0.6110  0.3287
  127OSM   C17F13639   4.293   4.976   8.362  0.2661 -0.0224 -0.0233
  127OSM   H17F13640   4.253   5.000   8.463  0.2847 -3.1965  0.8401
  127OSM   H17G13641   4.203   4.927   8.318  0.2760 -0.1939  0.1455
  127OSM   C18F13642   4.318   5.109   8.288  0.1281 -0.5334  0.6326
  127OSM   H18F13643   4.409   5.168   8.316  0.2460 -0.2001 -0.3893
  127OSM   H18G13644   4.229   5.174   8.299 -0.2000 -0.2563 -2.5516
  127OSM   H18H13645   4.336   5.079   8.182  1.2347  2.8940 -0.3132
  128OSM      N13646   2.505   1.852   6.137 -0.0051 -0.1742  0.1813
  128OSM    C1513647   2.654   1.883   6.125 -0.5986 -0.4378  0.4877
  128OSM   H15A13648   2.681   1.970   6.182 -3.4655 -0.6626  2.4235
  128OSM   H15B13649   2.681   1.893   6.021  0.0112 -0.4917  0.6361
  128OSM   H15C13650   2.711   1.799   6.163 -1.0053 -0.7603  0.4012
  128OSM    C1413651   2.432   1.949   6.055 -0.5150  0.4551  0.1404
  128OSM   H14A13652   2.445   1.934   5.949  0.4738  2.3859 -0.0717
  128OSM   H14B13653   2.473   2.049   6.065 -2.0686  1.2457 -0.9429
  128OSM   H14C13654   2.328   1.950   6.086 -0.6581 -2.9987  0.1355
  128OSM    C1313655   2.486   1.716   6.083  0.1293 -0.5321  0.2948
  128OSM   H13A13656   2.545   1.643   6.137 -0.0981 -0.9190  0.0216
  128OSM   H13B13657   2.508   1.709   5.978 -0.4667 -1.1318  0.2042
  128OSM   H13C13658   2.382   1.687   6.090 -0.4966  1.6686  0.8310
  128OSM    C1213659   2.467   1.867   6.285  0.0816 -0.3143 -0.5141
  128OSM   H12A13660   2.530   1.805   6.348  0.4567  0.5393 -0.0412
  128OSM   H12B13661   2.369   1.823   6.298  0.3804 -1.0109 -0.5213
  128OSM    C1113662   2.461   2.005   6.355 -0.1070 -0.1109  0.4575
  128OSM   H11A13663   2.438   2.003   6.464  1.7351  2.2263  0.9847
  128OSM   H11B13664   2.383   2.056   6.295 -0.7712 -1.3794  0.2062
  128OSM      P13665   2.624   2.213   6.302  0.5562 -0.3865 -0.0544
  128OSM    O1313666   2.768   2.218   6.262  0.0906 -0.0535  1.0333
  128OSM    O1413667   2.529   2.266   6.200  1.0653  0.3469  0.0719
  128OSM    O1113668   2.614   2.304   6.433 -0.4843  0.5248  0.4717
  128OSM    O1213669   2.588   2.070   6.348 -0.0014  0.2618  0.5983
  128OSM    C1S13670   2.687   2.244   6.540  0.4839 -0.1570 -0.3453
  128OSM    H1S13671   2.797   2.247   6.526  0.5416  1.7844  0.2612
  128OSM    H1T13672   2.654   2.141   6.565 -1.8707  0.8636  1.0714
  128OSM     NF13673   2.736   2.330   6.776  0.5515 -0.6864 -0.4640
  128OSM    HNF13674   2.699   2.281   6.855 -0.5299  1.6795  0.5837
  128OSM    C2S13675   2.646   2.335   6.659 -0.0681 -0.1640 -1.1205
  128OSM    H2S13676   2.643   2.440   6.625  0.3537  0.6319  1.1286
  128OSM    C3S13677   2.505   2.285   6.709  0.5382  0.1090 -0.5678
  128OSM    H3S13678   2.532   2.188   6.756  4.6175  1.7181  0.9202
  128OSM     O313679   2.415   2.256   6.598  0.3758 -0.0141  0.4105
  128OSM    HO313680   2.467   2.275   6.519  0.1727 -1.8643 -0.2215
  128OSM    C4S13681   2.436   2.378   6.806  0.0196  0.6749  0.3065
  128OSM    H4S13682   2.395   2.472   6.765  2.3477  2.2839  1.4378
  128OSM    C5S13683   2.426   2.365   6.939 -0.1801 -0.0038  0.4477
  128OSM    H5S13684   2.483   2.288   6.993  1.2898  0.5973 -0.2048
  128OSM    C6S13685   2.354   2.454   7.031 -0.2165 -0.2986 -0.6232
  128OSM    H6S13686   2.276   2.393   7.081  1.6435 -1.0071  1.5942
  128OSM    H6T13687   2.289   2.526   6.976  2.4588  2.2923 -0.6675
  128OSM    C7S13688   2.435   2.540   7.135 -0.2599 -0.0171  0.3100
  128OSM    H7S13689   2.369   2.603   7.198 -1.5029  1.5821 -2.3861
  128OSM    H7T13690   2.503   2.602   7.073 -2.7483  1.2028 -1.3693
  128OSM    C8S13691   2.517   2.451   7.232 -0.7634 -0.0672  0.5930
  128OSM    H8S13692   2.564   2.375   7.165 -1.8149 -0.5084  0.3409
  128OSM    H8T13693   2.448   2.402   7.304 -1.5551  1.3333  0.8136
  128OSM    C9S13694   2.629   2.529   7.319  0.6304 -0.1362  0.0993
  128OSM    H9S13695   2.677   2.594   7.242 -0.1229  0.5349  0.1810
  128OSM    H9T13696   2.697   2.455   7.365 -2.8024 -1.7833  2.9604
  128OSM   C10S13697   2.564   2.630   7.417 -0.1219  0.0127 -0.1257
  128OSM   H10S13698   2.503   2.572   7.490 -1.6770  0.9625 -0.6160
  128OSM   H10T13699   2.499   2.700   7.360 -1.1448  0.1367  1.1462
  128OSM   C11S13700   2.670   2.716   7.488 -0.3065  0.3202 -0.0887
  128OSM   H11S13701   2.691   2.809   7.431  0.5704  0.4483  0.4234
  128OSM   H11T13702   2.768   2.665   7.483 -1.5144 -2.1495 -0.2059
  128OSM   C12S13703   2.653   2.757   7.632 -0.0099 -0.1565 -0.1572
  128OSM   H12S13704   2.568   2.829   7.630  0.2869  0.2103  0.1434
  128OSM   H12T13705   2.742   2.814   7.666  1.0500 -0.7514 -1.8268
  128OSM   C13S13706   2.616   2.640   7.718  0.4273 -0.6178 -0.0594
  128OSM   H13S13707   2.667   2.545   7.694 -0.9422 -0.9698 -1.8154
  128OSM   H13T13708   2.512   2.605   7.699 -0.7379  2.2008  0.5597
  128OSM   C14S13709   2.619   2.646   7.870  0.5866 -0.1036  0.1951
  128OSM   H14S13710   2.545   2.576   7.915 -2.8630  2.8249 -0.4417
  128OSM   H14T13711   2.588   2.747   7.905  0.4215  0.0233 -0.3121
  128OSM   C15S13712   2.762   2.622   7.923  0.5814  0.7326 -0.7688
  128OSM   H15S13713   2.829   2.707   7.900  1.7851  0.0857  0.2428
  128OSM   H15T13714   2.803   2.535   7.868 -2.1441 -1.5532  0.5865
  128OSM   C16S13715   2.782   2.607   8.076 -0.1135  1.1977 -0.3194
  128OSM   H16S13716   2.704   2.667   8.129  0.8906  0.5388  2.0348
  128OSM   H16T13717   2.882   2.639   8.111  0.0653  1.5690 -1.1300
  128OSM   C17S13718   2.764   2.462   8.127  0.0391  0.2288  0.4811
  128OSM   H17S13719   2.846   2.390   8.108 -0.0098  0.0426  0.9710
  128OSM   H17T13720   2.675   2.421   8.073  0.3928  0.7420 -0.5249
  128OSM   C18S13721   2.756   2.449   8.277  0.3308  0.2260  0.0979
  128OSM   H18S13722   2.655   2.477   8.315  0.1803  0.1133 -0.2177
  128OSM   H18T13723   2.840   2.505   8.323 -0.8962 -0.9190  4.1591
  128OSM   H18U13724   2.777   2.342   8.301  0.3656 -0.3047 -2.0998
  128OSM    C1F13725   2.862   2.368   6.776  0.6077 -0.0477  0.4160
  128OSM     OF13726   2.927   2.396   6.678 -0.6228  0.0726 -0.1737
  128OSM    C2F13727   2.923   2.364   6.914 -0.1794 -0.1755 -0.4871
  128OSM    H2F13728   2.843   2.351   6.989  0.7996 -0.0512  0.6025
  128OSM    H2G13729   2.963   2.466   6.932 -1.3253  0.3743 -0.9826
  128OSM    C3F13730   3.030   2.253   6.920 -0.0002 -0.5631  0.0566
  128OSM    H3F13731   3.120   2.281   6.861 -0.2625 -1.3057 -0.7132
  128OSM    H3G13732   2.994   2.160   6.871 -1.9452  0.1784 -0.0025
  128OSM    C4F13733   3.080   2.218   7.063  0.1285 -0.1846 -0.3600
  128OSM    H4F13734   3.098   2.313   7.118 -0.4326  0.4229 -1.2075
  128OSM    H4G13735   3.170   2.152   7.058 -0.2493 -0.6246 -3.2211
  128OSM    C5F13736   2.979   2.139   7.145  0.4997  0.7344  0.1217
  128OSM    H5F13737   2.955   2.032   7.124 -1.6779  1.4546 -1.3441
  128OSM    H5G13738   2.885   2.193   7.123 -0.4866 -1.2554 -0.8252
  128OSM    C6F13739   2.997   2.157   7.297  0.2266 -0.0792  0.5120
  128OSM    H6F13740   2.998   2.266   7.315 -1.0706 -0.0499  0.5306
  128OSM    H6G13741   3.093   2.110   7.330  1.1417  0.9627 -0.5846
  128OSM    C7F13742   2.887   2.096   7.384 -0.3186 -0.2755 -0.3997
  128OSM    H7F13743   2.914   1.991   7.357 -1.8547 -0.1748 -2.6783
  128OSM    H7G13744   2.781   2.119   7.361  0.0375  0.9846 -0.8784
  128OSM    C8F13745   2.904   2.110   7.534 -0.4372  0.2632 -0.1244
  128OSM    H8F13746   3.014   2.101   7.548 -0.1200 -2.1006 -3.0091
  128OSM    H8G13747   2.848   2.026   7.578 -0.6658 -0.0617 -1.0172
  128OSM    C9F13748   2.861   2.238   7.591  0.1870  0.7756 -0.8920
  128OSM    H9F13749   2.890   2.335   7.547  0.0295  1.5840  0.7025
  128OSM   C10F13750   2.801   2.238   7.716 -0.0760 -0.2767  0.9068
  128OSM   H10F13751   2.777   2.332   7.767  1.2435  0.4740  0.1951
  128OSM   C11F13752   2.762   2.120   7.803 -0.0717 -0.4377  0.0651
  128OSM   H11F13753   2.759   2.028   7.741  1.0464  0.1314 -0.8618
  128OSM   H11G13754   2.663   2.148   7.846  0.3872  1.3356  0.0627
  128OSM   C12F13755   2.864   2.109   7.917  0.4484 -0.3377  0.4278
  128OSM   H12F13756   2.869   2.207   7.970 -1.6272  0.8398 -1.3756
  128OSM   H12G13757   2.960   2.090   7.864  0.6305  0.7855  0.3372
  128OSM   C13F13758   2.844   1.994   8.014 -0.8912  0.5494  0.0834
  128OSM   H13F13759   2.940   1.937   8.014 -1.0175  0.3282  0.4690
  128OSM   H13G13760   2.764   1.920   7.994 -1.2250  0.8190  0.4055
  128OSM   C14F13761   2.816   2.046   8.157  0.2639  0.0646  0.6468
  128OSM   H14F13762   2.728   2.113   8.146  0.5886  0.5434  0.9421
  128OSM   H14G13763   2.901   2.112   8.186  0.2298 -0.2239  1.4462
  128OSM   C15F13764   2.798   1.939   8.264  0.2021  0.2255 -0.6515
  128OSM   H15F13765   2.699   1.889   8.269  0.9798 -1.2331  1.2556
  128OSM   H15G13766   2.791   1.991   8.362 -3.1777 -1.0703 -0.0821
  128OSM   C16F13767   2.914   1.832   8.282  0.3859 -0.2919  0.5080
  128OSM   H16F13768   3.005   1.893   8.300 -0.5963  1.8577 -1.2895
  128OSM   H16G13769   2.928   1.781   8.184 -0.0881 -0.6894  0.6488
  128OSM   C17F13770   2.887   1.727   8.399  0.1865 -0.8598  0.4862
  128OSM   H17F13771   2.782   1.691   8.389  0.7863 -2.5397 -0.0628
  128OSM   H17G13772   2.906   1.770   8.499 -0.7402 -1.0679  0.7617
  128OSM   C18F13773   2.976   1.605   8.385  0.2660 -0.1406 -1.0097
  128OSM   H18F13774   2.954   1.545   8.475 -0.0720  2.1635  0.5399
  128OSM   H18G13775   3.086   1.624   8.384  0.4985 -1.0585  1.4796
  128OSM   H18H13776   2.961   1.549   8.290  1.4081  0.5846 -1.6450
  129OSM      N13777   3.587   3.126   6.127 -0.5150  0.0553  0.0809
  129OSM    C1513778   3.521   3.251   6.072  0.4797 -0.0369  0.0395
  129OSM   H15A13779   3.502   3.312   6.159  1.9443  0.5980 -0.0445
  129OSM   H15B13780   3.431   3.229   6.017  1.4616  0.2674 -1.7521
  129OSM   H15C13781   3.585   3.307   6.005 -1.5753  2.4840  0.0336
  129OSM    C1413782   3.611   3.026   6.014  0.4972 -0.1443 -0.3575
  129OSM   H14A13783   3.686   2.959   6.053 -0.4887 -1.9313 -1.4000
  129OSM   H14B13784   3.659   3.059   5.924  0.6876 -0.2655 -0.3010
  129OSM   H14C13785   3.515   2.977   6.001 -0.6495  1.6443  0.8407
  129OSM    C1313786   3.720   3.167   6.172 -0.1106  0.1303 -0.5037
  129OSM   H13A13787   3.707   3.255   6.232 -0.9765 -1.4128  1.6889
  129OSM   H13B13788   3.779   3.194   6.085  1.2201 -0.5048  0.1629
  129OSM   H13C13789   3.778   3.095   6.228 -1.4822 -0.7436 -0.1741
  129OSM    C1213790   3.510   3.066   6.243  0.0953 -0.1363  0.0448
  129OSM   H12A13791   3.574   2.993   6.290 -0.3592 -0.3368  0.3673
  129OSM   H12B13792   3.426   3.017   6.195  2.1224 -3.0972 -0.7487
  129OSM    C1113793   3.443   3.161   6.346 -0.8703  0.9029  0.0814
  129OSM   H11A13794   3.522   3.221   6.396 -0.8405  1.4924 -0.6613
  129OSM   H11B13795   3.406   3.093   6.426  1.1372 -0.2863  0.0807
  129OSM      P13796   3.204   3.185   6.285 -0.0170  0.0387  0.1598
  129OSM    O1313797   3.130   3.294   6.216  0.2143 -0.4231  0.2216
  129OSM    O1413798   3.223   3.053   6.213  0.1170 -0.1870 -0.6109
  129OSM    O1113799   3.149   3.161   6.430  0.3526  0.2116  0.2006
  129OSM    O1213800   3.342   3.247   6.302 -0.2598 -0.2585  0.9760
  129OSM    C1S13801   3.006   3.150   6.449 -0.5760 -1.1010  0.3213
  129OSM    H1S13802   2.968   3.071   6.382  1.7531 -2.4529  0.4981
  129OSM    H1T13803   2.947   3.239   6.416  0.4438 -0.1384  0.9927
  129OSM     NF13804   2.830   3.066   6.622  0.6518  0.1836  0.0050
  129OSM    HNF13805   2.774   3.127   6.678 -1.1757 -0.6059 -0.8750
  129OSM    C2S13806   2.971   3.112   6.602 -0.0344  0.1681  0.1704
  129OSM    H2S13807   3.039   3.028   6.629  1.2169  0.9758 -0.3836
  129OSM    C3S13808   3.010   3.230   6.685  0.3683  0.1217 -0.1102
  129OSM    H3S13809   2.950   3.315   6.648 -0.8215 -0.4600  0.4487
  129OSM     O313810   3.140   3.285   6.671  0.1344  0.2953  0.2533
  129OSM    HO313811   3.170   3.245   6.589  0.4199 -3.8772  2.1290
  129OSM    C4S13812   2.977   3.218   6.831 -0.1497  0.6152  0.6311
  129OSM    H4S13813   3.020   3.129   6.881 -0.6453  0.1658  0.2756
  129OSM    C5S13814   2.897   3.308   6.896 -0.3745  0.4137  0.1677
  129OSM    H5S13815   2.863   3.397   6.840  0.0949  1.7383  1.8636
  129OSM    C6S13816   2.860   3.305   7.043  0.0514 -0.0567 -0.7159
  129OSM    H6S13817   2.755   3.270   7.049 -1.2372  3.0468 -2.7031
  129OSM    H6T13818   2.862   3.406   7.088  0.9193  0.2085 -1.3176
  129OSM    C7S13819   2.942   3.219   7.142  0.6607  0.3226  0.2173
  129OSM    H7S13820   3.044   3.263   7.137  1.2315 -1.0148 -0.2833
  129OSM    H7T13821   2.948   3.112   7.112  1.1220  0.7301 -1.2535
  129OSM    C8S13822   2.893   3.226   7.283 -0.9284 -0.1685 -0.0174
  129OSM    H8S13823   2.785   3.201   7.292 -0.8771 -0.6650 -0.7734
  129OSM    H8T13824   2.889   3.328   7.328  0.3219 -0.7655  1.5826
  129OSM    C9S13825   2.957   3.129   7.374  0.7793 -0.2087  0.6756
  129OSM    H9S13826   3.068   3.138   7.374  1.0179 -0.5082 -4.1300
  129OSM    H9T13827   2.939   3.026   7.335  3.9248 -0.3475 -0.8048
  129OSM   C10S13828   2.910   3.161   7.518  0.4611  0.0302 -0.0336
  129OSM   H10S13829   2.801   3.148   7.506  0.5113 -0.1926 -0.2462
  129OSM   H10T13830   2.946   3.260   7.555  0.5646  0.4901 -1.3101
  129OSM   C11S13831   2.966   3.061   7.626 -0.5961  0.0841  0.3661
  129OSM   H11S13832   3.077   3.065   7.625 -0.4856 -1.8509 -0.7521
  129OSM   H11T13833   2.948   2.956   7.593  1.6574  0.4232 -2.2603
  129OSM   C12S13834   2.920   3.077   7.766 -0.4334  0.3092  0.2893
  129OSM   H12S13835   2.811   3.061   7.776 -0.5294 -0.6645 -1.7646
  129OSM   H12T13836   2.941   3.176   7.813  0.1289  0.0113  0.6759
  129OSM   C13S13837   2.981   2.964   7.859 -0.2835  0.2918  0.4738
  129OSM   H13S13838   3.086   2.954   7.823 -0.8154  1.9347 -1.7581
  129OSM   H13T13839   2.945   2.865   7.823 -0.7051  1.5347 -2.9069
  129OSM   C14S13840   2.941   2.972   8.004  0.1762  0.6061 -0.3163
  129OSM   H14S13841   2.840   2.927   8.013  1.3524 -1.8931  1.2481
  129OSM   H14T13842   2.953   3.076   8.041 -1.4172  0.6748  0.0799
  129OSM   C15S13843   3.036   2.884   8.090 -0.2434  0.5898  0.3270
  129OSM   H15S13844   3.140   2.923   8.084 -0.0493  0.6090  2.8313
  129OSM   H15T13845   3.015   2.780   8.056  1.7063  0.4287 -0.5398
  129OSM   C16S13846   3.008   2.888   8.239 -0.1154 -0.2302 -0.1672
  129OSM   H16S13847   2.901   2.858   8.248 -0.4367  1.2474  1.4247
  129OSM   H16T13848   3.019   2.991   8.278  0.6982 -0.6062  0.6264
  129OSM   C17S13849   3.119   2.813   8.321 -0.4503 -0.0760  1.0392
  129OSM   H17S13850   3.215   2.864   8.300 -0.2960 -1.0781 -0.9079
  129OSM   H17T13851   3.131   2.711   8.279  5.3778  0.3053  0.8968
  129OSM   C18S13852   3.105   2.810   8.474 -0.1265 -0.5348  0.3256
  129OSM   H18S13853   3.002   2.784   8.507  0.1802  0.2762  2.0243
  129OSM   H18T13854   3.120   2.911   8.518 -1.8834 -0.1053  0.0395
  129OSM   H18U13855   3.183   2.748   8.523 -0.8578 -1.0136  0.9164
  129OSM    C1F13856   2.775   2.954   6.571  0.1155 -0.3414 -0.3393
  129OSM     OF13857   2.836   2.896   6.480 -0.4820  0.0845 -0.2348
  129OSM    C2F13858   2.636   2.898   6.608 -0.2800  0.2561  0.1470
  129OSM    H2F13859   2.584   2.890   6.510  2.3288 -2.3262 -1.1965
  129OSM    H2G13860   2.587   2.974   6.672  1.8950  2.2261 -0.3823
  129OSM    C3F13861   2.666   2.764   6.678  0.2350  0.0354 -0.6728
  129OSM    H3F13862   2.716   2.692   6.609  2.1196 -0.0248  0.6838
  129OSM    H3G13863   2.569   2.721   6.711  0.8820  0.9765  2.7486
  129OSM    C4F13864   2.763   2.755   6.802 -0.6822  0.0304  0.2243
  129OSM    H4F13865   2.855   2.799   6.758 -1.2804 -0.1889 -1.3043
  129OSM    H4G13866   2.782   2.651   6.835 -2.2778  0.0765  1.4132
  129OSM    C5F13867   2.732   2.835   6.927  0.0897 -0.3157  0.1793
  129OSM    H5F13868   2.653   2.783   6.985  1.9981 -1.9526  1.4605
  129OSM    H5G13869   2.683   2.931   6.899 -0.4381 -0.4398  0.6613
  129OSM    C6F13870   2.852   2.852   7.024  0.1035 -0.5533  0.3758
  129OSM    H6F13871   2.803   2.912   7.103 -1.4932 -1.8731  0.4333
  129OSM    H6G13872   2.928   2.911   6.968  1.2439 -0.5836  1.8140
  129OSM    C7F13873   2.905   2.725   7.084  0.6654  0.2316  0.4672
  129OSM    H7F13874   2.959   2.671   7.003  0.5746  2.0190 -0.8485
  129OSM    H7G13875   2.810   2.674   7.111 -0.9870  2.4563 -0.8063
  129OSM    C8F13876   2.991   2.759   7.209  0.1416  0.2014 -0.2196
  129OSM    H8F13877   2.923   2.777   7.295 -0.9501  2.3204 -1.4358
  129OSM    H8G13878   3.036   2.858   7.184  0.4070  0.2108  0.2831
  129OSM    C9F13879   3.104   2.657   7.215 -0.3583 -0.7077 -0.1772
  129OSM    H9F13880   3.164   2.645   7.124 -1.4201 -0.6515 -0.9000
  129OSM   C10F13881   3.139   2.582   7.323 -0.0478  0.0064  0.5690
  129OSM   H10F13882   3.230   2.521   7.316 -0.5382 -0.9353  1.9250
  129OSM   C11F13883   3.065   2.591   7.455  0.1821  0.5716  0.6854
  129OSM   H11F13884   3.064   2.491   7.505 -1.5252  0.2704  0.1334
  129OSM   H11G13885   2.959   2.625   7.454  0.4031  1.2637 -0.0241
  129OSM   C12F13886   3.125   2.680   7.568  0.2318 -0.3240  0.2644
  129OSM   H12F13887   3.041   2.719   7.629  0.0887  2.3143 -1.4583
  129OSM   H12G13888   3.181   2.766   7.525 -0.1143 -0.7012 -0.9852
  129OSM   C13F13889   3.213   2.607   7.668  0.1461  0.1961  0.4157
  129OSM   H13F13890   3.260   2.688   7.728  0.0397 -0.1552  0.9864
  129OSM   H13G13891   3.296   2.551   7.621 -1.3643 -1.6595 -0.1448
  129OSM   C14F13892   3.130   2.513   7.767 -0.3858  0.3375  0.1376
  129OSM   H14F13893   3.074   2.436   7.711  0.1707  0.2085 -0.2544
  129OSM   H14G13894   3.055   2.579   7.815  0.0367  1.7211 -1.0232
  129OSM   C15F13895   3.214   2.452   7.881 -0.2172 -0.3776 -0.0610
  129OSM   H15F13896   3.259   2.531   7.944  0.5457 -1.2957  0.5723
  129OSM   H15G13897   3.296   2.402   7.825  1.3635 -0.3013  2.0565
  129OSM   C16F13898   3.141   2.358   7.962  0.3915 -0.3097  0.8192
  129OSM   H16F13899   3.093   2.270   7.916 -1.4100  1.2875 -0.5081
  129OSM   H16G13900   3.065   2.415   8.021  2.3808  1.5096  1.7650
  129OSM   C17F13901   3.230   2.309   8.088  0.0900  0.0956  1.0494
  129OSM   H17F13902   3.323   2.258   8.056 -0.1785  0.3703 -0.2718
  129OSM   H17G13903   3.173   2.227   8.135  1.4679 -0.6466  1.4638
  129OSM   C18F13904   3.255   2.404   8.199  0.0511  0.1393  0.0582
  129OSM   H18F13905   3.156   2.432   8.241  0.0697  0.2025  0.0606
  129OSM   H18G13906   3.299   2.503   8.174 -2.4121  1.3199  0.1039
  129OSM   H18H13907   3.317   2.346   8.271 -0.3368 -1.5516 -0.9035
  130OSM      N13908   2.903   0.603   6.332  0.1477  0.2920 -0.4214
  130OSM    C1513909   2.782   0.691   6.346  0.3411 -0.2041  0.2840
  130OSM   H15A13910   2.796   0.769   6.419  0.9219  0.0199 -0.0573
  130OSM   H15B13911   2.696   0.629   6.366  1.1959 -1.3865  0.4303
  130OSM   H15C13912   2.751   0.732   6.251 -0.4192 -2.0419 -0.3070
  130OSM    C1413913   3.021   0.686   6.284  0.2298  1.1474  0.2051
  130OSM   H14A13914   3.014   0.704   6.178  0.8289 -0.7519 -0.1890
  130OSM   H14B13915   3.109   0.625   6.298  0.3915  1.3172 -0.0591
  130OSM   H14C13916   3.034   0.778   6.340 -2.6159  1.2091  0.9264
  130OSM    C1313917   2.930   0.543   6.465 -0.1018  0.5354 -0.3762
  130OSM   H13A13918   2.861   0.460   6.475 -0.4683  1.0678  1.9691
  130OSM   H13B13919   2.917   0.610   6.548 -2.6808  0.8652 -0.9455
  130OSM   H13C13920   3.024   0.491   6.473 -0.8165 -1.0572 -1.6345
  130OSM    C1213921   2.886   0.486   6.225 -0.6329  0.2440 -0.1223
  130OSM   H12A13922   2.983   0.442   6.203 -1.5795 -0.9450 -2.2480
  130OSM   H12B13923   2.838   0.528   6.137 -2.4524  0.1616  0.7960
  130OSM    C1113924   2.796   0.370   6.275  0.0771  0.7860 -0.2166
  130OSM   H11A13925   2.851   0.308   6.349  1.8227  1.2857 -1.0363
  130OSM   H11B13926   2.781   0.300   6.189 -1.5874  3.1252 -1.9411
  130OSM      P13927   2.561   0.316   6.383  0.3131 -0.1022  0.6879
  130OSM    O1313928   2.434   0.390   6.374  0.2312  0.2043 -0.2090
  130OSM    O1413929   2.570   0.188   6.313 -0.2243 -0.1642  0.3671
  130OSM    O1113930   2.615   0.298   6.526  0.0580  0.5495  0.3715
  130OSM    O1213931   2.667   0.409   6.325 -0.1000 -0.3326 -0.2661
  130OSM    C1S13932   2.614   0.398   6.623  0.7338 -0.1017  0.4071
  130OSM    H1S13933   2.509   0.430   6.637  0.7341  0.2716 -0.4300
  130OSM    H1T13934   2.671   0.488   6.591 -1.1938  2.1151  2.7824
  130OSM     NF13935   2.659   0.441   6.872 -0.2033 -0.0841 -0.3459
  130OSM    HNF13936   2.746   0.471   6.911  1.1556 -1.1100 -2.4005
  130OSM    C2S13937   2.668   0.347   6.757  0.1191 -0.2390  0.5458
  130OSM    H2S13938   2.596   0.264   6.776 -0.5097  0.5176  1.5190
  130OSM    C3S13939   2.812   0.291   6.736 -0.1891  0.0709  0.0659
  130OSM    H3S13940   2.870   0.381   6.704 -0.4921 -0.2504 -1.5061
  130OSM     O313941   2.825   0.197   6.624 -0.3948 -0.3674  0.3207
  130OSM    HO313942   2.737   0.210   6.588 -1.2006 -1.8726  1.6286
  130OSM    C4S13943   2.866   0.228   6.857 -0.0406  0.2340 -0.8158
  130OSM    H4S13944   2.919   0.296   6.925 -0.7770 -1.3102  1.4101
  130OSM    C5S13945   2.868   0.096   6.899 -0.0802 -0.3384 -0.6548
  130OSM    H5S13946   2.815   0.027   6.831 -0.2595  1.5857 -2.5802
  130OSM    C6S13947   2.928   0.047   7.032 -0.1275 -0.8690 -0.1258
  130OSM    H6S13948   3.012  -0.022   7.007  1.5386  1.3130 -0.8521
  130OSM    H6T13949   2.857  -0.025   7.078  1.2751 -1.0113  1.9628
  130OSM    C7S13950   2.962   0.160   7.130  0.1721 -0.0209  0.1619
  130OSM    H7S13951   2.867   0.216   7.148 -0.2065 -0.6651  0.1968
  130OSM    H7T13952   3.036   0.228   7.082 -0.7383  0.1451 -1.0651
  130OSM    C8S13953   3.009   0.098   7.259  0.1674  0.3980 -0.0172
  130OSM    H8S13954   3.102   0.042   7.235 -0.7932 -0.7636 -1.1606
  130OSM    H8T13955   2.935   0.026   7.300 -0.1657  1.0945  0.6378
  130OSM    C9S13956   3.033   0.201   7.369  0.6222  0.7186 -0.6372
  130OSM    H9S13957   2.945   0.268   7.373  0.9695  1.2303 -1.3676
  130OSM    H9T13958   3.122   0.263   7.345  2.2415 -0.3178  2.2336
  130OSM   C10S13959   3.041   0.132   7.508 -0.2289  0.0718  0.0154
  130OSM   H10S13960   3.121   0.058   7.489  0.5037  1.1400 -1.3002
  130OSM   H10T13961   2.942   0.082   7.519  0.1732 -0.6812  0.2522
  130OSM   C11S13962   3.091   0.224   7.621  0.5376 -0.1914 -0.6972
  130OSM   H11S13963   3.033   0.318   7.623  0.6231 -0.1461 -0.0713
  130OSM   H11T13964   3.192   0.259   7.593  0.6909  0.7045  0.8485
  130OSM   C12S13965   3.099   0.143   7.756  0.2120 -0.2965 -0.3295
  130OSM   H12S13966   3.153   0.047   7.748  0.6833 -0.0886  0.2673
  130OSM   H12T13967   2.996   0.121   7.790 -0.2603  1.0963 -0.7895
  130OSM   C13S13968   3.167   0.238   7.856 -0.1023  0.0571  0.6722
  130OSM   H13S13969   3.101   0.327   7.866  1.2025  0.8796  2.4291
  130OSM   H13T13970   3.265   0.262   7.809 -1.1018  0.2779 -1.4413
  130OSM   C14S13971   3.183   0.177   7.994 -0.4035 -0.3480 -0.1380
  130OSM   H14S13972   3.205   0.068   8.001 -5.3222 -1.5831 -0.5098
  130OSM   H14T13973   3.081   0.169   8.037  0.7254 -0.6939  2.6634
  130OSM   C15S13974   3.259   0.267   8.102 -0.6819  0.3274 -0.3459
  130OSM   H15S13975   3.213   0.368   8.104 -2.0915 -0.3011  0.4526
  130OSM   H15T13976   3.364   0.272   8.064 -0.6242  0.0726 -0.2233
  130OSM   C16S13977   3.254   0.210   8.246  0.0313 -0.0993  0.4184
  130OSM   H16S13978   3.316   0.118   8.241  1.2085  0.7035 -0.4031
  130OSM   H16T13979   3.149   0.186   8.276  0.4512 -0.6444  1.5100
  130OSM   C17S13980   3.319   0.298   8.350  0.0452  0.1300  1.0506
  130OSM   H17S13981   3.301   0.249   8.448  1.0834 -0.3450  1.0179
  130OSM   H17T13982   3.268   0.397   8.348  1.3078  0.7846  0.6719
  130OSM   C18S13983   3.468   0.311   8.325 -0.3047 -0.0638  0.0837
  130OSM   H18S13984   3.492   0.349   8.223  0.2191  1.2492  0.6749
  130OSM   H18T13985   3.507   0.207   8.331  3.0740  1.1551  3.4553
  130OSM   H18U13986   3.512   0.375   8.404 -0.4060  0.3105 -0.1577
  130OSM    C1F13987   2.546   0.490   6.924  0.7755 -0.4036 -0.0781
  130OSM     OF13988   2.436   0.462   6.884  0.1058 -0.1322 -0.3310
  130OSM    C2F13989   2.566   0.597   7.028  0.0069 -0.2032 -0.5271
  130OSM    H2F13990   2.496   0.683   7.018  0.0746  0.1121  1.3211
  130OSM    H2G13991   2.660   0.656   7.017 -0.8108  1.0888 -0.9084
  130OSM    C3F13992   2.540   0.540   7.174 -0.4471  0.4093 -0.3952
  130OSM    H3F13993   2.585   0.440   7.194 -1.3590  0.4022  1.9393
  130OSM    H3G13994   2.431   0.521   7.175 -0.3335 -0.2765 -0.3171
  130OSM    C4F13995   2.574   0.629   7.291 -0.1684 -0.2498 -0.0482
  130OSM    H4F13996   2.523   0.726   7.275 -1.9632 -1.3549 -1.4150
  130OSM    H4G13997   2.683   0.649   7.284  0.3950 -2.0850  2.2522
  130OSM    C5F13998   2.546   0.570   7.426  0.0202 -0.3114  0.4657
  130OSM    H5F13999   2.596   0.472   7.437  0.1759 -0.4280 -1.0856
  130OSM    H5G14000   2.438   0.577   7.451  0.3282  1.3126  1.4191
  130OSM    C6F14001   2.600   0.660   7.544  0.5580 -0.8384 -0.2244
  130OSM    H6F14002   2.553   0.761   7.541  0.8441 -0.6176  1.5326
  130OSM    H6G14003   2.704   0.686   7.515  0.3408 -0.9979 -1.1712
  130OSM    C7F14004   2.584   0.607   7.687 -0.6947  0.4087 -0.4137
  130OSM    H7F14005   2.645   0.516   7.701 -1.6527 -0.5809 -2.2868
  130OSM    H7G14006   2.479   0.575   7.701 -0.5439 -0.7251 -1.7377
  130OSM    C8F14007   2.617   0.710   7.805  0.3284  0.1734  0.6640
  130OSM    H8F14008   2.564   0.668   7.893  0.5111 -0.5733  0.4245
  130OSM    H8G14009   2.560   0.802   7.780  1.5141  0.8313  0.2891
  130OSM    C9F14010   2.761   0.739   7.830 -0.1615  0.5663 -0.1394
  130OSM    H9F14011   2.813   0.760   7.735 -2.4367  0.2561 -1.5262
  130OSM   C10F14012   2.831   0.727   7.944  0.4425 -0.5955 -0.4901
  130OSM   H10F14013   2.936   0.760   7.945  0.0704  0.6520 -0.2003
  130OSM   C11F14014   2.791   0.676   8.081 -0.1242  0.1214  0.2414
  130OSM   H11F14015   2.680   0.670   8.081 -0.1191 -0.7025 -1.2895
  130OSM   H11G14016   2.837   0.739   8.159  1.8111 -2.4142  1.3003
  130OSM   C12F14017   2.834   0.536   8.123 -0.1048  0.6132 -0.7906
  130OSM   H12F14018   2.799   0.468   8.043 -1.4165  0.2121  0.0941
  130OSM   H12G14019   2.785   0.494   8.214  1.4037 -1.8776 -1.0559
  130OSM   C13F14020   2.986   0.506   8.125  0.0200  0.4233  0.2683
  130OSM   H13F14021   3.027   0.512   8.022  0.5525  0.2549  0.4731
  130OSM   H13G14022   2.998   0.398   8.146 -0.6997 -0.0246 -1.4265
  130OSM   C14F14023   3.065   0.595   8.227  0.3524  0.5645 -0.7881
  130OSM   H14F14024   3.032   0.698   8.200 -3.2628 -0.5881 -1.2876
  130OSM   H14G14025   3.175   0.593   8.207  0.4745  1.6093 -0.3110
  130OSM   C15F14026   3.037   0.570   8.373 -0.2303 -0.4295  0.9304
  130OSM   H15F14027   3.103   0.487   8.408 -0.3302 -0.8790  0.0940
  130OSM   H15G14028   2.928   0.546   8.373  0.0267 -1.8373 -1.1336
  130OSM   C16F14029   3.055   0.701   8.457 -0.2131 -0.1841 -0.0270
  130OSM   H16F14030   2.993   0.780   8.409  2.0435  0.2220 -2.5013
  130OSM   H16G14031   3.159   0.738   8.443  0.1625 -1.1828  0.0397
  130OSM   C17F14032   3.028   0.691   8.608 -0.7125 -0.3251  0.1463
  130OSM   H17F14033   3.120   0.666   8.667 -1.7229  1.1766  2.5124
  130OSM   H17G14034   2.945   0.619   8.621 -2.0289  1.0323 -0.4977
  130OSM   C18F14035   2.988   0.826   8.674  0.6159 -0.3244  0.2098
  130OSM   H18F14036   2.899   0.872   8.627  1.4380  2.0447  0.8087
  130OSM   H18G14037   3.066   0.900   8.644 -0.3990 -0.2269 -2.3954
  130OSM   H18H14038   2.981   0.826   8.785  0.8704 -1.8144  0.2475
  131OSM      N14039   3.051   5.449   6.066 -0.3840  0.3226 -0.4523
  131OSM    C1514040   3.095   5.325   5.996  0.3347 -0.3769  0.1859
  131OSM   H15A14041   3.196   5.294   6.018  1.5842  3.0027 -0.2049
  131OSM   H15B14042   3.076   5.343   5.891 -0.0710  1.0291  0.4868
  131OSM   H15C14043   3.032   5.242   6.025  0.0568  0.7348  3.0420
  131OSM    C1414044   3.169   5.535   6.061 -0.2000 -0.4812 -0.2792
  131OSM   H14A14045   3.157   5.616   6.131  2.4033  0.9376 -1.3371
  131OSM   H14B14046   3.181   5.579   5.963 -0.9629  3.2980  1.1640
  131OSM   H14C14047   3.258   5.484   6.096  0.0138 -0.4909 -0.8344
  131OSM    C1314048   2.936   5.516   6.004 -0.1020  0.1106  0.4739
  131OSM   H13A14049   2.862   5.445   5.971 -0.3740  0.4879  0.2575
  131OSM   H13B14050   2.966   5.558   5.909  2.4487 -1.5198  0.4717
  131OSM   H13C14051   2.899   5.594   6.070  1.9769 -0.2303  2.1308
  131OSM    C1214052   3.022   5.408   6.217 -0.2342  0.3025  0.5574
  131OSM   H12A14053   3.110   5.364   6.262  0.1285  1.4252  0.9948
  131OSM   H12B14054   2.956   5.323   6.214 -0.9181  0.8306  0.3590
  131OSM    C1114055   2.966   5.511   6.324  0.0792 -0.4521  0.2739
  131OSM   H11A14056   3.033   5.599   6.334 -0.6375  0.1092  0.1487
  131OSM   H11B14057   2.965   5.454   6.419 -1.6002 -0.2509  0.3954
  131OSM      P14058   2.767   5.675   6.331  0.3990 -0.0506 -0.5190
  131OSM    O1314059   2.818   5.773   6.231 -0.7422 -0.0473  0.8676
  131OSM    O1414060   2.623   5.661   6.342 -0.4458  0.4748  0.8903
  131OSM    O1114061   2.823   5.715   6.471  0.1695  0.5698 -0.2982
  131OSM    O1214062   2.827   5.533   6.295  0.6092  0.0737  0.3817
  131OSM    C1S14063   2.857   5.857   6.501  0.8728  0.5242  0.0603
  131OSM    H1S14064   2.775   5.923   6.466  0.8609  0.4790  0.0024
  131OSM    H1T14065   2.945   5.901   6.448  2.4752 -0.8182  1.4923
  131OSM     NF14066   2.874   6.027   6.697 -0.5314 -0.2945 -0.5467
  131OSM    HNF14067   2.961   6.076   6.698  0.8008 -2.5403  0.2580
  131OSM    C2S14068   2.889   5.883   6.656  0.0334  0.4731  0.1331
  131OSM    H2S14069   2.802   5.833   6.705 -0.2247  1.6063  0.8693
  131OSM    C3S14070   3.026   5.810   6.689 -0.4017  0.1389  0.5956
  131OSM    H3S14071   3.110   5.874   6.656 -1.4178  0.5325 -1.4101
  131OSM     O314072   3.037   5.686   6.612 -0.3867  0.6156 -0.4363
  131OSM    HO314073   2.967   5.693   6.546 -1.1624 -0.6695  0.2086
  131OSM    C4S14074   3.039   5.776   6.836  0.3099 -0.5947 -0.7723
  131OSM    H4S14075   3.078   5.856   6.900  0.7023 -1.2940 -0.1331
  131OSM    C5S14076   2.998   5.663   6.897 -0.6285 -0.4792  0.0419
  131OSM    H5S14077   2.945   5.590   6.833 -0.5477  1.2603 -2.1270
  131OSM    C6S14078   3.008   5.629   7.045  0.7696 -1.2569 -0.9068
  131OSM    H6S14079   3.094   5.559   7.054  2.4339  0.7982  0.5232
  131OSM    H6T14080   2.915   5.580   7.079 -0.8130  0.5709 -2.3935
  131OSM    C7S14081   3.035   5.740   7.145 -0.6384  0.3589 -0.5867
  131OSM    H7S14082   2.953   5.812   7.126  1.3586  2.8413 -0.2896
  131OSM    H7T14083   3.136   5.785   7.131 -0.8547  1.3387  0.7932
  131OSM    C8S14084   3.029   5.689   7.291  0.1027 -0.1085 -0.5372
  131OSM    H8S14085   3.114   5.621   7.315 -1.7332 -1.9343  1.2460
  131OSM    H8T14086   2.935   5.633   7.312  0.5815 -1.0220 -0.7462
  131OSM    C9S14087   3.028   5.801   7.391  0.5149 -0.2164  0.4790
  131OSM    H9S14088   2.956   5.881   7.364  0.7308 -0.0616  0.3595
  131OSM    H9T14089   3.132   5.841   7.392  0.6642 -0.4900  3.1974
  131OSM   C10S14090   2.976   5.760   7.532  0.6901  0.6565  0.1848
  131OSM   H10S14091   3.027   5.663   7.551  2.0363  1.1096 -0.9255
  131OSM   H10T14092   2.871   5.727   7.517  0.0740  2.7556 -0.4715
  131OSM   C11S14093   2.994   5.859   7.652  0.4299 -0.4084  0.0600
  131OSM   H11S14094   2.918   5.939   7.635 -1.5754 -1.9150  1.3385
  131OSM   H11T14095   3.096   5.898   7.636  0.0037  0.7021 -0.0374
  131OSM   C12S14096   2.985   5.789   7.787  0.0884  1.1431 -0.4659
  131OSM   H12S14097   3.024   5.687   7.766 -1.0562  0.6588 -0.3420
  131OSM   H12T14098   2.879   5.780   7.821  0.5219 -0.3445  0.5954
  131OSM   C13S14099   3.082   5.852   7.890 -0.1115  0.0171  0.0997
  131OSM   H13S14100   3.046   5.950   7.929 -0.1338  0.4980 -1.0804
  131OSM   H13T14101   3.177   5.880   7.839 -0.5053  0.1673 -0.5597
  131OSM   C14S14102   3.132   5.761   7.998 -0.1516 -0.3005 -0.3798
  131OSM   H14S14103   3.198   5.684   7.951 -0.6833 -0.4145 -0.9510
  131OSM   H14T14104   3.042   5.702   8.026  1.8241 -3.6297 -0.4909
  131OSM   C15S14105   3.205   5.835   8.109  0.3159  0.1607  0.2684
  131OSM   H15S14106   3.153   5.930   8.134 -0.4510 -0.2224  0.1842
  131OSM   H15T14107   3.305   5.862   8.071 -0.0406  1.8610  0.4493
  131OSM   C16S14108   3.214   5.750   8.240 -0.4346 -0.1860 -0.2963
  131OSM   H16S14109   3.228   5.642   8.218  0.9657  0.0012 -0.4612
  131OSM   H16T14110   3.119   5.755   8.297 -0.3081 -1.1074  0.0190
  131OSM   C17S14111   3.329   5.799   8.336 -0.0956  0.1223  0.6408
  131OSM   H17S14112   3.406   5.846   8.271 -0.6471 -0.3293 -0.3783
  131OSM   H17T14113   3.384   5.713   8.381  0.4304  0.1855  0.1327
  131OSM   C18S14114   3.285   5.895   8.440  0.6434 -0.0313 -0.2625
  131OSM   H18S14115   3.197   5.859   8.498 -0.4452 -0.0729 -1.8795
  131OSM   H18T14116   3.256   5.985   8.382  1.8977 -0.7031 -2.0495
  131OSM   H18U14117   3.366   5.926   8.510 -0.7343  4.6492 -0.4155
  131OSM    C1F14118   2.755   6.090   6.698 -0.1967 -0.4983  0.4729
  131OSM     OF14119   2.649   6.038   6.662  0.4419  0.1538 -0.0588
  131OSM    C2F14120   2.755   6.232   6.739 -0.1332 -0.7993  0.6344
  131OSM    H2F14121   2.752   6.298   6.649 -0.0212 -0.8975  0.5593
  131OSM    H2G14122   2.855   6.246   6.786 -0.5283 -1.9084  1.8424
  131OSM    C3F14123   2.638   6.263   6.838 -0.2208 -0.0735  0.3986
  131OSM    H3F14124   2.622   6.174   6.903 -0.8059 -1.0698 -1.0394
  131OSM    H3G14125   2.540   6.269   6.787 -0.7682 -2.0267  1.0975
  131OSM    C4F14126   2.662   6.386   6.918  0.7159 -0.2953  0.5699
  131OSM    H4F14127   2.656   6.475   6.851  1.6945 -0.9975 -0.4932
  131OSM    H4G14128   2.761   6.374   6.967  0.6036 -0.7186  0.6897
  131OSM    C5F14129   2.553   6.397   7.028 -0.9066  0.1683 -0.0738
  131OSM    H5F14130   2.535   6.293   7.060 -0.4243 -0.0623 -0.5383
  131OSM    H5G14131   2.455   6.428   6.985 -1.5604  0.7037  1.7122
  131OSM    C6F14132   2.588   6.475   7.156  0.0794 -0.5618  0.0902
  131OSM    H6F14133   2.581   6.582   7.127 -1.4116 -0.3088  1.2849
  131OSM    H6G14134   2.689   6.446   7.191 -1.3331 -1.2470  4.0975
  131OSM    C7F14135   2.496   6.434   7.266 -0.4423  0.0292 -0.4939
  131OSM    H7F14136   2.494   6.324   7.284 -0.5658 -0.3915 -2.7639
  131OSM    H7G14137   2.392   6.444   7.226  0.0824  4.0281 -1.2787
  131OSM    C8F14138   2.513   6.510   7.403 -0.9406  0.6717 -0.1967
  131OSM    H8F14139   2.434   6.489   7.478 -1.3672  1.5669 -0.3786
  131OSM    H8G14140   2.501   6.619   7.385 -1.7357  0.6190 -0.0179
  131OSM    C9F14141   2.655   6.481   7.459 -0.0605  0.1847  0.4530
  131OSM    H9F14142   2.737   6.501   7.389 -0.6332 -2.0061 -0.9657
  131OSM   C10F14143   2.683   6.457   7.588 -0.0774  0.5176  0.0511
  131OSM   H10F14144   2.787   6.435   7.615 -0.5138  0.7223  2.1053
  131OSM   C11F14145   2.584   6.450   7.705  0.2274 -0.5828  0.2649
  131OSM   H11F14146   2.499   6.383   7.682 -0.9068  0.8071  0.2516
  131OSM   H11G14147   2.548   6.549   7.740 -2.1715 -1.9068  1.8630
  131OSM   C12F14148   2.636   6.384   7.839  0.6135  0.2250  0.1081
  131OSM   H12F14149   2.678   6.283   7.818 -0.3091  0.1710 -1.6544
  131OSM   H12G14150   2.550   6.364   7.908 -0.1215  2.0579 -0.2291
  131OSM   C13F14151   2.738   6.473   7.910  1.0562 -0.1389 -1.0347
  131OSM   H13F14152   2.698   6.573   7.935 -1.0625 -1.0384 -0.5976
  131OSM   H13G14153   2.817   6.480   7.832 -0.1312 -1.9011 -2.4983
  131OSM   C14F14154   2.795   6.403   8.036  0.0117 -0.4556  0.2806
  131OSM   H14F14155   2.896   6.444   8.056  1.1110 -1.0994 -3.1429
  131OSM   H14G14156   2.816   6.297   8.009  0.0738 -0.1564 -0.9238
  131OSM   C15F14157   2.704   6.423   8.160 -0.0253  0.4079 -0.3435
  131OSM   H15F14158   2.600   6.399   8.131  0.0072  0.2789 -0.3495
  131OSM   H15G14159   2.699   6.530   8.192 -0.1412  0.5973 -0.9769
  131OSM   C16F14160   2.754   6.327   8.270  0.6765  0.4417 -1.0810
  131OSM   H16F14161   2.857   6.341   8.309  0.6100 -0.7946 -0.3951
  131OSM   H16G14162   2.742   6.223   8.233 -0.7493  0.0488  0.3847
  131OSM   C17F14163   2.657   6.333   8.394 -0.2767 -0.0752  0.3848
  131OSM   H17F14164   2.681   6.242   8.452  0.1580 -0.5457 -0.5105
  131OSM   H17G14165   2.555   6.317   8.351 -1.2394  0.5433  2.3101
  131OSM   C18F14166   2.654   6.460   8.478 -0.0267  0.0011  0.1237
  131OSM   H18F14167   2.634   6.550   8.416  0.7103 -0.7216 -1.2032
  131OSM   H18G14168   2.746   6.473   8.539 -1.5835  1.5972  2.3016
  131OSM   H18H14169   2.574   6.453   8.554 -0.7141  1.7403 -0.3757
  132OSM      N14170   3.733   2.372   6.399 -0.2078  0.5189  0.1813
  132OSM    C1514171   3.595   2.421   6.361 -0.0005 -1.0771 -0.0335
  132OSM   H15A14172   3.548   2.480   6.438 -0.1535  0.0671 -0.9768
  132OSM   H15B14173   3.529   2.344   6.321 -1.3332  0.3854 -0.7459
  132OSM   H15C14174   3.605   2.482   6.273  0.2707 -0.1294  0.6481
  132OSM    C1414175   3.781   2.298   6.279 -0.1179 -0.3293  1.2022
  132OSM   H14A14176   3.773   2.359   6.190  0.9607 -1.2028  0.4667
  132OSM   H14B14177   3.717   2.214   6.254 -1.1172  0.9148 -0.6301
  132OSM   H14C14178   3.883   2.261   6.282 -0.0828 -0.4144 -0.1841
  132OSM    C1314179   3.817   2.494   6.413 -0.7222 -0.0927 -0.1148
  132OSM   H13A14180   3.810   2.547   6.320 -0.8551 -0.4673 -0.3211
  132OSM   H13B14181   3.921   2.467   6.421 -0.7271 -0.6511 -1.6412
  132OSM   H13C14182   3.784   2.557   6.495 -0.1249 -0.3482  0.3250
  132OSM    C1214183   3.733   2.280   6.515 -0.1281 -0.1414  0.3350
  132OSM   H12A14184   3.674   2.193   6.490 -2.5866  1.2493  0.9816
  132OSM   H12B14185   3.689   2.333   6.598 -0.2819 -0.9786  0.8012
  132OSM    C1114186   3.874   2.236   6.571 -0.9664  0.2640  0.0314
  132OSM   H11A14187   3.847   2.171   6.657  1.2857 -0.0964  0.5152
  132OSM   H11B14188   3.932   2.312   6.628  0.7670  0.7197 -2.2264
  132OSM      P14189   3.941   2.014   6.453  0.2701 -0.0478  0.0001
  132OSM    O1314190   3.806   1.972   6.406 -1.1966 -0.5110 -0.6721
  132OSM    O1414191   4.050   1.970   6.361  0.0745 -0.1049 -0.2036
  132OSM    O1114192   3.967   1.971   6.603  0.1259  0.2210 -0.1005
  132OSM    O1214193   3.953   2.167   6.472 -0.2929 -0.0550  0.1247
  132OSM    C1S14194   4.078   2.024   6.674  0.0994 -0.8964  0.1133
  132OSM    H1S14195   4.060   2.125   6.716  2.5128 -0.2775 -0.1593
  132OSM    H1T14196   4.165   2.030   6.605 -0.2483 -3.0596 -0.5946
  132OSM     NF14197   4.254   2.006   6.858 -0.4172  0.4590  0.4698
  132OSM    HNF14198   4.338   1.953   6.843 -1.0067 -1.2698  2.8049
  132OSM    C2S14199   4.135   1.940   6.796  0.0613  0.5354 -0.1791
  132OSM    H2S14200   4.055   1.936   6.873  1.1299 -0.2903  0.9338
  132OSM    C3S14201   4.155   1.790   6.751  0.3510  0.2924  0.0040
  132OSM    H3S14202   4.249   1.774   6.695  0.2452 -1.9845  0.4119
  132OSM     O314203   4.058   1.742   6.656 -0.5754  0.3798 -0.2977
  132OSM    HO314204   4.011   1.825   6.646 -1.3311  0.0773  0.6599
  132OSM    C4S14205   4.168   1.704   6.872 -0.0969 -0.7250  1.0359
  132OSM    H4S14206   4.271   1.700   6.912  1.9600  0.4990 -3.3922
  132OSM    C5S14207   4.074   1.625   6.932 -0.1890 -0.2367  1.0788
  132OSM    H5S14208   3.975   1.618   6.884  0.9185  1.5245 -1.7688
  132OSM    C6S14209   4.107   1.546   7.051 -1.1982 -1.2233  0.4151
  132OSM    H6S14210   4.204   1.494   7.044 -0.0999  0.7685 -0.0462
  132OSM    H6T14211   4.042   1.459   7.074 -0.2024 -1.2412  3.6190
  132OSM    C7S14212   4.118   1.620   7.186  0.2223  0.0930 -0.6677
  132OSM    H7S14213   4.021   1.658   7.225  0.5886  0.2734  0.0843
  132OSM    H7T14214   4.187   1.704   7.165 -0.7308  0.7292 -1.3707
  132OSM    C8S14215   4.180   1.522   7.290  0.0219  0.6987  0.9677
  132OSM    H8S14216   4.242   1.443   7.242  0.1781  1.7939 -0.7446
  132OSM    H8T14217   4.096   1.466   7.335 -1.1385  0.5974 -1.1614
  132OSM    C9S14218   4.245   1.601   7.401 -0.2171  0.3600 -0.3878
  132OSM    H9S14219   4.167   1.670   7.440  0.6958 -0.0186  2.2861
  132OSM    H9T14220   4.331   1.663   7.368 -0.5165  0.9910  0.0008
  132OSM   C10S14221   4.283   1.518   7.522 -0.2832 -0.1216  0.3014
  132OSM   H10S14222   4.373   1.457   7.501  0.1154  0.4075  0.4655
  132OSM   H10T14223   4.209   1.442   7.556 -0.1940 -0.0364  0.6973
  132OSM   C11S14224   4.309   1.613   7.640 -0.4983 -0.5007 -0.3481
  132OSM   H11S14225   4.213   1.656   7.675  0.6740  1.1813  0.9736
  132OSM   H11T14226   4.378   1.693   7.604 -1.1794  0.8761  1.2789
  132OSM   C12S14227   4.368   1.540   7.766 -0.6824  0.2106  0.4670
  132OSM   H12S14228   4.462   1.491   7.732 -1.2732 -0.5226 -0.1591
  132OSM   H12T14229   4.297   1.456   7.780  1.4754 -1.8843 -0.4415
  132OSM   C13S14230   4.380   1.633   7.888  1.1100  0.0561  0.8038
  132OSM   H13S14231   4.277   1.657   7.923  0.1170 -0.6736 -1.4666
  132OSM   H13T14232   4.437   1.725   7.864  1.1896  0.4686  2.4721
  132OSM   C14S14233   4.447   1.542   7.994 -0.6085  0.1452  0.5181
  132OSM   H14S14234   4.548   1.518   7.955 -0.7363  0.0469  0.2386
  132OSM   H14T14235   4.387   1.449   7.999 -0.0367 -0.2425  0.2133
  132OSM   C15S14236   4.455   1.601   8.136 -0.0366  0.8907  0.2506
  132OSM   H15S14237   4.353   1.623   8.176 -1.9648 -2.1785 -2.4201
  132OSM   H15T14238   4.513   1.695   8.137 -1.5464  1.8573  0.6681
  132OSM   C16S14239   4.533   1.504   8.224  0.0641 -0.4094 -0.4909
  132OSM   H16S14240   4.632   1.500   8.173 -1.0527  2.1526 -3.1383
  132OSM   H16T14241   4.492   1.401   8.226 -0.8782 -0.1438 -2.7781
  132OSM   C17S14242   4.549   1.551   8.366 -0.8813  0.4822  0.3088
  132OSM   H17S14243   4.452   1.544   8.418 -1.1343 -2.2456 -0.4071
  132OSM   H17T14244   4.582   1.657   8.377  0.1233  0.4411 -1.7309
  132OSM   C18S14245   4.651   1.468   8.447  0.5820  0.2058 -0.3742
  132OSM   H18S14246   4.625   1.365   8.480 -0.5236  1.4416  3.0420
  132OSM   H18T14247   4.662   1.530   8.539 -2.4111 -0.0332  0.2646
  132OSM   H18U14248   4.747   1.465   8.391  1.4509 -0.2961  1.0801
  132OSM    C1F14249   4.256   2.119   6.930  0.2242 -0.6113  0.2261
  132OSM     OF14250   4.154   2.188   6.943 -0.1027  0.1045 -0.1253
  132OSM    C2F14251   4.378   2.146   7.010  0.6144 -0.2210  0.6944
  132OSM    H2F14252   4.468   2.091   6.976  0.4359 -0.4836  0.6383
  132OSM    H2G14253   4.370   2.131   7.120  2.9810  0.5327  1.0160
  132OSM    C3F14254   4.434   2.288   6.983 -0.0604 -0.4313 -0.3732
  132OSM    H3F14255   4.351   2.352   7.019 -0.7995 -2.2184  1.2766
  132OSM    H3G14256   4.448   2.301   6.873 -0.4534 -1.7196 -0.5893
  132OSM    C4F14257   4.562   2.321   7.054  0.3474 -0.8526  0.8078
  132OSM    H4F14258   4.611   2.404   7.000 -1.0625  0.2960  1.2260
  132OSM    H4G14259   4.633   2.238   7.036  1.6152  0.2536  0.5987
  132OSM    C5F14260   4.553   2.354   7.200 -0.5084  0.1879  0.3007
  132OSM    H5F14261   4.491   2.282   7.257 -1.8396  2.4053  1.8353
  132OSM    H5G14262   4.505   2.452   7.221 -2.3319 -0.8421  1.2442
  132OSM    C6F14263   4.684   2.363   7.280  0.2252  0.6810  0.6978
  132OSM    H6F14264   4.749   2.440   7.234  1.7753 -0.7614  0.4006
  132OSM    H6G14265   4.728   2.262   7.274 -1.3989 -0.2497  2.9618
  132OSM    C7F14266   4.660   2.401   7.426  0.4187 -0.0131 -0.2141
  132OSM    H7F14267   4.573   2.342   7.463  1.2182 -0.7655  0.4914
  132OSM    H7G14268   4.623   2.504   7.440 -0.7316 -0.6736  2.0812
  132OSM    C8F14269   4.783   2.385   7.520  0.0929 -0.5289  0.4729
  132OSM    H8F14270   4.865   2.406   7.447 -1.1139  0.6920 -0.5812
  132OSM    H8G14271   4.790   2.278   7.550  1.2404 -1.5517 -2.9138
  132OSM    C9F14272   4.780   2.490   7.632 -0.1975 -0.3147 -0.6416
  132OSM    H9F14273   4.795   2.594   7.599 -2.8529 -0.4507 -2.5740
  132OSM   C10F14274   4.779   2.462   7.760  0.2431 -0.4119  0.1804
  132OSM   H10F14275   4.752   2.557   7.809 -4.7020 -0.7436 -1.3840
  132OSM   C11F14276   4.777   2.338   7.837  0.2810  0.0463 -0.2120
  132OSM   H11F14277   4.744   2.255   7.772 -0.0610 -1.0795  1.3190
  132OSM   H11G14278   4.694   2.338   7.912 -0.4015 -0.2135 -0.9635
  132OSM   C12F14279   4.912   2.314   7.908  0.7947 -0.1051  0.4431
  132OSM   H12F14280   4.996   2.335   7.839 -0.2601  2.2082 -0.2178
  132OSM   H12G14281   4.923   2.204   7.917 -1.1713 -0.2736  1.2383
  132OSM   C13F14282   4.931   2.396   8.034  0.3679 -0.0376  0.3452
  132OSM   H13F14283   4.848   2.370   8.103  0.4161  0.1805  0.4859
  132OSM   H13G14284   4.931   2.506   8.024  0.2770  0.0408  1.1540
  132OSM   C14F14285   5.066   2.350   8.101  0.1951 -0.2392 -0.4561
  132OSM   H14F14286   5.159   2.359   8.040  0.3974  0.8055 -0.0221
  132OSM   H14G14287   5.039   2.246   8.130 -1.7628  0.2122 -0.5266
  132OSM   C15F14288   5.090   2.428   8.233 -0.4389 -0.2525 -0.0525
  132OSM   H15F14289   5.180   2.386   8.281  0.3375 -2.1389 -2.8990
  132OSM   H15G14290   5.006   2.412   8.304 -0.0184  0.7909  0.7043
  132OSM   C16F14291   5.107   2.576   8.210 -0.0452 -0.4284 -0.1690
  132OSM   H16F14292   5.053   2.623   8.126 -1.1870 -1.6253 -0.1396
  132OSM   H16G14293   5.217   2.595   8.207  0.2323 -1.6394  1.1889
  132OSM   C17F14294   5.060   2.650   8.332 -0.5648 -0.7451  0.1757
  132OSM   H17F14295   5.116   2.618   8.422 -0.3361  1.2192  0.7724
  132OSM   H17G14296   4.950   2.635   8.341 -0.9220  0.3443 -1.7824
  132OSM   C18F14297   5.092   2.806   8.332  0.5362  0.7602  0.2480
  132OSM   H18F14298   5.199   2.836   8.328  0.7298  0.4381  2.0637
  132OSM   H18G14299   5.037   2.841   8.423 -1.0612 -1.6027  0.2884
  132OSM   H18H14300   5.035   2.843   8.244 -1.3955 -2.4978 -0.0223
  133SAPE     N14301   6.382   2.373  11.031 -0.6939  0.3582 -0.3444
  133SAPE   HN114302   6.293   2.356  11.083  0.1292 -0.3786  0.8597
  133SAPE   HN214303   6.415   2.464  11.068  0.6617  0.4698 -1.7317
  133SAPE   HN314304   6.352   2.385  10.932  1.5497  0.8841 -1.0264
  133SAPE   C1214305   6.488   2.267  11.056 -0.1469 -0.4042 -0.0590
  133SAPE  H12A14306   6.504   2.260  11.166  0.0287 -1.7048 -0.1485
  133SAPE  H12B14307   6.583   2.294  11.004 -0.8326 -0.7151 -1.5264
  133SAPE   C1114308   6.441   2.125  11.026  0.1799 -0.5270 -0.3421
  133SAPE  H11A14309   6.502   2.055  11.086  3.6521 -0.2082 -3.1805
  133SAPE  H11B14310   6.454   2.110  10.916 -1.1691  1.2234 -0.7920
  133SAPE     P14311   6.221   1.981  11.026  0.2261  0.0889  0.2762
  133SAPE   O1314312   6.286   1.876  11.105  0.4667 -0.0237 -0.2488
  133SAPE   O1414313   6.079   2.005  11.054 -0.7944 -0.3560  0.2718
  133SAPE   O1214314   6.300   2.114  11.055  0.1393  0.1022 -0.2715
  133SAPE   O1114315   6.240   1.962  10.874 -0.1166  0.4989  0.1372
  133SAPE    C114316   6.147   2.005  10.772 -0.7750 -0.2668 -0.1014
  133SAPE    HA14317   6.055   1.943  10.769 -0.9830 -0.0894  1.4494
  133SAPE    HB14318   6.123   2.112  10.788  1.3466  0.2573 -0.0690
  133SAPE    C214319   6.213   1.978  10.633 -0.0223 -0.3690  0.0918
  133SAPE    HS14320   6.156   2.034  10.555 -0.8149 -1.8925 -0.4815
  133SAPE   O2114321   6.222   1.829  10.613  0.5202 -0.1352  0.3588
  133SAPE   C2114322   6.112   1.789  10.558 -0.3939 -0.4541  0.1678
  133SAPE   O2214323   6.003   1.849  10.551 -1.2474 -0.0172  0.0253
  133SAPE   C2214324   6.139   1.644  10.536  0.1396  0.4269 -0.2780
  133SAPE   H2R14325   6.236   1.628  10.485 -1.1422 -2.7565 -2.0195
  133SAPE   H2S14326   6.141   1.584  10.630  1.4058  1.0426  0.1143
  133SAPE    C314327   6.359   2.029  10.640  0.1680  0.3300 -0.0613
  133SAPE    HX14328   6.399   1.969  10.725 -0.7329  1.7370  1.4211
  133SAPE    HY14329   6.366   2.135  10.670 -1.4449  0.7838 -1.1698
  133SAPE   O3114330   6.429   2.000  10.520 -0.0525 -0.0616 -0.0346
  133SAPE   C3114331   6.562   2.022  10.537 -0.0148  0.9512 -0.1342
  133SAPE   O3214332   6.617   2.078  10.627  0.1041  0.0847 -0.1673
  133SAPE   C3214333   6.627   1.992  10.407 -0.2169  0.0016  0.0279
  133SAPE   H2X14334   6.576   2.054  10.330  0.6310 -2.0933 -2.3236
  133SAPE   H2Y14335   6.600   1.886  10.388  0.6551 -0.0447 -0.9813
  133SAPE   C2314336   6.035   1.566  10.447  0.1911  0.4437 -0.3525
  133SAPE   H3R14337   5.936   1.577  10.495 -0.3277 -0.5930 -1.1441
  133SAPE   H3S14338   6.060   1.458  10.447  0.3360  0.4728 -1.1085
  133SAPE   C2414339   6.042   1.617  10.299  0.2405  0.1725  1.0762
  133SAPE   H4R14340   5.986   1.539  10.244 -0.7304  0.1801  2.0042
  133SAPE   H4S14341   6.150   1.618  10.271  0.0179  1.4364  0.2031
  133SAPE   C2514342   5.970   1.748  10.273 -0.2229  0.0786  0.0433
  133SAPE   H5R14343   5.878   1.770  10.329  0.2882  1.3310  0.4337
  133SAPE   C2614344   6.013   1.850  10.193  0.3828 -0.5642  0.4921
  133SAPE   H6R14345   5.974   1.952  10.203 -1.1714 -1.1185  0.3710
  133SAPE   C2714346   6.147   1.833  10.121 -0.0825 -0.5772  0.1414
  133SAPE   H7R14347   6.141   1.866  10.016  0.8612 -0.6085  0.0661
  133SAPE   H7S14348   6.191   1.731  10.118 -0.9802 -0.9543 -1.1425
  133SAPE   C2814349   6.250   1.915  10.194  0.4900  0.4676 -0.4713
  133SAPE   H8R14350   6.286   1.862  10.283  0.5351 -0.0462 -0.7926
  133SAPE   C2914351   6.272   2.046  10.172 -0.6017 -0.7371  0.6884
  133SAPE   H9R14352   6.339   2.092  10.247  0.6277 -0.1506 -0.7082
  133SAPE  C21014353   6.207   2.136  10.065  0.0683  0.3189 -0.3824
  133SAPE  H10R14354   6.111   2.176  10.104  0.4343 -0.6911  1.7203
  133SAPE  H10S14355   6.179   2.070   9.979 -1.2058 -0.0385  0.2858
  133SAPE  C21114356   6.302   2.252  10.024 -0.1226  0.6745 -0.6719
  133SAPE  H11R14357   6.343   2.321  10.099 -0.3200  1.4789 -1.2895
  133SAPE  C21214358   6.363   2.255   9.905 -0.0735 -0.5854  0.0940
  133SAPE  H12R14359   6.439   2.331   9.884 -1.9094  1.3047 -0.1070
  133SAPE  C21314360   6.343   2.172   9.787 -0.6235 -0.1677 -0.4345
  133SAPE  H13R14361   6.244   2.199   9.745 -1.1322  0.5384  1.1522
  133SAPE  H13S14362   6.321   2.068   9.820 -1.7520  0.7914  2.0490
  133SAPE  C21414363   6.444   2.179   9.682 -0.6641 -0.0380 -1.4073
  133SAPE  H14R14364   6.549   2.185   9.716 -1.3160  0.8380  0.6562
  133SAPE  C21514365   6.431   2.154   9.555  0.9496  0.2171  0.0058
  133SAPE  H15R14366   6.521   2.170   9.495  0.0717  1.0944 -1.1361
  133SAPE  C21614367   6.301   2.115   9.481 -0.1566  0.7704 -0.4660
  133SAPE  H16R14368   6.217   2.097   9.552  2.6619  1.6185  3.4676
  133SAPE  H16S14369   6.319   2.016   9.434  0.6769 -0.6775  2.5902
  133SAPE  C21714370   6.278   2.211   9.367 -0.0997  0.2490 -0.4899
  133SAPE  H17R14371   6.360   2.216   9.293 -0.6306 -2.7596 -1.3865
  133SAPE  H17S14372   6.264   2.309   9.418  0.8313  1.0882 -1.7829
  133SAPE  C21814373   6.144   2.176   9.297  1.1042 -0.4862  1.3276
  133SAPE  H18R14374   6.051   2.192   9.356  1.6932 -0.3293  2.2336
  133SAPE  H18S14375   6.153   2.078   9.244  0.3742 -0.5411  1.2918
  133SAPE  C21914376   6.120   2.260   9.168 -0.5707 -0.0465 -0.9886
  133SAPE  H19R14377   6.110   2.368   9.189 -0.9945 -0.2778  0.0729
  133SAPE  H19S14378   6.023   2.224   9.126 -0.3515 -2.3254  0.2886
  133SAPE  C22014379   6.221   2.241   9.048  0.5127  0.4125  0.5702
  133SAPE  H20R14380   6.324   2.265   9.081  0.2312 -1.0098  2.7155
  133SAPE  H20S14381   6.199   2.309   8.963  1.4564  0.5703  0.4444
  133SAPE  H20T14382   6.227   2.138   9.007  0.7407  0.4689  0.4637
  133SAPE   C3314383   6.781   2.023  10.403 -0.4994 -0.0980  0.3434
  133SAPE   H3X14384   6.828   1.980  10.494  1.8022  1.3857 -0.0551
  133SAPE   H3Y14385   6.786   2.134  10.413 -1.9363  0.0614 -0.3535
  133SAPE   C3414386   6.850   1.989  10.268 -0.9869  0.4838 -0.5187
  133SAPE   H4X14387   6.825   1.885  10.238  0.9384  0.1232 -0.9975
  133SAPE   H4Y14388   6.959   2.007  10.275 -1.4047  3.2466  0.4329
  133SAPE   C3514389   6.802   2.067  10.147 -0.4749 -0.3789  0.0498
  133SAPE   H5X14390   6.836   2.173  10.144 -0.8599 -0.2752 -1.4667
  133SAPE   H5Y14391   6.691   2.074  10.142 -0.7002 -2.7458  0.2924
  133SAPE   C3614392   6.841   1.996  10.015  0.2227 -0.5818 -0.3234
  133SAPE   H6X14393   6.798   1.894  10.010  1.7354 -1.2842  0.4445
  133SAPE   H6Y14394   6.950   1.981  10.031 -0.0141 -0.8772  1.1558
  133SAPE   C3714395   6.790   2.070   9.895 -0.0622  0.9294  0.5898
  133SAPE   H7X14396   6.811   2.178   9.909 -0.9131  1.0911  0.6460
  133SAPE   H7Y14397   6.680   2.060   9.887  0.2847 -2.9358 -1.9237
  133SAPE   C3814398   6.843   2.006   9.763 -0.4618 -0.1046  0.4512
  133SAPE   H8X14399   6.791   1.908   9.751 -0.6209  0.2528 -2.5895
  133SAPE   H8Y14400   6.952   1.994   9.777  0.0809  1.9216 -1.4209
  133SAPE   C3914401   6.824   2.101   9.641 -0.2571 -0.2233  0.7575
  133SAPE   H9X14402   6.855   2.202   9.675 -2.2916 -0.1484  2.6424
  133SAPE   H9Y14403   6.716   2.117   9.616  0.3197 -1.2802 -3.1726
  133SAPE  C31014404   6.892   2.039   9.516 -0.5230  0.0806  0.3123
  133SAPE  H10X14405   6.870   1.930   9.508 -0.4607  0.1289 -0.6543
  133SAPE  H10Y14406   7.002   2.040   9.533 -0.1511 -1.1793 -1.6749
  133SAPE  C31114407   6.863   2.111   9.388 -0.7790  0.0137 -0.0951
  133SAPE  H11X14408   6.913   2.210   9.392  0.0480 -0.3905 -0.1741
  133SAPE  H11Y14409   6.753   2.122   9.377 -1.2275 -1.3372  2.4179
  133SAPE  C31214410   6.908   2.031   9.263  0.5998  1.0402  1.0064
  133SAPE  H12X14411   6.888   1.922   9.274 -1.8120  1.3995  0.6460
  133SAPE  H12Y14412   7.019   2.045   9.265  0.4336  2.4878  1.7237
  133SAPE  C31314413   6.847   2.083   9.137  0.1630 -0.5174  0.8265
  133SAPE  H13X14414   6.847   2.194   9.132 -3.1487 -0.4344  0.0867
  133SAPE  H13Y14415   6.737   2.069   9.150 -0.2556  1.1018 -0.6661
  133SAPE  C31414416   6.889   2.006   9.009  0.5569 -1.2164 -0.1755
  133SAPE  H14X14417   6.810   2.018   8.931  0.9671 -0.6906 -0.5184
  133SAPE  H14Y14418   6.901   1.901   9.040  0.8253 -0.6657  1.7221
  133SAPE  C31514419   7.025   2.054   8.960  0.5211 -0.1899 -0.6101
  133SAPE  H15X14420   7.097   2.029   9.041  0.2718 -1.5306 -0.7784
  133SAPE  H15Y14421   7.029   2.164   8.942 -1.4412  0.8791  3.9877
  133SAPE  C31614422   7.062   1.975   8.831  0.3129  0.4177  0.0902
  133SAPE  H16X14423   6.995   2.014   8.752  0.6616  0.8359 -0.0054
  133SAPE  H16Y14424   7.045   1.866   8.837 -0.5311  0.3716 -2.3653
  133SAPE  C31714425   7.207   2.011   8.797  0.1954  0.5575 -0.3203
  133SAPE  H17X14426   7.277   1.960   8.867  1.9920  0.5665 -2.0342
  133SAPE  H17Y14427   7.212   2.120   8.817 -1.4593  1.0633 -2.3273
  133SAPE  C31814428   7.254   1.984   8.654 -0.9018  0.7586  0.9827
  133SAPE  H18X14429   7.234   1.877   8.630 -0.2374  0.5855  1.1826
  133SAPE  H18Y14430   7.363   2.007   8.645 -0.8779  0.0065 -1.0957
  133SAPE  H18Z14431   7.197   2.047   8.583 -1.0910 -0.5130 -0.0276
  134SAPE     N14432   3.592   0.281  10.853  0.4715  0.2010  0.1698
  134SAPE   HN114433   3.535   0.368  10.847  0.6015  0.5611  2.8057
  134SAPE   HN214434   3.620   0.283  10.953 -1.9519 -1.2222  0.9656
  134SAPE   HN314435   3.678   0.282  10.794  0.6663  2.5295  0.3958
  134SAPE   C1214436   3.509   0.162  10.816  0.5102 -0.4483  0.2579
  134SAPE  H12A14437   3.567   0.068  10.829  1.9493  0.6334  2.3731
  134SAPE  H12B14438   3.487   0.165  10.708 -0.2483 -1.3446  0.3708
  134SAPE   C1114439   3.373   0.163  10.889  0.6301 -0.2237  0.1798
  134SAPE  H11A14440   3.392   0.138  10.995  1.3953  0.2491  0.1646
  134SAPE  H11B14441   3.318   0.077  10.843 -0.2136  0.0973  0.5754
  134SAPE     P14442   3.185   0.310  10.797 -0.0730  0.0806  0.0234
  134SAPE   O1314443   3.068   0.247  10.851  0.3055  0.3712  0.0643
  134SAPE   O1414444   3.173   0.456  10.777 -0.0132 -0.5611 -0.0093
  134SAPE   O1214445   3.307   0.283  10.892  0.4439 -0.0482  0.1177
  134SAPE   O1114446   3.229   0.251  10.658 -0.2107  0.6759 -0.0101
  134SAPE    C114447   3.164   0.143  10.596  0.4272 -0.0935  0.8940
  134SAPE    HA14448   3.231   0.085  10.529 -0.0945 -0.9698  1.1253
  134SAPE    HB14449   3.135   0.061  10.664 -1.6202 -1.3260 -1.3136
  134SAPE    C214450   3.053   0.201  10.502  0.0998  0.0911  0.1029
  134SAPE    HS14451   2.972   0.225  10.574 -1.2043 -0.7511 -1.0406
  134SAPE   O2114452   3.006   0.081  10.431 -0.1967 -0.1400 -0.1307
  134SAPE   C2114453   2.885   0.104  10.372 -0.4586  0.3641  0.1624
  134SAPE   O2214454   2.820   0.204  10.391  0.7373  0.2727 -0.2445
  134SAPE   C2214455   2.845  -0.015  10.285 -0.5409 -0.1774 -0.3000
  134SAPE   H2R14456   2.932  -0.083  10.277 -0.1058  0.1439  1.2789
  134SAPE   H2S14457   2.768  -0.082  10.330 -1.6789 -0.3972 -2.4273
  134SAPE    C314458   3.104   0.312  10.412  0.0828  0.2076  0.4818
  134SAPE    HX14459   3.208   0.290  10.378  0.5077  2.1254  0.4393
  134SAPE    HY14460   3.129   0.408  10.460  0.4816  0.9429 -1.1104
  134SAPE   O3114461   3.029   0.335  10.290 -0.1672 -0.1711  0.7225
  134SAPE   C3114462   2.949   0.438  10.289 -0.9592  0.1200  0.0242
  134SAPE   O3214463   2.927   0.521  10.377 -0.4646  0.4956  0.0236
  134SAPE   C3214464   2.874   0.443  10.161  0.5005  0.2033 -0.0263
  134SAPE   H2X14465   2.834   0.545  10.142  0.7018  0.1028 -1.0806
  134SAPE   H2Y14466   2.790   0.369  10.161  0.3571  0.3502  1.0327
  134SAPE   C2314467   2.803   0.039  10.152 -0.6129 -0.1731 -0.1262
  134SAPE   H3R14468   2.884   0.100  10.106  0.5480 -0.5360  1.3425
  134SAPE   H3S14469   2.727   0.120  10.162 -1.2514 -0.8654  0.8919
  134SAPE   C2414470   2.765  -0.078  10.063  0.2636  0.8107  0.7021
  134SAPE   H4R14471   2.843  -0.155  10.083 -0.1264  0.6653  1.7441
  134SAPE   H4S14472   2.790  -0.047   9.960 -0.6453 -0.2212  0.1410
  134SAPE   C2514473   2.617  -0.107  10.071  0.6077  0.3117 -0.4160
  134SAPE   H5R14474   2.589  -0.163  10.161  1.2240  0.4814 -0.1137
  134SAPE   C2614475   2.516  -0.082   9.985  0.2529  0.3030 -0.9247
  134SAPE   H6R14476   2.412  -0.106  10.010  0.4184  0.2228 -0.3091
  134SAPE   C2714477   2.525  -0.025   9.849 -0.0183  0.2390 -0.0584
  134SAPE   H7R14478   2.452  -0.077   9.783 -0.1390 -0.2190  0.4260
  134SAPE   H7S14479   2.626  -0.028   9.801  0.7953  3.3068  1.2230
  134SAPE   C2814480   2.488   0.125   9.851 -0.5276  1.1977  0.2979
  134SAPE   H8R14481   2.441   0.164   9.943  0.0670  2.5738  0.0450
  134SAPE   C2914482   2.486   0.191   9.732  0.1369  0.2466  0.1054
  134SAPE   H9R14483   2.450   0.295   9.735  0.0097  0.1816  1.4125
  134SAPE  C21014484   2.531   0.135   9.594  0.8845 -0.1809  0.2829
  134SAPE  H10R14485   2.431   0.125   9.546  2.0215 -2.3205 -1.8720
  134SAPE  H10S14486   2.565   0.029   9.594  0.5133 -0.3124  1.5261
  134SAPE  C21114487   2.631   0.218   9.519  0.6146  0.1783  0.4143
  134SAPE  H11R14488   2.734   0.232   9.556  0.9066  1.7201 -0.8605
  134SAPE  C21214489   2.611   0.274   9.398 -0.4643  0.6781 -0.2096
  134SAPE  H12R14490   2.692   0.338   9.360  0.4580 -1.5084 -2.1209
  134SAPE  C21314491   2.494   0.280   9.307  0.2588 -0.3339  0.0192
  134SAPE  H13R14492   2.465   0.174   9.288  0.3868 -0.6724  1.6149
  134SAPE  H13S14493   2.515   0.333   9.211 -0.6064 -1.7521 -0.9877
  134SAPE  C21414494   2.377   0.350   9.365  0.0120 -0.5887 -0.5414
  134SAPE  H14R14495   2.364   0.336   9.474 -0.4525 -1.9550 -0.7635
  134SAPE  C21514496   2.275   0.413   9.300 -0.3087  0.0985  0.5336
  134SAPE  H15R14497   2.187   0.456   9.350 -0.0520 -0.7200  1.7461
  134SAPE  C21614498   2.273   0.439   9.154  0.5881  0.3979  0.2546
  134SAPE  H16R14499   2.372   0.422   9.106  0.1416 -1.9250  0.0536
  134SAPE  H16S14500   2.249   0.547   9.145 -3.3523 -0.3037  0.5057
  134SAPE  C21714501   2.161   0.362   9.079  0.3395  0.0729 -0.7134
  134SAPE  H17R14502   2.185   0.255   9.097  0.9246  0.0878 -1.3670
  134SAPE  H17S14503   2.185   0.394   8.975  2.4933  1.9680  0.2723
  134SAPE  C21814504   2.020   0.408   9.112 -0.7669 -0.4986 -0.5124
  134SAPE  H18R14505   2.013   0.513   9.077  0.0482 -0.4008 -0.3885
  134SAPE  H18S14506   2.003   0.405   9.222 -1.5749  1.8087 -0.5039
  134SAPE  C21914507   1.898   0.331   9.052 -0.2628 -0.0977 -0.3304
  134SAPE  H19R14508   1.812   0.356   9.118  0.3245  1.3556 -0.0823
  134SAPE  H19S14509   1.909   0.221   9.056 -1.2729 -0.1952 -0.0499
  134SAPE  C22014510   1.874   0.366   8.903  0.4055 -0.9225 -0.9874
  134SAPE  H20R14511   1.834   0.470   8.898 -0.2689 -1.1488 -0.3503
  134SAPE  H20S14512   1.804   0.296   8.854 -0.3699  1.8605 -4.2611
  134SAPE  H20T14513   1.973   0.360   8.852  0.3967 -0.0680 -1.1265
  134SAPE   C3314514   2.970   0.421  10.044  0.1904 -0.2632  0.4771
  134SAPE   H3X14515   3.039   0.335  10.059  0.4411 -0.5185 -1.7020
  134SAPE   H3Y14516   3.031   0.513  10.040  1.8174 -1.2719  0.9740
  134SAPE   C3414517   2.905   0.390   9.906 -0.6605  0.6536  0.1669
  134SAPE   H4X14518   2.825   0.313   9.907  0.2234 -0.2977 -0.3553
  134SAPE   H4Y14519   2.978   0.347   9.835 -0.2930  0.2508  0.7743
  134SAPE   C3514520   2.871   0.515   9.839 -0.0103  0.3316  0.5110
  134SAPE   H5X14521   2.960   0.581   9.832  1.0425 -1.0571  0.5071
  134SAPE   H5Y14522   2.789   0.565   9.895 -0.5542  1.6964 -1.4024
  134SAPE   C3614523   2.814   0.490   9.695  0.1367  0.1998 -0.5774
  134SAPE   H6X14524   2.735   0.411   9.703  1.4037 -1.0788 -0.3330
  134SAPE   H6Y14525   2.900   0.450   9.639  0.1820 -2.2607  1.0940
  134SAPE   C3714526   2.775   0.620   9.640  0.1439 -0.5316 -0.0746
  134SAPE   H7X14527   2.852   0.698   9.658 -0.6499  0.2268  0.0941
  134SAPE   H7Y14528   2.688   0.651   9.701 -2.0488 -3.3439 -1.5548
  134SAPE   C3814529   2.745   0.629   9.491  0.3777 -0.0070 -0.3753
  134SAPE   H8X14530   2.711   0.732   9.468 -1.8678 -0.9256 -1.4818
  134SAPE   H8Y14531   2.666   0.559   9.458 -2.3561  1.8984  1.7233
  134SAPE   C3914532   2.876   0.613   9.411  0.4816  0.6532 -0.3888
  134SAPE   H9X14533   2.921   0.512   9.422  0.2323  0.3154 -2.1486
  134SAPE   H9Y14534   2.946   0.689   9.453  0.2647  0.5564  0.1639
  134SAPE  C31014535   2.858   0.635   9.263  0.3075  0.2106  0.2991
  134SAPE  H10X14536   2.957   0.672   9.228  0.1682 -0.5934 -1.0428
  134SAPE  H10Y14537   2.787   0.718   9.246 -2.9908 -2.8749 -3.0662
  134SAPE  C31114538   2.817   0.512   9.184  0.1174  0.3589 -0.6457
  134SAPE  H11X14539   2.718   0.468   9.212 -0.7125  1.6361 -1.4650
  134SAPE  H11Y14540   2.881   0.425   9.211 -1.9750 -1.5519 -1.4522
  134SAPE  C31214541   2.816   0.529   9.030  0.5980 -0.4949 -0.8139
  134SAPE  H12X14542   2.796   0.432   8.979  0.6362 -1.4393  0.9119
  134SAPE  H12Y14543   2.917   0.555   8.993  0.5405 -0.2234 -0.7803
  134SAPE  C31314544   2.715   0.639   8.990 -0.1364 -0.4159 -0.7640
  134SAPE  H13X14545   2.745   0.740   9.023 -0.3763 -0.9450  1.1992
  134SAPE  H13Y14546   2.619   0.609   9.037  0.6339 -2.1907 -0.2124
  134SAPE  C31414547   2.700   0.625   8.838  0.3452  0.0918  0.4250
  134SAPE  H14X14548   2.705   0.519   8.804  0.1282  0.0547  0.5081
  134SAPE  H14Y14549   2.777   0.680   8.781 -0.2651  0.4797 -0.0415
  134SAPE  C31514550   2.561   0.675   8.783  0.1076  0.4538 -0.1699
  134SAPE  H15X14551   2.525   0.770   8.828  0.0615 -0.2236  1.2606
  134SAPE  H15Y14552   2.487   0.595   8.800  2.1272 -1.2803  0.8945
  134SAPE  C31614553   2.573   0.715   8.632 -1.2758 -0.1328 -0.0854
  134SAPE  H16X14554   2.653   0.792   8.625 -0.5589 -0.9435 -0.9573
  134SAPE  H16Y14555   2.476   0.767   8.612 -0.9857  1.3958  2.0376
  134SAPE  C31714556   2.598   0.601   8.539 -0.6060 -0.1999  0.1502
  134SAPE  H17X14557   2.516   0.525   8.538 -1.7335  0.9559 -1.8935
  134SAPE  H17Y14558   2.689   0.540   8.561 -0.5898  0.1467  1.0755
  134SAPE  C31814559   2.602   0.640   8.390  0.4291  0.8444 -0.4412
  134SAPE  H18X14560   2.508   0.691   8.359 -0.1915  0.9759  1.4975
  134SAPE  H18Y14561   2.604   0.553   8.321 -3.6982  1.7196 -1.9561
  134SAPE  H18Z14562   2.693   0.702   8.373  1.6422 -0.6694  0.3353
  135SAPE     N14563   2.980   6.523  10.840  0.7523 -0.5740 -0.4785
  135SAPE   HN114564   2.945   6.603  10.896  1.3687  0.1606 -1.1085
  135SAPE   HN214565   3.079   6.509  10.869  0.2033  1.0423  2.4584
  135SAPE   HN314566   2.981   6.548  10.739 -1.5383 -0.6064 -0.5498
  135SAPE   C1214567   2.897   6.403  10.850 -0.2859  0.2197 -0.6526
  135SAPE  H12A14568   2.952   6.334  10.919 -0.2020  0.3693 -0.5700
  135SAPE  H12B14569   2.905   6.362  10.747  3.0446 -1.7028  0.2208
  135SAPE   C1114570   2.754   6.428  10.903 -0.0180  0.3826 -0.5841
  135SAPE  H11A14571   2.764   6.488  10.996 -0.2289 -0.2669 -0.1361
  135SAPE  H11B14572   2.719   6.328  10.936 -1.0417  1.1163  0.6430
  135SAPE     P14573   2.570   6.607  10.820 -0.0800 -0.1438 -0.2025
  135SAPE   O1314574   2.471   6.560  10.913  0.3997 -0.4895  0.3164
  135SAPE   O1414575   2.637   6.736  10.839 -0.2636  0.3994  0.0974
  135SAPE   O1214576   2.669   6.488  10.798  0.1029  0.0577 -0.5571
  135SAPE   O1114577   2.493   6.607  10.677 -0.0533 -0.1854  0.5102
  135SAPE    C114578   2.569   6.621  10.561 -0.0289  0.1309 -0.0677
  135SAPE    HA14579   2.534   6.712  10.509  0.4793 -1.3032 -3.1006
  135SAPE    HB14580   2.674   6.646  10.585  0.0796  1.0964 -1.4511
  135SAPE    C214581   2.557   6.505  10.457 -0.9061  0.3307  0.1545
  135SAPE    HS14582   2.597   6.535  10.358 -0.0701  0.5759  0.5597
  135SAPE   O2114583   2.417   6.462  10.444 -0.1301  0.0418  0.4733
  135SAPE   C2114584   2.343   6.545  10.371 -0.2316  0.7826  0.1317
  135SAPE   O2214585   2.376   6.651  10.323  0.0989  0.6933 -0.1381
  135SAPE   C2214586   2.200   6.491  10.369 -0.3119 -0.0687  0.1755
  135SAPE   H2R14587   2.167   6.503  10.474  0.8805 -1.6349  0.7653
  135SAPE   H2S14588   2.148   6.562  10.301  1.4415  0.8826 -0.2631
  135SAPE    C314589   2.651   6.385  10.493 -0.4757  0.1968 -0.5861
  135SAPE    HX14590   2.615   6.337  10.587 -0.9840  1.5842 -0.0337
  135SAPE    HY14591   2.750   6.419  10.531 -0.3606 -1.4148  0.6388
  135SAPE   O3114592   2.681   6.287  10.395  0.5677 -0.1232  0.5802
  135SAPE   C3114593   2.774   6.322  10.317  0.4361  0.1221 -0.3857
  135SAPE   O3214594   2.831   6.435  10.317 -0.4454  0.8945 -0.0868
  135SAPE   C3214595   2.813   6.206  10.226 -0.5014  0.1212  0.1616
  135SAPE   H2X14596   2.807   6.117  10.292 -0.1160 -0.6174 -0.7821
  135SAPE   H2Y14597   2.919   6.200  10.194 -0.7811 -1.4585 -0.5684
  135SAPE   C2314598   2.183   6.355  10.309  0.5494  0.0532 -0.2957
  135SAPE   H3R14599   2.079   6.339  10.273 -0.3174  2.3561  1.0052
  135SAPE   H3S14600   2.198   6.283  10.393 -1.0548  1.3822  1.2247
  135SAPE   C2414601   2.290   6.315  10.201  0.3285  0.0575 -0.0857
  135SAPE   H4R14602   2.266   6.218  10.151 -0.8289  0.6770 -0.7730
  135SAPE   H4S14603   2.390   6.297  10.245  0.6569  1.8438 -0.0504
  135SAPE   C2514604   2.293   6.416  10.097 -0.3227 -0.4336  0.7517
  135SAPE   H5R14605   2.390   6.464  10.082 -1.0625  0.2901 -2.3157
  135SAPE   C2614606   2.204   6.446  10.000  1.0112  0.2254  0.4857
  135SAPE   H6R14607   2.230   6.525   9.928 -0.9809  0.3465 -0.1647
  135SAPE   C2714608   2.058   6.389   9.991 -0.4756 -0.0007 -0.3037
  135SAPE   H7R14609   2.040   6.307  10.063 -0.8385  0.1355 -0.2362
  135SAPE   H7S14610   2.049   6.348   9.889 -1.4404 -2.6256  0.7551
  135SAPE   C2814611   1.955   6.496  10.003  0.7142 -0.4779 -0.5442
  135SAPE   H8R14612   1.948   6.551  10.098 -0.3840 -1.4466 -0.0460
  135SAPE   C2914613   1.890   6.543   9.898  1.0442 -0.1923 -0.3319
  135SAPE   H9R14614   1.822   6.626   9.920  1.7586 -0.0531  1.6226
  135SAPE  C21014615   1.897   6.483   9.758  0.3445 -0.2239 -0.0610
  135SAPE  H10R14616   2.001   6.491   9.719 -0.7459 -0.8230 -3.4140
  135SAPE  H10S14617   1.828   6.548   9.698  0.0667  0.2798  0.7905
  135SAPE  C21114618   1.849   6.339   9.748 -0.0343 -0.5942 -0.5677
  135SAPE  H11R14619   1.806   6.305   9.843  0.1174  0.0764 -0.2523
  135SAPE  C21214620   1.846   6.266   9.638 -0.3672  0.2336  0.3431
  135SAPE  H12R14621   1.803   6.165   9.638 -0.9736  0.4524 -1.3750
  135SAPE  C21314622   1.890   6.297   9.500 -0.6123 -0.0291  0.0255
  135SAPE  H13R14623   1.953   6.388   9.493  2.1532 -1.7992  0.2599
  135SAPE  H13S14624   1.800   6.332   9.446 -0.3489  1.2211  0.3700
  135SAPE  C21414625   1.979   6.188   9.439  0.2734  0.3340  0.1859
  135SAPE  H14R14626   2.052   6.138   9.504  1.3413 -1.7875 -2.4612
  135SAPE  C21514627   1.972   6.141   9.308  0.3024 -0.6942  0.2113
  135SAPE  H15R14628   2.039   6.063   9.268  0.1421 -0.0291 -1.4190
  135SAPE  C21614629   1.880   6.193   9.200 -0.1991 -0.8552 -0.9180
  135SAPE  H16R14630   1.829   6.280   9.247 -1.9384 -2.0344 -0.5329
  135SAPE  H16S14631   1.801   6.120   9.172 -2.3010  0.6664  0.7449
  135SAPE  C21714632   1.960   6.232   9.075  0.6021 -0.8462 -0.5271
  135SAPE  H17R14633   2.003   6.146   9.019  2.5554  0.8150 -1.7195
  135SAPE  H17S14634   2.039   6.305   9.103 -1.8034  2.4127 -1.5138
  135SAPE  C21814635   1.877   6.297   8.968  0.7231  0.1862  0.1608
  135SAPE  H18R14636   1.789   6.233   8.948  0.2526  0.6548  0.7261
  135SAPE  H18S14637   1.941   6.315   8.878  0.7871  0.2485  0.2195
  135SAPE  C21914638   1.818   6.427   9.009 -0.3437 -0.3908 -0.9493
  135SAPE  H19R14639   1.887   6.477   9.081  0.9709 -3.4839  0.1026
  135SAPE  H19S14640   1.725   6.399   9.063  1.7394 -2.4851  1.9167
  135SAPE  C22014641   1.801   6.526   8.893 -0.1370  0.2995 -0.0415
  135SAPE  H20R14642   1.742   6.474   8.814  0.7018 -0.7970  0.0328
  135SAPE  H20S14643   1.896   6.555   8.843  0.9050 -1.3697  0.8950
  135SAPE  H20T14644   1.748   6.620   8.920  2.1128  1.8607 -0.7069
  135SAPE   C3314645   2.716   6.194  10.108 -0.0950 -0.0274 -0.1344
  135SAPE   H3X14646   2.609   6.199  10.140  0.8105 -2.0867  3.8511
  135SAPE   H3Y14647   2.722   6.091  10.067 -1.5581 -0.7915  1.4343
  135SAPE   C3414648   2.753   6.298  10.000 -0.6358 -0.4820 -0.3295
  135SAPE   H4X14649   2.859   6.286   9.970 -0.7604 -1.5817 -0.3894
  135SAPE   H4Y14650   2.738   6.399  10.043 -0.3198 -0.7998  0.5582
  135SAPE   C3514651   2.662   6.299   9.879 -0.4465  0.4001  0.5272
  135SAPE   H5X14652   2.556   6.333   9.888 -1.2318 -1.1946 -1.6660
  135SAPE   H5Y14653   2.651   6.193   9.846 -1.2401 -0.3066  2.8485
  135SAPE   C3614654   2.735   6.378   9.771 -0.5329 -0.4792  0.2697
  135SAPE   H6X14655   2.835   6.330   9.763 -0.7185 -1.0607  1.3734
  135SAPE   H6Y14656   2.748   6.486   9.797  0.7826 -0.1461 -1.5078
  135SAPE   C3714657   2.678   6.373   9.629  0.1747 -0.2842 -0.3990
  135SAPE   H7X14658   2.589   6.439   9.629 -0.3692 -0.9608 -2.0663
  135SAPE   H7Y14659   2.642   6.271   9.603  0.2168 -0.0488 -1.4192
  135SAPE   C3814660   2.778   6.418   9.520 -0.2872 -0.5927 -0.2294
  135SAPE   H8X14661   2.723   6.410   9.423 -1.1390 -0.8473  0.2675
  135SAPE   H8Y14662   2.871   6.358   9.513  0.3287  0.3302 -0.2474
  135SAPE   C3914663   2.821   6.561   9.529 -0.2207  0.0142 -0.1705
  135SAPE   H9X14664   2.875   6.578   9.625 -0.6654 -0.0796  0.1005
  135SAPE   H9Y14665   2.738   6.631   9.549  0.1669  0.4998 -0.2526
  135SAPE  C31014666   2.893   6.609   9.410 -0.1071 -0.6857  0.3460
  135SAPE  H10X14667   2.982   6.545   9.391 -0.6082 -0.9347 -1.2918
  135SAPE  H10Y14668   2.935   6.708   9.436  0.6825 -1.1348  0.8200
  135SAPE  C31114669   2.804   6.615   9.286 -0.4266 -0.2420  0.2525
  135SAPE  H11X14670   2.706   6.661   9.309 -0.6260  0.5931 -1.9892
  135SAPE  H11Y14671   2.794   6.509   9.254  3.0088 -0.4342 -0.6618
  135SAPE  C31214672   2.869   6.695   9.176  0.3414 -0.2014  0.1517
  135SAPE  H12X14673   2.960   6.640   9.143 -0.0285 -0.6814 -0.0861
  135SAPE  H12Y14674   2.893   6.796   9.216  0.2234 -0.0425 -0.1713
  135SAPE  C31314675   2.773   6.709   9.052  0.3316 -0.1407  0.1701
  135SAPE  H13X14676   2.673   6.745   9.083 -0.4426 -0.0721 -2.2061
  135SAPE  H13Y14677   2.766   6.610   9.003 -2.9710  0.5385 -1.0025
  135SAPE  C31414678   2.830   6.810   8.955  0.5659 -0.6640  0.5531
  135SAPE  H14X14679   2.925   6.773   8.911  0.3231  0.0488 -0.5963
  135SAPE  H14Y14680   2.851   6.903   9.011 -0.9970 -0.6444  1.1543
  135SAPE  C31514681   2.732   6.856   8.848  0.4938  0.3696  0.6086
  135SAPE  H15X14682   2.710   6.759   8.798  1.4459  1.3810 -1.9131
  135SAPE  H15Y14683   2.774   6.920   8.767 -1.1076  0.9199  0.1746
  135SAPE  C31614684   2.608   6.946   8.892  0.3781 -0.0327  0.2252
  135SAPE  H16X14685   2.657   7.035   8.937  2.3613 -1.4716  1.0277
  135SAPE  H16Y14686   2.560   6.879   8.967 -0.1584 -0.2187 -0.2732
  135SAPE  C31714687   2.521   6.987   8.770  0.4546  0.1959  0.4814
  135SAPE  H17X14688   2.483   6.886   8.746  0.4599 -0.1169  1.7335
  135SAPE  H17Y14689   2.580   7.030   8.686 -3.2517  2.4378 -1.2315
  135SAPE  C31814690   2.405   7.085   8.800 -0.3466 -0.2196  0.4922
  135SAPE  H18X14691   2.439   7.191   8.794 -0.2684 -0.2604  0.1708
  135SAPE  H18Y14692   2.368   7.069   8.903  0.7912 -0.4890  0.8818
  135SAPE  H18Z14693   2.327   7.065   8.724  0.5428  0.8402 -0.7483
  136SAPE     N14694   5.612   5.873  11.082 -0.4718  0.0665 -0.0948
  136SAPE   HN114695   5.515   5.856  11.050 -1.2056  2.0551  0.9227
  136SAPE   HN214696   5.631   5.824  11.172 -0.8508  1.9131  1.0302
  136SAPE   HN314697   5.610   5.976  11.097 -0.6575  0.2462 -1.2602
  136SAPE   C1214698   5.716   5.840  10.970 -0.0967 -0.0072 -0.5566
  136SAPE  H12A14699   5.819   5.860  11.005  0.1705 -2.1796  0.0798
  136SAPE  H12B14700   5.684   5.898  10.881  1.7476 -2.1979 -2.7917
  136SAPE   C1114701   5.717   5.695  10.927  0.3236  0.2076  0.4737
  136SAPE  H11A14702   5.769   5.690  10.829 -0.0014 -0.5786  0.3314
  136SAPE  H11B14703   5.619   5.651  10.899 -0.2267 -0.8767  3.6384
  136SAPE     P14704   5.929   5.580  11.036  0.1774 -0.1405  0.2456
  136SAPE   O1314705   5.989   5.699  11.104  0.2627  0.2221 -0.0821
  136SAPE   O1414706   5.943   5.447  11.109 -0.4241 -0.3865  0.0805
  136SAPE   O1214707   5.780   5.613  11.025 -0.1384 -0.2715  0.5285
  136SAPE   O1114708   5.971   5.560  10.884  0.3685 -0.0949  0.6244
  136SAPE    C114709   5.914   5.461  10.801 -0.7021  0.5222 -0.0117
  136SAPE    HA14710   5.831   5.404  10.848 -0.6111  0.8654  0.5663
  136SAPE    HB14711   5.867   5.495  10.706  0.1301 -0.1008 -0.6593
  136SAPE    C214712   6.022   5.354  10.759  0.2158  1.0092  0.0514
  136SAPE    HS14713   6.056   5.291  10.845 -0.6234 -0.2172 -0.4929
  136SAPE   O2114714   6.136   5.418  10.697 -0.6943  0.3706 -0.5134
  136SAPE   C2114715   6.241   5.347  10.681 -0.4095  0.0105 -0.3699
  136SAPE   O2214716   6.265   5.236  10.725 -0.0132  0.4600  0.0710
  136SAPE   C2214717   6.340   5.428  10.592  0.2615 -0.8589 -0.1128
  136SAPE   H2R14718   6.308   5.415  10.486  1.3672 -0.0060 -0.5737
  136SAPE   H2S14719   6.319   5.534  10.618 -0.8666 -1.3692  1.1206
  136SAPE    C314720   5.949   5.244  10.664  0.1162 -0.2301  0.2333
  136SAPE    HX14721   5.855   5.209  10.711  0.9352 -0.2483  1.9145
  136SAPE    HY14722   6.014   5.157  10.644 -2.4826 -2.1536 -0.3793
  136SAPE   O3114723   5.915   5.305  10.535 -0.1509 -0.1777  1.4648
  136SAPE   C3114724   5.879   5.214  10.443 -0.1362 -0.2011 -0.2631
  136SAPE   O3214725   5.893   5.094  10.458  0.8482 -0.2626  0.0898
  136SAPE   C3214726   5.803   5.273  10.333  0.1472  0.0730 -0.1739
  136SAPE   H2X14727   5.867   5.256  10.244 -0.8752  0.3101 -0.9775
  136SAPE   H2Y14728   5.784   5.382  10.348 -1.4182 -0.3597  1.3165
  136SAPE   C2314729   6.486   5.389  10.617  0.1360  0.4153  0.0733
  136SAPE   H3R14730   6.521   5.284  10.606  1.1993  0.7244  0.3280
  136SAPE   H3S14731   6.500   5.398  10.727 -2.3784  0.8206  0.4053
  136SAPE   C2414732   6.583   5.482  10.546  0.2827  0.8715  0.2972
  136SAPE   H4R14733   6.679   5.488  10.602 -0.1214  1.5394  0.9385
  136SAPE   H4S14734   6.542   5.584  10.558  1.5836  1.3876  0.6024
  136SAPE   C2514735   6.597   5.450  10.394 -0.4107  0.0509 -0.6413
  136SAPE   H5R14736   6.585   5.344  10.371  0.8754 -0.4752  0.8964
  136SAPE   C2614737   6.594   5.533  10.287  0.2933  0.0869 -0.2454
  136SAPE   H6R14738   6.573   5.494  10.187 -1.0321  1.0743 -0.3884
  136SAPE   C2714739   6.577   5.686  10.286 -0.1618  0.7662 -0.3828
  136SAPE   H7R14740   6.640   5.729  10.206  1.5236 -1.1088 -0.1548
  136SAPE   H7S14741   6.623   5.721  10.381  0.5319 -0.5790 -0.1896
  136SAPE   C2814742   6.438   5.739  10.276 -0.3998 -0.3835  0.0966
  136SAPE   H8R14743   6.388   5.764  10.371 -0.5004 -0.1093 -0.0266
  136SAPE   C2914744   6.365   5.754  10.157 -0.6009 -0.0570  0.1983
  136SAPE   H9R14745   6.262   5.792  10.147 -1.1105 -1.2289  0.8155
  136SAPE  C21014746   6.425   5.717  10.020 -0.2434 -0.3703 -0.2417
  136SAPE  H10R14747   6.454   5.610  10.027  0.2004 -0.2382 -0.0380
  136SAPE  H10S14748   6.524   5.764  10.002  0.4451 -0.0091  3.5462
  136SAPE  C21114749   6.334   5.736   9.907 -0.7543 -0.8678 -0.9608
  136SAPE  H11R14750   6.253   5.664   9.895 -0.9461 -0.8396  0.0910
  136SAPE  C21214751   6.342   5.833   9.813  0.4595  0.0925  0.3876
  136SAPE  H12R14752   6.272   5.823   9.729  1.2044  0.6019 -0.3093
  136SAPE  C21314753   6.456   5.933   9.792 -0.1829 -0.6495 -0.2516
  136SAPE  H13R14754   6.506   5.936   9.891 -0.6358 -0.9162 -0.0084
  136SAPE  H13S14755   6.411   6.034   9.780  3.9240  1.6077  1.4538
  136SAPE  C21414756   6.561   5.912   9.683  0.4190  0.0143 -0.4903
  136SAPE  H14R14757   6.665   5.893   9.715  0.6478  1.5908 -0.2069
  136SAPE  C21514758   6.531   5.907   9.550  0.1046 -0.3141  0.1928
  136SAPE  H15R14759   6.614   5.902   9.478  0.9675  2.5332  0.8457
  136SAPE  C21614760   6.394   5.918   9.490 -0.5209 -0.0086 -0.2428
  136SAPE  H16R14761   6.314   5.939   9.564 -1.7655 -1.8411 -0.9961
  136SAPE  H16S14762   6.380   5.819   9.440  0.3627 -1.6380  2.4896
  136SAPE  C21714763   6.382   6.034   9.391 -0.4054 -0.3905  0.1681
  136SAPE  H17R14764   6.404   6.131   9.441  2.3091 -0.4033 -0.8495
  136SAPE  H17S14765   6.280   6.024   9.348 -0.3629 -0.4668  0.0853
  136SAPE  C21814766   6.479   6.026   9.270  0.2588  0.3613  0.3474
  136SAPE  H18R14767   6.460   5.925   9.228 -1.1731  1.5144 -2.0258
  136SAPE  H18S14768   6.585   6.035   9.301  0.1224  0.5418  0.7617
  136SAPE  C21914769   6.447   6.124   9.152  0.1000 -0.6213  0.4551
  136SAPE  H19R14770   6.531   6.111   9.079  0.2487  0.6270  0.3949
  136SAPE  H19S14771   6.450   6.225   9.196  0.5651 -0.7286  0.6793
  136SAPE  C22014772   6.311   6.112   9.077  1.0735  0.4324 -0.1636
  136SAPE  H20R14773   6.225   6.094   9.145  0.6078  1.8966 -0.3319
  136SAPE  H20S14774   6.311   6.019   9.016 -1.3133  1.1499 -1.3724
  136SAPE  H20T14775   6.287   6.201   9.015  2.5537 -0.2790 -1.8249
  136SAPE   C3314776   5.663   5.208  10.313  1.1086 -0.2252 -0.3467
  136SAPE   H3X14777   5.606   5.236  10.404  0.0047 -1.9312 -0.4685
  136SAPE   H3Y14778   5.665   5.097  10.309  1.6873 -0.1953 -1.3250
  136SAPE   C3414779   5.589   5.254  10.188  0.3414  0.3415 -0.8402
  136SAPE   H4X14780   5.608   5.363  10.184 -1.5509  0.7328 -0.0237
  136SAPE   H4Y14781   5.482   5.229  10.199 -0.1241  1.3499 -2.6555
  136SAPE   C3514782   5.639   5.198  10.051  0.0917 -0.0834  0.4926
  136SAPE   H5X14783   5.736   5.251  10.034  0.1424  0.0878  1.2576
  136SAPE   H5Y14784   5.564   5.229   9.975 -0.9571 -0.4646  1.3576
  136SAPE   C3614785   5.662   5.051  10.049  0.3565  0.4484  0.4545
  136SAPE   H6X14786   5.570   4.993  10.072  0.6328  0.6202  2.1628
  136SAPE   H6Y14787   5.738   5.014  10.121  0.7387 -0.6654 -0.5036
  136SAPE   C3714788   5.723   5.005   9.916 -0.6329  0.0156  0.3245
  136SAPE   H7X14789   5.791   4.921   9.941 -0.6339  0.0662  0.5005
  136SAPE   H7Y14790   5.791   5.079   9.870 -0.1592 -0.5556  0.0858
  136SAPE   C3814791   5.630   4.956   9.812 -0.1403  0.7300  0.3223
  136SAPE   H8X14792   5.573   5.039   9.765  0.7115  0.6760 -0.8261
  136SAPE   H8Y14793   5.561   4.882   9.858  1.5574 -1.4206 -0.4527
  136SAPE   C3914794   5.689   4.878   9.687  0.5941 -0.3978 -0.1616
  136SAPE   H9X14795   5.611   4.843   9.615  0.0555  2.1346 -0.9161
  136SAPE   H9Y14796   5.745   4.782   9.693 -0.1212 -1.0085 -2.3727
  136SAPE  C31014797   5.775   4.982   9.598 -0.1198  0.9340 -0.3618
  136SAPE  H10X14798   5.856   5.034   9.655 -0.9299  2.1517 -0.2689
  136SAPE  H10Y14799   5.712   5.072   9.583 -0.2622  0.7508 -0.8636
  136SAPE  C31114800   5.840   4.918   9.471  0.0365 -0.2521  0.0006
  136SAPE  H11X14801   5.877   4.818   9.501  3.1873  0.2493 -1.7578
  136SAPE  H11Y14802   5.929   4.980   9.447  0.3167 -0.6167  0.0939
  136SAPE  C31214803   5.746   4.909   9.353 -0.2289 -0.4322 -0.2764
  136SAPE  H12X14804   5.663   4.981   9.370 -0.5367 -0.6616 -0.7773
  136SAPE  H12Y14805   5.704   4.807   9.365 -0.8244  0.0130  1.6738
  136SAPE  C31314806   5.807   4.917   9.216 -0.7773 -0.9725  0.3214
  136SAPE  H13X14807   5.898   4.853   9.209 -1.6264 -2.2865  0.9607
  136SAPE  H13Y14808   5.847   5.018   9.192  0.3240 -1.0678  1.6438
  136SAPE  C31414809   5.721   4.870   9.100  0.4508 -0.6701  0.6982
  136SAPE  H14X14810   5.619   4.914   9.096  0.1861 -1.3896 -1.4371
  136SAPE  H14Y14811   5.708   4.760   9.110  0.2885 -0.8795 -1.4181
  136SAPE  C31514812   5.795   4.891   8.969 -0.8575 -0.9354 -0.0982
  136SAPE  H15X14813   5.892   4.837   8.978 -2.2662 -3.4941  0.9530
  136SAPE  H15Y14814   5.816   4.999   8.954 -1.8421 -0.8906 -1.3967
  136SAPE  C31614815   5.724   4.849   8.835 -0.1091 -0.0157 -0.1717
  136SAPE  H16X14816   5.720   4.738   8.841  1.0018 -0.1499 -1.3879
  136SAPE  H16Y14817   5.781   4.878   8.744 -0.1638  2.4362  0.5070
  136SAPE  C31714818   5.580   4.892   8.816  0.0229  0.6195  0.0051
  136SAPE  H17X14819   5.583   5.003   8.828  3.2752  0.3539  4.1029
  136SAPE  H17Y14820   5.511   4.838   8.884 -0.1233  0.4074 -0.3085
  136SAPE  C31814821   5.522   4.864   8.675 -0.8135 -0.2085 -0.1030
  136SAPE  H18X14822   5.418   4.902   8.677 -0.5223  0.6515 -0.7071
  136SAPE  H18Y14823   5.531   4.755   8.658  0.1075 -0.2939  0.8386
  136SAPE  H18Z14824   5.579   4.918   8.596 -0.1803 -0.7587 -0.0248
  137SAPE     N14825   2.261   1.430  10.843  0.3004 -0.6858 -0.6582
  137SAPE   HN114826   2.196   1.362  10.887 -1.2042 -0.3180 -2.1863
  137SAPE   HN214827   2.335   1.453  10.912  0.1320  0.1869 -0.7639
  137SAPE   HN314828   2.192   1.507  10.848 -1.4477 -2.1960 -0.1876
  137SAPE   C1214829   2.301   1.391  10.702  0.5368 -0.7968 -0.4012
  137SAPE  H12A14830   2.367   1.473  10.666  1.8809 -1.1563  1.1473
  137SAPE  H12B14831   2.209   1.379  10.641  0.4756 -1.4248 -0.1834
  137SAPE   C1114832   2.390   1.271  10.725 -0.0973  0.0904 -0.6497
  137SAPE  H11A14833   2.407   1.210  10.633  0.1220 -1.1326  0.1725
  137SAPE  H11B14834   2.346   1.188  10.784  1.6784 -0.8438 -0.5931
  137SAPE     P14835   2.566   1.242  10.916 -0.2568 -0.1469  0.0287
  137SAPE   O1314836   2.694   1.305  10.954  0.4997 -0.1018  0.4108
  137SAPE   O1414837   2.455   1.249  11.020  0.2773 -0.2810  0.2621
  137SAPE   O1214838   2.521   1.302  10.781  0.6719 -0.6070 -0.1736
  137SAPE   O1114839   2.595   1.093  10.868  0.2250 -0.4172 -0.1733
  137SAPE    C114840   2.702   1.067  10.774  0.1104  0.4345 -0.4863
  137SAPE    HA14841   2.729   1.158  10.717  0.1612  0.4059 -0.5076
  137SAPE    HB14842   2.787   1.016  10.823 -1.6753  0.0815  2.4945
  137SAPE    C214843   2.652   0.965  10.668  0.0728 -0.2591  0.0802
  137SAPE    HS14844   2.591   1.031  10.602  0.9177  0.2880 -0.1594
  137SAPE   O2114845   2.564   0.868  10.739 -0.2822  0.4012  0.3203
  137SAPE   C2114846   2.488   0.804  10.645  0.3815 -0.1738 -0.1897
  137SAPE   O2214847   2.457   0.843  10.538 -0.6764 -0.1473  0.2658
  137SAPE   C2214848   2.453   0.662  10.698  0.4409 -0.5511 -0.1501
  137SAPE   H2R14849   2.494   0.583  10.632  1.8435  0.7598 -0.8922
  137SAPE   H2S14850   2.508   0.640  10.792 -1.7871 -2.3977  0.8195
  137SAPE    C314851   2.759   0.898  10.587 -0.3616  0.3705  0.3406
  137SAPE    HX14852   2.805   0.809  10.635  1.9857  0.5842 -1.3395
  137SAPE    HY14853   2.825   0.985  10.566  1.0884 -1.0738 -1.4601
  137SAPE   O3114854   2.711   0.850  10.464 -0.3646 -0.4549  0.1735
  137SAPE   C3114855   2.785   0.878  10.355 -0.7185  0.7630 -0.1570
  137SAPE   O3214856   2.901   0.928  10.356  0.1206 -0.2397 -0.3684
  137SAPE   C3214857   2.697   0.852  10.232 -0.1424  0.2487 -0.4037
  137SAPE   H2X14858   2.601   0.906  10.252 -0.8731 -1.0563 -0.2746
  137SAPE   H2Y14859   2.685   0.742  10.234  2.5768 -0.1530 -1.6749
  137SAPE   C2314860   2.305   0.645  10.731 -0.4584  0.1718 -0.4172
  137SAPE   H3R14861   2.269   0.743  10.768  0.5319 -0.0732  1.2665
  137SAPE   H3S14862   2.296   0.576  10.818 -1.7784  1.6145  0.6523
  137SAPE   C2414863   2.224   0.601  10.613 -0.5334  0.1255  0.2399
  137SAPE   H4R14864   2.255   0.497  10.587  1.8238  0.5329  1.2103
  137SAPE   H4S14865   2.257   0.672  10.534  1.0405 -0.5997  0.1919
  137SAPE   C2514866   2.075   0.594  10.623 -0.5420  1.2380 -0.1942
  137SAPE   H5R14867   2.032   0.591  10.725 -0.5552 -0.2971 -0.2222
  137SAPE   C2614868   1.981   0.605  10.526  0.3844  1.0149  0.1616
  137SAPE   H6R14869   1.876   0.610  10.559  0.9721  2.4628  2.0273
  137SAPE   C2714870   2.007   0.634  10.382 -0.4616 -0.4287  0.0642
  137SAPE   H7R14871   1.952   0.561  10.319  1.0473 -2.4688  0.9969
  137SAPE   H7S14872   2.110   0.610  10.350 -0.3645  1.2610 -0.9840
  137SAPE   C2814873   1.991   0.776  10.332  0.4200 -0.0210  0.2988
  137SAPE   H8R14874   2.000   0.859  10.403 -2.5530  0.8017 -0.1343
  137SAPE   C2914875   1.966   0.811  10.204 -0.1504 -0.6704 -0.2801
  137SAPE   H9R14876   1.970   0.917  10.177 -0.5849 -0.1063  1.7138
  137SAPE  C21014877   1.960   0.725  10.080 -0.5675  0.1099  0.3737
  137SAPE  H10R14878   2.024   0.635  10.093  0.7661  1.2271  1.9624
  137SAPE  H10S14879   2.015   0.788  10.008  0.0358 -0.7874  0.0318
  137SAPE  C21114880   1.830   0.687  10.028  0.9204 -0.3390  0.9085
  137SAPE  H11R14881   1.767   0.630  10.098 -0.4981 -0.7898 -0.6901
  137SAPE  C21214882   1.782   0.720   9.901  0.2235 -0.5805 -0.1366
  137SAPE  H12R14883   1.679   0.701   9.868  0.2052 -0.0095 -0.4144
  137SAPE  C21314884   1.851   0.796   9.788  0.6938  0.0161 -0.4684
  137SAPE  H13R14885   1.841   0.733   9.697 -0.0495 -0.4445 -0.0767
  137SAPE  H13S14886   1.960   0.806   9.808  0.8549  0.2333 -1.3876
  137SAPE  C21414887   1.800   0.935   9.774  0.3294  0.5691  0.4287
  137SAPE  H14R14888   1.792   0.995   9.865 -0.0879  1.3740 -0.1232
  137SAPE  C21514889   1.780   0.997   9.654 -0.4205  0.2167  0.5734
  137SAPE  H15R14890   1.739   1.099   9.649 -0.2739  0.2182 -2.8137
  137SAPE  C21614891   1.803   0.943   9.510  0.1279  0.4899 -0.4299
  137SAPE  H16R14892   1.709   0.905   9.465  0.1034 -0.5613  0.4685
  137SAPE  H16S14893   1.877   0.860   9.502  0.6354  0.8354  0.4583
  137SAPE  C21714894   1.854   1.061   9.426  0.5419 -0.3883 -0.5752
  137SAPE  H17R14895   1.949   1.105   9.464 -0.3214  1.5367 -0.5382
  137SAPE  H17S14896   1.782   1.146   9.426  1.5147  0.5272 -2.6365
  137SAPE  C21814897   1.881   1.014   9.282  0.1851 -0.0719  0.8143
  137SAPE  H18R14898   1.793   0.970   9.230 -0.0041  1.6431 -0.3737
  137SAPE  H18S14899   1.957   0.934   9.289  1.1172  0.8422  1.3119
  137SAPE  C21914900   1.922   1.127   9.187  0.1833  0.6951  0.1852
  137SAPE  H19R14901   1.938   1.081   9.087  1.6747 -0.0412  0.7263
  137SAPE  H19S14902   2.026   1.154   9.215  1.5550 -3.5470 -0.1814
  137SAPE  C22014903   1.828   1.246   9.175  0.2459 -0.8473  0.0417
  137SAPE  H20R14904   1.866   1.331   9.115 -1.2899  0.1745  0.4609
  137SAPE  H20S14905   1.810   1.295   9.273 -0.4956 -1.3169  0.1457
  137SAPE  H20T14906   1.726   1.226   9.136 -0.0333 -1.7387  1.1683
  137SAPE   C3314907   2.770   0.883  10.108 -0.0784 -0.6219  0.2614
  137SAPE   H3X14908   2.838   0.797  10.090 -1.9495 -1.8081 -1.7216
  137SAPE   H3Y14909   2.818   0.983  10.103 -1.1572  0.2184  3.5999
  137SAPE   C3414910   2.682   0.900   9.986  0.3493 -0.3482  0.4880
  137SAPE   H4X14911   2.588   0.956  10.006  0.0827 -0.0350 -1.3876
  137SAPE   H4Y14912   2.635   0.804   9.955 -3.8014  1.4692  0.3991
  137SAPE   C3514913   2.764   0.954   9.872  0.2006  0.2709 -0.1166
  137SAPE   H5X14914   2.855   0.893   9.853  0.2719 -0.1262  1.3730
  137SAPE   H5Y14915   2.801   1.056   9.897  0.9947 -0.3837  1.5594
  137SAPE   C3614916   2.684   0.945   9.745  0.6873 -0.6108 -0.5224
  137SAPE   H6X14917   2.591   1.003   9.759  1.4762  1.7219 -3.6825
  137SAPE   H6Y14918   2.648   0.845   9.711 -3.1278  0.3951  0.0895
  137SAPE   C3714919   2.762   1.019   9.627 -0.5975 -0.2278 -0.4771
  137SAPE   H7X14920   2.854   0.958   9.609 -1.3528 -1.3649 -0.5599
  137SAPE   H7Y14921   2.784   1.121   9.665  0.6900 -0.4754 -0.4938
  137SAPE   C3814922   2.686   1.030   9.499  0.5609  0.5404 -0.0216
  137SAPE   H8X14923   2.608   1.108   9.511  1.2446  1.4606 -1.3018
  137SAPE   H8Y14924   2.637   0.933   9.475  0.3377  0.7277 -0.3383
  137SAPE   C3914925   2.767   1.083   9.378 -0.3602  0.0818 -0.0179
  137SAPE   H9X14926   2.855   1.016   9.361  0.0748  0.6977 -0.1989
  137SAPE   H9Y14927   2.800   1.188   9.391  0.3392 -0.1812  0.4156
  137SAPE  C31014928   2.697   1.089   9.242 -0.0875  0.6801 -0.1481
  137SAPE  H10X14929   2.636   1.182   9.245  1.6074  1.8329 -0.4497
  137SAPE  H10Y14930   2.638   0.995   9.231  2.3860 -1.1346  1.1761
  137SAPE  C31114931   2.786   1.101   9.120 -0.5045 -0.1504 -0.0445
  137SAPE  H11X14932   2.846   1.008   9.113  0.6892  0.5490  0.4136
  137SAPE  H11Y14933   2.852   1.189   9.137 -0.6178 -0.3927  1.9346
  137SAPE  C31214934   2.711   1.134   8.992  0.0849  0.1245 -0.5062
  137SAPE  H12X14935   2.673   1.238   9.002 -0.5481 -0.2854  2.3193
  137SAPE  H12Y14936   2.619   1.073   8.983 -1.3066  2.1203 -0.5392
  137SAPE  C31314937   2.796   1.108   8.865  0.2822  0.2298 -0.0101
  137SAPE  H13X14938   2.722   1.125   8.784 -0.0779 -1.7046 -0.1414
  137SAPE  H13Y14939   2.826   1.001   8.868 -2.6893 -0.6601  0.7486
  137SAPE  C31414940   2.925   1.187   8.869 -0.3593  0.6251 -0.2466
  137SAPE  H14X14941   2.996   1.150   8.791 -0.4212 -1.0609  0.4589
  137SAPE  H14Y14942   2.981   1.181   8.965  0.9336 -1.0230 -1.0412
  137SAPE  C31514943   2.900   1.336   8.850 -0.2056  0.4452  0.4499
  137SAPE  H15X14944   2.853   1.373   8.944 -0.4155  0.2582  0.4199
  137SAPE  H15Y14945   2.819   1.342   8.774  0.8288  1.8409 -0.5776
  137SAPE  C31614946   3.019   1.415   8.804  0.3530  0.3632 -0.4215
  137SAPE  H16X14947   3.030   1.388   8.697 -3.3372 -2.0829 -0.3756
  137SAPE  H16Y14948   3.111   1.394   8.864 -1.2879 -1.6143  1.6070
  137SAPE  C31714949   2.995   1.564   8.806 -0.1656  0.2423 -0.2521
  137SAPE  H17X14950   2.959   1.600   8.905  1.4587  0.3896  0.3157
  137SAPE  H17Y14951   2.917   1.584   8.729 -1.0450  0.3945  0.6490
  137SAPE  C31814952   3.127   1.645   8.776  0.6015 -0.0090 -0.2935
  137SAPE  H18X14953   3.111   1.754   8.766  1.9420  0.1930 -0.3963
  137SAPE  H18Y14954   3.180   1.600   8.689 -0.9851 -1.8722 -0.3730
  137SAPE  H18Z14955   3.192   1.634   8.866  0.6533  2.2875  0.0067
  138SAPE     N14956   0.987   3.916  11.189 -0.1004 -1.1818  0.4024
  138SAPE   HN114957   0.973   3.939  11.289  0.2323 -2.8706  0.8682
  138SAPE   HN214958   0.900   3.884  11.142  0.3212 -0.8069 -0.6534
  138SAPE   HN314959   1.060   3.842  11.185  3.6422  2.0808  1.7969
  138SAPE   C1214960   1.038   4.035  11.116  0.3069  0.3463 -0.6564
  138SAPE  H12A14961   1.128   4.070  11.171  0.0555 -1.9908  1.3683
  138SAPE  H12B14962   0.963   4.116  11.127  0.8748  0.6891  0.9908
  138SAPE   C1114963   1.084   3.999  10.974 -0.3123 -0.1778 -0.1848
  138SAPE  H11A14964   0.992   3.976  10.915 -1.2181 -2.2227  1.8926
  138SAPE  H11B14965   1.145   3.907  10.977 -0.0151 -0.1526 -2.8044
  138SAPE     P14966   1.203   4.115  10.771  0.1392  0.0693  0.5307
  138SAPE   O1314967   1.135   4.232  10.711  0.5785  0.0801 -0.4487
  138SAPE   O1414968   1.351   4.119  10.759  0.1736  0.0459 -0.2514
  138SAPE   O1214969   1.159   4.113  10.926 -0.3039  0.4994  0.5965
  138SAPE   O1114970   1.142   3.987  10.713 -0.6349 -0.0804 -0.0712
  138SAPE    C114971   1.219   3.862  10.728 -0.8682  0.0856 -0.4382
  138SAPE    HA14972   1.273   3.858  10.825  0.6489  1.1141 -1.2047
  138SAPE    HB14973   1.142   3.781  10.727 -2.4312  1.5125 -1.0911
  138SAPE    C214974   1.326   3.850  10.620  0.0649 -0.1103  0.1056
  138SAPE    HS14975   1.401   3.933  10.616 -0.4587  0.3303 -0.6266
  138SAPE   O2114976   1.256   3.837  10.494 -0.2781  0.3347  0.7885
  138SAPE   C2114977   1.260   3.948  10.414  0.5251  0.9157  0.7109
  138SAPE   O2214978   1.310   4.053  10.446  0.5831 -0.1294 -0.5741
  138SAPE   C2214979   1.195   3.922  10.269  0.0273  0.3658 -0.7454
  138SAPE   H2R14980   1.216   3.815  10.250  0.3649  0.4052 -0.5999
  138SAPE   H2S14981   1.088   3.949  10.279  0.1298  1.0110 -1.2958
  138SAPE    C314982   1.422   3.732  10.639 -0.0457  0.4131  0.2261
  138SAPE    HX14983   1.349   3.649  10.630  1.3732 -0.8834  0.4364
  138SAPE    HY14984   1.476   3.735  10.736  0.7504 -0.8861 -0.1644
  138SAPE   O3114985   1.526   3.724  10.536  0.1951  0.0265 -0.2295
  138SAPE   C3114986   1.613   3.625  10.538  0.3915  0.9708 -0.2791
  138SAPE   O3214987   1.610   3.534  10.623  0.0628  0.5342 -0.3408
  138SAPE   C3214988   1.703   3.628  10.420 -0.5055 -0.0567 -0.1422
  138SAPE   H2X14989   1.793   3.574  10.456 -0.2509  1.4920  1.6900
  138SAPE   H2Y14990   1.727   3.736  10.408  0.6514 -0.3524 -0.6062
  138SAPE   C2314991   1.282   4.005  10.176  0.4166 -0.5586  0.8217
  138SAPE   H3R14992   1.391   3.990  10.193  1.2090 -0.3375 -3.1325
  138SAPE   H3S14993   1.269   4.113  10.199  0.3494 -0.9557  2.8546
  138SAPE   C2414994   1.269   3.964  10.024 -0.1708 -0.2176 -0.3837
  138SAPE   H4R14995   1.265   3.853  10.016 -1.0087 -0.1511 -1.1328
  138SAPE   H4S14996   1.348   4.011   9.962 -0.7593  0.6461 -0.4858
  138SAPE   C2514997   1.137   4.006   9.965  0.2066  0.2823 -0.1558
  138SAPE   H5R14998   1.083   4.091  10.011 -0.7664 -0.6316  0.4427
  138SAPE   C2614999   1.080   3.966   9.848  0.8846  0.1792 -0.2413
  138SAPE   H6R15000   0.985   4.014   9.817  0.6353 -0.9053 -1.2307
  138SAPE   C2715001   1.129   3.859   9.762 -0.3079 -0.4335  0.2319
  138SAPE   H7R15002   1.042   3.839   9.696 -0.5638  3.6760 -0.9353
  138SAPE   H7S15003   1.159   3.779   9.833 -0.7521  0.3383  1.3163
  138SAPE   C2815004   1.248   3.891   9.674 -0.2860  0.6880  0.4791
  138SAPE   H8R15005   1.345   3.855   9.711  0.7433 -0.0681 -2.6649
  138SAPE   C2915006   1.255   3.955   9.555 -0.1075  0.3832 -0.7899
  138SAPE   H9R15007   1.350   3.967   9.502  1.5305 -0.9009  1.6331
  138SAPE  C21015008   1.142   4.008   9.473 -0.0101  0.7597 -0.3715
  138SAPE  H10R15009   1.149   4.119   9.469  2.8169  0.6400 -1.0262
  138SAPE  H10S15010   1.044   3.982   9.518 -0.2378  1.6724 -0.3239
  138SAPE  C21115011   1.158   3.942   9.338  0.6903 -0.0164 -0.3157
  138SAPE  H11R15012   1.126   3.838   9.329 -2.3224  0.8969 -1.2131
  138SAPE  C21215013   1.194   4.010   9.227 -0.4957 -0.4353 -0.5205
  138SAPE  H12R15014   1.184   3.948   9.137 -1.2383 -2.9401  1.1844
  138SAPE  C21315015   1.232   4.154   9.197  0.6575 -0.1148 -0.5649
  138SAPE  H13R15016   1.273   4.216   9.280  2.4391 -1.3328 -0.4608
  138SAPE  H13S15017   1.139   4.211   9.179  0.2631 -0.7736 -0.6284
  138SAPE  C21415018   1.329   4.165   9.085 -0.0358 -0.1181 -0.5101
  138SAPE  H14R15019   1.429   4.195   9.119 -0.5243 -1.4240  2.4026
  138SAPE  C21515020   1.309   4.159   8.953  0.1180  0.4045  0.7539
  138SAPE  H15R15021   1.399   4.172   8.891  0.3062  2.6128  1.4171
  138SAPE  C21615022   1.176   4.125   8.887  0.0817 -0.1959 -0.0223
  138SAPE  H16R15023   1.096   4.102   8.960 -0.7543  1.5437 -0.3442
  138SAPE  H16S15024   1.182   4.032   8.827 -4.1681 -2.3921  2.5217
  138SAPE  C21715025   1.128   4.250   8.807 -0.3821 -0.3219  0.1044
  138SAPE  H17R15026   1.190   4.273   8.718  4.6699 -1.8906  2.8353
  138SAPE  H17S15027   1.117   4.335   8.878  0.8441  0.5156 -0.6742
  138SAPE  C21815028   0.987   4.229   8.755  0.0754  1.0051 -0.3539
  138SAPE  H18R15029   0.933   4.178   8.838  0.4471  1.1114 -0.0491
  138SAPE  H18S15030   0.987   4.148   8.678  2.6234 -0.8032  1.4014
  138SAPE  C21915031   0.915   4.354   8.708  0.2287 -0.0332  0.8133
  138SAPE  H19R15032   0.971   4.399   8.623  1.3205  1.8874  2.4488
  138SAPE  H19S15033   0.919   4.433   8.786 -1.5102  0.4121  0.4849
  138SAPE  C22015034   0.777   4.336   8.652 -0.0362  0.4315 -0.1550
  138SAPE  H20R15035   0.789   4.255   8.576  0.0322  0.1959  0.1085
  138SAPE  H20S15036   0.740   4.430   8.608  0.1652 -0.0215 -1.3374
  138SAPE  H20T15037   0.711   4.299   8.733  0.6741 -3.0315 -0.9568
  138SAPE   C3315038   1.649   3.547  10.298  0.6997  0.8396 -0.5705
  138SAPE   H3X15039   1.626   3.442  10.326 -0.6520  1.3946  0.4607
  138SAPE   H3Y15040   1.734   3.538  10.227  0.6074 -0.6091 -0.5294
  138SAPE   C3415041   1.521   3.604  10.235 -0.0739 -0.4901  0.1745
  138SAPE   H4X15042   1.543   3.710  10.208  3.3317 -0.8798  0.9195
  138SAPE   H4Y15043   1.433   3.610  10.302  0.9930 -0.3979  1.6302
  138SAPE   C3515044   1.486   3.536  10.099  0.1286 -0.0724 -0.1502
  138SAPE   H5X15045   1.429   3.449  10.138 -1.4812  1.0258  0.0814
  138SAPE   H5Y15046   1.582   3.505  10.054  0.1427  0.7197 -0.6850
  138SAPE   C3615047   1.395   3.607  10.001 -0.6536  0.3642  0.0542
  138SAPE   H6X15048   1.426   3.713   9.988 -1.0793  0.2125 -2.8708
  138SAPE   H6Y15049   1.293   3.615  10.042  0.0836  2.7236  1.6425
  138SAPE   C3715050   1.392   3.535   9.867 -0.0981 -0.6088 -0.4885
  138SAPE   H7X15051   1.290   3.561   9.831 -0.9046 -1.3677  1.1432
  138SAPE   H7Y15052   1.393   3.424   9.867  0.8403 -0.6095 -0.8008
  138SAPE   C3815053   1.487   3.603   9.760  0.3038  0.0176  0.3515
  138SAPE   H8X15054   1.583   3.547   9.758  0.6029  0.5281  0.1676
  138SAPE   H8Y15055   1.510   3.708   9.786 -0.8061 -0.0151  1.5719
  138SAPE   C3915056   1.426   3.601   9.617  0.5906 -0.6897 -1.2749
  138SAPE   H9X15057   1.324   3.643   9.618  0.1657 -1.6921  0.4407
  138SAPE   H9Y15058   1.409   3.498   9.582  0.9380 -1.1745 -0.0596
  138SAPE  C31015059   1.507   3.681   9.512  0.5064  0.8329 -0.1556
  138SAPE  H10X15060   1.612   3.653   9.535  0.3810  0.9133  0.5429
  138SAPE  H10Y15061   1.509   3.791   9.528 -0.8267  0.6597  1.4613
  138SAPE  C31115062   1.449   3.669   9.373 -0.6145 -0.2748 -0.5592
  138SAPE  H11X15063   1.342   3.694   9.384 -0.7832 -0.7908 -0.9758
  138SAPE  H11Y15064   1.459   3.567   9.330  0.1344  0.1220 -1.3775
  138SAPE  C31215065   1.513   3.756   9.259 -0.1968 -0.5358 -0.0916
  138SAPE  H12X15066   1.509   3.865   9.281 -1.4921  0.0178 -2.5745
  138SAPE  H12Y15067   1.440   3.752   9.175  0.3007 -1.5463 -0.4979
  138SAPE  C31315068   1.655   3.713   9.227 -0.3643  0.3894  0.4368
  138SAPE  H13X15069   1.666   3.603   9.238 -1.5174  0.1904 -0.2713
  138SAPE  H13Y15070   1.729   3.762   9.294 -0.4280 -1.3783  1.8737
  138SAPE  C31415071   1.705   3.743   9.081  0.6048 -0.2490 -0.2666
  138SAPE  H14X15072   1.638   3.822   9.043  0.1194 -0.0178  1.0201
  138SAPE  H14Y15073   1.698   3.651   9.018 -2.1111  1.1279 -2.1581
  138SAPE  C31515074   1.849   3.782   9.078 -0.8466 -0.2178 -0.6071
  138SAPE  H15X15075   1.918   3.704   9.117  0.1486  1.7107  1.7390
  138SAPE  H15Y15076   1.870   3.872   9.139 -1.5463 -0.2082 -0.3660
  138SAPE  C31615077   1.905   3.810   8.934  0.7553 -0.7127  0.0237
  138SAPE  H16X15078   1.848   3.899   8.900  2.1700  0.5090  0.7477
  138SAPE  H16Y15079   1.884   3.729   8.860  0.4569 -1.0243  0.4426
  138SAPE  C31715080   2.045   3.865   8.935  0.7127  0.2256 -0.4491
  138SAPE  H17X15081   2.117   3.795   8.982  0.1284  0.5953  1.0422
  138SAPE  H17Y15082   2.054   3.961   8.990  1.3044  0.1738 -0.4471
  138SAPE  C31815083   2.085   3.911   8.795 -0.6286 -0.8039 -0.2187
  138SAPE  H18X15084   2.194   3.933   8.799 -0.4766 -1.5761  0.1604
  138SAPE  H18Y15085   2.032   4.004   8.765  0.1927 -0.0893  0.4779
  138SAPE  H18Z15086   2.075   3.835   8.714  0.5302  0.3026 -1.4729
  139SAPE     N15087   6.608   3.888  10.824  0.1161 -0.1571 -0.2642
  139SAPE   HN115088   6.629   3.927  10.729 -0.0106 -1.2808 -0.7738
  139SAPE   HN215089   6.561   3.796  10.816  0.3151 -0.2645 -0.1945
  139SAPE   HN315090   6.537   3.959  10.852  1.2525  1.5680 -1.4945
  139SAPE   C1215091   6.715   3.895  10.924  0.0226  0.0225 -0.1529
  139SAPE  H12A15092   6.673   3.908  11.026  0.5416  0.8007 -0.0250
  139SAPE  H12B15093   6.772   3.991  10.919 -1.2126  1.0191  2.6529
  139SAPE   C1115094   6.800   3.768  10.923  0.2713  0.1345  0.1195
  139SAPE  H11A15095   6.741   3.681  10.960 -0.7249  0.7832  0.0830
  139SAPE  H11B15096   6.881   3.791  10.996  0.8484 -0.6991 -0.2503
  139SAPE     P15097   6.950   3.623  10.776 -0.3319 -0.0245  0.1823
  139SAPE   O1315098   7.032   3.635  10.650  0.2591  0.6921  0.1785
  139SAPE   O1415099   7.031   3.607  10.899 -0.3458  0.8129  0.1950
  139SAPE   O1215100   6.846   3.745  10.790  0.3319 -0.1174 -0.0180
  139SAPE   O1115101   6.854   3.501  10.778  0.2142 -0.1329 -0.2523
  139SAPE    C115102   6.730   3.509  10.710  0.0301 -0.2514  0.2417
  139SAPE    HA15103   6.652   3.477  10.782 -0.3177 -2.0613 -0.8858
  139SAPE    HB15104   6.698   3.608  10.672 -1.4702 -1.0639 -0.6856
  139SAPE    C215105   6.719   3.406  10.597  0.1384  0.0944 -0.5478
  139SAPE    HS15106   6.757   3.310  10.639 -1.7588 -0.2304  0.5428
  139SAPE   O2115107   6.797   3.462  10.491  0.2283 -0.2101 -0.5252
  139SAPE   C2115108   6.912   3.412  10.453  0.1258 -0.3505 -0.7643
  139SAPE   O2215109   6.967   3.313  10.500 -0.1554  0.2154 -0.2519
  139SAPE   C2215110   6.968   3.505  10.345  0.0999  0.6724  0.1557
  139SAPE   H2R15111   6.887   3.545  10.281  0.8916  2.9491  0.4998
  139SAPE   H2S15112   7.008   3.600  10.386 -0.0417  1.5513 -1.6165
  139SAPE    C315113   6.581   3.385  10.540  0.1696  0.2787 -0.5839
  139SAPE    HX15114   6.543   3.482  10.500 -2.1005 -0.1384  0.3665
  139SAPE    HY15115   6.514   3.357  10.625 -0.6622  1.6886 -0.7365
  139SAPE   O3115116   6.581   3.276  10.445  0.2910 -0.0078 -0.0641
  139SAPE   C3115117   6.491   3.276  10.347 -0.2415 -0.4844  0.5565
  139SAPE   O3215118   6.408   3.362  10.324  0.1618  0.4249 -0.1675
  139SAPE   C3215119   6.524   3.158  10.255  0.7364  0.6629 -0.0562
  139SAPE   H2X15120   6.509   3.061  10.306  0.8154 -0.2030 -1.6015
  139SAPE   H2Y15121   6.633   3.168  10.232  1.3803  1.6156  3.0212
  139SAPE   C2315122   7.070   3.432  10.253  0.2815  0.0904 -0.5287
  139SAPE   H3R15123   7.026   3.344  10.200 -1.3480  1.4079 -1.4385
  139SAPE   H3S15124   7.148   3.388  10.319  0.5532  0.8474 -0.3437
  139SAPE   C2415125   7.152   3.518  10.155  0.5980 -0.1251  0.2220
  139SAPE   H4R15126   7.232   3.563  10.218  0.4299  0.1737  0.2248
  139SAPE   H4S15127   7.080   3.600  10.133  0.1615  0.2034  2.5789
  139SAPE   C2515128   7.177   3.454  10.024  0.0794 -0.6201  0.0987
  139SAPE   H5R15129   7.278   3.427   9.991  0.2621 -0.1125  0.2392
  139SAPE   C2615130   7.086   3.437   9.921  0.0304 -0.2273 -0.1704
  139SAPE   H6R15131   7.120   3.385   9.830 -1.7382  0.0103 -1.0114
  139SAPE   C2715132   6.941   3.478   9.923  0.6977  0.6887 -0.3261
  139SAPE   H7R15133   6.901   3.508   9.824 -2.6516 -1.4054  0.2320
  139SAPE   H7S15134   6.919   3.564   9.990 -0.3152  0.5016 -0.4051
  139SAPE   C2815135   6.863   3.355   9.960 -0.6545  0.2999 -0.1774
  139SAPE   H8R15136   6.907   3.295  10.041  2.7500 -1.3877 -3.0044
  139SAPE   C2915137   6.754   3.309   9.894 -0.7471  0.3590  0.5250
  139SAPE   H9R15138   6.715   3.217   9.941  0.6601 -0.7290 -0.3576
  139SAPE  C21015139   6.667   3.370   9.779  0.1477 -0.2741  0.1042
  139SAPE  H10R15140   6.726   3.437   9.713 -2.5004  1.8753 -0.2417
  139SAPE  H10S15141   6.589   3.433   9.825 -0.7285 -1.6818  0.6122
  139SAPE  C21115142   6.598   3.267   9.690  0.5811  0.5926 -0.3790
  139SAPE  H11R15143   6.565   3.172   9.734 -1.2559  2.2560  2.0975
  139SAPE  C21215144   6.555   3.301   9.565 -0.3522  0.5590  0.6420
  139SAPE  H12R15145   6.505   3.227   9.500  0.5721  0.8413 -0.4144
  139SAPE  C21315146   6.563   3.438   9.504 -0.6737 -0.1526 -0.5529
  139SAPE  H13R15147   6.626   3.500   9.572 -3.6148  2.8055 -0.2221
  139SAPE  H13S15148   6.461   3.481   9.516 -1.5255 -1.9431 -1.0833
  139SAPE  C21415149   6.611   3.437   9.362 -0.2629 -0.2150 -0.7736
  139SAPE  H14R15150   6.684   3.357   9.341  1.6716  0.0799  3.7436
  139SAPE  C21515151   6.577   3.528   9.268 -0.2359  0.2761 -0.1087
  139SAPE  H15R15152   6.624   3.526   9.168  3.3916  1.1052  1.4468
  139SAPE  C21615153   6.487   3.645   9.283  0.5935 -1.3075  0.1176
  139SAPE  H16R15154   6.469   3.658   9.392 -2.7425 -0.9455 -0.3660
  139SAPE  H16S15155   6.401   3.610   9.223  0.4566  1.1706 -1.2714
  139SAPE  C21715156   6.520   3.780   9.217  0.2682  0.2325  0.7860
  139SAPE  H17R15157   6.623   3.809   9.246  0.6118 -0.4503  0.2606
  139SAPE  H17S15158   6.449   3.856   9.256  1.0197  0.7232  1.2296
  139SAPE  C21815159   6.505   3.769   9.060  0.1080 -0.4703 -0.1722
  139SAPE  H18R15160   6.403   3.732   9.037 -0.7403  1.6670 -0.0395
  139SAPE  H18S15161   6.576   3.691   9.023  1.6098  1.1051 -0.7813
  139SAPE  C21915162   6.534   3.904   8.987 -0.2057 -0.4031  0.6537
  139SAPE  H19R15163   6.641   3.931   9.000 -0.7454  2.3027  0.1076
  139SAPE  H19S15164   6.479   3.988   9.033 -1.8384 -1.1003  0.0618
  139SAPE  C22015165   6.505   3.895   8.835  0.3740 -0.0011 -0.1502
  139SAPE  H20R15166   6.561   3.967   8.771 -3.7018  0.9504 -3.0664
  139SAPE  H20S15167   6.398   3.905   8.805 -0.0726 -0.9697  1.0490
  139SAPE  H20T15168   6.536   3.796   8.796  0.8888  0.7631 -1.7675
  139SAPE   C3315169   6.439   3.158  10.127 -0.0918  0.9236  0.3944
  139SAPE   H3X15170   6.470   3.248  10.069 -0.0699  0.1762 -0.8081
  139SAPE   H3Y15171   6.332   3.165  10.157  0.3173  2.0103  1.6628
  139SAPE   C3415172   6.464   3.032  10.033  0.3412 -0.3921  0.0639
  139SAPE   H4X15173   6.439   2.943  10.094 -0.4755 -0.3267 -0.1686
  139SAPE   H4Y15174   6.566   3.035   9.988 -0.3291  0.1519 -1.4892
  139SAPE   C3515175   6.379   3.045   9.907  0.2674  0.2646  1.2815
  139SAPE   H5X15176   6.406   3.141   9.858  1.2208 -1.0634 -0.9300
  139SAPE   H5Y15177   6.269   3.048   9.919 -0.0422  2.8454 -1.2112
  139SAPE   C3615178   6.401   2.923   9.817  0.2633 -0.6191 -0.0271
  139SAPE   H6X15179   6.377   2.846   9.893  1.3170 -1.0522 -0.1271
  139SAPE   H6Y15180   6.507   2.923   9.783 -0.4736 -0.2544 -2.5875
  139SAPE   C3715181   6.317   2.915   9.692  0.4416  0.0308 -0.5035
  139SAPE   H7X15182   6.214   2.920   9.732  1.1984 -0.4663  1.6400
  139SAPE   H7Y15183   6.327   2.808   9.662 -1.7402 -0.6075  0.7984
  139SAPE   C3815184   6.346   3.005   9.576  0.0715 -0.1255 -0.2125
  139SAPE   H8X15185   6.449   2.991   9.536 -0.2584 -3.0341 -0.2392
  139SAPE   H8Y15186   6.342   3.107   9.622  1.6639  0.1665 -0.6575
  139SAPE   C3915187   6.255   2.973   9.459  0.4249 -0.0034 -0.0735
  139SAPE   H9X15188   6.145   2.966   9.476  0.3707 -0.5161 -0.5832
  139SAPE   H9Y15189   6.264   2.864   9.437 -1.5081  0.2479 -2.6795
  139SAPE  C31015190   6.296   3.046   9.335  1.0611 -0.7033 -0.4071
  139SAPE  H10X15191   6.294   3.156   9.346 -0.3511 -0.9899  3.7739
  139SAPE  H10Y15192   6.215   3.026   9.262 -0.3778  2.9820 -0.0519
  139SAPE  C31115193   6.430   3.012   9.278 -0.7472 -0.8444  0.4254
  139SAPE  H11X15194   6.423   2.911   9.232 -0.5475 -0.4396 -0.5349
  139SAPE  H11Y15195   6.512   3.004   9.353  1.4240 -1.3235 -1.8379
  139SAPE  C31215196   6.475   3.117   9.179 -0.8096  0.1839  0.5088
  139SAPE  H12X15197   6.576   3.092   9.138 -1.3462 -2.1487  0.4729
  139SAPE  H12Y15198   6.490   3.213   9.233 -0.9649 -0.1780  1.1935
  139SAPE  C31315199   6.380   3.141   9.061 -0.0394  0.5742 -0.7306
  139SAPE  H13X15200   6.277   3.160   9.098 -0.1153  0.0561 -0.6641
  139SAPE  H13Y15201   6.379   3.048   8.999  1.3852  0.9230 -1.3169
  139SAPE  C31415202   6.415   3.260   8.968 -0.7707  0.7384 -0.8541
  139SAPE  H14X15203   6.414   3.356   9.024 -0.2997 -0.2556  0.9103
  139SAPE  H14Y15204   6.349   3.263   8.879 -1.2897  0.3470 -0.4875
  139SAPE  C31515205   6.560   3.247   8.911  0.3507  0.0151  0.7070
  139SAPE  H15X15206   6.567   3.170   8.831 -0.7638 -1.9858  2.4378
  139SAPE  H15Y15207   6.631   3.232   8.995  2.7988  1.6292 -0.9687
  139SAPE  C31615208   6.617   3.378   8.847  0.4869  0.3405 -0.2243
  139SAPE  H16X15209   6.644   3.451   8.927 -0.7316 -0.1686  0.6868
  139SAPE  H16Y15210   6.717   3.359   8.802 -0.4481 -0.2881 -2.1493
  139SAPE  C31715211   6.529   3.456   8.739 -0.8753 -0.0119 -1.1144
  139SAPE  H17X15212   6.458   3.520   8.796  1.0112  0.9214  0.3068
  139SAPE  H17Y15213   6.470   3.387   8.675 -0.9983  0.5855 -1.6704
  139SAPE  C31815214   6.597   3.556   8.649  0.6725  0.1660  0.6659
  139SAPE  H18X15215   6.636   3.506   8.559  1.0592 -2.1977  2.0778
  139SAPE  H18Y15216   6.681   3.603   8.704  0.2205  0.6434  0.9664
  139SAPE  H18Z15217   6.527   3.638   8.621  0.6507 -0.9405 -2.9951
  140SAPE     N15218   3.339   3.629  11.071  0.1354  0.3632  0.9059
  140SAPE   HN115219   3.306   3.689  11.149  1.0568  0.2473  1.3976
  140SAPE   HN215220   3.344   3.533  11.109  1.1647  0.5463  1.2786
  140SAPE   HN315221   3.434   3.659  11.042 -0.7676  1.6736 -0.9003
  140SAPE   C1215222   3.245   3.649  10.951 -0.6492 -0.2897  0.6876
  140SAPE  H12A15223   3.147   3.607  10.980 -0.4242 -0.5452  1.0901
  140SAPE  H12B15224   3.286   3.588  10.867 -1.1567  0.0515  0.1845
  140SAPE   C1115225   3.241   3.798  10.919  0.2929 -0.1449  0.1072
  140SAPE  H11A15226   3.198   3.811  10.818  1.0333  1.3601 -0.0367
  140SAPE  H11B15227   3.343   3.841  10.908 -0.1204  1.2072  1.2557
  140SAPE     P15228   3.164   4.026  11.037 -0.0803 -0.0313 -0.3009
  140SAPE   O1315229   3.025   4.074  11.051  0.0347  0.3932 -0.1375
  140SAPE   O1415230   3.262   4.046  11.146  0.3623  0.0321 -0.2041
  140SAPE   O1215231   3.154   3.867  11.003  0.6393 -0.2441 -1.5791
  140SAPE   O1115232   3.231   4.079  10.901  0.6440 -0.5480  0.1301
  140SAPE    C115233   3.174   4.078  10.775  0.1175  0.4004  0.0352
  140SAPE    HA15234   3.240   4.020  10.707  0.3918  0.5214  0.1939
  140SAPE    HB15235   3.084   4.013  10.782  0.8293 -0.7070 -0.7433
  140SAPE    C215236   3.143   4.222  10.730  0.7135  0.2954  0.6555
  140SAPE    HS15237   3.065   4.218  10.651 -0.4540 -0.4395  1.7984
  140SAPE   O2115238   3.262   4.288  10.688 -0.0679 -0.5730  0.1928
  140SAPE   C2115239   3.297   4.253  10.564  0.6315  0.0695  0.4365
  140SAPE   O2215240   3.244   4.166  10.495  0.3458 -0.2928  0.1707
  140SAPE   C2215241   3.413   4.339  10.523 -0.8062  0.4337  0.7775
  140SAPE   H2R15242   3.487   4.271  10.474  0.2967  2.6819 -0.8410
  140SAPE   H2S15243   3.384   4.429  10.465  1.1499 -1.3287 -3.3759
  140SAPE    C315244   3.080   4.308  10.854  0.0659 -0.3860 -0.1011
  140SAPE    HX15245   3.169   4.337  10.914 -1.2687  2.8237  0.5715
  140SAPE    HY15246   3.008   4.248  10.912 -0.0931  0.7912  0.9721
  140SAPE   O3115247   3.000   4.411  10.797  0.1556 -0.2751  0.2038
  140SAPE   C3115248   3.065   4.516  10.761  0.7327 -1.2595  0.6159
  140SAPE   O3215249   3.174   4.558  10.795  0.3706  1.3219  0.3766
  140SAPE   C3215250   2.975   4.610  10.692  0.2200  0.5233  1.0147
  140SAPE   H2X15251   3.020   4.710  10.712 -0.6383  1.1653 -0.1544
  140SAPE   H2Y15252   2.882   4.617  10.753 -1.0641 -1.9989 -0.5158
  140SAPE   C2315253   3.496   4.394  10.640 -0.4155 -0.8886  0.2067
  140SAPE   H3R15254   3.557   4.307  10.674 -1.0089 -0.9230  1.2349
  140SAPE   H3S15255   3.431   4.427  10.724 -0.5453 -0.7941  0.0683
  140SAPE   C2415256   3.597   4.514  10.616  0.9015 -0.0135  0.0311
  140SAPE   H4R15257   3.621   4.567  10.711  0.3537  1.0010 -0.3750
  140SAPE   H4S15258   3.536   4.589  10.560  0.6692 -1.7252 -2.1263
  140SAPE   C2515259   3.728   4.497  10.550 -0.8002 -0.0281  0.2396
  140SAPE   H5R15260   3.819   4.484  10.611  0.0884 -2.1106 -1.3724
  140SAPE   C2615261   3.762   4.505  10.418  1.0628  0.6625 -0.7835
  140SAPE   H6R15262   3.860   4.481  10.373  1.1712  0.1150 -0.2655
  140SAPE   C2715263   3.659   4.539  10.314  0.5301 -0.1574 -0.6561
  140SAPE   H7R15264   3.598   4.627  10.345  0.4696 -0.6382  0.6650
  140SAPE   H7S15265   3.595   4.450  10.304  0.4986 -0.1233 -0.7590
  140SAPE   C2815266   3.711   4.583  10.178  0.5138  0.5400  0.2951
  140SAPE   H8R15267   3.806   4.635  10.156 -0.2833  1.4398 -1.1759
  140SAPE   C2915268   3.635   4.568  10.065 -0.0151 -0.6229 -0.4970
  140SAPE   H9R15269   3.671   4.616   9.973 -1.4689 -0.0444 -0.8049
  140SAPE  C21015270   3.494   4.524  10.041 -0.2146  0.6262 -0.9784
  140SAPE  H10R15271   3.449   4.613   9.992  0.0054  0.2031 -1.9794
  140SAPE  H10S15272   3.445   4.506  10.139  0.4160  0.8296 -0.6246
  140SAPE  C21115273   3.478   4.404   9.951 -0.1505  0.6857  0.0700
  140SAPE  H11R15274   3.491   4.304   9.995 -2.7208  0.1616 -0.1860
  140SAPE  C21215275   3.435   4.405   9.831  0.4394  0.1243  0.2195
  140SAPE  H12R15276   3.433   4.307   9.781  1.5193  1.0134 -1.7347
  140SAPE  C21315277   3.420   4.522   9.734 -0.1991  0.1994  0.3297
  140SAPE  H13R15278   3.427   4.618   9.789  0.2856  0.5761 -0.3716
  140SAPE  H13S15279   3.321   4.524   9.683 -0.4625 -0.8492  0.7802
  140SAPE  C21415280   3.543   4.520   9.638 -0.0206 -0.1160  0.1688
  140SAPE  H14R15281   3.639   4.545   9.687  0.1483 -1.0373  0.3406
  140SAPE  C21515282   3.533   4.499   9.508  0.4545  0.1055 -0.2853
  140SAPE  H15R15283   3.631   4.497   9.457  1.5921  1.0742  1.7629
  140SAPE  C21615284   3.415   4.462   9.429 -0.0524 -0.3756  0.1708
  140SAPE  H16R15285   3.326   4.455   9.496  0.2542 -3.6176  0.4123
  140SAPE  H16S15286   3.427   4.366   9.375 -0.5829 -1.3049  1.6382
  140SAPE  C21715287   3.384   4.563   9.317  0.2123  0.5400  0.0203
  140SAPE  H17R15288   3.292   4.527   9.267  0.4651 -0.2271  0.1023
  140SAPE  H17S15289   3.466   4.565   9.243  0.0445  1.8197 -0.1597
  140SAPE  C21815290   3.364   4.702   9.375  0.5021 -0.7277 -0.1119
  140SAPE  H18R15291   3.466   4.744   9.391 -0.4123  1.2278  1.0850
  140SAPE  H18S15292   3.319   4.687   9.476  2.3295 -1.6996  0.6064
  140SAPE  C21915293   3.283   4.805   9.284 -0.0590 -0.0118 -0.0854
  140SAPE  H19R15294   3.195   4.835   9.344 -0.9893 -0.7759 -1.0279
  140SAPE  H19S15295   3.254   4.751   9.191  0.3051 -0.7464  0.2204
  140SAPE  C22015296   3.348   4.940   9.243  0.0196  0.1831  0.2024
  140SAPE  H20R15297   3.424   4.933   9.163 -0.0074 -0.9913  0.2607
  140SAPE  H20S15298   3.397   4.973   9.338 -0.7467 -0.0583  0.6962
  140SAPE  H20T15299   3.270   5.011   9.206  1.1409  0.1766 -2.3560
  140SAPE   C3315300   2.940   4.575  10.543 -0.1121  0.5284 -0.8340
  140SAPE   H3X15301   2.848   4.633  10.522 -0.0259  2.1022  2.3765
  140SAPE   H3Y15302   2.913   4.468  10.539 -1.9073  0.6986  2.7012
  140SAPE   C3415303   3.063   4.599  10.447  0.1988  0.8691  0.3384
  140SAPE   H4X15304   3.146   4.534  10.484 -0.7540 -3.3290 -3.8698
  140SAPE   H4Y15305   3.101   4.703  10.443 -1.6599  1.5339 -1.1635
  140SAPE   C3515306   3.021   4.557  10.305 -0.9225 -0.1035 -0.3930
  140SAPE   H5X15307   2.941   4.627  10.272  0.0186  0.3757 -1.7440
  140SAPE   H5Y15308   2.976   4.456  10.312 -1.1347 -0.1517 -1.9179
  140SAPE   C3615309   3.147   4.545  10.222  0.3858 -0.1360  0.4744
  140SAPE   H6X15310   3.174   4.437  10.219  0.7694 -0.0290 -0.4022
  140SAPE   H6Y15311   3.225   4.612  10.264 -0.9127  0.2980  2.2719
  140SAPE   C3715312   3.139   4.577  10.072  0.4124 -0.1802 -0.1818
  140SAPE   H7X15313   3.233   4.571  10.011 -1.7303 -1.9447 -3.6576
  140SAPE   H7Y15314   3.102   4.681  10.066 -0.5243 -0.5067 -0.2633
  140SAPE   C3815315   3.058   4.468  10.000 -0.2251  0.1160  0.4946
  140SAPE   H8X15316   2.954   4.472  10.039 -1.2111  0.9243 -2.0084
  140SAPE   H8Y15317   3.106   4.371  10.024 -1.4441 -0.2560  1.5017
  140SAPE   C3915318   3.050   4.495   9.849  0.9297  0.7648 -0.2070
  140SAPE   H9X15319   3.145   4.462   9.801 -0.1767 -1.3521 -1.0517
  140SAPE   H9Y15320   3.026   4.598   9.817  1.5727  0.1334 -2.9754
  140SAPE  C31015321   2.934   4.413   9.785 -0.1044  0.3173  0.0264
  140SAPE  H10X15322   2.840   4.420   9.843 -0.0520 -0.9469  0.2850
  140SAPE  H10Y15323   2.967   4.307   9.793  0.2836  0.3707 -0.7349
  140SAPE  C31115324   2.904   4.440   9.634  0.2991  0.4235  0.4702
  140SAPE  H11X15325   2.842   4.531   9.625 -0.4185 -0.0275  0.7104
  140SAPE  H11Y15326   2.829   4.364   9.602 -0.4828  1.6867 -0.7933
  140SAPE  C31215327   3.018   4.429   9.526 -0.4791  0.3760 -0.6984
  140SAPE  H12X15328   3.084   4.345   9.555  0.6022  1.6835  0.8490
  140SAPE  H12Y15329   3.076   4.524   9.520  0.0978  0.2426  1.6678
  140SAPE  C31315330   2.967   4.397   9.378 -0.3390  0.2935 -0.2920
  140SAPE  H13X15331   2.903   4.308   9.397 -0.5272  0.3477 -0.6673
  140SAPE  H13Y15332   3.043   4.368   9.302 -0.6051 -1.1619 -0.0310
  140SAPE  C31415333   2.893   4.509   9.326  0.2450 -0.1779  0.5198
  140SAPE  H14X15334   2.950   4.602   9.346 -1.8805  0.8411  2.3122
  140SAPE  H14Y15335   2.795   4.520   9.377  0.3021  2.3309  0.2447
  140SAPE  C31515336   2.876   4.514   9.174 -0.0476  0.1941  0.0778
  140SAPE  H15X15337   2.841   4.415   9.135 -0.5995 -0.9174  3.1100
  140SAPE  H15Y15338   2.965   4.552   9.121 -0.7069  0.6167 -0.7489
  140SAPE  C31615339   2.775   4.621   9.123 -0.0428 -0.1943 -0.4298
  140SAPE  H16X15340   2.777   4.704   9.198  0.3104 -1.1856  0.6986
  140SAPE  H16Y15341   2.675   4.577   9.143 -0.0939  0.8841  2.1917
  140SAPE  C31715342   2.783   4.659   8.981 -0.4271  0.2266 -0.0843
  140SAPE  H17X15343   2.890   4.669   8.952 -0.6238  1.0005 -0.6074
  140SAPE  H17Y15344   2.739   4.755   8.945  0.4680  1.2889  1.5164
  140SAPE  C31815345   2.719   4.548   8.893  0.7691  0.5169  0.3892
  140SAPE  H18X15346   2.722   4.601   8.795 -0.4074  0.3134  0.2219
  140SAPE  H18Y15347   2.615   4.532   8.929  0.4257 -1.1701 -1.1816
  140SAPE  H18Z15348   2.772   4.451   8.888 -1.5983 -1.1305  3.5925
  141SAPE     N15349   2.816   4.862  11.087  0.3650  1.0796  0.0156
  141SAPE   HN115350   2.751   4.783  11.105  1.0210  0.1774 -1.3295
  141SAPE   HN215351   2.888   4.876  11.161 -0.9093 -0.3708  1.5846
  141SAPE   HN315352   2.746   4.939  11.087 -2.6007 -1.4438  0.6546
  141SAPE   C1215353   2.882   4.848  10.952 -0.0429 -0.3757  0.1107
  141SAPE  H12A15354   2.804   4.833  10.875 -0.9626  0.4540  0.8484
  141SAPE  H12B15355   2.961   4.770  10.950 -0.8675 -1.5315  4.0829
  141SAPE   C1115356   2.964   4.983  10.927  0.6189  1.4909  0.5518
  141SAPE  H11A15357   2.912   5.081  10.929  1.8591  2.2954 -2.1969
  141SAPE  H11B15358   2.991   4.977  10.820  0.1890 -0.5948  0.5071
  141SAPE     P15359   3.194   5.093  10.987  0.1777 -0.0505 -0.1330
  141SAPE   O1315360   3.127   5.219  11.020 -0.1813 -0.3819 -0.3813
  141SAPE   O1415361   3.313   5.060  11.069 -0.1175 -0.7991  0.3617
  141SAPE   O1215362   3.085   4.983  11.004  0.8142  0.9457 -0.4206
  141SAPE   O1115363   3.212   5.075  10.829  0.1198  0.1269 -0.5343
  141SAPE    C115364   3.273   4.958  10.773 -0.1228 -0.8183 -0.1722
  141SAPE    HA15365   3.379   4.970  10.806 -0.4642 -2.3005  1.6170
  141SAPE    HB15366   3.228   4.864  10.812 -0.6319 -1.1571 -1.5223
  141SAPE    C215367   3.276   4.965  10.615  0.0210 -0.8345  0.1063
  141SAPE    HS15368   3.334   5.054  10.582 -0.7900 -0.0643  0.7208
  141SAPE   O2115369   3.140   4.963  10.558 -0.3615  0.6922  0.2335
  141SAPE   C2115370   3.083   5.079  10.554  0.2164  0.0911  0.0331
  141SAPE   O2215371   3.123   5.184  10.603 -0.3715  0.3204  0.0079
  141SAPE   C2215372   2.948   5.062  10.470 -0.2071  0.5743  0.0685
  141SAPE   H2R15373   2.886   4.984  10.519 -0.3233  1.2565  1.0336
  141SAPE   H2S15374   2.890   5.157  10.469 -0.8962  0.1591 -0.2319
  141SAPE    C315375   3.360   4.842  10.563 -1.1171  0.4372  0.7222
  141SAPE    HX15376   3.325   4.748  10.611  0.4769 -0.5116  0.1004
  141SAPE    HY15377   3.469   4.854  10.579 -0.8937  0.7854 -0.8761
  141SAPE   O3115378   3.340   4.823  10.419  0.0634  0.1764  0.1734
  141SAPE   C3115379   3.416   4.903  10.341  1.0757 -0.0621 -0.0167
  141SAPE   O3215380   3.478   5.001  10.377  0.1251 -0.3338  0.2102
  141SAPE   C3215381   3.391   4.859  10.199  0.2377 -0.4004  0.2331
  141SAPE   H2X15382   3.282   4.844  10.189  0.2805  0.3902 -2.2809
  141SAPE   H2Y15383   3.425   4.753  10.195  1.4519 -0.0284  0.1051
  141SAPE   C2315384   2.963   5.001  10.328  0.7928 -0.3921  0.0655
  141SAPE   H3R15385   3.026   4.911  10.341  0.0072 -0.8727  0.6545
  141SAPE   H3S15386   3.015   5.078  10.267  0.9907  0.0252  0.7484
  141SAPE   C2415387   2.826   4.965  10.266  0.2824  0.2380  0.1181
  141SAPE   H4R15388   2.772   5.062  10.272  1.4475  0.9199 -0.0510
  141SAPE   H4S15389   2.762   4.900  10.329 -1.9602  1.4625 -0.7773
  141SAPE   C2515390   2.841   4.906  10.126  0.4243 -0.3754  0.0046
  141SAPE   H5R15391   2.886   4.806  10.130  1.6860  0.0428 -2.2008
  141SAPE   C2615392   2.810   4.973  10.013  0.7846  0.3850  0.4087
  141SAPE   H6R15393   2.819   4.915   9.920 -1.3321 -0.6453  0.7719
  141SAPE   C2715394   2.758   5.114   9.993  0.6561  0.2993  0.3104
  141SAPE   H7R15395   2.822   5.171   9.922  1.3698 -1.1220 -0.2265
  141SAPE   H7S15396   2.761   5.172  10.088 -0.8255  0.4168  0.3057
  141SAPE   C2815397   2.609   5.118   9.952  0.3862 -0.2672  0.6751
  141SAPE   H8R15398   2.544   5.060  10.019  0.3602 -0.8160  0.1866
  141SAPE   C2915399   2.550   5.169   9.840 -0.7659 -0.8647 -0.0206
  141SAPE   H9R15400   2.440   5.171   9.847 -0.8313 -1.5258 -0.7378
  141SAPE  C21015401   2.609   5.253   9.725 -0.0056 -0.2889  1.5113
  141SAPE  H10R15402   2.717   5.232   9.710 -0.0189 -2.1434  3.4335
  141SAPE  H10S15403   2.592   5.359   9.754  0.5090 -0.2077  1.5227
  141SAPE  C21115404   2.532   5.217   9.604  0.2374 -0.4100 -0.6681
  141SAPE  H11R15405   2.469   5.127   9.602  0.2694 -0.4763  0.5081
  141SAPE  C21215406   2.539   5.282   9.486 -0.8744  0.6256 -0.8670
  141SAPE  H12R15407   2.493   5.238   9.397  1.2796 -0.6323 -1.4250
  141SAPE  C21315408   2.622   5.404   9.455  0.8938  0.8280 -0.9812
  141SAPE  H13R15409   2.697   5.421   9.536 -0.2212 -0.6613  0.4349
  141SAPE  H13S15410   2.553   5.490   9.439 -1.2719 -0.5296  0.5465
  141SAPE  C21415411   2.698   5.368   9.327  0.6965 -0.5375  0.0806
  141SAPE  H14R15412   2.725   5.261   9.318  0.1383 -0.7144  0.4984
  141SAPE  C21515413   2.751   5.449   9.233 -0.4396  0.0638 -0.6115
  141SAPE  H15R15414   2.805   5.402   9.149 -1.6241  0.0224 -1.3684
  141SAPE  C21615415   2.752   5.602   9.234  0.1883 -0.2411  1.0647
  141SAPE  H16R15416   2.774   5.642   9.336 -0.2661  2.1708  0.2906
  141SAPE  H16S15417   2.656   5.648   9.205  1.3016  0.3808 -1.9611
  141SAPE  C21715418   2.860   5.655   9.141  0.0796  0.5626  0.1103
  141SAPE  H17R15419   2.960   5.615   9.168  1.3580  2.0567 -2.1065
  141SAPE  H17S15420   2.875   5.763   9.162  1.7404 -0.0673  2.5728
  141SAPE  C21815421   2.821   5.644   8.996  0.2478  0.1027 -0.5395
  141SAPE  H18R15422   2.743   5.720   8.973  1.3814  1.8585  1.0908
  141SAPE  H18S15423   2.784   5.543   8.967  0.4922 -0.7728  1.9516
  141SAPE  C21915424   2.946   5.672   8.909  1.4555 -0.2412 -0.2365
  141SAPE  H19R15425   3.026   5.599   8.933 -1.0013 -3.5903 -1.3361
  141SAPE  H19S15426   2.974   5.777   8.932  2.9824 -0.8310  0.7402
  141SAPE  C22015427   2.937   5.667   8.757 -0.6970  0.3278  0.6318
  141SAPE  H20R15428   3.037   5.689   8.713 -0.0816 -0.8776  1.3824
  141SAPE  H20S15429   2.869   5.752   8.735  0.2310  0.8754 -0.2161
  141SAPE  H20T15430   2.901   5.577   8.705  0.3048  0.4654 -0.3350
  141SAPE   C3315431   3.459   4.959  10.104 -0.2113  0.5481  0.1027
  141SAPE   H3X15432   3.570   4.964  10.107 -0.2120  0.2676  0.7972
  141SAPE   H3Y15433   3.406   5.055  10.119  1.2538  1.5782 -1.0845
  141SAPE   C3415434   3.422   4.931   9.956  0.6630 -0.0711 -0.9968
  141SAPE   H4X15435   3.485   4.845   9.924 -0.6980 -2.6411  2.6117
  141SAPE   H4Y15436   3.457   5.024   9.907  0.8336  0.9933  1.0222
  141SAPE   C3515437   3.268   4.916   9.926  0.1731  0.1843  0.2208
  141SAPE   H5X15438   3.208   4.998   9.971 -0.7353  0.1723 -0.9181
  141SAPE   H5Y15439   3.237   4.830   9.989  1.5780  1.3369  2.6229
  141SAPE   C3615440   3.245   4.914   9.781 -0.3949  0.1788 -0.5539
  141SAPE   H6X15441   3.305   4.832   9.735 -2.4493 -0.3073 -2.5401
  141SAPE   H6Y15442   3.286   5.007   9.736  0.3515  0.4415  0.6364
  141SAPE   C3715443   3.099   4.899   9.738 -0.3681 -0.8270  0.5293
  141SAPE   H7X15444   3.049   4.995   9.763 -1.3102 -0.4401 -2.4310
  141SAPE   H7Y15445   3.060   4.806   9.784 -0.0420 -1.1572  0.1406
  141SAPE   C3815446   3.076   4.890   9.584  0.5060  0.2440  0.1661
  141SAPE   H8X15447   3.120   4.792   9.555 -1.0686 -1.1867  2.3076
  141SAPE   H8Y15448   3.127   4.981   9.545  1.4578 -1.1335 -1.9754
  141SAPE   C3915449   2.923   4.909   9.532 -1.0320  0.1491  0.2221
  141SAPE   H9X15450   2.887   5.008   9.567 -0.1940  0.6889 -0.3936
  141SAPE   H9Y15451   2.856   4.838   9.586 -2.7925 -0.2388 -2.2946
  141SAPE  C31015452   2.903   4.896   9.383  0.5297 -0.4153 -0.5690
  141SAPE  H10X15453   2.794   4.886   9.364 -0.0099  1.2629  1.3860
  141SAPE  H10Y15454   2.957   4.811   9.336 -0.1461 -0.0835 -2.0093
  141SAPE  C31115455   2.954   5.028   9.325  0.0936  0.1136 -0.2361
  141SAPE  H11X15456   3.064   5.037   9.334  0.2474 -2.3059  0.9899
  141SAPE  H11Y15457   2.907   5.117   9.373  0.4873 -0.0097  0.3832
  141SAPE  C31215458   2.917   5.028   9.177 -0.9745 -0.0262 -0.6537
  141SAPE  H12X15459   2.806   5.021   9.174 -1.1542 -5.2583  3.5037
  141SAPE  H12Y15460   2.964   4.938   9.131  0.3041  0.1367  0.2795
  141SAPE  C31315461   2.968   5.150   9.097 -0.2341 -0.1264  1.1153
  141SAPE  H13X15462   3.078   5.161   9.098 -0.1417 -0.8648  0.1441
  141SAPE  H13Y15463   2.931   5.240   9.151 -3.5430 -0.7965  0.2113
  141SAPE  C31415464   2.921   5.151   8.953  0.4706  1.1076 -0.2022
  141SAPE  H14X15465   2.816   5.116   8.946  0.1197  1.5425  2.1021
  141SAPE  H14Y15466   2.973   5.064   8.908 -1.1421 -0.3754  0.7439
  141SAPE  C31515467   2.954   5.276   8.866  0.1445  0.6241  0.2192
  141SAPE  H15X15468   3.045   5.318   8.914  1.9100 -0.5293 -1.9251
  141SAPE  H15Y15469   2.876   5.355   8.866 -0.3181  0.1995  2.1633
  141SAPE  C31615470   2.984   5.239   8.721 -0.0360 -0.5252 -0.4539
  141SAPE  H16X15471   3.080   5.184   8.718 -0.1088 -0.7007  0.2721
  141SAPE  H16Y15472   3.009   5.337   8.675 -1.7233 -0.2982 -0.9807
  141SAPE  C31715473   2.867   5.168   8.650  0.2220 -0.3510  0.2874
  141SAPE  H17X15474   2.776   5.205   8.702  1.7370  1.0123  2.1069
  141SAPE  H17Y15475   2.884   5.059   8.662  0.7090 -0.1630  1.4780
  141SAPE  C31815476   2.843   5.215   8.503 -0.3061 -0.1575  0.5089
  141SAPE  H18X15477   2.938   5.214   8.446 -1.0947 -1.0404 -0.8565
  141SAPE  H18Y15478   2.814   5.322   8.504  1.0635  0.2292  0.6304
  141SAPE  H18Z15479   2.770   5.144   8.457 -0.1121  0.8224 -1.3938
  142SAPE     N15480   4.337   4.907  11.219  0.3372 -0.7576 -0.1043
  142SAPE   HN115481   4.354   4.866  11.125 -1.7983  0.2156 -0.9798
  142SAPE   HN215482   4.282   4.994  11.203 -0.7486 -1.6968 -1.7561
  142SAPE   HN315483   4.420   4.928  11.277  0.4448  1.7139 -1.0706
  142SAPE   C1215484   4.257   4.805  11.299 -0.4101  0.2843 -1.2227
  142SAPE  H12A15485   4.212   4.858  11.386  2.9708  0.9786  0.2826
  142SAPE  H12B15486   4.324   4.726  11.340 -0.9034  0.4871  0.0204
  142SAPE   C1115487   4.166   4.734  11.205  0.4259 -0.2807  0.4358
  142SAPE  H11A15488   4.245   4.685  11.143 -0.5660  1.6973 -2.6214
  142SAPE  H11B15489   4.111   4.806  11.142  0.0224 -0.8064  0.1795
  142SAPE     P15490   3.926   4.683  11.313  0.1829 -0.2292  0.5655
  142SAPE   O1315491   3.871   4.590  11.408 -0.6453 -0.1702 -0.2974
  142SAPE   O1415492   3.936   4.823  11.357 -0.3034  0.8080 -0.2381
  142SAPE   O1215493   4.074   4.638  11.268  0.4290  0.6954 -0.1019
  142SAPE   O1115494   3.829   4.677  11.191 -0.3145  0.1518 -0.3758
  142SAPE    C115495   3.800   4.545  11.127 -0.7165  0.8325  0.3062
  142SAPE    HA15496   3.771   4.462  11.194  0.5125  0.7253  0.7359
  142SAPE    HB15497   3.707   4.552  11.067 -1.0644 -0.0698  0.7328
  142SAPE    C215498   3.908   4.497  11.020  0.9789  0.5917  0.1828
  142SAPE    HS15499   3.992   4.455  11.079  1.4175 -0.0151 -0.8619
  142SAPE   O2115500   3.940   4.619  10.942  0.0474  0.8275  0.3558
  142SAPE   C2115501   4.065   4.610  10.896 -0.2041 -0.1929 -0.6257
  142SAPE   O2215502   4.149   4.533  10.936 -0.4558 -0.0519 -0.0958
  142SAPE   C2215503   4.084   4.721  10.782 -0.0270 -0.0837  0.2927
  142SAPE   H2R15504   4.005   4.705  10.706 -0.3447  3.0163 -0.1298
  142SAPE   H2S15505   4.057   4.816  10.832 -0.2816  0.4311 -0.8047
  142SAPE    C315506   3.852   4.377  10.938  0.6971 -0.0574  0.3898
  142SAPE    HX15507   3.759   4.421  10.897  0.2105  1.0200  2.5376
  142SAPE    HY15508   3.822   4.288  10.997 -0.0410  0.4296  0.7476
  142SAPE   O3115509   3.935   4.345  10.828  0.3688 -0.6897 -0.0104
  142SAPE   C3115510   4.032   4.257  10.857  0.3777 -0.3505  0.0257
  142SAPE   O3215511   4.042   4.203  10.963 -0.0737  0.0459 -0.2349
  142SAPE   C3215512   4.107   4.223  10.727  0.5106 -0.5065 -0.0673
  142SAPE   H2X15513   4.062   4.269  10.637  1.1256 -1.6861 -1.0076
  142SAPE   H2Y15514   4.084   4.115  10.711 -0.5184  0.0265 -2.7189
  142SAPE   C2315515   4.224   4.726  10.717  0.1786 -0.4858  0.4378
  142SAPE   H3R15516   4.258   4.621  10.708  0.5802 -0.2454 -1.0665
  142SAPE   H3S15517   4.303   4.792  10.760 -1.3453  1.1792  0.8213
  142SAPE   C2415518   4.207   4.756  10.567  0.1311  0.5191  0.0016
  142SAPE   H4R15519   4.129   4.683  10.540  0.4828 -0.3468  1.2487
  142SAPE   H4S15520   4.308   4.734  10.524  0.2604 -0.8840  0.9744
  142SAPE   C2515521   4.174   4.900  10.539  0.1825 -1.3277 -0.0709
  142SAPE   H5R15522   4.163   4.961  10.630 -1.5434 -2.3241  0.4278
  142SAPE   C2615523   4.138   4.947  10.420 -0.4802  0.1749 -0.4003
  142SAPE   H6R15524   4.119   5.055  10.420 -1.8588 -0.0265  1.3304
  142SAPE   C2715525   4.147   4.865  10.297  0.0128  0.2948  0.6011
  142SAPE   H7R15526   4.068   4.787  10.298  1.1904 -0.9600 -0.4735
  142SAPE   H7S15527   4.238   4.801  10.299  0.8151  1.3767  0.2232
  142SAPE   C2815528   4.154   4.955  10.168  0.2225  0.6057  0.2352
  142SAPE   H8R15529   4.209   5.050  10.169 -0.2325  0.8981 -0.9856
  142SAPE   C2915530   4.097   4.921  10.052 -0.0994 -0.7532  0.2678
  142SAPE   H9R15531   4.109   4.989   9.966  0.4554  0.8695  1.5710
  142SAPE  C21015532   4.006   4.805  10.022  0.1439 -0.7043  0.1950
  142SAPE  H10R15533   3.901   4.828  10.052 -0.9412 -2.4905 -1.9402
  142SAPE  H10S15534   4.022   4.716  10.086  1.5396  0.0362  0.9163
  142SAPE  C21115535   4.005   4.768   9.878  0.1760  0.9073  0.5190
  142SAPE  H11R15536   4.069   4.680   9.860 -1.3996 -0.4286  1.1552
  142SAPE  C21215537   3.957   4.834   9.772  0.3155  0.4671  0.2605
  142SAPE  H12R15538   3.953   4.784   9.674 -0.9712  0.1295  0.4575
  142SAPE  C21315539   3.891   4.971   9.768 -0.3672  0.1291 -0.3317
  142SAPE  H13R15540   3.932   5.034   9.686 -0.5120  2.8894  1.5641
  142SAPE  H13S15541   3.909   5.035   9.857 -2.7823  0.6466 -0.1688
  142SAPE  C21415542   3.741   4.958   9.762 -0.4720 -0.8187  0.1035
  142SAPE  H14R15543   3.692   4.899   9.841  1.2038  0.5817  2.3352
  142SAPE  C21515544   3.654   5.014   9.665 -0.6335 -0.0383 -0.2452
  142SAPE  H15R15545   3.548   4.990   9.685  0.3027 -2.1070  3.0269
  142SAPE  C21615546   3.683   5.086   9.534 -0.5077 -0.2595 -0.2676
  142SAPE  H16R15547   3.784   5.134   9.532 -0.1436 -1.0213 -1.6895
  142SAPE  H16S15548   3.596   5.150   9.509 -0.2411 -0.7623 -2.8466
  142SAPE  C21715549   3.682   4.966   9.433  0.8016 -0.1980 -0.8303
  142SAPE  H17R15550   3.578   4.927   9.436  0.8936 -0.3911  1.3982
  142SAPE  H17S15551   3.757   4.887   9.453  1.6382  0.4250 -1.4402
  142SAPE  C21815552   3.702   5.023   9.293  0.0376  0.2708  0.4004
  142SAPE  H18R15553   3.628   5.101   9.265  1.6288  1.0710 -1.7754
  142SAPE  H18S15554   3.686   4.935   9.227  0.9939  0.8730 -0.6665
  142SAPE  C21915555   3.832   5.087   9.270  0.2435  0.3903  0.0474
  142SAPE  H19R15556   3.910   5.018   9.307 -0.9999 -0.6567  0.7940
  142SAPE  H19S15557   3.856   5.170   9.340  1.6158 -0.7395  0.9703
  142SAPE  C22015558   3.850   5.124   9.124 -0.1884 -0.0125  0.7441
  142SAPE  H20R15559   3.789   5.208   9.083  0.0134  0.3560  1.1851
  142SAPE  H20S15560   3.856   5.034   9.060  5.5462  1.1375 -0.9887
  142SAPE  H20T15561   3.954   5.161   9.109 -0.8625  2.8320  2.3666
  142SAPE   C3315562   4.259   4.250  10.730 -0.7842 -0.1542 -1.1029
  142SAPE   H3X15563   4.302   4.174  10.798  0.1471  0.5078 -0.9263
  142SAPE   H3Y15564   4.277   4.350  10.778  1.3518 -0.1827 -1.7243
  142SAPE   C3415565   4.332   4.243  10.594 -0.7371 -0.5555  0.5458
  142SAPE   H4X15566   4.340   4.138  10.558  0.5357  0.2995 -1.8988
  142SAPE   H4Y15567   4.435   4.274  10.620 -1.0728  1.5309 -0.3621
  142SAPE   C3515568   4.291   4.353  10.491  0.0349  0.2108 -0.0268
  142SAPE   H5X15569   4.277   4.443  10.554  0.4778 -0.7266  1.4630
  142SAPE   H5Y15570   4.187   4.330  10.460  0.1327  0.8263 -0.8512
  142SAPE   C3615571   4.379   4.385  10.372  0.4458  0.8200  0.1138
  142SAPE   H6X15572   4.388   4.295  10.307 -0.8446 -0.6455  1.8517
  142SAPE   H6Y15573   4.478   4.404  10.420  0.3054  1.7657  0.0503
  142SAPE   C3715574   4.325   4.497  10.290  0.0429 -0.2722 -0.1027
  142SAPE   H7X15575   4.345   4.592  10.345 -0.3723 -0.8477  1.0781
  142SAPE   H7Y15576   4.219   4.473  10.269  0.7253 -1.6649 -2.3417
  142SAPE   C3815577   4.396   4.515  10.150 -0.0428  0.6476 -1.4238
  142SAPE   H8X15578   4.379   4.427  10.084  0.8926 -0.3017 -0.4339
  142SAPE   H8Y15579   4.505   4.527  10.170  0.2393 -3.0261 -0.0092
  142SAPE   C3915580   4.346   4.628  10.065 -0.8167  0.3278  0.1820
  142SAPE   H9X15581   4.377   4.721  10.119 -2.1573  0.6329  0.4573
  142SAPE   H9Y15582   4.238   4.605  10.060 -0.0618 -3.9786 -0.0169
  142SAPE  C31015583   4.407   4.625   9.921  0.3044  0.6043 -0.4525
  142SAPE  H10X15584   4.378   4.531   9.871 -0.2749 -0.0955  1.1482
  142SAPE  H10Y15585   4.517   4.613   9.934  0.0478 -1.9326 -0.1487
  142SAPE  C31115586   4.373   4.737   9.820  0.5739  0.3029  0.2676
  142SAPE  H11X15587   4.426   4.834   9.836  0.1424  0.4035  1.1643
  142SAPE  H11Y15588   4.265   4.762   9.832  0.9532  2.4368 -0.2263
  142SAPE  C31215589   4.408   4.708   9.677 -1.0781 -1.1652  0.2488
  142SAPE  H12X15590   4.349   4.622   9.639 -1.0887 -1.4358  0.8617
  142SAPE  H12Y15591   4.517   4.699   9.656 -0.4725  2.4170  1.1289
  142SAPE  C31315592   4.385   4.837   9.592 -0.1917 -0.4256 -0.0804
  142SAPE  H13X15593   4.457   4.841   9.507  0.5132  0.3391  0.5306
  142SAPE  H13Y15594   4.391   4.925   9.659 -3.1009 -1.4363  1.6983
  142SAPE  C31415595   4.238   4.848   9.545  1.2780  0.4501  1.1319
  142SAPE  H14X15596   4.174   4.873   9.633  0.1483 -1.1329  0.8134
  142SAPE  H14Y15597   4.197   4.758   9.495  0.0479  1.5756  0.0459
  142SAPE  C31515598   4.215   4.961   9.446 -0.5835 -0.0090 -0.3010
  142SAPE  H15X15599   4.219   5.056   9.503 -1.5953 -0.3501  0.3591
  142SAPE  H15Y15600   4.109   4.944   9.418 -1.1203  2.2420  0.1709
  142SAPE  C31615601   4.302   4.946   9.316  0.3479  0.1426 -0.5016
  142SAPE  H16X15602   4.408   4.927   9.343  0.2444 -0.7108 -0.6511
  142SAPE  H16Y15603   4.306   5.044   9.265 -1.0239  0.3432 -0.2622
  142SAPE  C31715604   4.249   4.834   9.223  0.2893 -0.5876  0.1175
  142SAPE  H17X15605   4.249   4.872   9.119 -1.0220  0.1650  0.3737
  142SAPE  H17Y15606   4.141   4.818   9.238 -0.2170  2.0117 -0.2631
  142SAPE  C31815607   4.336   4.698   9.235 -0.3673 -0.4485  0.1916
  142SAPE  H18X15608   4.330   4.665   9.340 -1.3445 -0.0011  0.2857
  142SAPE  H18Y15609   4.443   4.718   9.213 -0.5258  1.9234  1.2394
  142SAPE  H18Z15610   4.299   4.622   9.162  1.3350 -0.2497 -0.9391
  143SAPE     N15611   6.533   5.047  11.163 -0.0045 -0.0128 -0.0922
  143SAPE   HN115612   6.568   4.950  11.154 -2.8497 -0.9304 -4.4508
  143SAPE   HN215613   6.430   5.046  11.177  0.0369  1.9577  0.6224
  143SAPE   HN315614   6.556   5.102  11.078 -0.7645  2.0006  0.9367
  143SAPE   C1215615   6.588   5.111  11.280  0.4095  0.3176  0.5255
  143SAPE  H12A15616   6.698   5.121  11.265  0.2672  0.9110 -0.2234
  143SAPE  H12B15617   6.558   5.053  11.370  1.5067  0.5325  1.0552
  143SAPE   C1115618   6.528   5.253  11.302  0.0868  0.4083 -0.1496
  143SAPE  H11A15619   6.567   5.291  11.399  1.1322 -1.7472  0.3291
  143SAPE  H11B15620   6.421   5.229  11.321  0.6008 -0.0705  2.6871
  143SAPE     P15621   6.464   5.469  11.169 -0.3065  0.3790 -0.4892
  143SAPE   O1315622   6.362   5.437  11.066 -0.2928  0.1068 -0.0548
  143SAPE   O1415623   6.416   5.523  11.303 -0.5126  0.2083  0.3016
  143SAPE   O1215624   6.555   5.340  11.193 -0.2738  0.9248  0.4593
  143SAPE   O1115625   6.563   5.574  11.104  0.7004 -0.5721  0.2521
  143SAPE    C115626   6.703   5.576  11.120  0.2625 -0.5285 -0.0828
  143SAPE    HA15627   6.749   5.677  11.133  1.9876 -0.4958 -4.4560
  143SAPE    HB15628   6.737   5.514  11.205 -1.5616  0.6054  1.5579
  143SAPE    C215629   6.774   5.543  10.977  0.5253  0.0193  0.0504
  143SAPE    HS15630   6.884   5.535  10.991  0.6484 -2.6685 -1.5744
  143SAPE   O2115631   6.740   5.628  10.869  0.3710 -0.1339  0.3889
  143SAPE   C2115632   6.811   5.741  10.869  0.1104  0.2965 -1.0817
  143SAPE   O2215633   6.891   5.781  10.956  0.5040 -0.1771 -0.0082
  143SAPE   C2215634   6.771   5.823  10.748  0.0403  0.4013 -0.3328
  143SAPE   H2R15635   6.842   5.794  10.668 -0.9154  0.0564 -1.0694
  143SAPE   H2S15636   6.676   5.784  10.707  0.3496 -1.5113  0.6353
  143SAPE    C315637   6.721   5.398  10.948 -0.1364 -0.9379  0.5976
  143SAPE    HX15638   6.613   5.409  10.921  0.0956  1.9006  0.5415
  143SAPE    HY15639   6.728   5.338  11.041  0.7695 -2.1400 -0.2158
  143SAPE   O3115640   6.801   5.329  10.843 -0.5870  0.0998  0.2713
  143SAPE   C3115641   6.763   5.203  10.833 -0.1932 -0.1972 -0.4775
  143SAPE   O3215642   6.686   5.149  10.912 -0.4818  0.1469 -0.2608
  143SAPE   C3215643   6.811   5.148  10.699 -0.0711  0.3036  0.7489
  143SAPE   H2X15644   6.921   5.145  10.714 -0.1314 -1.2344  1.0172
  143SAPE   H2Y15645   6.795   5.232  10.627  1.9783 -0.3360 -0.5468
  143SAPE   C2315646   6.777   5.973  10.775  0.8076  0.4757 -0.4405
  143SAPE   H3R15647   6.882   6.006  10.793  1.4395 -1.3308 -0.6717
  143SAPE   H3S15648   6.718   5.989  10.868  0.2171  1.6925 -0.9903
  143SAPE   C2415649   6.747   6.054  10.654  0.4635  0.2809  0.9258
  143SAPE   H4R15650   6.840   6.056  10.593 -0.2693 -2.2992 -0.4167
  143SAPE   H4S15651   6.731   6.158  10.691 -1.1414  1.2148 -2.0412
  143SAPE   C2515652   6.629   6.008  10.565 -0.7508 -1.0194 -0.0217
  143SAPE   H5R15653   6.538   5.971  10.616 -1.7037  0.3348 -0.6571
  143SAPE   C2615654   6.624   6.002  10.426  0.0723 -0.0127 -0.1988
  143SAPE   H6R15655   6.528   5.991  10.374  0.1332  0.0391 -0.3203
  143SAPE   C2715656   6.741   6.035  10.342 -0.7936 -0.2865  0.3630
  143SAPE   H7R15657   6.823   5.968  10.376 -0.3283  0.2221  0.2477
  143SAPE   H7S15658   6.775   6.139  10.359  1.2169 -1.2209  2.5919
  143SAPE   C2815659   6.722   6.003  10.200 -0.3043 -1.1377  0.3180
  143SAPE   H8R15660   6.789   5.928  10.156  2.6359  0.6291  1.4854
  143SAPE   C2915661   6.649   6.078  10.115 -0.7509  0.1147 -0.6932
  143SAPE   H9R15662   6.643   6.056  10.008  0.8436 -1.0359 -0.5885
  143SAPE  C21015663   6.570   6.204  10.149  0.5867  0.4355 -0.0660
  143SAPE  H10R15664   6.576   6.243  10.253 -0.2376 -0.5351  0.3669
  143SAPE  H10S15665   6.462   6.186  10.130  0.9092 -0.6854 -0.9450
  143SAPE  C21115666   6.614   6.335  10.073 -0.0364  0.6253 -0.3122
  143SAPE  H11R15667   6.705   6.384  10.110  0.1293  1.6348 -1.9442
  143SAPE  C21215668   6.572   6.374   9.954 -0.5865 -0.2438 -0.3480
  143SAPE  H12R15669   6.634   6.456   9.914  0.1952 -1.3673 -1.4999
  143SAPE  C21315670   6.471   6.317   9.860  0.2734  0.3215 -0.1626
  143SAPE  H13R15671   6.382   6.380   9.884 -0.3572 -0.4544 -0.4147
  143SAPE  H13S15672   6.446   6.214   9.893  1.4596  0.3828  0.9674
  143SAPE  C21415673   6.494   6.313   9.717 -0.2786  0.0775 -0.0729
  143SAPE  H14R15674   6.556   6.228   9.685 -1.5108 -1.7250  2.0314
  143SAPE  C21515675   6.442   6.387   9.617 -0.2904  0.1210 -0.7741
  143SAPE  H15R15676   6.479   6.367   9.516  2.3673 -0.6099  0.2707
  143SAPE  C21615677   6.347   6.501   9.626 -0.0089 -0.0216 -0.3296
  143SAPE  H16R15678   6.280   6.471   9.710  1.2495  0.3008  0.8370
  143SAPE  H16S15679   6.281   6.507   9.537 -0.6766  0.4282  0.1878
  143SAPE  C21715680   6.434   6.630   9.640 -0.0639 -0.2201  0.7892
  143SAPE  H17R15681   6.509   6.630   9.722 -0.3046  0.3513  1.0091
  143SAPE  H17S15682   6.365   6.711   9.673  0.4185 -0.3956  2.3133
  143SAPE  C21815683   6.514   6.663   9.510 -0.3569 -0.6393 -0.2543
  143SAPE  H18R15684   6.594   6.590   9.482 -2.2569 -1.9734 -2.5273
  143SAPE  H18S15685   6.564   6.762   9.519  2.0958 -1.8487  0.2233
  143SAPE  C21915686   6.421   6.671   9.387  0.3725 -1.0538  0.2702
  143SAPE  H19R15687   6.373   6.574   9.361 -0.4807  0.2333 -3.6968
  143SAPE  H19S15688   6.474   6.705   9.295 -0.6730  2.0411  0.6736
  143SAPE  C22015689   6.301   6.765   9.399 -0.5216  0.4152 -1.3257
  143SAPE  H20R15690   6.232   6.734   9.480  0.4714 -1.8397 -1.2594
  143SAPE  H20S15691   6.248   6.770   9.301  0.6240  0.0192 -1.9847
  143SAPE  H20T15692   6.340   6.866   9.424  1.0844 -0.4893  0.0435
  143SAPE   C3315693   6.747   5.014  10.662  0.5803  0.6591  0.3063
  143SAPE   H3X15694   6.639   5.024  10.637  0.3279 -1.1731  0.5133
  143SAPE   H3Y15695   6.756   4.945  10.749  0.7819  0.0206 -0.2094
  143SAPE   C3415696   6.824   4.949  10.553 -0.1332 -0.0196 -0.2907
  143SAPE   H4X15697   6.933   4.948  10.574 -0.3463 -0.1633  0.8596
  143SAPE   H4Y15698   6.801   5.006  10.460 -2.2207 -0.6621 -0.2238
  143SAPE   C3515699   6.778   4.803  10.521 -0.0203  0.0666  0.0311
  143SAPE   H5X15700   6.668   4.795  10.503 -0.0383 -1.1853  0.5851
  143SAPE   H5Y15701   6.798   4.737  10.608 -2.0336 -0.8492 -0.1381
  143SAPE   C3615702   6.854   4.726  10.412 -0.2006  0.7655  0.6553
  143SAPE   H6X15703   6.803   4.628  10.402 -0.5468  1.1827 -2.7709
  143SAPE   H6Y15704   6.954   4.692  10.446  1.0174  1.9316 -1.5797
  143SAPE   C3715705   6.856   4.797  10.277  0.4090 -0.7674  0.2610
  143SAPE   H7X15706   6.907   4.742  10.196  0.9995 -1.1054  0.8523
  143SAPE   H7Y15707   6.923   4.886  10.286 -0.8870  0.0802  2.1254
  143SAPE   C3815708   6.717   4.831  10.225  0.0955 -0.3928 -0.5119
  143SAPE   H8X15709   6.679   4.910  10.292 -0.3990 -0.0469 -1.1860
  143SAPE   H8Y15710   6.649   4.744  10.237  1.4927 -1.3886  0.4842
  143SAPE   C3915711   6.725   4.879  10.072 -0.1615  0.1363  0.0245
  143SAPE   H9X15712   6.823   4.928  10.052 -0.0272  0.0894  0.5411
  143SAPE   H9Y15713   6.640   4.942  10.037 -0.0392  0.8139  0.8935
  143SAPE  C31015714   6.720   4.746   9.995 -0.5154 -0.0902 -0.1666
  143SAPE  H10X15715   6.613   4.714   9.990 -1.4435  2.0794  2.9309
  143SAPE  H10Y15716   6.788   4.666  10.031  1.2476 -0.8011 -4.5162
  143SAPE  C31115717   6.757   4.760   9.847 -0.8562 -0.0798  0.6398
  143SAPE  H11X15718   6.761   4.661   9.798 -0.0143  0.1828  0.1541
  143SAPE  H11Y15719   6.855   4.812   9.840 -1.0432  0.2881  0.7086
  143SAPE  C31215720   6.664   4.862   9.771 -0.2269 -0.0848 -0.4564
  143SAPE  H12X15721   6.685   4.956   9.825 -0.9777  0.3974 -0.9874
  143SAPE  H12Y15722   6.556   4.836   9.777 -0.3277 -0.2314 -2.4038
  143SAPE  C31315723   6.715   4.863   9.626 -0.3260  0.8122 -0.0594
  143SAPE  H13X15724   6.682   4.765   9.585 -1.6974  1.4167 -0.4839
  143SAPE  H13Y15725   6.824   4.869   9.641 -0.5095  0.0708  1.8569
  143SAPE  C31415726   6.685   4.981   9.541 -0.5374 -0.7478  0.3759
  143SAPE  H14X15727   6.754   5.064   9.568  0.4641 -0.8604 -1.6930
  143SAPE  H14Y15728   6.578   5.010   9.549 -0.6597 -0.8863 -0.6729
  143SAPE  C31515729   6.724   4.965   9.396  0.5696 -0.0653  0.0583
  143SAPE  H15X15730   6.668   4.880   9.349  0.3397 -1.0561  2.0170
  143SAPE  H15Y15731   6.834   4.950   9.388  0.6472 -0.2346  1.3215
  143SAPE  C31615732   6.680   5.088   9.310 -0.1375 -0.6095  0.2888
  143SAPE  H16X15733   6.705   5.181   9.366 -1.3420  0.0877 -0.2889
  143SAPE  H16Y15734   6.571   5.081   9.287 -1.2283  3.1438  3.2068
  143SAPE  C31715735   6.748   5.086   9.168  0.1443 -0.0012 -0.6174
  143SAPE  H17X15736   6.751   4.980   9.136 -0.5479 -1.6845  4.1070
  143SAPE  H17Y15737   6.847   5.130   9.193  0.2864 -1.2267  1.1657
  143SAPE  C31815738   6.686   5.182   9.066 -0.1303 -0.7918 -0.2424
  143SAPE  H18X15739   6.755   5.195   8.981  0.9062  0.9205  0.8024
  143SAPE  H18Y15740   6.689   5.281   9.115  3.7993 -1.2317  0.6834
  143SAPE  H18Z15741   6.585   5.143   9.040  1.3168 -2.9011 -3.2130
  144SAPE     N15742   2.065   1.981  11.206 -0.2934  0.1114 -0.1670
  144SAPE   HN115743   2.100   1.994  11.303 -1.0430 -0.4232  0.1825
  144SAPE   HN215744   1.962   1.968  11.212 -0.1586 -1.3079 -0.4933
  144SAPE   HN315745   2.094   1.894  11.156 -2.6748 -0.5351 -0.5703
  144SAPE   C1215746   2.098   2.099  11.129 -0.5505 -0.4622 -0.3316
  144SAPE  H12A15747   2.205   2.087  11.101 -0.2390 -0.2727  0.7380
  144SAPE  H12B15748   2.077   2.191  11.188 -0.7490  0.2374 -1.4686
  144SAPE   C1115749   2.008   2.110  11.004  0.0613  0.3413 -0.4931
  144SAPE  H11A15750   2.025   2.022  10.939 -2.6275  0.4567 -1.4588
  144SAPE  H11B15751   2.041   2.198  10.945  0.4607  0.0174 -0.7533
  144SAPE     P15752   1.795   2.247  11.066 -0.4313  0.2398 -0.1650
  144SAPE   O1315753   1.647   2.228  11.046  0.0708 -0.1746 -0.0512
  144SAPE   O1415754   1.837   2.309  11.193 -0.9536 -0.2644 -0.2054
  144SAPE   O1215755   1.873   2.111  11.039  0.2808  0.1358  0.3748
  144SAPE   O1115756   1.828   2.341  10.939 -0.4754 -0.1199  0.6226
  144SAPE    C115757   1.821   2.300  10.801  0.3093  0.0587  0.5873
  144SAPE    HA15758   1.924   2.302  10.758  0.5393 -2.0182  0.9246
  144SAPE    HB15759   1.783   2.198  10.781  1.4241 -0.2392 -0.0989
  144SAPE    C215760   1.742   2.408  10.711  0.3651 -0.0647 -0.3338
  144SAPE    HS15761   1.658   2.434  10.779 -1.7222 -0.4478 -2.6195
  144SAPE   O2115762   1.702   2.345  10.588  0.2854  0.2333  0.4938
  144SAPE   C2115763   1.597   2.264  10.599  0.3501 -0.3903  0.4803
  144SAPE   O2215764   1.538   2.227  10.701 -0.1557  0.0164  0.1546
  144SAPE   C2215765   1.553   2.224  10.460 -0.3158  0.8331  0.3708
  144SAPE   H2R15766   1.586   2.311  10.399 -0.3180  3.0061  3.2276
  144SAPE   H2S15767   1.620   2.138  10.439 -2.2953 -0.9098  0.8584
  144SAPE    C315768   1.831   2.529  10.675  0.5432  0.2666  0.4108
  144SAPE    HX15769   1.922   2.479  10.638 -1.0430 -1.4171 -1.4252
  144SAPE    HY15770   1.857   2.581  10.770  2.1045 -1.6603  1.0978
  144SAPE   O3115771   1.782   2.603  10.562  0.1383 -0.6196 -0.1984
  144SAPE   C3115772   1.724   2.716  10.588 -0.1073  0.6051 -0.1006
  144SAPE   O3215773   1.702   2.757  10.699 -0.5477  0.1975 -0.2871
  144SAPE   C3215774   1.686   2.803  10.460 -0.3735 -0.3124  0.6147
  144SAPE   H2X15775   1.748   2.894  10.473 -0.4228 -0.1883  0.0268
  144SAPE   H2Y15776   1.582   2.842  10.468  0.8162  3.0284  1.4415
  144SAPE   C2315777   1.401   2.195  10.451 -0.2535  0.1992  0.3636
  144SAPE   H3R15778   1.341   2.288  10.463  0.3786  0.6541  0.0152
  144SAPE   H3S15779   1.377   2.122  10.531 -1.7819 -0.0520 -0.2865
  144SAPE   C2415780   1.364   2.125  10.321  0.4062  0.6453  0.1606
  144SAPE   H4R15781   1.412   2.025  10.321  0.6567  0.7670 -0.0421
  144SAPE   H4S15782   1.411   2.189  10.244  0.8393 -0.4163 -0.4636
  144SAPE   C2515783   1.214   2.094  10.312 -0.0727 -0.4696  0.2244
  144SAPE   H5R15784   1.175   2.018  10.381 -0.8619  1.7615  2.3486
  144SAPE   C2615785   1.122   2.146  10.223  0.7018 -1.0207 -0.5317
  144SAPE   H6R15786   1.018   2.120  10.247  1.0685  0.2862  3.0488
  144SAPE   C2715787   1.159   2.253  10.120 -0.3819  0.4501 -0.7477
  144SAPE   H7R15788   1.225   2.332  10.164 -0.0618 -0.6138  0.7894
  144SAPE   H7S15789   1.060   2.301  10.106 -1.0604 -0.6511  0.0878
  144SAPE   C2815790   1.209   2.204   9.987 -0.9571 -0.6043  0.6103
  144SAPE   H8R15791   1.262   2.107   9.983 -3.1029 -1.7972 -0.3699
  144SAPE   C2915792   1.199   2.282   9.873 -0.4118 -0.0045  0.0188
  144SAPE   H9R15793   1.257   2.249   9.785 -3.1916 -1.7912 -1.2957
  144SAPE  C21015794   1.139   2.418   9.869 -0.0110 -0.0055  0.4890
  144SAPE  H10R15795   1.207   2.494   9.825 -0.4787  0.0659 -0.1219
  144SAPE  H10S15796   1.118   2.453   9.973  1.6086  0.2759  0.7452
  144SAPE  C21115797   1.008   2.411   9.786  0.1228  0.9692 -0.5196
  144SAPE  H11R15798   0.928   2.373   9.852  0.3917  1.4852  0.1165
  144SAPE  C21215799   0.983   2.417   9.655  0.2592  0.0232  0.6716
  144SAPE  H12R15800   0.881   2.419   9.615  1.3468  1.1562 -2.3427
  144SAPE  C21315801   1.077   2.461   9.539 -0.1113  0.1555 -0.1650
  144SAPE  H13R15802   1.146   2.537   9.583 -0.9780  0.9826 -0.1886
  144SAPE  H13S15803   1.023   2.520   9.461  2.2374  1.4648 -0.9044
  144SAPE  C21415804   1.147   2.356   9.466 -0.4529 -0.0218 -0.6368
  144SAPE  H14R15805   1.084   2.298   9.396 -0.5821 -0.1819 -0.3896
  144SAPE  C21515806   1.275   2.306   9.474 -0.4671 -0.1458 -0.3478
  144SAPE  H15R15807   1.304   2.233   9.396  1.6599  0.0154  0.2512
  144SAPE  C21615808   1.388   2.347   9.565  0.8466 -0.1301  0.1236
  144SAPE  H16R15809   1.427   2.253   9.609  1.0516  0.0144  0.2500
  144SAPE  H16S15810   1.358   2.416   9.647  0.2492 -3.5377  3.0019
  144SAPE  C21715811   1.494   2.429   9.488 -0.6668 -0.3140 -0.7152
  144SAPE  H17R15812   1.531   2.363   9.407 -2.4722 -1.5056 -0.6225
  144SAPE  H17S15813   1.575   2.432   9.564  0.8966 -1.1203 -2.2773
  144SAPE  C21815814   1.461   2.572   9.442 -0.4668 -0.1623  0.2722
  144SAPE  H18R15815   1.538   2.641   9.483 -0.3256  0.1507 -0.4955
  144SAPE  H18S15816   1.360   2.596   9.480 -0.2042 -1.2134  1.7132
  144SAPE  C21915817   1.453   2.578   9.287 -0.5149 -0.5379  0.5012
  144SAPE  H19R15818   1.377   2.505   9.254 -0.4332  1.0845 -3.9771
  144SAPE  H19S15819   1.552   2.555   9.244  0.4887  0.8045  1.9699
  144SAPE  C22015820   1.418   2.721   9.238  0.1240  0.4789  0.3339
  144SAPE  H20R15821   1.346   2.771   9.306 -1.5882  0.8734 -1.6523
  144SAPE  H20S15822   1.379   2.714   9.134  0.9169  0.9171  0.0010
  144SAPE  H20T15823   1.508   2.785   9.236 -0.6855  1.6413 -0.0409
  144SAPE   C3315824   1.711   2.730  10.332 -0.6527  0.0215  0.0131
  144SAPE   H3X15825   1.670   2.628  10.346  3.1877 -1.5988  0.8563
  144SAPE   H3Y15826   1.821   2.724  10.320 -0.5410 -0.4250  1.1818
  144SAPE   C3415827   1.657   2.787  10.205  0.1296 -0.7937  0.3005
  144SAPE   H4X15828   1.702   2.883  10.173 -0.5806 -0.5486  0.0329
  144SAPE   H4Y15829   1.551   2.814  10.224  0.4401  0.9109 -0.2717
  144SAPE   C3515830   1.662   2.677  10.094 -0.2593 -0.3935  0.4298
  144SAPE   H5X15831   1.612   2.586  10.133  1.7111 -2.0074 -0.5923
  144SAPE   H5Y15832   1.768   2.645  10.101  0.9060  3.1114  0.6620
  144SAPE   C3615833   1.644   2.730   9.950  0.6313 -0.2710 -0.8167
  144SAPE   H6X15834   1.667   2.643   9.884 -0.0988 -1.5308  0.5156
  144SAPE   H6Y15835   1.723   2.803   9.923 -0.3649  0.4212 -1.9453
  144SAPE   C3715836   1.506   2.798   9.931 -0.1801  0.0496 -0.2982
  144SAPE   H7X15837   1.504   2.907   9.956 -0.4190  0.1844 -0.8983
  144SAPE   H7Y15838   1.433   2.749  10.000 -0.7129  2.5213  1.0363
  144SAPE   C3815839   1.449   2.790   9.790 -0.4498  0.6863  0.2059
  144SAPE   H8X15840   1.425   2.684   9.767  0.7965  0.0300  1.7676
  144SAPE   H8Y15841   1.527   2.828   9.720  0.5824 -1.6395  0.0173
  144SAPE   C3915842   1.316   2.872   9.763 -0.2961  0.1150  0.6478
  144SAPE   H9X15843   1.346   2.979   9.768  1.1670 -0.3308  3.1457
  144SAPE   H9Y15844   1.244   2.856   9.846 -1.0574  0.3173  0.0378
  144SAPE  C31015845   1.255   2.824   9.629 -0.6705 -0.4309  0.7164
  144SAPE  H10X15846   1.248   2.713   9.622  0.3311 -0.4531 -0.0807
  144SAPE  H10Y15847   1.308   2.864   9.541  1.7396 -1.8541  1.4268
  144SAPE  C31115848   1.112   2.880   9.609 -0.9152  0.0730  0.5665
  144SAPE  H11X15849   1.109   2.987   9.639 -1.9158  0.2794 -0.2100
  144SAPE  H11Y15850   1.055   2.824   9.686  0.1783 -0.6507  0.8785
  144SAPE  C31215851   1.069   2.875   9.463  0.0511  0.2247 -0.6195
  144SAPE  H12X15852   0.959   2.868   9.450 -0.0007 -0.4077  0.0778
  144SAPE  H12Y15853   1.108   2.778   9.424  0.7354 -0.7917  2.3221
  144SAPE  C31315854   1.110   2.993   9.374 -0.2611 -1.1480  0.1817
  144SAPE  H13X15855   1.219   2.980   9.360  0.2458  1.7283  0.8744
  144SAPE  H13Y15856   1.103   3.087   9.431  2.2458 -1.6786  1.4980
  144SAPE  C31415857   1.038   3.012   9.241 -0.0494  0.0499 -0.0340
  144SAPE  H14X15858   0.961   3.092   9.248  0.4123  0.4147  1.1020
  144SAPE  H14Y15859   0.988   2.916   9.213 -1.1138  0.3778  0.6741
  144SAPE  C31515860   1.129   3.031   9.123 -0.3219  0.0302  0.7426
  144SAPE  H15X15861   1.178   2.935   9.095 -2.9288 -0.7136 -1.8332
  144SAPE  H15Y15862   1.204   3.105   9.156 -2.2007  1.1365  2.8430
  144SAPE  C31615863   1.053   3.086   9.003  0.8654  0.3903 -0.1667
  144SAPE  H16X15864   1.019   3.191   9.014  1.9037  0.6231  0.8862
  144SAPE  H16Y15865   0.964   3.019   8.995  0.7007  0.3153  1.8903
  144SAPE  C31715866   1.126   3.062   8.870 -0.1241 -0.3081  0.1072
  144SAPE  H17X15867   1.051   3.072   8.788  0.8803  0.5280 -0.7395
  144SAPE  H17Y15868   1.176   2.963   8.869  2.5864  0.9181 -1.9290
  144SAPE  C31815869   1.247   3.145   8.836 -0.2868  0.2413  0.5552
  144SAPE  H18X15870   1.237   3.256   8.842  2.5339  0.5880  0.1685
  144SAPE  H18Y15871   1.282   3.124   8.733 -2.9776  0.2299 -0.4396
  144SAPE  H18Z15872   1.323   3.114   8.911  0.7245  1.0073 -0.1213
  145SAPE     N15873   4.188   4.143  11.193  0.0720 -0.2874  0.4429
  145SAPE   HN115874   4.212   4.077  11.117  0.7310 -0.1001  0.4808
  145SAPE   HN215875   4.089   4.172  11.203  0.5021  1.1267  0.9715
  145SAPE   HN315876   4.237   4.228  11.159 -0.1239  0.3735  1.7241
  145SAPE   C1215877   4.268   4.109  11.313  0.4505  0.3964 -0.0167
  145SAPE  H12A15878   4.219   4.014  11.344  1.0478 -0.6140 -1.9959
  145SAPE  H12B15879   4.266   4.186  11.392  1.6941 -1.7952  2.3010
  145SAPE   C1115880   4.414   4.080  11.262 -0.9505  0.2882 -0.4396
  145SAPE  H11A15881   4.465   4.160  11.204  0.8239 -0.1336  0.4512
  145SAPE  H11B15882   4.414   4.002  11.183  1.7630  0.7841 -1.0191
  145SAPE     P15883   4.567   3.921  11.393  0.1659  0.5886  0.0334
  145SAPE   O1315884   4.670   3.924  11.500  0.4039 -0.6013  0.2451
  145SAPE   O1415885   4.462   3.822  11.412 -0.2216  0.1931 -0.1914
  145SAPE   O1215886   4.501   4.063  11.381  0.0728 -0.0576  0.4347
  145SAPE   O1115887   4.633   3.894  11.255 -0.3704 -0.0757 -0.6922
  145SAPE    C115888   4.753   3.969  11.224  0.0415  0.0017 -0.1072
  145SAPE    HA15889   4.735   4.078  11.219  2.2709  0.5443  2.0648
  145SAPE    HB15890   4.828   3.969  11.306  0.0956  0.5015 -0.1541
  145SAPE    C215891   4.824   3.930  11.088 -0.1415  0.2907 -0.1150
  145SAPE    HS15892   4.908   3.997  11.062  0.4304 -1.1233 -2.1526
  145SAPE   O2115893   4.728   3.919  10.980  0.0209 -0.2365  0.5097
  145SAPE   C2115894   4.679   4.034  10.935  0.2881  0.5578  0.7913
  145SAPE   O2215895   4.705   4.144  10.976  0.4231 -0.4493  0.0840
  145SAPE   C2215896   4.579   4.015  10.816 -0.9756  0.2537 -0.5073
  145SAPE   H2R15897   4.472   4.028  10.843 -1.0699  1.4034 -1.3848
  145SAPE   H2S15898   4.602   4.109  10.761 -1.2449  2.0465  2.2340
  145SAPE    C315899   4.888   3.787  11.089  0.3778 -0.7288 -0.1479
  145SAPE    HX15900   4.800   3.721  11.108  0.5475 -0.6573  0.9195
  145SAPE    HY15901   4.957   3.767  11.174 -0.8546  1.0392  1.3373
  145SAPE   O3115902   4.961   3.756  10.969  0.2179  0.0364 -0.2528
  145SAPE   C3115903   4.899   3.675  10.880 -0.1010  0.3702 -0.7504
  145SAPE   O3215904   4.783   3.637  10.887  0.2460  0.1733 -0.7680
  145SAPE   C3215905   4.997   3.654  10.758 -0.7873 -0.1215  0.0373
  145SAPE   H2X15906   5.088   3.610  10.805 -0.1300 -0.3293 -1.3574
  145SAPE   H2Y15907   5.025   3.752  10.713 -1.7744  0.4211  0.5603
  145SAPE   C2315908   4.618   3.891  10.726  0.2458 -0.9016 -0.5020
  145SAPE   H3R15909   4.627   3.803  10.793  0.9377  1.4372  2.7128
  145SAPE   H3S15910   4.723   3.903  10.690  0.3694 -0.5091 -0.0188
  145SAPE   C2415911   4.508   3.866  10.618  0.0415 -0.1820  0.0515
  145SAPE   H4R15912   4.485   3.964  10.570 -0.1097 -0.5280 -0.6006
  145SAPE   H4S15913   4.427   3.820  10.677 -0.4512 -1.5322 -1.5995
  145SAPE   C2515914   4.572   3.757  10.524 -0.2543  0.1174 -0.4211
  145SAPE   H5R15915   4.614   3.674  10.583  0.2732 -0.3456 -1.4228
  145SAPE   C2615916   4.573   3.751  10.393  0.1554  0.0109 -0.4745
  145SAPE   H6R15917   4.625   3.668  10.343  0.4284  0.3619 -0.7773
  145SAPE   C2715918   4.514   3.853  10.291 -0.5722 -0.2662 -0.2327
  145SAPE   H7R15919   4.520   3.805  10.192 -0.0859 -0.4245 -0.1288
  145SAPE   H7S15920   4.591   3.933  10.287  1.2349 -1.9776 -1.1466
  145SAPE   C2815921   4.380   3.913  10.314  0.0113  0.3931 -0.6076
  145SAPE   H8R15922   4.328   3.873  10.402  0.1027  1.8030  0.1123
  145SAPE   C2915923   4.318   4.003  10.233  0.2267 -0.5462  0.4443
  145SAPE   H9R15924   4.215   4.036  10.252  0.2857 -0.0775 -0.0199
  145SAPE  C21015925   4.384   4.044  10.108 -0.6383 -0.2383  0.0427
  145SAPE  H10R15926   4.491   4.013  10.105 -0.6670 -0.2986 -0.4507
  145SAPE  H10S15927   4.390   4.155  10.105 -0.7603 -0.2060  0.9367
  145SAPE  C21115928   4.316   3.994   9.983 -0.7849  0.1557  0.1979
  145SAPE  H11R15929   4.206   4.001   9.984 -0.7113  1.9566 -0.1851
  145SAPE  C21215930   4.376   3.978   9.862  0.4047  0.5404 -0.5808
  145SAPE  H12R15931   4.309   3.952   9.778 -0.0111 -0.7732  0.1337
  145SAPE  C21315932   4.519   3.982   9.819  0.2305  0.5299  0.4672
  145SAPE  H13R15933   4.500   3.971   9.710 -1.8391  1.0711  0.7398
  145SAPE  H13S15934   4.587   3.898   9.846 -0.4597 -0.1336  0.1757
  145SAPE  C21415935   4.584   4.113   9.856 -0.0033 -0.1426  0.1364
  145SAPE  H14R15936   4.647   4.111   9.946 -0.9656 -2.3255  0.8408
  145SAPE  C21515937   4.566   4.225   9.788 -0.0925  0.5401 -0.1797
  145SAPE  H15R15938   4.617   4.317   9.821 -1.1862  0.4002  2.0661
  145SAPE  C21615939   4.484   4.247   9.666 -0.8283  0.3879  0.6659
  145SAPE  H16R15940   4.452   4.353   9.678 -0.3374  0.6838 -0.4728
  145SAPE  H16S15941   4.389   4.189   9.664  0.0276 -1.0147 -0.5309
  145SAPE  C21715942   4.567   4.239   9.529  0.2568 -0.5586 -0.4741
  145SAPE  H17R15943   4.590   4.131   9.517  0.3350 -0.8507  1.7854
  145SAPE  H17S15944   4.663   4.288   9.557 -0.4560 -0.2793  1.6418
  145SAPE  C21815945   4.495   4.306   9.408 -0.2999  0.4479 -0.4446
  145SAPE  H18R15946   4.499   4.416   9.414  0.7502  0.6356 -3.1710
  145SAPE  H18S15947   4.386   4.287   9.419 -0.2644  0.3399 -0.2728
  145SAPE  C21915948   4.543   4.259   9.271 -0.2683  0.0284  0.1218
  145SAPE  H19R15949   4.492   4.315   9.189  1.2908  0.1170 -0.8238
  145SAPE  H19S15950   4.529   4.149   9.263 -1.4673  0.1216  0.6203
  145SAPE  C22015951   4.691   4.297   9.242 -0.2574  0.5978 -0.2447
  145SAPE  H20R15952   4.702   4.407   9.235  0.0726  0.5809  0.0180
  145SAPE  H20S15953   4.724   4.257   9.143  1.2721 -0.8195  0.7859
  145SAPE  H20T15954   4.767   4.252   9.309  2.3814 -0.0776 -3.4283
  145SAPE   C3315955   4.937   3.569  10.647  0.7220 -0.3899  0.0483
  145SAPE   H3X15956   4.985   3.559  10.548 -0.0935 -2.2612 -0.2070
  145SAPE   H3Y15957   4.830   3.599  10.645  1.6471  3.6105  1.4510
  145SAPE   C3415958   4.916   3.422  10.700  0.2829  0.2830 -0.0588
  145SAPE   H4X15959   4.856   3.422  10.793 -1.7906  1.4725 -1.3164
  145SAPE   H4Y15960   5.012   3.368  10.711 -0.4823 -0.8073  1.7384
  145SAPE   C3515961   4.812   3.345  10.608 -0.3443 -0.5150  0.4620
  145SAPE   H5X15962   4.726   3.414  10.594  0.8265  0.3916 -3.3318
  145SAPE   H5Y15963   4.774   3.256  10.663 -4.7261  0.6362 -0.2491
  145SAPE   C3615964   4.866   3.328  10.467  0.4220  0.0208  0.3228
  145SAPE   H6X15965   4.973   3.303  10.479  0.5373  0.0934 -0.4961
  145SAPE   H6Y15966   4.866   3.425  10.413 -0.2105  0.7714  1.6183
  145SAPE   C3715967   4.775   3.232  10.393  0.2209  0.1526 -0.0578
  145SAPE   H7X15968   4.667   3.258  10.396  0.2772  0.5042 -0.8655
  145SAPE   H7Y15969   4.801   3.132  10.433 -0.3832 -0.2166 -0.5698
  145SAPE   C3815970   4.808   3.219  10.241  0.1303 -0.0665 -0.0182
  145SAPE   H8X15971   4.911   3.177  10.244  0.3380  0.4596  0.4936
  145SAPE   H8Y15972   4.800   3.316  10.187 -1.7103  0.1366  0.5713
  145SAPE   C3915973   4.725   3.113  10.164 -0.1224  0.0494  0.0446
  145SAPE   H9X15974   4.617   3.140  10.162 -0.0035  0.4867 -1.5400
  145SAPE   H9Y15975   4.728   3.004  10.188  1.5373  0.4560  1.9785
  145SAPE  C31015976   4.755   3.117  10.011 -0.6440 -0.1364  0.4057
  145SAPE  H10X15977   4.860   3.081  10.003 -0.5314  0.1194  0.7260
  145SAPE  H10Y15978   4.750   3.211   9.951 -1.5091 -0.1847  0.3794
  145SAPE  C31115979   4.666   3.018   9.928 -0.4161 -0.0528 -0.5433
  145SAPE  H11X15980   4.557   3.041   9.924 -0.5001 -0.5323 -1.4203
  145SAPE  H11Y15981   4.669   2.928   9.993 -1.4187  1.3821  1.6330
  145SAPE  C31215982   4.724   2.976   9.795  0.1383  0.1243  0.2718
  145SAPE  H12X15983   4.829   2.940   9.802  0.2679  0.0472 -1.5952
  145SAPE  H12Y15984   4.717   3.060   9.722 -1.9674 -0.7781 -0.6224
  145SAPE  C31315985   4.631   2.864   9.731 -0.4016  0.0069  0.0294
  145SAPE  H13X15986   4.543   2.920   9.693 -0.2022 -0.7144 -1.5782
  145SAPE  H13Y15987   4.598   2.797   9.813  1.5550 -1.0914 -0.0205
  145SAPE  C31415988   4.686   2.796   9.610  0.8857  0.1489  0.3716
  145SAPE  H14X15989   4.630   2.700   9.603 -0.6762  1.0743 -0.7316
  145SAPE  H14Y15990   4.790   2.764   9.627  1.2038  0.7615 -0.3480
  145SAPE  C31515991   4.656   2.873   9.479 -0.0516 -0.0725  0.3020
  145SAPE  H15X15992   4.697   2.975   9.496 -0.4878  0.5589 -2.1436
  145SAPE  H15Y15993   4.548   2.894   9.459 -0.3005 -1.4689  0.1331
  145SAPE  C31615994   4.729   2.812   9.366  0.9144  0.2899 -0.2517
  145SAPE  H16X15995   4.685   2.711   9.351 -1.1132  1.0727  0.1159
  145SAPE  H16Y15996   4.837   2.792   9.385  0.6652 -0.6206  0.2245
  145SAPE  C31715997   4.731   2.885   9.233  0.6437 -0.1970 -0.5665
  145SAPE  H17X15998   4.744   2.995   9.244  2.4499 -0.2649 -1.6324
  145SAPE  H17Y15999   4.631   2.876   9.185 -1.1959  0.3530  2.8782
  145SAPE  C31816000   4.819   2.822   9.121 -0.6497  0.1798 -0.4847
  145SAPE  H18X16001   4.818   2.712   9.132 -2.8478  0.3135  1.5311
  145SAPE  H18Y16002   4.922   2.852   9.150 -0.1374 -1.2609 -0.7676
  145SAPE  H18Z16003   4.811   2.871   9.022  2.8051  0.9907 -0.4895
  146SAPE     N16004   2.556   2.765  10.809  0.0978 -0.1087 -0.0305
  146SAPE   HN116005   2.540   2.799  10.712  2.0107  1.3337  0.1065
  146SAPE   HN216006   2.468   2.728  10.852 -0.4091  0.3566 -0.6488
  146SAPE   HN316007   2.595   2.843  10.864 -0.1403  0.1466 -0.2218
  146SAPE   C1216008   2.650   2.646  10.811  0.2564 -0.3877 -0.2082
  146SAPE  H12A16009   2.596   2.558  10.770  0.2017 -0.4037 -0.1048
  146SAPE  H12B16010   2.679   2.630  10.917 -0.7237  0.7794  0.2605
  146SAPE   C1116011   2.782   2.669  10.734  0.5522 -0.0988  0.8687
  146SAPE  H11A16012   2.856   2.734  10.784  0.2654  0.8858  0.0651
  146SAPE  H11B16013   2.751   2.718  10.638  2.1838 -2.8637 -1.2142
  146SAPE     P16014   2.975   2.490  10.782  0.1855  0.6139  0.5802
  146SAPE   O1316015   2.969   2.514  10.929  0.4161 -0.0046  0.7237
  146SAPE   O1416016   3.002   2.351  10.736 -0.1254 -0.0200 -0.3812
  146SAPE   O1216017   2.838   2.541  10.715  0.3660  0.5990  0.1523
  146SAPE   O1116018   3.077   2.591  10.708  0.0865  0.3290  0.1399
  146SAPE    C116019   3.063   2.614  10.569 -0.1123  0.3847 -0.0658
  146SAPE    HA16020   3.030   2.524  10.514  2.3653 -0.2977 -0.5499
  146SAPE    HB16021   2.984   2.689  10.546 -0.0274  0.4538 -0.1303
  146SAPE    C216022   3.200   2.663  10.508  0.0534 -0.1967  0.0349
  146SAPE    HS16023   3.224   2.755  10.567 -0.6298  0.2268 -0.3352
  146SAPE   O2116024   3.183   2.695  10.369  0.0017  0.1372  0.4187
  146SAPE   C2116025   3.234   2.816  10.323  0.3479  0.0482 -0.0272
  146SAPE   O2216026   3.308   2.888  10.391 -0.3581  0.3393  0.0095
  146SAPE   C2216027   3.199   2.822  10.176 -0.8793 -0.1951 -0.1711
  146SAPE   H2R16028   3.226   2.729  10.121  3.6974  0.5801  0.3963
  146SAPE   H2S16029   3.090   2.839  10.165 -0.9546  0.0964  0.9139
  146SAPE    C316030   3.312   2.559  10.529 -0.3829  0.0429 -0.2942
  146SAPE    HX16031   3.293   2.511  10.627  0.5579 -0.1704 -0.2087
  146SAPE    HY16032   3.408   2.611  10.550 -0.7048  0.3941  0.3376
  146SAPE   O3116033   3.320   2.456  10.429 -0.2423 -0.2173 -0.4557
  146SAPE   C3116034   3.407   2.475  10.335 -0.4408 -0.3325 -0.4964
  146SAPE   O3216035   3.473   2.577  10.318  0.1886  0.3818  0.0436
  146SAPE   C3216036   3.430   2.351  10.268 -0.1635 -0.0565  0.8320
  146SAPE   H2X16037   3.338   2.301  10.231  1.1689 -1.0675 -1.3249
  146SAPE   H2Y16038   3.473   2.271  10.332 -0.6690 -1.0786 -0.0578
  146SAPE   C2316039   3.260   2.950  10.114  0.6200 -0.1022  0.3618
  146SAPE   H3R16040   3.256   3.043  10.174  0.7944  1.0572 -1.3557
  146SAPE   H3S16041   3.202   2.963  10.020  1.9316 -3.5534 -1.1352
  146SAPE   C2416042   3.403   2.938  10.065 -0.4552 -0.1782 -0.2565
  146SAPE   H4R16043   3.464   2.893  10.147 -2.1260 -2.0376  0.0540
  146SAPE   H4S16044   3.433   3.044  10.049  0.5369 -0.5389 -0.8462
  146SAPE   C2516045   3.424   2.850   9.946  0.3257 -0.5371 -0.0449
  146SAPE   H5R16046   3.461   2.748   9.962  1.5229 -0.0925  0.1203
  146SAPE   C2616047   3.426   2.904   9.822  0.2521 -0.7131  0.4192
  146SAPE   H6R16048   3.414   2.838   9.735  1.2372  0.4821 -0.6537
  146SAPE   C2716049   3.408   3.048   9.794 -0.2160 -1.0548 -0.3626
  146SAPE   H7R16050   3.365   3.103   9.880 -1.3838 -2.6844  0.1410
  146SAPE   H7S16051   3.320   3.052   9.725 -1.9495 -1.0932  1.7397
  146SAPE   C2816052   3.527   3.123   9.744 -0.2181 -0.2429 -0.1947
  146SAPE   H8R16053   3.584   3.194   9.805  2.6153 -0.9426 -1.8246
  146SAPE   C2916054   3.561   3.120   9.613 -0.9702  0.0774 -0.1306
  146SAPE   H9R16055   3.650   3.182   9.590 -0.3246 -0.2928  1.2683
  146SAPE  C21016056   3.508   3.042   9.497 -0.0794  0.2415 -0.2505
  146SAPE  H10R16057   3.404   3.072   9.474  0.3095 -0.0443 -2.6329
  146SAPE  H10S16058   3.496   2.934   9.521  0.8798  0.3521  0.8401
  146SAPE  C21116059   3.598   3.034   9.374  0.6377 -0.8839  0.3191
  146SAPE  H11R16060   3.684   2.967   9.381  1.2409  0.0336  2.3473
  146SAPE  C21216061   3.596   3.108   9.261  0.0456  0.7355 -0.7021
  146SAPE  H12R16062   3.672   3.095   9.183  0.0620  1.5730 -0.8362
  146SAPE  C21316063   3.496   3.210   9.231  0.5592 -0.1105  0.2019
  146SAPE  H13R16064   3.438   3.234   9.323  2.5986  2.3863  0.9595
  146SAPE  H13S16065   3.420   3.155   9.172  2.2818 -1.6166 -0.7032
  146SAPE  C21416066   3.545   3.341   9.176  0.3674 -0.8383 -0.1395
  146SAPE  H14R16067   3.620   3.390   9.240  0.4812  0.5370 -1.2911
  146SAPE  C21516068   3.508   3.405   9.064 -0.0789  0.4879 -0.4250
  146SAPE  H15R16069   3.562   3.499   9.046  0.8709 -0.2071 -1.2982
  146SAPE  C21616070   3.409   3.367   8.957 -1.1282 -0.1575 -0.2856
  146SAPE  H16R16071   3.331   3.446   8.955 -1.2167 -0.2617 -1.3168
  146SAPE  H16S16072   3.357   3.275   8.990 -1.5743  0.6672  1.4628
  146SAPE  C21716073   3.471   3.354   8.824 -0.2429 -0.2193 -0.1718
  146SAPE  H17R16074   3.542   3.269   8.830 -0.3776 -0.2808  0.8400
  146SAPE  H17S16075   3.528   3.445   8.795  0.9283 -0.6583  0.6901
  146SAPE  C21816076   3.360   3.334   8.719  0.2515 -0.3231 -0.5198
  146SAPE  H18R16077   3.290   3.253   8.748 -0.1882  0.3820  0.4183
  146SAPE  H18S16078   3.404   3.312   8.619  0.9788 -1.6707  0.0661
  146SAPE  C21916079   3.275   3.454   8.698  0.2462 -0.2157  0.0830
  146SAPE  H19R16080   3.334   3.549   8.698  1.0415 -0.6872 -1.4605
  146SAPE  H19S16081   3.201   3.468   8.780  2.0119  2.4557  1.3692
  146SAPE  C22016082   3.192   3.438   8.568 -0.5597 -0.3406  0.3804
  146SAPE  H20R16083   3.126   3.351   8.589 -1.7255  0.1545 -1.0233
  146SAPE  H20S16084   3.255   3.407   8.482 -1.0808 -0.0871 -0.1051
  146SAPE  H20T16085   3.132   3.528   8.543  0.5119  0.5555  0.9780
  146SAPE   C3316086   3.524   2.365  10.146  0.1678  0.7349  0.8517
  146SAPE   H3X16087   3.542   2.266  10.100  1.8034  1.4071 -0.0320
  146SAPE   H3Y16088   3.625   2.402  10.174  0.2939  0.6442  0.5234
  146SAPE   C3416089   3.469   2.446  10.032 -0.3702 -0.4687  0.3472
  146SAPE   H4X16090   3.471   2.556  10.044  0.9597 -0.6164  1.8532
  146SAPE   H4Y16091   3.364   2.416  10.015 -0.7384  1.3430 -0.8098
  146SAPE   C3516092   3.545   2.418   9.898 -0.1490 -0.2690 -0.1437
  146SAPE   H5X16093   3.538   2.309   9.878  0.6093 -1.0667  3.3223
  146SAPE   H5Y16094   3.653   2.426   9.924 -0.0179 -3.4323  0.6310
  146SAPE   C3616095   3.506   2.499   9.782  0.8030  0.6359  0.1375
  146SAPE   H6X16096   3.518   2.604   9.819 -1.4405  1.4978 -1.3858
  146SAPE   H6Y16097   3.400   2.484   9.750  1.1838  0.1484 -0.9409
  146SAPE   C3716098   3.598   2.472   9.659  0.9192  0.2979 -0.3173
  146SAPE   H7X16099   3.590   2.364   9.633 -0.6296  0.6121 -1.3201
  146SAPE   H7Y16100   3.706   2.483   9.682  1.1298  0.7473 -1.4224
  146SAPE   C3816101   3.562   2.566   9.535  0.0546  0.0464  0.2228
  146SAPE   H8X16102   3.556   2.670   9.573 -1.6686  0.0597 -0.0076
  146SAPE   H8Y16103   3.464   2.532   9.495  0.7830 -1.9401  0.0067
  146SAPE   C3916104   3.667   2.553   9.419 -0.3456 -0.4901 -0.3434
  146SAPE   H9X16105   3.668   2.444   9.398  1.1819 -0.6431  0.3807
  146SAPE   H9Y16106   3.769   2.581   9.454 -0.6219  2.0438 -1.3171
  146SAPE  C31016107   3.627   2.620   9.286  0.0635  0.0427  0.1217
  146SAPE  H10X16108   3.643   2.730   9.290  1.2577 -0.1574  1.7851
  146SAPE  H10Y16109   3.518   2.618   9.261 -0.1809 -3.7532  0.8253
  146SAPE  C31116110   3.707   2.567   9.169  0.0878  0.0514  0.1819
  146SAPE  H11X16111   3.677   2.462   9.151  2.0067 -1.0532  2.7599
  146SAPE  H11Y16112   3.816   2.556   9.184 -0.2333 -2.5084  1.1489
  146SAPE  C31216113   3.686   2.649   9.036  0.5827 -0.8187  0.4415
  146SAPE  H12X16114   3.582   2.650   8.999 -0.3693  0.2590  2.9605
  146SAPE  H12Y16115   3.737   2.593   8.954 -1.9220 -1.3107 -0.8606
  146SAPE  C31316116   3.746   2.785   9.051 -0.7318 -0.1940  0.2125
  146SAPE  H13X16117   3.854   2.773   9.073 -0.8127  0.0107  0.7256
  146SAPE  H13Y16118   3.703   2.850   9.130  2.5663  1.7176  0.5930
  146SAPE  C31416119   3.735   2.873   8.918  0.0559  0.2626  0.3968
  146SAPE  H14X16120   3.777   2.974   8.934  0.0848  0.2052  0.6805
  146SAPE  H14Y16121   3.626   2.879   8.898  0.0074 -1.9268 -0.2815
  146SAPE  C31516122   3.802   2.805   8.793  0.6470 -0.5592  0.3604
  146SAPE  H15X16123   3.743   2.714   8.769 -0.8934  0.1960  1.1426
  146SAPE  H15Y16124   3.906   2.780   8.825  1.4600  0.8457 -1.0309
  146SAPE  C31616125   3.817   2.897   8.675  0.9359  0.3724 -0.5560
  146SAPE  H16X16126   3.814   3.003   8.706  1.8409 -0.0851  1.2124
  146SAPE  H16Y16127   3.722   2.874   8.621  0.2070  0.4991  0.6309
  146SAPE  C31716128   3.936   2.869   8.584  0.4060  0.2175 -0.4328
  146SAPE  H17X16129   3.945   2.758   8.584  1.8826  0.2928  1.1043
  146SAPE  H17Y16130   4.025   2.921   8.625 -1.3860  0.7722  3.0658
  146SAPE  C31816131   3.914   2.914   8.438  0.4134  0.0425  0.5181
  146SAPE  H18X16132   3.833   2.858   8.386  0.6526 -1.7738  2.0029
  146SAPE  H18Y16133   4.005   2.916   8.375 -1.7869  0.9129 -2.8990
  146SAPE  H18Z16134   3.893   3.024   8.439  0.2567  0.1112 -2.4061
  147SAPE     N16135   1.656   1.275   6.055  0.1901 -0.2669  0.2903
  147SAPE   HN116136   1.602   1.193   6.089 -0.4323 -0.0070 -0.0643
  147SAPE   HN216137   1.676   1.262   5.954  1.9381  0.1655  0.5452
  147SAPE   HN316138   1.745   1.277   6.109  0.7738 -0.3227 -0.6552
  147SAPE   C1216139   1.576   1.392   6.091  0.5605  0.4760  0.0948
  147SAPE  H12A16140   1.487   1.397   6.025 -2.0108  0.9025  3.2881
  147SAPE  H12B16141   1.640   1.482   6.081 -0.4156  1.5748  2.7009
  147SAPE   C1116142   1.527   1.381   6.238 -0.0231 -0.3528  0.3006
  147SAPE  H11A16143   1.461   1.297   6.267 -0.3092  0.1649  1.1880
  147SAPE  H11B16144   1.457   1.467   6.246  0.1767 -0.0087 -1.2358
  147SAPE     P16145   1.685   1.505   6.407 -0.2119 -0.2430 -0.3073
  147SAPE   O1316146   1.738   1.453   6.534  0.0463  0.1960  0.7779
  147SAPE   O1416147   1.780   1.574   6.316 -0.3539  0.0477  0.2290
  147SAPE   O1216148   1.637   1.378   6.337  0.0605  0.3361 -0.0867
  147SAPE   O1116149   1.561   1.606   6.423  0.7787  0.1305  0.1362
  147SAPE    C116150   1.531   1.659   6.554  0.8598 -0.1608 -1.0687
  147SAPE    HA16151   1.616   1.722   6.586 -0.5068  1.5088 -0.5795
  147SAPE    HB16152   1.449   1.732   6.538  0.5134 -0.2407  0.2466
  147SAPE    C216153   1.482   1.559   6.664  0.7077 -0.3917  0.4839
  147SAPE    HS16154   1.570   1.502   6.700  1.7445  0.7417 -0.1658
  147SAPE   O2116155   1.377   1.476   6.604  0.1072  0.2939 -0.3573
  147SAPE   C2116156   1.392   1.348   6.621 -0.4108 -0.1766 -0.0362
  147SAPE   O2216157   1.483   1.298   6.691 -0.6716  0.8256  0.5943
  147SAPE   C2216158   1.280   1.276   6.555 -0.4204 -0.3027 -0.2650
  147SAPE   H2R16159   1.187   1.335   6.542  1.4331  3.0901  0.4470
  147SAPE   H2S16160   1.326   1.232   6.464  1.8994 -0.2491  0.8090
  147SAPE    C316161   1.433   1.638   6.787  0.2809  0.5689 -0.0727
  147SAPE    HX16162   1.342   1.695   6.757  1.0157  0.8716 -1.7975
  147SAPE    HY16163   1.500   1.716   6.830  0.3558 -0.2191  1.3193
  147SAPE   O3116164   1.400   1.543   6.890 -0.7316 -0.3692 -0.5033
  147SAPE   C3116165   1.495   1.483   6.960 -0.2212  0.1107  0.4746
  147SAPE   O3216166   1.614   1.511   6.958  0.1082  0.4394 -0.0777
  147SAPE   C3216167   1.440   1.375   7.057  0.6017 -0.4659 -0.0526
  147SAPE   H2X16168   1.330   1.382   7.044  0.6544 -1.1373 -0.9871
  147SAPE   H2Y16169   1.462   1.412   7.159  1.1276  2.3208 -1.0919
  147SAPE   C2316170   1.237   1.157   6.640  0.2802 -0.6737  0.1813
  147SAPE   H3R16171   1.316   1.099   6.691 -1.1314 -2.7008  0.1720
  147SAPE   H3S16172   1.201   1.087   6.562 -0.9827  0.3266 -0.1732
  147SAPE   C2416173   1.132   1.196   6.744  0.3814  0.8076  0.7549
  147SAPE   H4R16174   1.048   1.248   6.694 -0.1912 -0.6065  0.1856
  147SAPE   H4S16175   1.174   1.260   6.824  2.3635 -0.1722  0.5642
  147SAPE   C2516176   1.074   1.063   6.786 -0.0414 -0.1508 -0.5729
  147SAPE   H5R16177   1.017   1.009   6.710  0.4892 -0.6103 -0.6488
  147SAPE   C2616178   1.096   1.003   6.907  0.1028 -1.5356 -0.1250
  147SAPE   H6R16179   1.052   0.902   6.915 -1.2498 -1.0697 -1.1084
  147SAPE   C2716180   1.174   1.050   7.026  0.3690 -1.2465 -0.3032
  147SAPE   H7R16181   1.104   1.089   7.103  1.6388 -0.7281  0.6282
  147SAPE   H7S16182   1.232   1.139   6.996 -1.2492 -0.3691 -0.9451
  147SAPE   C2816183   1.272   0.948   7.083  0.0718 -0.3593 -0.4246
  147SAPE   H8R16184   1.347   0.903   7.017 -1.3491 -0.7529 -1.8378
  147SAPE   C2916185   1.286   0.928   7.215 -0.0435  0.3799  0.0188
  147SAPE   H9R16186   1.356   0.850   7.248  0.1292  0.6929  0.4139
  147SAPE  C21016187   1.209   0.982   7.337 -0.4912 -0.0901  0.4566
  147SAPE  H10R16188   1.152   0.890   7.360  0.8785 -1.1538 -0.2937
  147SAPE  H10S16189   1.135   1.060   7.308  0.8477  0.3812 -2.0163
  147SAPE  C21116190   1.304   1.021   7.451 -0.1434 -0.0494 -0.5265
  147SAPE  H11R16191   1.349   0.936   7.504 -0.7736  0.1643  0.3738
  147SAPE  C21216192   1.347   1.144   7.470 -0.2372 -0.6952  0.6687
  147SAPE  H12R16193   1.416   1.170   7.551  0.5131  0.8716 -0.4249
  147SAPE  C21316194   1.312   1.268   7.380  0.7412  0.2823  0.1464
  147SAPE  H13R16195   1.201   1.270   7.374  0.7822 -0.3588 -1.0249
  147SAPE  H13S16196   1.360   1.258   7.280  1.8289  3.6721  0.1990
  147SAPE  C21416197   1.358   1.402   7.431 -0.0249  0.3904 -0.4131
  147SAPE  H14R16198   1.464   1.425   7.410 -0.0322 -0.5978 -1.6252
  147SAPE  C21516199   1.300   1.474   7.516  0.3029 -0.6667  1.1431
  147SAPE  H15R16200   1.342   1.575   7.529 -0.3914 -0.1286 -0.4865
  147SAPE  C21616201   1.161   1.445   7.569  0.7611 -0.3290 -0.3806
  147SAPE  H16R16202   1.163   1.341   7.610 -0.5321  1.1618  3.9321
  147SAPE  H16S16203   1.085   1.444   7.488  0.1327 -2.1854  0.1759
  147SAPE  C21716204   1.125   1.547   7.679 -0.0805  0.4750 -0.0007
  147SAPE  H17R16205   1.015   1.540   7.695 -0.3454  0.6831 -1.6422
  147SAPE  H17S16206   1.141   1.652   7.645  0.0617  1.1139  1.8888
  147SAPE  C21816207   1.211   1.523   7.806 -0.3243 -0.0175  0.3579
  147SAPE  H18R16208   1.320   1.533   7.792 -0.3615  2.2994  1.2535
  147SAPE  H18S16209   1.191   1.417   7.831 -1.3306  0.0849  0.0377
  147SAPE  C21916210   1.171   1.602   7.933 -0.2035 -0.1325 -0.2259
  147SAPE  H19R16211   1.160   1.707   7.897  0.9123 -0.0022 -0.2147
  147SAPE  H19S16212   1.245   1.595   8.015 -1.4879  1.2171  1.0969
  147SAPE  C22016213   1.033   1.561   7.986 -0.0158  0.4323 -0.1994
  147SAPE  H20R16214   1.004   1.618   8.077  1.4301 -1.2435  1.3538
  147SAPE  H20S16215   1.036   1.457   8.024  1.8970  0.3893 -0.3994
  147SAPE  H20T16216   0.959   1.572   7.904  1.0124  2.4076 -0.9366
  147SAPE   C3316217   1.505   1.239   7.038 -0.4889 -0.2940 -0.3270
  147SAPE   H3X16218   1.520   1.214   6.931 -0.3795 -2.8552  0.2197
  147SAPE   H3Y16219   1.442   1.157   7.077 -0.6323  0.0485  0.1715
  147SAPE   C3416220   1.654   1.228   7.089 -0.0959 -0.0529 -0.8076
  147SAPE   H4X16221   1.722   1.297   7.035  0.4288 -0.5282 -0.7623
  147SAPE   H4Y16222   1.689   1.126   7.062 -0.2373 -0.9791  2.1319
  147SAPE   C3516223   1.659   1.242   7.245  0.6669  0.2835 -0.1827
  147SAPE   H5X16224   1.581   1.181   7.297  1.4515  0.5377  1.3676
  147SAPE   H5Y16225   1.618   1.341   7.273  3.0286  0.1457  4.9041
  147SAPE   C3616226   1.802   1.232   7.311 -0.1299 -0.3446  0.8799
  147SAPE   H6X16227   1.864   1.316   7.275 -0.9163 -0.7661 -1.6221
  147SAPE   H6Y16228   1.851   1.139   7.275 -1.8355 -0.6466 -0.8270
  147SAPE   C3716229   1.805   1.243   7.461  0.2652 -0.1584  0.0919
  147SAPE   H7X16230   1.754   1.157   7.510 -0.7750  0.5084  0.2393
  147SAPE   H7Y16231   1.741   1.327   7.498  0.9598 -0.5098  2.2793
  147SAPE   C3816232   1.951   1.255   7.515  0.4759 -0.1836  0.1902
  147SAPE   H8X16233   2.009   1.332   7.459  0.1705 -0.9350 -1.1958
  147SAPE   H8Y16234   2.005   1.160   7.497  0.0564 -0.2716 -0.6014
  147SAPE   C3916235   1.971   1.292   7.665 -0.2406 -0.7260 -0.1897
  147SAPE   H9X16236   1.912   1.385   7.679  1.8064  1.0957 -2.6144
  147SAPE   H9Y16237   2.080   1.306   7.680 -0.5304  0.7122  0.7195
  147SAPE  C31016238   1.926   1.191   7.767 -0.0172 -0.4708  0.3173
  147SAPE  H10X16239   1.995   1.105   7.760 -0.5287 -0.8657  0.0381
  147SAPE  H10Y16240   1.830   1.145   7.736  1.5867 -2.8413 -1.4551
  147SAPE  C31116241   1.919   1.250   7.910  0.1607  0.1345 -0.7080
  147SAPE  H11X16242   1.886   1.164   7.973 -1.5257  2.8724  2.4302
  147SAPE  H11Y16243   1.830   1.316   7.919  0.1808  0.2928 -1.5389
  147SAPE  C31216244   2.046   1.294   7.970 -0.0620 -0.4992  1.1646
  147SAPE  H12X16245   2.074   1.387   7.916  0.3393 -1.8267 -1.0349
  147SAPE  H12Y16246   2.130   1.222   7.955  2.4076  2.8103 -2.9352
  147SAPE  C31316247   2.030   1.319   8.121  0.0959 -0.3772  0.1881
  147SAPE  H13X16248   2.001   1.224   8.172  0.1481 -0.5944 -0.1764
  147SAPE  H13Y16249   1.950   1.394   8.134  1.4048  1.0828  0.0351
  147SAPE  C31416250   2.155   1.383   8.180 -0.6397  0.4122  0.0363
  147SAPE  H14X16251   2.173   1.471   8.115  0.1500 -0.9051 -1.6073
  147SAPE  H14Y16252   2.243   1.320   8.154 -1.3203 -0.1899 -0.8631
  147SAPE  C31516253   2.152   1.419   8.328 -0.2258  1.0805  0.2413
  147SAPE  H15X16254   2.256   1.434   8.367  0.1704 -0.5851 -0.1143
  147SAPE  H15Y16255   2.101   1.333   8.376  0.2225 -0.2620 -1.5882
  147SAPE  C31616256   2.080   1.548   8.364  0.2811 -0.2259  0.3647
  147SAPE  H16X16257   1.977   1.544   8.321  0.3534 -0.8770  0.2554
  147SAPE  H16Y16258   2.130   1.633   8.312 -0.4639  1.1956  1.8681
  147SAPE  C31716259   2.091   1.577   8.510 -0.5098 -0.4301  0.7365
  147SAPE  H17X16260   2.014   1.655   8.531 -1.6032 -1.0665 -0.7249
  147SAPE  H17Y16261   2.192   1.620   8.529 -1.3706  1.8538  0.5724
  147SAPE  C31816262   2.065   1.460   8.608  0.0422 -0.0243  0.0497
  147SAPE  H18X16263   2.135   1.374   8.602 -1.9664 -1.6614 -1.9118
  147SAPE  H18Y16264   1.963   1.422   8.584  0.0450  0.4199 -0.7116
  147SAPE  H18Z16265   2.063   1.505   8.709  0.3717  1.0732 -0.4287
  148SAPE     N16266   0.629   4.765   6.439 -0.0041 -0.7343 -0.2029
  148SAPE   HN116267   0.730   4.741   6.430  0.0244 -0.8085  0.2787
  148SAPE   HN216268   0.567   4.687   6.408 -1.0571  0.4067 -1.0652
  148SAPE   HN316269   0.609   4.841   6.371 -1.6643 -2.4355 -1.7339
  148SAPE   C1216270   0.607   4.800   6.584 -0.1635 -0.5713  0.3068
  148SAPE  H12A16271   0.658   4.895   6.609  0.9564 -0.8327 -0.8701
  148SAPE  H12B16272   0.646   4.720   6.650  0.9039 -1.3481 -1.1976
  148SAPE   C1116273   0.460   4.835   6.603 -0.1674  0.2073  0.6748
  148SAPE  H11A16274   0.444   4.852   6.711  1.0892 -3.5535  1.5578
  148SAPE  H11B16275   0.401   4.746   6.574 -1.1779  1.0140  0.1513
  148SAPE     P16276   0.339   5.067   6.564  0.2802  0.2423  0.1245
  148SAPE   O1316277   0.417   5.186   6.558 -0.8344  0.6199  1.1222
  148SAPE   O1416278   0.209   5.082   6.496 -0.3477  0.2526  0.4031
  148SAPE   O1216279   0.412   4.934   6.513 -0.4070  0.2559 -0.4624
  148SAPE   O1116280   0.310   5.030   6.719 -0.1655 -0.0147 -0.0417
  148SAPE    C116281   0.261   5.133   6.804  0.0489  0.2252 -0.0534
  148SAPE    HA16282   0.243   5.229   6.751 -0.1365 -0.8687 -2.0696
  148SAPE    HB16283   0.163   5.102   6.845 -1.2651  2.7726 -1.0440
  148SAPE    C216284   0.359   5.167   6.920 -0.5991  0.9064 -0.6463
  148SAPE    HS16285   0.454   5.202   6.874  1.3327 -3.1174 -0.1281
  148SAPE   O2116286   0.385   5.050   7.001 -0.3382 -0.4230 -0.2356
  148SAPE   C2116287   0.505   4.999   6.988 -0.4923 -0.3264  0.1835
  148SAPE   O2216288   0.593   5.032   6.907 -0.1619  0.1034 -0.1385
  148SAPE   C2216289   0.526   4.881   7.093  0.0227  0.0634  0.5019
  148SAPE   H2R16290   0.422   4.852   7.122 -0.2358 -1.4602 -1.7260
  148SAPE   H2S16291   0.574   4.802   7.032 -0.3036 -1.6775  2.3892
  148SAPE    C316292   0.287   5.268   7.019 -0.2408 -0.3183 -0.4082
  148SAPE    HX16293   0.205   5.206   7.063 -1.1068  0.5398 -0.7874
  148SAPE    HY16294   0.255   5.350   6.952 -1.0943 -0.6203 -0.3805
  148SAPE   O3116295   0.377   5.324   7.116  0.3352  0.1383 -0.8169
  148SAPE   C3116296   0.312   5.395   7.203 -0.3651 -0.0426  0.1758
  148SAPE   O3216297   0.193   5.420   7.202 -0.2428 -0.2641  0.4847
  148SAPE   C3216298   0.400   5.461   7.308  0.2893  0.3069  0.1657
  148SAPE   H2X16299   0.344   5.554   7.333  2.0100  1.6692 -0.8411
  148SAPE   H2Y16300   0.495   5.484   7.257 -1.3776 -0.3323 -3.5666
  148SAPE   C2316301   0.614   4.910   7.220  0.6927 -0.1562 -0.9236
  148SAPE   H3R16302   0.717   4.943   7.194  0.7448  1.7789  1.4048
  148SAPE   H3S16303   0.632   4.818   7.280  0.8174  0.1244 -0.5343
  148SAPE   C2416304   0.563   5.010   7.325  0.0291  0.3545 -0.0445
  148SAPE   H4R16305   0.477   4.953   7.366  0.4994 -0.0941  0.3267
  148SAPE   H4S16306   0.518   5.097   7.273  0.0119 -0.1060 -0.8293
  148SAPE   C2516307   0.665   5.046   7.434  0.5241 -0.5889 -1.0651
  148SAPE   H5R16308   0.735   5.126   7.407  1.4336 -0.5019  1.3015
  148SAPE   C2616309   0.669   4.999   7.559 -0.0051  0.5660 -1.0235
  148SAPE   H6R16310   0.744   5.038   7.629  0.1442 -0.5689 -0.5347
  148SAPE   C2716311   0.578   4.911   7.627  0.1120  0.4451  0.1821
  148SAPE   H7R16312   0.630   4.819   7.660 -0.6349  0.8116  2.5993
  148SAPE   H7S16313   0.493   4.878   7.564 -0.5084  1.7553  0.2986
  148SAPE   C2816314   0.528   4.976   7.757  0.3614  0.1913  0.1735
  148SAPE   H8R16315   0.475   5.069   7.730 -0.5947 -0.7916 -1.5154
  148SAPE   C2916316   0.526   4.934   7.882 -0.3783  0.1821 -0.0697
  148SAPE   H9R16317   0.496   4.995   7.968  0.4623  3.0873 -1.6744
  148SAPE  C21016318   0.592   4.808   7.921 -0.2668  0.7353 -0.2740
  148SAPE  H10R16319   0.676   4.778   7.856 -0.1831  0.1330  0.1025
  148SAPE  H10S16320   0.513   4.732   7.902  0.9655 -0.6754  0.1379
  148SAPE  C21116321   0.615   4.811   8.069  0.2828  0.4743 -0.7899
  148SAPE  H11R16322   0.531   4.799   8.139  2.9095 -2.0116  2.1872
  148SAPE  C21216323   0.739   4.844   8.120  0.4261  0.9310 -0.1750
  148SAPE  H12R16324   0.758   4.838   8.228 -1.6498 -0.0957  0.1769
  148SAPE  C21316325   0.866   4.867   8.049 -0.6902 -0.0662 -0.5656
  148SAPE  H13R16326   0.859   4.867   7.939  0.3122  0.7138 -0.6452
  148SAPE  H13S16327   0.925   4.774   8.068 -2.6029 -0.9738  1.4627
  148SAPE  C21416328   0.939   4.981   8.103 -1.0364  0.1575 -0.3265
  148SAPE  H14R16329   0.881   5.074   8.101 -0.4883  0.5047 -0.4995
  148SAPE  C21516330   1.063   4.992   8.154  0.5205  0.5321  0.0666
  148SAPE  H15R16331   1.089   5.096   8.178 -0.4239  0.9274 -0.5465
  148SAPE  C21616332   1.161   4.878   8.168 -0.0009  0.2261 -0.3106
  148SAPE  H16R16333   1.136   4.804   8.090  3.1392 -0.1971 -1.0778
  148SAPE  H16S16334   1.138   4.821   8.260  0.1441 -0.1437 -0.5032
  148SAPE  C21716335   1.313   4.896   8.151  0.4600 -0.3947  0.5398
  148SAPE  H17R16336   1.343   4.944   8.055 -2.9507  0.0305 -0.4240
  148SAPE  H17S16337   1.356   4.794   8.142 -2.1885 -1.5014 -0.6412
  148SAPE  C21816338   1.379   4.977   8.269  0.3253 -0.2186 -0.5369
  148SAPE  H18R16339   1.350   4.926   8.363 -2.8431  1.3160 -0.5374
  148SAPE  H18S16340   1.338   5.081   8.273  0.7224 -0.0651 -0.4736
  148SAPE  C21916341   1.527   4.984   8.256 -0.5781 -0.1695 -0.5719
  148SAPE  H19R16342   1.571   4.886   8.283  3.0634  1.4498  0.0319
  148SAPE  H19S16343   1.572   5.056   8.328 -1.5915  2.0076 -2.0261
  148SAPE  C22016344   1.578   5.014   8.119  0.3716  0.2475  0.1620
  148SAPE  H20R16345   1.531   5.107   8.079 -1.5388  0.2546  2.2200
  148SAPE  H20S16346   1.557   4.929   8.051  0.5658  1.1684 -1.0838
  148SAPE  H20T16347   1.687   5.035   8.118  0.3703  0.2601  0.2542
  148SAPE   C3316348   0.420   5.371   7.433 -0.3228  0.7856 -0.8214
  148SAPE   H3X16349   0.474   5.277   7.409 -0.1702  0.5281  0.4372
  148SAPE   H3Y16350   0.319   5.337   7.465  0.5069 -0.5099  0.5596
  148SAPE   C3416351   0.495   5.441   7.547  0.4611 -0.1850 -0.0184
  148SAPE   H4X16352   0.428   5.526   7.575  1.6129  1.9102 -3.1074
  148SAPE   H4Y16353   0.595   5.471   7.509  0.3793 -1.2892 -1.1525
  148SAPE   C3516354   0.509   5.347   7.670 -0.4707 -0.5632  0.0486
  148SAPE   H5X16355   0.605   5.377   7.718 -0.0203 -1.5427 -0.2137
  148SAPE   H5Y16356   0.527   5.241   7.643 -1.2419 -0.9146  0.8255
  148SAPE   C3616357   0.395   5.371   7.773  0.0463  0.3909 -0.6381
  148SAPE   H6X16358   0.302   5.319   7.739 -0.4144  0.2933  0.6980
  148SAPE   H6Y16359   0.366   5.478   7.769 -1.5152 -0.0446 -3.7657
  148SAPE   C3716360   0.417   5.316   7.914  0.0085 -0.0289  0.2831
  148SAPE   H7X16361   0.432   5.206   7.910  0.7054  0.0414  0.7873
  148SAPE   H7Y16362   0.322   5.328   7.970 -1.1105 -1.2986 -1.2133
  148SAPE   C3816363   0.518   5.378   8.001 -0.7002  0.5324 -0.9221
  148SAPE   H8X16364   0.466   5.455   8.062  0.6391 -0.1112  1.1588
  148SAPE   H8Y16365   0.602   5.404   7.933  0.7310 -0.1792  0.4985
  148SAPE   C3916366   0.581   5.276   8.106  0.0892  0.2010  0.9264
  148SAPE   H9X16367   0.679   5.320   8.134  0.7565 -0.3946 -0.3863
  148SAPE   H9Y16368   0.607   5.188   8.044 -0.8435  2.2202 -2.5546
  148SAPE  C31016369   0.497   5.256   8.236  0.0496 -0.0904  0.2718
  148SAPE  H10X16370   0.392   5.271   8.202  0.6749  1.8030 -1.0444
  148SAPE  H10Y16371   0.514   5.339   8.308 -1.5585 -2.5426  3.7333
  148SAPE  C31116372   0.533   5.125   8.310 -0.3859  0.3531 -0.5289
  148SAPE  H11X16373   0.643   5.115   8.314 -0.4163 -1.7612 -2.6094
  148SAPE  H11Y16374   0.499   5.038   8.249 -2.4884  0.8114 -0.0965
  148SAPE  C31216375   0.491   5.100   8.455 -0.1603  0.0906  0.0592
  148SAPE  H12X16376   0.380   5.097   8.459 -0.1820  0.4089 -0.2608
  148SAPE  H12Y16377   0.518   5.185   8.521  1.3731 -0.1128 -0.2543
  148SAPE  C31316378   0.540   4.973   8.518 -0.2992  0.2350  1.2788
  148SAPE  H13X16379   0.536   4.889   8.445 -1.5318  1.9694 -0.7372
  148SAPE  H13Y16380   0.484   4.952   8.612  0.0115 -1.4045  1.1330
  148SAPE  C31416381   0.680   4.994   8.577  0.6010 -0.4111 -0.7223
  148SAPE  H14X16382   0.676   5.068   8.660  1.0763 -2.4572  1.2104
  148SAPE  H14Y16383   0.753   5.025   8.499  0.1045  2.0278 -0.2841
  148SAPE  C31516384   0.730   4.866   8.642  0.9114 -0.3039 -0.3912
  148SAPE  H15X16385   0.728   4.787   8.564 -2.3951 -0.3605 -0.3875
  148SAPE  H15Y16386   0.661   4.836   8.724  0.6658 -0.9140 -0.8183
  148SAPE  C31616387   0.875   4.875   8.693  0.2267  0.7719 -0.2341
  148SAPE  H16X16388   0.866   4.931   8.788 -0.0042  1.2489 -0.5323
  148SAPE  H16Y16389   0.948   4.916   8.621  1.0108 -2.7329 -1.6604
  148SAPE  C31716390   0.924   4.730   8.724 -0.0643 -0.2079 -0.3882
  148SAPE  H17X16391   0.936   4.688   8.621  0.8295  0.2817 -0.4980
  148SAPE  H17Y16392   0.850   4.671   8.782  2.8122 -3.8381 -0.0487
  148SAPE  C31816393   1.058   4.723   8.778  0.5082  0.6825 -0.2475
  148SAPE  H18X16394   1.104   4.622   8.773 -0.6720  0.0999  0.2118
  148SAPE  H18Y16395   1.075   4.757   8.883  0.4451  2.2189 -0.7148
  148SAPE  H18Z16396   1.121   4.798   8.726  3.1175 -2.0273 -1.2571
  149SAPE     N16397   5.612   6.552   6.527 -0.4192  0.2815  0.2144
  149SAPE   HN116398   5.562   6.523   6.441 -0.3875 -2.4482  1.0072
  149SAPE   HN216399   5.608   6.480   6.602  1.2493 -0.1394 -0.0512
  149SAPE   HN316400   5.544   6.620   6.567 -0.9416 -0.7954  1.2148
  149SAPE   C1216401   5.753   6.585   6.511 -0.4379 -0.2949 -0.0197
  149SAPE  H12A16402   5.766   6.664   6.433 -0.3241  2.8080  2.9156
  149SAPE  H12B16403   5.808   6.496   6.473  1.6653  1.3101 -0.9384
  149SAPE   C1116404   5.816   6.614   6.645 -0.3124 -0.2934  0.1564
  149SAPE  H11A16405   5.794   6.524   6.706 -0.8372  0.2017  0.7128
  149SAPE  H11B16406   5.764   6.704   6.684 -0.6255 -0.7097  0.7196
  149SAPE     P16407   6.048   6.517   6.663 -0.2934 -0.1156 -0.1974
  149SAPE   O1316408   5.999   6.394   6.609 -0.4091  0.3948  0.1502
  149SAPE   O1416409   6.192   6.540   6.624  0.6876 -0.3054  0.2175
  149SAPE   O1216410   5.958   6.645   6.618  0.2379 -0.1769 -0.4640
  149SAPE   O1116411   6.037   6.518   6.826 -0.3367 -0.1376 -0.4488
  149SAPE    C116412   6.106   6.617   6.906  0.3524 -0.0395 -0.6966
  149SAPE    HA16413   6.209   6.584   6.932 -0.3871 -0.6173  1.7643
  149SAPE    HB16414   6.123   6.708   6.845  1.0245 -1.6254 -3.0365
  149SAPE    C216415   6.031   6.649   7.034  0.2966  0.1852  0.7797
  149SAPE    HS16416   6.084   6.737   7.075 -0.0091  2.4913 -3.2645
  149SAPE   O2116417   6.034   6.535   7.122  0.1559  0.3987 -0.2246
  149SAPE   C2116418   6.051   6.560   7.252  0.4804 -0.0079 -0.4459
  149SAPE   O2216419   6.066   6.670   7.295  0.8376 -0.0863  0.2218
  149SAPE   C2216420   6.027   6.430   7.337  0.3789 -0.3852 -0.7193
  149SAPE   H2R16421   5.930   6.426   7.390 -0.0601  0.3082 -1.4545
  149SAPE   H2S16422   6.027   6.348   7.262  0.1505  0.2948 -1.4746
  149SAPE    C316423   5.884   6.694   7.020  0.4320  0.4201 -0.1341
  149SAPE    HX16424   5.833   6.607   6.973  0.7008  0.0130  0.3227
  149SAPE    HY16425   5.876   6.786   6.958  1.2833  0.8848  0.4105
  149SAPE   O3116426   5.816   6.721   7.149  0.2896 -0.4243  0.2194
  149SAPE   C3116427   5.827   6.846   7.197 -0.4537 -0.3393  0.4189
  149SAPE   O3216428   5.870   6.941   7.129 -0.1424 -0.2147  0.6057
  149SAPE   C3216429   5.800   6.866   7.344  0.1025  0.0307 -0.0605
  149SAPE   H2X16430   5.858   6.786   7.394  0.4191  0.3977  0.1634
  149SAPE   H2Y16431   5.692   6.849   7.364  0.2909  0.1148  1.0809
  149SAPE   C2316432   6.142   6.417   7.444 -0.7894  0.2636 -0.1086
  149SAPE   H3R16433   6.174   6.516   7.484  0.4221 -0.4497  0.7418
  149SAPE   H3S16434   6.232   6.378   7.392 -0.8224  0.9970 -0.7452
  149SAPE   C2416435   6.086   6.346   7.565 -0.1474 -0.3352  0.5106
  149SAPE   H4R16436   6.065   6.242   7.532 -0.1646  0.1899 -1.1857
  149SAPE   H4S16437   5.993   6.390   7.606  0.5766  0.5796  1.2197
  149SAPE   C2516438   6.185   6.335   7.678 -0.4898  0.5557 -0.2292
  149SAPE   H5R16439   6.288   6.308   7.650 -0.0090  1.2933  0.7539
  149SAPE   C2616440   6.162   6.346   7.809  0.4211  0.2826  0.2070
  149SAPE   H6R16441   6.245   6.362   7.881 -0.7601 -0.1850  1.7244
  149SAPE   C2716442   6.031   6.383   7.874  0.0584 -0.2132 -0.1817
  149SAPE   H7R16443   5.976   6.288   7.892 -0.6682  0.4688  1.3994
  149SAPE   H7S16444   5.967   6.447   7.811 -1.2390 -0.1211  1.1582
  149SAPE   C2816445   6.022   6.465   8.007  0.1391  1.2711 -0.6603
  149SAPE   H8R16446   6.111   6.460   8.071  2.0995 -0.3403 -3.2762
  149SAPE   C2916447   5.901   6.509   8.056  0.4019  0.0386  0.0159
  149SAPE   H9R16448   5.906   6.576   8.143  0.5129  0.3501 -0.2261
  149SAPE  C21016449   5.764   6.499   7.988  0.1774  0.2630 -0.4225
  149SAPE  H10R16450   5.696   6.473   8.072  0.4998  2.6992  0.6964
  149SAPE  H10S16451   5.744   6.407   7.929 -0.5345  0.0995  0.0660
  149SAPE  C21116452   5.716   6.629   7.917 -0.3176  0.2029  0.3708
  149SAPE  H11R16453   5.719   6.720   7.979 -0.0961 -0.0028  0.6669
  149SAPE  C21216454   5.676   6.641   7.791  0.0861 -0.6096  0.1540
  149SAPE  H12R16455   5.618   6.732   7.772  2.2693  0.3778 -2.5172
  149SAPE  C21316456   5.669   6.530   7.685 -0.1455  0.2710 -0.1139
  149SAPE  H13R16457   5.566   6.492   7.670  0.5433 -1.4724 -0.6175
  149SAPE  H13S16458   5.725   6.438   7.713  0.2961  0.6376  0.2152
  149SAPE  C21416459   5.724   6.573   7.552 -0.2767 -0.2823  0.8412
  149SAPE  H14R16460   5.824   6.618   7.555 -0.0704 -0.6769  0.1012
  149SAPE  C21516461   5.664   6.556   7.430  0.4231 -0.2284 -0.3322
  149SAPE  H15R16462   5.723   6.587   7.343 -1.0395  1.5630 -0.7554
  149SAPE  C21616463   5.527   6.502   7.394  0.3060 -0.0559 -0.3120
  149SAPE  H16R16464   5.467   6.456   7.475 -1.5269  0.0540 -1.5203
  149SAPE  H16S16465   5.542   6.439   7.304  3.1891 -0.0035  0.0486
  149SAPE  C21716466   5.442   6.621   7.339 -0.5661  0.2024  0.6833
  149SAPE  H17R16467   5.477   6.651   7.238  0.8382  2.2453  1.7180
  149SAPE  H17S16468   5.455   6.707   7.408 -1.1102  1.1384 -0.3566
  149SAPE  C21816469   5.293   6.589   7.309  0.7287  0.1547 -0.3671
  149SAPE  H18R16470   5.243   6.562   7.405 -0.8794  2.5201 -0.4599
  149SAPE  H18S16471   5.282   6.500   7.244  0.5808  0.7207 -1.1276
  149SAPE  C21916472   5.201   6.703   7.263  0.4935  0.0038 -0.2103
  149SAPE  H19R16473   5.257   6.767   7.193  0.1927  1.9772  1.2648
  149SAPE  H19S16474   5.172   6.758   7.355 -0.5977  1.8291 -1.6048
  149SAPE  C22016475   5.071   6.650   7.196  0.3390 -0.2261 -0.0743
  149SAPE  H20R16476   5.096   6.603   7.098  0.3929  0.7438 -0.5368
  149SAPE  H20S16477   4.999   6.733   7.178 -1.2829 -1.9425 -2.0189
  149SAPE  H20T16478   5.026   6.570   7.258 -0.3147  0.1614 -0.0384
  149SAPE   C3316479   5.852   6.999   7.392  0.5281  0.2774 -0.3197
  149SAPE   H3X16480   5.799   7.070   7.325  1.1920  0.2949 -0.8340
  149SAPE   H3Y16481   5.962   7.012   7.387  0.5037  0.4531 -0.4409
  149SAPE   C3416482   5.808   7.028   7.536 -0.5822  0.3196 -0.8733
  149SAPE   H4X16483   5.706   6.988   7.551 -0.2361  0.0227  0.9198
  149SAPE   H4Y16484   5.818   7.135   7.561 -2.0141  0.2603  0.0452
  149SAPE   C3516485   5.897   6.954   7.647  1.0205 -0.1403  0.3152
  149SAPE   H5X16486   6.000   6.995   7.642  0.4623  1.6657  2.1203
  149SAPE   H5Y16487   5.901   6.843   7.648 -1.8631 -0.3701 -1.9635
  149SAPE   C3616488   5.843   7.002   7.783  0.2813 -0.8983  0.1144
  149SAPE   H6X16489   5.742   6.959   7.795  0.4968 -1.2369  0.8138
  149SAPE   H6Y16490   5.838   7.113   7.784  1.6888 -0.7879  1.9155
  149SAPE   C3716491   5.940   6.949   7.894  0.6523 -1.1293 -0.0685
  149SAPE   H7X16492   6.047   6.947   7.866  1.2355 -1.4364  1.9904
  149SAPE   H7Y16493   5.903   6.846   7.914  0.1434 -0.8625  0.4003
  149SAPE   C3816494   5.919   7.035   8.029  0.3962  0.4195 -0.3034
  149SAPE   H8X16495   5.811   7.021   8.054  0.2731  1.0258 -0.4884
  149SAPE   H8Y16496   5.940   7.136   7.989 -2.3943  0.1918 -2.7620
  149SAPE   C3916497   6.016   6.990   8.133  0.1052  0.1307 -0.0814
  149SAPE   H9X16498   6.105   6.979   8.067 -0.9974 -1.8784 -1.3525
  149SAPE   H9Y16499   5.985   6.887   8.161  0.9701  0.0315  0.5727
  149SAPE  C31016500   6.033   7.077   8.256 -0.4946 -0.6667  0.0013
  149SAPE  H10X16501   5.936   7.105   8.304 -0.8537 -0.9012 -0.5861
  149SAPE  H10Y16502   6.088   7.171   8.231 -0.7523 -1.0646 -2.2527
  149SAPE  C31116503   6.107   7.008   8.371 -0.2765  0.5825 -0.5197
  149SAPE  H11X16504   6.202   6.961   8.337 -0.7711 -1.4257  0.6470
  149SAPE  H11Y16505   6.038   6.927   8.403 -2.6490  2.1888 -1.3108
  149SAPE  C31216506   6.130   7.099   8.494  0.1735  0.2365  0.0205
  149SAPE  H12X16507   6.040   7.164   8.500 -0.1358 -0.2458  0.9187
  149SAPE  H12Y16508   6.213   7.168   8.469  0.0252 -0.1452 -1.6274
  149SAPE  C31316509   6.142   7.006   8.622  0.2481 -0.4854 -0.1767
  149SAPE  H13X16510   6.228   6.940   8.598  0.1678 -0.4418 -0.5990
  149SAPE  H13Y16511   6.048   6.947   8.629 -0.3444  0.5314  0.6021
  149SAPE  C31416512   6.169   7.089   8.746  0.0902 -0.4575 -0.1512
  149SAPE  H14X16513   6.076   7.145   8.771 -1.8589 -3.1719 -0.7907
  149SAPE  H14Y16514   6.255   7.155   8.725  1.6383 -1.8277  1.5886
  149SAPE  C31516515   6.223   6.994   8.855 -0.1989 -0.0576 -1.1776
  149SAPE  H15X16516   6.263   7.064   8.932  0.1505 -0.7872 -0.6928
  149SAPE  H15Y16517   6.297   6.924   8.812 -1.5004 -1.4450 -1.2503
  149SAPE  C31616518   6.119   6.910   8.924  0.4745  0.0378  0.2485
  149SAPE  H16X16519   6.080   6.850   8.839 -0.5762  0.1343  0.6409
  149SAPE  H16Y16520   6.041   6.982   8.958  0.4795 -0.6694  1.8420
  149SAPE  C31716521   6.158   6.829   9.039 -0.5392  0.5339 -0.0913
  149SAPE  H17X16522   6.073   6.767   9.075 -0.2081  0.5907  0.8043
  149SAPE  H17Y16523   6.191   6.888   9.127 -1.3667 -0.3358  0.8304
  149SAPE  C31816524   6.268   6.725   9.018  0.0357 -0.2501 -0.6296
  149SAPE  H18X16525   6.371   6.766   9.030 -0.3967  1.9109 -3.2935
  149SAPE  H18Y16526   6.274   6.688   8.914  1.6388 -1.8555 -0.0270
  149SAPE  H18Z16527   6.253   6.638   9.085 -1.0868 -2.1082 -3.1370
  150SAPE     N16528   3.419   1.220   6.356  0.2637  0.7707  0.0089
  150SAPE   HN116529   3.489   1.166   6.301 -1.3686  2.2246 -3.7866
  150SAPE   HN216530   3.392   1.168   6.442  0.1869  1.6422  0.5169
  150SAPE   HN316531   3.330   1.224   6.303 -0.2358 -1.8061  0.5078
  150SAPE   C1216532   3.462   1.357   6.384  0.0890  0.2394 -0.5049
  150SAPE  H12A16533   3.371   1.412   6.417  0.0276  0.1175 -0.4671
  150SAPE  H12B16534   3.483   1.411   6.290  0.6755 -0.5731 -0.8490
  150SAPE   C1116535   3.581   1.358   6.480  0.0274  0.6079 -0.0398
  150SAPE  H11A16536   3.607   1.464   6.501  2.7051  0.4806 -2.2378
  150SAPE  H11B16537   3.668   1.323   6.421 -0.3368  0.5233 -0.5334
  150SAPE     P16538   3.496   1.322   6.726  0.1961  0.0608 -0.3496
  150SAPE   O1316539   3.395   1.424   6.695 -0.2609  0.0674  0.0795
  150SAPE   O1416540   3.451   1.202   6.798 -0.1111  0.0113  0.4935
  150SAPE   O1216541   3.573   1.275   6.595 -0.5382  0.0573  0.8520
  150SAPE   O1116542   3.603   1.395   6.822  0.3872  0.3007 -0.2032
  150SAPE    C116543   3.739   1.355   6.818 -0.2111  0.6895  0.1056
  150SAPE    HA16544   3.784   1.349   6.717  0.1659 -2.6258  0.3832
  150SAPE    HB16545   3.807   1.424   6.874  2.2187  0.5095 -2.3983
  150SAPE    C216546   3.768   1.216   6.871 -0.1723  1.0701 -0.2040
  150SAPE    HS16547   3.727   1.136   6.807 -1.0724  2.4555 -1.4184
  150SAPE   O2116548   3.719   1.214   7.003 -0.2681  0.4265  0.1611
  150SAPE   C2116549   3.659   1.098   7.041 -0.2146 -0.1106  0.4318
  150SAPE   O2216550   3.666   0.993   6.985 -0.3003  0.3722  0.4474
  150SAPE   C2216551   3.589   1.119   7.175 -0.1442 -0.7530  0.0738
  150SAPE   H2R16552   3.660   1.143   7.257  0.0867 -1.0343 -0.0454
  150SAPE   H2S16553   3.522   1.208   7.171  1.3839  0.7993  3.8012
  150SAPE    C316554   3.919   1.187   6.878 -0.2412 -0.1572  0.0748
  150SAPE    HX16555   3.964   1.273   6.933 -0.9121 -0.0306  0.4421
  150SAPE    HY16556   3.963   1.174   6.777  0.7839  0.3990  0.4323
  150SAPE   O3116557   3.956   1.071   6.950  0.1646  0.1777 -0.7719
  150SAPE   C3116558   4.086   1.047   6.960  0.1500  0.0304  0.0966
  150SAPE   O3216559   4.171   1.114   6.913  0.4481 -0.3349  0.3765
  150SAPE   C3216560   4.105   0.926   7.054 -0.2433  0.8768  0.5679
  150SAPE   H2X16561   4.126   0.834   6.996  0.3137  1.4970 -0.2309
  150SAPE   H2Y16562   4.015   0.915   7.119 -0.0357 -1.4429  0.5475
  150SAPE   C2316563   3.506   0.999   7.223  0.1381  0.2422 -0.5721
  150SAPE   H3R16564   3.457   0.951   7.135  2.3950  0.1338 -1.8735
  150SAPE   H3S16565   3.424   1.032   7.290  0.2543  1.4775 -1.0163
  150SAPE   C2416566   3.570   0.895   7.316 -0.1169 -0.0934 -0.1806
  150SAPE   H4R16567   3.494   0.832   7.367  0.2741 -0.1124  0.3825
  150SAPE   H4S16568   3.610   0.952   7.403 -0.7737  2.5483 -1.5134
  150SAPE   C2516569   3.670   0.823   7.239 -0.9094 -0.5982 -0.3332
  150SAPE   H5R16570   3.632   0.772   7.149 -0.1374  1.0934 -1.6659
  150SAPE   C2616571   3.805   0.811   7.274 -0.5741  0.0221 -0.6474
  150SAPE   H6R16572   3.868   0.740   7.219 -0.1912  0.3584 -0.6482
  150SAPE   C2716573   3.876   0.864   7.397  0.2898 -0.3871 -0.8077
  150SAPE   H7R16574   3.823   0.956   7.430 -0.9100 -0.9484 -1.1007
  150SAPE   H7S16575   3.985   0.882   7.390 -0.1212  2.9026 -0.6172
  150SAPE   C2816576   3.884   0.761   7.504 -0.0778  0.7182  0.6738
  150SAPE   H8R16577   3.918   0.664   7.463 -0.5869  1.5926 -2.0149
  150SAPE   C2916578   3.840   0.758   7.628  1.2281 -0.0055 -0.0033
  150SAPE   H9R16579   3.842   0.664   7.686 -2.2163  0.7607  1.6143
  150SAPE  C21016580   3.760   0.867   7.697 -0.5788 -0.2217 -1.1653
  150SAPE  H10R16581   3.681   0.815   7.756  0.8554  0.1001  1.2110
  150SAPE  H10S16582   3.715   0.940   7.627  1.2075  0.6931 -1.4445
  150SAPE  C21116583   3.850   0.951   7.784 -0.1048  0.5817 -0.8809
  150SAPE  H11R16584   3.942   0.988   7.735  0.6696 -0.4021 -0.1960
  150SAPE  C21216585   3.833   0.980   7.916  0.1875 -0.1316  0.2819
  150SAPE  H12R16586   3.911   1.040   7.965  1.6041  0.2861 -2.2950
  150SAPE  C21316587   3.716   0.945   8.008 -0.6361 -0.0225 -0.0174
  150SAPE  H13R16588   3.756   0.975   8.108 -1.2371 -0.0580  0.2410
  150SAPE  H13S16589   3.683   0.839   8.009 -0.0467 -0.2442 -1.6771
  150SAPE  C21416590   3.607   1.050   7.984  0.7756  0.0857 -0.2624
  150SAPE  H14R16591   3.545   1.022   7.897 -2.6894 -0.9518  2.2946
  150SAPE  C21516592   3.582   1.164   8.050  0.0239  0.0809  0.4468
  150SAPE  H15R16593   3.495   1.223   8.017 -0.5097 -0.2058  1.2789
  150SAPE  C21616594   3.649   1.218   8.172  0.1678 -0.5034 -0.2976
  150SAPE  H16R16595   3.759   1.204   8.170  0.1384 -2.2939  3.0300
  150SAPE  H16S16596   3.615   1.174   8.269 -2.2319 -1.3404 -1.4514
  150SAPE  C21716597   3.630   1.371   8.169 -0.2330 -0.7093 -0.6303
  150SAPE  H17R16598   3.624   1.417   8.068  1.5435  4.9511  1.4636
  150SAPE  H17S16599   3.721   1.425   8.201  0.3888 -1.6458 -0.7932
  150SAPE  C21816600   3.507   1.426   8.245  0.2726  0.2256 -0.8408
  150SAPE  H18R16601   3.423   1.362   8.211 -0.4129  1.3373 -1.2486
  150SAPE  H18S16602   3.490   1.526   8.202 -1.7648 -1.2227 -3.7400
  150SAPE  C21916603   3.512   1.404   8.392 -0.4902 -0.6774 -0.3246
  150SAPE  H19R16604   3.607   1.448   8.430 -1.2540  0.6333  0.1389
  150SAPE  H19S16605   3.524   1.294   8.401  2.2867 -0.4672 -0.7494
  150SAPE  C22016606   3.395   1.465   8.466 -0.4835  1.4434 -0.6823
  150SAPE  H20R16607   3.308   1.400   8.441  0.2027  0.4165 -0.4800
  150SAPE  H20S16608   3.391   1.576   8.462  0.0784  1.4645 -0.7342
  150SAPE  H20T16609   3.401   1.450   8.576  0.8237  1.3957 -0.7512
  150SAPE   C3316610   4.232   0.944   7.151  0.0938 -0.5079  0.2957
  150SAPE   H3X16611   4.327   0.971   7.101  0.2979  2.6896  2.0881
  150SAPE   H3Y16612   4.248   0.851   7.209 -1.2674  2.0115  5.2826
  150SAPE   C3416613   4.208   1.059   7.247  0.3401 -0.2876 -0.3694
  150SAPE   H4X16614   4.105   1.062   7.289 -0.0856  2.1549 -1.3613
  150SAPE   H4Y16615   4.228   1.159   7.202  2.7657  0.2265  1.6799
  150SAPE   C3516616   4.291   1.045   7.380 -0.5171  0.2635 -0.0781
  150SAPE   H5X16617   4.390   1.094   7.371  0.2190 -1.4278 -2.0215
  150SAPE   H5Y16618   4.302   0.936   7.395  1.5813  0.3825 -0.4987
  150SAPE   C3616619   4.214   1.108   7.497  0.2930 -0.2361  0.5090
  150SAPE   H6X16620   4.126   1.045   7.521 -1.9356  2.7944  0.8579
  150SAPE   H6Y16621   4.180   1.208   7.464  0.1236 -0.4251  0.1095
  150SAPE   C3716622   4.308   1.126   7.616 -0.0892 -0.0027  0.4574
  150SAPE   H7X16623   4.397   1.191   7.602 -0.5852  0.4632 -0.6408
  150SAPE   H7Y16624   4.353   1.026   7.637 -0.5822 -0.3179  0.0586
  150SAPE   C3816625   4.234   1.153   7.748 -0.2988 -0.3066  0.2166
  150SAPE   H8X16626   4.167   1.067   7.772 -1.6179  0.3839 -0.8560
  150SAPE   H8Y16627   4.170   1.242   7.734 -0.7048 -0.7748 -1.0280
  150SAPE   C3916628   4.336   1.161   7.868  0.4632  0.3485  0.6153
  150SAPE   H9X16629   4.392   1.254   7.843 -0.5988  0.5632 -1.1921
  150SAPE   H9Y16630   4.399   1.069   7.866  1.0888  0.7496  1.3705
  150SAPE  C31016631   4.263   1.187   8.005 -0.0584 -0.2149  0.2373
  150SAPE  H10X16632   4.193   1.273   7.995 -0.2648 -0.6598 -3.6522
  150SAPE  H10Y16633   4.340   1.208   8.082 -0.0420 -0.8427  0.3994
  150SAPE  C31116634   4.184   1.064   8.054  0.0807 -0.5877 -0.1555
  150SAPE  H11X16635   4.249   0.975   8.065 -0.9829 -1.3848 -0.0779
  150SAPE  H11Y16636   4.107   1.038   7.979  0.1114 -1.1994  0.0193
  150SAPE  C31216637   4.109   1.078   8.189  0.9952  0.5940  0.4362
  150SAPE  H12X16638   4.026   1.151   8.183 -0.6333 -1.1691  0.2777
  150SAPE  H12Y16639   4.186   1.100   8.266  1.5122 -0.4368  0.2413
  150SAPE  C31316640   4.060   0.935   8.232 -0.1899 -0.0379 -0.6216
  150SAPE  H13X16641   4.134   0.858   8.203 -0.3867 -0.2164 -0.6492
  150SAPE  H13Y16642   3.971   0.913   8.169  0.7081 -1.5114 -1.4362
  150SAPE  C31416643   4.023   0.932   8.379 -0.0609  0.0582  0.1454
  150SAPE  H14X16644   4.113   0.955   8.438  0.2311  0.6624 -0.5121
  150SAPE  H14Y16645   3.992   0.827   8.398  0.0525 -0.4856 -2.2423
  150SAPE  C31516646   3.924   1.040   8.421  0.2685 -0.2309  1.1729
  150SAPE  H15X16647   3.825   1.045   8.369  0.9116  0.2128 -0.0636
  150SAPE  H15Y16648   3.967   1.140   8.400  2.4954 -0.7746  2.8497
  150SAPE  C31616649   3.904   1.045   8.576 -0.5550  0.7622  0.0864
  150SAPE  H16X16650   3.997   1.060   8.634 -0.9691  1.6033  0.5536
  150SAPE  H16Y16651   3.857   0.948   8.603  1.9496 -0.8307 -0.9144
  150SAPE  C31716652   3.813   1.166   8.621 -0.6465  0.3637  0.3369
  150SAPE  H17X16653   3.706   1.152   8.593 -1.3962  1.8531  2.2488
  150SAPE  H17Y16654   3.852   1.249   8.557  0.7888 -2.2065 -2.3778
  150SAPE  C31816655   3.832   1.191   8.771 -0.1187 -0.5051  0.1239
  150SAPE  H18X16656   3.939   1.216   8.791  0.4157 -0.9212 -2.0049
  150SAPE  H18Y16657   3.787   1.109   8.830  1.1680 -0.9470  0.5215
  150SAPE  H18Z16658   3.773   1.279   8.805  1.2417  1.2394 -1.7664
  151SAPE     N16659   3.687   5.443   6.630 -0.2445 -0.0343  0.3506
  151SAPE   HN116660   3.748   5.415   6.710  2.6502 -0.3543 -1.8152
  151SAPE   HN216661   3.728   5.400   6.545 -0.4490 -0.8501  0.6542
  151SAPE   HN316662   3.695   5.546   6.623  0.4048 -0.1156 -0.1444
  151SAPE   C1216663   3.542   5.396   6.636 -0.3324 -0.8185 -0.3857
  151SAPE  H12A16664   3.490   5.430   6.544 -1.2989 -1.3105 -0.0460
  151SAPE  H12B16665   3.496   5.446   6.724 -0.9478 -1.3266 -0.4134
  151SAPE   C1116666   3.524   5.243   6.641 -0.7189 -0.0314  0.6835
  151SAPE  H11A16667   3.421   5.230   6.680 -1.0020  2.2873  0.7995
  151SAPE  H11B16668   3.586   5.198   6.722  1.6658 -0.7566 -1.3987
  151SAPE     P16669   3.619   5.053   6.480  0.0197 -0.2923 -0.2813
  151SAPE   O1316670   3.571   4.981   6.356 -0.3365 -0.5043 -0.8060
  151SAPE   O1416671   3.762   5.090   6.492 -0.2610 -0.4145  0.6896
  151SAPE   O1216672   3.532   5.182   6.508  0.2647  0.0820 -0.3773
  151SAPE   O1116673   3.577   4.969   6.611  0.1637  0.4147  0.4863
  151SAPE    C116674   3.469   4.878   6.610  0.2864 -0.6024  0.1729
  151SAPE    HA16675   3.425   4.863   6.509 -0.2898  1.5883  0.0362
  151SAPE    HB16676   3.509   4.776   6.629  0.0012 -1.1716 -1.9945
  151SAPE    C216677   3.342   4.916   6.691  0.2639  0.2154  0.5302
  151SAPE    HS16678   3.315   5.015   6.650  0.0186  0.4472  1.2289
  151SAPE   O2116679   3.376   4.915   6.831  0.1348 -0.2771  0.0241
  151SAPE   C2116680   3.362   5.019   6.904  0.4283 -0.2052 -0.7549
  151SAPE   O2216681   3.307   5.126   6.867  0.3915  0.6598 -0.1864
  151SAPE   C2216682   3.427   4.990   7.043  0.1963  0.4861 -0.2075
  151SAPE   H2R16683   3.368   4.918   7.104  1.2980 -0.2168  0.0741
  151SAPE   H2S16684   3.525   4.940   7.028 -0.2436 -0.9506  1.4255
  151SAPE    C316685   3.219   4.824   6.659  0.7414 -0.1724  0.4104
  151SAPE    HX16686   3.252   4.727   6.701 -1.1104 -0.2829  1.7414
  151SAPE    HY16687   3.202   4.816   6.550 -0.0657 -2.3492  0.6462
  151SAPE   O3116688   3.088   4.861   6.708 -0.6289 -0.5915  0.6364
  151SAPE   C3116689   3.006   4.757   6.716  0.7137 -0.9494  0.2107
  151SAPE   O3216690   3.028   4.638   6.703  0.2631  0.3744 -0.0666
  151SAPE   C3216691   2.863   4.809   6.747 -0.5887 -0.3269  0.2669
  151SAPE   H2X16692   2.796   4.789   6.661  0.4670 -2.4495 -0.1272
  151SAPE   H2Y16693   2.862   4.920   6.756  0.7576 -0.3891  1.8764
  151SAPE   C2316694   3.438   5.120   7.128  0.8865  0.0122  0.0683
  151SAPE   H3R16695   3.335   5.153   7.151  0.5181 -1.6984  1.0018
  151SAPE   H3S16696   3.491   5.198   7.067  0.6604 -0.7375 -1.1213
  151SAPE   C2416697   3.502   5.088   7.259 -0.3071  0.0504 -0.4490
  151SAPE   H4R16698   3.611   5.079   7.243  0.1704  0.5020  2.0897
  151SAPE   H4S16699   3.475   4.985   7.291  1.2020 -0.2011  0.0725
  151SAPE   C2516700   3.478   5.195   7.361  0.2475  0.0376 -0.4109
  151SAPE   H5R16701   3.496   5.300   7.332 -0.9930  0.4783  0.3639
  151SAPE   C2616702   3.433   5.175   7.486 -0.1997  0.2373 -0.6340
  151SAPE   H6R16703   3.412   5.266   7.546 -0.2924  2.3701 -3.6658
  151SAPE   C2716704   3.405   5.045   7.555  0.2136  0.3824  1.2962
  151SAPE   H7R16705   3.360   4.987   7.471  2.6094 -0.6330  0.6107
  151SAPE   H7S16706   3.332   5.062   7.637 -0.6666 -0.1052  0.6399
  151SAPE   C2816707   3.528   4.966   7.611  0.3540 -0.0848  0.2879
  151SAPE   H8R16708   3.561   4.880   7.552  1.2487  1.3181 -1.3650
  151SAPE   C2916709   3.583   4.993   7.729 -0.2257 -0.0102 -0.2019
  151SAPE   H9R16710   3.673   4.937   7.756 -1.6864 -1.2505  2.4458
  151SAPE  C21016711   3.560   5.103   7.825  0.1370 -0.2062  0.1261
  151SAPE  H10R16712   3.469   5.159   7.796  0.2996 -0.3077 -0.5812
  151SAPE  H10S16713   3.642   5.177   7.810  0.6507 -0.7685  0.1403
  151SAPE  C21116714   3.560   5.063   7.975 -0.1190 -0.1072  0.4133
  151SAPE  H11R16715   3.466   5.016   8.006 -0.6242  0.0012 -0.8782
  151SAPE  C21216716   3.647   5.104   8.067  0.2896  0.2951 -0.3551
  151SAPE  H12R16717   3.623   5.066   8.168 -1.6472  1.6660 -0.2449
  151SAPE  C21316718   3.771   5.190   8.048  0.2791 -0.1309 -0.4501
  151SAPE  H13R16719   3.743   5.278   8.109 -0.3315  1.5132 -2.9553
  151SAPE  H13S16720   3.781   5.226   7.944  0.0635  1.1684 -0.0328
  151SAPE  C21416721   3.902   5.140   8.105 -0.1788 -0.0611 -0.0434
  151SAPE  H14R16722   3.979   5.127   8.027 -0.7834 -1.3491 -0.4365
  151SAPE  C21516723   3.945   5.137   8.234  0.1017 -0.8745  0.2319
  151SAPE  H15R16724   4.046   5.100   8.257 -0.4322 -1.8346  1.0932
  151SAPE  C21616725   3.859   5.178   8.346  0.7997 -0.2665  0.1924
  151SAPE  H16R16726   3.772   5.109   8.345 -0.0276  0.7391 -0.9441
  151SAPE  H16S16727   3.815   5.280   8.345 -0.5971 -0.8361 -0.5326
  151SAPE  C21716728   3.944   5.160   8.473  0.4598  0.0397  0.9835
  151SAPE  H17R16729   4.051   5.184   8.460  0.3691 -0.0068  0.1282
  151SAPE  H17S16730   3.943   5.057   8.514 -0.7778 -1.0726 -1.5812
  151SAPE  C21816731   3.885   5.244   8.581  0.0858 -0.7242 -0.2244
  151SAPE  H18R16732   3.789   5.191   8.601 -1.2777  1.3115 -0.9589
  151SAPE  H18S16733   3.865   5.346   8.540  1.0984 -0.6570 -0.5706
  151SAPE  C21916734   3.973   5.258   8.706 -0.0991 -0.5146  1.0497
  151SAPE  H19R16735   3.899   5.299   8.779 -1.0860 -3.0162  1.5336
  151SAPE  H19S16736   4.062   5.321   8.684  0.1230 -0.3326  2.3856
  151SAPE  C22016737   4.018   5.131   8.767  0.2080  0.4024  0.2893
  151SAPE  H20R16738   4.116   5.088   8.736 -0.4615 -0.9684 -0.0136
  151SAPE  H20S16739   4.010   5.135   8.878 -2.0342 -2.0999  0.3099
  151SAPE  H20T16740   3.938   5.060   8.736 -0.7029  0.6470  1.9427
  151SAPE   C3316741   2.807   4.747   6.877  0.2289 -0.5422  0.5042
  151SAPE   H3X16742   2.825   4.637   6.872 -0.5932 -0.8536  3.0745
  151SAPE   H3Y16743   2.699   4.767   6.894 -0.1496  0.3507 -2.3597
  151SAPE   C3416744   2.892   4.784   7.003  0.0335  0.3780 -0.0874
  151SAPE   H4X16745   2.923   4.891   6.993 -0.9397  0.6451 -0.3755
  151SAPE   H4Y16746   2.989   4.732   6.988  0.7468  1.1424  1.6720
  151SAPE   C3516747   2.829   4.748   7.137 -0.2697  0.6190 -0.6263
  151SAPE   H5X16748   2.792   4.644   7.128  0.0487  0.4531 -0.0414
  151SAPE   H5Y16749   2.733   4.804   7.138 -1.5957 -1.3389 -3.4983
  151SAPE   C3616750   2.918   4.787   7.255  0.8065  0.4040 -0.2935
  151SAPE   H6X16751   2.944   4.895   7.242  0.0697  0.8853  1.8125
  151SAPE   H6Y16752   3.012   4.728   7.253  0.2861 -0.4364 -0.2151
  151SAPE   C3716753   2.833   4.779   7.382  0.7178 -0.6383  0.2670
  151SAPE   H7X16754   2.906   4.810   7.459 -1.8552 -0.2744  2.6896
  151SAPE   H7Y16755   2.791   4.679   7.404  1.4960 -0.8848  0.6496
  151SAPE   C3816756   2.708   4.882   7.384 -0.3055 -0.0851  0.5317
  151SAPE   H8X16757   2.619   4.839   7.332  0.1642 -0.8660  0.3575
  151SAPE   H8Y16758   2.738   4.976   7.332 -2.1606 -0.5317 -1.4819
  151SAPE   C3916759   2.647   4.925   7.520 -0.2322  0.4564  0.4511
  151SAPE   H9X16760   2.566   4.857   7.553  1.1326 -0.0126  3.1282
  151SAPE   H9Y16761   2.595   5.021   7.496  0.4371  0.5047 -0.9059
  151SAPE  C31016762   2.745   4.934   7.636  0.5855 -0.2256 -0.8912
  151SAPE  H10X16763   2.825   5.002   7.598  0.6420 -0.0172 -0.4013
  151SAPE  H10Y16764   2.800   4.839   7.645 -0.4197 -0.8751 -1.4235
  151SAPE  C31116765   2.693   4.993   7.769  0.1944 -0.0841 -0.1756
  151SAPE  H11X16766   2.770   4.961   7.843  0.2619  0.3828 -0.0392
  151SAPE  H11Y16767   2.593   4.949   7.788 -0.2617  0.9524 -0.0831
  151SAPE  C31216768   2.678   5.145   7.762  1.0919 -0.2028  0.2299
  151SAPE  H12X16769   2.603   5.171   7.685  0.2398 -3.0260 -0.0056
  151SAPE  H12Y16770   2.772   5.195   7.731 -0.4280  0.8539 -3.1317
  151SAPE  C31316771   2.638   5.210   7.898 -0.0761 -0.1772  0.1045
  151SAPE  H13X16772   2.544   5.166   7.939  0.2852 -0.4056  0.6972
  151SAPE  H13Y16773   2.613   5.317   7.881  1.5791  0.3176  0.6486
  151SAPE  C31416774   2.752   5.186   8.001  0.8747 -0.2124 -0.4815
  151SAPE  H14X16775   2.840   5.221   7.944  0.6891  0.2266 -0.5007
  151SAPE  H14Y16776   2.773   5.078   8.022 -0.2109 -1.0479 -3.2734
  151SAPE  C31516777   2.743   5.274   8.125  0.4254  0.0068 -0.8172
  151SAPE  H15X16778   2.813   5.219   8.193  0.4846 -2.5080 -2.7361
  151SAPE  H15Y16779   2.641   5.274   8.169 -0.7954 -2.7807 -3.2822
  151SAPE  C31616780   2.792   5.414   8.099 -0.0705  0.1320  0.4624
  151SAPE  H16X16781   2.742   5.470   8.017  1.2719  1.1206  0.2937
  151SAPE  H16Y16782   2.893   5.408   8.054  0.3472  0.3591  1.3349
  151SAPE  C31716783   2.794   5.511   8.217 -0.5836 -0.0431  0.0861
  151SAPE  H17X16784   2.829   5.611   8.183 -2.8989  0.9078  0.3524
  151SAPE  H17Y16785   2.852   5.459   8.297 -0.2551  0.8747  0.4504
  151SAPE  C31816786   2.652   5.533   8.272  0.8754  0.5058  0.0728
  151SAPE  H18X16787   2.603   5.437   8.300  0.4482  0.5315 -0.5662
  151SAPE  H18Y16788   2.582   5.588   8.206 -0.9718  0.3101  1.7825
  151SAPE  H18Z16789   2.660   5.588   8.368  0.0138  0.7156  0.0283
  152SAPE     N16790   4.503   2.009   6.187  0.6714 -0.0625  0.5337
  152SAPE   HN116791   4.421   2.033   6.246  2.4607  0.7282  2.8594
  152SAPE   HN216792   4.474   1.979   6.092  0.0312  1.9562  0.0520
  152SAPE   HN316793   4.562   1.935   6.230  1.4473 -0.9265 -1.8695
  152SAPE   C1216794   4.597   2.132   6.183  0.2714  0.7208  1.0228
  152SAPE  H12A16795   4.538   2.213   6.135 -0.7548 -0.2188  0.6616
  152SAPE  H12B16796   4.686   2.108   6.120 -1.4386  0.1396 -1.3035
  152SAPE   C1116797   4.619   2.180   6.326 -0.4191 -0.0421 -0.1015
  152SAPE  H11A16798   4.673   2.277   6.320  1.7649 -1.0559  1.7708
  152SAPE  H11B16799   4.687   2.115   6.385 -1.0558  1.3406  2.3033
  152SAPE     P16800   4.462   2.156   6.543 -0.0185 -0.0098  0.1886
  152SAPE   O1316801   4.360   2.247   6.594 -0.0711  0.5968 -0.1273
  152SAPE   O1416802   4.425   2.012   6.543 -0.4568  0.0654  0.5742
  152SAPE   O1216803   4.494   2.201   6.392  0.7335  0.5534 -0.3175
  152SAPE   O1116804   4.594   2.179   6.627 -0.4732  0.2596  0.3513
  152SAPE    C116805   4.631   2.321   6.633 -0.0628  1.0889 -0.6491
  152SAPE    HA16806   4.608   2.373   6.537 -1.6694  0.4690 -0.6227
  152SAPE    HB16807   4.579   2.379   6.713 -1.7421 -0.4977 -0.5241
  152SAPE    C216808   4.784   2.337   6.640  0.1666 -0.0214 -1.4416
  152SAPE    HS16809   4.825   2.272   6.560  1.4462 -1.8288  0.5999
  152SAPE   O2116810   4.832   2.288   6.774  0.3225 -0.5563  0.0112
  152SAPE   C2116811   4.955   2.257   6.792  0.1544  0.3142 -0.1727
  152SAPE   O2216812   5.038   2.223   6.705 -0.1474 -0.2591  0.0567
  152SAPE   C2216813   4.985   2.272   6.941  0.5452  0.4141  0.1602
  152SAPE   H2R16814   4.996   2.380   6.966 -1.5685  0.6469  0.3453
  152SAPE   H2S16815   4.891   2.239   6.991 -1.3324  1.4280 -2.4496
  152SAPE    C316816   4.824   2.490   6.605  0.2056  1.0568  0.0830
  152SAPE    HX16817   4.791   2.507   6.500  1.3679  1.1609 -0.2738
  152SAPE    HY16818   4.934   2.497   6.608  0.2390  0.2110  1.5042
  152SAPE   O3116819   4.755   2.591   6.686  0.0001  0.3327 -0.4858
  152SAPE   C3116820   4.820   2.616   6.798 -0.0211 -0.2833  0.3228
  152SAPE   O3216821   4.936   2.588   6.821  0.0720  0.1777  0.1043
  152SAPE   C3216822   4.717   2.679   6.896  0.1325  0.3395 -0.4104
  152SAPE   H2X16823   4.622   2.622   6.894  1.5580 -2.1631 -1.0708
  152SAPE   H2Y16824   4.721   2.782   6.854  2.6068  0.8145  0.8312
  152SAPE   C2316825   5.114   2.197   6.971 -0.4446 -0.0737 -0.6780
  152SAPE   H3R16826   5.201   2.236   6.913 -1.2009 -0.9066 -2.4190
  152SAPE   H3S16827   5.093   2.091   6.949 -0.0172 -0.2843 -0.1103
  152SAPE   C2416828   5.135   2.205   7.129  0.8627 -1.1351  0.0452
  152SAPE   H4R16829   5.048   2.156   7.178 -0.5865  0.9619 -0.2916
  152SAPE   H4S16830   5.129   2.312   7.158  1.6006 -1.4448  1.4254
  152SAPE   C2516831   5.273   2.162   7.186  0.5030 -0.1194  0.1541
  152SAPE   H5R16832   5.352   2.192   7.115 -0.9489 -0.2910 -1.6129
  152SAPE   C2616833   5.305   2.099   7.296  0.0205 -0.5798  0.4563
  152SAPE   H6R16834   5.411   2.085   7.324  0.3192  0.3809 -0.1281
  152SAPE   C2716835   5.199   2.056   7.398  0.4631  0.2010 -0.6503
  152SAPE   H7R16836   5.231   1.969   7.459  0.2306 -1.1063 -2.3108
  152SAPE   H7S16837   5.103   2.027   7.350  0.8020 -1.7199 -0.2426
  152SAPE   C2816838   5.149   2.182   7.478 -0.1580 -0.2648 -0.0781
  152SAPE   H8R16839   5.139   2.279   7.426  0.4230 -0.3524 -0.3641
  152SAPE   C2916840   5.131   2.185   7.609  0.1779  0.2741 -0.2703
  152SAPE   H9R16841   5.090   2.273   7.659 -1.2420 -0.7031  0.3432
  152SAPE  C21016842   5.152   2.067   7.704  0.5609 -0.4536  0.2551
  152SAPE  H10R16843   5.112   1.980   7.648 -0.2180  0.0437  0.0177
  152SAPE  H10S16844   5.085   2.078   7.792 -3.6098  0.9483 -2.7800
  152SAPE  C21116845   5.301   2.044   7.725  0.0030 -0.3639 -0.5158
  152SAPE  H11R16846   5.357   1.999   7.642 -1.3495  0.2681 -1.8135
  152SAPE  C21216847   5.357   2.056   7.847 -0.1521 -0.4832 -0.4048
  152SAPE  H12R16848   5.465   2.036   7.858  0.0482  1.6762  3.1641
  152SAPE  C21316849   5.290   2.100   7.975  0.1361  0.0568  0.7081
  152SAPE  H13R16850   5.213   2.173   7.942 -1.2633 -1.8299 -0.3817
  152SAPE  H13S16851   5.359   2.159   8.039 -1.4412  1.7861  0.9294
  152SAPE  C21416852   5.237   1.977   8.037 -0.0557 -0.0938 -0.3093
  152SAPE  H14R16853   5.156   1.928   7.980  0.4139 -2.2956  0.8160
  152SAPE  C21516854   5.290   1.907   8.138 -0.8317  0.1682  0.1567
  152SAPE  H15R16855   5.248   1.811   8.173  2.5296 -2.1456 -1.6177
  152SAPE  C21616856   5.419   1.948   8.207 -0.1161 -0.5398  0.1261
  152SAPE  H16R16857   5.478   2.030   8.162 -0.0150 -0.1520  0.9520
  152SAPE  H16S16858   5.482   1.856   8.205  2.1448  0.9466 -1.0376
  152SAPE  C21716859   5.396   1.976   8.357 -0.4234  0.5093  0.9021
  152SAPE  H17R16860   5.492   1.983   8.413 -0.0777  0.0336  0.3811
  152SAPE  H17S16861   5.345   1.889   8.405  1.3254 -0.7002  0.6924
  152SAPE  C21816862   5.330   2.107   8.378  0.0538  0.2359 -0.1845
  152SAPE  H18R16863   5.222   2.092   8.355 -0.1586 -1.6383  1.6987
  152SAPE  H18S16864   5.366   2.184   8.306 -0.0591 -0.8954 -1.4878
  152SAPE  C21916865   5.344   2.150   8.527 -0.6269  0.6015 -0.0799
  152SAPE  H19R16866   5.452   2.167   8.541 -0.1298 -0.6804 -1.9350
  152SAPE  H19S16867   5.307   2.061   8.583 -0.2727 -0.6894 -1.8030
  152SAPE  C22016868   5.256   2.270   8.558 -0.5882  0.0658 -0.5024
  152SAPE  H20R16869   5.151   2.240   8.541 -0.3548 -0.1868 -1.5848
  152SAPE  H20S16870   5.267   2.354   8.485 -2.4768 -0.7466 -1.7943
  152SAPE  H20T16871   5.261   2.318   8.658  0.5991 -0.0538 -0.4849
  152SAPE   C3316872   4.771   2.693   7.040  0.6311  0.1012  0.3067
  152SAPE   H3X16873   4.860   2.758   7.030  0.4286  0.0062 -3.9078
  152SAPE   H3Y16874   4.804   2.592   7.073 -0.5548  0.2007  1.9367
  152SAPE   C3416875   4.671   2.746   7.143 -0.0167  0.3776 -0.4463
  152SAPE   H4X16876   4.587   2.674   7.157  1.4003 -1.5406 -1.3246
  152SAPE   H4Y16877   4.648   2.849   7.110  1.1503  0.9030  0.3305
  152SAPE   C3516878   4.738   2.752   7.285  0.1694  0.1771  0.6494
  152SAPE   H5X16879   4.794   2.658   7.302  0.8152  0.0378 -1.8920
  152SAPE   H5Y16880   4.654   2.768   7.356  0.4266  0.8383  0.8120
  152SAPE   C3616881   4.835   2.872   7.304 -0.6996  0.2055 -0.2448
  152SAPE   H6X16882   4.784   2.968   7.284 -1.6523 -0.6897 -2.4679
  152SAPE   H6Y16883   4.911   2.842   7.229 -0.8465 -0.9418  0.0349
  152SAPE   C3716884   4.906   2.859   7.449  0.2390 -0.8095 -0.3715
  152SAPE   H7X16885   4.990   2.931   7.449 -0.7598  0.3942 -1.1281
  152SAPE   H7Y16886   4.942   2.754   7.455  0.0242 -0.8348  0.5314
  152SAPE   C3816887   4.823   2.890   7.572  0.5401  0.2756  0.6473
  152SAPE   H8X16888   4.733   2.829   7.594  0.5306  0.5734  1.4709
  152SAPE   H8Y16889   4.786   2.995   7.565  2.2734  1.0165  1.8250
  152SAPE   C3916890   4.903   2.900   7.703  0.2649 -0.6086 -0.5777
  152SAPE   H9X16891   4.986   2.973   7.702  0.1204 -0.4121  0.5919
  152SAPE   H9Y16892   4.955   2.803   7.717 -1.6344 -1.8310 -1.4350
  152SAPE  C31016893   4.813   2.924   7.823  0.7793  0.1390 -0.3072
  152SAPE  H10X16894   4.728   2.853   7.811  1.7312 -0.9206 -1.0997
  152SAPE  H10Y16895   4.768   3.022   7.798 -1.6486 -0.6389  0.7069
  152SAPE  C31116896   4.859   2.924   7.965 -0.3713 -0.6665 -0.2724
  152SAPE  H11X16897   4.944   2.993   7.981 -0.9521 -0.1840  0.7987
  152SAPE  H11Y16898   4.893   2.820   7.987  0.5071 -0.5800 -1.1470
  152SAPE  C31216899   4.751   2.967   8.069 -0.4640 -0.5971 -1.0682
  152SAPE  H12X16900   4.653   2.931   8.032 -2.9558  3.8299  0.4725
  152SAPE  H12Y16901   4.732   3.076   8.059  1.8736  0.0821  0.8033
  152SAPE  C31316902   4.765   2.918   8.213 -0.4839  0.6527 -0.4348
  152SAPE  H13X16903   4.862   2.954   8.253 -0.2427 -0.9550  0.5638
  152SAPE  H13Y16904   4.771   2.807   8.216  1.8176  0.7089 -1.4516
  152SAPE  C31416905   4.658   2.977   8.309  0.1154  0.3999  0.0238
  152SAPE  H14X16906   4.649   3.081   8.270 -1.8683 -0.7790 -3.0424
  152SAPE  H14Y16907   4.672   2.958   8.418  0.3172  1.5485  0.2135
  152SAPE  C31516908   4.519   2.911   8.283 -0.0931 -0.0875 -0.0621
  152SAPE  H15X16909   4.521   2.806   8.319  0.9060 -0.3339 -0.7639
  152SAPE  H15Y16910   4.490   2.913   8.176 -0.1044  1.5544 -0.0592
  152SAPE  C31616911   4.401   2.989   8.345 -0.0095 -0.3581 -0.1199
  152SAPE  H16X16912   4.311   2.924   8.351 -0.5515  0.2165 -1.5846
  152SAPE  H16Y16913   4.380   3.065   8.267 -2.1218 -0.4402  0.3246
  152SAPE  C31716914   4.444   3.044   8.494 -0.4389  0.0139  0.1136
  152SAPE  H17X16915   4.518   3.125   8.479  0.8723 -0.9109  1.3596
  152SAPE  H17Y16916   4.503   2.960   8.537  1.6664  0.4092 -1.7927
  152SAPE  C31816917   4.329   3.109   8.579 -0.4590  0.5782  0.7300
  152SAPE  H18X16918   4.257   3.035   8.619 -0.1458 -0.8504 -1.2280
  152SAPE  H18Y16919   4.271   3.169   8.506  0.5174 -0.8137 -1.2858
  152SAPE  H18Z16920   4.381   3.167   8.658  0.4347 -0.9988  1.3527
  153SAPE     N16921   6.371   2.348   6.340 -0.2029  0.4186 -0.2187
  153SAPE   HN116922   6.294   2.404   6.299 -0.3026  1.6847  1.5601
  153SAPE   HN216923   6.415   2.284   6.270 -1.3012 -2.0770  1.2129
  153SAPE   HN316924   6.335   2.280   6.411 -1.3767  3.6165  2.5143
  153SAPE   C1216925   6.472   2.440   6.404  0.2033 -0.0736  0.2942
  153SAPE  H12A16926   6.424   2.494   6.488  1.6727 -0.3850  1.3860
  153SAPE  H12B16927   6.524   2.493   6.321 -1.4864  0.7365 -0.2786
  153SAPE   C1116928   6.576   2.359   6.483 -0.5861 -0.3073  0.5338
  153SAPE  H11A16929   6.514   2.312   6.562 -0.5629  0.7912  1.2175
  153SAPE  H11B16930   6.645   2.436   6.523 -0.4875  0.3535 -0.8480
  153SAPE     P16931   6.786   2.308   6.332 -0.4655  0.0757 -0.3513
  153SAPE   O1316932   6.831   2.210   6.230 -0.2066  0.4008 -0.5235
  153SAPE   O1416933   6.785   2.449   6.290 -0.7228  0.1637  0.0705
  153SAPE   O1216934   6.647   2.266   6.391  0.1799 -0.0961  0.0880
  153SAPE   O1116935   6.881   2.295   6.453  0.2328 -0.5594 -0.3149
  153SAPE    C116936   6.895   2.165   6.512 -0.4622 -0.0696  0.2859
  153SAPE    HA16937   6.795   2.117   6.518 -0.4812 -0.3061 -1.3389
  153SAPE    HB16938   6.953   2.101   6.443  0.5900 -1.6004  2.4727
  153SAPE    C216939   6.949   2.178   6.659 -0.2108  0.1279  0.3917
  153SAPE    HS16940   6.887   2.261   6.701  1.9669  0.7498  2.6785
  153SAPE   O2116941   7.090   2.218   6.648 -0.1344 -0.3801 -0.4833
  153SAPE   C2116942   7.148   2.240   6.763 -0.3980 -0.7463  0.8357
  153SAPE   O2216943   7.096   2.235   6.874 -0.1675 -0.3918  0.0193
  153SAPE   C2216944   7.289   2.291   6.733 -0.0668 -0.0194 -0.2365
  153SAPE   H2R16945   7.367   2.231   6.785  0.5462  0.5253 -0.5126
  153SAPE   H2S16946   7.311   2.267   6.627  2.4818 -0.4976  0.3458
  153SAPE    C316947   6.928   2.045   6.740 -0.8475  0.0808 -0.2545
  153SAPE    HX16948   6.966   2.050   6.844  0.5512 -0.4844 -0.7085
  153SAPE    HY16949   6.996   1.976   6.684  0.6746  1.3821 -0.0995
  153SAPE   O3116950   6.791   1.995   6.730 -0.3588  0.1289  0.4988
  153SAPE   C3116951   6.775   1.872   6.781  0.1580 -0.1912  0.2111
  153SAPE   O3216952   6.867   1.800   6.809  0.0970 -0.2294  0.4607
  153SAPE   C3216953   6.632   1.841   6.812  0.2680  0.1947  0.2235
  153SAPE   H2X16954   6.619   1.731   6.804 -0.0088 -0.1426  3.8268
  153SAPE   H2Y16955   6.565   1.889   6.738  1.8312 -0.3161 -1.5952
  153SAPE   C2316956   7.288   2.442   6.764 -0.2065 -0.1061 -0.4199
  153SAPE   H3R16957   7.219   2.505   6.704  0.6092  1.8427  0.5933
  153SAPE   H3S16958   7.393   2.475   6.745  0.0244  1.5964  2.9877
  153SAPE   C2416959   7.275   2.487   6.909  0.6894  0.2362 -0.7603
  153SAPE   H4R16960   7.164   2.498   6.916  0.7736  0.9351 -0.4522
  153SAPE   H4S16961   7.325   2.586   6.914  2.8135 -0.8341  2.5479
  153SAPE   C2516962   7.327   2.397   7.024  0.1102 -0.4508 -0.1884
  153SAPE   H5R16963   7.248   2.329   7.057  0.1928 -0.9638 -1.0281
  153SAPE   C2616964   7.461   2.394   7.065  0.6083  0.6558 -1.0224
  153SAPE   H6R16965   7.483   2.327   7.150 -2.2673  0.5944 -0.2228
  153SAPE   C2716966   7.583   2.474   7.025 -0.3512  0.7279  0.4422
  153SAPE   H7R16967   7.571   2.553   6.948  3.2753 -0.1737 -1.2556
  153SAPE   H7S16968   7.658   2.400   6.989  0.5182  0.3224  2.9105
  153SAPE   C2816969   7.629   2.546   7.152  0.2242  0.1749  0.5737
  153SAPE   H8R16970   7.586   2.645   7.171  1.8177  1.0814 -0.2950
  153SAPE   C2916971   7.713   2.499   7.248 -0.0686  0.4953  0.3411
  153SAPE   H9R16972   7.735   2.567   7.331  1.7254  4.0823 -2.7452
  153SAPE  C21016973   7.773   2.363   7.253 -0.1086  0.1729  0.4587
  153SAPE  H10R16974   7.882   2.381   7.263 -0.0666 -0.2515  0.7971
  153SAPE  H10S16975   7.747   2.311   7.159 -2.6199 -0.0051  1.1840
  153SAPE  C21116976   7.727   2.274   7.367 -0.5334 -0.7457  0.6790
  153SAPE  H11R16977   7.653   2.203   7.327 -0.1335 -1.6932  1.5696
  153SAPE  C21216978   7.756   2.280   7.500  0.0782  0.1757  0.3345
  153SAPE  H12R16979   7.719   2.196   7.560  0.0230 -0.9979 -1.2889
  153SAPE  C21316980   7.850   2.376   7.564  0.5113  0.6278 -0.1574
  153SAPE  H13R16981   7.817   2.480   7.547 -1.4983  0.1176  0.3846
  153SAPE  H13S16982   7.948   2.362   7.512 -1.1774 -1.1842 -3.1146
  153SAPE  C21416983   7.850   2.357   7.709 -0.5627  0.2447 -0.2399
  153SAPE  H14R16984   7.756   2.336   7.763 -1.3587  3.2032 -0.3134
  153SAPE  C21516985   7.965   2.365   7.784  0.5690  0.7333  0.3670
  153SAPE  H15R16986   7.956   2.355   7.893  1.4359  0.7470  0.4442
  153SAPE  C21616987   8.104   2.389   7.736  0.1777 -0.0945  0.7399
  153SAPE  H16R16988   8.094   2.428   7.633 -0.0644 -0.9567  0.4335
  153SAPE  H16S16989   8.166   2.298   7.723  0.6705  0.1393  1.3595
  153SAPE  C21716990   8.175   2.498   7.817 -0.5800  0.2234  0.5679
  153SAPE  H17R16991   8.275   2.512   7.770 -0.8737 -0.2327 -0.2137
  153SAPE  H17S16992   8.192   2.467   7.922  0.9116 -1.6959 -0.1762
  153SAPE  C21816993   8.119   2.640   7.808 -0.0359 -0.5655 -0.0215
  153SAPE  H18R16994   8.192   2.712   7.851 -0.5339  0.6851 -1.1746
  153SAPE  H18S16995   8.027   2.647   7.870  0.2037  0.7508  0.2181
  153SAPE  C21916996   8.090   2.694   7.668  0.3390  0.3553  0.4833
  153SAPE  H19R16997   8.023   2.631   7.607 -1.8145  2.0520  0.9660
  153SAPE  H19S16998   8.193   2.693   7.627 -0.1598  1.1708 -0.8362
  153SAPE  C22016999   8.027   2.839   7.663  0.2544  0.4545 -0.5979
  153SAPE  H20R17000   8.052   2.903   7.751  1.6541 -0.1863 -0.4976
  153SAPE  H20S17001   7.917   2.836   7.675  0.4264 -1.0920  1.0110
  153SAPE  H20T17002   8.057   2.887   7.567  1.8813 -1.2549 -1.0145
  153SAPE   C3317003   6.582   1.894   6.949 -0.2468  0.3577 -0.5775
  153SAPE   H3X17004   6.479   1.856   6.967  0.0896 -0.3920 -0.1940
  153SAPE   H3Y17005   6.595   2.004   6.956  2.1725  0.2373 -1.9459
  153SAPE   C3417006   6.666   1.845   7.065 -0.0869  0.3046 -0.6602
  153SAPE   H4X17007   6.774   1.872   7.060  0.1378 -0.7256 -1.8269
  153SAPE   H4Y17008   6.669   1.735   7.051  1.5687  0.1744  0.4331
  153SAPE   C3517009   6.608   1.879   7.199 -0.5104 -0.0675 -0.1621
  153SAPE   H5X17010   6.504   1.843   7.214 -1.0208  1.7776  1.0196
  153SAPE   H5Y17011   6.598   1.989   7.210 -0.3545 -0.0132 -0.5811
  153SAPE   C3617012   6.696   1.835   7.322 -0.9895  0.4642 -0.1746
  153SAPE   H6X17013   6.790   1.891   7.305 -0.2977  0.0581  2.0893
  153SAPE   H6Y17014   6.717   1.726   7.331 -0.6869  0.6988  2.7734
  153SAPE   C3717015   6.628   1.885   7.452  0.1639  0.5592 -0.7118
  153SAPE   H7X17016   6.533   1.834   7.481  0.9565 -1.6367 -1.8244
  153SAPE   H7Y17017   6.596   1.989   7.429  1.1876  1.2374  0.7548
  153SAPE   C3817018   6.721   1.895   7.573 -0.2730  0.5106 -0.9505
  153SAPE   H8X17019   6.822   1.930   7.542 -0.0967  1.8047  0.9385
  153SAPE   H8Y17020   6.737   1.792   7.612  0.0202  0.5725 -0.9026
  153SAPE   C3917021   6.677   1.971   7.694  0.6949 -0.1214 -0.2615
  153SAPE   H9X17022   6.587   1.919   7.733 -0.0887  1.2761 -0.1403
  153SAPE   H9Y17023   6.649   2.074   7.665  0.1123  0.5648  2.4629
  153SAPE  C31017024   6.787   1.976   7.794 -0.7150 -0.1474  0.3228
  153SAPE  H10X17025   6.753   2.033   7.883  0.7159 -0.1174  0.8792
  153SAPE  H10Y17026   6.878   2.026   7.754 -1.3134  1.1556  0.5259
  153SAPE  C31117027   6.832   1.851   7.856 -0.3482  0.7679 -0.3626
  153SAPE  H11X17028   6.879   1.781   7.784 -1.4349 -1.4221  0.9403
  153SAPE  H11Y17029   6.751   1.791   7.905  2.8545 -3.3965  0.4194
  153SAPE  C31217030   6.939   1.859   7.967 -0.1071  0.6112  0.2831
  153SAPE  H12X17031   6.897   1.921   8.050 -0.6293 -0.2001  0.6412
  153SAPE  H12Y17032   7.027   1.916   7.931 -0.7910  0.5989 -1.4715
  153SAPE  C31317033   6.969   1.721   8.016 -0.8420  0.0539 -0.7269
  153SAPE  H13X17034   6.978   1.642   7.939  1.5747  0.3485 -0.8398
  153SAPE  H13Y17035   6.896   1.672   8.083  0.1718  0.0973  0.4531
  153SAPE  C31417036   7.094   1.724   8.121  0.0292  0.2146  0.0410
  153SAPE  H14X17037   7.182   1.779   8.082 -1.5645  1.5025 -1.9704
  153SAPE  H14Y17038   7.126   1.619   8.134 -0.0885  0.2253  0.4381
  153SAPE  C31517039   7.053   1.783   8.256  0.1336  0.4551  0.5775
  153SAPE  H15X17040   6.963   1.723   8.282  0.8443 -0.4329  1.0543
  153SAPE  H15Y17041   7.025   1.889   8.239  0.8729  0.5312 -0.2760
  153SAPE  C31617042   7.172   1.787   8.355  0.9239 -0.6503  0.3355
  153SAPE  H16X17043   7.131   1.793   8.458  0.5868 -3.7681  0.4788
  153SAPE  H16Y17044   7.218   1.884   8.329 -1.8347  0.5374 -0.4275
  153SAPE  C31717045   7.278   1.674   8.351  0.7311  0.5537 -1.1213
  153SAPE  H17X17046   7.337   1.669   8.257  3.1515 -1.6426  0.3507
  153SAPE  H17Y17047   7.215   1.584   8.364  0.3644  0.8840 -0.5577
  153SAPE  C31817048   7.393   1.685   8.461  0.6212  0.0602 -0.1421
  153SAPE  H18X17049   7.442   1.586   8.472  0.1239 -0.0129  1.8765
  153SAPE  H18Y17050   7.345   1.697   8.561  2.0303 -0.4849  0.6364
  153SAPE  H18Z17051   7.466   1.766   8.439  0.5671  1.2936  3.5559
  154SAPE     N17052   5.056   1.846   6.654 -0.3625  0.2714  0.6326
  154SAPE   HN117053   5.131   1.889   6.713  0.1979  0.9347 -0.5371
  154SAPE   HN217054   5.029   1.760   6.705  1.3028 -1.9272 -1.9373
  154SAPE   HN317055   5.106   1.815   6.569 -1.4449  1.7336 -0.5874
  154SAPE   C1217056   4.937   1.936   6.622 -0.4407  0.1752 -0.0626
  154SAPE  H12A17057   4.968   2.019   6.554  0.8719 -0.0055  0.2916
  154SAPE  H12B17058   4.901   1.978   6.718 -0.4533 -1.4083  0.6605
  154SAPE   C1117059   4.820   1.858   6.552  0.1559  0.5367  0.5044
  154SAPE  H11A17060   4.736   1.930   6.541  0.9505  1.2072 -1.3772
  154SAPE  H11B17061   4.776   1.783   6.622 -1.5381  0.1134 -0.9274
  154SAPE     P17062   4.763   1.711   6.343  0.0785  0.0197 -0.2930
  154SAPE   O1317063   4.672   1.808   6.272 -0.1989  0.1720  0.6266
  154SAPE   O1417064   4.836   1.602   6.273  0.7206  0.3755 -0.3696
  154SAPE   O1217065   4.866   1.800   6.429  0.1591 -0.0973 -0.0348
  154SAPE   O1117066   4.681   1.641   6.458 -0.1448  0.0044  0.0281
  154SAPE    C117067   4.734   1.517   6.510 -0.1567 -0.3142 -0.0991
  154SAPE    HA17068   4.728   1.438   6.432  1.8683  0.5717 -1.2601
  154SAPE    HB17069   4.839   1.528   6.546 -0.3101 -0.9529  0.5662
  154SAPE    C217070   4.654   1.476   6.634  0.0097  0.3093  0.3000
  154SAPE    HS17071   4.548   1.481   6.602 -0.1466  0.7658  0.8887
  154SAPE   O2117072   4.690   1.564   6.744  0.1532  0.1929 -0.1070
  154SAPE   C2117073   4.588   1.592   6.823  0.3925  0.5425 -0.3816
  154SAPE   O2217074   4.469   1.601   6.792  0.4684  0.9817 -0.2086
  154SAPE   C2217075   4.647   1.626   6.956  0.8515  0.4305 -0.7127
  154SAPE   H2R17076   4.700   1.536   6.995 -1.6926 -0.4082  1.0166
  154SAPE   H2S17077   4.721   1.708   6.940  0.3208  0.7160 -1.7376
  154SAPE    C317078   4.677   1.332   6.674 -0.7963 -0.1996  0.0874
  154SAPE    HX17079   4.786   1.333   6.697 -0.3491  2.0110 -1.7287
  154SAPE    HY17080   4.646   1.269   6.588 -1.3944 -0.2446  0.3352
  154SAPE   O3117081   4.589   1.298   6.788 -0.1724 -0.3705 -0.2422
  154SAPE   C3117082   4.625   1.185   6.844 -0.4302 -0.1731  0.6524
  154SAPE   O3217083   4.723   1.119   6.814  0.3982  0.3992 -0.2105
  154SAPE   C3217084   4.520   1.141   6.941 -0.0979 -0.2948 -0.6268
  154SAPE   H2X17085   4.541   1.042   6.988 -2.4789 -0.1948  0.8475
  154SAPE   H2Y17086   4.427   1.139   6.880 -0.0313 -2.1633 -0.7428
  154SAPE   C2317087   4.538   1.659   7.065 -0.5334 -0.2360 -0.1628
  154SAPE   H3R17088   4.496   1.559   7.090 -0.1080 -0.5143 -0.5375
  154SAPE   H3S17089   4.455   1.723   7.028  0.2214  0.7103 -0.2470
  154SAPE   C2417090   4.593   1.709   7.199  0.7181 -0.6136 -0.0380
  154SAPE   H4R17091   4.692   1.665   7.226  1.1654  0.6689  0.5076
  154SAPE   H4S17092   4.521   1.684   7.280 -2.5326 -1.2566 -2.9324
  154SAPE   C2517093   4.615   1.856   7.187  1.0670  0.5507  0.2923
  154SAPE   H5R17094   4.625   1.898   7.086  1.3975 -0.4815 -0.1142
  154SAPE   C2617095   4.622   1.941   7.293 -0.1437  0.1496 -0.4154
  154SAPE   H6R17096   4.619   2.049   7.271  0.0087  0.0470 -0.9391
  154SAPE   C2717097   4.627   1.911   7.440 -0.5457  0.0888  0.0034
  154SAPE   H7R17098   4.659   1.806   7.454 -1.8020 -0.3683 -0.3784
  154SAPE   H7S17099   4.534   1.931   7.498  0.4056  2.2271  0.8889
  154SAPE   C2817100   4.738   1.993   7.505 -0.2847  0.2125 -0.5345
  154SAPE   H8R17101   4.787   2.070   7.444  0.7322 -2.3059 -3.1071
  154SAPE   C2917102   4.772   1.988   7.635 -0.0446 -0.2940  0.5054
  154SAPE   H9R17103   4.855   2.053   7.668 -1.0094  2.0074 -1.2499
  154SAPE  C21017104   4.724   1.891   7.737  0.8074 -1.1326  0.3317
  154SAPE  H10R17105   4.810   1.837   7.781  1.5671  1.9649  2.9941
  154SAPE  H10S17106   4.662   1.815   7.683  0.1891  0.4904 -1.3572
  154SAPE  C21117107   4.645   1.968   7.833  0.4465 -0.0996 -0.2075
  154SAPE  H11R17108   4.541   1.992   7.805 -0.0039  1.5717  2.5429
  154SAPE  C21217109   4.678   1.993   7.959 -0.4724 -0.3594 -0.3768
  154SAPE  H12R17110   4.613   2.055   8.022 -1.4853 -0.6666 -1.0908
  154SAPE  C21317111   4.808   1.954   8.023  0.2653 -0.0328 -0.6717
  154SAPE  H13R17112   4.849   2.053   8.053 -0.5894 -0.4229  2.1320
  154SAPE  H13S17113   4.878   1.886   7.970  1.2049  1.1219 -0.9659
  154SAPE  C21417114   4.785   1.871   8.153  0.4365 -0.0350  0.8883
  154SAPE  H14R17115   4.712   1.788   8.150  0.5577 -0.1549  1.2825
  154SAPE  C21517116   4.849   1.888   8.271 -0.3770  0.4220  0.7058
  154SAPE  H15R17117   4.817   1.826   8.356  1.2720 -0.9805  0.3620
  154SAPE  C21617118   4.963   1.983   8.306  0.0536 -0.5386 -0.2467
  154SAPE  H16R17119   5.016   2.020   8.215 -1.5552  0.9439 -0.6284
  154SAPE  H16S17120   5.041   1.935   8.369  0.0959 -0.3322 -0.1410
  154SAPE  C21717121   4.919   2.112   8.379 -0.0805 -0.4526 -0.2307
  154SAPE  H17R17122   4.840   2.160   8.318  2.7797  2.4060 -1.9643
  154SAPE  H17S17123   5.006   2.181   8.376 -1.1464  0.8915 -3.1082
  154SAPE  C21817124   4.892   2.088   8.534 -0.1967  0.4706 -0.8530
  154SAPE  H18R17125   4.994   2.093   8.578  0.6393 -2.9101 -2.1020
  154SAPE  H18S17126   4.836   1.995   8.557  1.1590 -0.1055  0.2638
  154SAPE  C21917127   4.813   2.202   8.603  0.2418 -0.9293  0.0593
  154SAPE  H19R17128   4.709   2.195   8.564  0.0448 -0.4700  0.4985
  154SAPE  H19S17129   4.862   2.298   8.573  0.7175 -1.3656 -0.6079
  154SAPE  C22017130   4.805   2.190   8.756  0.9183  0.3586  0.4664
  154SAPE  H20R17131   4.732   2.262   8.798 -0.2561 -0.5568  0.0458
  154SAPE  H20S17132   4.897   2.212   8.814  0.6821  2.0565  0.2515
  154SAPE  H20T17133   4.778   2.086   8.783 -0.4623  0.2820 -1.0869
  154SAPE   C3317134   4.500   1.238   7.061 -0.1746 -0.6447  0.2116
  154SAPE   H3X17135   4.409   1.214   7.121 -1.3243  0.1147 -1.1543
  154SAPE   H3Y17136   4.489   1.343   7.026 -1.3869 -1.3327 -1.6574
  154SAPE   C3417137   4.619   1.237   7.167  0.7725 -0.1573 -0.0124
  154SAPE   H4X17138   4.705   1.274   7.108  0.2294 -0.5978 -1.1204
  154SAPE   H4Y17139   4.643   1.135   7.201 -0.8900  0.2856  2.8448
  154SAPE   C3517140   4.583   1.327   7.284 -0.9873  0.0122 -0.1583
  154SAPE   H5X17141   4.495   1.283   7.336 -0.1635 -1.7347 -0.1974
  154SAPE   H5Y17142   4.559   1.429   7.247 -2.5846 -0.0535  0.6158
  154SAPE   C3617143   4.702   1.339   7.379  0.8845  0.2245 -0.0809
  154SAPE   H6X17144   4.789   1.360   7.314  1.7923 -0.8129  0.7433
  154SAPE   H6Y17145   4.715   1.232   7.406 -0.0008  0.9196  3.8049
  154SAPE   C3717146   4.688   1.421   7.511  0.6452  0.6440 -0.3429
  154SAPE   H7X17147   4.590   1.385   7.549  1.6202 -1.1395  0.5726
  154SAPE   H7Y17148   4.681   1.526   7.475  0.3369  0.1433 -1.8033
  154SAPE   C3817149   4.810   1.395   7.609  0.7274  0.0876  0.1695
  154SAPE   H8X17150   4.894   1.426   7.544  2.0726 -2.0339  0.7776
  154SAPE   H8Y17151   4.837   1.288   7.622 -0.9010 -0.4382 -0.4621
  154SAPE   C3917152   4.800   1.469   7.745 -0.6567 -0.6767  0.7943
  154SAPE   H9X17153   4.709   1.438   7.801 -0.6334 -1.4892  0.3858
  154SAPE   H9Y17154   4.804   1.579   7.727 -0.4500 -0.8740 -0.4204
  154SAPE  C31017155   4.912   1.435   7.844 -0.6930 -0.4364 -0.2239
  154SAPE  H10X17156   5.010   1.457   7.796 -0.8859 -0.4636 -0.6310
  154SAPE  H10Y17157   4.909   1.326   7.864 -1.1739 -0.4994 -0.6266
  154SAPE  C31117158   4.904   1.522   7.972  0.5702 -0.2146  0.1991
  154SAPE  H11X17159   4.795   1.535   7.991 -0.2967 -0.6287 -3.6448
  154SAPE  H11Y17160   4.938   1.625   7.946  0.8038  0.0795  1.5935
  154SAPE  C31217161   4.998   1.480   8.082 -0.7740 -0.5051 -0.1856
  154SAPE  H12X17162   5.103   1.472   8.047 -0.2121 -0.7029  1.4513
  154SAPE  H12Y17163   4.969   1.380   8.120  0.3206 -1.3088 -1.4053
  154SAPE  C31317164   5.009   1.572   8.200 -0.4997 -0.5715 -0.9934
  154SAPE  H13X17165   4.905   1.579   8.238 -0.4181 -0.8601 -0.7072
  154SAPE  H13Y17166   5.046   1.668   8.157  2.9691 -2.3671 -2.4978
  154SAPE  C31417167   5.113   1.515   8.300  0.4633 -0.9035  0.1946
  154SAPE  H14X17168   5.212   1.508   8.251 -0.5612 -0.9407 -1.9779
  154SAPE  H14Y17169   5.070   1.419   8.336 -2.5700  0.0163 -0.6454
  154SAPE  C31517170   5.132   1.593   8.437 -0.1607  0.2616 -0.5747
  154SAPE  H15X17171   5.049   1.666   8.446 -2.3296 -1.7853 -2.6265
  154SAPE  H15Y17172   5.225   1.652   8.430 -0.3809  0.3834 -3.3893
  154SAPE  C31617173   5.124   1.500   8.559 -0.0910  0.0052 -0.5007
  154SAPE  H16X17174   5.214   1.437   8.581  0.9345  2.0427  1.4992
  154SAPE  H16Y17175   5.036   1.435   8.544 -0.9143  1.5230 -2.6659
  154SAPE  C31717176   5.089   1.568   8.690 -0.8641 -0.5367  0.0969
  154SAPE  H17X17177   5.165   1.645   8.715  0.3058 -0.7425 -2.4309
  154SAPE  H17Y17178   5.092   1.497   8.776 -0.3347 -0.4491  0.1583
  154SAPE  C31817179   4.952   1.635   8.689  0.6348  0.3312  0.0304
  154SAPE  H18X17180   4.917   1.662   8.791 -0.8445 -1.0375 -0.0634
  154SAPE  H18Y17181   4.875   1.562   8.656  1.2667  0.6508 -2.2884
  154SAPE  H18Z17182   4.943   1.739   8.652  1.0956  0.5680  0.5772
  155SAPE     N17183   5.634   1.795   6.296 -0.4033 -0.3575 -0.6633
  155SAPE   HN117184   5.583   1.729   6.234 -1.1700 -0.8871  0.4821
  155SAPE   HN217185   5.686   1.866   6.241  0.7272  2.6062  3.6764
  155SAPE   HN317186   5.701   1.737   6.349 -0.8472  0.2146  0.5655
  155SAPE   C1217187   5.539   1.857   6.391 -0.2413  0.1560  0.1578
  155SAPE  H12A17188   5.479   1.770   6.426 -0.9827  0.2081 -0.9306
  155SAPE  H12B17189   5.457   1.914   6.342  0.5879 -0.4666 -2.0838
  155SAPE   C1117190   5.601   1.944   6.505  0.5593  0.6570  0.2880
  155SAPE  H11A17191   5.639   1.882   6.588  1.3903 -0.6649 -1.0289
  155SAPE  H11B17192   5.522   2.011   6.545  0.1744  0.1269  0.4280
  155SAPE     P17193   5.710   2.134   6.361  0.0382 -0.5902 -0.4364
  155SAPE   O1317194   5.834   2.144   6.291 -0.1824 -0.4430 -0.1299
  155SAPE   O1417195   5.584   2.131   6.282  0.2051  0.4023 -0.1386
  155SAPE   O1217196   5.710   2.011   6.454 -0.2953 -0.1818  0.1256
  155SAPE   O1117197   5.689   2.268   6.444  0.0803 -0.8270  0.4055
  155SAPE    C117198   5.802   2.352   6.483 -0.2439  0.6239  0.1205
  155SAPE    HA17199   5.869   2.378   6.398 -1.5738 -0.6576 -1.3699
  155SAPE    HB17200   5.757   2.444   6.526 -0.7690 -0.4943  2.1008
  155SAPE    C217201   5.876   2.282   6.602 -0.8087  0.2745  0.5958
  155SAPE    HS17202   5.930   2.194   6.561 -2.0151 -0.1738 -0.0831
  155SAPE   O2117203   5.777   2.260   6.705  0.2941  0.3477  0.2958
  155SAPE   C2117204   5.782   2.141   6.766 -1.0748 -0.8431 -0.3549
  155SAPE   O2217205   5.871   2.059   6.749  0.1197  0.0161 -0.1755
  155SAPE   C2217206   5.667   2.120   6.866 -0.0033 -0.0719  0.7044
  155SAPE   H2R17207   5.651   2.221   6.908 -0.8711  0.3065 -0.4881
  155SAPE   H2S17208   5.571   2.095   6.817 -0.6612 -0.6883  2.2370
  155SAPE    C317209   5.975   2.378   6.667 -0.1544  0.4708 -0.0198
  155SAPE    HX17210   5.916   2.465   6.702  1.3735  1.7352 -0.4839
  155SAPE    HY17211   6.046   2.421   6.594 -0.1910 -1.8857 -1.5714
  155SAPE   O3117212   6.028   2.302   6.782  0.1488  0.1858  0.0235
  155SAPE   C3117213   6.161   2.322   6.794 -0.3294  0.0835  0.5419
  155SAPE   O3217214   6.233   2.388   6.723  0.4009  0.8203 -0.0986
  155SAPE   C3217215   6.211   2.241   6.908  0.1130 -0.4431 -0.1002
  155SAPE   H2X17216   6.219   2.139   6.866  0.8817  0.0795 -1.2857
  155SAPE   H2Y17217   6.135   2.257   6.988 -0.0324  2.7048 -0.7466
  155SAPE   C2317218   5.702   2.016   6.965  0.0751  0.3030  0.3942
  155SAPE   H3R17219   5.800   2.040   7.010  0.1205  0.5683  0.1534
  155SAPE   H3S17220   5.721   1.922   6.908  0.4945  1.5448 -1.6241
  155SAPE   C2417221   5.580   2.004   7.058  0.8182  0.4516 -0.4139
  155SAPE   H4R17222   5.488   1.978   7.000 -0.4843 -0.7778  1.9917
  155SAPE   H4S17223   5.560   2.098   7.114 -1.2471  1.1784 -2.2392
  155SAPE   C2517224   5.605   1.900   7.159  0.0187 -0.5345  0.4115
  155SAPE   H5R17225   5.578   1.797   7.132  0.0266 -1.5394  3.7460
  155SAPE   C2617226   5.668   1.914   7.273  0.1014  0.3954 -0.4292
  155SAPE   H6R17227   5.703   1.820   7.318  2.9035  0.1465 -2.8689
  155SAPE   C2717228   5.727   2.049   7.327  0.3627  0.0395  0.0885
  155SAPE   H7R17229   5.641   2.110   7.362 -1.2911 -0.9398 -1.9563
  155SAPE   H7S17230   5.766   2.105   7.240  1.0375  1.2379  1.1367
  155SAPE   C2817231   5.836   2.025   7.436  0.3358  0.4904 -0.1091
  155SAPE   H8R17232   5.939   2.030   7.399  0.0369 -1.7665 -1.4496
  155SAPE   C2917233   5.811   1.978   7.562  0.5459 -0.1651 -0.2812
  155SAPE   H9R17234   5.903   1.971   7.622  2.5162  3.5707 -2.4778
  155SAPE  C21017235   5.672   1.946   7.628 -0.3975  0.3392  0.5344
  155SAPE  H10R17236   5.596   1.934   7.548  0.5917  0.8221 -0.5239
  155SAPE  H10S17237   5.638   2.035   7.685 -2.0795  1.1562 -1.5860
  155SAPE  C21117238   5.677   1.824   7.711 -0.3228  0.1674  0.5644
  155SAPE  H11R17239   5.671   1.728   7.657  0.4366 -0.5276  1.6699
  155SAPE  C21217240   5.706   1.809   7.842 -0.8646 -0.1246  0.0068
  155SAPE  H12R17241   5.721   1.709   7.884 -3.2789  0.3172  2.1417
  155SAPE  C21317242   5.747   1.921   7.944  0.2165  0.3987 -0.0492
  155SAPE  H13R17243   5.671   1.918   8.024 -0.2863  3.0923 -0.3266
  155SAPE  H13S17244   5.725   2.016   7.890  0.6432  0.7640  0.4062
  155SAPE  C21417245   5.887   1.929   7.986  0.0308 -0.4574 -0.1447
  155SAPE  H14R17246   5.965   1.943   7.909  0.1135 -0.4999 -0.0691
  155SAPE  C21517247   5.925   1.905   8.115 -0.0192 -0.4565 -0.2098
  155SAPE  H15R17248   6.031   1.909   8.142  0.3356  0.0876 -1.5900
  155SAPE  C21617249   5.834   1.875   8.231 -0.0604  0.1774 -1.0053
  155SAPE  H16R17250   5.749   1.810   8.200  0.4513 -0.1776 -1.7015
  155SAPE  H16S17251   5.801   1.977   8.260  0.3909 -0.0420  0.3190
  155SAPE  C21717252   5.910   1.800   8.351  0.3761  0.1291  0.1468
  155SAPE  H17R17253   6.009   1.845   8.374  0.8166 -0.6856 -0.0884
  155SAPE  H17S17254   5.935   1.694   8.325  1.3346  0.2811  0.4214
  155SAPE  C21817255   5.829   1.816   8.477  0.2719 -0.1734 -0.1779
  155SAPE  H18R17256   5.720   1.804   8.460  0.4260 -0.8247 -0.7373
  155SAPE  H18S17257   5.838   1.916   8.526  1.5719 -0.5246  0.3545
  155SAPE  C21917258   5.884   1.724   8.583  0.7192  0.4536 -0.6318
  155SAPE  H19R17259   5.922   1.629   8.540  0.5140 -0.1621  0.5109
  155SAPE  H19S17260   5.801   1.696   8.651  0.4178 -2.5028 -2.0651
  155SAPE  C22017261   5.997   1.792   8.660 -0.1524  0.3726 -0.0854
  155SAPE  H20R17262   6.069   1.844   8.594  2.3257 -2.4958  0.1475
  155SAPE  H20S17263   6.049   1.718   8.724 -0.2738 -0.2433 -0.6846
  155SAPE  H20T17264   5.951   1.865   8.730  0.2708  0.6410 -0.0896
  155SAPE   C3317265   6.351   2.278   6.962  0.5840 -0.3151  0.5405
  155SAPE   H3X17266   6.423   2.279   6.877 -0.4792 -2.4244 -0.4410
  155SAPE   H3Y17267   6.393   2.198   7.026  0.4494 -0.3486  0.5872
  155SAPE   C3417268   6.349   2.406   7.039 -0.0373 -0.1560 -0.0802
  155SAPE   H4X17269   6.284   2.398   7.129  1.1640  2.0041  1.0854
  155SAPE   H4Y17270   6.302   2.483   6.973  1.4672  1.1455  0.2919
  155SAPE   C3517271   6.476   2.471   7.082  0.6210  0.0866  0.1236
  155SAPE   H5X17272   6.447   2.576   7.103 -2.6995 -0.4928 -0.9347
  155SAPE   H5Y17273   6.547   2.461   6.998  0.0798 -0.7679 -0.2468
  155SAPE   C3617274   6.539   2.406   7.203  0.1020  0.1776 -0.1316
  155SAPE   H6X17275   6.645   2.441   7.203 -0.3972  1.8046  0.5223
  155SAPE   H6Y17276   6.531   2.299   7.178 -3.8868 -0.3444  2.4702
  155SAPE   C3717277   6.473   2.444   7.343  0.2272  1.0608 -1.2623
  155SAPE   H7X17278   6.365   2.423   7.327  0.3213  1.1545 -2.0733
  155SAPE   H7Y17279   6.499   2.547   7.373 -0.0374  0.3062  1.9175
  155SAPE   C3817280   6.514   2.352   7.461 -0.3595 -0.0076 -0.3591
  155SAPE   H8X17281   6.622   2.330   7.456 -0.2169  0.1232  1.3745
  155SAPE   H8Y17282   6.466   2.252   7.465 -0.2890 -0.0147  2.0797
  155SAPE   C3917283   6.481   2.418   7.602 -0.0936  0.6800  0.3098
  155SAPE   H9X17284   6.370   2.425   7.607 -0.0672  0.9864  0.5071
  155SAPE   H9Y17285   6.524   2.520   7.611 -1.7286  1.3622  0.8146
  155SAPE  C31017286   6.539   2.338   7.720  0.7268 -0.1641 -1.5712
  155SAPE  H10X17287   6.644   2.305   7.707  0.2827 -3.5560  1.7493
  155SAPE  H10Y17288   6.479   2.249   7.750  1.2862  0.0486  0.2946
  155SAPE  C31117289   6.529   2.432   7.835 -0.2265  0.5220  0.0475
  155SAPE  H11X17290   6.427   2.471   7.850 -0.6331 -0.1966 -0.7762
  155SAPE  H11Y17291   6.596   2.521   7.833  0.3324  0.1086 -0.0314
  155SAPE  C31217292   6.572   2.362   7.969  1.4955  0.1497  0.2058
  155SAPE  H12X17293   6.530   2.260   7.964 -1.1875  1.1491  0.4895
  155SAPE  H12Y17294   6.524   2.412   8.056  0.6383 -1.9978  1.0105
  155SAPE  C31317295   6.721   2.373   8.004 -0.3827 -0.2670  0.0891
  155SAPE  H13X17296   6.750   2.480   8.013  1.9197 -0.8415  0.2642
  155SAPE  H13Y17297   6.786   2.339   7.921  0.3730 -0.9871  0.9523
  155SAPE  C31417298   6.745   2.293   8.135 -0.0103  0.1188 -0.0661
  155SAPE  H14X17299   6.852   2.274   8.155  0.0203 -0.1293 -0.4625
  155SAPE  H14Y17300   6.706   2.190   8.124  0.5404 -0.1532  0.4760
  155SAPE  C31517301   6.687   2.365   8.264 -0.0885 -0.5340 -0.2945
  155SAPE  H15X17302   6.584   2.326   8.284  0.6027 -2.0362  0.5062
  155SAPE  H15Y17303   6.671   2.474   8.253  1.3921 -0.2854 -0.0982
  155SAPE  C31617304   6.773   2.337   8.392 -0.2967  0.5237  0.4262
  155SAPE  H16X17305   6.744   2.407   8.473 -1.1491 -0.4344  0.9662
  155SAPE  H16Y17306   6.879   2.365   8.373 -0.6881  1.8572  0.1017
  155SAPE  C31717307   6.754   2.192   8.447 -0.2325 -0.1053 -0.2671
  155SAPE  H17X17308   6.698   2.129   8.374  1.1383 -2.4323  0.5782
  155SAPE  H17Y17309   6.694   2.201   8.540  0.0072  2.2782 -0.2703
  155SAPE  C31817310   6.895   2.134   8.480  0.7103 -0.0563 -0.5681
  155SAPE  H18X17311   6.886   2.032   8.522 -1.0812  0.8474  1.4504
  155SAPE  H18Y17312   6.945   2.188   8.563 -1.5307 -0.3534  1.0674
  155SAPE  H18Z17313   6.968   2.133   8.397  2.4437  0.2222  0.8985
  156SAPE     N17314   4.554   2.693   6.406 -0.2313  0.7301 -0.2688
  156SAPE   HN117315   4.556   2.606   6.350 -1.4350  1.7855 -2.0581
  156SAPE   HN217316   4.650   2.723   6.433  0.2716 -0.6804 -0.4268
  156SAPE   HN317317   4.503   2.678   6.496 -0.1031 -1.4727 -0.5125
  156SAPE   C1217318   4.490   2.812   6.338  0.3018  0.0189 -0.0587
  156SAPE  H12A17319   4.383   2.789   6.323 -0.3056  2.3075  0.3379
  156SAPE  H12B17320   4.543   2.826   6.241  0.6759 -1.0618 -0.0183
  156SAPE   C1117321   4.504   2.943   6.423  0.3013 -0.3868 -0.2449
  156SAPE  H11A17322   4.444   3.019   6.368  1.4622  2.5680  2.3197
  156SAPE  H11B17323   4.611   2.972   6.419 -0.2915  1.8123 -1.5595
  156SAPE     P17324   4.533   2.989   6.681  0.2756 -0.2479 -0.0383
  156SAPE   O1317325   4.672   2.952   6.675 -0.2097 -0.0522  0.1402
  156SAPE   O1417326   4.498   3.132   6.697 -0.2369  0.0360  0.1683
  156SAPE   O1217327   4.462   2.917   6.560  0.6685  0.2490  0.4064
  156SAPE   O1117328   4.468   2.903   6.795  0.0962  0.0899  0.0857
  156SAPE    C117329   4.327   2.873   6.795 -0.1315 -0.6415  0.4672
  156SAPE    HA17330   4.268   2.967   6.787  0.2487 -0.3921  0.5841
  156SAPE    HB17331   4.298   2.801   6.715 -0.6488 -0.5061  0.5289
  156SAPE    C217332   4.281   2.810   6.928  0.3165  0.2612  0.3472
  156SAPE    HS17333   4.172   2.830   6.933  0.5883  1.9893 -0.1315
  156SAPE   O2117334   4.345   2.865   7.043 -0.3041 -0.0987 -0.4745
  156SAPE   C2117335   4.336   2.997   7.058 -0.7744  0.0621  0.1962
  156SAPE   O2217336   4.267   3.075   6.994  0.1602 -0.1584 -0.0993
  156SAPE   C2217337   4.407   3.037   7.189  0.2003 -0.0058  0.3470
  156SAPE   H2R17338   4.516   3.035   7.167 -0.0351 -2.3273 -0.8916
  156SAPE   H2S17339   4.365   3.138   7.213 -2.1936 -1.0421  0.8342
  156SAPE    C317340   4.304   2.658   6.923  0.6311 -0.4808  0.1882
  156SAPE    HX17341   4.405   2.638   6.882  1.0274  0.5645  0.5928
  156SAPE    HY17342   4.241   2.605   6.849  2.0295 -3.1927  0.8301
  156SAPE   O3117343   4.300   2.594   7.054  0.9907 -0.0064 -0.0742
  156SAPE   C3117344   4.187   2.566   7.109  0.4445 -0.0681 -0.1735
  156SAPE   O3217345   4.070   2.576   7.065  0.0681  0.0312 -0.6711
  156SAPE   C3217346   4.209   2.507   7.250 -0.9876  0.0204 -0.3211
  156SAPE   H2X17347   4.286   2.428   7.235 -1.2464 -0.7037  1.8550
  156SAPE   H2Y17348   4.121   2.452   7.290  0.1025 -0.3643  1.6941
  156SAPE   C2317349   4.384   2.948   7.308 -0.5456 -0.1623  0.3991
  156SAPE   H3R17350   4.427   2.849   7.283  0.1657  0.0322  0.8381
  156SAPE   H3S17351   4.276   2.944   7.333 -0.3888 -1.0480  0.9523
  156SAPE   C2417352   4.458   3.004   7.435  0.7183 -0.1246  0.5365
  156SAPE   H4R17353   4.568   2.996   7.421  1.1417  2.8088  1.5217
  156SAPE   H4S17354   4.432   2.930   7.514  0.0417  2.0803  2.5007
  156SAPE   C2517355   4.409   3.142   7.479 -0.3719  0.3515 -0.5510
  156SAPE   H5R17356   4.390   3.218   7.402 -0.4421  0.5087 -0.3788
  156SAPE   C2617357   4.383   3.180   7.604  0.2870  0.1917 -0.3622
  156SAPE   H6R17358   4.338   3.278   7.624 -1.6610 -0.7602  0.1455
  156SAPE   C2717359   4.392   3.088   7.724  0.0402  0.3332  0.0244
  156SAPE   H7R17360   4.454   2.997   7.710 -1.6014 -0.7258 -0.8223
  156SAPE   H7S17361   4.296   3.040   7.752 -0.7666  1.1384 -1.2307
  156SAPE   C2817362   4.447   3.159   7.843 -0.3350 -0.2378  0.1854
  156SAPE   H8R17363   4.551   3.191   7.829  0.0320 -1.0216  1.0346
  156SAPE   C2917364   4.387   3.175   7.963  0.3488  0.1329  0.2905
  156SAPE   H9R17365   4.444   3.211   8.049 -0.6138  0.4053  0.8231
  156SAPE  C21017366   4.249   3.125   7.998  0.2896 -0.7927  0.8428
  156SAPE  H10R17367   4.255   3.072   8.096 -2.1558  1.0736  2.1161
  156SAPE  H10S17368   4.230   3.040   7.930  2.1183  1.6912 -3.0792
  156SAPE  C21117369   4.144   3.231   7.979  0.4221  0.0454 -0.1149
  156SAPE  H11R17370   4.164   3.304   7.900 -0.4769  1.5865  1.0248
  156SAPE  C21217371   4.037   3.251   8.064 -0.1440 -0.4827  0.8289
  156SAPE  H12R17372   3.961   3.328   8.046  0.2410  0.3908  2.6756
  156SAPE  C21317373   4.017   3.178   8.191 -0.1306 -0.1793  0.4345
  156SAPE  H13R17374   4.062   3.076   8.187 -0.6001 -0.4449  1.4807
  156SAPE  H13S17375   3.908   3.176   8.211 -0.1464 -0.8753  0.3013
  156SAPE  C21417376   4.093   3.250   8.304 -0.0560 -0.0042 -0.0465
  156SAPE  H14R17377   4.201   3.262   8.284 -0.4180  2.2480 -0.9229
  156SAPE  C21517378   4.041   3.303   8.410  0.0296 -0.9568  0.5883
  156SAPE  H15R17379   4.110   3.341   8.487  0.2040 -0.5092  0.2127
  156SAPE  C21617380   3.893   3.307   8.455 -0.0983  0.3040 -0.4331
  156SAPE  H16R17381   3.888   3.296   8.566  0.8088 -2.5928 -0.6015
  156SAPE  H16S17382   3.832   3.223   8.415 -1.3014  0.3403  1.2041
  156SAPE  C21717383   3.830   3.437   8.419 -0.0985 -0.0957 -0.1870
  156SAPE  H17R17384   3.841   3.467   8.313 -0.9147  2.7202  0.4355
  156SAPE  H17S17385   3.891   3.517   8.467  0.7191  0.2942 -1.7914
  156SAPE  C21817386   3.692   3.463   8.472  0.1971 -0.5453  0.0600
  156SAPE  H18R17387   3.667   3.450   8.580 -3.1374 -2.3737 -0.7954
  156SAPE  H18S17388   3.632   3.390   8.414 -2.2742  0.1445  1.5792
  156SAPE  C21917389   3.640   3.600   8.420 -0.0505  0.0038 -0.4601
  156SAPE  H19R17390   3.709   3.627   8.337  0.6023 -1.0075 -0.2557
  156SAPE  H19S17391   3.664   3.678   8.494 -1.6413 -0.4275  0.5647
  156SAPE  C22017392   3.500   3.609   8.379  0.3453  0.2012  0.0645
  156SAPE  H20R17393   3.470   3.714   8.398  2.0611  0.8331 -0.5767
  156SAPE  H20S17394   3.418   3.556   8.432 -0.7630  0.0469 -1.7070
  156SAPE  H20T17395   3.489   3.587   8.270  1.3662  0.3684 -0.0808
  156SAPE   C3317396   4.258   2.609   7.350 -0.3416  0.0892 -0.2888
  156SAPE   H3X17397   4.184   2.690   7.368  0.0800  0.1311  1.3776
  156SAPE   H3Y17398   4.357   2.651   7.322 -0.4140  0.4324 -0.0349
  156SAPE   C3417399   4.280   2.547   7.487 -0.1673  0.1867  0.3976
  156SAPE   H4X17400   4.355   2.465   7.478  1.9114  1.8798  1.4930
  156SAPE   H4Y17401   4.186   2.499   7.523 -2.3984  1.5929 -3.0016
  156SAPE   C3517402   4.321   2.651   7.582  0.1690 -0.4466  0.3161
  156SAPE   H5X17403   4.255   2.740   7.583 -1.6789 -1.7348 -1.0382
  156SAPE   H5Y17404   4.421   2.684   7.545 -1.7183  1.3999 -3.8550
  156SAPE   C3617405   4.325   2.597   7.725 -0.2993 -0.3110  0.2708
  156SAPE   H6X17406   4.390   2.507   7.733  0.3382  0.2423  1.6294
  156SAPE   H6Y17407   4.220   2.580   7.757 -0.4201  0.5466  0.3619
  156SAPE   C3717408   4.383   2.696   7.833  0.1132 -0.2531  0.8013
  156SAPE   H7X17409   4.333   2.794   7.821  0.6244 -0.1766 -0.9557
  156SAPE   H7Y17410   4.491   2.713   7.811 -0.2389 -0.6755 -1.5120
  156SAPE   C3817411   4.376   2.638   7.978 -0.0056  0.2864  0.1216
  156SAPE   H8X17412   4.274   2.603   8.003  0.0119 -1.5511 -2.0778
  156SAPE   H8Y17413   4.396   2.725   8.045 -0.5664 -0.3398  1.1171
  156SAPE   C3917414   4.480   2.526   8.000 -0.7901  0.1399 -0.6284
  156SAPE   H9X17415   4.581   2.570   7.992 -0.6740  0.2927  1.2438
  156SAPE   H9Y17416   4.462   2.453   7.918 -0.0147 -0.2233 -0.4809
  156SAPE  C31017417   4.461   2.446   8.128 -0.2483 -0.0185 -0.6984
  156SAPE  H10X17418   4.547   2.376   8.143 -1.2148 -0.6638  2.8441
  156SAPE  H10Y17419   4.376   2.375   8.117  0.7760 -1.7441  1.4635
  156SAPE  C31117420   4.454   2.529   8.260 -0.4065  0.3547  0.2541
  156SAPE  H11X17421   4.351   2.571   8.269 -0.1938  1.1523 -0.8390
  156SAPE  H11Y17422   4.533   2.607   8.253 -0.9194  0.6983 -3.1961
  156SAPE  C31217423   4.483   2.440   8.381  0.1151  0.7495 -0.8436
  156SAPE  H12X17424   4.552   2.356   8.359 -2.4882 -1.8587  0.3009
  156SAPE  H12Y17425   4.388   2.391   8.412  1.5978 -0.9214  1.3513
  156SAPE  C31317426   4.541   2.517   8.502  0.2135  0.8364 -0.1352
  156SAPE  H13X17427   4.520   2.458   8.594 -1.7016 -1.4969 -1.9417
  156SAPE  H13Y17428   4.482   2.608   8.526  0.9546  0.7891  2.1161
  156SAPE  C31417429   4.690   2.546   8.490  0.4071 -0.6112  0.3971
  156SAPE  H14X17430   4.728   2.607   8.405  0.5834  0.4641  1.2357
  156SAPE  H14Y17431   4.741   2.447   8.485  2.6446  0.5364 -2.0752
  156SAPE  C31517432   4.735   2.611   8.620  0.1257 -0.1813  0.2949
  156SAPE  H15X17433   4.846   2.617   8.618  0.0836  1.2740 -2.0006
  156SAPE  H15Y17434   4.707   2.547   8.706  0.9161  0.7626  1.2816
  156SAPE  C31617435   4.670   2.749   8.638  0.5227  0.0945 -0.0183
  156SAPE  H16X17436   4.559   2.739   8.644  0.4769  0.4346 -0.2631
  156SAPE  H16Y17437   4.692   2.815   8.551 -0.4534  0.5823  0.0929
  156SAPE  C31717438   4.723   2.821   8.763  0.0552 -0.0847 -0.9579
  156SAPE  H17X17439   4.834   2.822   8.776 -0.0428 -0.3352 -0.0243
  156SAPE  H17Y17440   4.693   2.755   8.847  0.8488  1.3891  0.5479
  156SAPE  C31817441   4.671   2.969   8.786 -0.4284  0.0510  0.5746
  156SAPE  H18X17442   4.718   3.013   8.876 -0.5990 -0.2950  0.8315
  156SAPE  H18Y17443   4.562   2.975   8.802 -0.4423 -0.1742  0.5712
  156SAPE  H18Z17444   4.704   3.029   8.698  0.8860 -0.7616  0.4791
  157SAPE     N17445   2.240   4.993   6.530  0.0486 -0.4569 -0.5305
  157SAPE   HN117446   2.250   5.071   6.599  0.9915 -0.9380 -0.1144
  157SAPE   HN217447   2.277   5.016   6.436  0.7932 -1.6608 -0.5396
  157SAPE   HN317448   2.143   4.963   6.509 -0.0397  1.1467 -2.6984
  157SAPE   C1217449   2.323   4.879   6.588 -0.4713 -0.5742  0.0102
  157SAPE  H12A17450   2.314   4.788   6.525 -0.9290 -0.8147  0.4235
  157SAPE  H12B17451   2.274   4.854   6.685 -0.7165 -1.8821 -0.4368
  157SAPE   C1117452   2.476   4.917   6.586 -0.0473  1.1181  0.3041
  157SAPE  H11A17453   2.548   4.838   6.615 -0.0315  0.8689 -0.4050
  157SAPE  H11B17454   2.480   4.989   6.671 -0.2577 -0.4367  1.6868
  157SAPE     P17455   2.655   5.012   6.425 -0.2450 -0.0407  0.0395
  157SAPE   O1317456   2.726   4.882   6.404 -0.0407  0.8308  0.3996
  157SAPE   O1417457   2.658   5.098   6.302 -0.0011  0.1172  0.3884
  157SAPE   O1217458   2.505   4.977   6.457 -0.2328  0.0642  0.2193
  157SAPE   O1117459   2.703   5.098   6.549 -0.1907  0.2089  0.0042
  157SAPE    C117460   2.651   5.234   6.558  0.2647 -0.8158 -0.3716
  157SAPE    HA17461   2.698   5.297   6.479 -1.6072  0.8221 -0.2520
  157SAPE    HB17462   2.547   5.252   6.525  0.6696  0.7941 -0.8604
  157SAPE    C217463   2.666   5.292   6.699  0.1512  0.0228 -0.0165
  157SAPE    HS17464   2.596   5.245   6.772  0.5711 -0.0040  0.3710
  157SAPE   O2117465   2.641   5.435   6.694 -0.3970 -0.7174  0.5091
  157SAPE   C2117466   2.522   5.476   6.724  0.2205 -0.0230  0.1342
  157SAPE   O2217467   2.425   5.404   6.744  0.2530 -0.4106 -0.4192
  157SAPE   C2217468   2.522   5.629   6.744 -0.5904  0.1383  0.4747
  157SAPE   H2R17469   2.571   5.669   6.653  1.1489  1.0901  1.7741
  157SAPE   H2S17470   2.418   5.666   6.751  0.4280  3.0755  1.7644
  157SAPE    C317471   2.811   5.266   6.751  0.1998  0.0174  0.5913
  157SAPE    HX17472   2.890   5.318   6.692 -0.3964 -0.7730 -0.9475
  157SAPE    HY17473   2.837   5.159   6.738 -0.5983 -0.0236 -0.8545
  157SAPE   O3117474   2.818   5.302   6.892 -0.1620  0.9917 -0.8231
  157SAPE   C3117475   2.767   5.213   6.973 -0.0796 -0.4787  0.0804
  157SAPE   O3217476   2.713   5.111   6.937 -1.2027 -0.2467  0.6560
  157SAPE   C3217477   2.801   5.241   7.122 -0.1869  0.6719  0.3894
  157SAPE   H2X17478   2.751   5.155   7.171 -0.9229  0.8928  0.0450
  157SAPE   H2Y17479   2.743   5.334   7.142  1.4794  2.0657 -0.8650
  157SAPE   C2317480   2.602   5.685   6.861  0.2465  0.5215  1.0034
  157SAPE   H3R17481   2.600   5.795   6.878  1.6971  0.3997  2.1215
  157SAPE   H3S17482   2.705   5.656   6.832  0.4518  1.4724  0.7457
  157SAPE   C2417483   2.569   5.625   6.995  0.1287  0.7745 -0.5374
  157SAPE   H4R17484   2.609   5.522   6.991 -2.3738 -0.5178  2.8062
  157SAPE   H4S17485   2.460   5.638   7.012  0.5194  0.3025  3.3296
  157SAPE   C2517486   2.654   5.679   7.111  0.3184 -0.4415  0.7046
  157SAPE   H5R17487   2.695   5.779   7.093 -1.2056 -0.0157 -0.6743
  157SAPE   C2617488   2.668   5.637   7.236  0.6231  1.1631  0.7448
  157SAPE   H6R17489   2.716   5.690   7.319 -0.6177  1.8292  1.0648
  157SAPE   C2717490   2.594   5.518   7.290  0.3159  0.3472 -0.0797
  157SAPE   H7R17491   2.656   5.454   7.356 -0.0225  0.3169  0.2135
  157SAPE   H7S17492   2.565   5.451   7.206  1.0001  1.3230 -1.1258
  157SAPE   C2817493   2.469   5.560   7.368  0.3845  0.6562  0.5503
  157SAPE   H8R17494   2.381   5.601   7.316  0.0996  1.4652  1.6244
  157SAPE   C2917495   2.460   5.562   7.496  0.8101 -0.1799 -0.3844
  157SAPE   H9R17496   2.367   5.596   7.544  0.2605 -1.5552 -0.4355
  157SAPE  C21017497   2.560   5.498   7.596  0.0479  0.4576 -0.1246
  157SAPE  H10R17498   2.653   5.456   7.552  0.2034  0.7942 -0.1170
  157SAPE  H10S17499   2.508   5.407   7.636  0.0826 -0.2386 -1.6164
  157SAPE  C21117500   2.600   5.577   7.719  0.1595 -0.1064  0.8043
  157SAPE  H11R17501   2.694   5.633   7.701 -0.0834 -0.9082 -4.6017
  157SAPE  C21217502   2.524   5.590   7.829  0.2404 -0.2435 -0.5930
  157SAPE  H12R17503   2.554   5.662   7.906 -1.0239 -1.0550  0.7141
  157SAPE  C21317504   2.394   5.529   7.869  0.0001 -0.0462  0.2639
  157SAPE  H13R17505   2.387   5.440   7.802  3.5916  1.1295 -1.9354
  157SAPE  H13S17506   2.311   5.594   7.835  0.4280  0.4866  0.2279
  157SAPE  C21417507   2.388   5.483   8.010 -0.1140 -0.0272 -0.7132
  157SAPE  H14R17508   2.460   5.404   8.034 -1.7229 -1.4704 -0.4277
  157SAPE  C21517509   2.303   5.526   8.107 -0.4666  0.4053  0.2660
  157SAPE  H15R17510   2.310   5.482   8.207  2.6931  1.6816  0.7416
  157SAPE  C21617511   2.201   5.633   8.098  0.6978 -0.0737  0.1345
  157SAPE  H16R17512   2.168   5.654   7.994 -2.9793  2.2339  1.5723
  157SAPE  H16S17513   2.238   5.728   8.143  0.5236  0.8129 -1.5243
  157SAPE  C21717514   2.070   5.601   8.176 -0.2440  0.0429 -0.1841
  157SAPE  H17R17515   2.095   5.599   8.284  1.8569  0.8091 -0.6164
  157SAPE  H17S17516   2.022   5.505   8.147  2.0616 -1.3745  0.4015
  157SAPE  C21817517   1.956   5.700   8.165 -0.3740  0.0227  0.4142
  157SAPE  H18R17518   1.867   5.668   8.222 -0.0609  1.3506  1.7182
  157SAPE  H18S17519   1.919   5.700   8.060  1.8487  1.7964 -0.4464
  157SAPE  C21917520   1.997   5.839   8.223 -0.4580  0.0879 -0.3196
  157SAPE  H19R17521   1.927   5.924   8.209  1.4588  1.7212 -0.5112
  157SAPE  H19S17522   2.088   5.867   8.165  0.2568  1.1747  1.2519
  157SAPE  C22017523   2.038   5.840   8.370  0.2304 -0.0863  0.3124
  157SAPE  H20R17524   1.970   5.777   8.431 -0.6165  1.6183  1.2274
  157SAPE  H20S17525   2.044   5.945   8.408 -1.6675  0.5478 -0.9695
  157SAPE  H20T17526   2.139   5.798   8.385  0.8075  1.2905  0.4542
  157SAPE   C3317527   2.953   5.254   7.140  0.2459 -0.3627 -0.7947
  157SAPE   H3X17528   2.983   5.332   7.067 -0.1428  2.1671  1.6208
  157SAPE   H3Y17529   3.001   5.157   7.113  1.5641 -0.1700  0.7560
  157SAPE   C3417530   2.992   5.298   7.279  0.3676 -0.4075 -0.1507
  157SAPE   H4X17531   2.924   5.384   7.297 -1.5431 -1.5938 -1.2984
  157SAPE   H4Y17532   3.095   5.340   7.288 -0.4712  1.6139  0.7581
  157SAPE   C3517533   2.972   5.188   7.384  0.0706  0.1126 -0.4929
  157SAPE   H5X17534   2.991   5.096   7.325 -1.5670  0.8787 -2.3258
  157SAPE   H5Y17535   2.865   5.184   7.411  0.4021 -1.6936  0.7513
  157SAPE   C3617536   3.055   5.208   7.511  0.7109 -0.5854  0.3365
  157SAPE   H6X17537   3.162   5.219   7.484  0.7496 -2.3482 -0.3185
  157SAPE   H6Y17538   3.054   5.120   7.579 -0.9568 -1.4666 -0.7529
  157SAPE   C3717539   2.997   5.325   7.591  0.8552  0.1251 -0.3935
  157SAPE   H7X17540   2.887   5.307   7.593  0.6546  1.3164  1.0155
  157SAPE   H7Y17541   3.006   5.426   7.545  1.7169  0.9454  1.4622
  157SAPE   C3817542   3.034   5.340   7.739  0.7309  0.5761 -0.9908
  157SAPE   H8X17543   2.988   5.254   7.793 -1.7683  1.2084 -1.9971
  157SAPE   H8Y17544   2.986   5.431   7.780  0.8106  0.4746 -0.6729
  157SAPE   C3917545   3.183   5.327   7.764  0.2002 -0.2571  0.4416
  157SAPE   H9X17546   3.233   5.412   7.713  1.2873  0.1207  2.0667
  157SAPE   H9Y17547   3.218   5.229   7.724  0.5462 -0.4317  1.1745
  157SAPE  C31017548   3.227   5.341   7.909 -0.5672 -0.3067  0.4254
  157SAPE  H10X17549   3.185   5.439   7.942 -0.0237  0.1494 -0.2072
  157SAPE  H10Y17550   3.338   5.341   7.910 -0.5536 -0.5152 -0.2873
  157SAPE  C31117551   3.180   5.227   7.996  0.3830  0.6577 -0.0826
  157SAPE  H11X17552   3.175   5.140   7.927  0.2250  0.4177  0.2296
  157SAPE  H11Y17553   3.072   5.239   8.020  0.7464  0.5645  1.7579
  157SAPE  C31217554   3.256   5.215   8.126  0.4775 -0.3936  0.6510
  157SAPE  H12X17555   3.364   5.201   8.102  0.2391 -0.0984 -0.6505
  157SAPE  H12Y17556   3.225   5.132   8.193  0.6699  0.6010  2.0248
  157SAPE  C31317557   3.242   5.334   8.215 -0.3078 -0.4658  0.0667
  157SAPE  H13X17558   3.133   5.352   8.223 -0.6373 -2.4983  0.5712
  157SAPE  H13Y17559   3.292   5.422   8.169  1.8516 -1.4187  0.4514
  157SAPE  C31417560   3.302   5.307   8.350 -0.0546 -0.6448  0.3114
  157SAPE  H14X17561   3.409   5.291   8.324 -0.4782 -0.2952 -1.8335
  157SAPE  H14Y17562   3.270   5.210   8.393 -0.6657  0.3831  2.3280
  157SAPE  C31517563   3.266   5.420   8.450  0.5711  0.0209 -0.6102
  157SAPE  H15X17564   3.157   5.404   8.465  0.4209  2.0411  0.7496
  157SAPE  H15Y17565   3.269   5.524   8.413 -3.1082  0.5848  0.3224
  157SAPE  C31617566   3.341   5.411   8.582  0.1991  0.0432  0.1667
  157SAPE  H16X17567   3.372   5.305   8.587 -1.1600 -0.3375  1.2838
  157SAPE  H16Y17568   3.271   5.425   8.667  0.5420  0.7376  0.3421
  157SAPE  C31717569   3.464   5.506   8.589 -0.4621  0.8066  0.3052
  157SAPE  H17X17570   3.504   5.501   8.693 -0.3852 -0.6531  0.2375
  157SAPE  H17Y17571   3.434   5.612   8.576 -0.0536  0.8395 -0.4159
  157SAPE  C31817572   3.580   5.471   8.500  0.3743 -0.3251 -0.6767
  157SAPE  H18X17573   3.640   5.564   8.489 -1.5885  1.1099 -0.0449
  157SAPE  H18Y17574   3.543   5.430   8.403  1.8274 -0.1282 -1.3466
  157SAPE  H18Z17575   3.647   5.401   8.552  0.9837  0.9426  0.3001
  158SAPE     N17576   2.156   2.192   6.511  0.0393 -0.5837 -0.1877
  158SAPE   HN117577   2.182   2.181   6.411 -1.1506  0.3517 -0.6264
  158SAPE   HN217578   2.248   2.214   6.556 -0.3613 -1.0027  0.8667
  158SAPE   HN317579   2.135   2.095   6.540  0.4190 -1.7445 -3.3553
  158SAPE   C1217580   2.054   2.297   6.545 -0.1616  0.5456  0.8849
  158SAPE  H12A17581   2.044   2.320   6.653 -2.3079  0.6043  0.7193
  158SAPE  H12B17582   1.960   2.248   6.511 -0.2037  1.8693 -1.0613
  158SAPE   C1117583   2.080   2.430   6.473 -0.3012  0.0804 -0.7055
  158SAPE  H11A17584   2.004   2.497   6.517 -0.1363 -0.5902  0.6643
  158SAPE  H11B17585   2.056   2.410   6.367  1.8857 -0.1133 -1.2288
  158SAPE     P17586   2.262   2.620   6.460  0.6974 -0.1326  0.2177
  158SAPE   O1317587   2.404   2.634   6.488 -0.5705  0.4200 -0.0339
  158SAPE   O1417588   2.215   2.651   6.322  0.2013  0.2515 -0.0481
  158SAPE   O1217589   2.214   2.470   6.491  0.1384 -0.0349 -0.1159
  158SAPE   O1117590   2.179   2.728   6.543  0.0895  0.2831 -0.0754
  158SAPE    C117591   2.145   2.696   6.675 -0.1330  0.0453 -0.2624
  158SAPE    HA17592   2.035   2.706   6.688 -0.1667 -1.6455  1.0371
  158SAPE    HB17593   2.170   2.593   6.710 -1.2968 -0.2548 -0.2675
  158SAPE    C217594   2.193   2.807   6.772  0.1066 -0.0059 -1.3500
  158SAPE    HS17595   2.303   2.816   6.787 -0.2906  1.9222  1.0161
  158SAPE   O2117596   2.128   2.777   6.895  0.4847  0.3601 -0.4244
  158SAPE   C2117597   2.199   2.792   7.001  0.2160  0.2353  0.3853
  158SAPE   O2217598   2.319   2.814   7.009 -0.2528  0.2182  0.3468
  158SAPE   C2217599   2.107   2.760   7.121  0.1379 -0.4751  0.3432
  158SAPE   H2R17600   2.003   2.794   7.106 -0.2848 -1.5060  0.8298
  158SAPE   H2S17601   2.099   2.649   7.121 -0.6866 -0.4242 -0.5302
  158SAPE    C317602   2.150   2.954   6.721  0.1417  0.3564  0.4485
  158SAPE    HX17603   2.046   2.948   6.682  1.1373 -0.0725 -2.3613
  158SAPE    HY17604   2.199   2.984   6.626 -0.8798  0.3223 -0.0995
  158SAPE   O3117605   2.158   3.056   6.825  0.7411  0.0605 -0.0589
  158SAPE   C3117606   2.283   3.110   6.846  0.2901 -0.0589  0.2553
  158SAPE   O3217607   2.369   3.113   6.764 -0.4221 -0.3598 -0.1558
  158SAPE   C3217608   2.285   3.152   6.992 -0.1625  0.3974 -0.4332
  158SAPE   H2X17609   2.278   3.053   7.041  0.2398  0.2301 -0.7099
  158SAPE   H2Y17610   2.197   3.212   7.022 -0.0880  0.7918 -0.9881
  158SAPE   C2317611   2.144   2.814   7.267  0.1919  0.9915  0.4689
  158SAPE   H3R17612   2.141   2.925   7.273  1.2279  0.9878  1.1763
  158SAPE   H3S17613   2.245   2.776   7.292  0.3566  0.1204 -1.3027
  158SAPE   C2417614   2.060   2.749   7.379  0.6913  0.1416  0.0730
  158SAPE   H4R17615   1.954   2.757   7.349  0.7134  1.4979  0.2969
  158SAPE   H4S17616   2.071   2.817   7.467  0.5793  0.8619 -0.4604
  158SAPE   C2517617   2.077   2.606   7.407 -0.0358 -0.2392 -0.0251
  158SAPE   H5R17618   2.050   2.539   7.324  0.1041 -1.3427  0.7978
  158SAPE   C2617619   2.146   2.552   7.508 -1.6142 -0.4980 -0.9535
  158SAPE   H6R17620   2.159   2.444   7.518 -1.0813 -0.6499 -2.9079
  158SAPE   C2717621   2.219   2.633   7.623 -0.2521  0.5477  0.1913
  158SAPE   H7R17622   2.229   2.738   7.589  0.6096  0.6831  0.8401
  158SAPE   H7S17623   2.321   2.601   7.654 -0.7565  0.3548  1.7765
  158SAPE   C2817624   2.125   2.627   7.742  0.1470 -1.3522 -0.5159
  158SAPE   H8R17625   2.019   2.600   7.729  0.7651 -3.4417 -1.7074
  158SAPE   C2917626   2.163   2.641   7.872 -0.0350 -0.5545  0.0904
  158SAPE   H9R17627   2.081   2.638   7.945  1.0929 -0.3393  1.4162
  158SAPE  C21017628   2.300   2.685   7.921  0.4443  0.5816  1.2454
  158SAPE  H10R17629   2.369   2.718   7.841 -2.2875 -0.9922 -2.0126
  158SAPE  H10S17630   2.341   2.593   7.969  0.6253  0.4824  0.9065
  158SAPE  C21117631   2.291   2.805   8.011  0.0599  0.4337  0.0268
  158SAPE  H11R17632   2.260   2.892   7.951  0.6281  0.9288  0.4396
  158SAPE  C21217633   2.303   2.817   8.146  0.6106 -0.4859  0.7690
  158SAPE  H12R17634   2.288   2.917   8.188 -0.3949 -0.0815 -0.4821
  158SAPE  C21317635   2.334   2.702   8.232  0.5748  0.3627 -0.3867
  158SAPE  H13R17636   2.350   2.604   8.181 -3.1992  0.8652 -2.9041
  158SAPE  H13S17637   2.256   2.691   8.310  0.0097 -0.1808 -1.0100
  158SAPE  C21417638   2.455   2.718   8.317 -0.2191  0.1616 -0.9491
  158SAPE  H14R17639   2.540   2.652   8.292 -1.4669 -1.2676 -1.6194
  158SAPE  C21517640   2.464   2.781   8.433 -0.2618 -0.5021  0.3838
  158SAPE  H15R17641   2.562   2.798   8.479 -0.7995  1.6751  0.8892
  158SAPE  C21617642   2.362   2.866   8.499  0.1894  0.3400  0.0707
  158SAPE  H16R17643   2.270   2.852   8.437  0.6205 -0.9707 -0.3157
  158SAPE  H16S17644   2.389   2.974   8.498  0.4747  0.3370  2.1999
  158SAPE  C21717645   2.316   2.825   8.639 -0.7257 -0.1600 -0.2367
  158SAPE  H17R17646   2.304   2.715   8.627 -1.4073 -0.3845  2.0779
  158SAPE  H17S17647   2.218   2.866   8.672 -0.8876 -0.2882 -0.5500
  158SAPE  C21817648   2.415   2.854   8.751 -0.0422 -0.5964 -0.1808
  158SAPE  H18R17649   2.493   2.776   8.742  0.2820 -0.4023  0.7856
  158SAPE  H18S17650   2.373   2.826   8.850 -0.7639  2.3509  0.4395
  158SAPE  C21917651   2.458   2.992   8.775  0.4180 -0.5566  0.3740
  158SAPE  H19R17652   2.376   3.066   8.762 -0.0401 -0.5742  2.7677
  158SAPE  H19S17653   2.528   3.021   8.693 -0.0454  1.1582  0.5504
  158SAPE  C22017654   2.525   3.022   8.905 -0.4613  0.2804  0.1293
  158SAPE  H20R17655   2.469   3.003   8.999  1.9389  0.5219  1.6853
  158SAPE  H20S17656   2.533   3.132   8.912  1.4332  0.2988 -1.5140
  158SAPE  H20T17657   2.621   2.971   8.928 -1.5189 -1.8700  0.1159
  158SAPE   C3317658   2.417   3.221   7.033  0.4510 -0.2124  0.1145
  158SAPE   H3X17659   2.433   3.309   6.967  1.7992  0.3507  1.1346
  158SAPE   H3Y17660   2.510   3.161   7.019  0.6843  0.3358 -0.8115
  158SAPE   C3417661   2.428   3.265   7.182  0.4421 -0.2200  1.0154
  158SAPE   H4X17662   2.340   3.326   7.212 -1.1717 -1.1468 -1.5245
  158SAPE   H4Y17663   2.519   3.329   7.182  1.8137 -2.0855  0.5000
  158SAPE   C3517664   2.458   3.156   7.284 -0.5769  0.3557  0.7268
  158SAPE   H5X17665   2.536   3.088   7.244 -1.1872  0.3958 -0.5637
  158SAPE   H5Y17666   2.362   3.104   7.305 -0.3716 -0.4630 -0.3061
  158SAPE   C3617667   2.520   3.204   7.423 -0.1973 -0.4441  0.1577
  158SAPE   H6X17668   2.605   3.270   7.396 -0.5404 -0.6314 -1.4816
  158SAPE   H6Y17669   2.570   3.116   7.469 -0.6602 -1.1067 -0.5754
  158SAPE   C3717670   2.415   3.261   7.520 -0.7311  0.2023 -0.4537
  158SAPE   H7X17671   2.340   3.336   7.489 -0.6744  0.9407  1.0736
  158SAPE   H7Y17672   2.348   3.173   7.535 -0.9938  0.3242 -0.9117
  158SAPE   C3817673   2.465   3.297   7.665  0.0778 -1.1739 -0.3132
  158SAPE   H8X17674   2.369   3.335   7.708  0.2532 -0.2953 -0.6677
  158SAPE   H8Y17675   2.538   3.381   7.666 -0.9815 -0.2107 -1.0021
  158SAPE   C3917676   2.526   3.188   7.751 -0.1345 -0.3121  0.3151
  158SAPE   H9X17677   2.622   3.151   7.710  0.8447  0.8723  1.4497
  158SAPE   H9Y17678   2.450   3.109   7.737 -2.0994  1.5622 -0.1260
  158SAPE  C31017679   2.542   3.237   7.903 -0.3243  0.1644 -0.6872
  158SAPE  H10X17680   2.458   3.304   7.934  1.0388  1.8705 -0.5205
  158SAPE  H10Y17681   2.635   3.298   7.905  0.0582 -0.4101  0.9406
  158SAPE  C31117682   2.551   3.116   7.997 -0.1881  0.0020  0.1681
  158SAPE  H11X17683   2.637   3.055   7.962  1.1561  2.0754 -0.3544
  158SAPE  H11Y17684   2.459   3.055   7.996  0.2847 -0.7869  1.7703
  158SAPE  C31217685   2.578   3.163   8.136 -0.7862 -0.2025 -0.4034
  158SAPE  H12X17686   2.489   3.225   8.160 -0.2699  1.0140 -1.4710
  158SAPE  H12Y17687   2.671   3.225   8.136  1.1411 -2.9304  0.3097
  158SAPE  C31317688   2.596   3.048   8.237  0.7829 -0.3677  0.4546
  158SAPE  H13X17689   2.693   2.999   8.214  1.1272  0.1361  0.8069
  158SAPE  H13Y17690   2.510   2.980   8.227  0.6743 -0.0055 -1.5648
  158SAPE  C31417691   2.611   3.097   8.378 -0.2132 -0.0489 -0.6926
  158SAPE  H14X17692   2.600   3.018   8.456  0.6859  1.5451  1.1435
  158SAPE  H14Y17693   2.528   3.165   8.407 -0.9830 -0.7700 -1.1817
  158SAPE  C31517694   2.752   3.151   8.412  0.2608 -0.4718  0.3382
  158SAPE  H15X17695   2.764   3.248   8.360 -1.2262  1.2480  2.9524
  158SAPE  H15Y17696   2.818   3.077   8.362 -0.4090  1.1168 -3.1737
  158SAPE  C31617697   2.783   3.178   8.557  0.0596  0.3862  0.3920
  158SAPE  H16X17698   2.892   3.196   8.571  0.6965 -1.1294 -2.0102
  158SAPE  H16Y17699   2.752   3.089   8.616 -0.2139 -0.2001 -0.6154
  158SAPE  C31717700   2.721   3.312   8.609 -0.4930  0.6459  0.5746
  158SAPE  H17X17701   2.611   3.311   8.595 -0.5276 -0.9151  0.7095
  158SAPE  H17Y17702   2.757   3.393   8.542 -1.1129 -1.2244 -2.2385
  158SAPE  C31817703   2.733   3.340   8.761  0.1939 -0.1403 -0.5174
  158SAPE  H18X17704   2.695   3.443   8.779  0.2331 -0.1330 -0.4762
  158SAPE  H18Y17705   2.837   3.334   8.799 -0.1234 -1.4456  0.1768
  158SAPE  H18Z17706   2.671   3.267   8.817  0.8729 -0.6239 -0.3858
  159SAPE     N17707   3.872   4.267   6.565 -0.9168 -0.0747 -0.4669
  159SAPE   HN117708   3.776   4.233   6.586 -1.8078  3.8579  3.3029
  159SAPE   HN217709   3.944   4.193   6.556 -0.0919  0.1300  3.1388
  159SAPE   HN317710   3.892   4.328   6.647  2.0478  0.6753 -1.6377
  159SAPE   C1217711   3.872   4.347   6.436 -0.3242  0.0676 -0.5015
  159SAPE  H12A17712   3.781   4.411   6.431 -0.4402  0.3077  2.6365
  159SAPE  H12B17713   3.880   4.269   6.358  0.0056 -1.3253  0.8632
  159SAPE   C1117714   3.993   4.437   6.414  0.8578 -0.6090 -0.5384
  159SAPE  H11A17715   3.985   4.464   6.307 -0.2560 -0.6572 -0.4806
  159SAPE  H11B17716   4.074   4.366   6.440 -0.3622 -1.6689  0.4414
  159SAPE     P17717   3.984   4.690   6.477  0.1194  0.0686 -0.6095
  159SAPE   O1317718   4.115   4.721   6.408 -0.1677  0.7063 -0.0407
  159SAPE   O1417719   3.865   4.717   6.396  0.3547 -0.3514 -0.2098
  159SAPE   O1217720   3.985   4.535   6.518  0.2905  0.4592  0.5994
  159SAPE   O1117721   3.960   4.770   6.611 -0.3561 -0.6437  0.8327
  159SAPE    C117722   3.870   4.710   6.708 -0.0949 -0.9887 -0.2546
  159SAPE    HA17723   3.784   4.657   6.663 -0.8725 -1.0496  1.2632
  159SAPE    HB17724   3.933   4.638   6.764  1.6766  0.4641 -0.2604
  159SAPE    C217725   3.806   4.813   6.808  0.1964  0.4332  0.1242
  159SAPE    HS17726   3.756   4.897   6.754  1.1256  1.6285  1.0724
  159SAPE   O2117727   3.915   4.870   6.889  0.3994  0.4800  0.9024
  159SAPE   C2117728   3.869   4.979   6.963 -0.0383  0.0888  0.4960
  159SAPE   O2217729   3.767   5.044   6.938 -0.2246 -0.2035 -0.0929
  159SAPE   C2217730   3.971   4.993   7.080  0.0344 -0.8888  0.3249
  159SAPE   H2R17731   4.021   4.898   7.110 -0.3670 -0.2034  3.4623
  159SAPE   H2S17732   4.046   5.064   7.039 -1.0684  0.1122  0.0017
  159SAPE    C317733   3.695   4.747   6.896  0.3834  0.3743  0.0236
  159SAPE    HX17734   3.615   4.741   6.819  0.9112  0.5340 -0.5409
  159SAPE    HY17735   3.670   4.821   6.975  3.6099  0.3642  1.1965
  159SAPE   O3117736   3.732   4.617   6.949 -0.2240  0.3007  0.2400
  159SAPE   C3117737   3.782   4.617   7.069 -0.3635  0.2697  0.2260
  159SAPE   O3217738   3.800   4.722   7.136  0.1603  0.2754  0.0983
  159SAPE   C3217739   3.814   4.470   7.108 -0.4305 -0.0801 -0.2289
  159SAPE   H2X17740   3.900   4.449   7.041 -0.8361  0.0583 -0.7938
  159SAPE   H2Y17741   3.733   4.405   7.071 -0.1704 -0.1432 -0.6894
  159SAPE   C2317742   3.904   5.060   7.199 -0.8338  0.7655 -0.7163
  159SAPE   H3R17743   3.842   4.980   7.244  2.5017 -2.2050 -0.8901
  159SAPE   H3S17744   3.837   5.146   7.181  0.5060  2.3616  1.3746
  159SAPE   C2417745   4.013   5.100   7.308 -0.1861  0.0417 -0.0117
  159SAPE   H4R17746   4.084   5.176   7.269  3.1526 -2.9506 -0.3384
  159SAPE   H4S17747   4.086   5.016   7.314  0.7630  0.9426  2.2245
  159SAPE   C2517748   3.959   5.150   7.441  0.2831  0.0245  0.3117
  159SAPE   H5R17749   3.902   5.244   7.434  0.5733  0.2198  0.5114
  159SAPE   C2617750   3.982   5.095   7.560  0.8218  0.3169 -1.7532
  159SAPE   H6R17751   3.928   5.145   7.642 -2.1661 -1.5313 -2.4504
  159SAPE   C2717752   4.071   4.974   7.590  0.3099 -0.3479  0.7124
  159SAPE   H7R17753   4.121   4.992   7.688  0.0269  0.2023  0.7639
  159SAPE   H7S17754   4.157   4.966   7.521  0.7479 -1.1351  1.3326
  159SAPE   C2817755   3.997   4.845   7.576  0.4013  0.5421 -0.2360
  159SAPE   H8R17756   3.993   4.797   7.478  0.9716 -0.0549  0.0224
  159SAPE   C2917757   3.928   4.786   7.674  0.3854  0.5242  0.2892
  159SAPE   H9R17758   3.867   4.694   7.666 -0.3498  1.0552 -0.3754
  159SAPE  C21017759   3.920   4.829   7.819  0.2292 -0.1933  0.2119
  159SAPE  H10R17760   3.829   4.785   7.864  0.0434  0.2074  0.2345
  159SAPE  H10S17761   3.913   4.940   7.820  0.6463 -0.1496 -0.8016
  159SAPE  C21117762   4.048   4.798   7.901  0.7279  0.6707 -0.1239
  159SAPE  H11R17763   4.141   4.850   7.876  0.7581  0.3176 -0.7867
  159SAPE  C21217764   4.061   4.717   8.010  0.0645  0.0249  0.5920
  159SAPE  H12R17765   4.155   4.721   8.067 -1.7334  1.4985  3.7991
  159SAPE  C21317766   3.944   4.658   8.079  0.3427  0.1742  0.1937
  159SAPE  H13R17767   3.973   4.570   8.140  2.2498 -0.0174 -0.9231
  159SAPE  H13S17768   3.875   4.608   8.008 -1.1254  0.4206  1.3788
  159SAPE  C21417769   3.872   4.762   8.159  0.0884  0.4964 -0.2590
  159SAPE  H14R17770   3.842   4.844   8.092  3.4200  1.8078 -0.3555
  159SAPE  C21517771   3.847   4.770   8.295 -0.1175  0.3901  0.2692
  159SAPE  H15R17772   3.800   4.861   8.334 -1.3288  0.0000 -0.2353
  159SAPE  C21617773   3.895   4.678   8.403  0.2585  0.2943 -0.2558
  159SAPE  H16R17774   3.934   4.580   8.367  0.6104 -0.4922  2.1000
  159SAPE  H16S17775   3.814   4.655   8.477  0.2184 -0.1882 -0.4482
  159SAPE  C21717776   4.007   4.757   8.472 -0.3397  0.2451 -0.0787
  159SAPE  H17R17777   3.996   4.867   8.478 -0.9625  0.2008 -0.2932
  159SAPE  H17S17778   4.091   4.749   8.399 -1.1141  1.2870 -1.1111
  159SAPE  C21817779   4.027   4.714   8.613 -0.3685 -0.4367  0.6223
  159SAPE  H18R17780   4.019   4.603   8.617  0.2176 -0.5486 -0.7115
  159SAPE  H18S17781   3.950   4.762   8.677 -0.7576 -0.3458  0.0902
  159SAPE  C21917782   4.156   4.767   8.685 -0.1244  0.1962 -0.1259
  159SAPE  H19R17783   4.162   4.878   8.673 -1.7379  0.0776 -2.6789
  159SAPE  H19S17784   4.256   4.731   8.652  0.5547  1.5798  0.3472
  159SAPE  C22017785   4.146   4.747   8.842  0.1219 -0.1429 -0.3641
  159SAPE  H20R17786   4.125   4.645   8.879  0.9389 -0.4279 -0.6557
  159SAPE  H20S17787   4.064   4.813   8.879  1.6831  1.1545  0.9317
  159SAPE  H20T17788   4.242   4.781   8.888 -0.1669 -0.6089  0.5955
  159SAPE   C3317789   3.848   4.456   7.255  0.6585 -0.8489 -0.4522
  159SAPE   H3X17790   3.931   4.522   7.291 -0.0841 -0.6707  1.0394
  159SAPE   H3Y17791   3.882   4.353   7.277 -1.7012 -1.6082 -0.0836
  159SAPE   C3417792   3.731   4.486   7.342 -0.3700 -0.1790 -0.2911
  159SAPE   H4X17793   3.638   4.429   7.322 -0.3898 -0.1015 -0.4228
  159SAPE   H4Y17794   3.713   4.596   7.348  3.2459  0.6085 -0.9928
  159SAPE   C3517795   3.767   4.459   7.495  0.3911 -0.3286  0.7585
  159SAPE   H5X17796   3.857   4.521   7.516 -0.8174  1.7453  0.1002
  159SAPE   H5Y17797   3.799   4.354   7.514 -1.1425 -0.4247  3.2187
  159SAPE   C3617798   3.648   4.506   7.575  0.5313 -0.0472 -0.0170
  159SAPE   H6X17799   3.560   4.451   7.535 -0.2144  2.2251 -1.7025
  159SAPE   H6Y17800   3.639   4.616   7.562  0.6584 -0.2030 -1.6245
  159SAPE   C3717801   3.674   4.497   7.725  0.2049 -0.1883 -0.6120
  159SAPE   H7X17802   3.765   4.556   7.750 -0.9031  2.3131 -2.0341
  159SAPE   H7Y17803   3.700   4.392   7.751 -1.2268 -1.0118 -2.2745
  159SAPE   C3817804   3.555   4.546   7.809  0.3561  0.3820 -0.0220
  159SAPE   H8X17805   3.460   4.539   7.751  0.9655 -1.9143 -0.8489
  159SAPE   H8Y17806   3.565   4.656   7.822  0.9567  0.2736  0.4493
  159SAPE   C3917807   3.554   4.498   7.955 -0.4321  0.4624  0.7878
  159SAPE   H9X17808   3.648   4.530   8.007 -1.3212  0.3420  2.5348
  159SAPE   H9Y17809   3.555   4.388   7.945 -1.0438  0.5135  0.1058
  159SAPE  C31017810   3.439   4.546   8.035  0.0314 -0.1241 -0.4050
  159SAPE  H10X17811   3.351   4.503   7.982 -1.4465  1.3219  0.7979
  159SAPE  H10Y17812   3.421   4.653   8.011  2.0914 -0.1578 -2.4749
  159SAPE  C31117813   3.451   4.502   8.179 -0.7924 -0.5430 -1.2420
  159SAPE  H11X17814   3.515   4.412   8.192 -2.5560 -1.5302  1.4244
  159SAPE  H11Y17815   3.355   4.475   8.228 -0.7973 -0.9019 -1.4428
  159SAPE  C31217816   3.517   4.611   8.275  0.4197  0.8397  0.7465
  159SAPE  H12X17817   3.454   4.702   8.265  1.7420  1.5505 -2.5740
  159SAPE  H12Y17818   3.622   4.626   8.241  0.0922 -0.0430 -0.7411
  159SAPE  C31317819   3.493   4.574   8.421  0.3005 -0.1107 -0.0344
  159SAPE  H13X17820   3.564   4.490   8.434  0.4033 -0.0396 -0.1371
  159SAPE  H13Y17821   3.387   4.548   8.440 -0.0999  2.0062  1.0250
  159SAPE  C31417822   3.520   4.696   8.510  0.3834 -0.9193  0.5882
  159SAPE  H14X17823   3.435   4.766   8.524  2.1972  0.9746  3.0849
  159SAPE  H14Y17824   3.607   4.752   8.469 -0.2316 -1.4345 -1.5438
  159SAPE  C31517825   3.544   4.649   8.653 -0.3434  0.4297 -0.2770
  159SAPE  H15X17826   3.638   4.592   8.663  0.2573  1.7531  2.6085
  159SAPE  H15Y17827   3.460   4.585   8.689 -0.9700  3.3659  4.2410
  159SAPE  C31617828   3.564   4.769   8.750 -0.4464  0.3395  0.4181
  159SAPE  H16X17829   3.464   4.815   8.759 -0.4353  0.1849  1.5063
  159SAPE  H16Y17830   3.624   4.850   8.705 -0.4351  0.9637  1.5270
  159SAPE  C31717831   3.603   4.737   8.896  0.0631 -0.1887  0.0248
  159SAPE  H17X17832   3.532   4.659   8.930  1.8945 -1.0828  2.0101
  159SAPE  H17Y17833   3.595   4.828   8.960 -0.4745  0.2973 -0.7156
  159SAPE  C31817834   3.750   4.699   8.912  0.1254 -0.0179  0.1777
  159SAPE  H18X17835   3.816   4.785   8.889 -0.6156  0.8860  1.2877
  159SAPE  H18Y17836   3.783   4.619   8.842  0.6706 -0.3167  0.7625
  159SAPE  H18Z17837   3.757   4.660   9.016 -1.1629 -1.9894 -0.4078
  160SAPE     N17838   3.393   1.927   6.628  0.0467 -0.7719  0.1293
  160SAPE   HN117839   3.322   1.989   6.583  0.8063  1.2935  1.6153
  160SAPE   HN217840   3.485   1.951   6.585  0.0283 -0.3463  0.3214
  160SAPE   HN317841   3.391   1.824   6.613  0.8566 -0.8716  0.6703
  160SAPE   C1217842   3.413   1.966   6.771  0.4874 -0.2075  0.1726
  160SAPE  H12A17843   3.523   1.967   6.788  0.8494 -0.7508 -1.8865
  160SAPE  H12B17844   3.367   1.884   6.830  0.7484 -2.0395 -2.0478
  160SAPE   C1117845   3.347   2.102   6.784 -0.1170  0.2451  0.4079
  160SAPE  H11A17846   3.370   2.149   6.882 -3.3751  1.6525  0.6058
  160SAPE  H11B17847   3.237   2.093   6.775 -0.1451  0.6482  0.3208
  160SAPE     P17848   3.369   2.334   6.662 -0.2057  0.0101  0.1836
  160SAPE   O1317849   3.496   2.412   6.647 -0.3425  0.1593 -0.6891
  160SAPE   O1417850   3.271   2.340   6.551 -0.4061 -0.0010  0.3678
  160SAPE   O1217851   3.400   2.186   6.678  0.0005 -0.6395 -0.1178
  160SAPE   O1117852   3.298   2.384   6.799  0.1470 -0.4384 -0.1975
  160SAPE    C117853   3.316   2.525   6.852  0.2258 -0.2884  0.0913
  160SAPE    HA17854   3.351   2.593   6.772  2.6974 -0.1706  1.1701
  160SAPE    HB17855   3.222   2.571   6.890  0.7188  0.2528  0.6837
  160SAPE    C217856   3.426   2.539   6.957 -0.1135 -0.5890 -0.4754
  160SAPE    HS17857   3.516   2.498   6.908 -1.8315 -1.1636 -3.3946
  160SAPE   O2117858   3.383   2.459   7.067 -0.1244  0.6530  0.0110
  160SAPE   C2117859   3.470   2.359   7.095  0.6148 -0.1566  0.2104
  160SAPE   O2217860   3.571   2.335   7.034 -0.4414 -0.4339  0.3659
  160SAPE   C2217861   3.417   2.263   7.204  0.2114 -0.5866 -0.3211
  160SAPE   H2R17862   3.319   2.300   7.238  0.5423 -2.3657  3.0578
  160SAPE   H2S17863   3.399   2.166   7.153  0.3748 -0.3101 -0.9138
  160SAPE    C317864   3.439   2.689   7.003  0.3487  0.5146  0.4527
  160SAPE    HX17865   3.338   2.717   7.041 -0.3312 -0.0010 -0.9213
  160SAPE    HY17866   3.467   2.752   6.916 -3.8355 -0.3905 -1.8195
  160SAPE   O3117867   3.521   2.710   7.123 -0.3623  0.0209  0.3324
  160SAPE   C3117868   3.652   2.718   7.098  0.7336 -0.9171  0.3010
  160SAPE   O3217869   3.695   2.721   6.983 -0.1091  0.1124  0.2014
  160SAPE   C3217870   3.726   2.711   7.227  0.2685 -0.6392  0.1148
  160SAPE   H2X17871   3.764   2.809   7.263 -1.5911  0.1921 -0.0365
  160SAPE   H2Y17872   3.818   2.651   7.212 -0.4020 -2.0147  1.2403
  160SAPE   C2317873   3.519   2.215   7.316 -0.4236 -0.1010 -0.1871
  160SAPE   H3R17874   3.533   2.302   7.384  2.5612 -0.4913 -0.1776
  160SAPE   H3S17875   3.614   2.193   7.263 -0.0313 -0.2554  0.5646
  160SAPE   C2417876   3.473   2.092   7.389 -0.2757 -0.0317  0.1066
  160SAPE   H4R17877   3.477   1.995   7.334  0.1719 -1.3550  2.3193
  160SAPE   H4S17878   3.368   2.110   7.422 -0.4923  1.6420 -1.3893
  160SAPE   C2517879   3.564   2.061   7.513 -0.1597 -0.4423 -0.1444
  160SAPE   H5R17880   3.670   2.036   7.497  0.2898  0.2270  1.6048
  160SAPE   C2617881   3.529   2.061   7.642 -0.2130  0.0077  0.0855
  160SAPE   H6R17882   3.605   2.028   7.715  1.4786  1.6506 -0.8348
  160SAPE   C2717883   3.398   2.106   7.701  0.4696  0.3200 -0.3094
  160SAPE   H7R17884   3.330   2.151   7.627 -0.6989 -1.7908 -0.6007
  160SAPE   H7S17885   3.416   2.183   7.779 -0.9674 -0.8074  1.1925
  160SAPE   C2817886   3.318   1.984   7.748 -0.5896  0.0502  0.1511
  160SAPE   H8R17887   3.246   1.950   7.672 -0.4192 -0.2030  0.1052
  160SAPE   C2917888   3.334   1.925   7.873  0.5494  0.1591  0.1393
  160SAPE   H9R17889   3.281   1.831   7.893 -0.5928  0.5986 -0.6961
  160SAPE  C21017890   3.427   1.973   7.973  0.3571 -0.0326 -0.1281
  160SAPE  H10R17891   3.378   2.053   8.034 -0.1576  0.5050 -1.2286
  160SAPE  H10S17892   3.512   2.028   7.926 -0.0823 -0.2508 -1.1819
  160SAPE  C21117893   3.482   1.861   8.054 -0.1726  0.4924 -0.0317
  160SAPE  H11R17894   3.536   1.788   7.992  1.4957 -1.2031  3.1603
  160SAPE  C21217895   3.453   1.830   8.180 -0.1750 -0.1764 -0.1254
  160SAPE  H12R17896   3.490   1.742   8.233 -1.2660 -0.2064  0.6170
  160SAPE  C21317897   3.350   1.913   8.261  0.2065 -0.0556  0.7967
  160SAPE  H13R17898   3.256   1.918   8.201 -2.5973 -0.5646  4.7396
  160SAPE  H13S17899   3.385   2.018   8.274  0.0461 -0.1224  1.8498
  160SAPE  C21417900   3.306   1.853   8.393 -0.6411  0.3839  0.1288
  160SAPE  H14R17901   3.304   1.743   8.399  0.3859  0.4128  1.5306
  160SAPE  C21517902   3.268   1.928   8.500  0.4525  0.1818 -0.1085
  160SAPE  H15R17903   3.238   1.871   8.590  0.1412 -0.7700 -0.7943
  160SAPE  C21617904   3.277   2.076   8.522  0.3130  0.1666  0.0068
  160SAPE  H16R17905   3.323   2.122   8.433  0.5995 -0.3984 -0.1407
  160SAPE  H16S17906   3.347   2.089   8.607 -0.3658  4.0842  0.1392
  160SAPE  C21717907   3.137   2.150   8.541 -0.3596 -0.4519  0.0539
  160SAPE  H17R17908   3.058   2.084   8.582 -0.2686 -0.1333  0.7603
  160SAPE  H17S17909   3.099   2.183   8.442  1.1422 -0.3855 -0.5381
  160SAPE  C21817910   3.171   2.274   8.625 -0.5583  0.5243 -0.0227
  160SAPE  H18R17911   3.260   2.328   8.587 -0.6614  0.8300  0.1675
  160SAPE  H18S17912   3.194   2.234   8.726 -0.6464 -0.3602 -0.3451
  160SAPE  C21917913   3.070   2.389   8.631  0.2134 -0.1616 -0.1957
  160SAPE  H19R17914   3.074   2.434   8.530  2.7966 -0.5258 -0.3316
  160SAPE  H19S17915   3.107   2.456   8.712  2.8744 -0.0887 -1.3556
  160SAPE  C22017916   2.928   2.336   8.644 -0.3852 -0.2181 -0.0105
  160SAPE  H20R17917   2.890   2.286   8.553 -0.5806 -0.4455  0.1931
  160SAPE  H20S17918   2.864   2.423   8.666 -0.6107 -0.6692  1.2016
  160SAPE  H20T17919   2.914   2.268   8.731 -2.9657  0.9207  0.5583
  160SAPE   C3317920   3.646   2.642   7.339  0.5596 -0.1598 -0.0204
  160SAPE   H3X17921   3.619   2.536   7.315 -0.4683  0.4061 -1.4971
  160SAPE   H3Y17922   3.550   2.694   7.360 -0.2587 -0.9495 -1.5539
  160SAPE   C3417923   3.722   2.633   7.471 -0.8872 -0.2978 -0.5581
  160SAPE   H4X17924   3.769   2.731   7.496 -0.3554 -0.3707 -1.2433
  160SAPE   H4Y17925   3.805   2.565   7.445  0.1361  0.7797 -0.2289
  160SAPE   C3517926   3.625   2.580   7.584 -0.3234 -0.1948  0.2084
  160SAPE   H5X17927   3.581   2.487   7.543  1.8243 -0.2383 -2.2546
  160SAPE   H5Y17928   3.547   2.658   7.598  0.1703  0.7476 -1.8354
  160SAPE   C3617929   3.688   2.561   7.720  0.0047  0.1400  0.6384
  160SAPE   H6X17930   3.695   2.651   7.785 -2.5979  0.4523  0.5969
  160SAPE   H6Y17931   3.791   2.522   7.703 -0.0205 -0.0072  0.8246
  160SAPE   C3717932   3.618   2.458   7.808 -0.3699  0.3071  0.5922
  160SAPE   H7X17933   3.640   2.356   7.769 -0.5080  0.1597  0.8886
  160SAPE   H7Y17934   3.510   2.486   7.803 -0.5555 -0.4691  0.1043
  160SAPE   C3817935   3.661   2.454   7.956 -0.1649  0.0420 -0.0955
  160SAPE   H8X17936   3.604   2.536   8.005 -0.1066  0.1100 -0.1415
  160SAPE   H8Y17937   3.769   2.479   7.953 -0.2712  0.6095  0.5619
  160SAPE   C3917938   3.656   2.305   8.008 -0.2796  0.5534  0.1559
  160SAPE   H9X17939   3.722   2.239   7.948  0.9121  0.3457  1.6370
  160SAPE   H9Y17940   3.551   2.271   8.007 -0.3696  0.8323 -0.7862
  160SAPE  C31017941   3.703   2.306   8.156 -0.3990  0.1311 -0.2576
  160SAPE  H10X17942   3.667   2.398   8.206  0.2697  1.6668 -2.5032
  160SAPE  H10Y17943   3.813   2.321   8.150 -0.8180  3.6993 -1.0001
  160SAPE  C31117944   3.676   2.178   8.236  0.0674 -0.5310 -0.4749
  160SAPE  H11X17945   3.720   2.090   8.184 -0.4419 -0.4736 -1.0040
  160SAPE  H11Y17946   3.567   2.158   8.238 -0.0760  0.1912 -0.5371
  160SAPE  C31217947   3.716   2.185   8.383  0.1138 -0.1503 -0.6697
  160SAPE  H12X17948   3.686   2.286   8.418 -1.9125 -0.9826  0.1643
  160SAPE  H12Y17949   3.826   2.181   8.392  0.3778  4.4592  0.3662
  160SAPE  C31317950   3.666   2.062   8.461 -0.2234  0.1380  0.1412
  160SAPE  H13X17951   3.667   1.972   8.396 -0.6246  1.3595 -1.6038
  160SAPE  H13Y17952   3.560   2.087   8.483  0.2518  0.8686  1.8072
  160SAPE  C31417953   3.745   2.039   8.597 -0.3590 -0.2106  0.1206
  160SAPE  H14X17954   3.717   2.128   8.658 -0.2937 -0.7216  0.9033
  160SAPE  H14Y17955   3.853   2.050   8.570 -0.1421 -2.6751 -0.2346
  160SAPE  C31517956   3.715   1.909   8.676  0.6959 -0.0115 -0.5581
  160SAPE  H15X17957   3.794   1.883   8.750 -1.1527 -0.7584  1.2287
  160SAPE  H15Y17958   3.698   1.826   8.604  1.6668 -3.7901  3.1853
  160SAPE  C31617959   3.589   1.911   8.769 -0.8380 -0.0299 -0.5434
  160SAPE  H16X17960   3.497   1.937   8.711  0.0526  1.4197 -1.3835
  160SAPE  H16Y17961   3.605   1.987   8.848  0.9402 -0.5761 -0.3558
  160SAPE  C31717962   3.559   1.781   8.848 -0.5074  0.2724  0.4519
  160SAPE  H17X17963   3.647   1.754   8.909  0.4401 -2.3129 -1.8511
  160SAPE  H17Y17964   3.539   1.693   8.783 -0.9682  1.8563 -1.6610
  160SAPE  C31817965   3.441   1.805   8.935  0.3683 -0.0615  0.6202
  160SAPE  H18X17966   3.354   1.838   8.874  1.5601  1.8290 -0.1312
  160SAPE  H18Y17967   3.461   1.881   9.013 -0.9618  1.2514 -0.2595
  160SAPE  H18Z17968   3.415   1.718   8.999  2.6732 -1.4298 -0.1658
  161SOPE     N17969   1.247   0.537  11.045 -0.8071 -0.5069 -0.2195
  161SOPE   HN117970   1.269   0.629  11.088 -0.2863 -0.5779 -0.3301
  161SOPE   HN217971   1.175   0.493  11.106 -2.3255  0.5214 -1.2042
  161SOPE   HN317972   1.332   0.477  11.056 -0.5880 -0.1575  0.0281
  161SOPE   C1217973   1.221   0.561  10.901 -0.1948  0.0832 -0.1590
  161SOPE  H12A17974   1.233   0.461  10.855 -3.0503  0.0041 -0.9163
  161SOPE  H12B17975   1.297   0.634  10.867 -0.8577  1.3239  0.9009
  161SOPE   C1117976   1.078   0.613  10.871 -0.0772  0.2838  0.6834
  161SOPE  H11A17977   0.998   0.544  10.906 -0.6516  0.9706  0.7430
  161SOPE  H11B17978   1.065   0.609  10.760 -0.9926 -0.1380  0.7920
  161SOPE     P17979   1.056   0.870  10.833 -0.2421 -0.0864  0.5712
  161SOPE   O1317980   1.196   0.894  10.794  0.1715  0.1810 -0.1000
  161SOPE   O1417981   0.989   0.981  10.904  0.0934 -0.1854 -0.0563
  161SOPE   O1217982   1.047   0.738  10.924 -0.3976  0.4417 -0.3812
  161SOPE   O1117983   0.965   0.842  10.708 -0.2142  0.2202 -0.3402
  161SOPE    C117984   0.829   0.785  10.723 -0.0908 -0.3246 -0.0505
  161SOPE    HA17985   0.753   0.862  10.695 -0.3908 -1.0262 -1.1929
  161SOPE    HB17986   0.812   0.751  10.828  0.4731  0.8752  0.4476
  161SOPE    C217987   0.813   0.668  10.628 -0.6094 -0.3383  0.7832
  161SOPE    HS17988   0.870   0.583  10.671 -0.2233 -0.3554  0.2453
  161SOPE   O2117989   0.875   0.705  10.498  0.1692  0.1147  0.0958
  161SOPE   C2117990   0.922   0.609  10.423 -0.0937 -0.0651 -0.5391
  161SOPE   O2217991   0.909   0.489  10.445 -0.4335  0.8505 -0.1727
  161SOPE   C2217992   0.992   0.653  10.292 -0.1059  0.2550  0.5455
  161SOPE   H2R17993   1.083   0.591  10.279 -1.2334 -1.4896  0.7161
  161SOPE   H2S17994   1.004   0.763  10.303 -1.5262  0.4299  0.4809
  161SOPE    C317995   0.656   0.629  10.622 -0.2690 -0.1413  0.4209
  161SOPE    HX17996   0.633   0.625  10.731 -1.0308 -1.8771  0.2288
  161SOPE    HY17997   0.633   0.526  10.589 -1.4124  0.7540 -1.7462
  161SOPE   O3117998   0.572   0.733  10.556  0.0666  0.7512  0.3808
  161SOPE   C3117999   0.570   0.710  10.422  0.4181  0.1632 -0.3578
  161SOPE   O3218000   0.618   0.616  10.359 -0.0463  0.6966 -0.3988
  161SOPE   C3218001   0.476   0.816  10.356  0.4936  0.3867 -0.3625
  161SOPE   H2X18002   0.523   0.854  10.263 -0.0053 -0.0875 -0.8195
  161SOPE   H2Y18003   0.465   0.903  10.424  0.5290  0.4786 -0.4742
  161SOPE   C2318004   0.885   0.623  10.178 -0.0298 -0.2682  0.1410
  161SOPE   H3R18005   0.783   0.659  10.203  0.6917  1.5873  0.6149
  161SOPE   H3S18006   0.886   0.515  10.152  1.0382  0.3781 -3.0002
  161SOPE   C2418007   0.931   0.685  10.045 -0.2761  0.8274  0.3401
  161SOPE   H4R18008   0.922   0.796  10.052  0.6770  0.8813  0.8416
  161SOPE   H4S18009   1.037   0.656  10.030 -0.2934  0.2714  1.2765
  161SOPE   C2518010   0.856   0.628   9.918 -0.3661  0.8780 -0.8058
  161SOPE   H5R18011   0.874   0.519   9.910  0.2075  0.9693 -0.7955
  161SOPE   H5S18012   0.747   0.652   9.919 -0.5552  0.0607 -1.0965
  161SOPE   C2618013   0.905   0.707   9.796 -0.0986 -0.1526 -0.2884
  161SOPE   H6R18014   0.860   0.808   9.805 -0.6798 -0.4220 -0.1263
  161SOPE   H6S18015   1.014   0.725   9.805 -0.6769  4.4952  0.0018
  161SOPE   C2718016   0.887   0.640   9.662  0.5946  1.2212 -0.2405
  161SOPE   H7R18017   0.935   0.711   9.591 -0.2343  2.4434  0.3998
  161SOPE   H7S18018   0.936   0.540   9.665 -2.3743 -0.3657  3.3087
  161SOPE   C2818019   0.742   0.626   9.625  0.9303 -0.0202  0.5453
  161SOPE   H8R18020   0.705   0.547   9.693  1.1802 -0.8979 -0.3280
  161SOPE   H8S18021   0.692   0.724   9.646 -0.2790 -0.6039  0.4785
  161SOPE   C2918022   0.722   0.588   9.479  0.0645  1.0465  0.4263
  161SOPE   H9118023   0.694   0.483   9.465  5.6309 -0.8851  1.1676
  161SOPE  C21018024   0.738   0.673   9.375  0.9699 -0.3080  0.5524
  161SOPE  H10118025   0.720   0.632   9.274  1.0534  2.0900 -0.4943
  161SOPE  C21118026   0.764   0.826   9.377 -0.0757  0.6203  0.5859
  161SOPE  H11R18027   0.843   0.853   9.305 -0.0041  0.4819  0.6114
  161SOPE  H11S18028   0.789   0.866   9.478  0.5119  1.0670  0.2643
  161SOPE  C21218029   0.637   0.895   9.321 -0.2022 -0.4999 -0.5765
  161SOPE  H12R18030   0.650   1.003   9.345 -0.4770 -0.7909  0.9662
  161SOPE  H12S18031   0.541   0.886   9.376 -1.8096 -1.1146 -3.3084
  161SOPE  C21318032   0.616   0.879   9.173 -0.5383 -0.0332  0.3616
  161SOPE  H13R18033   0.572   0.778   9.160 -1.3002  0.2225  0.9249
  161SOPE  H13S18034   0.709   0.885   9.113 -1.7004 -2.7049 -1.9309
  161SOPE  C21418035   0.514   0.978   9.117  0.5780  0.5732 -0.1379
  161SOPE  H14R18036   0.567   1.075   9.132  1.4169  0.3526 -1.4747
  161SOPE  H14S18037   0.413   0.977   9.163  0.8844 -0.1655  0.5228
  161SOPE  C21518038   0.514   0.971   8.966 -0.3442  0.1641 -0.5325
  161SOPE  H15R18039   0.621   0.985   8.941 -0.2490 -0.4014 -0.4684
  161SOPE  H15S18040   0.459   1.062   8.936 -0.5857  0.7073  1.3770
  161SOPE  C21618041   0.460   0.840   8.911 -0.2956  0.2492 -0.8077
  161SOPE  H16R18042   0.356   0.821   8.946  0.2316  0.2022  0.8049
  161SOPE  H16S18043   0.521   0.758   8.954 -0.9899  0.3454  0.4126
  161SOPE  C21718044   0.460   0.824   8.754  0.0700  0.0219  0.4894
  161SOPE  H17R18045   0.439   0.716   8.737  0.8932 -0.4880  2.3752
  161SOPE  H17S18046   0.559   0.841   8.708 -0.5379  0.8713 -0.5457
  161SOPE  C21818047   0.356   0.913   8.681 -0.1212  0.7955 -0.0834
  161SOPE  H18R18048   0.369   1.022   8.702  1.8409  0.7097 -0.6040
  161SOPE  H18S18049   0.250   0.888   8.701 -0.9532  3.1123 -1.2708
  161SOPE  H18T18050   0.361   0.892   8.572 -2.0596 -1.4118  0.1992
  161SOPE   C3318051   0.338   0.748  10.315 -0.8114  0.4584 -0.2955
  161SOPE   H3X18052   0.257   0.823  10.302 -2.8174 -1.0985  2.2244
  161SOPE   H3Y18053   0.302   0.684  10.399 -1.6856  0.2750 -0.8090
  161SOPE   C3418054   0.348   0.661  10.187 -0.1072  0.2026 -0.0412
  161SOPE   H4X18055   0.250   0.616  10.162  1.6866 -2.6018 -2.8766
  161SOPE   H4Y18056   0.415   0.575  10.208 -3.0775 -2.3221 -0.2106
  161SOPE   C3518057   0.384   0.737  10.063  0.1748  0.7509 -0.7983
  161SOPE   H5X18058   0.480   0.788  10.088  1.3834 -1.3761 -0.9282
  161SOPE   H5Y18059   0.308   0.808  10.024 -0.3007  0.3186 -0.6648
  161SOPE   C3618060   0.435   0.644   9.946 -0.3167  0.1252 -0.7199
  161SOPE   H6X18061   0.477   0.555   9.996 -0.0981  0.5135 -0.2108
  161SOPE   H6Y18062   0.519   0.688   9.888 -1.7647  0.0108 -3.0775
  161SOPE   C3718063   0.321   0.592   9.857 -0.7202 -0.1092 -0.1528
  161SOPE   H7X18064   0.250   0.541   9.925 -0.3909 -1.0021 -0.4641
  161SOPE   H7Y18065   0.365   0.522   9.783  1.7037  1.6561 -0.5406
  161SOPE   C3818066   0.249   0.711   9.781  0.0283  0.7325  0.2641
  161SOPE   H8X18067   0.226   0.803   9.839  1.2640  2.7474 -2.2639
  161SOPE   H8Y18068   0.147   0.671   9.765  0.5106  0.7325 -3.7242
  161SOPE   C3918069   0.299   0.750   9.644 -0.1850  0.3420  0.2002
  161SOPE   H9X18070   0.383   0.819   9.666 -0.4293  0.1889  1.7680
  161SOPE   H9Y18071   0.214   0.799   9.593 -0.5656 -0.5690 -0.0518
  161SOPE  C31018072   0.342   0.630   9.559  0.0009  0.3515  0.8478
  161SOPE  H10X18073   0.266   0.550   9.569 -0.0099  0.4631  1.8208
  161SOPE  H10Y18074   0.446   0.597   9.582  0.8666  2.1556 -0.2416
  161SOPE  C31118075   0.328   0.663   9.408 -0.9224 -0.2909  1.1239
  161SOPE  H11X18076   0.418   0.725   9.387 -1.0063 -1.2648 -2.9495
  161SOPE  H11Y18077   0.243   0.729   9.379 -0.5195  0.3272  1.3287
  161SOPE  C31218078   0.358   0.542   9.320  0.3797  0.2833  0.3857
  161SOPE  H12X18079   0.424   0.467   9.370  1.2838 -1.1304 -2.7171
  161SOPE  H12Y18080   0.418   0.572   9.232  0.3887  2.3956  1.0724
  161SOPE  C31318081   0.237   0.463   9.270 -0.3822 -0.0631 -0.0022
  161SOPE  H13X18082   0.159   0.443   9.347 -1.1706 -1.0628 -1.0306
  161SOPE  H13Y18083   0.274   0.363   9.239  0.9078  0.3967 -0.0233
  161SOPE  C31418084   0.173   0.527   9.151 -0.1072 -0.4873 -0.1971
  161SOPE  H14X18085   0.249   0.552   9.073  0.1211  1.0390  0.4855
  161SOPE  H14Y18086   0.120   0.616   9.190  0.7121 -0.2899  0.4992
  161SOPE  C31518087   0.049   0.450   9.087 -1.1155 -0.0374  0.3323
  161SOPE  H15X18088   0.093   0.364   9.031 -1.6590 -0.4799  0.5779
  161SOPE  H15Y18089   0.002   0.530   9.027 -1.2317  0.4649  1.0785
  161SOPE  C31618090  -0.044   0.397   9.187  0.1528  0.0389 -0.2244
  161SOPE  H16X18091  -0.075   0.483   9.250  0.1884  0.2044 -0.4313
  161SOPE  H16Y18092   0.007   0.321   9.249 -0.6606 -0.3136  0.0230
  161SOPE  C31718093  -0.157   0.332   9.104 -0.3133  0.3077 -0.2758
  161SOPE  H17X18094  -0.121   0.267   9.023 -0.2421 -1.4733  1.1287
  161SOPE  H17Y18095  -0.214   0.416   9.059  0.0584  1.6721  1.6326
  161SOPE  C31818096  -0.261   0.255   9.188 -0.1042  0.2612  0.4500
  161SOPE  H18X18097  -0.208   0.178   9.249  0.9541 -0.8415 -1.7303
  161SOPE  H18Y18098  -0.331   0.198   9.122 -0.8852  0.0785  1.4116
  161SOPE  H18Z18099  -0.326   0.325   9.245 -0.0859  0.0959  0.6726
  162SOPE     N18100   0.313   5.890  11.125 -0.5163 -0.3300 -0.1565
  162SOPE   HN118101   0.398   5.859  11.073 -0.1537  2.3024 -1.2524
  162SOPE   HN218102   0.228   5.842  11.088 -0.2024 -0.6330 -0.4992
  162SOPE   HN318103   0.312   5.992  11.108  0.3927 -0.3710 -0.5599
  162SOPE   C1218104   0.338   5.867  11.264 -0.5893  0.0352 -0.0008
  162SOPE  H12A18105   0.322   5.760  11.288  1.9285 -0.4436 -0.1423
  162SOPE  H12B18106   0.267   5.927  11.324 -1.5336 -0.5239 -0.5290
  162SOPE   C1118107   0.481   5.898  11.297 -0.0651  0.5561 -0.1725
  162SOPE  H11A18108   0.498   5.882  11.406  1.6766  1.2642 -0.3018
  162SOPE  H11B18109   0.505   6.005  11.281  0.2267  0.7361  1.2841
  162SOPE     P18110   0.722   5.811  11.275  0.2738  0.2696 -0.1133
  162SOPE   O1318111   0.710   5.729  11.399 -0.4904 -0.0007 -0.3769
  162SOPE   O1418112   0.785   5.945  11.278  0.7045 -0.3053  0.5872
  162SOPE   O1218113   0.575   5.827  11.215  0.3569 -0.0187  0.4342
  162SOPE   O1118114   0.797   5.722  11.173  0.4186 -0.2142  0.3391
  162SOPE    C118115   0.746   5.643  11.059  0.1120  0.1922 -0.5659
  162SOPE    HA18116   0.655   5.586  11.086  0.8962  0.0924  2.1383
  162SOPE    HB18117   0.824   5.565  11.045 -0.1590 -0.7396  2.4308
  162SOPE    C218118   0.716   5.730  10.931  0.1103 -0.6924  0.4593
  162SOPE    HS18119   0.651   5.814  10.962 -1.5923 -1.1931 -1.5337
  162SOPE   O2118120   0.645   5.656  10.837 -0.6466  0.2631 -0.0797
  162SOPE   C2118121   0.514   5.649  10.859  0.4635  0.5673  0.9380
  162SOPE   O2218122   0.458   5.696  10.957 -0.4680  0.3482  0.4174
  162SOPE   C2218123   0.455   5.569  10.740 -0.4280 -0.0136  0.2002
  162SOPE   H2R18124   0.388   5.491  10.781 -1.1764 -0.4206 -1.6708
  162SOPE   H2S18125   0.538   5.521  10.685 -0.3689 -0.6157  0.8144
  162SOPE    C318126   0.850   5.793  10.873 -0.4379 -0.0467  0.2147
  162SOPE    HX18127   0.909   5.705  10.841 -1.0273 -0.0695 -0.8319
  162SOPE    HY18128   0.895   5.834  10.966 -2.4800  0.8390  0.8627
  162SOPE   O3118129   0.833   5.896  10.768 -0.3506  0.1697  0.7293
  162SOPE   C3118130   0.833   5.841  10.643 -0.2516  0.7236  0.4555
  162SOPE   O3218131   0.851   5.722  10.622 -0.5283 -0.3678 -0.6905
  162SOPE   C3218132   0.816   5.953  10.540  0.4809  0.6715  0.2748
  162SOPE   H2X18133   0.918   5.992  10.516  0.1128  0.6092 -1.5674
  162SOPE   H2Y18134   0.751   6.034  10.579  1.0559  1.0806  0.3999
  162SOPE   C2318135   0.377   5.656  10.639 -0.0232 -0.0478 -0.0788
  162SOPE   H3R18136   0.447   5.705  10.568 -1.7891  1.9688 -0.5468
  162SOPE   H3S18137   0.316   5.732  10.692  1.9818  1.2300  0.5044
  162SOPE   C2418138   0.274   5.576  10.558  1.4812  0.3553  0.6886
  162SOPE   H4R18139   0.324   5.486  10.514  2.4840  1.1357  0.1870
  162SOPE   H4S18140   0.194   5.535  10.622  1.1675 -0.1177  0.0080
  162SOPE   C2518141   0.205   5.661  10.453  0.7208 -1.4081  0.3178
  162SOPE   H5R18142   0.102   5.620  10.447 -0.0025  0.2397  0.7509
  162SOPE   H5S18143   0.217   5.768  10.480  0.8632 -1.9442  2.5636
  162SOPE   C2618144   0.281   5.661  10.322 -0.1511 -0.6107 -0.2262
  162SOPE   H6R18145   0.390   5.673  10.341 -0.6185  1.3547  1.5677
  162SOPE   H6S18146   0.276   5.557  10.283  0.1917 -0.4203 -0.7849
  162SOPE   C2718147   0.232   5.766  10.221  0.3706 -0.4739  0.3843
  162SOPE   H7R18148   0.121   5.765  10.218  0.3084  0.0930  1.8134
  162SOPE   H7S18149   0.251   5.867  10.263  0.6597 -0.0365 -0.7642
  162SOPE   C2818150   0.298   5.751  10.086 -0.3205 -0.0655 -0.0820
  162SOPE   H8R18151   0.291   5.849  10.034  2.7570  0.1474 -0.2776
  162SOPE   H8S18152   0.408   5.742  10.095 -0.2789 -0.4688 -0.8970
  162SOPE   C2918153   0.221   5.646  10.005 -0.1286 -0.3731 -0.2117
  162SOPE   H9118154   0.183   5.563  10.065  0.8036 -0.8025 -0.2113
  162SOPE  C21018155   0.202   5.630   9.873 -0.5637  0.2340 -0.8879
  162SOPE  H10118156   0.139   5.548   9.834 -0.1207 -1.1098  1.0917
  162SOPE  C21118157   0.258   5.713   9.761 -0.0686  0.2954  0.4991
  162SOPE  H11R18158   0.338   5.778   9.802  1.5919  0.4962 -2.7679
  162SOPE  H11S18159   0.183   5.784   9.719  0.7553  0.2224 -1.1634
  162SOPE  C21218160   0.311   5.633   9.646  0.1798  0.4593  0.4730
  162SOPE  H12R18161   0.391   5.562   9.676 -0.8456 -1.0240 -0.2095
  162SOPE  H12S18162   0.360   5.696   9.568 -0.6170 -0.7852 -1.0961
  162SOPE  C21318163   0.207   5.551   9.564 -0.5948  0.1632 -0.1575
  162SOPE  H13R18164   0.115   5.612   9.552 -1.6044 -1.0321  1.1496
  162SOPE  H13S18165   0.171   5.463   9.620 -0.7925 -0.9558 -1.9813
  162SOPE  C21418166   0.262   5.495   9.431 -0.9361  0.2449  0.0349
  162SOPE  H14R18167   0.182   5.426   9.395 -2.6206  2.0027  0.2686
  162SOPE  H14S18168   0.356   5.438   9.445  0.4455  2.1322 -1.1961
  162SOPE  C21518169   0.287   5.599   9.325  0.2951 -0.2857  0.7283
  162SOPE  H15R18170   0.393   5.630   9.313 -0.4974  2.6108  0.1780
  162SOPE  H15S18171   0.235   5.693   9.357  1.2326  0.9565 -1.2210
  162SOPE  C21618172   0.232   5.575   9.180  0.3658  0.1649 -0.4939
  162SOPE  H16R18173   0.251   5.673   9.130 -0.4723  1.3573  1.4205
  162SOPE  H16S18174   0.124   5.554   9.172  1.0523 -4.3605 -0.0597
  162SOPE  C21718175   0.299   5.455   9.111 -0.4172 -0.3322 -0.1832
  162SOPE  H17R18176   0.262   5.370   9.174  1.2726 -0.7700  0.2747
  162SOPE  H17S18177   0.406   5.454   9.142 -0.5654  0.3616  0.3648
  162SOPE  C21818178   0.268   5.445   8.970  0.4924 -0.1413  0.2036
  162SOPE  H18R18179   0.290   5.539   8.914  0.8416 -0.2938  0.0871
  162SOPE  H18S18180   0.158   5.435   8.953  0.7676 -0.3041 -1.6607
  162SOPE  H18T18181   0.308   5.356   8.917 -3.0309 -0.7432 -1.7486
  162SOPE   C3318182   0.756   5.902  10.397  0.0993 -0.2269 -0.0830
  162SOPE   H3X18183   0.653   5.866  10.420 -0.4844  1.3123 -0.2117
  162SOPE   H3Y18184   0.816   5.811  10.374 -0.9305 -1.5197  1.9899
  162SOPE   C3418185   0.753   6.001  10.287  0.1683  0.5200  0.7986
  162SOPE   H4X18186   0.858   6.035  10.278  0.3713 -0.2257  0.2284
  162SOPE   H4Y18187   0.684   6.087  10.302  0.1979  0.7367 -0.2830
  162SOPE   C3518188   0.707   5.935  10.158  0.0704 -0.8219  0.0601
  162SOPE   H5X18189   0.603   5.899  10.170 -0.6877  0.5120 -2.0154
  162SOPE   H5Y18190   0.778   5.850  10.145  1.2217  0.4994 -3.4354
  162SOPE   C3618191   0.723   6.017  10.027  0.3928 -0.2898  0.6037
  162SOPE   H6X18192   0.820   6.071  10.012  0.1894  0.3498  1.5405
  162SOPE   H6Y18193   0.651   6.101  10.018  2.0919  1.0970 -1.0399
  162SOPE   C3718194   0.702   5.927   9.908 -0.0734 -0.0485  0.4455
  162SOPE   H7X18195   0.631   5.846   9.935 -1.5301  1.4580  1.3128
  162SOPE   H7Y18196   0.793   5.871   9.876 -0.5529 -0.3897 -0.3515
  162SOPE   C3818197   0.634   6.000   9.792  0.7618  0.2052  0.1095
  162SOPE   H8X18198   0.701   6.086   9.768  1.4065 -0.3241 -0.0389
  162SOPE   H8Y18199   0.527   6.013   9.816  0.5626  1.0100 -1.1377
  162SOPE   C3918200   0.646   5.911   9.666  0.3515 -0.0992 -0.2526
  162SOPE   H9X18201   0.608   5.810   9.693  0.6298 -0.3544 -0.8018
  162SOPE   H9Y18202   0.752   5.889   9.640  1.7449  3.0119  2.2178
  162SOPE  C31018203   0.570   5.973   9.545 -0.0183 -0.2376 -0.7886
  162SOPE  H10X18204   0.629   6.065   9.526  0.8313 -0.7932 -0.8858
  162SOPE  H10Y18205   0.465   5.996   9.573  0.6891  2.6289 -0.1354
  162SOPE  C31118206   0.569   5.885   9.424  0.0451  0.4482  0.1501
  162SOPE  H11X18207   0.511   5.796   9.456  0.2884  0.7205  1.4076
  162SOPE  H11Y18208   0.676   5.862   9.405 -0.0522 -0.1954  0.3661
  162SOPE  C31218209   0.504   5.965   9.310 -0.3257  0.3187 -0.1471
  162SOPE  H12X18210   0.580   6.046   9.308 -1.5833  1.5298 -0.2421
  162SOPE  H12Y18211   0.402   6.001   9.333 -1.2473 -0.5636 -2.5333
  162SOPE  C31318212   0.504   5.890   9.179 -0.4588 -0.4312  0.2829
  162SOPE  H13X18213   0.439   5.800   9.175  0.7415 -1.2594 -1.7644
  162SOPE  H13Y18214   0.609   5.855   9.177 -0.1549  0.5089 -1.1246
  162SOPE  C31418215   0.462   5.983   9.057 -0.1225 -0.2861 -1.1339
  162SOPE  H14X18216   0.532   6.068   9.047 -0.0171 -0.4676 -2.0935
  162SOPE  H14Y18217   0.357   6.014   9.075 -0.4035 -1.0837 -1.3172
  162SOPE  C31518218   0.468   5.908   8.925  0.2084 -0.4961 -0.0604
  162SOPE  H15X18219   0.417   5.810   8.931 -1.9882  0.1843 -4.2805
  162SOPE  H15Y18220   0.569   5.866   8.903 -0.1502 -1.1422 -0.4983
  162SOPE  C31618221   0.428   5.987   8.807 -0.6518 -1.3824  0.3765
  162SOPE  H16X18222   0.473   6.088   8.796  1.5800 -2.2277  1.1283
  162SOPE  H16Y18223   0.318   5.996   8.805 -0.5502  0.0166 -0.6483
  162SOPE  C31718224   0.450   5.920   8.668  0.4362 -0.0674 -0.3627
  162SOPE  H17X18225   0.380   5.835   8.654 -0.3778  0.5644 -0.2046
  162SOPE  H17Y18226   0.554   5.882   8.659  0.4901  0.1191 -0.5218
  162SOPE  C31818227   0.422   6.020   8.558  0.1796  0.3874 -0.0147
  162SOPE  H18X18228   0.324   6.069   8.579  0.6987  1.8833 -0.9308
  162SOPE  H18Y18229   0.414   5.964   8.462 -0.8599 -0.1722  0.3798
  162SOPE  H18Z18230   0.503   6.095   8.551 -1.3431  2.2551  1.3799
  163SOPE     N18231   1.750   3.391  10.818 -1.0549 -0.9367 -0.5667
  163SOPE   HN118232   1.819   3.313  10.805 -0.6140 -0.5739 -0.4304
  163SOPE   HN218233   1.682   3.379  10.895 -0.7320  0.6203 -0.0164
  163SOPE   HN318234   1.706   3.414  10.727 -1.3569 -1.0583 -0.4530
  163SOPE   C1218235   1.819   3.511  10.872 -0.0770 -0.2401  0.4569
  163SOPE  H12A18236   1.763   3.603  10.846  0.0256 -0.8987 -2.4214
  163SOPE  H12B18237   1.913   3.528  10.815 -1.2727  1.3601 -1.1467
  163SOPE   C1118238   1.846   3.496  11.017 -0.1107  0.4268 -0.0026
  163SOPE  H11A18239   1.744   3.511  11.057 -0.7231  1.4076 -1.8316
  163SOPE  H11B18240   1.905   3.583  11.054  0.1918  1.0189 -1.7753
  163SOPE     P18241   2.049   3.337  11.052 -0.1833  0.1652  0.4495
  163SOPE   O1318242   2.062   3.200  11.097 -0.3486  0.3688 -0.0734
  163SOPE   O1418243   2.123   3.440  11.129  0.8209  0.2016 -0.2912
  163SOPE   O1218244   1.898   3.372  11.055 -0.6197 -0.4606  0.6990
  163SOPE   O1118245   2.090   3.347  10.903  0.6519 -0.5351 -0.2190
  163SOPE    C118246   2.128   3.234  10.823 -0.3217  0.4931  0.9655
  163SOPE    HA18247   2.048   3.160  10.801  0.6776  0.1655 -2.0775
  163SOPE    HB18248   2.210   3.176  10.870  0.7389 -0.5154 -1.8869
  163SOPE    C218249   2.177   3.281  10.686  0.6411  0.3884  0.4350
  163SOPE    HS18250   2.153   3.389  10.675  0.2539  0.2857  0.2670
  163SOPE   O2118251   2.115   3.211  10.578 -0.2718  0.1396  0.3961
  163SOPE   C2118252   1.991   3.242  10.552 -0.2612  0.8542  0.3406
  163SOPE   O2218253   1.922   3.317  10.614  0.4290 -0.2209  0.3216
  163SOPE   C2218254   1.951   3.164  10.420  0.0168  0.7961 -0.1633
  163SOPE   H2R18255   1.908   3.064  10.443  0.4737  0.7692  0.6222
  163SOPE   H2S18256   2.041   3.153  10.356 -1.0718  1.1057 -1.8079
  163SOPE    C318257   2.334   3.266  10.684  0.2669  0.5186 -0.5362
  163SOPE    HX18258   2.360   3.158  10.693  3.0136  1.2746  2.2191
  163SOPE    HY18259   2.378   3.319  10.771  0.5349 -0.2250 -0.2134
  163SOPE   O3118260   2.378   3.339  10.569 -0.1102  0.6327 -0.0067
  163SOPE   C3118261   2.431   3.258  10.477  0.1603 -0.2494  0.2051
  163SOPE   O3218262   2.459   3.136  10.484 -0.2862  0.3472  0.1370
  163SOPE   C3218263   2.471   3.351  10.363  0.2683 -0.4030 -0.3682
  163SOPE   H2X18264   2.564   3.406  10.390  0.4446 -1.3797  1.1243
  163SOPE   H2Y18265   2.399   3.435  10.352 -2.1629 -2.3520 -0.1541
  163SOPE   C2318266   1.847   3.230  10.330  0.6423  0.6704  0.4899
  163SOPE   H3R18267   1.871   3.337  10.312 -2.4550  1.3979  0.2620
  163SOPE   H3S18268   1.747   3.217  10.376 -0.3879 -0.9796 -2.0051
  163SOPE   C2418269   1.834   3.162  10.191  0.6754  0.7905  0.3842
  163SOPE   H4R18270   1.933   3.145  10.143  0.6908  0.0101  0.6831
  163SOPE   H4S18271   1.794   3.059  10.196  0.6707  0.7162 -0.7813
  163SOPE   C2518272   1.746   3.240  10.088  0.2434 -0.6984 -0.2986
  163SOPE   H5R18273   1.636   3.236  10.098 -0.1143  0.2590 -2.8861
  163SOPE   H5S18274   1.780   3.346  10.093  1.1826 -1.0006 -0.1491
  163SOPE   C2618275   1.772   3.206   9.944 -0.9422  0.4176 -0.1104
  163SOPE   H6R18276   1.876   3.211   9.903 -1.2166  0.0150 -0.8896
  163SOPE   H6S18277   1.743   3.100   9.925  0.6774 -0.0088 -0.3929
  163SOPE   C2718278   1.697   3.286   9.830  0.4083 -0.1771 -0.7553
  163SOPE   H7R18279   1.588   3.283   9.852  0.4632 -0.8745 -0.5678
  163SOPE   H7S18280   1.723   3.392   9.853  0.3673 -0.4236  0.4926
  163SOPE   C2818281   1.716   3.246   9.681  0.1782 -0.3517 -0.5073
  163SOPE   H8R18282   1.671   3.340   9.642 -1.6369 -0.8353  0.3044
  163SOPE   H8S18283   1.821   3.250   9.647  0.1904  0.2320 -0.4274
  163SOPE   C2918284   1.641   3.123   9.634 -0.4213  0.0550 -0.2804
  163SOPE   H9118285   1.640   3.040   9.705 -1.2243  1.3847  1.3326
  163SOPE  C21018286   1.563   3.104   9.522 -0.0739 -0.5732 -1.1312
  163SOPE  H10118287   1.507   3.010   9.525 -3.1172  0.9745  4.2994
  163SOPE  C21118288   1.525   3.210   9.416 -0.7547 -0.0522 -0.3704
  163SOPE  H11R18289   1.525   3.316   9.449 -2.1979 -0.2112  0.1997
  163SOPE  H11S18290   1.427   3.191   9.366 -0.4068 -0.8928 -0.7429
  163SOPE  C21218291   1.627   3.184   9.297  0.7064 -0.0298 -0.1154
  163SOPE  H12R18292   1.612   3.081   9.259  1.0646 -0.0874 -0.0959
  163SOPE  H12S18293   1.728   3.201   9.338  0.9916  1.4640 -1.3255
  163SOPE  C21318294   1.607   3.278   9.180 -0.7658  0.1520 -0.2217
  163SOPE  H13R18295   1.651   3.370   9.224  0.1023 -1.0775  1.5567
  163SOPE  H13S18296   1.500   3.298   9.158 -0.6086  2.2034  0.6644
  163SOPE  C21418297   1.665   3.230   9.043 -1.0110  0.4246  0.4451
  163SOPE  H14R18298   1.614   3.140   9.002 -0.1878 -0.0019  0.3263
  163SOPE  H14S18299   1.768   3.206   9.076 -1.5065  2.3046  3.6702
  163SOPE  C21518300   1.689   3.338   8.939 -0.5125  0.6149 -0.0393
  163SOPE  H15R18301   1.734   3.435   8.969 -1.9031  1.8289 -1.6553
  163SOPE  H15S18302   1.587   3.368   8.904 -1.4741 -1.0027  1.2562
  163SOPE  C21618303   1.769   3.290   8.822  1.0906 -0.4178 -0.5837
  163SOPE  H16R18304   1.749   3.366   8.744 -1.3181 -0.2395  0.1196
  163SOPE  H16S18305   1.719   3.196   8.789 -0.3326  0.7086 -1.7639
  163SOPE  C21718306   1.921   3.267   8.854 -0.2263  0.3171 -0.0528
  163SOPE  H17R18307   1.932   3.191   8.935  0.2979  0.2724 -0.1589
  163SOPE  H17S18308   1.970   3.360   8.889  0.1218 -0.2870  1.1078
  163SOPE  C21818309   1.992   3.203   8.730 -0.0190  0.3902 -0.5984
  163SOPE  H18R18310   1.989   3.286   8.657 -0.9697 -0.7227 -1.8858
  163SOPE  H18S18311   1.934   3.117   8.690  1.6810 -1.1354  0.1041
  163SOPE  H18T18312   2.087   3.152   8.759 -0.8951 -0.2825  1.2760
  163SOPE   C3318313   2.478   3.272  10.235  0.0196  0.3175 -0.2183
  163SOPE   H3X18314   2.512   3.167  10.243 -3.4961 -0.7965  3.1601
  163SOPE   H3Y18315   2.547   3.331  10.171  2.3787 -2.4248 -0.3778
  163SOPE   C3418316   2.343   3.278  10.155  0.6048  0.3871 -0.0492
  163SOPE   H4X18317   2.319   3.384  10.132 -1.1601  0.3076  1.2889
  163SOPE   H4Y18318   2.260   3.238  10.217  0.7836  2.3459  1.5109
  163SOPE   C3518319   2.366   3.212  10.015 -0.4588  0.3637 -0.1412
  163SOPE   H5X18320   2.385   3.106  10.041  0.8623  0.2489 -1.4459
  163SOPE   H5Y18321   2.452   3.250   9.956 -0.0846 -0.0371  0.1428
  163SOPE   C3618322   2.238   3.224   9.934 -0.0594 -0.2661 -0.6757
  163SOPE   H6X18323   2.202   3.329   9.924 -1.5141 -0.6898 -0.1139
  163SOPE   H6Y18324   2.161   3.166   9.989 -0.1894 -0.7277 -1.3388
  163SOPE   C3718325   2.256   3.165   9.794  0.1399  0.2292  0.4544
  163SOPE   H7X18326   2.318   3.072   9.793  0.6194  0.5517 -0.0712
  163SOPE   H7Y18327   2.316   3.234   9.731 -2.2115  2.6538  0.6993
  163SOPE   C3818328   2.125   3.131   9.728  0.2946  0.0208 -0.9367
  163SOPE   H8X18329   2.067   3.226   9.723  0.8124  0.2960 -2.5680
  163SOPE   H8Y18330   2.068   3.063   9.794  0.4415 -1.8098 -2.6176
  163SOPE   C3918331   2.146   3.068   9.594  0.6420  0.2879 -0.0001
  163SOPE   H9X18332   2.203   2.972   9.591  1.3682  0.6164  1.7304
  163SOPE   H9Y18333   2.203   3.136   9.527 -0.3860  1.8868  0.6976
  163SOPE  C31018334   2.010   3.037   9.521  0.3474  0.3850  0.0352
  163SOPE  H10X18335   1.959   3.134   9.501 -0.4480 -0.1871 -0.7728
  163SOPE  H10Y18336   1.954   2.959   9.576  2.0521 -1.5406 -0.8388
  163SOPE  C31118337   2.044   2.965   9.389  0.8284  0.2069  0.0224
  163SOPE  H11X18338   2.094   2.870   9.419  1.2752 -0.6989 -3.1886
  163SOPE  H11Y18339   2.105   3.026   9.320  0.5401  0.1575 -0.2768
  163SOPE  C31218340   1.921   2.927   9.305 -0.0101  0.0950 -0.1787
  163SOPE  H12X18341   1.853   3.009   9.276 -2.3803 -1.7934 -0.3543
  163SOPE  H12Y18342   1.860   2.854   9.363  0.0247  0.0815 -0.1578
  163SOPE  C31318343   1.966   2.850   9.180  0.7805  0.7349  0.4943
  163SOPE  H13X18344   2.036   2.769   9.210 -0.7044 -0.2621  1.3855
  163SOPE  H13Y18345   2.022   2.911   9.106  2.8882  0.0248  1.4001
  163SOPE  C31418346   1.844   2.790   9.115  0.1994  0.3143 -0.0101
  163SOPE  H14X18347   1.786   2.739   9.196 -1.1686  0.0014 -1.1506
  163SOPE  H14Y18348   1.881   2.709   9.048  2.8159  1.5726 -0.2100
  163SOPE  C31518349   1.747   2.886   9.037 -0.1602 -0.3864  0.0470
  163SOPE  H15X18350   1.809   2.965   8.988 -1.0109  0.7798  0.8045
  163SOPE  H15Y18351   1.664   2.923   9.100 -0.9047 -0.3955 -0.9143
  163SOPE  C31618352   1.682   2.815   8.913  0.1173 -0.0569  0.0728
  163SOPE  H16X18353   1.666   2.709   8.941  0.8427  0.4435  2.7073
  163SOPE  H16Y18354   1.748   2.811   8.823 -0.0300  0.2544 -0.0515
  163SOPE  C31718355   1.538   2.875   8.882 -0.2574  0.0047  0.2793
  163SOPE  H17X18356   1.557   2.983   8.864  0.4182  0.1119  1.5597
  163SOPE  H17Y18357   1.464   2.868   8.964  0.8145 -1.3878  1.1692
  163SOPE  C31818358   1.476   2.811   8.753 -0.4581  0.7920  0.3475
  163SOPE  H18X18359   1.471   2.700   8.756  2.3353  0.6060  2.4382
  163SOPE  H18Y18360   1.550   2.836   8.674 -0.1618  0.1848  0.4262
  163SOPE  H18Z18361   1.376   2.854   8.732 -2.2034 -2.4066  1.4500
  164SOPE     N18362   2.853   1.526  10.918  0.4170 -0.0215  0.3880
  164SOPE   HN118363   2.810   1.431  10.918 -2.2157  1.0664 -0.2568
  164SOPE   HN218364   2.774   1.590  10.891  0.4646 -0.2548 -0.3220
  164SOPE   HN318365   2.928   1.539  10.848 -0.9162 -0.7832 -1.2627
  164SOPE   C1218366   2.909   1.564  11.058  0.2294  0.0033  0.3462
  164SOPE  H12A18367   2.835   1.542  11.139 -0.7638  0.5751 -0.3808
  164SOPE  H12B18368   2.919   1.674  11.052  0.4964  0.0351  1.2281
  164SOPE   C1118369   3.051   1.501  11.070 -0.1754 -0.2390 -0.2465
  164SOPE  H11A18370   3.046   1.402  11.119 -0.6990 -0.4691 -0.7509
  164SOPE  H11B18371   3.110   1.543  11.154  0.6010 -4.2104  1.4042
  164SOPE     P18372   3.251   1.561  10.912 -0.4702 -0.2782 -0.1403
  164SOPE   O1318373   3.308   1.650  11.017  0.5051  0.5806 -0.1586
  164SOPE   O1418374   3.245   1.623  10.777 -0.2922  0.1014  0.3342
  164SOPE   O1218375   3.115   1.486  10.937  0.4089 -0.2113 -0.5827
  164SOPE   O1118376   3.357   1.444  10.906  0.1941  0.1414 -0.5007
  164SOPE    C118377   3.333   1.311  10.969  0.5507 -0.5006  0.1881
  164SOPE    HA18378   3.225   1.288  10.981  0.4275 -0.5342 -0.9367
  164SOPE    HB18379   3.369   1.313  11.074  0.6674 -2.9745  0.2532
  164SOPE    C218380   3.403   1.194  10.893 -0.2013 -0.3162 -0.0128
  164SOPE    HS18381   3.511   1.210  10.914 -0.3004  1.2666 -0.5769
  164SOPE   O2118382   3.372   1.186  10.751 -0.0234 -0.2999  0.5653
  164SOPE   C2118383   3.447   1.259  10.673  0.4147 -0.1311  0.0412
  164SOPE   O2218384   3.556   1.312  10.700 -0.7693  0.0641  0.4971
  164SOPE   C2218385   3.389   1.250  10.529 -0.1596  0.5903  0.1068
  164SOPE   H2R18386   3.303   1.318  10.511 -2.0124 -2.1635 -2.3253
  164SOPE   H2S18387   3.366   1.143  10.509  2.8773 -0.0202 -0.6471
  164SOPE    C318388   3.352   1.059  10.959 -0.0158 -0.3365  0.5611
  164SOPE    HX18389   3.418   0.981  10.917  1.2535  0.1465  1.5811
  164SOPE    HY18390   3.252   1.029  10.921 -0.0465  0.2248  0.1851
  164SOPE   O3118391   3.368   1.064  11.100 -0.7146 -0.1516  0.3471
  164SOPE   C3118392   3.307   0.973  11.174 -0.2794 -1.0570  0.1074
  164SOPE   O3218393   3.238   0.881  11.123  0.2256 -0.3828 -1.1174
  164SOPE   C3218394   3.323   0.999  11.324 -0.3473  0.4163  0.8283
  164SOPE   H2X18395   3.427   1.029  11.347  1.0837 -1.9386 -1.9313
  164SOPE   H2Y18396   3.313   0.902  11.376  2.9802 -0.2488  0.4592
  164SOPE   C2318397   3.490   1.280  10.408  0.0835 -0.0027 -0.7760
  164SOPE   H3R18398   3.582   1.221  10.429 -0.0350  0.6930  2.2575
  164SOPE   H3S18399   3.524   1.386  10.402 -2.6515  0.9473 -1.0925
  164SOPE   C2418400   3.431   1.243  10.278 -0.5899 -0.1574 -0.5429
  164SOPE   H4R18401   3.403   1.136  10.290 -2.8561  0.3317 -1.0323
  164SOPE   H4S18402   3.336   1.291  10.246 -1.7167 -1.9061 -0.0039
  164SOPE   C2518403   3.530   1.259  10.164  0.1757 -0.3253 -0.1965
  164SOPE   H5R18404   3.541   1.367  10.139  2.1340 -0.5006 -0.2628
  164SOPE   H5S18405   3.628   1.211  10.184  0.1147  0.1592  1.3495
  164SOPE   C2618406   3.473   1.175  10.039  0.1244  0.0865 -0.5047
  164SOPE   H6R18407   3.465   1.070  10.075 -2.1743  0.1849 -0.5809
  164SOPE   H6S18408   3.372   1.211  10.010 -0.9112 -0.4660  2.1358
  164SOPE   C2718409   3.569   1.190   9.917  0.0948 -0.0144  0.1871
  164SOPE   H7R18410   3.522   1.263   9.847 -0.6888 -1.8711 -1.2954
  164SOPE   H7S18411   3.671   1.223   9.949  0.7077 -1.0390 -0.6501
  164SOPE   C2818412   3.596   1.058   9.842  0.2552 -0.2144  0.8936
  164SOPE   H8R18413   3.637   0.990   9.919 -2.3376  0.9816  3.4896
  164SOPE   H8S18414   3.501   1.028   9.792  0.9507  0.2201 -0.7890
  164SOPE   C2918415   3.696   1.081   9.723  1.1164  0.2523  0.0457
  164SOPE   H9118416   3.643   1.102   9.629  0.9904 -1.6300 -0.3377
  164SOPE  C21018417   3.831   1.084   9.722  0.4896 -0.4478  0.3504
  164SOPE  H10118418   3.889   1.078   9.629  2.2399 -1.4694  1.4583
  164SOPE  C21118419   3.921   1.050   9.845 -0.3379  0.2350  0.2911
  164SOPE  H11R18420   4.013   0.997   9.812 -0.8125 -0.0473 -0.5931
  164SOPE  H11S18421   3.862   0.984   9.912  0.1662  0.4237  0.9356
  164SOPE  C21218422   3.967   1.175   9.921  0.3622 -0.0367  0.2307
  164SOPE  H12R18423   3.876   1.221   9.965  0.8038 -0.1025  1.2425
  164SOPE  H12S18424   4.021   1.244   9.853 -1.7770  0.8387 -0.6492
  164SOPE  C21318425   4.074   1.139  10.028  0.6232  0.5648  0.0094
  164SOPE  H13R18426   4.162   1.089   9.982  0.0437 -0.4743 -0.0027
  164SOPE  H13S18427   4.042   1.066  10.104  1.8169  0.4132  0.3950
  164SOPE  C21418428   4.133   1.255  10.106 -0.4542  0.1434 -0.4582
  164SOPE  H14R18429   4.129   1.339  10.033 -3.5963  0.7286  0.2696
  164SOPE  H14S18430   4.236   1.221  10.133 -0.8547 -0.6192  0.1526
  164SOPE  C21518431   4.051   1.301  10.224  0.1845  0.2915  0.0335
  164SOPE  H15R18432   3.956   1.346  10.186 -1.0013 -0.7099  1.6741
  164SOPE  H15S18433   4.110   1.385  10.265  3.7473 -2.1610  0.4100
  164SOPE  C21618434   4.024   1.195  10.333 -0.1536  0.2168  0.4816
  164SOPE  H16R18435   4.118   1.181  10.391 -0.7907  1.0157  1.7540
  164SOPE  H16S18436   3.998   1.100  10.281  3.5095 -0.1082 -1.0424
  164SOPE  C21718437   3.911   1.243  10.429  0.2235  0.4342 -0.0681
  164SOPE  H17R18438   3.864   1.154  10.477  0.8134  0.0565 -0.1796
  164SOPE  H17S18439   3.826   1.270  10.362  0.9727 -1.3582 -1.8402
  164SOPE  C21818440   3.953   1.348  10.526 -0.6318  0.2085 -1.0814
  164SOPE  H18R18441   3.983   1.447  10.485 -0.0406  0.5479  0.1305
  164SOPE  H18S18442   4.036   1.321  10.595 -1.3015  2.7408  0.8983
  164SOPE  H18T18443   3.868   1.377  10.592  1.6206  2.3043  1.1290
  164SOPE   C3318444   3.238   1.112  11.372 -0.2669  0.1055 -0.1406
  164SOPE   H3X18445   3.249   1.197  11.301  0.1701 -1.0286 -1.4694
  164SOPE   H3Y18446   3.269   1.133  11.476 -1.3175 -1.0624  0.4309
  164SOPE   C3418447   3.088   1.075  11.395 -0.2467 -0.6167  0.4929
  164SOPE   H4X18448   3.045   1.032  11.302 -1.3650 -2.1695  1.6721
  164SOPE   H4Y18449   3.033   1.169  11.415  0.9499  0.0964  0.5285
  164SOPE   C3518450   3.071   0.978  11.505  1.2560  0.1488 -0.1781
  164SOPE   H5X18451   3.089   1.020  11.606  0.6816  1.5159 -0.6230
  164SOPE   H5Y18452   3.133   0.885  11.500 -0.3750 -0.9227 -2.4133
  164SOPE   C3618453   2.932   0.904  11.495 -0.1057 -0.4385 -0.1623
  164SOPE   H6X18454   2.932   0.836  11.583  0.9014 -0.0096  0.1877
  164SOPE   H6Y18455   2.933   0.844  11.402  0.3532  1.4745 -1.4499
  164SOPE   C3718456   2.821   1.008  11.493 -1.1439 -0.1849  0.1352
  164SOPE   H7X18457   2.793   1.024  11.386 -0.3416 -1.5616 -0.3074
  164SOPE   H7Y18458   2.858   1.108  11.526 -1.0371  0.9573 -2.9936
  164SOPE   C3818459   2.697   0.985  11.576 -0.3634 -0.1827 -0.5733
  164SOPE   H8X18460   2.723   0.988  11.684  0.7845  1.1744 -0.8708
  164SOPE   H8Y18461   2.665   0.879  11.567 -0.6312 -0.0370 -1.4470
  164SOPE   C3918462   2.579   1.073  11.555  0.1220  0.2618  0.8713
  164SOPE   H9X18463   2.490   1.014  11.585  0.8138 -0.7788  0.9459
  164SOPE   H9Y18464   2.580   1.088  11.445  0.9436  0.5027  0.9007
  164SOPE  C31018465   2.587   1.211  11.615 -0.3524 -0.4168 -0.3556
  164SOPE  H10X18466   2.663   1.265  11.555  0.4007  0.1628  1.0838
  164SOPE  H10Y18467   2.622   1.213  11.720 -0.9658  1.1913 -0.1489
  164SOPE  C31118468   2.453   1.294  11.613  0.4049 -0.2553  0.7098
  164SOPE  H11X18469   2.432   1.297  11.504  0.7550 -5.0461  0.2859
  164SOPE  H11Y18470   2.472   1.379  11.682  1.6412 -2.2078  2.9400
  164SOPE  C31218471   2.334   1.220  11.680 -0.0864 -0.1795  0.2445
  164SOPE  H12X18472   2.339   1.215  11.791 -1.5415 -0.1343  0.3396
  164SOPE  H12Y18473   2.320   1.118  11.637  0.2090  0.1504 -0.6522
  164SOPE  C31318474   2.214   1.308  11.651  0.4295 -0.6472  0.1781
  164SOPE  H13X18475   2.241   1.414  11.670 -0.0917 -0.8633  2.3788
  164SOPE  H13Y18476   2.139   1.270  11.723  0.4044 -1.0616 -0.0597
  164SOPE  C31418477   2.152   1.287  11.510 -0.0536  0.3192 -0.0537
  164SOPE  H14X18478   2.227   1.309  11.431  0.0231 -1.8357 -0.6372
  164SOPE  H14Y18479   2.082   1.373  11.497 -0.9052 -0.1402  1.2815
  164SOPE  C31518480   2.085   1.150  11.490  0.0987 -0.0309  0.3019
  164SOPE  H15X18481   1.979   1.156  11.524 -0.9440  0.6242 -2.7055
  164SOPE  H15Y18482   2.142   1.072  11.546  1.6238 -0.1432 -1.3034
  164SOPE  C31618483   2.075   1.119  11.342  0.3952 -0.2362 -0.4257
  164SOPE  H16X18484   2.174   1.147  11.299  0.7932  1.2628  1.3420
  164SOPE  H16Y18485   2.005   1.196  11.302  1.9073  1.1172 -0.5709
  164SOPE  C31718486   2.037   0.975  11.303  0.1476  0.2010 -0.5601
  164SOPE  H17X18487   2.120   0.902  11.318 -1.4801 -2.1571 -2.2293
  164SOPE  H17Y18488   2.025   0.976  11.192  1.0293  0.4361 -0.6570
  164SOPE  C31818489   1.923   0.914  11.380 -0.1131 -0.0692 -0.6243
  164SOPE  H18X18490   1.960   0.900  11.483 -0.9288  1.1730 -0.1463
  164SOPE  H18Y18491   1.903   0.808  11.353  1.1885 -0.8171  1.1928
  164SOPE  H18Z18492   1.830   0.974  11.390 -0.5467 -0.9134  0.6366
  165SOPE     N18493   2.332   1.637  11.264 -0.4168  0.0053  0.1516
  165SOPE   HN118494   2.314   1.545  11.220 -2.3267  1.4673 -2.4298
  165SOPE   HN218495   2.329   1.626  11.367 -0.2079 -0.4957  0.1072
  165SOPE   HN318496   2.251   1.697  11.239 -0.3086  0.0605 -0.0719
  165SOPE   C1218497   2.471   1.694  11.218 -0.5454 -0.2475  0.2676
  165SOPE  H12A18498   2.530   1.706  11.312  0.0552 -0.0993 -0.1233
  165SOPE  H12B18499   2.446   1.796  11.181 -0.3157 -0.0910  0.5393
  165SOPE   C1118500   2.538   1.612  11.116 -0.5595 -0.4736  0.4656
  165SOPE  H11A18501   2.528   1.505  11.144 -0.8903 -0.6828 -0.3989
  165SOPE  H11B18502   2.648   1.629  11.112 -0.5061 -0.8162  0.4251
  165SOPE     P18503   2.532   1.728  10.882  0.3790 -0.1105  0.1019
  165SOPE   O1318504   2.678   1.718  10.902 -0.3134  0.0309 -0.0913
  165SOPE   O1418505   2.462   1.853  10.915  0.2797  0.0434  0.1914
  165SOPE   O1218506   2.480   1.621  10.981 -0.4055  0.0801  0.0857
  165SOPE   O1118507   2.478   1.661  10.750 -0.0021  0.3061  0.3048
  165SOPE    C118508   2.514   1.720  10.619  0.2113 -0.2107 -0.4540
  165SOPE    HA18509   2.528   1.829  10.636  0.4400 -0.3152  0.0290
  165SOPE    HB18510   2.425   1.701  10.554 -1.2933  0.0046  1.4398
  165SOPE    C218511   2.643   1.657  10.555 -0.6642  0.5216  0.6752
  165SOPE    HS18512   2.733   1.701  10.602  0.1217  0.7302 -0.9509
  165SOPE   O2118513   2.643   1.680  10.416  0.1423  0.3514 -0.0569
  165SOPE   C2118514   2.760   1.713  10.350  0.3604  0.0418 -0.3926
  165SOPE   O2218515   2.866   1.711  10.406  0.0074  0.4016 -0.2011
  165SOPE   C2218516   2.728   1.729  10.195  0.6528 -0.2051 -0.0165
  165SOPE   H2R18517   2.659   1.816  10.186  1.3851  0.4044  0.1249
  165SOPE   H2S18518   2.659   1.648  10.166  2.3833 -1.2345 -1.4250
  165SOPE    C318519   2.658   1.501  10.577 -0.2711  0.5281  0.0198
  165SOPE    HX18520   2.560   1.464  10.541  0.1696  0.6622 -1.4137
  165SOPE    HY18521   2.657   1.464  10.681 -1.1591  0.8569  0.1396
  165SOPE   O3118522   2.756   1.435  10.498 -0.8253  0.1462 -0.5343
  165SOPE   C3118523   2.884   1.417  10.540  0.0106 -0.1726  0.2073
  165SOPE   O3218524   2.926   1.448  10.655  0.4072 -0.6171 -0.0963
  165SOPE   C3218525   2.951   1.336  10.435  0.4109  0.8367 -1.1222
  165SOPE   H2X18526   2.917   1.231  10.443  3.1935  0.0285  1.7799
  165SOPE   H2Y18527   3.060   1.342  10.456  0.3830 -2.2971  0.3336
  165SOPE   C2318528   2.853   1.750  10.105 -0.2189  0.1215 -0.0175
  165SOPE   H3R18529   2.926   1.669  10.127  1.3871  0.8959 -2.1477
  165SOPE   H3S18530   2.906   1.839  10.144  1.6679 -0.8619 -0.2236
  165SOPE   C2418531   2.824   1.748   9.953  0.5956  0.3745 -0.2748
  165SOPE   H4R18532   2.916   1.782   9.901  0.7740 -0.8344 -0.7671
  165SOPE   H4S18533   2.813   1.643   9.919  1.7801 -0.3994  1.5791
  165SOPE   C2518534   2.720   1.848   9.909  0.0169 -0.0300 -0.8031
  165SOPE   H5R18535   2.615   1.812   9.909 -1.1202  3.0092 -0.3878
  165SOPE   H5S18536   2.707   1.932   9.981 -1.9843 -0.2492 -0.8593
  165SOPE   C2618537   2.759   1.905   9.771 -0.4907 -0.1725  0.7543
  165SOPE   H6R18538   2.857   1.953   9.790 -1.4846  1.8153  1.1244
  165SOPE   H6S18539   2.782   1.820   9.704  2.9214 -1.3493  3.1675
  165SOPE   C2718540   2.665   2.012   9.702  0.0960  0.0771  0.3476
  165SOPE   H7R18541   2.582   1.956   9.653  0.7993  0.1124 -0.9289
  165SOPE   H7S18542   2.618   2.081   9.775 -0.0884 -0.8587  1.1396
  165SOPE   C2818543   2.731   2.104   9.600 -0.9125 -0.8763 -0.4614
  165SOPE   H8R18544   2.759   2.046   9.509  1.0723 -0.3825 -0.2304
  165SOPE   H8S18545   2.659   2.181   9.567 -0.0443  0.5194  0.7681
  165SOPE   C2918546   2.848   2.183   9.653  0.2186 -0.3479  0.3304
  165SOPE   H9118547   2.830   2.230   9.751 -0.8417 -0.5770  0.2560
  165SOPE  C21018548   2.964   2.193   9.597  0.3929 -0.5272  0.1613
  165SOPE  H10118549   3.041   2.250   9.652 -0.9456  0.5675  1.0010
  165SOPE  C21118550   3.007   2.127   9.467  0.0329  0.7429  0.3951
  165SOPE  H11R18551   3.095   2.169   9.413 -0.4760 -0.8617 -1.8176
  165SOPE  H11S18552   2.923   2.145   9.397 -1.1086  1.6702  1.9520
  165SOPE  C21218553   3.041   1.980   9.482  0.1304 -0.1068  0.4753
  165SOPE  H12R18554   2.963   1.936   9.548  0.4724  1.4629  1.9830
  165SOPE  H12S18555   3.139   1.974   9.534 -0.3594  0.1547  1.4491
  165SOPE  C21318556   3.049   1.894   9.357  0.0767  0.7669 -0.0062
  165SOPE  H13R18557   3.128   1.942   9.295 -0.6419  2.9988  0.7343
  165SOPE  H13S18558   2.950   1.904   9.308 -0.7075 -0.0253  1.3461
  165SOPE  C21418559   3.087   1.749   9.378  0.7240  0.4122 -0.6794
  165SOPE  H14R18560   3.005   1.696   9.430  0.0598  0.4036 -1.7141
  165SOPE  H14S18561   3.174   1.746   9.447  0.6660  2.6966 -0.4251
  165SOPE  C21518562   3.113   1.671   9.254 -0.4071 -0.5015 -0.2447
  165SOPE  H15R18563   3.193   1.724   9.198  0.7318 -1.7227  0.1810
  165SOPE  H15S18564   3.013   1.680   9.206 -1.7847  1.3450  2.6248
  165SOPE  C21618565   3.159   1.534   9.285 -0.0283  0.0986  0.1087
  165SOPE  H16R18566   3.094   1.495   9.366  0.6337 -0.4137  0.4081
  165SOPE  H16S18567   3.267   1.524   9.310  0.2194  1.1209 -0.5228
  165SOPE  C21718568   3.148   1.438   9.165 -0.6313  0.5016 -0.1595
  165SOPE  H17R18569   3.230   1.450   9.092  0.3533  0.9828  0.9999
  165SOPE  H17S18570   3.060   1.468   9.105 -0.7258 -1.5973 -1.1775
  165SOPE  C21818571   3.145   1.292   9.207 -0.1682  0.2732  0.1734
  165SOPE  H18R18572   3.235   1.256   9.260  0.0696 -1.2676 -1.2152
  165SOPE  H18S18573   3.123   1.218   9.127 -2.5839 -0.7562  1.6662
  165SOPE  H18T18574   3.066   1.275   9.284  0.6075  0.4623  1.0253
  165SOPE   C3318575   2.925   1.391  10.292 -0.6964  0.2911 -0.2735
  165SOPE   H3X18576   2.972   1.490  10.277 -0.0344 -0.3141 -2.5429
  165SOPE   H3Y18577   2.815   1.384  10.277 -1.4469  2.9511  2.9339
  165SOPE   C3418578   2.984   1.297  10.188  0.2082 -0.5856 -0.0711
  165SOPE   H4X18579   2.942   1.194  10.178 -1.2601 -0.2476  2.0175
  165SOPE   H4Y18580   3.093   1.290  10.206  0.2846 -1.9120 -0.8769
  165SOPE   C3518581   2.967   1.359  10.044  0.1186 -0.2913  0.2917
  165SOPE   H5X18582   3.004   1.464  10.044 -0.6577  0.0004  0.9895
  165SOPE   H5Y18583   2.859   1.355  10.020  0.0561  0.0221  0.5005
  165SOPE   C3618584   3.031   1.283   9.931 -0.2298  0.0366 -0.3362
  165SOPE   H6X18585   2.973   1.188   9.925 -0.4080  0.1216  0.0626
  165SOPE   H6Y18586   3.137   1.275   9.966 -0.6396  2.6666  1.7935
  165SOPE   C3718587   3.034   1.359   9.802 -0.2422 -0.2176  0.0517
  165SOPE   H7X18588   3.096   1.451   9.810 -1.0013  0.2438  0.7207
  165SOPE   H7Y18589   2.930   1.396   9.800 -0.1616  0.0263  0.2322
  165SOPE   C3818590   3.073   1.270   9.683  0.4859 -0.0647 -0.1008
  165SOPE   H8X18591   3.080   1.328   9.588 -0.3001 -1.8672 -1.3206
  165SOPE   H8Y18592   2.989   1.198   9.673  1.2090 -0.9812  0.1672
  165SOPE   C3918593   3.204   1.198   9.707  0.3311  0.2221  0.0291
  165SOPE   H9X18594   3.186   1.129   9.791  1.6687 -1.8402 -1.3028
  165SOPE   H9Y18595   3.270   1.282   9.736  0.5167  0.5596 -1.2861
  165SOPE  C31018596   3.262   1.121   9.585  0.4387  0.4678  0.2363
  165SOPE  H10X18597   3.361   1.071   9.592 -0.6424 -1.9321 -0.5682
  165SOPE  H10Y18598   3.278   1.189   9.499  0.5900  0.2862  0.1188
  165SOPE  C31118599   3.169   1.016   9.537  0.6360  0.4624 -0.2037
  165SOPE  H11X18600   3.210   0.951   9.456  1.1743  0.6051 -0.0525
  165SOPE  H11Y18601   3.073   1.062   9.508  0.1554 -2.0122 -2.9951
  165SOPE  C31218602   3.125   0.902   9.636 -0.2036 -0.1791 -1.0529
  165SOPE  H12X18603   3.036   0.851   9.593 -1.1920  0.4631  0.1474
  165SOPE  H12Y18604   3.076   0.944   9.726 -0.5247 -1.0251 -0.8208
  165SOPE  C31318605   3.238   0.810   9.685 -0.0507 -0.0243 -0.3424
  165SOPE  H13X18606   3.341   0.848   9.673  0.0027 -0.0777 -0.0554
  165SOPE  H13Y18607   3.226   0.711   9.637 -3.8233 -0.2490  0.7007
  165SOPE  C31418608   3.229   0.765   9.838  0.7414  0.0572  0.4717
  165SOPE  H14X18609   3.283   0.670   9.859  0.4709  0.0732  1.2847
  165SOPE  H14Y18610   3.120   0.748   9.852  1.2779 -2.7169  1.9622
  165SOPE  C31518611   3.267   0.873   9.943 -0.3063 -0.1976 -0.3978
  165SOPE  H15X18612   3.221   0.966   9.903  0.4887  0.5461  0.3613
  165SOPE  H15Y18613   3.376   0.896   9.948 -0.3105 -0.3741  2.2967
  165SOPE  C31618614   3.204   0.848  10.079  0.3251  0.3054 -0.5598
  165SOPE  H16X18615   3.093   0.846  10.069  0.0076  3.0940  1.0764
  165SOPE  H16Y18616   3.230   0.939  10.138 -2.4998  1.7326 -1.3117
  165SOPE  C31718617   3.251   0.711  10.142 -0.1029 -0.5398 -0.2452
  165SOPE  H17X18618   3.362   0.713  10.154 -0.2868 -2.0885  2.5883
  165SOPE  H17Y18619   3.231   0.628  10.071 -1.8195 -1.1967  0.9616
  165SOPE  C31818620   3.193   0.684  10.276  0.4949  0.0968  0.1959
  165SOPE  H18X18621   3.199   0.574  10.285  0.3142  0.0898  0.2355
  165SOPE  H18Y18622   3.087   0.717  10.282  1.0365  1.6993  2.2544
  165SOPE  H18Z18623   3.250   0.724  10.363  1.1919 -0.0661 -0.1790
  166SOPE     N18624   5.212   4.741  11.345 -0.3497  0.7645  0.0459
  166SOPE   HN118625   5.281   4.810  11.379 -1.7358  1.8149  0.8331
  166SOPE   HN218626   5.164   4.686  11.419  0.2814 -1.5123 -1.1457
  166SOPE   HN318627   5.262   4.674  11.283 -0.0424  0.0505  1.0353
  166SOPE   C1218628   5.115   4.821  11.263  0.1142 -0.2944  0.1762
  166SOPE  H12A18629   5.168   4.882  11.187 -0.3460  4.1839  3.1125
  166SOPE  H12B18630   5.064   4.897  11.325  1.5152 -0.8444  2.0870
  166SOPE   C1118631   5.010   4.728  11.201  0.3051 -0.3724 -0.6855
  166SOPE  H11A18632   4.930   4.792  11.159 -0.4339 -0.7397  0.1276
  166SOPE  H11B18633   4.960   4.666  11.279  0.0577 -0.3582 -0.8293
  166SOPE     P18634   4.952   4.584  10.990  0.4041 -0.0836  0.1677
  166SOPE   O1318635   4.906   4.699  10.911 -0.4312 -0.4323 -0.7758
  166SOPE   O1418636   4.850   4.518  11.075 -0.2066 -0.1305 -0.5749
  166SOPE   O1218637   5.056   4.643  11.096 -0.9029  0.2599  0.0782
  166SOPE   O1118638   5.041   4.480  10.905  0.1349 -0.3620 -0.6065
  166SOPE    C118639   5.086   4.355  10.953  0.4984  0.4633  0.5265
  166SOPE    HA18640   5.063   4.276  10.879  0.6024 -0.7888  1.7838
  166SOPE    HB18641   5.020   4.325  11.038  0.3644 -1.3333 -0.1747
  166SOPE    C218642   5.239   4.350  10.993  0.2305  0.1483  0.2316
  166SOPE    HS18643   5.261   4.409  11.084 -1.9710  1.2205  0.1311
  166SOPE   O2118644   5.313   4.395  10.876  0.6273 -0.0605  0.3694
  166SOPE   C2118645   5.427   4.453  10.913  0.5388 -0.4748 -0.1174
  166SOPE   O2218646   5.473   4.460  11.024  0.2078 -0.0049  0.0107
  166SOPE   C2218647   5.493   4.508  10.785 -0.7618 -0.6897  0.1365
  166SOPE   H2R18648   5.586   4.551  10.828 -0.8047 -0.0846 -0.3594
  166SOPE   H2S18649   5.431   4.593  10.752  1.9692  1.2947 -0.2162
  166SOPE    C318650   5.279   4.206  11.027  0.2793  0.3977  0.2637
  166SOPE    HX18651   5.218   4.182  11.117 -0.4917 -0.1259 -0.3823
  166SOPE    HY18652   5.388   4.210  11.049  0.0074  1.3326  1.6098
  166SOPE   O3118653   5.244   4.108  10.917 -0.6388 -0.1926  0.2402
  166SOPE   C3118654   5.316   3.999  10.913 -0.2817  0.4813 -0.6787
  166SOPE   O3218655   5.400   3.968  11.001 -0.1274 -0.8613  0.0523
  166SOPE   C3218656   5.276   3.907  10.803  1.3255  0.1285  0.2495
  166SOPE   H2X18657   5.165   3.896  10.803  1.4831 -2.5874 -1.8964
  166SOPE   H2Y18658   5.309   3.804  10.828  0.7230 -0.8274 -2.5061
  166SOPE   C2318659   5.512   4.399  10.678 -0.1274 -0.0635  0.1857
  166SOPE   H3R18660   5.410   4.365  10.651  0.6429 -1.4410 -1.1493
  166SOPE   H3S18661   5.555   4.310  10.729  1.3744  0.9293  0.7236
  166SOPE   C2418662   5.601   4.449  10.562 -0.3372  0.1680  0.5434
  166SOPE   H4R18663   5.551   4.536  10.514 -0.2807 -0.5984 -0.9668
  166SOPE   H4S18664   5.702   4.476  10.600  0.1443 -2.1927  1.0588
  166SOPE   C2518665   5.607   4.342  10.450 -0.6443  0.7187 -0.5023
  166SOPE   H5R18666   5.687   4.267  10.462 -1.7398 -0.4212 -0.1433
  166SOPE   H5S18667   5.510   4.288  10.461  0.5139 -1.4990 -0.7065
  166SOPE   C2618668   5.620   4.395  10.309  0.7648 -0.3537  0.0954
  166SOPE   H6R18669   5.542   4.473  10.297  0.6143 -0.4385  0.5208
  166SOPE   H6S18670   5.723   4.435  10.296  0.9287 -0.8877 -0.2994
  166SOPE   C2718671   5.597   4.292  10.196  0.1962  0.1061  0.0899
  166SOPE   H7R18672   5.617   4.344  10.100  1.3099 -0.2791  0.0950
  166SOPE   H7S18673   5.680   4.218  10.203 -0.5735 -0.9312 -1.3721
  166SOPE   C2818674   5.468   4.205  10.209 -0.1622 -1.0619  0.3528
  166SOPE   H8R18675   5.476   4.157  10.309 -0.6461  0.6321  1.2388
  166SOPE   H8S18676   5.388   4.281  10.206  0.9181  0.0826 -1.0982
  166SOPE   C2918677   5.464   4.112  10.093  0.2135  0.8257  0.1654
  166SOPE   H9118678   5.537   4.031  10.103 -1.1875 -0.6334 -0.9755
  166SOPE  C21018679   5.397   4.117   9.976  0.5897 -0.8067  0.1968
  166SOPE  H10118680   5.410   4.037   9.901  0.2194  0.0438 -0.8023
  166SOPE  C21118681   5.290   4.218   9.950  0.3918 -0.0007 -0.2687
  166SOPE  H11R18682   5.315   4.264   9.852  0.7869 -0.9348 -0.6123
  166SOPE  H11S18683   5.287   4.295  10.031  0.1816 -2.5199  2.2673
  166SOPE  C21218684   5.155   4.146   9.932  0.5712  0.1927 -0.2803
  166SOPE  H12R18685   5.074   4.222   9.927  0.5006  0.1817  0.5597
  166SOPE  H12S18686   5.133   4.096  10.029 -0.8632 -0.1335 -0.7420
  166SOPE  C21318687   5.137   4.053   9.818  0.5847  0.1086 -1.0316
  166SOPE  H13R18688   5.188   3.958   9.844 -0.9401 -0.4072  0.2365
  166SOPE  H13S18689   5.173   4.102   9.725 -2.3497  1.5557 -1.5226
  166SOPE  C21418690   4.984   4.026   9.797 -0.5805 -0.5197  0.1309
  166SOPE  H14R18691   4.938   4.112   9.744 -0.2894 -0.8557 -0.6702
  166SOPE  H14S18692   4.940   4.021   9.900  0.9253  0.3322  0.8531
  166SOPE  C21518693   4.940   3.891   9.726 -0.1477  1.2601 -0.5553
  166SOPE  H15R18694   4.830   3.876   9.729 -0.0317 -0.2819 -2.3937
  166SOPE  H15S18695   4.980   3.804   9.782  0.0664  1.0452 -1.0313
  166SOPE  C21618696   4.986   3.884   9.581 -0.1995 -0.0056  0.8179
  166SOPE  H16R18697   5.090   3.847   9.585  0.1252  0.8956  0.9286
  166SOPE  H16S18698   4.983   3.979   9.525 -0.2729 -1.7100 -2.2736
  166SOPE  C21718699   4.901   3.775   9.505  0.0017  0.2732 -0.0106
  166SOPE  H17R18700   4.955   3.763   9.409 -0.3852 -0.3113 -0.1584
  166SOPE  H17S18701   4.796   3.805   9.482 -0.2959 -2.5926 -3.0919
  166SOPE  C21818702   4.895   3.638   9.573  0.1673 -0.4294  0.6289
  166SOPE  H18R18703   4.844   3.578   9.495 -1.3307  0.7950  0.6071
  166SOPE  H18S18704   4.836   3.632   9.667  0.1245  2.3039  0.8697
  166SOPE  H18T18705   4.997   3.599   9.593  0.1431  0.1253  1.9238
  166SOPE   C3318706   5.325   3.953  10.662  0.7792 -0.0728 -0.2942
  166SOPE   H3X18707   5.431   3.988  10.668  0.7703 -0.2846  1.7105
  166SOPE   H3Y18708   5.265   4.034  10.616  2.0416  1.8357  1.2606
  166SOPE   C3418709   5.320   3.832  10.565  0.6393 -0.2159  0.1891
  166SOPE   H4X18710   5.215   3.799  10.552  0.6971 -0.9742  1.4127
  166SOPE   H4Y18711   5.372   3.751  10.622 -0.3007 -1.4191 -0.6218
  166SOPE   C3518712   5.380   3.857  10.430  0.7225  0.0539 -0.4071
  166SOPE   H5X18713   5.477   3.909  10.449  0.1280  1.3325 -0.7332
  166SOPE   H5Y18714   5.319   3.934  10.378  3.4212  2.2992 -0.4991
  166SOPE   C3618715   5.393   3.726  10.346  0.0634  0.6187 -0.4474
  166SOPE   H6X18716   5.307   3.658  10.367  0.1759  0.5058 -0.3483
  166SOPE   H6Y18717   5.488   3.683  10.384 -0.0553  0.7624  0.0195
  166SOPE   C3718718   5.392   3.764  10.195 -0.4770  0.0994  0.5975
  166SOPE   H7X18719   5.481   3.820  10.159 -1.8038  1.6764 -0.3954
  166SOPE   H7Y18720   5.300   3.823  10.172 -0.2103  0.6941  1.0207
  166SOPE   C3818721   5.376   3.647  10.102  0.3282  0.2389 -0.3385
  166SOPE   H8X18722   5.285   3.590  10.129  0.9936  0.9721  4.2846
  166SOPE   H8Y18723   5.465   3.582  10.118  0.7051  0.5885 -0.9502
  166SOPE   C3918724   5.380   3.684   9.955 -0.2087 -0.0034  0.3239
  166SOPE   H9X18725   5.474   3.739   9.933  0.1144  0.5320  2.6958
  166SOPE   H9Y18726   5.298   3.752   9.923  0.8606  0.4627 -1.5226
  166SOPE  C31018727   5.365   3.562   9.867  0.0129 -0.3519  0.5482
  166SOPE  H10X18728   5.274   3.502   9.888  0.0648 -0.8729 -0.6284
  166SOPE  H10Y18729   5.450   3.492   9.883  2.0012  1.6021 -0.8292
  166SOPE  C31118730   5.356   3.594   9.715 -0.1504  0.7910 -0.1654
  166SOPE  H11X18731   5.455   3.639   9.691  0.0239  0.8486  0.6061
  166SOPE  H11Y18732   5.272   3.665   9.702 -1.9984 -0.8971  1.8535
  166SOPE  C31218733   5.335   3.464   9.628 -0.1109 -0.9605 -0.3587
  166SOPE  H12X18734   5.239   3.418   9.658  0.1541 -0.4594  1.3416
  166SOPE  H12Y18735   5.412   3.384   9.637  0.9508  0.2374  1.9554
  166SOPE  C31318736   5.321   3.499   9.478 -0.3954 -0.3798 -0.1712
  166SOPE  H13X18737   5.250   3.581   9.452 -1.2799 -1.5324 -1.5293
  166SOPE  H13Y18738   5.275   3.414   9.423 -3.1773  0.6159  0.4320
  166SOPE  C31418739   5.456   3.542   9.417 -0.1177  0.1353 -0.1344
  166SOPE  H14X18740   5.533   3.465   9.439 -0.7485 -0.5452 -0.2637
  166SOPE  H14Y18741   5.483   3.640   9.461  0.5849  0.9443 -2.2135
  166SOPE  C31518742   5.469   3.564   9.264 -0.0160  0.0178  0.3984
  166SOPE  H15X18743   5.416   3.659   9.242  0.0574 -0.3165 -1.3890
  166SOPE  H15Y18744   5.407   3.487   9.213 -0.1468  0.1130  0.4155
  166SOPE  C31618745   5.608   3.569   9.205 -0.7611 -0.2391  0.0515
  166SOPE  H16X18746   5.667   3.478   9.231  0.5743  0.0826 -1.6909
  166SOPE  H16Y18747   5.657   3.655   9.256  1.4509 -2.0634  1.1934
  166SOPE  C31718748   5.610   3.596   9.056  0.2123  0.1740 -0.2500
  166SOPE  H17X18749   5.705   3.649   9.035 -0.2994  1.1155 -0.2079
  166SOPE  H17Y18750   5.527   3.660   9.017  0.3114 -1.0706 -2.7512
  166SOPE  C31818751   5.605   3.469   8.971 -0.0062 -0.1821  0.6113
  166SOPE  H18X18752   5.634   3.481   8.865 -1.1130 -3.7254 -0.2364
  166SOPE  H18Y18753   5.496   3.447   8.978  0.1368 -0.5200  2.0600
  166SOPE  H18Z18754   5.655   3.382   9.020 -0.8076 -0.8522  0.2669
  167SOPE     N18755   1.697   1.102   6.693  0.4860  0.2870  0.1209
  167SOPE   HN118756   1.632   1.032   6.735  1.0660 -0.8700 -0.8375
  167SOPE   HN218757   1.798   1.088   6.713  0.2219  0.9550  2.1281
  167SOPE   HN318758   1.673   1.199   6.722 -0.3020  0.2369 -0.3343
  167SOPE   C1218759   1.673   1.101   6.540  0.1042  0.1992 -0.6885
  167SOPE  H12A18760   1.696   1.200   6.497 -1.4139  0.6358 -0.5396
  167SOPE  H12B18761   1.567   1.082   6.515  0.5665 -2.0593 -1.2138
  167SOPE   C1118762   1.760   0.994   6.480  0.0292 -0.8592 -0.2799
  167SOPE  H11A18763   1.743   0.999   6.371 -1.5520  0.0468 -0.0284
  167SOPE  H11B18764   1.717   0.899   6.517 -3.1913  0.1705 -1.0876
  167SOPE     P18765   2.014   0.993   6.407  0.4355 -0.1819  0.3445
  167SOPE   O1318766   2.057   1.130   6.368 -0.3086 -0.7121 -0.7209
  167SOPE   O1418767   1.969   0.900   6.301 -0.1247 -0.4067  0.0548
  167SOPE   O1218768   1.898   1.001   6.515 -0.2845 -0.2207  0.1360
  167SOPE   O1118769   2.134   0.924   6.483  0.8125 -0.4099  0.9274
  167SOPE    C118770   2.116   0.821   6.573  0.3878  0.5662  1.2071
  167SOPE    HA18771   2.219   0.779   6.586 -0.3496 -1.9063 -0.1654
  167SOPE    HB18772   2.045   0.741   6.542  0.4893  1.0063 -0.2226
  167SOPE    C218773   2.077   0.854   6.718 -0.5062 -0.4041  0.5173
  167SOPE    HS18774   1.966   0.859   6.714 -0.5432 -0.9877  0.7231
  167SOPE   O2118775   2.137   0.979   6.756 -0.3585 -0.1907  0.0835
  167SOPE   C2118776   2.051   1.071   6.811  0.3000  0.3744  0.1997
  167SOPE   O2218777   1.934   1.042   6.826 -0.0524  0.0884 -0.4460
  167SOPE   C2218778   2.115   1.209   6.844  0.5481 -0.2381 -0.3439
  167SOPE   H2R18779   2.094   1.289   6.769 -0.3083  1.7999  1.9582
  167SOPE   H2S18780   2.225   1.193   6.837  0.6573  0.5482 -0.4865
  167SOPE    C318781   2.112   0.735   6.818  0.2099  0.0118  0.6545
  167SOPE    HX18782   2.221   0.715   6.817  0.2180  0.0512  0.7441
  167SOPE    HY18783   2.070   0.640   6.778  1.9075  0.2175 -1.8637
  167SOPE   O3118784   2.057   0.761   6.941 -0.3355  0.4563  0.0326
  167SOPE   C3118785   2.139   0.816   7.028  0.4590 -0.4238  0.0821
  167SOPE   O3218786   2.252   0.861   7.016  0.3487  0.2145 -0.0220
  167SOPE   C3218787   2.075   0.818   7.166  0.6563 -0.0417 -0.3818
  167SOPE   H2X18788   1.988   0.749   7.161  1.0534 -0.5086 -1.1095
  167SOPE   H2Y18789   2.031   0.918   7.185 -0.9128 -1.1585  2.2836
  167SOPE   C2318790   2.064   1.275   6.979 -0.2328  0.8379  0.1693
  167SOPE   H3R18791   1.955   1.271   6.998 -0.2964 -0.9228 -0.4463
  167SOPE   H3S18792   2.090   1.383   6.967  1.5102  0.3402 -0.9472
  167SOPE   C2418793   2.119   1.218   7.114  0.3408  1.1131 -0.1657
  167SOPE   H4R18794   2.038   1.152   7.152  1.0454  0.9010  1.0536
  167SOPE   H4S18795   2.193   1.140   7.085 -1.0693 -0.7271  0.9120
  167SOPE   C2518796   2.187   1.303   7.219 -0.8668  0.2003  0.4125
  167SOPE   H5R18797   2.251   1.383   7.174  0.2218 -0.5187  0.6298
  167SOPE   H5S18798   2.119   1.365   7.282  0.0311  1.2331  0.3929
  167SOPE   C2618799   2.287   1.218   7.307 -0.3412  0.0670  0.2765
  167SOPE   H6R18800   2.245   1.144   7.379 -0.5760  1.7909  1.9803
  167SOPE   H6S18801   2.356   1.164   7.238 -0.9216 -1.5916  0.9503
  167SOPE   C2718802   2.354   1.311   7.409  0.0364  0.1090 -0.7861
  167SOPE   H7R18803   2.407   1.395   7.360  0.4186  0.2177 -0.1960
  167SOPE   H7S18804   2.268   1.353   7.465  0.2048 -1.1815  0.4862
  167SOPE   C2818805   2.455   1.241   7.500  0.6956  0.4732 -0.0710
  167SOPE   H8R18806   2.515   1.195   7.418  0.4840 -0.7170  0.4201
  167SOPE   H8S18807   2.508   1.331   7.539  1.6405  0.8694 -2.1258
  167SOPE   C2918808   2.397   1.142   7.598 -0.5469 -0.5216  0.4657
  167SOPE   H9118809   2.344   1.061   7.546  0.0245 -0.8235  0.3513
  167SOPE  C21018810   2.408   1.157   7.733  0.2407  0.7842  0.5021
  167SOPE  H10118811   2.389   1.073   7.801 -2.4078 -0.5899 -1.7492
  167SOPE  C21118812   2.481   1.268   7.793 -0.2059  0.1770  0.2800
  167SOPE  H11R18813   2.437   1.366   7.765 -0.2415 -0.3230 -1.5061
  167SOPE  H11S18814   2.585   1.270   7.753 -0.0610  0.0708  0.6475
  167SOPE  C21218815   2.489   1.265   7.941 -0.2001 -0.3880 -0.0921
  167SOPE  H12R18816   2.565   1.194   7.980 -0.4060  0.2561  1.5713
  167SOPE  H12S18817   2.392   1.246   7.991 -0.8239  0.1417 -1.0752
  167SOPE  C21318818   2.531   1.409   7.997  0.7302  0.1151  0.6103
  167SOPE  H13R18819   2.452   1.479   7.963  0.6729 -0.5750 -0.7629
  167SOPE  H13S18820   2.621   1.451   7.948 -1.2794  0.9933 -2.6113
  167SOPE  C21418821   2.557   1.401   8.159 -0.7740 -0.1456 -0.2403
  167SOPE  H14R18822   2.463   1.354   8.194 -2.3517  2.7707 -0.2643
  167SOPE  H14S18823   2.572   1.504   8.198  1.2408 -0.3477 -0.3917
  167SOPE  C21518824   2.674   1.310   8.202  0.1317  0.1604  0.6937
  167SOPE  H15R18825   2.759   1.346   8.141  0.2355 -0.0146  0.7341
  167SOPE  H15S18826   2.646   1.205   8.179  0.6968 -0.1104  1.2060
  167SOPE  C21618827   2.721   1.325   8.345 -0.1048 -0.3391  0.8025
  167SOPE  H16R18828   2.726   1.431   8.378  2.6682  0.7614 -2.6266
  167SOPE  H16S18829   2.827   1.294   8.342  0.4214  1.3891  0.7337
  167SOPE  C21718830   2.646   1.240   8.446  0.3962  0.5952  0.4915
  167SOPE  H17R18831   2.535   1.241   8.450  0.3812 -0.6364  0.8179
  167SOPE  H17S18832   2.673   1.285   8.545 -1.3815 -0.8192  1.6819
  167SOPE  C21818833   2.697   1.095   8.439  0.0688  0.0458 -0.2857
  167SOPE  H18R18834   2.686   1.034   8.531  0.3382  1.2985  0.6116
  167SOPE  H18S18835   2.805   1.100   8.415  0.0123  1.0105 -0.3919
  167SOPE  H18T18836   2.645   1.039   8.358 -0.1333 -1.0576  0.5812
  167SOPE   C3318837   2.162   0.779   7.291 -0.2450 -0.0506 -1.4451
  167SOPE   H3X18838   2.266   0.817   7.287  0.0957 -0.5941  0.7504
  167SOPE   H3Y18839   2.185   0.671   7.305  2.9490  0.7490  0.5570
  167SOPE   C3418840   2.100   0.834   7.427 -0.2880  0.3516 -0.1595
  167SOPE   H4X18841   2.005   0.781   7.447 -1.0309  2.3219  1.9349
  167SOPE   H4Y18842   2.086   0.943   7.412  0.7296  0.5075 -0.0752
  167SOPE   C3518843   2.187   0.810   7.553  0.2793 -0.1419  0.3273
  167SOPE   H5X18844   2.281   0.866   7.535  0.4830  0.0185  1.7602
  167SOPE   H5Y18845   2.202   0.700   7.553 -1.2625 -0.4059 -1.3213
  167SOPE   C3618846   2.133   0.856   7.688 -0.7415 -0.3230 -0.4729
  167SOPE   H6X18847   2.027   0.821   7.696 -0.9935  0.5431  0.1760
  167SOPE   H6Y18848   2.139   0.967   7.682 -0.6976 -0.4058 -2.6943
  167SOPE   C3718849   2.221   0.811   7.805  0.1427  0.2585  0.1432
  167SOPE   H7X18850   2.326   0.834   7.778 -0.1399  2.0659  0.4357
  167SOPE   H7Y18851   2.203   0.703   7.822 -1.9813  0.6228  0.4943
  167SOPE   C3818852   2.181   0.892   7.927 -0.0786 -0.5021  0.4871
  167SOPE   H8X18853   2.078   0.857   7.947  0.1568 -2.7347 -1.7379
  167SOPE   H8Y18854   2.175   1.000   7.900  0.4108 -1.1167 -2.3754
  167SOPE   C3918855   2.276   0.873   8.046  0.6094  0.2813 -0.1229
  167SOPE   H9X18856   2.380   0.885   8.008  1.5388 -3.6198  0.6541
  167SOPE   H9Y18857   2.273   0.769   8.087  1.6022  0.4060  0.3083
  167SOPE  C31018858   2.255   0.974   8.163 -0.0426 -0.3449 -0.0720
  167SOPE  H10X18859   2.154   0.976   8.209 -1.0237 -0.1779 -2.1136
  167SOPE  H10Y18860   2.269   1.079   8.127 -1.1486 -0.7448 -1.7846
  167SOPE  C31118861   2.358   0.934   8.273  0.7678  0.5340  0.1504
  167SOPE  H11X18862   2.452   0.978   8.232  0.8362 -0.2165 -0.5234
  167SOPE  H11Y18863   2.359   0.823   8.270  1.4631  0.5042  1.0842
  167SOPE  C31218864   2.328   0.981   8.413  0.5720  0.0036 -0.2524
  167SOPE  H12X18865   2.318   1.092   8.418  1.6756  0.1405 -0.7518
  167SOPE  H12Y18866   2.410   0.952   8.483 -0.6742 -2.2589  0.3568
  167SOPE  C31318867   2.207   0.908   8.481  0.4653 -0.2587 -0.4791
  167SOPE  H13X18868   2.246   0.804   8.486  1.9432  0.2399 -1.1572
  167SOPE  H13Y18869   2.108   0.899   8.432 -0.4182 -3.9824  1.6165
  167SOPE  C31418870   2.187   0.956   8.629 -0.2383  0.6776  0.3360
  167SOPE  H14X18871   2.146   1.059   8.640  0.5681  0.9710  0.6756
  167SOPE  H14Y18872   2.286   0.967   8.678 -0.0032 -0.6060  0.1951
  167SOPE  C31518873   2.119   0.851   8.720 -0.4445 -0.0796  0.7414
  167SOPE  H15X18874   2.150   0.857   8.826 -1.1705  0.7718  0.9184
  167SOPE  H15Y18875   2.154   0.751   8.687  1.1550 -0.5099  3.4221
  167SOPE  C31618876   1.969   0.849   8.711 -0.4732  0.1886 -0.2679
  167SOPE  H16X18877   1.944   0.828   8.604 -3.8921  0.5027  0.3583
  167SOPE  H16Y18878   1.932   0.950   8.738  1.0178  0.4811  0.8432
  167SOPE  C31718879   1.901   0.747   8.803 -0.5958  0.3129  0.3230
  167SOPE  H17X18880   1.939   0.644   8.782  0.5346  1.0698 -1.5699
  167SOPE  H17Y18881   1.794   0.748   8.773 -0.7947 -1.3103  0.8373
  167SOPE  C31818882   1.915   0.776   8.958 -0.4968  0.9314 -0.2192
  167SOPE  H18X18883   2.012   0.733   8.990  0.2320  0.4486 -2.8457
  167SOPE  H18Y18884   1.850   0.706   9.014  2.4095 -0.9582  1.0625
  167SOPE  H18Z18885   1.904   0.883   8.988  1.4025  0.4676  2.5078
  168SOPE     N18886   0.819   5.368   6.609 -0.1343  0.3078  0.1237
  168SOPE   HN118887   0.876   5.365   6.696  0.1800  0.4418 -0.0749
  168SOPE   HN218888   0.866   5.426   6.536  0.6145 -0.2207  0.1735
  168SOPE   HN318889   0.719   5.393   6.625  0.2517  0.7535  2.1320
  168SOPE   C1218890   0.815   5.224   6.560 -0.4583 -0.2629  0.3010
  168SOPE  H12A18891   0.896   5.211   6.485 -1.6135 -1.7701 -0.7533
  168SOPE  H12B18892   0.723   5.212   6.499 -0.8680  0.0033  0.8606
  168SOPE   C1118893   0.851   5.131   6.671  0.2928  0.0893 -0.1554
  168SOPE  H11A18894   0.879   5.033   6.626  1.5676  0.8006 -0.9675
  168SOPE  H11B18895   0.761   5.105   6.732  1.9595  0.3460  2.5837
  168SOPE     P18896   1.055   5.092   6.829  0.2568 -0.3007  0.1318
  168SOPE   O1318897   1.166   5.175   6.881  0.3247 -0.1931 -0.1915
  168SOPE   O1418898   1.083   4.972   6.748  0.2426  0.7174  0.5001
  168SOPE   O1218899   0.956   5.188   6.749 -0.8768 -0.1635 -0.1686
  168SOPE   O1118900   0.960   5.051   6.947 -0.6386 -0.2338 -0.2161
  168SOPE    C118901   0.968   5.114   7.080 -0.0458  0.3517  0.2487
  168SOPE    HA18902   1.075   5.118   7.108  0.7250 -2.3317 -1.8135
  168SOPE    HB18903   0.911   5.042   7.142 -2.0357 -0.6766 -2.5509
  168SOPE    C218904   0.921   5.254   7.083 -0.2159 -0.8840  0.1837
  168SOPE    HS18905   0.965   5.317   7.003  0.6322  1.8592  2.6553
  168SOPE   O2118906   0.944   5.305   7.217  0.7016 -0.0501  0.0699
  168SOPE   C2118907   1.001   5.422   7.215  0.0329 -0.8157  0.2916
  168SOPE   O2218908   1.037   5.482   7.112 -0.0562  0.1324 -0.1081
  168SOPE   C2218909   1.011   5.475   7.361 -0.0356 -0.3217 -0.6673
  168SOPE   H2R18910   1.002   5.586   7.357  1.0629 -0.0417  2.4238
  168SOPE   H2S18911   1.108   5.438   7.401 -0.7753  0.4303  2.0121
  168SOPE    C318912   0.771   5.262   7.037  0.3733  0.4491 -0.6007
  168SOPE    HX18913   0.716   5.193   7.104  1.1286  0.2436 -0.1773
  168SOPE    HY18914   0.774   5.221   6.934  0.2031 -0.3078 -0.3075
  168SOPE   O3118915   0.713   5.394   7.054  0.3508  0.1831 -0.2952
  168SOPE   C3118916   0.750   5.484   6.963 -0.8334 -0.3933 -0.4977
  168SOPE   O3218917   0.829   5.457   6.876  0.3036 -0.1323  0.5822
  168SOPE   C3218918   0.686   5.617   6.997  0.2105  0.4107  0.1412
  168SOPE   H2X18919   0.615   5.596   7.080 -2.4822 -0.1189 -2.1651
  168SOPE   H2Y18920   0.628   5.657   6.912 -2.8507 -1.8589  0.9996
  168SOPE   C2318921   0.897   5.423   7.452 -0.4629  0.4809  0.8181
  168SOPE   H3R18922   0.887   5.312   7.452 -1.9238  0.5874  0.0774
  168SOPE   H3S18923   0.800   5.467   7.421 -2.9619 -2.9690  2.9833
  168SOPE   C2418924   0.920   5.475   7.594  0.1826  0.2272  0.1785
  168SOPE   H4R18925   0.964   5.577   7.595  3.3937 -1.0148 -1.0418
  168SOPE   H4S18926   0.822   5.457   7.643  0.0114 -0.7838 -0.4921
  168SOPE   C2518927   1.019   5.389   7.677 -0.3964 -0.2203  0.0671
  168SOPE   H5R18928   0.968   5.295   7.707 -0.1433 -0.8023 -1.2097
  168SOPE   H5S18929   1.104   5.358   7.612 -0.6738  0.8320 -0.8267
  168SOPE   C2618930   1.077   5.464   7.796  0.8718  0.1990 -0.9663
  168SOPE   H6R18931   1.187   5.478   7.804  0.9313 -1.0982  2.4219
  168SOPE   H6S18932   1.038   5.567   7.811  3.1486  0.9668  0.1563
  168SOPE   C2718933   1.023   5.394   7.925 -0.4063  0.6289 -0.1088
  168SOPE   H7R18934   0.913   5.403   7.916 -0.1933  1.7477 -2.3490
  168SOPE   H7S18935   1.053   5.288   7.939 -0.0634  0.4769 -1.8196
  168SOPE   C2818936   1.060   5.477   8.047  0.0966  0.4044  0.2030
  168SOPE   H8R18937   1.170   5.494   8.047 -0.1240  2.1434 -1.8717
  168SOPE   H8S18938   1.009   5.573   8.029 -1.7943 -0.3772  1.1343
  168SOPE   C2918939   1.016   5.423   8.181 -0.0340  1.1704 -0.5430
  168SOPE   H9118940   0.907   5.423   8.197 -0.2655  0.5876 -1.9790
  168SOPE  C21018941   1.093   5.374   8.287  0.0075  0.6806  0.5736
  168SOPE  H10118942   1.043   5.312   8.362  1.6289  0.7291  1.7445
  168SOPE  C21118943   1.246   5.374   8.286  0.3653 -0.2756  0.3413
  168SOPE  H11R18944   1.283   5.405   8.186 -0.8406  3.1875  0.8491
  168SOPE  H11S18945   1.272   5.269   8.312 -0.9804 -0.5289  0.7438
  168SOPE  C21218946   1.298   5.469   8.392 -0.7737  0.4814 -0.4154
  168SOPE  H12R18947   1.261   5.428   8.489 -0.7828  1.1931 -0.1121
  168SOPE  H12S18948   1.265   5.574   8.380 -0.6274  0.4795 -0.8493
  168SOPE  C21318949   1.456   5.483   8.391 -0.0775  0.0035 -0.3688
  168SOPE  H13R18950   1.473   5.568   8.460 -0.5749  1.3397 -1.8264
  168SOPE  H13S18951   1.479   5.521   8.289  0.4352 -2.5657 -1.2898
  168SOPE  C21418952   1.538   5.361   8.424 -0.1959  0.3951 -0.2627
  168SOPE  H14R18953   1.584   5.309   8.337 -0.7063  1.6806 -1.3288
  168SOPE  H14S18954   1.483   5.286   8.485 -0.4618  2.2049  1.8130
  168SOPE  C21518955   1.674   5.394   8.498  0.4630  0.6211  0.8292
  168SOPE  H15R18956   1.723   5.484   8.454  2.0344 -2.0845 -3.6512
  168SOPE  H15S18957   1.743   5.308   8.484 -0.9111 -0.4441  0.4086
  168SOPE  C21618958   1.657   5.427   8.650 -0.0770 -0.1776  0.7118
  168SOPE  H16R18959   1.592   5.349   8.695  0.5389 -0.5168  1.0283
  168SOPE  H16S18960   1.619   5.530   8.665  0.6489  0.0826  0.7802
  168SOPE  C21718961   1.793   5.408   8.710  0.7089  0.1801  0.0333
  168SOPE  H17R18962   1.868   5.481   8.672 -1.4179  1.7711 -1.3590
  168SOPE  H17S18963   1.833   5.309   8.681 -1.4529 -0.4838 -0.8381
  168SOPE  C21818964   1.776   5.408   8.863 -0.9932 -0.3116 -0.1836
  168SOPE  H18R18965   1.717   5.317   8.887 -0.0448 -1.0479 -0.5480
  168SOPE  H18S18966   1.722   5.503   8.883 -0.5302 -0.0042 -0.3668
  168SOPE  H18T18967   1.863   5.402   8.932 -1.6421 -0.4725  0.6322
  168SOPE   C3318968   0.791   5.717   7.053  0.5350  0.3751 -0.1037
  168SOPE   H3X18969   0.830   5.762   6.959  1.3814  2.2710  1.0846
  168SOPE   H3Y18970   0.860   5.664   7.121 -0.4054  1.2870  1.6280
  168SOPE   C3418971   0.721   5.829   7.129  0.9457  0.1114 -0.4802
  168SOPE   H4X18972   0.630   5.859   7.073 -0.2163  0.2549  1.4352
  168SOPE   H4Y18973   0.800   5.908   7.134 -0.4661  1.6575 -1.5491
  168SOPE   C3518974   0.672   5.789   7.274  0.3511 -0.8248  0.4657
  168SOPE   H5X18975   0.753   5.745   7.336 -2.3945  0.5220  5.5999
  168SOPE   H5Y18976   0.595   5.710   7.256 -0.3600 -0.1997  0.7067
  168SOPE   C3618977   0.598   5.923   7.334  0.0248 -0.2418  0.4255
  168SOPE   H6X18978   0.517   5.946   7.262  0.9930 -0.0601 -0.6435
  168SOPE   H6Y18979   0.681   5.997   7.335 -1.5390  1.6743 -1.6656
  168SOPE   C3718980   0.553   5.888   7.472 -0.2594 -0.0219  0.2703
  168SOPE   H7X18981   0.490   5.797   7.462 -0.0413 -0.1901  0.4357
  168SOPE   H7Y18982   0.480   5.968   7.496 -0.8371 -0.4046 -0.1917
  168SOPE   C3818983   0.667   5.879   7.572  0.2379 -0.0243 -0.0375
  168SOPE   H8X18984   0.714   5.979   7.571 -0.2511  0.2370 -2.8478
  168SOPE   H8Y18985   0.753   5.812   7.550  1.0643  1.3976 -1.3021
  168SOPE   C3918986   0.622   5.843   7.711 -0.0303  0.9953 -0.0167
  168SOPE   H9X18987   0.581   5.740   7.712  0.7074  0.4874 -3.9316
  168SOPE   H9Y18988   0.550   5.917   7.753 -0.7681 -0.0013  0.5004
  168SOPE  C31018989   0.735   5.856   7.817 -0.0417 -0.0498  0.5968
  168SOPE  H10X18990   0.771   5.960   7.834  1.0248 -0.5943  1.8538
  168SOPE  H10Y18991   0.822   5.800   7.778 -0.2598  1.5970 -2.5669
  168SOPE  C31118992   0.689   5.794   7.952 -0.4268  0.6007 -0.1349
  168SOPE  H11X18993   0.654   5.690   7.936  1.6595  0.0228 -1.3200
  168SOPE  H11Y18994   0.603   5.859   7.977 -0.6957  0.9039 -1.7311
  168SOPE  C31218995   0.808   5.798   8.043 -0.4169 -0.6663 -0.0604
  168SOPE  H12X18996   0.902   5.773   7.989 -0.8446  0.3137 -1.3012
  168SOPE  H12Y18997   0.785   5.726   8.125  2.0215 -2.2362 -0.6319
  168SOPE  C31318998   0.837   5.936   8.113  0.8781  0.4546  0.3859
  168SOPE  H13X18999   0.736   5.975   8.135 -0.3370 -1.9402 -0.6186
  168SOPE  H13Y19000   0.885   6.011   8.047  1.0876  0.0037  0.0173
  168SOPE  C31419001   0.909   5.913   8.243  0.1009 -0.1703 -0.2008
  168SOPE  H14X19002   0.918   6.006   8.303 -1.9594 -0.2410  0.2702
  168SOPE  H14Y19003   1.012   5.879   8.218  0.0805  0.3573 -1.0394
  168SOPE  C31519004   0.850   5.820   8.348  0.5138 -0.6773  0.2801
  168SOPE  H15X19005   0.875   5.714   8.325 -0.6202 -1.3149  1.7972
  168SOPE  H15Y19006   0.740   5.820   8.338  0.6837  1.0046 -2.7998
  168SOPE  C31619007   0.899   5.844   8.488  0.4978  0.0660 -0.4969
  168SOPE  H16X19008   0.835   5.798   8.567  0.6997  0.6393  0.0119
  168SOPE  H16Y19009   0.910   5.952   8.511  5.1264 -0.4684  0.7898
  168SOPE  C31719010   1.045   5.788   8.509 -0.1613 -0.2316  0.1719
  168SOPE  H17X19011   1.116   5.855   8.455 -0.5371 -1.9183 -2.6478
  168SOPE  H17Y19012   1.060   5.684   8.471  0.1575 -0.4343  0.8339
  168SOPE  C31819013   1.091   5.805   8.655  0.0105  0.1278 -0.2616
  168SOPE  H18X19014   1.196   5.767   8.657 -0.7900 -2.5432 -2.5868
  168SOPE  H18Y19015   1.039   5.735   8.725  0.7044 -1.8832 -1.6557
  168SOPE  H18Z19016   1.077   5.910   8.687  2.3181  0.0864  1.1056
  169SOPE     N19017   2.943   6.718   6.527  0.0220  0.3366 -0.0900
  169SOPE   HN119018   2.966   6.730   6.427  0.4487  1.1259  0.0947
  169SOPE   HN219019   2.864   6.784   6.540 -0.5841 -0.2110 -0.8958
  169SOPE   HN319020   3.027   6.741   6.584  0.5575 -1.1103 -0.2476
  169SOPE   C1219021   2.911   6.574   6.545 -0.0653 -0.0482  0.3403
  169SOPE  H12A19022   2.833   6.547   6.471 -0.0138 -3.7690  1.4621
  169SOPE  H12B19023   2.872   6.561   6.648  0.5738 -1.0010  0.4706
  169SOPE   C1119024   3.039   6.483   6.526  0.7318  0.2205  0.3571
  169SOPE  H11A19025   3.112   6.525   6.453 -1.4313 -0.7807 -2.6169
  169SOPE  H11B19026   3.001   6.389   6.480  1.8997 -0.1409  0.0999
  169SOPE     P19027   3.206   6.557   6.712  0.1674 -0.0269  0.1562
  169SOPE   O1319028   3.191   6.700   6.673 -0.8765  0.1182  0.1128
  169SOPE   O1419029   3.336   6.497   6.690  0.4655 -0.4589 -0.5542
  169SOPE   O1219030   3.092   6.463   6.652  0.1994 -0.5441 -0.3731
  169SOPE   O1119031   3.175   6.549   6.865 -0.2393 -0.2103 -0.1425
  169SOPE    C119032   3.063   6.486   6.924  0.4727 -0.6610 -0.0249
  169SOPE    HA19033   2.969   6.508   6.869  1.3368  1.7294 -0.6836
  169SOPE    HB19034   3.051   6.525   7.028 -3.0320 -1.2981 -0.0812
  169SOPE    C219035   3.089   6.332   6.953 -1.2073 -0.1344  0.0103
  169SOPE    HS19036   3.072   6.281   6.856  1.4531 -0.8878 -0.1313
  169SOPE   O2119037   2.993   6.294   7.050 -0.0023  1.1380 -0.2491
  169SOPE   C2119038   2.970   6.166   7.071 -0.5040 -0.5546 -0.1383
  169SOPE   O2219039   3.014   6.073   7.004  0.7944  0.1504 -0.6704
  169SOPE   C2219040   2.872   6.160   7.193 -0.0479  0.3001 -0.2477
  169SOPE   H2R19041   2.880   6.056   7.231  0.1794  0.5476  0.3946
  169SOPE   H2S19042   2.771   6.160   7.149  0.7918 -0.2016 -2.2925
  169SOPE    C319043   3.241   6.299   6.999  0.1496 -0.3109 -0.0381
  169SOPE    HX19044   3.266   6.374   7.077 -2.3744  1.5290 -0.8548
  169SOPE    HY19045   3.307   6.334   6.917 -0.9942  2.0364 -0.0442
  169SOPE   O3119046   3.267   6.164   7.049 -0.0157  0.5284  0.1108
  169SOPE   C3119047   3.323   6.082   6.961 -0.9203  0.0663 -0.0976
  169SOPE   O3219048   3.323   6.108   6.840 -0.2812 -0.3276  1.1053
  169SOPE   C3219049   3.384   5.949   7.016  0.5601  0.0887  0.4662
  169SOPE   H2X19050   3.487   5.940   6.977  0.6021  1.4452  0.1987
  169SOPE   H2Y19051   3.325   5.873   6.960  2.4954 -1.4203  0.3817
  169SOPE   C2319052   2.886   6.264   7.303 -0.7862  0.4789  0.9231
  169SOPE   H3R19053   2.791   6.260   7.360 -2.3513  1.8089 -1.4668
  169SOPE   H3S19054   2.899   6.365   7.259  1.1036  0.4118  1.2317
  169SOPE   C2419055   2.995   6.227   7.404  0.4862  0.3305  0.2768
  169SOPE   H4R19056   2.937   6.186   7.489 -0.4008 -2.1320 -1.3739
  169SOPE   H4S19057   3.055   6.146   7.357 -0.7275  2.6515 -6.3792
  169SOPE   C2519058   3.066   6.354   7.439  0.4922 -0.1406 -0.6968
  169SOPE   H5R19059   3.123   6.387   7.350  0.0876 -1.3674 -1.4486
  169SOPE   H5S19060   2.995   6.437   7.458  1.5959  0.0463  3.7031
  169SOPE   C2619061   3.148   6.333   7.563 -0.4192 -0.2502 -0.0659
  169SOPE   H6R19062   3.186   6.228   7.567  2.6707  0.7026 -1.4294
  169SOPE   H6S19063   3.241   6.394   7.559  0.0551 -1.0110 -1.3524
  169SOPE   C2719064   3.075   6.374   7.696  0.2093  0.3647 -0.0383
  169SOPE   H7R19065   3.057   6.484   7.699 -3.1300 -0.0132 -1.2958
  169SOPE   H7S19066   2.985   6.310   7.690  2.0426 -2.2739 -0.7924
  169SOPE   C2819067   3.149   6.341   7.830 -0.1361  0.3181 -0.8931
  169SOPE   H8R19068   3.067   6.345   7.904  0.7976 -2.6453  0.4876
  169SOPE   H8S19069   3.174   6.232   7.827 -2.5344 -0.3060  0.1376
  169SOPE   C2919070   3.267   6.436   7.852  0.1977 -0.3426 -0.0915
  169SOPE   H9119071   3.347   6.440   7.776 -0.1350  0.1226 -0.4182
  169SOPE  C21019072   3.269   6.523   7.956  0.2831  0.2807 -0.1266
  169SOPE  H10119073   3.360   6.584   7.961  1.0553 -0.8542 -0.0108
  169SOPE  C21119074   3.172   6.554   8.069 -0.8553  0.4193 -0.4391
  169SOPE  H11R19075   3.070   6.568   8.028 -1.6202  0.5014  1.3735
  169SOPE  H11S19076   3.189   6.657   8.109 -0.5457  1.4968 -3.1674
  169SOPE  C21219077   3.174   6.466   8.198  0.5745  0.7210  0.6186
  169SOPE  H12R19078   3.281   6.453   8.226  0.5463 -0.7225  0.1524
  169SOPE  H12S19079   3.139   6.362   8.180  1.7616  0.3559  0.3911
  169SOPE  C21319080   3.096   6.522   8.323  0.8277 -0.4163 -0.5722
  169SOPE  H13R19081   3.053   6.442   8.387  1.6830  0.1980  0.8060
  169SOPE  H13S19082   3.014   6.583   8.281  0.8938 -0.8483 -1.3589
  169SOPE  C21419083   3.182   6.608   8.413  0.2003 -0.5226 -0.6405
  169SOPE  H14R19084   3.125   6.676   8.480  2.0010  1.1910 -0.7449
  169SOPE  H14S19085   3.216   6.685   8.341 -0.6384 -0.4473 -0.9637
  169SOPE  C21519086   3.301   6.537   8.478 -0.7332  1.2836 -0.0078
  169SOPE  H15R19087   3.382   6.509   8.407  0.2496  0.4349  1.4027
  169SOPE  H15S19088   3.264   6.438   8.513 -0.5623  1.0022 -0.6145
  169SOPE  C21619089   3.376   6.621   8.584  0.1144  0.6568  0.3435
  169SOPE  H16R19090   3.468   6.567   8.616 -1.5993 -1.3248  2.3375
  169SOPE  H16S19091   3.303   6.624   8.668  0.8292  0.2994  0.9936
  169SOPE  C21719092   3.421   6.763   8.540  0.0338 -0.1856  0.4894
  169SOPE  H17R19093   3.335   6.822   8.501 -0.8262 -0.7875  1.4313
  169SOPE  H17S19094   3.492   6.754   8.455  2.3651 -1.3958  2.4449
  169SOPE  C21819095   3.471   6.844   8.659  0.2332 -0.3815  0.4892
  169SOPE  H18R19096   3.474   6.953   8.640 -3.2702 -0.2876 -0.1995
  169SOPE  H18S19097   3.566   6.799   8.694  0.3381 -0.5775 -0.0394
  169SOPE  H18T19098   3.407   6.835   8.750  0.0450 -1.0429  0.2984
  169SOPE   C3319099   3.381   5.909   7.167 -0.5547 -0.8910  0.4884
  169SOPE   H3X19100   3.428   5.809   7.177  1.3481 -0.1482 -0.4384
  169SOPE   H3Y19101   3.274   5.903   7.195 -0.4261  1.3115  1.6634
  169SOPE   C3419102   3.457   6.001   7.262  0.7986 -0.1931  0.0590
  169SOPE   H4X19103   3.423   6.101   7.228 -2.5289 -0.9804  0.7511
  169SOPE   H4Y19104   3.568   5.994   7.259  0.8241 -0.5592  1.3143
  169SOPE   C3519105   3.406   5.978   7.407  0.2727 -0.1652 -0.6522
  169SOPE   H5X19106   3.417   5.870   7.430 -1.1427 -0.5376 -1.5584
  169SOPE   H5Y19107   3.296   5.990   7.418 -0.0612 -2.1919 -1.4283
  169SOPE   C3619108   3.474   6.068   7.504 -0.4330 -0.7135 -0.0827
  169SOPE   H6X19109   3.442   6.174   7.495  0.9206 -0.3204 -0.5434
  169SOPE   H6Y19110   3.583   6.060   7.481  0.0623  0.2138  1.7549
  169SOPE   C3719111   3.444   6.038   7.653 -0.4724 -0.2306 -0.1231
  169SOPE   H7X19112   3.470   5.933   7.679 -2.0874 -0.3708  1.0463
  169SOPE   H7Y19113   3.339   6.065   7.677 -0.3234  2.0828 -1.7766
  169SOPE   C3819114   3.524   6.119   7.751 -0.0475 -0.1796  0.3701
  169SOPE   H8X19115   3.632   6.093   7.758 -0.0227 -0.1478  0.1248
  169SOPE   H8Y19116   3.520   6.226   7.719  0.9943 -0.3272 -0.2990
  169SOPE   C3919117   3.453   6.103   7.880 -0.3808 -0.1367 -0.4399
  169SOPE   H9X19118   3.458   5.995   7.905  0.4312  0.4500  2.2505
  169SOPE   H9Y19119   3.343   6.120   7.875 -0.4472 -1.0115 -2.6778
  169SOPE  C31019120   3.511   6.189   7.996 -0.3343 -0.2212  0.4285
  169SOPE  H10X19121   3.541   6.295   7.984 -0.3516 -0.3709 -1.2842
  169SOPE  H10Y19122   3.608   6.142   8.022  0.1032 -0.3431 -1.3133
  169SOPE  C31119123   3.407   6.183   8.109  0.3152  0.6597 -0.4954
  169SOPE  H11X19124   3.370   6.081   8.131  1.4300 -0.1260 -2.0290
  169SOPE  H11Y19125   3.310   6.227   8.080 -0.9418 -0.2452  2.0232
  169SOPE  C31219126   3.434   6.253   8.243  0.5643  0.3968 -0.1840
  169SOPE  H12X19127   3.349   6.259   8.314 -0.4178  2.1272 -1.4155
  169SOPE  H12Y19128   3.456   6.358   8.216  0.7097  0.9463  1.8785
  169SOPE  C31319129   3.541   6.180   8.322  0.3428 -0.4447 -0.2968
  169SOPE  H13X19130   3.640   6.183   8.272  1.1358  1.0794  1.2268
  169SOPE  H13Y19131   3.519   6.071   8.322  0.5133 -0.5191 -2.5593
  169SOPE  C31419132   3.557   6.220   8.472 -0.0657  0.5317  0.2795
  169SOPE  H14X19133   3.461   6.235   8.526 -0.1573  3.0165 -0.4127
  169SOPE  H14Y19134   3.611   6.317   8.478 -0.9186  0.9866  0.8297
  169SOPE  C31519135   3.638   6.114   8.551  0.5391 -0.0439  0.4643
  169SOPE  H15X19136   3.738   6.103   8.504 -0.2896 -1.6316 -1.0428
  169SOPE  H15Y19137   3.584   6.022   8.520 -1.6532  1.0521  0.8672
  169SOPE  C31619138   3.637   6.134   8.705 -0.3244 -0.3441  0.1391
  169SOPE  H16X19139   3.700   6.056   8.752  2.2032  1.0568 -0.6848
  169SOPE  H16Y19140   3.531   6.113   8.729 -0.4378 -0.1669 -0.2020
  169SOPE  C31719141   3.680   6.270   8.758 -0.9275  0.3897 -0.3471
  169SOPE  H17X19142   3.681   6.260   8.868 -0.9777  1.5790 -0.2250
  169SOPE  H17Y19143   3.610   6.352   8.732 -2.3608 -0.8015 -0.3725
  169SOPE  C31819144   3.821   6.300   8.699  0.2204 -0.0295 -0.9592
  169SOPE  H18X19145   3.878   6.384   8.745 -0.8558  0.5448 -0.6592
  169SOPE  H18Y19146   3.810   6.310   8.589  2.2026  0.8701 -1.1348
  169SOPE  H18Z19147   3.877   6.205   8.714  2.3274  1.4621  1.3756
  170SOPE     N19148   4.798   5.252   6.337  0.9647 -0.6926 -0.0570
  170SOPE   HN119149   4.807   5.309   6.423  2.1535  0.6778 -1.0406
  170SOPE   HN219150   4.834   5.154   6.339 -2.2230 -2.0114 -0.6587
  170SOPE   HN319151   4.843   5.301   6.257  2.1824  2.0614  2.1374
  170SOPE   C1219152   4.656   5.239   6.292 -0.2559 -0.4582 -0.4255
  170SOPE  H12A19153   4.653   5.188   6.194 -1.1656 -2.2779  0.4880
  170SOPE  H12B19154   4.607   5.339   6.291  0.2037 -0.2316 -0.4230
  170SOPE   C1119155   4.585   5.147   6.392  0.0934  0.3849  0.9323
  170SOPE  H11A19156   4.643   5.054   6.412 -1.6803 -0.8579  0.5639
  170SOPE  H11B19157   4.488   5.107   6.354 -0.4733  0.7776  1.9333
  170SOPE     P19158   4.482   5.129   6.630 -0.1348 -0.4150  0.1895
  170SOPE   O1319159   4.489   4.993   6.590  0.0621  0.7185  0.2548
  170SOPE   O1419160   4.347   5.181   6.666 -0.3362  0.1536 -0.2864
  170SOPE   O1219161   4.547   5.224   6.510 -0.0492 -0.8106 -0.3874
  170SOPE   O1119162   4.590   5.157   6.745 -0.5307  0.7126 -0.7545
  170SOPE    C119163   4.669   5.271   6.757  0.0917 -0.4982  0.2461
  170SOPE    HA19164   4.605   5.356   6.788 -0.4903 -1.5482  2.1236
  170SOPE    HB19165   4.721   5.298   6.662 -0.5352 -0.9436 -0.2353
  170SOPE    C219166   4.779   5.261   6.867 -0.2211  0.2804 -0.5490
  170SOPE    HS19167   4.843   5.179   6.829  0.9263  1.4993 -1.3258
  170SOPE   O2119168   4.715   5.239   6.994 -0.6744  0.9173 -0.5371
  170SOPE   C2119169   4.796   5.173   7.076 -0.0299  0.8750  0.5311
  170SOPE   O2219170   4.891   5.101   7.045 -0.0599 -0.2061  0.3114
  170SOPE   C2219171   4.762   5.208   7.216 -0.0265 -0.2747 -0.0091
  170SOPE   H2R19172   4.656   5.177   7.226  0.4575 -1.4128  2.1493
  170SOPE   H2S19173   4.763   5.319   7.227 -0.7371 -0.3319  0.7098
  170SOPE    C319174   4.853   5.394   6.866 -0.1817  0.4341  0.0821
  170SOPE    HX19175   4.784   5.474   6.899  0.0840  1.9217 -2.6494
  170SOPE    HY19176   4.880   5.423   6.762  3.8944 -1.6470  0.3688
  170SOPE   O3119177   4.966   5.392   6.953 -0.7286 -0.1890 -0.4031
  170SOPE   C3119178   5.085   5.382   6.894 -0.1267  0.3784  0.0237
  170SOPE   O3219179   5.099   5.362   6.772  0.2579  0.2555  0.0324
  170SOPE   C3219180   5.194   5.389   7.000 -0.3325 -0.7902  0.0804
  170SOPE   H2X19181   5.240   5.486   6.972 -0.1339 -0.6845  0.7587
  170SOPE   H2Y19182   5.273   5.311   6.992 -0.8759 -1.6043  2.0865
  170SOPE   C2319183   4.850   5.149   7.327  0.1880  0.7528 -0.5813
  170SOPE   H3R19184   4.955   5.181   7.311  0.9506 -1.5222 -0.4661
  170SOPE   H3S19185   4.840   5.039   7.318  1.3999  0.4361  1.3750
  170SOPE   C2419186   4.797   5.188   7.466 -0.3421  0.6138  0.1494
  170SOPE   H4R19187   4.693   5.150   7.469  0.6685 -2.3292  0.5154
  170SOPE   H4S19188   4.856   5.137   7.545  0.7437 -0.0178 -1.0345
  170SOPE   C2519189   4.804   5.341   7.504  0.0086  0.2975  0.5176
  170SOPE   H5R19190   4.908   5.379   7.490  0.7633 -1.9017 -0.3181
  170SOPE   H5S19191   4.733   5.406   7.449  2.0251  2.3705  0.1934
  170SOPE   C2619192   4.769   5.358   7.652 -0.7002 -0.3515 -0.2624
  170SOPE   H6R19193   4.753   5.463   7.685  0.0304 -0.9766  2.3368
  170SOPE   H6S19194   4.676   5.302   7.677 -0.7000  0.2249  1.1047
  170SOPE   C2719195   4.876   5.312   7.756 -0.5733  0.0098  0.1261
  170SOPE   H7R19196   4.885   5.202   7.744 -1.5544  0.0098 -0.8136
  170SOPE   H7S19197   4.974   5.360   7.736  0.6827 -1.3211  2.6268
  170SOPE   C2819198   4.841   5.340   7.903  0.1089 -0.2920 -0.1823
  170SOPE   H8R19199   4.737   5.305   7.917  0.0216  0.3383  0.8298
  170SOPE   H8S19200   4.907   5.273   7.962  1.0644  0.5799 -0.2306
  170SOPE   C2919201   4.850   5.484   7.943 -0.3935  0.1635  0.4494
  170SOPE   H9119202   4.777   5.550   7.894  0.6157  1.4044  0.5625
  170SOPE  C21019203   4.944   5.534   8.021  0.5223 -0.4163  0.4822
  170SOPE  H10119204   4.940   5.644   8.030  2.0928 -0.3829  0.9947
  170SOPE  C21119205   5.047   5.466   8.101 -0.1920  0.2104 -0.0682
  170SOPE  H11R19206   5.072   5.362   8.069  3.0307  0.2607  1.8591
  170SOPE  H11S19207   5.019   5.467   8.208 -1.6688  1.2141 -0.4307
  170SOPE  C21219208   5.176   5.547   8.096 -0.3819  0.7008 -0.1557
  170SOPE  H12R19209   5.219   5.542   7.993 -0.8544 -1.2873 -0.3045
  170SOPE  H12S19210   5.249   5.496   8.162 -0.5084  1.1369  0.3233
  170SOPE  C21319211   5.174   5.683   8.148 -0.4802  0.2971 -0.4848
  170SOPE  H13R19212   5.148   5.685   8.256 -1.4883  0.9552 -0.7273
  170SOPE  H13S19213   5.097   5.751   8.106 -1.9807  0.0689  1.7027
  170SOPE  C21419214   5.303   5.757   8.128  0.2641  0.1475 -0.6852
  170SOPE  H14R19215   5.291   5.856   8.176  0.5776  1.3236 -2.9025
  170SOPE  H14S19216   5.336   5.769   8.023  2.2868 -0.7472 -0.2072
  170SOPE  C21519217   5.424   5.694   8.202  0.1914  0.2821 -0.3348
  170SOPE  H15R19218   5.512   5.761   8.190  0.1288  0.5171  0.4630
  170SOPE  H15S19219   5.458   5.611   8.136 -1.6667 -0.2466 -0.6663
  170SOPE  C21619220   5.422   5.658   8.341  0.4302 -0.0214 -0.5874
  170SOPE  H16R19221   5.520   5.612   8.367  1.1775  1.5284 -0.6021
  170SOPE  H16S19222   5.342   5.583   8.359  0.1620  0.6001  0.9035
  170SOPE  C21719223   5.391   5.773   8.441 -0.4269 -0.3140  0.0251
  170SOPE  H17R19224   5.295   5.820   8.412 -0.7401 -1.5918 -1.1231
  170SOPE  H17S19225   5.471   5.850   8.429 -0.6242 -0.2430 -0.9593
  170SOPE  C21819226   5.392   5.733   8.589 -0.2337 -0.6879  1.0262
  170SOPE  H18R19227   5.481   5.672   8.612 -0.0641 -1.5442 -1.5788
  170SOPE  H18S19228   5.296   5.690   8.625  0.1002 -1.2935  1.1915
  170SOPE  H18T19229   5.403   5.819   8.659  0.0100 -0.4002  0.6385
  170SOPE   C3319230   5.154   5.376   7.149  0.1091  0.7054  0.4386
  170SOPE   H3X19231   5.071   5.301   7.155  0.6925  0.1290  1.7944
  170SOPE   H3Y19232   5.113   5.476   7.174 -1.7699  0.4345 -1.2943
  170SOPE   C3419233   5.266   5.328   7.247  0.2138  0.3832  0.1560
  170SOPE   H4X19234   5.347   5.404   7.248  0.2794  0.4105 -2.1495
  170SOPE   H4Y19235   5.301   5.228   7.216 -1.2253 -0.6097  1.5413
  170SOPE   C3519236   5.212   5.320   7.395 -0.1243  0.7997 -0.2793
  170SOPE   H5X19237   5.129   5.246   7.392 -0.0817  0.7609 -0.4938
  170SOPE   H5Y19238   5.179   5.421   7.424 -1.0277  0.2492  0.6870
  170SOPE   C3619239   5.317   5.279   7.498 -0.3835 -0.3385  0.0625
  170SOPE   H6X19240   5.392   5.361   7.490  0.4723 -1.2277 -1.6154
  170SOPE   H6Y19241   5.373   5.193   7.456  0.5379  0.7259 -0.9913
  170SOPE   C3719242   5.255   5.258   7.636 -0.1838 -0.1842 -0.1995
  170SOPE   H7X19243   5.198   5.163   7.636  0.2750 -0.4645  0.3437
  170SOPE   H7Y19244   5.186   5.341   7.661 -1.3744 -0.3164 -2.7656
  170SOPE   C3819245   5.357   5.257   7.752 -0.3841 -0.1056 -0.2089
  170SOPE   H8X19246   5.404   5.357   7.760  1.9681 -1.1700  0.2054
  170SOPE   H8Y19247   5.440   5.184   7.740 -0.5744 -0.7169  1.8461
  170SOPE   C3919248   5.280   5.218   7.881  0.1522 -0.5382 -0.3309
  170SOPE   H9X19249   5.236   5.117   7.859  0.7381 -0.7762 -0.4162
  170SOPE   H9Y19250   5.201   5.296   7.886 -0.1114 -0.8279  0.1185
  170SOPE  C31019251   5.352   5.214   8.015  0.2537 -0.4690 -0.3710
  170SOPE  H10X19252   5.372   5.321   8.037  0.4261 -0.7629  1.0148
  170SOPE  H10Y19253   5.448   5.160   7.999 -1.1983 -2.9876 -1.2144
  170SOPE  C31119254   5.272   5.156   8.130 -0.2700  0.8475 -0.6387
  170SOPE  H11X19255   5.260   5.051   8.095 -0.3964  0.4324  0.6153
  170SOPE  H11Y19256   5.168   5.192   8.145 -0.3307  0.7541 -0.8287
  170SOPE  C31219257   5.349   5.144   8.261 -0.2894 -0.2581 -0.0480
  170SOPE  H12X19258   5.438   5.083   8.233  1.1938  1.5263  0.5960
  170SOPE  H12Y19259   5.289   5.079   8.328  1.8743 -1.8493  0.4721
  170SOPE  C31319260   5.393   5.267   8.341  0.2027  0.3446 -0.0073
  170SOPE  H13X19261   5.301   5.329   8.351 -0.0358  0.3575 -1.8979
  170SOPE  H13Y19262   5.479   5.318   8.294 -0.2089  1.1062  0.0552
  170SOPE  C31419263   5.430   5.221   8.481 -0.1017  0.1548 -0.1447
  170SOPE  H14X19264   5.514   5.150   8.465 -0.4232 -0.2212 -0.1772
  170SOPE  H14Y19265   5.357   5.153   8.530  0.9436 -2.3214 -1.8326
  170SOPE  C31519266   5.479   5.336   8.573  0.2256  0.0724  0.3255
  170SOPE  H15X19267   5.396   5.406   8.596  0.4213  0.3111  0.3166
  170SOPE  H15Y19268   5.547   5.399   8.511 -0.9947  1.3974  0.2767
  170SOPE  C31619269   5.549   5.277   8.693  0.0752  0.4064 -0.4535
  170SOPE  H16X19270   5.619   5.193   8.675  0.2527  0.3080  0.6621
  170SOPE  H16Y19271   5.467   5.243   8.760  0.4465 -0.1006 -0.2559
  170SOPE  C31719272   5.630   5.375   8.775  0.6017  0.3409  0.6380
  170SOPE  H17X19273   5.564   5.459   8.803  0.3677  0.6366 -0.7113
  170SOPE  H17Y19274   5.718   5.423   8.726  0.5718  0.2560  0.4985
  170SOPE  C31819275   5.676   5.311   8.905 -1.0094  0.0076 -0.3069
  170SOPE  H18X19276   5.743   5.384   8.955 -1.5311  0.0453  0.3358
  170SOPE  H18Y19277   5.736   5.219   8.885 -0.7074  0.5341 -2.0544
  170SOPE  H18Z19278   5.591   5.286   8.971 -3.3721  0.5128 -2.9562
  171SOPE     N19279   2.514   1.400   6.316 -0.1539 -0.1699 -0.1599
  171SOPE   HN119280   2.580   1.451   6.255  0.9301  1.2315  2.0334
  171SOPE   HN219281   2.519   1.296   6.308 -1.0018 -0.4106  1.8117
  171SOPE   HN319282   2.418   1.433   6.296 -0.0738  0.6357  0.7064
  171SOPE   C1219283   2.546   1.413   6.462  0.6106 -0.0701 -0.5129
  171SOPE  H12A19284   2.643   1.360   6.471  0.1290 -1.1227 -1.2532
  171SOPE  H12B19285   2.469   1.357   6.519  0.4479 -0.5503 -1.1950
  171SOPE   C1119286   2.553   1.556   6.508  0.4510 -0.5885  0.1177
  171SOPE  H11A19287   2.571   1.578   6.616  0.8246 -0.3080  0.0031
  171SOPE  H11B19288   2.458   1.607   6.479 -0.0537 -0.6097  1.6367
  171SOPE     P19289   2.805   1.646   6.449 -0.4378  0.0121  0.0882
  171SOPE   O1319290   2.845   1.774   6.391 -0.7580 -0.2998 -0.2260
  171SOPE   O1419291   2.875   1.525   6.392 -0.0005 -0.6237 -0.0780
  171SOPE   O1219292   2.645   1.634   6.431 -0.2905 -0.6077 -0.0065
  171SOPE   O1119293   2.822   1.646   6.607 -0.8366 -0.2760 -0.3154
  171SOPE    C119294   2.796   1.773   6.668 -0.7185 -0.5427  0.6158
  171SOPE    HA19295   2.707   1.753   6.732 -1.0994  2.7674  1.3406
  171SOPE    HB19296   2.759   1.854   6.601  1.4531 -0.6212 -0.7734
  171SOPE    C219297   2.912   1.826   6.758  0.6523  0.7267  0.5299
  171SOPE    HS19298   2.991   1.873   6.694  0.3049  2.5762  1.3956
  171SOPE   O2119299   2.964   1.710   6.832 -0.2368  0.2450  0.6529
  171SOPE   C2119300   3.083   1.725   6.887 -0.2277 -0.1240 -0.2280
  171SOPE   O2219301   3.141   1.831   6.885 -0.3294 -0.7431 -1.0193
  171SOPE   C2219302   3.125   1.600   6.962 -0.8495  0.6768 -0.4672
  171SOPE   H2R19303   3.207   1.554   6.903 -1.7007  1.3633 -2.2736
  171SOPE   H2S19304   3.041   1.527   6.965 -0.3256  0.0708 -0.4505
  171SOPE    C319305   2.858   1.936   6.854 -0.1034 -0.1315  0.2253
  171SOPE    HX19306   2.839   2.021   6.786 -2.0672 -1.9341 -1.6088
  171SOPE    HY19307   2.942   1.969   6.920  0.0628  1.8239 -0.8856
  171SOPE   O3119308   2.748   1.894   6.939 -0.5040 -0.2818 -0.2688
  171SOPE   C3119309   2.661   1.985   6.980 -0.0413 -0.0010  0.2079
  171SOPE   O3219310   2.666   2.105   6.980 -0.9147 -0.1135 -0.0012
  171SOPE   C3219311   2.550   1.913   7.052 -0.1170  0.6054  0.4300
  171SOPE   H2X19312   2.505   1.839   6.982  0.7135 -0.4499  0.9720
  171SOPE   H2Y19313   2.459   1.977   7.058 -2.1110 -1.6852 -2.5079
  171SOPE   C2319314   3.177   1.622   7.102  0.3912  0.4879  0.1300
  171SOPE   H3R19315   3.220   1.724   7.101 -0.0901  0.7301  1.6678
  171SOPE   H3S19316   3.268   1.562   7.123  0.4944  0.9652  1.0900
  171SOPE   C2419317   3.064   1.613   7.200 -0.3803  0.1732 -0.1786
  171SOPE   H4R19318   2.966   1.635   7.153 -1.0441  1.6130  1.7546
  171SOPE   H4S19319   3.070   1.509   7.237  0.4326  0.7048  1.2516
  171SOPE   C2519320   3.089   1.692   7.334  0.1302 -0.0451 -0.0926
  171SOPE   H5R19321   3.186   1.660   7.376  0.7067  1.8126  0.1005
  171SOPE   H5S19322   3.085   1.798   7.302 -0.8879 -0.2340 -0.6320
  171SOPE   C2619323   2.983   1.679   7.444  0.4085 -0.2870 -0.5041
  171SOPE   H6R19324   2.886   1.729   7.422 -0.0447 -0.3395  1.2257
  171SOPE   H6S19325   2.958   1.574   7.470 -3.1318  0.7882  1.0284
  171SOPE   C2719326   3.035   1.733   7.581  0.1028  0.2643 -0.3978
  171SOPE   H7R19327   3.117   1.670   7.622  1.5157  1.5336 -1.1623
  171SOPE   H7S19328   3.085   1.831   7.567 -1.2600  1.0774  0.1912
  171SOPE   C2819329   2.921   1.743   7.685 -0.2231  0.2196  0.2529
  171SOPE   H8R19330   2.966   1.783   7.778 -0.2874  0.5136  0.1594
  171SOPE   H8S19331   2.855   1.825   7.648 -0.9720 -0.5146 -0.0610
  171SOPE   C2919332   2.833   1.622   7.718  0.1715  0.4782  0.2141
  171SOPE   H9119333   2.891   1.531   7.738 -2.5511 -1.8192 -1.5468
  171SOPE  C21019334   2.704   1.594   7.711  0.2558  0.4762  0.3846
  171SOPE  H10119335   2.682   1.486   7.715  1.5960  0.1894  0.3731
  171SOPE  C21119336   2.588   1.689   7.672 -0.0860  0.4379  0.1488
  171SOPE  H11R19337   2.548   1.647   7.577 -0.5278  2.4411 -0.6019
  171SOPE  H11S19338   2.633   1.789   7.651 -1.6500  0.4075 -4.3646
  171SOPE  C21219339   2.462   1.705   7.760  0.9212  0.0886 -0.0755
  171SOPE  H12R19340   2.410   1.607   7.769  0.2941  0.0248 -3.1845
  171SOPE  H12S19341   2.397   1.783   7.715  1.3324  1.0361  0.9216
  171SOPE  C21319342   2.499   1.751   7.900 -0.0299  0.1771  0.2649
  171SOPE  H13R19343   2.544   1.852   7.909  0.6166 -0.2818  3.4031
  171SOPE  H13S19344   2.580   1.682   7.932  0.5981 -1.6622 -4.4620
  171SOPE  C21419345   2.380   1.758   7.992  0.0635  0.2875 -1.0451
  171SOPE  H14R19346   2.311   1.676   7.963 -0.1900 -0.2339  0.9125
  171SOPE  H14S19347   2.332   1.857   7.980  3.4876  2.0244 -1.6983
  171SOPE  C21519348   2.422   1.733   8.141 -0.6760  0.3552  0.9140
  171SOPE  H15R19349   2.531   1.746   8.159 -0.7687  1.9895  0.4005
  171SOPE  H15S19350   2.383   1.634   8.173  2.2531 -1.4229 -0.6113
  171SOPE  C21619351   2.359   1.845   8.225 -0.4111 -0.1968 -0.8124
  171SOPE  H16R19352   2.249   1.841   8.207 -0.6804 -0.9436  0.8079
  171SOPE  H16S19353   2.398   1.946   8.203 -0.6964  0.1134  0.0374
  171SOPE  C21719354   2.393   1.831   8.382 -0.4295  0.0992  0.8575
  171SOPE  H17R19355   2.479   1.897   8.401  0.5797 -0.6945 -0.7497
  171SOPE  H17S19356   2.401   1.726   8.419 -1.8113 -0.2356  0.2978
  171SOPE  C21819357   2.279   1.897   8.471  0.0281 -0.5848  0.1196
  171SOPE  H18R19358   2.259   2.001   8.436  0.3330 -1.4048 -2.7427
  171SOPE  H18S19359   2.310   1.900   8.577  1.2078 -2.6027 -0.1223
  171SOPE  H18T19360   2.187   1.835   8.463  0.1263 -0.8747  1.1856
  171SOPE   C3319361   2.595   1.859   7.194  0.2033  0.1324 -0.4366
  171SOPE   H3X19362   2.702   1.827   7.198 -0.2600 -1.7646 -1.6218
  171SOPE   H3Y19363   2.530   1.773   7.221  1.8133 -0.4358  1.9853
  171SOPE   C3419364   2.565   1.964   7.306  0.4939 -0.6831  0.0735
  171SOPE   H4X19365   2.580   2.064   7.260 -0.6743 -0.5241  0.0122
  171SOPE   H4Y19366   2.641   1.944   7.385  0.6305  1.8485  0.6722
  171SOPE   C3519367   2.423   1.946   7.364  0.8440  0.3110 -0.4577
  171SOPE   H5X19368   2.420   1.856   7.429  1.3818  0.0205 -0.8310
  171SOPE   H5Y19369   2.358   1.943   7.274 -0.7383 -1.9397  0.6419
  171SOPE   C3619370   2.363   2.062   7.443  0.4706  0.1212 -0.1814
  171SOPE   H6X19371   2.262   2.041   7.485  0.2665 -0.2626 -0.8462
  171SOPE   H6Y19372   2.351   2.152   7.379  1.0616 -0.0893 -0.5958
  171SOPE   C3719373   2.453   2.100   7.559 -0.2554 -0.6026 -0.6416
  171SOPE   H7X19374   2.539   2.151   7.511 -1.4664  2.7136  0.4749
  171SOPE   H7Y19375   2.484   2.014   7.622 -0.5943  0.0490  0.4280
  171SOPE   C3819376   2.385   2.199   7.658  0.4895 -0.2538 -0.5904
  171SOPE   H8X19377   2.295   2.253   7.623  1.2207  0.9229 -0.7390
  171SOPE   H8Y19378   2.458   2.283   7.666  1.8597 -1.5419  1.6144
  171SOPE   C3919379   2.352   2.147   7.801 -0.4033 -0.7368 -0.1404
  171SOPE   H9X19380   2.454   2.129   7.844  1.0749  3.2331 -1.5602
  171SOPE   H9Y19381   2.306   2.047   7.787 -1.5723  0.0229 -2.0966
  171SOPE  C31019382   2.265   2.243   7.890  0.7027 -0.0529 -0.2018
  171SOPE  H10X19383   2.157   2.221   7.874  0.7465 -0.8035  0.4874
  171SOPE  H10Y19384   2.281   2.347   7.856  0.4779  0.1521  0.3100
  171SOPE  C31119385   2.296   2.216   8.035 -0.4480 -0.2114  0.2356
  171SOPE  H11X19386   2.394   2.259   8.062 -0.4197 -0.5263  0.6233
  171SOPE  H11Y19387   2.321   2.108   8.038  1.2723  0.0715 -1.5486
  171SOPE  C31219388   2.197   2.267   8.139 -0.9777  0.4128  0.2577
  171SOPE  H12X19389   2.103   2.209   8.123 -0.5824  0.6406 -3.7544
  171SOPE  H12Y19390   2.184   2.376   8.123  2.5730  1.0262  0.9157
  171SOPE  C31319391   2.250   2.272   8.283  0.0857  0.5538 -0.0468
  171SOPE  H13X19392   2.348   2.325   8.276 -0.1579  0.7856 -2.8250
  171SOPE  H13Y19393   2.278   2.172   8.320  2.5495  1.8659  1.9631
  171SOPE  C31419394   2.174   2.349   8.388  0.3801 -0.0259  0.4715
  171SOPE  H14X19395   2.092   2.283   8.422 -1.6305  2.1558  0.1345
  171SOPE  H14Y19396   2.117   2.436   8.349 -2.4209 -2.2175 -0.6709
  171SOPE  C31519397   2.261   2.411   8.507  0.4780  0.7436  0.0948
  171SOPE  H15X19398   2.298   2.506   8.463 -0.4574  0.2625 -1.8789
  171SOPE  H15Y19399   2.342   2.340   8.534 -1.0204 -0.5170  1.4430
  171SOPE  C31619400   2.179   2.443   8.633 -0.5467  0.4597  0.2206
  171SOPE  H16X19401   2.238   2.511   8.698  0.7406 -0.5362  0.1364
  171SOPE  H16Y19402   2.147   2.359   8.698  0.0555  0.0804  0.0363
  171SOPE  C31719403   2.041   2.509   8.599  0.0467  0.3274  0.1514
  171SOPE  H17X19404   1.980   2.421   8.569  0.1529  0.2591  0.1356
  171SOPE  H17Y19405   2.052   2.582   8.516 -0.2441 -0.9910 -1.0866
  171SOPE  C31819406   1.973   2.592   8.713 -0.1607 -0.2757  0.7832
  171SOPE  H18X19407   2.025   2.690   8.713 -0.7519  0.0858 -1.7105
  171SOPE  H18Y19408   1.988   2.546   8.813  0.3878 -0.3182  0.6861
  171SOPE  H18Z19409   1.865   2.605   8.690 -0.2236 -3.2879 -1.1328
  172SOPE     N19410   4.814   3.662   6.849  0.1975  0.4400  0.4363
  172SOPE   HN119411   4.759   3.745   6.820  1.7611  1.0694 -0.8862
  172SOPE   HN219412   4.783   3.586   6.784  0.2950  1.4928 -0.8936
  172SOPE   HN319413   4.790   3.642   6.948 -2.3225  2.2707  0.2937
  172SOPE   C1219414   4.964   3.674   6.826  0.1825 -0.2433  0.1494
  172SOPE  H12A19415   4.997   3.763   6.883 -2.3975  0.5433  0.5319
  172SOPE  H12B19416   4.987   3.689   6.718  1.7680  3.4937  0.8679
  172SOPE   C1119417   5.040   3.545   6.873 -0.3219 -0.5475  0.1448
  172SOPE  H11A19418   5.036   3.553   6.984 -1.3900  1.8883  0.0173
  172SOPE  H11B19419   5.141   3.546   6.828 -0.8165 -3.0989 -1.1889
  172SOPE     P19420   5.033   3.302   6.809  0.1526 -0.6017  0.1029
  172SOPE   O1319421   5.171   3.295   6.867  0.0616 -0.3611  0.3670
  172SOPE   O1419422   5.023   3.259   6.667  0.4453  0.7963  0.1384
  172SOPE   O1219423   4.972   3.437   6.819  0.0043 -0.1818 -0.6192
  172SOPE   O1119424   4.934   3.207   6.892  0.0627 -0.1268  0.0950
  172SOPE    C119425   4.941   3.164   7.017 -0.7836  0.0366 -0.0503
  172SOPE    HA19426   5.046   3.154   7.052 -0.3092 -1.3643 -1.7256
  172SOPE    HB19427   4.901   3.062   7.032 -2.3662  0.6404 -0.0079
  172SOPE    C219428   4.872   3.267   7.110 -0.5699  0.8383 -1.2432
  172SOPE    HS19429   4.945   3.350   7.101  1.9019 -1.1284 -0.4614
  172SOPE   O2119430   4.873   3.220   7.249 -0.0160 -0.3321 -0.0452
  172SOPE   C2119431   4.894   3.318   7.335  0.0627 -0.7576 -0.1263
  172SOPE   O2219432   4.927   3.433   7.305  0.1024 -0.4193  0.0643
  172SOPE   C2219433   4.857   3.270   7.473  0.4253 -0.2892  0.0628
  172SOPE   H2R19434   4.936   3.195   7.496  1.3574  1.2625  2.1888
  172SOPE   H2S19435   4.765   3.208   7.468  0.2479 -0.1572  1.3697
  172SOPE    C319436   4.724   3.308   7.072  0.1888  0.7981 -0.1598
  172SOPE    HX19437   4.668   3.214   7.055 -1.5158  2.2687 -3.8734
  172SOPE    HY19438   4.725   3.360   6.974  0.5285 -0.1197 -0.6565
  172SOPE   O3119439   4.650   3.381   7.176 -0.1762 -0.4488  0.5735
  172SOPE   C3119440   4.658   3.515   7.181  0.2768 -0.1062 -0.4893
  172SOPE   O3219441   4.727   3.591   7.112 -0.3810 -0.4520 -0.1365
  172SOPE   C3219442   4.551   3.554   7.272  0.4777  0.3419  0.3022
  172SOPE   H2X19443   4.455   3.512   7.237 -1.2228  2.1771  2.4480
  172SOPE   H2Y19444   4.548   3.665   7.258  0.0404  0.2854 -0.0427
  172SOPE   C2319445   4.866   3.374   7.580  0.0661 -0.4373 -0.3356
  172SOPE   H3R19446   4.786   3.450   7.570  0.0544 -0.5293 -0.9651
  172SOPE   H3S19447   4.960   3.433   7.575 -1.1135  1.6339  0.7574
  172SOPE   C2419448   4.843   3.303   7.718  0.3131  0.5925  0.4569
  172SOPE   H4R19449   4.751   3.241   7.715  1.3789 -1.0763  0.4068
  172SOPE   H4S19450   4.930   3.236   7.738 -0.8873 -1.2996 -0.3607
  172SOPE   C2519451   4.840   3.403   7.835  0.2806 -0.1880 -0.3586
  172SOPE   H5R19452   4.945   3.439   7.832  0.5237 -0.8992 -0.3952
  172SOPE   H5S19453   4.763   3.480   7.808 -0.7826 -1.5224 -1.2899
  172SOPE   C2619454   4.792   3.339   7.965  0.0760 -0.4204 -0.5452
  172SOPE   H6R19455   4.684   3.313   7.969 -0.4801  1.4596 -1.7972
  172SOPE   H6S19456   4.849   3.245   7.981 -0.3608 -0.6070 -0.0505
  172SOPE   C2719457   4.827   3.418   8.094  0.1385 -0.9814 -0.0448
  172SOPE   H7R19458   4.935   3.443   8.100  0.0613 -0.8933  1.5315
  172SOPE   H7S19459   4.772   3.515   8.094 -0.5187 -1.3482 -0.9237
  172SOPE   C2819460   4.795   3.340   8.222  0.6649 -0.0843  0.3304
  172SOPE   H8R19461   4.688   3.312   8.209  0.7969 -0.9447  1.0153
  172SOPE   H8S19462   4.856   3.248   8.216  1.1853  0.2060  1.0038
  172SOPE   C2919463   4.827   3.408   8.354 -0.8620 -0.5995  0.0176
  172SOPE   H9119464   4.769   3.493   8.394 -1.1569 -1.5657  1.7374
  172SOPE  C21019465   4.924   3.381   8.435  0.9181  0.0508 -0.7793
  172SOPE  H10119466   4.924   3.436   8.530 -0.7028 -1.0049 -0.1140
  172SOPE  C21119467   5.031   3.281   8.418  0.0049 -0.4015  0.1864
  172SOPE  H11R19468   5.125   3.321   8.460 -0.1606 -0.5005  0.6552
  172SOPE  H11S19469   5.050   3.277   8.308  1.2877 -2.9027  0.4344
  172SOPE  C21219470   4.998   3.141   8.461  0.0822  0.0290 -0.2687
  172SOPE  H12R19471   5.079   3.067   8.448 -0.1684 -0.6420  1.6373
  172SOPE  H12S19472   4.907   3.114   8.404  1.2834  0.2352 -2.4030
  172SOPE  C21319473   4.972   3.122   8.609  0.4123  0.5813  0.5193
  172SOPE  H13R19474   4.963   3.012   8.615 -0.5796  0.5574 -0.9286
  172SOPE  H13S19475   4.866   3.149   8.634  0.5514  0.8433  0.8427
  172SOPE  C21419476   5.081   3.161   8.710 -0.1797 -0.4557  0.1137
  172SOPE  H14R19477   5.098   3.269   8.696 -0.3080 -0.7262 -2.7181
  172SOPE  H14S19478   5.174   3.105   8.686 -0.1427  0.7696 -3.0332
  172SOPE  C21519479   5.035   3.128   8.854 -0.3864 -0.5446 -0.3064
  172SOPE  H15R19480   5.012   3.019   8.854 -1.8920 -0.2745 -1.7669
  172SOPE  H15S19481   4.949   3.193   8.882  0.7551  0.5580  0.7476
  172SOPE  C21619482   5.150   3.160   8.950 -0.3697 -0.8515 -0.3128
  172SOPE  H16R19483   5.141   3.267   8.980 -1.6756 -0.2760 -2.5051
  172SOPE  H16S19484   5.246   3.137   8.899  0.1029 -2.8840  1.3665
  172SOPE  C21719485   5.132   3.090   9.082 -0.1379 -0.5475 -0.7165
  172SOPE  H17R19486   5.123   2.979   9.074 -1.6550 -0.3697 -1.9253
  172SOPE  H17S19487   5.032   3.126   9.115 -0.1824 -0.3698 -1.0434
  172SOPE  C21819488   5.246   3.118   9.185  0.5649  0.8266  0.2045
  172SOPE  H18R19489   5.238   3.224   9.217 -2.0068  1.7759 -2.9717
  172SOPE  H18S19490   5.341   3.099   9.130 -1.0828 -2.9170 -1.7473
  172SOPE  H18T19491   5.247   3.054   9.276  0.2864 -0.1133 -0.4371
  172SOPE   C3319492   4.582   3.535   7.423 -0.0600  0.7624  0.4352
  172SOPE   H3X19493   4.686   3.568   7.445 -0.1718  0.3826  1.6004
  172SOPE   H3Y19494   4.578   3.425   7.439 -2.8826  0.7183 -0.0423
  172SOPE   C3419495   4.480   3.597   7.525 -0.4072 -0.0895  0.3095
  172SOPE   H4X19496   4.384   3.556   7.488 -0.6347 -1.7882  2.5723
  172SOPE   H4Y19497   4.457   3.705   7.537 -3.5248 -0.6263  0.0228
  172SOPE   C3519498   4.494   3.541   7.666 -0.9739 -0.3518  0.3755
  172SOPE   H5X19499   4.600   3.560   7.695 -0.6482 -1.5828  0.0715
  172SOPE   H5Y19500   4.477   3.431   7.666  0.5092 -0.6036  0.7539
  172SOPE   C3619501   4.402   3.601   7.772  0.0611 -0.2360 -0.1971
  172SOPE   H6X19502   4.293   3.579   7.762 -0.1267  1.1623 -1.8217
  172SOPE   H6Y19503   4.402   3.712   7.766 -0.1683 -0.1284  1.4153
  172SOPE   C3719504   4.430   3.546   7.913 -0.2073  0.3713  0.7309
  172SOPE   H7X19505   4.535   3.509   7.920 -0.9502 -1.5945  3.5654
  172SOPE   H7Y19506   4.364   3.457   7.916  1.9242 -1.4208 -1.7231
  172SOPE   C3819507   4.404   3.648   8.017 -0.1068 -0.1374  0.2471
  172SOPE   H8X19508   4.299   3.684   8.011 -0.6359 -1.1119  2.5678
  172SOPE   H8Y19509   4.463   3.730   7.972 -3.0552  1.4130 -1.0981
  172SOPE   C3919510   4.458   3.626   8.156 -0.0048 -0.4737  1.0510
  172SOPE   H9X19511   4.424   3.714   8.217 -0.2566 -1.6219  2.6305
  172SOPE   H9Y19512   4.569   3.632   8.159 -0.0483  1.8325  0.5672
  172SOPE  C31019513   4.408   3.491   8.202  0.1670 -0.1847  0.3166
  172SOPE  H10X19514   4.478   3.422   8.151 -0.3683 -1.3191  1.0749
  172SOPE  H10Y19515   4.307   3.469   8.161  0.5747 -0.1155 -0.7476
  172SOPE  C31119516   4.412   3.466   8.357 -0.3584  0.4003 -0.0749
  172SOPE  H11X19517   4.520   3.478   8.381 -0.3318  1.5043 -0.6954
  172SOPE  H11Y19518   4.378   3.362   8.379 -1.4254  0.9718  1.0836
  172SOPE  C31219519   4.330   3.568   8.436  0.1322  0.2407  0.2994
  172SOPE  H12X19520   4.223   3.550   8.412  0.3969 -0.3426 -0.5038
  172SOPE  H12Y19521   4.351   3.671   8.399  0.3073  0.7416  1.7593
  172SOPE  C31319522   4.340   3.578   8.591  0.2054  0.0135 -0.0008
  172SOPE  H13X19523   4.310   3.681   8.621 -3.3294 -1.1855  1.0523
  172SOPE  H13Y19524   4.448   3.572   8.613 -0.2013 -0.2001  2.1666
  172SOPE  C31419525   4.276   3.468   8.678  0.2435  0.0289 -0.3582
  172SOPE  H14X19526   4.291   3.372   8.624  0.7393  0.6179 -1.2971
  172SOPE  H14Y19527   4.166   3.477   8.689  0.0661 -2.7699  1.0661
  172SOPE  C31519528   4.343   3.443   8.819  0.3887  0.6069  0.2666
  172SOPE  H15X19529   4.282   3.360   8.860  3.3216 -1.4464  0.8631
  172SOPE  H15Y19530   4.329   3.520   8.898  0.5294 -0.2575  1.1527
  172SOPE  C31619531   4.490   3.409   8.822 -0.7323  0.5095 -0.2823
  172SOPE  H16X19532   4.535   3.503   8.783  0.5880 -0.7248 -1.9355
  172SOPE  H16Y19533   4.514   3.320   8.758 -3.4191  0.1009 -0.8293
  172SOPE  C31719534   4.539   3.384   8.967 -0.9848 -0.0804  0.6312
  172SOPE  H17X19535   4.477   3.301   9.007 -1.7976  0.8218  1.3135
  172SOPE  H17Y19536   4.527   3.477   9.026  0.3587  1.5982 -1.5643
  172SOPE  C31819537   4.690   3.347   8.963 -0.1843 -0.8729  0.1342
  172SOPE  H18X19538   4.702   3.263   8.891 -1.4610 -0.8353 -0.1378
  172SOPE  H18Y19539   4.731   3.337   9.066 -0.2907 -1.3000  0.1395
  172SOPE  H18Z19540   4.730   3.441   8.919  1.5109 -0.7048  1.9066
  173SAPI   C1219541   0.178   2.632  10.757  0.0962 -0.1128 -0.4287
  173SAPI    H219542   0.143   2.681  10.664 -0.8045 -3.1705 -1.8405
  173SAPI    O219543   0.065   2.575  10.823  0.2832  0.7933 -0.2945
  173SAPI   HO219544   0.032   2.645  10.880 -0.1209 -0.9727  1.7455
  173SAPI   C1319545   0.265   2.517  10.715  0.6026 -0.6245 -0.7167
  173SAPI    H319546   0.344   2.564  10.653  0.8318  1.0768  0.7853
  173SAPI    O319547   0.200   2.422  10.634  0.1448 -0.1641 -0.3528
  173SAPI   HO319548   0.106   2.428  10.656  0.0410 -1.1460 -0.4950
  173SAPI   C1419549   0.343   2.451  10.828 -0.4732  0.0659 -0.5694
  173SAPI    H419550   0.270   2.391  10.887 -0.4537  1.9076  1.4431
  173SAPI    O419551   0.438   2.361  10.767  0.8446  0.0675 -0.3684
  173SAPI   HO419552   0.390   2.286  10.730 -1.3510  2.8185 -3.7288
  173SAPI   C1519553   0.423   2.547  10.918 -0.4056 -0.3952 -0.6023
  173SAPI    H519554   0.489   2.605  10.850 -0.8923 -1.0789 -1.6874
  173SAPI    O519555   0.508   2.482  11.013 -0.2485  0.1394 -0.1166
  173SAPI   HO519556   0.459   2.437  11.082 -0.5727  1.0356  0.2538
  173SAPI   C1619557   0.327   2.666  10.974 -0.6950 -0.5107  0.7796
  173SAPI    H619558   0.254   2.619  11.043  0.1463  1.1530  2.9325
  173SAPI    O619559   0.405   2.766  11.047  0.4933 -0.0341  0.7109
  173SAPI   HO619560   0.353   2.843  11.070  1.4349  0.5419  0.9377
  173SAPI   C1119561   0.254   2.732  10.852 -0.3227  0.5278 -0.0279
  173SAPI    H119562   0.337   2.779  10.796  1.0025 -0.5151  1.0044
  173SAPI     P19563   0.064   2.926  10.823 -0.2702  0.1285 -0.3437
  173SAPI   O1319564   0.052   3.058  10.886  0.0083  0.3578  0.0144
  173SAPI   O1419565  -0.060   2.846  10.817  0.1950  0.3983 -0.5734
  173SAPI   O1219566   0.177   2.838  10.900 -0.4714 -0.5019  0.3274
  173SAPI   O1119567   0.130   2.940  10.675  0.2577 -0.3661 -0.0916
  173SAPI    C119568   0.054   3.002  10.566  0.2506  0.4638 -0.8186
  173SAPI    HA19569  -0.052   2.998  10.600  0.8306 -0.5283  1.0098
  173SAPI    HB19570   0.076   3.111  10.558 -2.5680  1.0870 -1.3813
  173SAPI    C219571   0.070   2.936  10.434  0.3472  0.5503 -0.1568
  173SAPI    HS19572  -0.015   2.965  10.369 -0.2014 -0.0283  0.2951
  173SAPI   O2119573   0.078   2.796  10.434 -0.2317 -0.6480  0.5164
  173SAPI   C2119574  -0.036   2.738  10.458  0.0050  0.3713 -0.5242
  173SAPI   O2219575  -0.138   2.794  10.500 -0.0498  0.4472 -0.4155
  173SAPI   C2219576  -0.031   2.583  10.443  0.1901  0.2164  0.5019
  173SAPI   H2R19577   0.071   2.551  10.412 -0.4148  0.5213 -1.9964
  173SAPI   H2S19578  -0.065   2.550  10.544 -2.0453 -2.1763 -0.9239
  173SAPI    C319579   0.197   2.983  10.363  0.2412 -0.8108 -0.0943
  173SAPI    HX19580   0.280   2.964  10.435 -1.1900 -0.4491  1.7437
  173SAPI    HY19581   0.196   3.093  10.345 -0.2110 -0.7921  0.0380
  173SAPI   O3119582   0.230   2.903  10.242  0.0412 -0.2683  0.3556
  173SAPI   C3119583   0.154   2.954  10.133 -0.0256 -0.0193 -0.5086
  173SAPI   O3219584   0.075   3.037  10.147  0.0610 -0.1688 -0.2372
  173SAPI   C3219585   0.194   2.897   9.996  0.1001 -0.3869 -0.1440
  173SAPI   H2X19586   0.138   2.801   9.985  1.2085 -1.5479  3.0365
  173SAPI   H2Y19587   0.304   2.879   9.986  0.0003 -0.2047 -2.0016
  173SAPI   C2319588  -0.129   2.524  10.344  0.3933 -0.1141  0.1139
  173SAPI   H3R19589  -0.229   2.574  10.351 -0.7069 -1.9823 -1.4097
  173SAPI   H3S19590  -0.143   2.415  10.361 -2.8455 -0.2240 -2.4257
  173SAPI   C2419591  -0.080   2.530  10.196 -0.6156  0.1675 -1.0493
  173SAPI   H4R19592  -0.137   2.454  10.138 -0.8551  0.2076 -0.8691
  173SAPI   H4S19593   0.019   2.481  10.197 -0.6548  0.0235  1.4776
  173SAPI   C2519594  -0.090   2.661  10.126  0.4301  0.4004 -0.3583
  173SAPI   H5R19595  -0.063   2.748  10.188 -4.4195  1.7855  0.2415
  173SAPI   C2619596  -0.150   2.689  10.008 -0.9087 -0.1234 -0.0237
  173SAPI   H6R19597  -0.161   2.797   9.990  1.2583  0.1885  0.2315
  173SAPI   C2719598  -0.215   2.596   9.908 -0.0338  0.0481  0.0696
  173SAPI   H7R19599  -0.277   2.661   9.842 -0.5880 -0.2146  0.3233
  173SAPI   H7S19600  -0.284   2.526   9.960  2.5543 -3.2331 -0.5131
  173SAPI   C2819601  -0.111   2.512   9.838  0.0747 -0.6213  0.3853
  173SAPI   H8R19602  -0.043   2.452   9.900 -0.3498 -1.6123 -0.0793
  173SAPI   C2919603  -0.089   2.515   9.703  0.1866 -0.0319  0.2755
  173SAPI   H9R19604  -0.013   2.446   9.664 -2.8795 -3.1622 -0.5751
  173SAPI  C21019605  -0.162   2.595   9.596  0.0878  0.9514  0.5515
  173SAPI  H10R19606  -0.083   2.649   9.539  1.1198 -3.3852 -2.6958
  173SAPI  H10S19607  -0.226   2.675   9.638 -1.6275 -0.7872  1.3940
  173SAPI  C21119608  -0.245   2.501   9.512 -0.0333  0.4293 -0.0297
  173SAPI  H11R19609  -0.308   2.434   9.573  0.1685 -1.2888 -1.6296
  173SAPI  C21219610  -0.258   2.485   9.383  0.1351 -0.0706 -0.1573
  173SAPI  H12R19611  -0.322   2.401   9.350 -0.1443  0.7378 -1.7986
  173SAPI  C21319612  -0.191   2.566   9.282  0.7786  0.5340 -0.1214
  173SAPI  H13R19613  -0.149   2.484   9.219 -1.1007 -0.8455  0.3235
  173SAPI  H13S19614  -0.105   2.622   9.325  1.5022 -0.2431 -0.5285
  173SAPI  C21419615  -0.284   2.661   9.206  0.1468  0.3635 -0.2983
  173SAPI  H14R19616  -0.374   2.695   9.260  0.3595 -0.3858  0.5655
  173SAPI  C21519617  -0.258   2.711   9.087  0.2184 -0.0053  0.0822
  173SAPI  H15R19618  -0.329   2.784   9.044 -0.2394 -0.3834  0.1973
  173SAPI  C21619619  -0.137   2.686   9.004  0.4800  0.0692  0.0854
  173SAPI  H16R19620  -0.069   2.623   9.065  1.7308  1.0817 -0.2231
  173SAPI  H16S19621  -0.086   2.784   8.989  0.8596 -0.4026 -2.1337
  173SAPI  C21719622  -0.168   2.618   8.873  0.1647  0.0300 -0.4325
  173SAPI  H17R19623  -0.232   2.529   8.889  0.0767 -0.0738 -1.2988
  173SAPI  H17S19624  -0.073   2.597   8.819  0.0339 -1.7179 -0.0465
  173SAPI  C21819625  -0.242   2.717   8.779 -0.7151  0.0546 -0.0494
  173SAPI  H18R19626  -0.190   2.813   8.763 -4.5612  2.1579 -1.1288
  173SAPI  H18S19627  -0.345   2.738   8.814 -1.6312 -2.1262 -1.2178
  173SAPI  C21919628  -0.265   2.659   8.640 -0.1613  0.0145  0.4047
  173SAPI  H19R19629  -0.166   2.673   8.591 -0.3477  2.8960  0.6575
  173SAPI  H19S19630  -0.344   2.723   8.595 -1.8700 -2.4448 -0.2775
  173SAPI  C22019631  -0.288   2.506   8.623 -0.0505 -0.5433 -0.3340
  173SAPI  H20R19632  -0.364   2.482   8.701  0.8358  2.5467  1.6712
  173SAPI  H20S19633  -0.199   2.441   8.639 -1.5384 -2.1333  2.0992
  173SAPI  H20T19634  -0.333   2.476   8.526  0.3520 -0.9623 -0.3965
  173SAPI   C3319635   0.149   2.995   9.878 -0.4370  0.0840  0.0771
  173SAPI   H3X19636   0.205   3.091   9.887 -1.2060  0.4324  1.2522
  173SAPI   H3Y19637   0.039   3.006   9.879 -0.5221 -0.1658 -1.8825
  173SAPI   C3419638   0.153   2.922   9.742 -0.0139 -0.7602 -0.1377
  173SAPI   H4X19639   0.081   2.838   9.745  0.1685 -0.9496 -0.9055
  173SAPI   H4Y19640   0.254   2.877   9.728  0.0607 -0.3148 -1.1051
  173SAPI   C3519641   0.122   3.007   9.619 -0.4230 -0.4055  0.4094
  173SAPI   H5X19642   0.170   3.107   9.628 -1.2419  0.0484 -0.1875
  173SAPI   H5Y19643   0.016   3.039   9.625 -0.2507  0.0980  0.8818
  173SAPI   C3619644   0.158   2.931   9.495 -0.1025 -0.2822  0.2048
  173SAPI   H6X19645   0.119   2.827   9.487 -2.8600  0.7641 -1.6183
  173SAPI   H6Y19646   0.268   2.923   9.493 -0.1068 -0.3492  0.2420
  173SAPI   C3719647   0.107   3.005   9.358 -0.1257  0.1003 -0.2156
  173SAPI   H7X19648   0.149   3.107   9.362  0.4363 -0.1547  2.7057
  173SAPI   H7Y19649  -0.003   3.017   9.364 -0.3558 -1.8992  0.3236
  173SAPI   C3819650   0.168   2.950   9.227 -0.1487 -0.4125  0.2938
  173SAPI   H8X19651   0.124   2.850   9.207 -0.5481 -0.0974 -0.4467
  173SAPI   H8Y19652   0.276   2.936   9.249  0.0779 -0.5166 -0.8566
  173SAPI   C3919653   0.146   3.046   9.110  0.2104  0.0255  0.2301
  173SAPI   H9X19654   0.178   3.146   9.147  2.4328 -0.6066  0.2035
  173SAPI   H9Y19655   0.038   3.046   9.085  0.1470  1.4736  0.4417
  173SAPI  C31019656   0.219   3.001   8.979  0.0589 -0.6357  0.7423
  173SAPI  H10X19657   0.163   2.913   8.941 -0.0222  0.2210 -1.2069
  173SAPI  H10Y19658   0.326   2.974   8.997  1.4365  1.8477 -2.5925
  173SAPI  C31119659   0.201   3.107   8.869 -0.1395 -0.3080 -0.1789
  173SAPI  H11X19660   0.223   3.204   8.918 -1.3364 -1.3112  2.5533
  173SAPI  H11Y19661   0.100   3.115   8.823  0.0923  0.3342 -0.5799
  173SAPI  C31219662   0.302   3.099   8.762  0.3737  0.1129  0.4083
  173SAPI  H12X19663   0.308   2.992   8.732 -0.5719  0.2082 -0.1786
  173SAPI  H12Y19664   0.396   3.129   8.813 -0.3254  1.0437  1.1801
  173SAPI  C31319665   0.281   3.190   8.634 -0.0666 -0.5101 -0.4019
  173SAPI  H13X19666   0.185   3.157   8.590 -0.2936 -1.3994  0.7002
  173SAPI  H13Y19667   0.359   3.178   8.556 -0.3364  0.3817 -0.8171
  173SAPI  C31419668   0.294   3.336   8.678 -0.3168  0.3353 -0.6860
  173SAPI  H14X19669   0.380   3.349   8.746 -2.0144  0.5494  1.5485
  173SAPI  H14Y19670   0.199   3.369   8.725 -0.6254 -0.2010 -0.9212
  173SAPI  C31519671   0.332   3.420   8.553 -0.8317 -0.2469 -0.1138
  173SAPI  H15X19672   0.419   3.374   8.501 -0.6148  1.8664 -1.7772
  173SAPI  H15Y19673   0.363   3.521   8.587  0.7589 -1.1740  1.3551
  173SAPI  C31619674   0.224   3.445   8.449  0.1997 -0.3234 -0.6694
  173SAPI  H16X19675   0.133   3.493   8.490  0.7715  0.9404 -0.8535
  173SAPI  H16Y19676   0.201   3.341   8.415 -0.9293 -0.2615 -0.1328
  173SAPI  C31719677   0.270   3.528   8.332  0.0338  0.4607  0.4517
  173SAPI  H17X19678   0.230   3.487   8.236  0.8021 -0.1472  0.3848
  173SAPI  H17Y19679   0.380   3.523   8.323 -0.0474 -2.5966  0.2108
  173SAPI  C31819680   0.220   3.677   8.344  0.2804 -0.4704 -0.3735
  173SAPI  H18X19681   0.111   3.674   8.367  0.4885  0.4265  0.8407
  173SAPI  H18Y19682   0.259   3.734   8.257 -1.0955 -0.0179 -0.7259
  173SAPI  H18Z19683   0.260   3.706   8.444 -0.7510  1.1132 -0.3863
  174SAPI   C1219684   1.920   1.510  11.188 -0.5212  0.2134  0.8226
  174SAPI    H219685   2.022   1.485  11.153 -0.1565  2.0036  0.5101
  174SAPI    O219686   1.894   1.448  11.312 -0.4070  0.2047  0.8877
  174SAPI   HO219687   1.853   1.365  11.287  3.4135 -1.9081  0.8532
  174SAPI   C1319688   1.916   1.658  11.195 -0.4015  0.1227 -0.7247
  174SAPI    H319689   1.950   1.702  11.099  0.3494  0.5234 -0.2780
  174SAPI    O319690   2.024   1.705  11.273  0.0767  0.5701 -0.2908
  174SAPI   HO319691   2.003   1.682  11.364  1.3079 -0.2814 -0.2104
  174SAPI   C1419692   1.776   1.701  11.243  0.5482 -0.3455 -0.4429
  174SAPI    H419693   1.763   1.662  11.347  0.5127 -1.5278 -0.8717
  174SAPI    O419694   1.761   1.843  11.249 -0.0364 -0.6964  0.8525
  174SAPI   HO419695   1.669   1.870  11.237  0.7276  1.0969 -1.8878
  174SAPI   C1519696   1.666   1.645  11.156 -0.1719 -0.2008 -0.5255
  174SAPI    H519697   1.689   1.683  11.055  0.1376  0.8071 -0.0881
  174SAPI    O519698   1.535   1.689  11.181  0.9068 -0.3913  0.1212
  174SAPI   HO519699   1.501   1.679  11.270 -0.0938  2.4900  0.1933
  174SAPI   C1619700   1.673   1.495  11.132  0.6766 -0.1644 -0.1627
  174SAPI    H619701   1.653   1.448  11.231  0.8236 -0.2797 -0.1872
  174SAPI    O619702   1.586   1.446  11.032  0.2046  0.5616  0.0122
  174SAPI   HO619703   1.613   1.355  11.017 -0.7977  0.4103 -1.0237
  174SAPI   C1119704   1.818   1.460  11.087  0.0997 -0.3464  0.5770
  174SAPI    H119705   1.835   1.513  10.991  0.0486 -0.6005  0.4266
  174SAPI     P19706   1.937   1.243  10.978 -0.7816 -0.4852  0.0909
  174SAPI   O1319707   1.920   1.104  11.019  0.4143  0.7708  1.0119
  174SAPI   O1419708   2.078   1.295  10.983  0.3485  0.0415 -0.0250
  174SAPI   O1219709   1.835   1.319  11.072  0.0584 -0.1835 -0.1011
  174SAPI   O1119710   1.871   1.259  10.838  0.4461  0.7449  0.3633
  174SAPI    C119711   1.745   1.210  10.796 -0.4906  0.0976 -0.3342
  174SAPI    HA19712   1.728   1.110  10.842  0.4627 -0.5397 -1.3425
  174SAPI    HB19713   1.663   1.278  10.830  0.4961  1.7748 -1.1806
  174SAPI    C219714   1.735   1.195  10.644 -0.1899 -0.6811  0.4547
  174SAPI    HS19715   1.676   1.281  10.603 -1.3319 -1.9216 -0.6147
  174SAPI   O2119716   1.662   1.081  10.597  0.2252 -0.1687 -0.0706
  174SAPI   C2119717   1.537   1.072  10.626 -0.1956  0.2962 -0.6597
  174SAPI   O2219718   1.469   1.136  10.708 -0.6827 -0.2829  0.1890
  174SAPI   C2219719   1.484   0.943  10.554 -0.4377 -0.7642  0.3056
  174SAPI   H2R19720   1.438   0.864  10.618  1.9835 -1.0198  1.8887
  174SAPI   H2S19721   1.409   0.973  10.478 -0.0115 -0.7945 -0.1314
  174SAPI    C319722   1.884   1.182  10.592 -0.3447  0.6058  0.2518
  174SAPI    HX19723   1.943   1.108  10.649  1.1890 -0.1096 -2.1000
  174SAPI    HY19724   1.935   1.279  10.604 -0.0437  0.4011  0.6444
  174SAPI   O3119725   1.905   1.145  10.455 -0.3351 -0.0608 -0.5375
  174SAPI   C3119726   1.870   1.241  10.366  0.3293 -0.3540  0.4010
  174SAPI   O3219727   1.817   1.350  10.390  0.6740  0.3172  0.4348
  174SAPI   C3219728   1.921   1.207  10.228 -1.0106 -0.1713 -0.6928
  174SAPI   H2X19729   1.875   1.109  10.203 -1.2943  0.5063 -3.0615
  174SAPI   H2Y19730   2.029   1.190  10.247 -1.0075  1.6333  1.3787
  174SAPI   C2319731   1.594   0.859  10.476  0.2450  0.3039 -0.1046
  174SAPI   H3R19732   1.670   0.807  10.538 -0.9044 -1.8007 -0.3329
  174SAPI   H3S19733   1.655   0.922  10.409 -0.1082 -1.9597 -2.7187
  174SAPI   C2419734   1.524   0.756  10.380  0.0599 -0.0371  0.1042
  174SAPI   H4R19735   1.466   0.804  10.299 -0.2064  1.1823  0.9994
  174SAPI   H4S19736   1.456   0.712  10.456  0.6665  0.9730  1.2808
  174SAPI   C2519737   1.600   0.639  10.336  0.4410 -0.4608  0.2257
  174SAPI   H5R19738   1.697   0.619  10.384  0.9691  1.0302 -0.1616
  174SAPI   C2619739   1.553   0.551  10.246  0.2966 -0.3730  0.0368
  174SAPI   H6R19740   1.620   0.466  10.226 -0.6400 -1.3563  1.0074
  174SAPI   C2719741   1.414   0.567  10.182  1.2536 -0.9549  0.0403
  174SAPI   H7R19742   1.430   0.604  10.078  2.7597 -1.5165  0.0442
  174SAPI   H7S19743   1.352   0.639  10.238  1.5499  0.5179 -1.4591
  174SAPI   C2819744   1.355   0.430  10.175  0.7240  0.0088  0.4975
  174SAPI   H8R19745   1.340   0.386  10.274  4.2649  1.2602  1.7594
  174SAPI   C2919746   1.339   0.357  10.065  0.1099 -0.0991  0.1141
  174SAPI   H9R19747   1.275   0.268  10.082 -1.8704  1.4674  1.3601
  174SAPI  C21019748   1.369   0.378   9.919 -0.2643 -0.1973 -0.5356
  174SAPI  H10R19749   1.387   0.282   9.867  0.3831 -0.0182 -0.6439
  174SAPI  H10S19750   1.465   0.432   9.906 -0.3658  0.4459  1.1465
  174SAPI  C21119751   1.254   0.449   9.849 -0.3298  0.4153  0.2862
  174SAPI  H11R19752   1.161   0.456   9.907  2.0733  2.1419  4.3612
  174SAPI  C21219753   1.248   0.494   9.719 -0.4998 -0.6585  1.0213
  174SAPI  H12R19754   1.158   0.548   9.688  1.0135 -0.2439 -3.3578
  174SAPI  C21319755   1.368   0.497   9.625  0.1161 -0.7211 -0.6721
  174SAPI  H13R19756   1.421   0.591   9.649 -1.8640  0.0452  1.1130
  174SAPI  H13S19757   1.322   0.530   9.529  0.1347 -1.2500 -0.8651
  174SAPI  C21419758   1.442   0.369   9.607 -0.1908 -0.4175 -0.1777
  174SAPI  H14R19759   1.385   0.277   9.622 -1.2128  0.4931  1.9533
  174SAPI  C21519760   1.573   0.361   9.578 -0.0879 -0.3532 -0.5817
  174SAPI  H15R19761   1.615   0.259   9.568  0.0861 -0.4115  0.5410
  174SAPI  C21619762   1.673   0.473   9.573  0.4501 -0.1182  0.1931
  174SAPI  H16R19763   1.772   0.440   9.613  1.2689 -1.3285 -2.5586
  174SAPI  H16S19764   1.632   0.563   9.623 -2.4071 -1.3065  0.1481
  174SAPI  C21719765   1.732   0.532   9.435  0.3319  0.2513 -0.4348
  174SAPI  H17R19766   1.784   0.454   9.376 -1.8198 -0.3286 -1.6694
  174SAPI  H17S19767   1.816   0.603   9.455 -0.7950  1.5416 -0.1041
  174SAPI  C21819768   1.622   0.614   9.367 -0.6054 -0.1440  0.1860
  174SAPI  H18R19769   1.594   0.700   9.432 -0.7010  0.5594 -0.7564
  174SAPI  H18S19770   1.526   0.562   9.348 -1.7281  1.4856  1.1674
  174SAPI  C21919771   1.664   0.658   9.224  0.2165 -0.5844  0.2361
  174SAPI  H19R19772   1.690   0.566   9.168 -1.7960  0.2317 -2.2054
  174SAPI  H19S19773   1.762   0.710   9.223  0.2710 -0.6916 -0.9983
  174SAPI  C22019774   1.553   0.739   9.146 -0.5044 -0.1102  0.2718
  174SAPI  H20R19775   1.608   0.782   9.060  0.5229  1.4852  1.6620
  174SAPI  H20S19776   1.520   0.826   9.208 -1.3492  0.5259 -1.0229
  174SAPI  H20T19777   1.477   0.671   9.102 -1.8780 -0.1607  2.5566
  174SAPI   C3319778   1.896   1.311  10.127 -0.0042 -0.5714  0.2524
  174SAPI   H3X19779   1.934   1.411  10.158 -1.7146  0.4779 -0.8258
  174SAPI   H3Y19780   1.785   1.320  10.120 -0.1968 -1.8064  1.3683
  174SAPI   C3419781   1.957   1.278   9.992 -0.3404 -0.5393 -0.0872
  174SAPI   H4X19782   1.895   1.196   9.949 -2.5462  0.5874  0.7915
  174SAPI   H4Y19783   2.062   1.246  10.007  0.0613  0.8178  0.1020
  174SAPI   C3519784   1.947   1.392   9.888 -0.0960  0.7712  0.6481
  174SAPI   H5X19785   1.989   1.487   9.928  1.6554  0.0640  0.5630
  174SAPI   H5Y19786   1.841   1.416   9.865  0.2296  0.8703 -0.8715
  174SAPI   C3619787   2.014   1.355   9.749 -0.5062  0.5640 -0.1351
  174SAPI   H6X19788   1.965   1.261   9.716  3.1991 -1.1363 -1.2692
  174SAPI   H6Y19789   2.118   1.326   9.772 -0.6288  0.0739 -0.1891
  174SAPI   C3719790   2.011   1.473   9.655  0.9776 -0.6450  0.2904
  174SAPI   H7X19791   2.089   1.547   9.684 -0.9673  2.0518 -0.8849
  174SAPI   H7Y19792   1.913   1.524   9.665  1.3467  0.4960 -1.3509
  174SAPI   C3819793   2.046   1.455   9.505  0.5032  0.0375 -0.1296
  174SAPI   H8X19794   1.969   1.388   9.459 -0.6736  0.3000  1.3563
  174SAPI   H8Y19795   2.140   1.397   9.501  0.1112 -0.6504  0.4313
  174SAPI   C3919796   2.037   1.588   9.426  0.9440  1.1707  0.3825
  174SAPI   H9X19797   2.094   1.672   9.471 -0.0645  2.2797 -0.3776
  174SAPI   H9Y19798   1.930   1.614   9.436  1.3421  2.4505  1.5878
  174SAPI  C31019799   2.078   1.554   9.279  0.2064 -0.3303  0.2711
  174SAPI  H10X19800   2.017   1.479   9.224 -1.6267  0.3755  1.2414
  174SAPI  H10Y19801   2.182   1.516   9.292  0.7351  0.8054 -0.4954
  174SAPI  C31119802   2.086   1.682   9.197  0.2639 -0.4737  0.3961
  174SAPI  H11X19803   2.159   1.757   9.234  1.1024 -0.6254 -0.8652
  174SAPI  H11Y19804   1.988   1.734   9.201 -0.6464 -1.8927 -1.6002
  174SAPI  C31219805   2.106   1.651   9.050  0.3244  1.0034 -0.3503
  174SAPI  H12X19806   2.027   1.591   9.000 -0.7125  1.8949  0.1864
  174SAPI  H12Y19807   2.201   1.596   9.030 -0.6288 -0.7406 -0.2032
  174SAPI  C31319808   2.112   1.774   8.958  0.1436  0.7251 -0.3642
  174SAPI  H13X19809   2.012   1.822   8.950 -0.7751 -0.8621  0.9535
  174SAPI  H13Y19810   2.135   1.744   8.854  0.3762 -0.2798 -0.0367
  174SAPI  C31419811   2.221   1.876   9.000  0.4358 -0.4203 -0.1263
  174SAPI  H14X19812   2.315   1.818   8.989 -1.3270 -3.1726 -1.9492
  174SAPI  H14Y19813   2.192   1.922   9.097  2.4908  1.8339 -0.5052
  174SAPI  C31519814   2.218   1.986   8.899  0.3632 -0.0572 -0.4163
  174SAPI  H15X19815   2.121   2.041   8.897 -0.6916 -1.6568  2.5780
  174SAPI  H15Y19816   2.231   1.931   8.803  1.8469 -1.8506  0.7600
  174SAPI  C31619817   2.338   2.074   8.927  0.2734 -0.8882  0.8442
  174SAPI  H16X19818   2.426   2.013   8.896 -0.8456 -1.0047 -2.4275
  174SAPI  H16Y19819   2.361   2.107   9.031  1.9148  2.5596 -0.4308
  174SAPI  C31719820   2.335   2.197   8.838 -0.4475 -0.3914  0.2641
  174SAPI  H17X19821   2.263   2.275   8.870 -0.5969 -0.6300  0.5066
  174SAPI  H17Y19822   2.286   2.171   8.741  1.6842  2.2315 -1.6955
  174SAPI  C31819823   2.467   2.279   8.806  0.9054  0.5094  0.0901
  174SAPI  H18X19824   2.520   2.209   8.738 -0.3565 -2.1111  1.6719
  174SAPI  H18Y19825   2.529   2.285   8.898 -0.3975 -0.8284  1.1026
  174SAPI  H18Z19826   2.455   2.378   8.757 -2.5456 -0.6383 -1.6946
  175SAPI   C1219827   5.193   0.150   6.271  0.8603  0.4387 -0.3158
  175SAPI    H219828   5.164   0.069   6.341 -0.6495 -0.1375 -1.5642
  175SAPI    O219829   5.328   0.191   6.304 -0.3730 -0.2474 -0.1956
  175SAPI   HO219830   5.328   0.192   6.400  1.7775  1.1323 -0.1431
  175SAPI   C1319831   5.204   0.102   6.131 -0.5098 -0.7062  0.6960
  175SAPI    H319832   5.103   0.073   6.095 -0.6512  1.4399 -0.8896
  175SAPI    O319833   5.299  -0.005   6.124  0.0408 -0.6508 -0.6895
  175SAPI   HO319834   5.383   0.023   6.162 -0.4850 -0.8105  0.6509
  175SAPI   C1419835   5.245   0.219   6.038  0.7356  0.1448 -0.5376
  175SAPI    H419836   5.339   0.263   6.077  0.6545  1.5129 -1.8054
  175SAPI    O419837   5.266   0.184   5.901  0.0013  0.4932  0.0847
  175SAPI   HO419838   5.361   0.179   5.887 -0.3425  0.3403 -2.8894
  175SAPI   C1519839   5.144   0.330   6.045  0.2348  0.7072  0.1942
  175SAPI    H519840   5.045   0.284   6.023  0.7341  0.0923 -0.8108
  175SAPI    O519841   5.175   0.436   5.955 -0.3151  0.4500  0.0804
  175SAPI   HO519842   5.193   0.397   5.869 -0.2627  1.5563 -0.4267
  175SAPI   C1619843   5.139   0.382   6.188  0.4786  0.6468  0.8762
  175SAPI    H619844   5.236   0.414   6.231 -0.2294 -0.0606  3.1503
  175SAPI    O619845   5.050   0.485   6.212 -0.2099 -0.1600  0.2345
  175SAPI   HO619846   4.971   0.455   6.258 -1.4253  1.8438 -0.4013
  175SAPI   C1119847   5.097   0.269   6.284 -0.1071 -0.2138 -0.0918
  175SAPI    H119848   4.998   0.233   6.250  0.5941 -0.5000 -1.9447
  175SAPI     P19849   5.023   0.242   6.542  0.4304  0.0636  0.4336
  175SAPI   O1319850   5.003   0.097   6.525  0.0874 -0.0359  0.6044
  175SAPI   O1419851   4.900   0.326   6.559 -0.1829 -0.0324  0.0241
  175SAPI   O1219852   5.102   0.310   6.420 -0.4903 -0.4789  0.0201
  175SAPI   O1119853   5.111   0.267   6.678 -0.0625  0.0497  0.3185
  175SAPI    C119854   5.141   0.165   6.772 -0.1916 -0.0251  0.5915
  175SAPI    HA19855   5.156   0.064   6.729 -1.4229  0.2491 -0.5644
  175SAPI    HB19856   5.237   0.185   6.823  0.2798  0.6719 -0.5266
  175SAPI    C219857   5.041   0.159   6.891 -0.2419 -0.5825  0.1272
  175SAPI    HS19858   5.081   0.090   6.968 -1.6924 -0.1604  1.2913
  175SAPI   O2119859   4.910   0.116   6.841  0.8051  0.7729  0.2894
  175SAPI   C2119860   4.891  -0.021   6.819  0.3562  0.1066  0.4356
  175SAPI   O2219861   4.977  -0.104   6.843 -0.1931 -0.4889 -0.2599
  175SAPI   C2219862   4.757  -0.037   6.736 -0.6003 -0.9826 -1.0145
  175SAPI   H2R19863   4.681   0.016   6.797  2.1867  0.7050  1.2344
  175SAPI   H2S19864   4.773   0.017   6.640 -0.2293  1.0305  0.1240
  175SAPI    C319865   5.020   0.302   6.949 -0.2935  0.2838 -0.7056
  175SAPI    HX19866   4.935   0.348   6.894  0.6928  0.2834 -2.3072
  175SAPI    HY19867   5.114   0.358   6.930 -0.6652  0.5989 -1.6782
  175SAPI   O3119868   4.998   0.309   7.094 -0.5284 -0.8463 -0.0919
  175SAPI   C3119869   4.877   0.325   7.141  0.3404  0.3970  0.0590
  175SAPI   O3219870   4.771   0.323   7.082  0.0721  0.1432  0.3869
  175SAPI   C3219871   4.895   0.353   7.284  0.9736 -0.0144 -0.6874
  175SAPI   H2X19872   4.971   0.287   7.331 -1.3331 -2.4816 -0.2029
  175SAPI   H2Y19873   4.797   0.341   7.335  0.9177 -0.7774 -0.9630
  175SAPI   C2319874   4.725  -0.185   6.719 -0.5861 -0.2479  0.6008
  175SAPI   H3R19875   4.810  -0.240   6.673 -1.1455 -0.3784 -0.2880
  175SAPI   H3S19876   4.646  -0.179   6.641  1.1655 -0.7031 -1.3016
  175SAPI   C2419877   4.678  -0.243   6.851  0.0218  0.1081 -0.0081
  175SAPI   H4R19878   4.765  -0.234   6.920  0.0623  0.6384 -0.1230
  175SAPI   H4S19879   4.657  -0.351   6.835  2.2299 -0.3463 -0.1581
  175SAPI   C2519880   4.550  -0.178   6.907  0.2541 -0.4057  0.1901
  175SAPI   H5R19881   4.469  -0.160   6.835 -1.2750 -1.0658  1.6540
  175SAPI   C2619882   4.538  -0.123   7.030 -0.5861  0.4022  0.3070
  175SAPI   H6R19883   4.451  -0.061   7.059 -0.8088 -0.0298  0.5652
  175SAPI   C2719884   4.629  -0.121   7.148  0.9147 -0.0506  0.2163
  175SAPI   H7R19885   4.729  -0.162   7.123  0.9677  0.3151 -0.1850
  175SAPI   H7S19886   4.579  -0.187   7.222  1.0743 -0.5322 -0.0969
  175SAPI   C2819887   4.646   0.016   7.203 -0.1573 -0.6566  1.4645
  175SAPI   H8R19888   4.634   0.105   7.140 -0.1995  1.3419  4.1471
  175SAPI   C2919889   4.680   0.041   7.329  0.5988  0.0765  0.0773
  175SAPI   H9R19890   4.696   0.148   7.346 -0.2072  0.2150  0.0186
  175SAPI  C21019891   4.701  -0.065   7.439  0.0274 -0.3709  0.4145
  175SAPI  H10R19892   4.811  -0.081   7.443  0.1765  0.7944  1.5845
  175SAPI  H10S19893   4.664  -0.165   7.409  1.2138 -1.0041  0.9631
  175SAPI  C21119894   4.643  -0.016   7.569 -0.0338 -0.1521 -0.1347
  175SAPI  H11R19895   4.533  -0.023   7.572  0.0407 -1.3552  0.2385
  175SAPI  C21219896   4.706   0.045   7.671  0.3503  0.1776  0.9287
  175SAPI  H12R19897   4.656   0.067   7.767  0.4245 -1.2202  1.3060
  175SAPI  C21319898   4.854   0.078   7.665 -0.1799  0.1109 -0.5383
  175SAPI  H13R19899   4.899   0.075   7.564  1.5230 -0.5193  0.1942
  175SAPI  H13S19900   4.915   0.004   7.721  0.9416  1.0812 -0.4345
  175SAPI  C21419901   4.883   0.213   7.727  0.1925  0.0022 -0.0318
  175SAPI  H14R19902   4.913   0.288   7.651  3.3984  2.2493  3.0967
  175SAPI  C21519903   4.882   0.254   7.861 -1.1333  0.0907  0.1647
  175SAPI  H15R19904   4.912   0.353   7.896  3.2108 -1.0455  0.2333
  175SAPI  C21619905   4.845   0.168   7.975 -1.0179  0.0575 -0.3790
  175SAPI  H16R19906   4.869   0.061   7.958 -0.6234  0.0754  0.0422
  175SAPI  H16S19907   4.736   0.176   7.994 -0.7538  2.4406  0.4772
  175SAPI  C21719908   4.903   0.208   8.111  0.5006 -0.5348  0.1139
  175SAPI  H17R19909   4.880   0.313   8.139  2.2881 -0.1976  0.4449
  175SAPI  H17S19910   5.014   0.205   8.110  0.5433  0.4310  0.7399
  175SAPI  C21819911   4.864   0.115   8.225  0.2912 -0.3633 -0.0490
  175SAPI  H18R19912   4.918   0.019   8.213  0.8805  0.0938 -1.2027
  175SAPI  H18S19913   4.755   0.099   8.212  0.5588 -0.9065 -1.9663
  175SAPI  C21919914   4.904   0.182   8.356 -0.4953 -0.6635  0.4570
  175SAPI  H19R19915   4.856   0.282   8.362  0.6214 -0.0699 -0.3099
  175SAPI  H19S19916   5.014   0.196   8.351 -0.2984 -2.4291 -1.2140
  175SAPI  C22019917   4.865   0.101   8.479  0.7067 -0.7642 -0.1437
  175SAPI  H20R19918   4.754   0.109   8.485  0.8789  3.8704  0.4958
  175SAPI  H20S19919   4.901   0.155   8.568 -1.3105 -0.3603  0.4865
  175SAPI  H20T19920   4.915   0.002   8.469  1.7068 -0.3177  0.3501
  175SAPI   C3319921   4.940   0.496   7.298 -0.1582 -0.7640  0.4861
  175SAPI   H3X19922   4.867   0.572   7.265  2.4201  1.3560 -0.6909
  175SAPI   H3Y19923   5.029   0.508   7.233 -0.5342 -1.0916 -0.0978
  175SAPI   C3419924   4.960   0.524   7.450  0.0941 -0.3343 -0.1091
  175SAPI   H4X19925   5.043   0.462   7.490  0.4978  0.5639  0.4713
  175SAPI   H4Y19926   4.862   0.515   7.502 -1.4071  2.0096 -2.2666
  175SAPI   C3519927   5.022   0.659   7.474  0.4291 -0.0210  0.3194
  175SAPI   H5X19928   4.944   0.735   7.452  1.3854  0.9510  0.2294
  175SAPI   H5Y19929   5.111   0.670   7.408  0.3316 -0.6930  0.0644
  175SAPI   C3619930   5.084   0.673   7.614  0.0518 -0.2059 -0.6952
  175SAPI   H6X19931   5.149   0.762   7.601 -2.0170  1.2427 -1.5978
  175SAPI   H6Y19932   5.154   0.587   7.626  1.2511  0.5861 -1.7917
  175SAPI   C3719933   4.995   0.700   7.731  0.0115  1.2247  0.6619
  175SAPI   H7X19934   4.908   0.632   7.730  0.1097  1.1055 -0.2590
  175SAPI   H7Y19935   4.950   0.802   7.737 -0.0124  1.4211 -1.8643
  175SAPI   C3819936   5.058   0.672   7.871 -0.0213 -0.2381  0.2272
  175SAPI   H8X19937   5.129   0.754   7.894 -0.9284  0.5511  0.2460
  175SAPI   H8Y19938   5.115   0.576   7.869 -1.8163 -1.3948  1.3624
  175SAPI   C3919939   4.954   0.661   7.979 -0.2547 -0.4960  0.2774
  175SAPI   H9X19940   4.902   0.565   7.966  1.9289 -1.8360  0.8510
  175SAPI   H9Y19941   4.887   0.749   7.965  0.7445  0.2112 -0.3075
  175SAPI  C31019942   5.012   0.664   8.121 -0.1439  0.1983 -0.1904
  175SAPI  H10X19943   4.931   0.654   8.197 -0.8730  0.9606 -0.8513
  175SAPI  H10Y19944   5.061   0.762   8.135  0.9006 -0.5066  1.3590
  175SAPI  C31119945   5.119   0.563   8.152  0.5850  0.3129  0.2007
  175SAPI  H11X19946   5.212   0.569   8.091 -0.3578 -2.5453 -1.7077
  175SAPI  H11Y19947   5.074   0.464   8.130  2.3381 -0.6663  0.8306
  175SAPI  C31219948   5.156   0.555   8.302  0.6680 -0.0634 -0.5799
  175SAPI  H12X19949   5.062   0.532   8.358  1.1781  2.3754  1.4530
  175SAPI  H12Y19950   5.210   0.646   8.335 -1.7112  1.4590 -0.6277
  175SAPI  C31319951   5.241   0.430   8.319 -0.3486 -0.7451  0.0085
  175SAPI  H13X19952   5.323   0.441   8.245 -0.8005 -1.4742 -0.6182
  175SAPI  H13Y19953   5.184   0.337   8.299 -0.7186 -0.5750  0.2653
  175SAPI  C31419954   5.290   0.423   8.461  0.0702 -0.7077  0.3405
  175SAPI  H14X19955   5.329   0.523   8.491 -0.6326 -0.9603  2.2660
  175SAPI  H14Y19956   5.373   0.350   8.464  1.9425  1.0627 -3.0398
  175SAPI  C31519957   5.183   0.401   8.567  0.2038 -0.4480  0.1535
  175SAPI  H15X19958   5.130   0.303   8.568 -0.6339 -0.1123  4.2067
  175SAPI  H15Y19959   5.110   0.484   8.560 -2.7653 -2.8021  1.4167
  175SAPI  C31619960   5.235   0.399   8.715 -0.2301 -0.5586  0.6977
  175SAPI  H16X19961   5.313   0.478   8.716 -1.6712  0.9526 -0.0489
  175SAPI  H16Y19962   5.281   0.300   8.737 -1.3533 -1.2991 -0.1813
  175SAPI  C31719963   5.117   0.402   8.811  0.8498 -0.1263  0.1352
  175SAPI  H17X19964   5.031   0.335   8.788  2.8314 -1.8417 -2.9765
  175SAPI  H17Y19965   5.087   0.508   8.800 -0.8566 -0.6563 -0.6271
  175SAPI  C31819966   5.157   0.382   8.957 -0.5718  0.3761  0.3164
  175SAPI  H18X19967   5.241   0.451   8.977  1.0278 -0.8707 -1.7233
  175SAPI  H18Y19968   5.194   0.280   8.979  2.2578  1.4329  0.8255
  175SAPI  H18Z19969   5.081   0.412   9.033 -0.4766  1.2876  0.0709
  176SAPI   C1219970   0.278   5.789   6.431  0.0495 -0.0896 -0.4482
  176SAPI    H219971   0.316   5.712   6.502  2.1791 -0.3968 -1.7980
  176SAPI    O219972   0.396   5.851   6.370  0.0289 -0.5029 -0.4474
  176SAPI   HO219973   0.456   5.869   6.443  0.4218  1.9540 -1.2732
  176SAPI   C1319974   0.196   5.718   6.318  0.2148 -0.1854 -0.5081
  176SAPI    H319975   0.108   5.665   6.359  0.7014 -0.0356  0.7545
  176SAPI    O319976   0.264   5.616   6.251  0.3729  0.0775  0.0113
  176SAPI   HO319977   0.298   5.563   6.324 -1.0142 -1.2551 -0.2613
  176SAPI   C1419978   0.142   5.831   6.222  0.4012  0.3686 -0.1800
  176SAPI    H419979   0.234   5.881   6.185 -0.6656  2.3767 -0.2605
  176SAPI    O419980   0.069   5.776   6.112 -0.3129 -0.0795 -0.6095
  176SAPI   HO419981   0.129   5.770   6.038  1.5673  1.5384  0.7012
  176SAPI   C1519982   0.065   5.928   6.304  0.5737  0.1274 -0.9294
  176SAPI    H519983  -0.010   5.872   6.363  1.6848 -0.3506  0.0612
  176SAPI    O519984  -0.007   6.026   6.229  0.4566  0.0618 -0.0208
  176SAPI   HO519985   0.013   6.039   6.136 -1.0037  0.7209 -0.2682
  176SAPI   C1619986   0.159   5.997   6.410  0.0727 -1.3818  0.2050
  176SAPI    H619987   0.245   6.050   6.363 -1.5151  2.2086  0.9980
  176SAPI    O619988   0.083   6.100   6.477 -0.1402  0.4881 -0.3370
  176SAPI   HO619989   0.045   6.155   6.408 -1.9517 -1.1825 -0.7543
  176SAPI   C1119990   0.207   5.897   6.507  0.3208  0.6526  0.5057
  176SAPI    H119991   0.115   5.856   6.554 -0.2935  0.4712 -0.8192
  176SAPI     P19992   0.327   5.894   6.743 -0.1630 -0.2137 -0.1590
  176SAPI   O1319993   0.399   5.999   6.819 -0.3428 -0.1866  0.1769
  176SAPI   O1419994   0.393   5.760   6.739 -0.0378 -0.7549  0.0802
  176SAPI   O1219995   0.301   5.960   6.600  0.4326 -0.0659 -0.2774
  176SAPI   O1119996   0.177   5.887   6.797  0.1787 -0.9246 -0.1894
  176SAPI    C119997   0.101   5.765   6.823  0.0963  0.2900  0.0380
  176SAPI    HA19998   0.006   5.760   6.766 -0.6624  0.8274  1.2017
  176SAPI    HB19999   0.166   5.678   6.798  0.1760  0.0332  1.0952
  176SAPI    C220000   0.043   5.764   6.966 -0.3502  0.0011 -0.6867
  176SAPI    HS20001  -0.009   5.667   6.983 -0.5250  0.4364  1.6006
  176SAPI   O2120002  -0.045   5.873   7.005  0.2003  0.7739  0.5614
  176SAPI   C2120003  -0.165   5.890   6.948 -0.1955 -0.2731 -0.5395
  176SAPI   O2220004  -0.207   5.808   6.867  0.3124  0.1613  0.2183
  176SAPI   C2220005  -0.225   6.026   6.984 -0.0654  0.3551 -0.4211
  176SAPI   H2R20006  -0.204   6.041   7.092  1.8147  2.1002 -0.9767
  176SAPI   H2S20007  -0.162   6.101   6.931  2.6031  0.9429  3.2169
  176SAPI    C320008   0.158   5.775   7.075 -0.2268  0.5937 -0.1539
  176SAPI    HX20009   0.245   5.839   7.051 -0.5832  0.6424 -1.3683
  176SAPI    HY20010   0.204   5.674   7.086  0.3340  1.0283  1.8274
  176SAPI   O3120011   0.118   5.798   7.217 -0.3115  0.0611  0.2602
  176SAPI   C3120012   0.128   5.928   7.254  0.4136 -0.1844  1.2533
  176SAPI   O3220013   0.174   6.014   7.182  0.3044  0.2985 -0.2420
  176SAPI   C3220014   0.069   5.944   7.393  0.2406  0.7256 -0.5465
  176SAPI   H2X20015  -0.016   5.872   7.398  1.6622 -1.1104 -1.3773
  176SAPI   H2Y20016   0.029   6.046   7.403  1.6357  1.2712 -0.2479
  176SAPI   C2320017  -0.373   6.020   6.960 -0.3205  0.4653  0.0420
  176SAPI   H3R20018  -0.422   5.948   7.029 -0.0088  0.5156  0.3168
  176SAPI   H3S20019  -0.406   5.976   6.863  1.9971 -2.1506  0.2970
  176SAPI   C2420020  -0.437   6.160   6.966  0.0560 -0.3774 -0.3862
  176SAPI   H4R20021  -0.416   6.209   6.868  0.3958 -1.8995 -1.0978
  176SAPI   H4S20022  -0.395   6.220   7.049 -0.1107  0.2983 -0.7786
  176SAPI   C2520023  -0.590   6.158   6.978 -0.0033 -0.7806 -0.8017
  176SAPI   H5R20024  -0.637   6.175   6.880 -2.1472  0.7407  0.4167
  176SAPI   C2620025  -0.652   6.117   7.090 -0.7495  0.5363 -0.3853
  176SAPI   H6R20026  -0.762   6.104   7.088 -0.5451 -1.5078 -0.8949
  176SAPI   C2720027  -0.577   6.081   7.221 -0.2230  0.3214  0.6001
  176SAPI   H7R20028  -0.570   6.172   7.285 -1.3417  1.9381 -1.4274
  176SAPI   H7S20029  -0.473   6.049   7.197 -1.2185 -3.2901  0.4961
  176SAPI   C2820030  -0.635   5.962   7.295 -0.4289 -0.1632  0.3741
  176SAPI   H8R20031  -0.695   5.892   7.236 -0.5254 -0.3251  0.6618
  176SAPI   C2920032  -0.616   5.943   7.428  0.1242  0.1898 -0.1370
  176SAPI   H9R20033  -0.666   5.857   7.476 -0.0671  0.9927  1.1390
  176SAPI  C21020034  -0.530   6.014   7.523  0.3238 -0.4332 -0.5900
  176SAPI  H10R20035  -0.552   5.992   7.630  3.7614 -0.2919  0.2567
  176SAPI  H10S20036  -0.526   6.125   7.513 -2.7474 -0.1197  0.5859
  176SAPI  C21120037  -0.387   5.976   7.499  1.5321  0.2916  0.3090
  176SAPI  H11R20038  -0.350   5.962   7.396  2.9616 -2.3499  1.1048
  176SAPI  C21220039  -0.298   5.954   7.592 -0.1978  0.0664 -0.5041
  176SAPI  H12R20040  -0.195   5.938   7.558  0.6415 -0.7030  2.1531
  176SAPI  C21320041  -0.301   5.970   7.744  0.2463  0.7710  0.0423
  176SAPI  H13R20042  -0.289   5.877   7.803  0.2739  0.6537 -0.1449
  176SAPI  H13S20043  -0.405   5.984   7.780 -0.8373 -2.5484 -1.4406
  176SAPI  C21420044  -0.204   6.079   7.797 -0.3482 -0.2338 -0.7577
  176SAPI  H14R20045  -0.124   6.099   7.725  0.3328  1.5400  0.4093
  176SAPI  C21520046  -0.224   6.160   7.903 -0.1281 -0.4509  0.5318
  176SAPI  H15R20047  -0.149   6.223   7.952 -1.4260 -0.2334  2.3611
  176SAPI  C21620048  -0.346   6.172   7.990  0.1616 -0.2357  0.3028
  176SAPI  H16R20049  -0.427   6.108   7.949 -0.5155  0.3640  0.6725
  176SAPI  H16S20050  -0.393   6.273   7.984  1.1418  0.1729 -0.8929
  176SAPI  C21720051  -0.324   6.142   8.141  0.2876  0.4236 -0.1657
  176SAPI  H17R20052  -0.313   6.031   8.142  1.3408  0.5107  0.9399
  176SAPI  H17S20053  -0.418   6.168   8.194 -0.0070  0.5760 -0.7590
  176SAPI  C21820054  -0.201   6.199   8.215 -0.5561  0.3613  0.2022
  176SAPI  H18R20055  -0.194   6.299   8.168 -1.8515 -0.5227 -2.0091
  176SAPI  H18S20056  -0.113   6.135   8.190 -0.3531  0.0073  1.7464
  176SAPI  C21920057  -0.207   6.196   8.369  0.2337 -0.6229  0.5436
  176SAPI  H19R20058  -0.282   6.267   8.410 -0.4414  0.1019 -1.7731
  176SAPI  H19S20059  -0.106   6.231   8.399 -0.3087 -0.8434  2.8113
  176SAPI  C22020060  -0.217   6.059   8.431 -0.1177  0.2330  0.3293
  176SAPI  H20R20061  -0.125   5.998   8.417 -1.3614 -1.0771 -3.7536
  176SAPI  H20S20062  -0.307   6.005   8.397 -0.6873  1.9597 -1.0599
  176SAPI  H20T20063  -0.238   6.076   8.538 -2.4909  0.4650 -0.1250
  176SAPI   C3320064   0.179   5.933   7.503 -0.0320  0.1981 -0.3732
  176SAPI   H3X20065   0.256   6.013   7.495 -1.2795  1.2998 -2.1794
  176SAPI   H3Y20066   0.231   5.836   7.489  0.0659  0.3762 -1.3742
  176SAPI   C3420067   0.127   5.938   7.649 -0.7234  0.3483  0.7748
  176SAPI   H4X20068   0.049   5.859   7.656  0.1899 -0.4875  2.0107
  176SAPI   H4Y20069   0.077   6.036   7.664  0.0283  0.5813  1.9526
  176SAPI   C3520070   0.237   5.906   7.748  0.1300 -0.6473 -0.9882
  176SAPI   H5X20071   0.314   5.987   7.756 -0.8957  0.2191  0.5489
  176SAPI   H5Y20072   0.293   5.817   7.712  2.0387  0.1989 -0.2616
  176SAPI   C3620073   0.184   5.872   7.889 -0.3820 -1.0680  0.0282
  176SAPI   H6X20074   0.145   5.768   7.891  1.7331 -1.9771 -2.0696
  176SAPI   H6Y20075   0.103   5.938   7.926 -0.6784 -1.5671  0.2816
  176SAPI   C3720076   0.293   5.870   7.990 -0.0329 -0.2090 -0.4697
  176SAPI   H7X20077   0.334   5.971   8.014  0.5575 -0.1472 -1.6334
  176SAPI   H7Y20078   0.381   5.818   7.947  0.1774 -2.9680  2.9073
  176SAPI   C3820079   0.267   5.790   8.120  0.7190 -0.7252  0.1534
  176SAPI   H8X20080   0.245   5.685   8.091  0.5027 -0.9077  0.9515
  176SAPI   H8Y20081   0.178   5.839   8.165  0.6802 -2.1098  1.6435
  176SAPI   C3920082   0.380   5.774   8.225  0.0316  0.3508 -0.2692
  176SAPI   H9X20083   0.407   5.874   8.265  1.1205  0.7963 -2.0167
  176SAPI   H9Y20084   0.465   5.736   8.165 -1.3267 -0.0348 -2.0568
  176SAPI  C31020085   0.358   5.676   8.344  0.7005  0.3847  0.3857
  176SAPI  H10X20086   0.447   5.690   8.409  0.8038  1.0143  0.1168
  176SAPI  H10Y20087   0.357   5.570   8.311  1.2303  0.6638 -0.5508
  176SAPI  C31120088   0.220   5.715   8.416  0.2943 -0.2479 -0.0563
  176SAPI  H11X20089   0.137   5.684   8.349  1.4029 -2.6984 -0.3762
  176SAPI  H11Y20090   0.223   5.823   8.442  1.2861  0.1288 -1.6678
  176SAPI  C31220091   0.208   5.632   8.541  0.0754  0.1570  0.4281
  176SAPI  H12X20092   0.297   5.650   8.604  0.9970 -1.8579 -0.2064
  176SAPI  H12Y20093   0.209   5.523   8.521 -1.7757  0.1434  0.2463
  176SAPI  C31320094   0.082   5.660   8.618  0.2443  0.2086  0.2754
  176SAPI  H13X20095   0.058   5.579   8.690 -3.2623 -0.8888 -1.8661
  176SAPI  H13Y20096   0.001   5.655   8.542  1.6001  0.7950 -1.2694
  176SAPI  C31420097   0.076   5.799   8.684 -0.1509 -0.1647 -0.5036
  176SAPI  H14X20098   0.072   5.873   8.601  0.1237 -1.6036 -1.8513
  176SAPI  H14Y20099   0.177   5.819   8.726  0.4659 -0.3343 -1.8517
  176SAPI  C31520100  -0.036   5.804   8.794  0.1253  0.2762  0.3620
  176SAPI  H15X20101  -0.018   5.727   8.872 -2.0169 -0.8506 -0.1726
  176SAPI  H15Y20102  -0.139   5.775   8.762  0.9762 -0.8568 -1.4720
  176SAPI  C31620103  -0.042   5.941   8.863 -1.0542  0.3406  0.0018
  176SAPI  H16X20104  -0.131   5.962   8.926 -0.8178  0.4091  0.3159
  176SAPI  H16Y20105  -0.028   6.020   8.786 -2.5613 -0.5670 -1.2555
  176SAPI  C31720106   0.077   5.965   8.961  0.8935  0.0966 -0.3958
  176SAPI  H17X20107   0.066   6.072   8.989 -2.7934 -0.6207  1.5477
  176SAPI  H17Y20108   0.175   5.934   8.920  1.5248  2.1387 -0.5285
  176SAPI  C31820109   0.053   5.902   9.093  0.2548 -0.2562  0.4734
  176SAPI  H18X20110   0.005   5.802   9.080 -1.8597  0.8098 -0.3735
  176SAPI  H18Y20111  -0.019   5.953   9.160  0.1439  1.7870 -1.1098
  176SAPI  H18Z20112   0.141   5.886   9.159 -0.5848  0.5451  1.8147
  177SLPC     N20113   5.071   1.897  11.288 -0.3592  0.2584  0.8516
  177SLPC   C1320114   5.008   2.019  11.340  0.1763 -0.0751 -0.0246
  177SLPC  H13A20115   4.901   2.028  11.337  0.2637  1.1832  0.3626
  177SLPC  H13B20116   5.020   2.024  11.447  3.5444  0.4641 -0.3195
  177SLPC  H13C20117   5.050   2.106  11.293  1.6584 -0.1339  1.1092
  177SLPC   C1420118   4.995   1.777  11.334 -0.0873  0.0611 -0.0352
  177SLPC  H14A20119   4.888   1.791  11.327 -0.1571 -0.2509  0.3401
  177SLPC  H14B20120   5.019   1.693  11.270 -2.8917 -1.1604  0.3344
  177SLPC  H14C20121   5.020   1.744  11.434  1.5084  0.1729 -0.3682
  177SLPC   C1520122   5.213   1.881  11.321 -0.6730  0.0495 -0.6005
  177SLPC  H15A20123   5.241   1.778  11.310 -1.1981 -0.0694 -0.8342
  177SLPC  H15B20124   5.273   1.956  11.271 -1.5030  2.2464  1.5035
  177SLPC  H15C20125   5.231   1.888  11.427  1.3414 -0.0017 -0.8818
  177SLPC   C1220126   5.066   1.900  11.144 -0.2755 -0.9789  0.0102
  177SLPC  H12A20127   5.103   1.805  11.108  1.6148  0.1891 -1.2707
  177SLPC  H12B20128   5.125   1.976  11.095  0.0670 -1.3273 -0.1261
  177SLPC   C1120129   4.923   1.920  11.074  0.3602 -0.1954  0.2797
  177SLPC  H11A20130   4.940   1.917  10.964 -0.9788 -0.5482  0.0710
  177SLPC  H11B20131   4.881   2.019  11.102  0.5702  0.1981 -0.7308
  177SLPC     P20132   4.850   1.679  11.032 -0.2375  0.4455  0.0435
  177SLPC   O1320133   4.994   1.643  11.007  0.0339  0.5650 -0.7858
  177SLPC   O1420134   4.764   1.571  11.101  0.1968 -0.1180  0.0405
  177SLPC   O1220135   4.837   1.819  11.104 -0.1355  0.5388  0.1523
  177SLPC   O1120136   4.787   1.718  10.898 -0.4837  0.3228  0.6436
  177SLPC    C120137   4.664   1.796  10.888 -0.2209  0.1295  0.7693
  177SLPC    HA20138   4.581   1.738  10.935 -2.3781  1.8193 -0.7543
  177SLPC    HB20139   4.667   1.899  10.928  1.4968 -0.0612  1.1857
  177SLPC    C220140   4.627   1.790  10.734  0.6023  0.2802 -0.6293
  177SLPC    HS20141   4.538   1.850  10.704 -1.1241 -0.9567  1.7185
  177SLPC   O2120142   4.609   1.649  10.692 -0.1480  0.3047  0.6710
  177SLPC   C2120143   4.497   1.589  10.728  0.0145  0.2356 -0.0938
  177SLPC   O2220144   4.403   1.632  10.793  0.4759  0.0888 -0.1943
  177SLPC   C2220145   4.506   1.443  10.672 -0.4018  0.3318  0.1855
  177SLPC   H2R20146   4.580   1.442  10.590 -0.8578 -1.4347 -0.2604
  177SLPC   H2S20147   4.529   1.368  10.751 -0.0686 -1.1659 -1.2604
  177SLPC    C320148   4.753   1.841  10.659 -0.3057  0.4402  0.2572
  177SLPC    HX20149   4.821   1.754  10.673 -0.0840 -0.1367 -3.4056
  177SLPC    HY20150   4.794   1.930  10.711  1.2925 -1.3384  2.2441
  177SLPC   O3120151   4.735   1.855  10.517 -0.4303  0.2442 -0.3582
  177SLPC   C3120152   4.679   1.964  10.470  0.1917  0.6047 -0.5335
  177SLPC   O3220153   4.656   2.063  10.536  0.2001  0.3570  0.2605
  177SLPC   C3220154   4.645   1.948  10.322  0.3327 -0.0458 -0.5890
  177SLPC   H2X20155   4.536   1.966  10.317  0.4863  1.1802  0.1753
  177SLPC   H2Y20156   4.653   1.840  10.295 -0.6215 -0.4834  0.7797
  177SLPC   C2320157   4.368   1.392  10.627  1.0190  0.1513 -0.3873
  177SLPC   H3R20158   4.303   1.463  10.572  3.2288  2.4244 -0.2436
  177SLPC   H3S20159   4.302   1.370  10.714  0.0921  2.6618 -0.3843
  177SLPC   C2420160   4.388   1.261  10.542  0.0336  0.1637 -0.1072
  177SLPC   H4R20161   4.287   1.221  10.520 -0.1390  0.6322 -0.1893
  177SLPC   H4S20162   4.454   1.197  10.603  0.1782  0.6861  0.2911
  177SLPC   C2520163   4.458   1.291  10.409  0.1411 -0.2932  0.8615
  177SLPC   H5R20164   4.561   1.321  10.435  1.1478 -1.8068 -1.0897
  177SLPC   H5S20165   4.412   1.372  10.348 -0.3430  0.3549  2.0486
  177SLPC   C2620166   4.478   1.167  10.317  0.3607 -0.5801 -0.2582
  177SLPC   H6R20167   4.379   1.130  10.285  0.7414 -1.7135 -0.1976
  177SLPC   H6S20168   4.506   1.075  10.374  2.3843  0.7131  0.9792
  177SLPC   C2720169   4.578   1.180  10.201  0.2180  0.1138 -0.4345
  177SLPC   H7R20170   4.676   1.163  10.251  0.3446 -1.7403 -1.2635
  177SLPC   H7S20171   4.566   1.281  10.155  1.4980  0.4601 -0.0721
  177SLPC   C2820172   4.554   1.081  10.087 -0.4292 -0.0903  0.1286
  177SLPC   H8R20173   4.444   1.086  10.071 -0.5998 -2.4961  0.2109
  177SLPC   H8S20174   4.579   0.980  10.124  1.9967  0.7751  1.0363
  177SLPC   C2920175   4.644   1.107   9.971 -0.1081  0.0169  0.0552
  177SLPC   H9R20176   4.750   1.083   9.985  0.7185  3.3737  0.5523
  177SLPC  C21020177   4.605   1.155   9.856 -0.2513 -0.0112  0.0681
  177SLPC  H10R20178   4.676   1.172   9.773 -0.6011  0.5950 -0.1117
  177SLPC  C21120179   4.464   1.201   9.828  0.2951 -0.1828  0.8428
  177SLPC  H11R20180   4.394   1.116   9.831 -1.3536  1.0366 -0.9761
  177SLPC  H11S20181   4.425   1.272   9.904 -0.0181  1.3463 -0.6905
  177SLPC  C21220182   4.450   1.261   9.695 -0.6884 -0.2691  0.2376
  177SLPC  H12R20183   4.507   1.353   9.677 -0.1720 -0.9965 -2.2330
  177SLPC  C21320184   4.377   1.223   9.586 -0.4430 -0.6384 -0.0132
  177SLPC  H13R20185   4.392   1.279   9.493  2.4012  0.4090  0.9799
  177SLPC  C21420186   4.296   1.099   9.573 -0.5207 -0.2553  0.5494
  177SLPC  H14R20187   4.291   1.044   9.669 -2.1147 -0.6651  0.2654
  177SLPC  H14S20188   4.339   1.032   9.496 -2.3464 -1.3449  0.4111
  177SLPC  C21520189   4.154   1.127   9.530 -0.1169  0.8989  0.1123
  177SLPC  H15R20190   4.099   1.184   9.608 -0.1659 -0.1861  0.8982
  177SLPC  H15S20191   4.107   1.027   9.526  2.4989 -0.3629 -0.7824
  177SLPC  C21620192   4.127   1.189   9.391  0.4226  0.3971 -0.6637
  177SLPC  H16R20193   4.169   1.127   9.309  1.7324  0.7459 -0.2790
  177SLPC  H16S20194   4.196   1.275   9.382  1.5718 -0.2251  1.5340
  177SLPC  C21720195   3.978   1.227   9.362 -0.6325  0.6970 -0.1957
  177SLPC  H17R20196   3.918   1.133   9.362 -1.7617  1.3572  2.0799
  177SLPC  H17S20197   3.981   1.272   9.261  2.2185 -0.2853 -0.6486
  177SLPC  C21820198   3.917   1.332   9.449  0.4198  0.4288 -0.5213
  177SLPC  H18R20199   3.959   1.434   9.436 -0.9758  1.0603 -0.3199
  177SLPC  H18S20200   3.927   1.303   9.556  1.7386  1.4660 -0.3424
  177SLPC  H18T20201   3.807   1.332   9.431  0.3297  0.7499  0.0039
  177SLPC   C3320202   4.721   2.034  10.227  0.4044 -0.3461  0.0036
  177SLPC   H3X20203   4.831   2.027  10.236  0.6545 -1.7402 -2.8916
  177SLPC   H3Y20204   4.694   2.142  10.229  0.0137 -0.3306 -2.5871
  177SLPC   C3420205   4.702   2.007  10.078 -1.0387  0.1197 -0.4232
  177SLPC   H4X20206   4.595   2.001  10.047 -1.3595 -2.4787  0.8994
  177SLPC   H4Y20207   4.747   1.908  10.055  1.2835  0.9915  0.0932
  177SLPC   C3520208   4.773   2.116   9.991 -0.4785 -0.1467 -0.7541
  177SLPC   H5X20209   4.882   2.126  10.010 -0.2439 -0.3014 -1.9722
  177SLPC   H5Y20210   4.743   2.217  10.029 -0.5662 -1.3177  2.6064
  177SLPC   C3620211   4.734   2.118   9.840 -0.1501  0.2572  0.3833
  177SLPC   H6X20212   4.785   2.212   9.808 -0.7869  1.1154  1.7879
  177SLPC   H6Y20213   4.624   2.131   9.838 -0.2630  0.6058  3.6605
  177SLPC   C3720214   4.774   1.992   9.759 -0.6572  0.3067  0.4232
  177SLPC   H7X20215   4.712   1.909   9.799 -2.4706 -1.0112 -4.3250
  177SLPC   H7Y20216   4.883   1.969   9.760 -0.9586 -1.7901 -2.1008
  177SLPC   C3820217   4.740   2.002   9.603  0.5325 -0.2045 -0.6074
  177SLPC   H8X20218   4.633   2.026   9.586  0.5285 -0.6658 -1.2697
  177SLPC   H8Y20219   4.776   1.914   9.545 -1.7624 -0.4022 -1.8375
  177SLPC   C3920220   4.809   2.128   9.549 -0.0789  0.3652 -0.9212
  177SLPC   H9X20221   4.908   2.126   9.598 -0.9344  2.1353  1.0500
  177SLPC   H9Y20222   4.753   2.212   9.596  0.2651  0.3762 -0.5321
  177SLPC  C31020223   4.804   2.151   9.393  0.1845  0.1148  0.7277
  177SLPC  H10X20224   4.703   2.149   9.348  0.2780  0.2781  0.5097
  177SLPC  H10Y20225   4.870   2.068   9.360  0.2411  0.0994  0.8731
  177SLPC  C31120226   4.882   2.270   9.339  0.1007  0.1220  0.1513
  177SLPC  H11X20227   4.981   2.272   9.389  0.5404  0.6678 -0.7076
  177SLPC  H11Y20228   4.837   2.365   9.372  0.7970  0.1427  1.0788
  177SLPC  C31220229   4.900   2.263   9.185  0.2445 -0.4411  0.2980
  177SLPC  H12X20230   4.800   2.272   9.139 -0.5563  0.0664  2.0644
  177SLPC  H12Y20231   4.923   2.159   9.152 -1.4279 -1.0902  1.0641
  177SLPC  C31320232   5.006   2.363   9.148  0.5565 -0.3517 -0.0117
  177SLPC  H13X20233   5.102   2.348   9.203  0.5449  1.7573  0.7069
  177SLPC  H13Y20234   4.968   2.459   9.190  2.0853 -0.0326  0.7376
  177SLPC  C31420235   5.023   2.393   9.004 -0.1034  0.4865 -0.2221
  177SLPC  H14X20236   4.925   2.381   8.954  0.1375 -1.4357 -0.2964
  177SLPC  H14Y20237   5.091   2.312   8.970 -0.6371  0.5094 -1.3927
  177SLPC  C31520238   5.087   2.531   8.980  0.0267 -0.7172  0.2617
  177SLPC  H15X20239   5.194   2.524   9.007 -0.2311  0.4621  1.7332
  177SLPC  H15Y20240   5.041   2.603   9.051  0.8420 -1.5919  1.7179
  177SLPC  C31620241   5.082   2.589   8.841 -0.3545 -0.5489  0.2254
  177SLPC  H16X20242   4.977   2.573   8.808 -1.2352  1.2187  2.0078
  177SLPC  H16Y20243   5.139   2.519   8.775 -1.3489 -1.4335  0.2829
  177SLPC  C31720244   5.094   2.741   8.814 -0.3280  0.1726 -0.5308
  177SLPC  H17X20245   5.030   2.789   8.891  1.3144  1.6813 -0.0269
  177SLPC  H17Y20246   5.059   2.765   8.712  0.6259  0.5656 -0.7800
  177SLPC  C31820247   5.236   2.778   8.828  0.1032 -0.0931 -0.3303
  177SLPC  H18X20248   5.263   2.775   8.936 -2.5891  0.4293  0.4237
  177SLPC  H18Y20249   5.258   2.883   8.800  1.8055  0.3848  2.4538
  177SLPC  H18Z20250   5.303   2.710   8.771  2.3794  0.6595  1.3178
  178SLPC     N20251   0.622   4.340  11.293  0.3676  0.0777  1.1600
  178SLPC   C1320252   0.493   4.268  11.303 -0.1495  0.4196  0.1973
  178SLPC  H13A20253   0.407   4.333  11.290 -1.9866 -2.2513 -2.7537
  178SLPC  H13B20254   0.482   4.199  11.220 -1.3318 -0.3795  0.9787
  178SLPC  H13C20255   0.489   4.206  11.391 -1.0135 -0.8392 -0.6820
  178SLPC   C1420256   0.728   4.240  11.269  0.3625 -0.3779 -0.2376
  178SLPC  H14A20257   0.822   4.292  11.259  0.5444 -0.5602  0.4646
  178SLPC  H14B20258   0.733   4.161  11.343 -5.1133 -1.3604 -0.5273
  178SLPC  H14C20259   0.693   4.190  11.180  1.6730 -0.4151 -0.7582
  178SLPC   C1520260   0.643   4.410  11.420 -0.4333 -0.2978 -0.0473
  178SLPC  H15A20261   0.565   4.478  11.449  0.1269  0.5425 -0.4928
  178SLPC  H15B20262   0.642   4.334  11.498  0.4826 -0.9265 -0.6242
  178SLPC  H15C20263   0.739   4.459  11.413  0.4579 -2.0390 -0.8462
  178SLPC   C1220264   0.617   4.447  11.185 -0.5876  0.5140  0.4972
  178SLPC  H12A20265   0.703   4.513  11.189 -0.4861  0.6557 -2.1652
  178SLPC  H12B20266   0.536   4.517  11.200 -0.7654  1.0348 -2.3618
  178SLPC   C1120267   0.621   4.390  11.047  0.1817  0.8398 -0.3160
  178SLPC  H11A20268   0.719   4.344  11.023  0.1044 -0.2674  1.3537
  178SLPC  H11B20269   0.610   4.476  10.978 -0.8718  1.0439  0.0954
  178SLPC     P20270   0.387   4.315  10.962  0.3329 -0.5318  0.4132
  178SLPC   O1320271   0.292   4.217  11.016  0.0197  0.4798 -0.3325
  178SLPC   O1420272   0.349   4.460  10.982  0.1098 -0.1408 -0.0608
  178SLPC   O1220273   0.530   4.283  11.019  0.4607 -0.5968 -0.0215
  178SLPC   O1120274   0.407   4.301  10.807 -0.0277  0.2326  0.0014
  178SLPC    C120275   0.530   4.288  10.744 -0.7468 -0.7330  0.0287
  178SLPC    HA20276   0.609   4.345  10.798 -1.5287  1.0914 -0.6860
  178SLPC    HB20277   0.556   4.180  10.736  0.9344 -0.2711 -1.3985
  178SLPC    C220278   0.534   4.340  10.600  0.3100 -0.2464  0.1741
  178SLPC    HS20279   0.632   4.321  10.550  0.0130  2.5363 -1.7082
  178SLPC   O2120280   0.506   4.482  10.604  0.7785  0.3455  0.5332
  178SLPC   C2120281   0.617   4.556  10.618 -0.4977  0.0035 -0.8365
  178SLPC   O2220282   0.730   4.512  10.636  0.3578 -0.4644  0.1154
  178SLPC   C2220283   0.583   4.696  10.599 -1.0418  0.1276  0.2272
  178SLPC   H2R20284   0.476   4.716  10.622 -1.0703  1.4021 -0.8547
  178SLPC   H2S20285   0.643   4.750  10.675 -0.1192 -1.2841  0.5322
  178SLPC    C320286   0.422   4.263  10.517  0.0507 -0.1401  0.0918
  178SLPC    HX20287   0.331   4.264  10.581  0.4122 -0.6496  0.6232
  178SLPC    HY20288   0.448   4.155  10.512 -2.6234 -0.8375 -0.1377
  178SLPC   O3120289   0.403   4.316  10.386 -0.4883 -0.0428  0.2465
  178SLPC   C3120290   0.280   4.327  10.339  0.0467 -0.2689 -0.3552
  178SLPC   O3220291   0.180   4.308  10.408 -0.0938  0.3337  0.1311
  178SLPC   C3220292   0.287   4.384  10.193  0.5238 -0.5016  0.1599
  178SLPC   H2X20293   0.390   4.356  10.160  0.9918  0.2531  0.9458
  178SLPC   H2Y20294   0.280   4.495  10.194  0.9005 -0.4722  1.5933
  178SLPC   C2320295   0.621   4.738  10.457  0.6880  0.5686 -0.2105
  178SLPC   H3R20296   0.713   4.688  10.418  0.9255  1.7657 -1.2758
  178SLPC   H3S20297   0.644   4.845  10.440 -0.4043  0.7410 -0.7132
  178SLPC   C2420298   0.510   4.691  10.357  0.3016 -0.1627 -0.9494
  178SLPC   H4R20299   0.409   4.721  10.390  0.7207 -0.7793  1.0402
  178SLPC   H4S20300   0.505   4.580  10.359 -0.3755 -0.1649  2.0773
  178SLPC   C2520301   0.538   4.756  10.221 -0.6214 -0.4766 -0.3769
  178SLPC   H5R20302   0.637   4.734  10.177 -0.5590 -0.1092 -0.4270
  178SLPC   H5S20303   0.535   4.865  10.246  0.5437 -0.2969 -0.9546
  178SLPC   C2620304   0.431   4.724  10.121  0.0688 -0.3683  0.2631
  178SLPC   H6R20305   0.337   4.774  10.152 -0.9210 -1.3716 -0.9817
  178SLPC   H6S20306   0.413   4.617  10.101 -0.7824  0.0093 -1.1569
  178SLPC   C2720307   0.457   4.778   9.980  0.2161  0.2381  0.2951
  178SLPC   H7R20308   0.544   4.734   9.927  1.0017  1.7432  0.2459
  178SLPC   H7S20309   0.475   4.888   9.989  1.3409  0.2692 -1.7853
  178SLPC   C2820310   0.325   4.758   9.890 -0.3188  0.2765 -0.8482
  178SLPC   H8R20311   0.244   4.798   9.956  0.5938 -0.1288  0.5796
  178SLPC   H8S20312   0.313   4.647   9.892  0.9118  0.1283 -0.7439
  178SLPC   C2920313   0.341   4.831   9.765 -0.1806 -0.5140  0.5350
  178SLPC   H9R20314   0.357   4.939   9.777  0.5281 -0.4712 -0.6098
  178SLPC  C21020315   0.344   4.787   9.638  0.2617  0.5327  0.5632
  178SLPC  H10R20316   0.376   4.864   9.566  0.3899  1.3967  1.5137
  178SLPC  C21120317   0.326   4.643   9.582 -0.0111  0.2804  0.2321
  178SLPC  H11R20318   0.288   4.576   9.662  0.9693 -0.8638 -0.2263
  178SLPC  H11S20319   0.424   4.601   9.551  0.7471  0.8658  1.7382
  178SLPC  C21220320   0.228   4.631   9.467  0.3523  0.2870 -0.7523
  178SLPC  H12R20321   0.125   4.598   9.486  0.5911 -0.7948 -1.2712
  178SLPC  C21320322   0.261   4.685   9.346  0.5016 -0.5387  0.3230
  178SLPC  H13R20323   0.183   4.684   9.268 -0.8285  1.0287  1.5711
  178SLPC  C21420324   0.384   4.753   9.302 -0.2671  0.0493  0.1754
  178SLPC  H14R20325   0.460   4.742   9.382 -1.5957  1.4096  1.6895
  178SLPC  H14S20326   0.375   4.863   9.287 -0.7636  0.2827  1.9277
  178SLPC  C21520327   0.451   4.681   9.178 -0.4153 -0.8966 -0.4766
  178SLPC  H15R20328   0.475   4.576   9.202  2.3569 -0.2561 -0.0046
  178SLPC  H15S20329   0.544   4.742   9.166 -1.6026  0.6283 -2.6245
  178SLPC  C21620330   0.372   4.685   9.046 -0.4213 -0.2620 -0.4393
  178SLPC  H16R20331   0.329   4.784   9.019 -0.9973 -0.5425 -0.5898
  178SLPC  H16S20332   0.289   4.614   9.068 -1.1625  0.3598 -1.1476
  178SLPC  C21720333   0.455   4.630   8.929 -0.5356  0.1013 -0.6713
  178SLPC  H17R20334   0.487   4.528   8.958  2.9578  0.7623 -1.7713
  178SLPC  H17S20335   0.551   4.684   8.917  0.9661 -2.2867 -0.0402
  178SLPC  C21820336   0.368   4.614   8.806 -0.2629 -0.4550  0.7295
  178SLPC  H18R20337   0.305   4.705   8.800 -1.4406 -1.1153  2.3478
  178SLPC  H18S20338   0.302   4.525   8.810 -0.1589 -0.5158  1.1556
  178SLPC  H18T20339   0.439   4.604   8.721  1.1979  1.7834  1.5941
  178SLPC   C3320340   0.180   4.323  10.101 -0.0067  0.4745 -0.3058
  178SLPC   H3X20341   0.075   4.341  10.133  0.5437 -0.4250  2.2243
  178SLPC   H3Y20342   0.205   4.215  10.101  1.4690  0.7733 -1.7326
  178SLPC   C3420343   0.192   4.369   9.955  0.0123  0.6165  0.8115
  178SLPC   H4X20344   0.282   4.326   9.906 -2.7219 -2.6082 -1.8142
  178SLPC   H4Y20345   0.209   4.479   9.963  0.0352  0.7116 -0.3934
  178SLPC   C3520346   0.066   4.321   9.888  0.0727  0.8065  0.6478
  178SLPC   H5X20347  -0.029   4.348   9.939 -1.3506 -0.3206 -1.2728
  178SLPC   H5Y20348   0.074   4.210   9.895 -0.8454  0.6900  0.1092
  178SLPC   C3620349   0.064   4.366   9.742  0.1783  0.6673  0.2287
  178SLPC   H6X20350   0.113   4.466   9.742  1.2197  0.2433 -2.4079
  178SLPC   H6Y20351  -0.039   4.384   9.704  0.1508 -0.2892 -0.1896
  178SLPC   C3720352   0.117   4.273   9.626  0.2198 -0.1255  0.3273
  178SLPC   H7X20353   0.210   4.225   9.662  1.3627  2.0451  0.4181
  178SLPC   H7Y20354   0.143   4.332   9.536  0.6099 -1.7912 -0.7033
  178SLPC   C3820355   0.001   4.174   9.585 -0.0432 -0.0079  0.0808
  178SLPC   H8X20356  -0.100   4.216   9.565 -0.4134 -1.3806 -1.1527
  178SLPC   H8Y20357  -0.001   4.127   9.686  0.0889 -0.7963 -0.2774
  178SLPC   C3920358   0.027   4.058   9.482  0.4284  0.2604 -0.1396
  178SLPC   H9X20359  -0.024   3.972   9.531  0.4182  1.9260  3.0321
  178SLPC   H9Y20360   0.136   4.037   9.478  0.2139 -1.1391  0.6357
  178SLPC  C31020361  -0.026   4.092   9.340  0.3017  0.6512 -0.5656
  178SLPC  H10X20362  -0.041   4.200   9.320 -0.2212  0.3009 -2.2112
  178SLPC  H10Y20363  -0.124   4.040   9.338  0.8401 -0.4056 -0.6402
  178SLPC  C31120364   0.065   4.046   9.227 -0.0570 -1.0833  0.0631
  178SLPC  H11X20365   0.001   4.051   9.137  0.2385  1.3766 -0.0978
  178SLPC  H11Y20366   0.104   3.943   9.233 -2.7274 -2.1557  0.3217
  178SLPC  C31220367   0.181   4.151   9.197  0.3528  1.3959 -0.4791
  178SLPC  H12X20368   0.258   4.155   9.277  1.1734 -0.1394 -1.1385
  178SLPC  H12Y20369   0.144   4.256   9.186 -1.4665  0.6333 -2.2104
  178SLPC  C31320370   0.236   4.119   9.058 -0.6667  0.4801  0.7132
  178SLPC  H13X20371   0.157   4.121   8.979  0.2416 -1.3331 -0.3173
  178SLPC  H13Y20372   0.278   4.016   9.049  0.5682  1.0754 -0.8569
  178SLPC  C31420373   0.343   4.230   9.024 -0.7764  0.3662 -0.0703
  178SLPC  H14X20374   0.425   4.223   9.099 -1.0432 -0.0592  0.1908
  178SLPC  H14Y20375   0.288   4.326   9.031 -0.3368  0.7106 -1.1730
  178SLPC  C31520376   0.408   4.214   8.887 -0.6152  0.5754  0.4135
  178SLPC  H15X20377   0.322   4.239   8.822 -0.9894 -1.0905  0.2456
  178SLPC  H15Y20378   0.494   4.283   8.872 -0.4569  0.1142 -0.8901
  178SLPC  C31620379   0.448   4.069   8.842 -0.4772 -0.3052 -0.2140
  178SLPC  H16X20380   0.374   3.990   8.869 -0.9539 -0.4325 -1.7569
  178SLPC  H16Y20381   0.541   4.044   8.897  0.2051  0.4614 -0.9896
  178SLPC  C31720382   0.458   4.060   8.693  0.4472  0.0633 -0.5608
  178SLPC  H17X20383   0.508   4.147   8.646 -0.0198  1.0169  0.6500
  178SLPC  H17Y20384   0.360   4.057   8.641 -0.7423  0.9496  1.4718
  178SLPC  C31820385   0.539   3.939   8.651 -0.0748  0.0566  0.3554
  178SLPC  H18X20386   0.647   3.946   8.675  1.0782 -3.3847 -2.8698
  178SLPC  H18Y20387   0.527   3.923   8.542 -1.5463  0.2318  0.4749
  178SLPC  H18Z20388   0.512   3.841   8.697 -2.7253  0.3955 -0.2936
  179SLPC     N20389   0.827   1.166  10.520  0.1001  0.0176  0.5809
  179SLPC   C1320390   0.795   1.039  10.461  0.7942 -0.3044 -0.4790
  179SLPC  H13A20391   0.840   1.027  10.364  2.0334  0.3532 -0.0193
  179SLPC  H13B20392   0.810   0.957  10.530 -2.5894 -0.5184  0.1652
  179SLPC  H13C20393   0.689   1.051  10.448  0.6990  0.9248  1.0604
  179SLPC   C1420394   0.972   1.168  10.572  0.5851  0.1685  0.2340
  179SLPC  H14A20395   1.037   1.108  10.509 -2.9303 -2.8551 -0.8363
  179SLPC  H14B20396   1.010   1.268  10.556 -2.5193  1.3753 -0.1551
  179SLPC  H14C20397   0.978   1.154  10.679 -2.2806  0.2042  0.4788
  179SLPC   C1520398   0.726   1.192  10.631  0.2395  0.1861  1.2733
  179SLPC  H15A20399   0.622   1.181  10.607  0.1812  1.6809  0.7075
  179SLPC  H15B20400   0.735   1.119  10.711 -0.1805  0.3750  1.4917
  179SLPC  H15C20401   0.730   1.297  10.655 -0.5221  0.7487 -0.8807
  179SLPC   C1220402   0.817   1.272  10.414  0.3153  0.3853 -0.2345
  179SLPC  H12A20403   0.730   1.248  10.354 -0.2563 -1.3010  1.1733
  179SLPC  H12B20404   0.898   1.258  10.344  0.5688 -0.8449  0.2859
  179SLPC   C1120405   0.806   1.425  10.452 -0.6034  1.0044  0.2409
  179SLPC  H11A20406   0.714   1.415  10.512  0.6558 -1.0642  1.9541
  179SLPC  H11B20407   0.782   1.488  10.364 -0.0960 -0.2040 -0.7942
  179SLPC     P20408   1.058   1.491  10.460  0.2408  0.1843  0.2427
  179SLPC   O1320409   1.057   1.616  10.384  0.8766 -0.4027 -0.1463
  179SLPC   O1420410   1.170   1.488  10.557  0.0431  1.0476 -0.3592
  179SLPC   O1220411   0.915   1.471  10.529 -0.7340  0.2043 -0.1153
  179SLPC   O1120412   1.068   1.368  10.364 -0.8972 -0.6307 -0.2147
  179SLPC    C120413   1.197   1.319  10.325 -0.0195 -0.0589  0.2347
  179SLPC    HA20414   1.259   1.279  10.408 -0.3797 -2.3192 -0.5193
  179SLPC    HB20415   1.192   1.224  10.267 -2.2195  1.4842 -2.3248
  179SLPC    C220416   1.265   1.419  10.229 -0.3994 -0.4268  0.0102
  179SLPC    HS20417   1.253   1.516  10.281 -1.3277 -0.7517  0.4442
  179SLPC   O2120418   1.195   1.428  10.103 -0.6260 -0.6279 -0.0664
  179SLPC   C2120419   1.231   1.536  10.024  0.1857  0.0784 -0.6902
  179SLPC   O2220420   1.292   1.632  10.068  0.6143 -0.0081 -0.2680
  179SLPC   C2220421   1.199   1.513   9.885 -0.0764 -0.2636 -1.1872
  179SLPC   H2R20422   1.103   1.458   9.875  0.2829 -1.4915  1.3056
  179SLPC   H2S20423   1.181   1.602   9.820  1.1876 -1.0618 -2.7014
  179SLPC    C320424   1.416   1.375  10.192  0.5147 -0.5955  0.5703
  179SLPC    HX20425   1.476   1.362  10.285  0.1418 -1.8878  0.6332
  179SLPC    HY20426   1.462   1.458  10.133 -0.3997 -1.4910 -1.5061
  179SLPC   O3120427   1.416   1.249  10.116  0.0623 -0.1762  0.1769
  179SLPC   C3120428   1.480   1.146  10.155 -0.7954 -0.1589 -0.1891
  179SLPC   O3220429   1.525   1.133  10.264  0.2075  0.2283 -0.7997
  179SLPC   C3220430   1.470   1.041  10.047 -0.6412  1.2491  0.5328
  179SLPC   H2X20431   1.517   0.948  10.083  1.1684  1.7547 -0.4091
  179SLPC   H2Y20432   1.536   1.065   9.961  1.1943  1.2296  1.8784
  179SLPC   C2320433   1.319   1.452   9.815 -0.3210  0.8070  0.3667
  179SLPC   H3R20434   1.339   1.346   9.842 -1.1399 -0.5160 -3.5972
  179SLPC   H3S20435   1.407   1.514   9.842  0.4100  0.1055 -0.3451
  179SLPC   C2420436   1.304   1.435   9.668  0.1250  0.1868 -0.1352
  179SLPC   H4R20437   1.292   1.531   9.611  0.5785 -0.8496 -2.0818
  179SLPC   H4S20438   1.213   1.379   9.640 -0.2446 -0.4304  2.1452
  179SLPC   C2520439   1.421   1.364   9.599  0.6376  0.2743 -0.0307
  179SLPC   H5R20440   1.446   1.265   9.643  2.0643  0.7921  0.3839
  179SLPC   H5S20441   1.507   1.431   9.623 -0.2914  0.1828  4.1604
  179SLPC   C2620442   1.406   1.345   9.443 -0.7095  0.0178 -0.2286
  179SLPC   H6R20443   1.314   1.288   9.421 -1.2730  1.1806 -0.9836
  179SLPC   H6S20444   1.496   1.295   9.400 -0.1795  1.1096 -0.4141
  179SLPC   C2720445   1.390   1.481   9.383  0.1047  0.1704 -0.2667
  179SLPC   H7R20446   1.461   1.552   9.430  3.0888 -0.9656 -2.6985
  179SLPC   H7S20447   1.286   1.519   9.395  0.4955  1.7761 -1.5644
  179SLPC   C2820448   1.415   1.491   9.231 -0.3863 -0.6448  0.0102
  179SLPC   H8R20449   1.335   1.437   9.176 -1.3457  0.9265 -0.2151
  179SLPC   H8S20450   1.517   1.464   9.199 -0.3659  1.2079 -1.6502
  179SLPC   C2920451   1.388   1.628   9.190 -0.2458 -0.6500 -0.0691
  179SLPC   H9R20452   1.332   1.693   9.259 -0.4666 -0.8122 -0.0954
  179SLPC  C21020453   1.426   1.686   9.076  0.0650 -1.0223  0.0250
  179SLPC  H10R20454   1.386   1.787   9.061 -0.6140 -1.2452  0.3041
  179SLPC  C21120455   1.501   1.625   8.958 -0.2224  0.1458  0.2904
  179SLPC  H11R20456   1.448   1.654   8.865 -1.3689 -1.7962  0.2700
  179SLPC  H11S20457   1.495   1.514   8.956  2.1210 -0.0505  1.0023
  179SLPC  C21220458   1.650   1.653   8.956  0.1611 -0.1317  0.6067
  179SLPC  H12R20459   1.705   1.650   9.051  1.3071  2.0736  0.1042
  179SLPC  C21320460   1.710   1.685   8.842 -0.2505  0.0958  0.2104
  179SLPC  H13R20461   1.820   1.682   8.847 -0.2070  2.3041  2.4932
  179SLPC  C21420462   1.656   1.704   8.698  0.6796 -0.1773  0.7822
  179SLPC  H14R20463   1.572   1.640   8.666  2.0507 -1.2044 -0.9596
  179SLPC  H14S20464   1.738   1.676   8.629  1.3279 -0.2274  1.5499
  179SLPC  C21520465   1.615   1.848   8.662  0.3906  0.3291 -0.1184
  179SLPC  H15R20466   1.564   1.901   8.745 -1.4388  0.2996 -1.1585
  179SLPC  H15S20467   1.536   1.835   8.584  1.1861  0.7171 -0.9978
  179SLPC  C21620468   1.720   1.922   8.579  0.4830  0.1003 -0.2694
  179SLPC  H16R20469   1.655   2.008   8.552 -1.9366 -1.6470 -0.3523
  179SLPC  H16S20470   1.748   1.877   8.481  0.3663 -2.5147  0.8287
  179SLPC  C21720471   1.835   1.974   8.664  0.1078  0.0336  0.2971
  179SLPC  H17R20472   1.877   1.888   8.719  2.2983 -0.0684 -1.3786
  179SLPC  H17S20473   1.792   2.043   8.740 -0.3909  1.2304 -1.0257
  179SLPC  C21820474   1.952   2.030   8.583  0.5739 -0.6857 -0.5272
  179SLPC  H18R20475   1.908   2.107   8.516 -0.0998  0.9446  1.6819
  179SLPC  H18S20476   1.995   1.949   8.521 -1.2678 -0.6454 -1.9436
  179SLPC  H18T20477   2.024   2.082   8.649  0.3786 -1.5432  0.3903
  179SLPC   C3320478   1.314   1.013  10.018 -0.4406 -0.0521 -0.0518
  179SLPC   H3X20479   1.268   1.109   9.987  0.2127 -1.0326 -4.6379
  179SLPC   H3Y20480   1.265   0.978  10.112  0.8058  0.7408  0.9282
  179SLPC   C3420481   1.286   0.918   9.896 -0.9222 -0.4836 -0.1696
  179SLPC   H4X20482   1.182   0.881   9.895 -1.6178  1.3673  0.0710
  179SLPC   H4Y20483   1.340   0.822   9.910 -0.9313 -0.2921  1.3413
  179SLPC   C3520484   1.313   0.987   9.768  0.0445 -0.3417  0.1561
  179SLPC   H5X20485   1.418   1.014   9.743 -0.9085  4.1722  0.2163
  179SLPC   H5Y20486   1.260   1.084   9.751 -1.0039 -0.8298  0.5621
  179SLPC   C3620487   1.268   0.895   9.652  0.1465  0.2212  0.7350
  179SLPC   H6X20488   1.157   0.885   9.658 -0.0261 -1.0174 -2.4918
  179SLPC   H6Y20489   1.318   0.797   9.664  0.0724  0.4784  4.0192
  179SLPC   C3720490   1.310   0.945   9.510  0.1540 -0.3998  0.0888
  179SLPC   H7X20491   1.413   0.986   9.509 -0.0085  0.1496 -2.3443
  179SLPC   H7Y20492   1.239   1.028   9.488  1.5586  0.8786  0.2558
  179SLPC   C3820493   1.292   0.846   9.399 -0.2242 -0.9424 -0.1150
  179SLPC   H8X20494   1.374   0.770   9.396  0.8728  0.1131  1.6406
  179SLPC   H8Y20495   1.307   0.892   9.299  1.7029 -0.7885  0.1901
  179SLPC   C3920496   1.160   0.763   9.391 -1.0154 -0.3288 -0.3871
  179SLPC   H9X20497   1.085   0.840   9.363 -0.4035 -0.0608 -1.2928
  179SLPC   H9Y20498   1.128   0.709   9.484 -1.2483  2.2045  1.0904
  179SLPC  C31020499   1.154   0.650   9.287 -0.2933  0.3505  0.1284
  179SLPC  H10X20500   1.065   0.584   9.288  1.6398 -2.4203 -0.4464
  179SLPC  H10Y20501   1.238   0.582   9.313  1.0835  2.1975  0.7490
  179SLPC  C31120502   1.182   0.690   9.145  0.4253 -0.1969 -1.1130
  179SLPC  H11X20503   1.219   0.597   9.099  0.5658 -0.2712 -0.8509
  179SLPC  H11Y20504   1.268   0.761   9.139  0.5504 -0.4404 -2.5161
  179SLPC  C31220505   1.062   0.748   9.065  0.1656  0.6302 -0.1288
  179SLPC  H12X20506   1.097   0.794   8.970 -0.3211  1.2827 -0.0034
  179SLPC  H12Y20507   1.016   0.834   9.118  0.5089  1.7505 -1.5653
  179SLPC  C31320508   0.964   0.639   9.036 -0.3829  1.5277  0.4911
  179SLPC  H13X20509   0.909   0.606   9.127  1.3875 -0.0622  1.0780
  179SLPC  H13Y20510   1.018   0.546   9.006  1.3522  2.5254  0.3824
  179SLPC  C31420511   0.885   0.686   8.909 -0.0814  0.1728 -0.9275
  179SLPC  H14X20512   0.946   0.674   8.817  2.3402 -0.9701  0.7191
  179SLPC  H14Y20513   0.861   0.793   8.923 -1.7103 -0.3938  1.2509
  179SLPC  C31520514   0.756   0.609   8.907 -0.1529  0.2464 -0.4306
  179SLPC  H15X20515   0.694   0.640   8.820  1.5631  0.7318 -1.5303
  179SLPC  H15Y20516   0.704   0.633   9.002  1.3825 -1.4674  0.9035
  179SLPC  C31620517   0.753   0.454   8.892  0.0663 -0.8001  0.2188
  179SLPC  H16X20518   0.808   0.404   8.975  1.7594 -2.8496 -2.0031
  179SLPC  H16Y20519   0.799   0.428   8.794 -0.4987 -0.6266 -0.0940
  179SLPC  C31720520   0.615   0.389   8.888  1.0281  0.2540 -0.4067
  179SLPC  H17X20521   0.608   0.292   8.834  1.6071 -0.0831  0.0984
  179SLPC  H17Y20522   0.546   0.460   8.838 -1.0122 -0.2752  1.5037
  179SLPC  C31820523   0.551   0.378   9.029  0.0869  0.1299 -0.1672
  179SLPC  H18X20524   0.613   0.303   9.082  0.1048  0.8329  0.8282
  179SLPC  H18Y20525   0.447   0.340   9.022  0.5470 -1.4697  1.0445
  179SLPC  H18Z20526   0.551   0.475   9.083  0.6919  0.3017 -0.4604
  180SLPC     N20527   2.041   5.530  11.041 -0.5343 -0.1332 -0.1165
  180SLPC   C1320528   1.924   5.442  11.050  0.0167  0.1824  0.2640
  180SLPC  H13A20529   1.877   5.430  10.953 -1.2729 -1.6316  1.0530
  180SLPC  H13B20530   1.945   5.342  11.085  1.4404  1.2884  2.8477
  180SLPC  H13C20531   1.859   5.485  11.126  0.1315 -0.1711  0.5641
  180SLPC   C1420532   2.131   5.465  10.946  0.1901  0.0446 -0.1608
  180SLPC  H14A20533   2.228   5.514  10.940  0.3472 -0.4493 -2.3572
  180SLPC  H14B20534   2.149   5.361  10.970 -0.8869 -0.1772 -0.2895
  180SLPC  H14C20535   2.085   5.475  10.849 -0.0505  0.5470  0.0042
  180SLPC   C1520536   2.112   5.537  11.175  0.5148 -0.4833  0.0291
  180SLPC  H15A20537   2.186   5.613  11.191  0.6018 -0.7366  0.8818
  180SLPC  H15B20538   2.046   5.558  11.258 -0.5364  1.0503 -1.1416
  180SLPC  H15C20539   2.155   5.442  11.202 -1.6897 -1.1790  1.3979
  180SLPC   C1220540   2.008   5.672  11.000 -0.3642  0.5924 -0.6092
  180SLPC  H12A20541   1.940   5.704  11.077  1.2412  1.2212  0.5817
  180SLPC  H12B20542   1.936   5.670  10.919  0.2070  0.8719 -1.1291
  180SLPC   C1120543   2.119   5.760  10.960  0.3435 -0.5564  0.4494
  180SLPC  H11A20544   2.157   5.732  10.860  0.5081  2.1620 -0.3369
  180SLPC  H11B20545   2.210   5.734  11.018  2.4853 -2.0616 -3.2387
  180SLPC     P20546   2.154   6.004  10.919  0.4868  0.0797 -0.1490
  180SLPC   O1320547   2.100   6.136  10.965 -0.2201  0.1754 -0.5173
  180SLPC   O1420548   2.301   5.979  10.935  0.2844 -0.1005 -0.0889
  180SLPC   O1220549   2.067   5.891  10.982 -0.0675 -0.0920  1.1848
  180SLPC   O1120550   2.116   5.982  10.768  0.2867  0.1292  0.0970
  180SLPC    C120551   1.984   5.968  10.728 -0.2100 -0.1127  0.6365
  180SLPC    HA20552   1.958   5.860  10.729 -3.1927  0.4526 -1.7312
  180SLPC    HB20553   1.915   6.031  10.788 -1.9732  1.1031 -2.4311
  180SLPC    C220554   1.964   6.023  10.579  0.3554  0.3748  0.5633
  180SLPC    HS20555   1.866   5.985  10.544 -0.8780  4.0134 -0.4060
  180SLPC   O2120556   2.070   5.975  10.491 -0.2165  0.0468  0.1315
  180SLPC   C2120557   2.054   5.974  10.365 -0.8161 -0.1380  0.6257
  180SLPC   O2220558   1.950   5.990  10.305  0.6837  0.6964  0.3935
  180SLPC   C2220559   2.186   5.932  10.292  0.2131  0.6538  0.1905
  180SLPC   H2R20560   2.278   5.976  10.335  0.6597 -0.8154  0.7769
  180SLPC   H2S20561   2.199   5.824  10.312 -0.6260  0.4970 -0.0851
  180SLPC    C320562   1.955   6.185  10.579 -0.3869 -0.0708 -0.0059
  180SLPC    HX20563   2.044   6.236  10.624  0.1462 -0.2234 -0.8709
  180SLPC    HY20564   1.874   6.201  10.654  0.6566 -0.0348  1.1463
  180SLPC   O3120565   1.921   6.241  10.449  0.0946  0.1417  0.4173
  180SLPC   C3120566   1.791   6.231  10.415  0.0690 -0.4636 -0.1919
  180SLPC   O3220567   1.702   6.178  10.479 -0.0626 -0.4110  0.0005
  180SLPC   C3220568   1.760   6.290  10.277 -0.0804 -0.5964  0.2384
  180SLPC   H2X20569   1.796   6.215  10.204  1.0947  0.3291 -0.1678
  180SLPC   H2Y20570   1.823   6.380  10.265  0.8302 -1.1482  0.8043
  180SLPC   C2320571   2.168   5.950  10.143 -0.7298 -0.2189  1.0113
  180SLPC   H3R20572   2.140   6.056  10.122 -1.9939 -0.9815 -1.6249
  180SLPC   H3S20573   2.095   5.885  10.089  0.4091 -0.2060 -0.6110
  180SLPC   C2420574   2.306   5.908  10.085  0.1132  0.0746  0.4180
  180SLPC   H4R20575   2.327   5.802  10.109 -0.5911 -0.2847 -0.5093
  180SLPC   H4S20576   2.382   5.971  10.135 -0.5783 -0.6923  2.5669
  180SLPC   C2520577   2.312   5.912   9.929 -0.2295  0.2377  0.6882
  180SLPC   H5R20578   2.240   5.841   9.884  1.2280  0.6171 -2.4829
  180SLPC   H5S20579   2.411   5.871   9.900 -0.2226  1.0562 -0.5445
  180SLPC   C2620580   2.298   6.056   9.872 -0.2194  0.3749 -0.1205
  180SLPC   H6R20581   2.361   6.134   9.920 -1.1797  0.6764  0.6685
  180SLPC   H6S20582   2.195   6.090   9.897  1.0429  4.4665  0.1234
  180SLPC   C2720583   2.339   6.064   9.725 -0.0040  0.1985  0.9102
  180SLPC   H7R20584   2.265   6.003   9.668  0.4902 -0.7948  1.2996
  180SLPC   H7S20585   2.441   6.024   9.708 -0.6263 -0.9790 -0.1709
  180SLPC   C2820586   2.328   6.205   9.671  0.3167  0.4250 -0.5780
  180SLPC   H8R20587   2.407   6.254   9.731  1.2616  0.4203 -1.7812
  180SLPC   H8S20588   2.233   6.254   9.701  0.9771  0.1882  2.1150
  180SLPC   C2920589   2.361   6.224   9.521 -0.9903  0.4704 -0.7482
  180SLPC   H9R20590   2.397   6.140   9.459  0.5138  0.1003  0.5358
  180SLPC  C21020591   2.349   6.339   9.453  0.9840  0.2243  0.1375
  180SLPC  H10R20592   2.383   6.332   9.348  1.0300  2.6207 -0.0522
  180SLPC  C21120593   2.295   6.469   9.498 -0.0371 -0.7698  0.2073
  180SLPC  H11R20594   2.257   6.466   9.602  1.4261  0.5717  0.8227
  180SLPC  H11S20595   2.202   6.489   9.440 -0.9811 -2.6913  0.9502
  180SLPC  C21220596   2.399   6.579   9.481 -0.1943  0.2935 -0.2661
  180SLPC  H12R20597   2.475   6.576   9.560  0.7828 -1.9328 -1.1975
  180SLPC  C21320598   2.406   6.661   9.379  0.3231  0.4857 -0.1953
  180SLPC  H13R20599   2.503   6.711   9.369  0.1004  0.4725 -3.3084
  180SLPC  C21420600   2.319   6.669   9.259  0.7419  0.8791 -0.5258
  180SLPC  H14R20601   2.300   6.773   9.224 -0.8009 -0.0563 -2.6747
  180SLPC  H14S20602   2.218   6.626   9.281  0.3743  0.1629 -3.2084
  180SLPC  C21520603   2.376   6.577   9.149  0.3359 -0.0023 -0.3212
  180SLPC  H15R20604   2.389   6.473   9.185  1.1920 -0.2281 -1.2322
  180SLPC  H15S20605   2.475   6.616   9.117  1.2235  0.0020  2.1997
  180SLPC  C21620606   2.276   6.567   9.023 -0.2798  0.0118 -0.1749
  180SLPC  H16R20607   2.174   6.532   9.049 -0.1763  0.3837  0.7503
  180SLPC  H16S20608   2.315   6.504   8.940 -2.6120 -0.5601 -0.9149
  180SLPC  C21720609   2.257   6.706   8.956  1.0408 -0.4328  0.4614
  180SLPC  H17R20610   2.354   6.732   8.909 -0.2419  1.7058 -1.2470
  180SLPC  H17S20611   2.234   6.775   9.040  1.2079  0.2198 -0.0151
  180SLPC  C21820612   2.147   6.717   8.843  0.0200  0.2190  0.0941
  180SLPC  H18R20613   2.147   6.822   8.805 -0.2086  1.2097  2.6459
  180SLPC  H18S20614   2.049   6.689   8.887 -0.1251 -0.3240 -0.5569
  180SLPC  H18T20615   2.188   6.654   8.761  0.1616  0.2736  0.1230
  180SLPC   C3320616   1.607   6.326  10.275 -0.0210 -0.1141  0.3432
  180SLPC   H3X20617   1.600   6.404  10.353 -0.5981  1.5018 -1.2558
  180SLPC   H3Y20618   1.545   6.236  10.298  0.5623 -0.4277  0.7104
  180SLPC   C3420619   1.564   6.387  10.145 -0.5144  0.1325  0.2847
  180SLPC   H4X20620   1.632   6.467  10.109 -1.9000  0.5984 -1.4972
  180SLPC   H4Y20621   1.468   6.439  10.167 -1.5054 -0.6116 -1.9838
  180SLPC   C3520622   1.548   6.284  10.038 -0.1309  0.0860 -0.1043
  180SLPC   H5X20623   1.490   6.194  10.068  2.8648 -0.9709  3.2871
  180SLPC   H5Y20624   1.649   6.246  10.016 -0.1802 -0.3599  0.4335
  180SLPC   C3620625   1.511   6.342   9.905 -0.1120 -0.6629 -0.3274
  180SLPC   H6X20626   1.578   6.424   9.871 -0.6432 -0.5051 -1.0230
  180SLPC   H6Y20627   1.414   6.395   9.919 -0.1691 -0.9235  0.2999
  180SLPC   C3720628   1.476   6.238   9.800 -0.5707 -0.3256  0.1238
  180SLPC   H7X20629   1.395   6.173   9.839  0.2018 -0.9168  0.8070
  180SLPC   H7Y20630   1.565   6.174   9.779  0.3428  0.7015  0.6992
  180SLPC   C3820631   1.427   6.309   9.669 -0.0144  0.9736  0.4347
  180SLPC   H8X20632   1.511   6.371   9.632 -0.7957  2.2951  0.8091
  180SLPC   H8Y20633   1.341   6.378   9.684 -1.1741  0.3109 -2.5559
  180SLPC   C3920634   1.396   6.203   9.556  0.6761 -0.3405 -0.6650
  180SLPC   H9X20635   1.337   6.118   9.597 -1.8836  1.2610 -0.8880
  180SLPC   H9Y20636   1.499   6.161   9.544  0.0469 -3.1211  2.2800
  180SLPC  C31020637   1.343   6.260   9.419 -0.7041 -0.1527  0.2255
  180SLPC  H10X20638   1.405   6.351   9.402  1.7106 -2.0606 -2.1068
  180SLPC  H10Y20639   1.236   6.285   9.427 -0.6526  0.1176  0.0667
  180SLPC  C31120640   1.355   6.175   9.297  0.3071 -0.1206  0.0747
  180SLPC  H11X20641   1.291   6.209   9.213 -0.8948 -1.2042  0.5164
  180SLPC  H11Y20642   1.328   6.073   9.331 -1.7467  0.3926  0.1070
  180SLPC  C31220643   1.497   6.171   9.240 -0.6655 -0.0379 -0.4831
  180SLPC  H12X20644   1.550   6.087   9.292 -0.8968 -0.2747 -0.6279
  180SLPC  H12Y20645   1.550   6.263   9.274 -2.6655  0.6032  1.1230
  180SLPC  C31320646   1.499   6.156   9.088  1.0458 -0.2797  0.4627
  180SLPC  H13X20647   1.603   6.167   9.053  1.6257 -1.6784  1.6352
  180SLPC  H13Y20648   1.443   6.241   9.045  1.0695  1.0089  2.8245
  180SLPC  C31420649   1.426   6.029   9.035 -0.0897  0.2509  0.2930
  180SLPC  H14X20650   1.322   6.024   9.075 -0.4592  1.0420 -0.5482
  180SLPC  H14Y20651   1.493   5.949   9.072 -0.4622 -0.8522 -1.3029
  180SLPC  C31520652   1.423   6.019   8.880 -0.4946  0.4451 -0.9454
  180SLPC  H15X20653   1.375   6.113   8.847  0.7978  1.0283 -1.2261
  180SLPC  H15Y20654   1.368   5.925   8.857  0.0813 -0.2872  0.5577
  180SLPC  C31620655   1.561   6.001   8.814 -0.1841 -0.9396 -1.1380
  180SLPC  H16X20656   1.614   5.915   8.861  0.0299  1.0344  2.6054
  180SLPC  H16Y20657   1.610   6.093   8.850  1.6476 -3.0705  2.3071
  180SLPC  C31720658   1.553   5.991   8.665  0.1168  0.8630 -0.0378
  180SLPC  H17X20659   1.649   6.027   8.622  0.6466  1.2837  1.4241
  180SLPC  H17Y20660   1.469   6.048   8.621 -0.4996 -1.1630 -1.6459
  180SLPC  C31820661   1.539   5.848   8.612  0.2758  0.8320 -0.4026
  180SLPC  H18X20662   1.506   5.859   8.506  0.1221 -0.9854 -0.5744
  180SLPC  H18Y20663   1.452   5.802   8.664  1.0868  0.1255  0.3572
  180SLPC  H18Z20664   1.621   5.774   8.608  0.3708  0.9843 -2.1828
  181SLPC     N20665   5.687   1.273  11.002 -0.1068 -0.3484 -0.6908
  181SLPC   C1320666   5.754   1.190  11.109 -0.4964 -0.1866 -0.2816
  181SLPC  H13A20667   5.730   1.085  11.103 -0.3799 -0.2125 -0.2943
  181SLPC  H13B20668   5.860   1.208  11.113 -0.6821  0.7945  0.6450
  181SLPC  H13C20669   5.711   1.218  11.204 -2.2381 -0.5549 -0.9127
  181SLPC   C1420670   5.535   1.265  11.019  0.4264 -0.6685  0.0550
  181SLPC  H14A20671   5.510   1.164  10.991 -0.5810 -0.7018  1.0262
  181SLPC  H14B20672   5.520   1.286  11.123 -0.2299 -0.5536 -0.0628
  181SLPC  H14C20673   5.479   1.337  10.961  0.9338  1.6370  2.2454
  181SLPC   C1520674   5.724   1.222  10.869 -0.3912  0.4114  0.2303
  181SLPC  H15A20675   5.665   1.270  10.792  1.3458 -0.5716 -1.8022
  181SLPC  H15B20676   5.827   1.243  10.842  0.6466 -2.2337  1.7559
  181SLPC  H15C20677   5.706   1.116  10.865 -3.9737  0.9434 -0.4461
  181SLPC   C1220678   5.717   1.423  11.013 -0.4320 -0.1680 -0.7367
  181SLPC  H12A20679   5.675   1.481  10.932  1.1290  1.7658 -0.2484
  181SLPC  H12B20680   5.821   1.450  11.008 -1.3219  4.5036  0.8320
  181SLPC   C1120681   5.679   1.496  11.148  0.6529 -0.2044 -0.1320
  181SLPC  H11A20682   5.730   1.450  11.236  1.6865  0.4803 -0.3485
  181SLPC  H11B20683   5.570   1.487  11.162  0.6058 -1.0066 -0.9926
  181SLPC     P20684   5.862   1.681  11.121 -0.3619 -0.1137  0.0047
  181SLPC   O1320685   5.902   1.771  11.233 -0.2897 -0.1224 -0.2019
  181SLPC   O1420686   5.945   1.563  11.106 -0.2715 -0.5802 -0.3960
  181SLPC   O1220687   5.707   1.636  11.134  0.5926 -0.4975 -0.3290
  181SLPC   O1120688   5.854   1.748  10.977 -0.2167  0.3319 -0.6619
  181SLPC    C120689   5.778   1.867  10.960  0.6883 -0.6657  0.5149
  181SLPC    HA20690   5.738   1.912  11.054  2.2190  1.9986  0.0021
  181SLPC    HB20691   5.848   1.946  10.925  0.6651 -1.4767 -1.4499
  181SLPC    C220692   5.655   1.850  10.847  0.0220 -0.3564  0.3377
  181SLPC    HS20693   5.615   1.746  10.855  0.0784 -0.2857  1.8134
  181SLPC   O2120694   5.709   1.876  10.714  0.4915  0.1364 -0.3009
  181SLPC   C2120695   5.630   1.825  10.623  0.4524  0.0492  0.6315
  181SLPC   O2220696   5.550   1.734  10.634  0.5723 -0.1565  0.4907
  181SLPC   C2220697   5.650   1.901  10.494  0.8901  0.1190  0.3247
  181SLPC   H2R20698   5.642   2.010  10.514  0.9527 -0.2440  2.6002
  181SLPC   H2S20699   5.750   1.866  10.461 -0.2483 -3.2855  0.0815
  181SLPC    C320700   5.535   1.945  10.880 -0.0125 -0.3726  0.2163
  181SLPC    HX20701   5.556   2.048  10.845 -3.2543  0.6005  0.7687
  181SLPC    HY20702   5.528   1.950  10.991 -1.4723 -2.1712  0.2558
  181SLPC   O3120703   5.414   1.903  10.810  0.3825 -0.9451 -0.0711
  181SLPC   C3120704   5.325   1.833  10.882  0.1750 -0.0825  0.1218
  181SLPC   O3220705   5.334   1.807  11.002  0.3696 -0.2534  0.1444
  181SLPC   C3220706   5.217   1.777  10.782 -0.2715  0.1189 -0.2433
  181SLPC   H2X20707   5.168   1.693  10.834  0.3152  0.4891  0.9460
  181SLPC   H2Y20708   5.267   1.735  10.692 -1.1046 -1.4629  0.0019
  181SLPC   C2320709   5.534   1.857  10.399 -0.4077  0.6508  0.2209
  181SLPC   H3R20710   5.439   1.893  10.444  0.6593  2.0693  1.4381
  181SLPC   H3S20711   5.540   1.747  10.386  1.7606  0.9065 -1.5608
  181SLPC   C2420712   5.555   1.919  10.259 -0.3880  0.0498 -0.2072
  181SLPC   H4R20713   5.648   1.885  10.209 -0.5204  1.0176 -1.1449
  181SLPC   H4S20714   5.570   2.028  10.276  2.6337  0.1684 -2.6837
  181SLPC   C2520715   5.445   1.879  10.162 -0.1626 -0.1985  0.2976
  181SLPC   H5R20716   5.346   1.898  10.208 -0.6849  1.8404 -1.5410
  181SLPC   H5S20717   5.435   1.770  10.139 -3.9974  0.2873 -0.9824
  181SLPC   C2620718   5.471   1.949  10.024  0.5640  0.6105  0.5096
  181SLPC   H6R20719   5.575   1.932   9.987  0.3744 -2.0643  0.9911
  181SLPC   H6S20720   5.464   2.057  10.045 -3.6346  0.4669  0.7080
  181SLPC   C2720721   5.365   1.912   9.919  0.3085  0.1984  0.4168
  181SLPC   H7R20722   5.267   1.917   9.971 -0.3024  1.8873 -0.8232
  181SLPC   H7S20723   5.375   1.808   9.881  3.6819  0.5574  0.0500
  181SLPC   C2820724   5.347   2.008   9.797  1.1082  0.3081  0.2191
  181SLPC   H8R20725   5.431   2.025   9.726 -0.9869 -0.4531 -2.6083
  181SLPC   H8S20726   5.353   2.107   9.848 -0.3032  1.4056 -1.6231
  181SLPC   C2920727   5.214   1.998   9.732  0.6012  0.1930  0.0136
  181SLPC   H9R20728   5.134   1.970   9.802 -0.0603  1.4143 -0.2350
  181SLPC  C21020729   5.181   2.019   9.603 -0.1475 -0.1327  0.0492
  181SLPC  H10R20730   5.072   2.019   9.585 -0.2866 -3.4168  0.3114
  181SLPC  C21120731   5.276   2.069   9.497 -0.1808  0.2866 -1.0237
  181SLPC  H11R20732   5.351   2.132   9.547  0.0728 -0.5205 -0.3775
  181SLPC  H11S20733   5.222   2.144   9.435  1.0501  1.1397 -1.0784
  181SLPC  C21220734   5.375   1.978   9.420 -0.5438 -0.0403 -0.0120
  181SLPC  H12R20735   5.416   1.885   9.462 -0.5993  0.6551  1.6453
  181SLPC  C21320736   5.429   2.011   9.298  0.5609 -0.1968  0.0168
  181SLPC  H13R20737   5.501   1.944   9.250 -0.3365 -1.8327  0.8553
  181SLPC  C21420738   5.401   2.134   9.215 -0.0240 -0.0091  0.3654
  181SLPC  H14R20739   5.375   2.216   9.286  0.6375  0.8608 -0.3715
  181SLPC  H14S20740   5.309   2.124   9.152  0.3615  1.7090 -0.5575
  181SLPC  C21520741   5.508   2.184   9.115 -0.6357  0.5745 -0.0803
  181SLPC  H15R20742   5.602   2.194   9.174  0.6826 -0.3818 -1.9280
  181SLPC  H15S20743   5.481   2.285   9.076 -1.2055  1.0072  1.3707
  181SLPC  C21620744   5.534   2.088   8.995  0.3094  0.0638  0.4169
  181SLPC  H16R20745   5.434   2.076   8.950  0.2543  0.0095  0.5536
  181SLPC  H16S20746   5.572   1.992   9.037  2.4456  1.5688  2.1983
  181SLPC  C21720747   5.628   2.134   8.886  0.5828 -0.1292 -0.5411
  181SLPC  H17R20748   5.713   2.187   8.934 -0.7388  1.6098 -0.0067
  181SLPC  H17S20749   5.569   2.212   8.833  0.0404 -0.6687 -0.7432
  181SLPC  C21820750   5.672   2.024   8.787  0.9874 -0.1882  0.1196
  181SLPC  H18R20751   5.753   2.070   8.727  0.1062  0.4713 -0.5839
  181SLPC  H18S20752   5.585   1.992   8.725  0.0089 -0.3406  1.5189
  181SLPC  H18T20753   5.700   1.931   8.840  0.7012  0.7939  2.0897
  181SLPC   C3320754   5.117   1.890  10.744 -0.1496 -0.4684  0.5185
  181SLPC   H3X20755   5.092   1.953  10.832  0.3347  1.0279 -0.3589
  181SLPC   H3Y20756   5.025   1.837  10.712 -2.0285  1.9708  1.5294
  181SLPC   C3420757   5.154   1.968  10.614  0.3517 -0.2258 -1.2152
  181SLPC   H4X20758   5.188   1.904  10.530  0.4612 -1.1807 -0.4555
  181SLPC   H4Y20759   5.245   2.023  10.648 -0.1870  0.4212 -0.7751
  181SLPC   C3520760   5.044   2.060  10.572  0.1168  0.4378  0.4280
  181SLPC   H5X20761   5.009   2.130  10.651  2.1890 -0.3064  2.1028
  181SLPC   H5Y20762   4.956   2.005  10.532  1.7523 -1.2518 -1.0420
  181SLPC   C3620763   5.104   2.152  10.456 -0.3857 -1.0846  0.0264
  181SLPC   H6X20764   5.209   2.179  10.479 -0.3415  0.0261 -1.3788
  181SLPC   H6Y20765   5.042   2.244  10.448  0.8892 -0.1680  0.3710
  181SLPC   C3720766   5.116   2.084  10.322 -0.5008  0.1349  0.3241
  181SLPC   H7X20767   5.021   2.048  10.278 -0.0716  0.3206 -0.7858
  181SLPC   H7Y20768   5.186   1.998  10.333 -0.2703  0.0357 -1.6118
  181SLPC   C3820769   5.174   2.170  10.209  0.1980 -0.0377  0.1900
  181SLPC   H8X20770   5.185   2.101  10.123 -2.7087 -1.1066  0.5465
  181SLPC   H8Y20771   5.277   2.195  10.241  0.2093 -1.1724  1.1203
  181SLPC   C3920772   5.099   2.299  10.178  0.0805  0.0286  0.6776
  181SLPC   H9X20773   5.090   2.367  10.265 -1.6489  2.8628 -1.5085
  181SLPC   H9Y20774   5.000   2.259  10.148 -0.1353  0.7007  0.4817
  181SLPC  C31020775   5.155   2.391  10.066  0.0405 -0.6896 -0.3457
  181SLPC  H10X20776   5.076   2.467  10.053  0.2171 -0.5896 -0.8457
  181SLPC  H10Y20777   5.157   2.330   9.973  0.1099 -0.2834 -0.6115
  181SLPC  C31120778   5.284   2.463  10.098 -0.1629 -0.6249  0.1304
  181SLPC  H11X20779   5.360   2.389  10.066 -0.0942 -0.5625  0.1507
  181SLPC  H11Y20780   5.305   2.496  10.202 -3.0070 -1.1530  0.9524
  181SLPC  C31220781   5.292   2.585  10.000 -0.4555  0.0224 -0.5074
  181SLPC  H12X20782   5.391   2.629  10.021  0.0529 -1.0711 -0.5449
  181SLPC  H12Y20783   5.217   2.660  10.032 -0.3737  0.1529 -0.6206
  181SLPC  C31320784   5.293   2.564   9.848  0.4697  0.0822  0.6468
  181SLPC  H13X20785   5.266   2.661   9.801  0.9877 -0.4173 -0.7417
  181SLPC  H13Y20786   5.210   2.500   9.812 -0.4166  1.2810  0.5221
  181SLPC  C31420787   5.426   2.504   9.794 -0.4351  0.7347  0.1316
  181SLPC  H14X20788   5.450   2.408   9.845  0.8987  0.4472 -0.9770
  181SLPC  H14Y20789   5.504   2.583   9.794 -1.7899  2.1181  1.0588
  181SLPC  C31520790   5.410   2.463   9.641 -0.1508 -0.6366  0.0359
  181SLPC  H15X20791   5.335   2.380   9.640 -2.1255  1.0731 -0.1178
  181SLPC  H15Y20792   5.509   2.418   9.616  1.3301  1.7059  1.2697
  181SLPC  C31620793   5.369   2.576   9.548  0.5407  0.2600  0.1601
  181SLPC  H16X20794   5.426   2.671   9.540  0.4713  0.3052  0.2043
  181SLPC  H16Y20795   5.264   2.593   9.578  0.4497 -0.4135  0.2313
  181SLPC  C31720796   5.366   2.522   9.402  0.0337 -0.4894  1.1665
  181SLPC  H17X20797   5.293   2.442   9.374  1.3844 -1.1365 -0.7247
  181SLPC  H17Y20798   5.467   2.476   9.401 -0.5231 -1.8248  2.1926
  181SLPC  C31820799   5.350   2.636   9.288  0.2707  0.1700 -0.2453
  181SLPC  H18X20800   5.250   2.683   9.293  0.6535  1.1890 -1.4754
  181SLPC  H18Y20801   5.371   2.595   9.187 -2.0936 -0.7492 -0.4293
  181SLPC  H18Z20802   5.432   2.706   9.316 -0.0230  1.2882 -2.0205
  182SLPC     N20803   3.792   3.431  11.238 -0.1117 -0.6070  0.5252
  182SLPC   C1320804   3.883   3.315  11.202 -0.1001 -0.6029  0.0443
  182SLPC  H13A20805   3.973   3.311  11.262  0.6740 -0.6661 -1.0982
  182SLPC  H13B20806   3.837   3.219  11.223 -0.3286 -0.0729  2.2095
  182SLPC  H13C20807   3.916   3.332  11.101  0.8325 -1.6898  0.1418
  182SLPC   C1420808   3.868   3.556  11.238 -0.7285  0.1475 -0.2396
  182SLPC  H14A20809   3.931   3.554  11.326 -0.8326 -0.7022 -0.1816
  182SLPC  H14B20810   3.928   3.565  11.149 -0.5835 -0.8826 -0.2521
  182SLPC  H14C20811   3.795   3.636  11.241  0.3720  1.1809 -0.2779
  182SLPC   C1520812   3.744   3.410  11.377  0.7632 -0.4327 -0.2004
  182SLPC  H15A20813   3.683   3.324  11.401 -1.1980  1.4593  2.1503
  182SLPC  H15B20814   3.830   3.405  11.442  1.5804 -0.4015 -1.2644
  182SLPC  H15C20815   3.688   3.498  11.407 -1.1586 -1.9764  1.0180
  182SLPC   C1220816   3.675   3.448  11.144 -0.0094 -0.4314  0.3004
  182SLPC  H12A20817   3.631   3.546  11.156 -0.2725 -0.5298  0.1465
  182SLPC  H12B20818   3.601   3.372  11.165  0.0844 -1.2003 -1.8207
  182SLPC   C1120819   3.711   3.435  10.996  0.0595 -0.4121 -0.1230
  182SLPC  H11A20820   3.616   3.409  10.944 -1.4676 -1.8639  3.1172
  182SLPC  H11B20821   3.776   3.346  10.982 -0.5142 -1.0597  1.1751
  182SLPC     P20822   3.704   3.685  10.912  0.0010 -0.1894  0.4163
  182SLPC   O1320823   3.605   3.722  11.014 -0.4219 -0.1528 -0.8762
  182SLPC   O1420824   3.808   3.785  10.876 -0.2462 -0.1669  0.1356
  182SLPC   O1220825   3.779   3.552  10.948 -0.4760 -0.6150  0.9060
  182SLPC   O1120826   3.626   3.647  10.784 -0.1731 -0.2960  0.1478
  182SLPC    C120827   3.694   3.596  10.669 -0.1843 -0.2741 -0.6650
  182SLPC    HA20828   3.757   3.671  10.618  0.0864  1.7335  2.3630
  182SLPC    HB20829   3.766   3.519  10.704 -1.5982 -1.1695  0.3833
  182SLPC    C220830   3.595   3.527  10.578  0.7832 -0.0544  0.2522
  182SLPC    HS20831   3.550   3.448  10.642  0.4770  0.5608  0.8091
  182SLPC   O2120832   3.667   3.479  10.468 -0.1233  0.5072  0.1049
  182SLPC   C2120833   3.621   3.383  10.393  0.2068 -0.6709 -0.0660
  182SLPC   O2220834   3.515   3.323  10.401 -0.5265 -0.1688  0.3840
  182SLPC   C2220835   3.742   3.356  10.298 -0.4156  0.1050  0.3667
  182SLPC   H2R20836   3.796   3.446  10.264  0.3979 -0.1946  0.8224
  182SLPC   H2S20837   3.822   3.312  10.362  0.3956  0.6059 -0.2930
  182SLPC    C320838   3.485   3.634  10.530  0.0885 -0.0935 -0.5248
  182SLPC    HX20839   3.428   3.656  10.623  0.4218 -2.9607  0.4236
  182SLPC    HY20840   3.410   3.592  10.460 -1.0277  1.7852 -0.5235
  182SLPC   O3120841   3.544   3.753  10.470  0.1468  0.2609 -0.2212
  182SLPC   C3120842   3.543   3.857  10.547 -0.4112  0.0688  0.0403
  182SLPC   O3220843   3.481   3.876  10.650 -0.3379  0.1653 -1.3089
  182SLPC   C3220844   3.659   3.947  10.496  0.1561  0.0848 -0.8769
  182SLPC   H2X20845   3.754   3.896  10.522 -0.7661 -2.0365 -1.4711
  182SLPC   H2Y20846   3.642   4.040  10.555 -0.8221 -0.4085 -0.3454
  182SLPC   C2320847   3.716   3.243  10.190 -0.6032 -0.6619 -0.1235
  182SLPC   H3R20848   3.630   3.178  10.214 -1.2216  0.5703  1.1473
  182SLPC   H3S20849   3.795   3.165  10.190 -0.8448 -0.9372  1.3521
  182SLPC   C2420850   3.702   3.315  10.051 -0.1343 -0.5986 -0.8077
  182SLPC   H4R20851   3.714   3.239   9.971 -1.6899  1.6776 -3.3888
  182SLPC   H4S20852   3.791   3.382  10.051 -0.8925  0.4426  0.0263
  182SLPC   C2520853   3.572   3.404  10.045 -0.2631 -0.4512 -0.1832
  182SLPC   H5R20854   3.586   3.494  10.109 -0.0304 -1.0432  0.6196
  182SLPC   H5S20855   3.485   3.345  10.082  0.5088 -0.3474  1.9453
  182SLPC   C2620856   3.538   3.468   9.905 -0.6340  0.8640 -0.5842
  182SLPC   H6R20857   3.453   3.539   9.906 -1.8998 -0.5792 -0.7028
  182SLPC   H6S20858   3.489   3.386   9.847  1.2340  0.2402 -1.3434
  182SLPC   C2720859   3.658   3.538   9.833  0.4445  0.3098 -0.1698
  182SLPC   H7R20860   3.637   3.554   9.725 -0.5511 -0.5598 -0.1244
  182SLPC   H7S20861   3.735   3.458   9.834  1.7137  1.4950  1.6768
  182SLPC   C2820862   3.711   3.668   9.899  0.1631  0.3243 -0.1895
  182SLPC   H8R20863   3.808   3.686   9.848  1.2363  0.6248  1.8493
  182SLPC   H8S20864   3.737   3.644  10.004  1.3269 -0.0491 -0.5418
  182SLPC   C2920865   3.612   3.778   9.887 -0.7246  0.4267  0.1159
  182SLPC   H9R20866   3.541   3.799   9.967 -1.1478 -0.4224 -0.0321
  182SLPC  C21020867   3.629   3.879   9.791  0.0114 -0.1649 -0.1018
  182SLPC  H10R20868   3.558   3.962   9.780 -0.5048 -0.6029 -0.1538
  182SLPC  C21120869   3.732   3.891   9.678  0.0301  0.1968 -0.0840
  182SLPC  H11R20870   3.667   3.881   9.588 -1.4505  1.0254  0.8574
  182SLPC  H11S20871   3.802   3.805   9.673  1.9265  1.4043  2.9348
  182SLPC  C21220872   3.813   4.019   9.682 -0.4539  0.2670 -0.0373
  182SLPC  H12R20873   3.870   4.038   9.774  0.9634 -0.4872 -0.7360
  182SLPC  C21320874   3.806   4.115   9.585  0.2231  0.0853  0.5234
  182SLPC  H13R20875   3.865   4.205   9.607  0.2240  0.8602 -2.2765
  182SLPC  C21420876   3.727   4.107   9.458 -0.2051 -0.5485  0.4947
  182SLPC  H14R20877   3.722   4.208   9.411  1.5413 -1.3804 -1.6384
  182SLPC  H14S20878   3.624   4.074   9.483  0.1648 -0.3730  2.3517
  182SLPC  C21520879   3.788   4.015   9.359 -0.3519  0.6421  0.6321
  182SLPC  H15R20880   3.819   3.924   9.414 -1.0775  0.5099  0.8428
  182SLPC  H15S20881   3.869   4.058   9.296 -0.4669  1.5177  1.0592
  182SLPC  C21620882   3.697   3.956   9.250  0.2065  0.4870 -0.3218
  182SLPC  H16R20883   3.614   4.022   9.217 -1.8778 -2.6094 -1.8270
  182SLPC  H16S20884   3.645   3.874   9.305  1.5050  0.7715  1.4199
  182SLPC  C21720885   3.771   3.891   9.125  0.3176 -0.0213 -0.2519
  182SLPC  H17R20886   3.856   3.953   9.091 -0.3220  0.1607 -1.5709
  182SLPC  H17S20887   3.705   3.896   9.036  2.5663 -1.5153 -2.1376
  182SLPC  C21820888   3.812   3.743   9.149  1.3022 -0.0268  0.4287
  182SLPC  H18R20889   3.881   3.746   9.236  0.1338  1.4281  1.3567
  182SLPC  H18S20890   3.864   3.706   9.058  1.2410  3.3630 -1.1055
  182SLPC  H18T20891   3.727   3.677   9.176  1.9543 -0.1669  2.2612
  182SLPC   C3320892   3.659   3.975  10.347  0.3602 -0.2966 -0.4850
  182SLPC   H3X20893   3.576   4.043  10.319  0.6073 -0.1084 -0.7619
  182SLPC   H3Y20894   3.649   3.873  10.305  0.2243  0.4499 -2.3355
  182SLPC   C3420895   3.794   4.029  10.299  0.7382  0.4027  0.2443
  182SLPC   H4X20896   3.878   3.958  10.317 -0.7172 -1.4396  0.0480
  182SLPC   H4Y20897   3.806   4.127  10.352 -1.5315  0.9308 -0.1302
  182SLPC   C3520898   3.777   4.073  10.147  0.5891 -0.4449  0.6435
  182SLPC   H5X20899   3.694   4.144  10.130 -0.7715 -2.1572 -0.1870
  182SLPC   H5Y20900   3.747   3.978  10.098 -1.4352  0.3846  0.1715
  182SLPC   C3620901   3.906   4.120  10.083 -0.1236  0.0546  0.1872
  182SLPC   H6X20902   3.903   4.088   9.977  1.3215  0.4435  0.0054
  182SLPC   H6Y20903   3.986   4.057  10.127 -1.1719 -2.3362 -1.1531
  182SLPC   C3720904   3.935   4.267  10.094  0.2164  0.3371 -0.1274
  182SLPC   H7X20905   3.964   4.299  10.196 -1.0924  0.8673  0.0912
  182SLPC   H7Y20906   3.842   4.327  10.084  0.7538  1.1465 -0.3741
  182SLPC   C3820907   4.036   4.327   9.995  0.1658 -0.0029  0.3880
  182SLPC   H8X20908   4.131   4.276  10.022  0.5457  1.1275  1.2364
  182SLPC   H8Y20909   4.049   4.430  10.034  0.0387 -0.1966  0.9551
  182SLPC   C3920910   4.015   4.310   9.847  0.9114 -0.0306 -0.5715
  182SLPC   H9X20911   3.930   4.378   9.821  0.5329 -1.3568 -3.0542
  182SLPC   H9Y20912   3.983   4.208   9.815  0.3906  0.1290 -0.5775
  182SLPC  C31020913   4.137   4.353   9.765  0.0459  0.9006 -0.0008
  182SLPC  H10X20914   4.216   4.277   9.782 -0.5099  0.5890  1.2667
  182SLPC  H10Y20915   4.174   4.448   9.808 -0.2583  1.1065 -0.1840
  182SLPC  C31120916   4.110   4.368   9.615 -0.5861  0.2631  0.1592
  182SLPC  H11X20917   4.058   4.278   9.574 -0.1631  0.7591 -1.5550
  182SLPC  H11Y20918   4.211   4.367   9.568 -0.5896 -0.1645  0.1540
  182SLPC  C31220919   4.023   4.489   9.581  0.5009  0.7604 -0.4476
  182SLPC  H12X20920   4.071   4.577   9.629 -1.0367  1.3700  0.0429
  182SLPC  H12Y20921   3.926   4.468   9.631  1.4490 -3.0483  0.1229
  182SLPC  C31320922   4.011   4.509   9.428 -0.2356 -0.1916  0.4540
  182SLPC  H13X20923   4.114   4.522   9.389  0.7311 -0.4814  2.7344
  182SLPC  H13Y20924   3.968   4.609   9.409  0.8134  0.1273 -0.3081
  182SLPC  C31420925   3.938   4.393   9.363 -0.2211 -0.7137  0.1971
  182SLPC  H14X20926   3.840   4.387   9.414 -0.5240  0.1993 -0.2695
  182SLPC  H14Y20927   3.994   4.300   9.387  2.4823  0.9868  0.9269
  182SLPC  C31520928   3.901   4.402   9.220  0.0621  0.2242  0.1447
  182SLPC  H15X20929   3.825   4.475   9.185  0.3365 -0.2157 -1.4538
  182SLPC  H15Y20930   3.862   4.307   9.177 -1.0899  0.3495  0.8773
  182SLPC  C31620931   4.020   4.445   9.136 -0.6505 -0.6365  0.0978
  182SLPC  H16X20932   4.051   4.549   9.158  1.9444 -1.4425  0.5075
  182SLPC  H16Y20933   4.001   4.434   9.027 -0.4719 -0.7989  0.0823
  182SLPC  C31720934   4.150   4.366   9.157  0.2815  0.1004  0.4509
  182SLPC  H17X20935   4.191   4.367   9.260  0.0903 -1.3043  0.5521
  182SLPC  H17Y20936   4.239   4.404   9.101  0.2326  1.8481  1.4781
  182SLPC  C31820937   4.136   4.215   9.121  0.8504 -0.3120  0.2029
  182SLPC  H18X20938   4.095   4.185   9.022  0.1438 -0.1406  0.4425
  182SLPC  H18Y20939   4.064   4.167   9.191  1.9174 -0.6069  1.1305
  182SLPC  H18Z20940   4.239   4.177   9.144  0.9208  0.3672  1.0621
  183SLPC     N20941   5.611   5.366  11.226 -0.1919  0.0595 -0.3913
  183SLPC   C1320942   5.630   5.225  11.273  0.2369  0.3938  0.0767
  183SLPC  H13A20943   5.731   5.205  11.306 -0.9300 -0.0585  3.7497
  183SLPC  H13B20944   5.561   5.205  11.353  1.1180 -0.8967  0.5553
  183SLPC  H13C20945   5.611   5.165  11.184 -0.9434 -0.2310  0.7292
  183SLPC   C1420946   5.705   5.454  11.315  0.1358 -0.2961  0.6130
  183SLPC  H14A20947   5.716   5.553  11.275 -0.4609 -0.6531 -0.4918
  183SLPC  H14B20948   5.659   5.456  11.413  0.2217  1.9835  0.6399
  183SLPC  H14C20949   5.804   5.412  11.317  0.5264  0.6050  0.4747
  183SLPC   C1520950   5.471   5.404  11.258  0.5504  0.0002  0.7128
  183SLPC  H15A20951   5.434   5.484  11.195  0.5826 -0.3642  0.2197
  183SLPC  H15B20952   5.405   5.319  11.252  0.5907 -0.0451  0.8973
  183SLPC  H15C20953   5.469   5.445  11.358  1.5043 -3.0689  2.1189
  183SLPC   C1220954   5.645   5.383  11.084 -0.5217  0.3445  0.6157
  183SLPC  H12A20955   5.753   5.385  11.083 -0.4734  0.2657  2.5154
  183SLPC  H12B20956   5.617   5.483  11.054 -0.7366  0.1037 -0.0084
  183SLPC   C1120957   5.581   5.289  10.985  0.3344 -0.1745  0.2286
  183SLPC  H11A20958   5.604   5.305  10.878 -0.7044 -1.9818 -0.3064
  183SLPC  H11B20959   5.472   5.288  11.010  0.0682  0.1619 -0.8571
  183SLPC     P20960   5.566   5.038  10.947  0.5215  0.7144  0.1320
  183SLPC   O1320961   5.655   4.926  10.972 -0.6689  0.5235  0.0900
  183SLPC   O1420962   5.427   5.027  10.997  0.2206 -1.1430 -0.3217
  183SLPC   O1220963   5.630   5.165  11.005  0.1417 -0.0419 -0.2342
  183SLPC   O1120964   5.564   5.072  10.790 -0.6004  0.2882  0.3745
  183SLPC    C120965   5.649   5.009  10.696  0.6365 -0.0847  0.4160
  183SLPC    HA20966   5.659   5.079  10.610 -0.1709  1.5576  1.6166
  183SLPC    HB20967   5.744   4.981  10.746  0.8923  1.1275  0.6335
  183SLPC    C220968   5.574   4.881  10.638 -0.6852  0.1187 -0.2129
  183SLPC    HS20969   5.588   4.800  10.713  1.1134 -0.0836 -0.7082
  183SLPC   O2120970   5.642   4.834  10.520 -0.0415  0.0389 -0.5359
  183SLPC   C2120971   5.771   4.787  10.542  0.6638  0.3220 -0.3983
  183SLPC   O2220972   5.818   4.762  10.651 -0.1479 -0.0810 -0.2944
  183SLPC   C2220973   5.841   4.758  10.416 -0.2611  0.4134  0.4291
  183SLPC   H2R20974   5.925   4.829  10.396 -1.0072  1.0405 -0.6203
  183SLPC   H2S20975   5.879   4.655  10.429  0.7020  0.9626  2.3887
  183SLPC    C320976   5.423   4.900  10.605  0.4772 -0.8793  0.4941
  183SLPC    HX20977   5.426   4.991  10.541 -0.2009  0.1505  1.8703
  183SLPC    HY20978   5.364   4.923  10.696 -0.4701  0.6919 -0.4553
  183SLPC   O3120979   5.362   4.794  10.533  0.6240 -0.2374 -0.1118
  183SLPC   C3120980   5.243   4.821  10.490  0.0586 -0.0045  0.4833
  183SLPC   O3220981   5.174   4.915  10.520  0.4083 -0.3562  0.3402
  183SLPC   C3220982   5.190   4.707  10.410  0.1395  0.4420  0.7889
  183SLPC   H2X20983   5.089   4.730  10.368 -0.1032  0.0229  1.1328
  183SLPC   H2Y20984   5.164   4.630  10.486 -0.6120  1.4858  1.6144
  183SLPC   C2320985   5.751   4.757  10.286 -0.5581  0.1375  0.3616
  183SLPC   H3R20986   5.715   4.861  10.269 -3.1753 -0.9643 -1.4395
  183SLPC   H3S20987   5.659   4.699  10.306  0.0188 -0.6164  0.9191
  183SLPC   C2420988   5.832   4.709  10.161  0.2565 -0.0317  0.1879
  183SLPC   H4R20989   5.766   4.723  10.073  1.7430  0.4041 -0.9011
  183SLPC   H4S20990   5.837   4.599  10.173  0.0827 -0.1560 -0.7609
  183SLPC   C2520991   5.971   4.762  10.134 -0.4326  0.2114  0.0174
  183SLPC   H5R20992   6.043   4.726  10.212 -1.0749  1.2325  1.1201
  183SLPC   H5S20993   5.972   4.873  10.139  2.5363  0.2761  0.1203
  183SLPC   C2620994   6.025   4.717   9.999 -0.7720 -0.1467  0.4394
  183SLPC   H6R20995   5.951   4.722   9.917  0.8642 -0.9059 -1.1445
  183SLPC   H6S20996   6.060   4.614  10.023 -0.3753 -0.3798 -1.0504
  183SLPC   C2720997   6.152   4.798   9.959 -0.3097 -0.9811 -1.1495
  183SLPC   H7R20998   6.204   4.751   9.874  0.9931 -0.6715 -0.5522
  183SLPC   H7S20999   6.219   4.793  10.048 -1.5893  1.3927  0.0468
  183SLPC   C2821000   6.119   4.940   9.904 -0.5848  0.8040  0.4405
  183SLPC   H8R21001   6.069   5.012   9.972 -3.4086  0.9910 -1.6210
  183SLPC   H8S21002   6.037   4.928   9.830 -1.7980  0.3640  1.8089
  183SLPC   C2921003   6.247   4.999   9.854  0.0575 -0.4108  0.3831
  183SLPC   H9R21004   6.324   5.017   9.931 -0.5081 -0.3676  0.9489
  183SLPC  C21021005   6.269   5.044   9.728 -0.2296 -0.4164 -0.4931
  183SLPC  H10R21006   6.355   5.105   9.696  0.0619  0.1666  1.3129
  183SLPC  C21121007   6.186   5.041   9.607  1.0335  0.1432  0.3422
  183SLPC  H11R21008   6.200   5.120   9.529 -0.7718 -1.8288 -2.1650
  183SLPC  H11S21009   6.079   5.055   9.633  1.1946 -1.6775  2.1924
  183SLPC  C21221010   6.179   4.903   9.539  0.0026 -0.7232  1.0295
  183SLPC  H12R21011   6.143   4.816   9.595 -2.5125 -0.2817  0.2528
  183SLPC  C21321012   6.218   4.885   9.413  0.4074 -0.1789 -0.3271
  183SLPC  H13R21013   6.188   4.788   9.371 -4.5311  0.8480  0.2493
  183SLPC  C21421014   6.280   4.985   9.311  0.4267 -0.5793  0.2278
  183SLPC  H14R21015   6.351   5.058   9.353  0.9243  1.0132 -3.0818
  183SLPC  H14S21016   6.196   5.045   9.269 -0.9528 -0.5175  2.8763
  183SLPC  C21521017   6.357   4.908   9.197  0.2766  0.1607  0.1337
  183SLPC  H15R21018   6.429   4.847   9.256 -1.2025 -0.8704  0.9389
  183SLPC  H15S21019   6.426   4.974   9.140  0.0893  0.9619  0.8103
  183SLPC  C21621020   6.255   4.836   9.107 -0.0268 -0.4987  0.5853
  183SLPC  H16R21021   6.153   4.875   9.126  0.0423  0.0740 -0.1693
  183SLPC  H16S21022   6.257   4.730   9.139 -0.9403 -0.2783  1.4295
  183SLPC  C21721023   6.285   4.857   8.960  0.5633 -0.4229  0.6712
  183SLPC  H17R21024   6.303   4.963   8.932 -1.1373  0.0217  1.0854
  183SLPC  H17S21025   6.200   4.821   8.898 -0.3398  0.1913  1.4993
  183SLPC  C21821026   6.404   4.783   8.911  0.0796 -0.1049  0.5409
  183SLPC  H18R21027   6.398   4.678   8.946 -2.0768 -0.5495 -0.9871
  183SLPC  H18S21028   6.496   4.814   8.965  0.3961 -2.3653  1.3800
  183SLPC  H18T21029   6.420   4.784   8.801  0.4676  0.3533  0.5961
  183SLPC   C3321030   5.281   4.662  10.297 -1.1108  0.4525 -0.1882
  183SLPC   H3X21031   5.276   4.552  10.282  0.4835  0.5402 -1.8231
  183SLPC   H3Y21032   5.390   4.679  10.315 -0.7321 -1.6776 -0.1280
  183SLPC   C3421033   5.262   4.720  10.150 -0.5188  0.4198 -0.0997
  183SLPC   H4X21034   5.300   4.824  10.149  0.2072  0.1599  0.0014
  183SLPC   H4Y21035   5.152   4.732  10.138 -0.3067  3.0474  0.0011
  183SLPC   C3521036   5.327   4.626  10.046  0.0134  0.2524 -0.6669
  183SLPC   H5X21037   5.268   4.532  10.044 -1.0697  0.7428  2.5767
  183SLPC   H5Y21038   5.431   4.610  10.082  0.3896  0.0355 -1.7879
  183SLPC   C3621039   5.342   4.701   9.910  0.5783  0.9662 -0.4258
  183SLPC   H6X21040   5.406   4.785   9.946 -0.9148  0.6677  3.4714
  183SLPC   H6Y21041   5.235   4.727   9.895 -0.0139 -1.3143 -0.4830
  183SLPC   C3721042   5.386   4.613   9.793 -0.1470  0.0184  0.1489
  183SLPC   H7X21043   5.415   4.675   9.705 -0.9922 -3.0686 -2.4998
  183SLPC   H7Y21044   5.309   4.540   9.761  1.6974 -1.0783 -2.0437
  183SLPC   C3821045   5.504   4.520   9.817 -0.2063  0.3581  0.4326
  183SLPC   H8X21046   5.463   4.446   9.889 -2.2611 -0.8799 -1.8527
  183SLPC   H8Y21047   5.595   4.578   9.843 -0.3216  1.4735 -1.4790
  183SLPC   C3921048   5.516   4.428   9.693 -0.7224  0.0737 -0.2864
  183SLPC   H9X21049   5.416   4.384   9.675 -0.5000 -0.6027  0.0875
  183SLPC   H9Y21050   5.586   4.346   9.719 -2.1015 -0.9947  0.1512
  183SLPC  C31021051   5.551   4.497   9.564 -0.4989  0.1790 -0.4046
  183SLPC  H10X21052   5.641   4.558   9.586 -0.5666  0.4617 -0.8856
  183SLPC  H10Y21053   5.470   4.568   9.534 -0.1110 -0.0979 -2.2153
  183SLPC  C31121054   5.581   4.389   9.467  0.1972  0.6708  0.0304
  183SLPC  H11X21055   5.494   4.320   9.456  1.2465 -0.7683  0.4459
  183SLPC  H11Y21056   5.675   4.335   9.492  1.4217  1.8115 -1.7905
  183SLPC  C31221057   5.606   4.446   9.331  0.2435  0.1963  0.2110
  183SLPC  H12X21058   5.699   4.507   9.328  0.0006  0.5512 -0.5448
  183SLPC  H12Y21059   5.524   4.519   9.315 -0.0503  0.3683  2.2709
  183SLPC  C31321060   5.605   4.351   9.210  0.3527  0.0149  0.4156
  183SLPC  H13X21061   5.526   4.274   9.218  0.4159 -0.2834 -1.3720
  183SLPC  H13Y21062   5.708   4.314   9.227  0.9170  1.2235 -0.2128
  183SLPC  C31421063   5.604   4.421   9.070 -0.0294 -0.0231  0.5506
  183SLPC  H14X21064   5.638   4.341   9.000 -2.1804  0.2448 -0.9129
  183SLPC  H14Y21065   5.668   4.512   9.075  0.0856 -0.1158  0.8122
  183SLPC  C31521066   5.460   4.453   9.036  0.3243 -0.5358 -0.4135
  183SLPC  H15X21067   5.450   4.561   9.062  2.8199 -0.0471 -1.1723
  183SLPC  H15Y21068   5.389   4.395   9.098 -1.2398  1.4075 -0.2793
  183SLPC  C31621069   5.429   4.446   8.884  0.0537  0.0158 -0.1162
  183SLPC  H16X21070   5.456   4.344   8.850 -0.8316 -0.6092  0.9741
  183SLPC  H16Y21071   5.489   4.523   8.830  0.5088 -0.5338 -0.4002
  183SLPC  C31721072   5.283   4.482   8.853  0.1349  0.3587 -1.3001
  183SLPC  H17X21073   5.261   4.579   8.904 -3.4331 -1.1984  0.5122
  183SLPC  H17Y21074   5.217   4.402   8.894 -0.4770  1.6769  0.4169
  183SLPC  C31821075   5.251   4.493   8.711 -0.7242  0.3113 -0.7786
  183SLPC  H18X21076   5.296   4.407   8.657  0.0338 -0.2365  0.6796
  183SLPC  H18Y21077   5.276   4.588   8.658 -2.7892  0.7660 -1.0420
  183SLPC  H18Z21078   5.142   4.475   8.696 -1.0461  0.1117  1.5223
  184SLPC     N21079   6.157   3.235  10.785 -0.1080 -0.0140  0.0612
  184SLPC   C1321080   6.177   3.118  10.687  0.6214 -0.8245 -0.6325
  184SLPC  H13A21081   6.255   3.143  10.616 -0.8510 -0.3783 -2.1511
  184SLPC  H13B21082   6.187   3.021  10.732 -1.3493 -1.1586 -0.8193
  184SLPC  H13C21083   6.089   3.111  10.624  1.1690 -0.8761 -1.4129
  184SLPC   C1421084   6.277   3.248  10.869  0.7243  0.2345  0.7979
  184SLPC  H14A21085   6.257   3.317  10.950 -0.6517  1.2129 -0.3363
  184SLPC  H14B21086   6.311   3.158  10.919 -1.1101 -0.9783 -0.0153
  184SLPC  H14C21087   6.357   3.293  10.813  1.3431  1.3035  2.4482
  184SLPC   C1521088   6.041   3.202  10.877  0.5158 -0.5013 -0.6907
  184SLPC  H15A21089   6.019   3.284  10.943  1.0437 -1.6293  0.9657
  184SLPC  H15B21090   5.956   3.186  10.812  0.5863 -3.3586 -0.1883
  184SLPC  H15C21091   6.061   3.116  10.939 -3.2127 -0.5797  0.6219
  184SLPC   C1221092   6.133   3.366  10.711  0.5028 -0.0343 -0.0073
  184SLPC  H12A21093   6.096   3.439  10.781 -0.3193 -1.4534  1.1130
  184SLPC  H12B21094   6.048   3.361  10.646  0.2568  3.0626 -0.0334
  184SLPC   C1121095   6.256   3.424  10.635  0.6352  0.1535 -0.6312
  184SLPC  H11A21096   6.206   3.496  10.566 -0.6845  2.1847  2.2162
  184SLPC  H11B21097   6.297   3.345  10.569 -2.3659  0.1675 -2.7041
  184SLPC     P21098   6.312   3.624  10.798 -0.6253 -0.0362 -0.0976
  184SLPC   O1321099   6.230   3.599  10.918  0.3091  0.4059 -0.1361
  184SLPC   O1421100   6.445   3.680  10.823 -0.9757  0.1399  0.4756
  184SLPC   O1221101   6.346   3.490  10.726  0.4954 -0.2449 -0.1220
  184SLPC   O1121102   6.231   3.703  10.677 -0.3059  0.5174 -0.4469
  184SLPC    C121103   6.319   3.784  10.587  0.1040 -0.9270  0.5565
  184SLPC    HA21104   6.343   3.877  10.642 -2.8586 -0.6301  1.5727
  184SLPC    HB21105   6.412   3.730  10.561  0.1695  0.6089 -2.8944
  184SLPC    C221106   6.241   3.817  10.454 -0.5550  0.0172  0.1670
  184SLPC    HS21107   6.313   3.845  10.375 -1.2314 -2.6565 -1.5375
  184SLPC   O2121108   6.130   3.926  10.461 -0.1395  0.0872  0.5167
  184SLPC   C2121109   6.180   4.049  10.469  0.2923 -0.0769 -0.6288
  184SLPC   O2221110   6.302   4.074  10.472 -0.3489  0.0866  0.2893
  184SLPC   C2221111   6.059   4.144  10.493  0.8147 -0.2856 -0.5708
  184SLPC   H2R21112   5.965   4.090  10.469 -0.1355  1.4997 -0.9795
  184SLPC   H2S21113   6.064   4.181  10.597 -0.1777  0.1819 -0.6871
  184SLPC    C321114   6.175   3.694  10.393 -0.9384  1.3296 -1.0025
  184SLPC    HX21115   6.088   3.665  10.457 -0.6199 -0.8073 -1.4769
  184SLPC    HY21116   6.245   3.609  10.406 -1.9012  0.9029  2.5098
  184SLPC   O3121117   6.139   3.715  10.253 -0.6166  0.0684  0.0036
  184SLPC   C3121118   6.005   3.755  10.235  0.0374  0.2428 -0.6829
  184SLPC   O3221119   5.926   3.761  10.323  0.3757 -0.0078 -0.7398
  184SLPC   C3221120   5.987   3.776  10.089  0.7635 -0.4833  0.0043
  184SLPC   H2X21121   6.055   3.701  10.042  2.4175  1.4628 -0.8693
  184SLPC   H2Y21122   6.025   3.872  10.048  1.1075 -0.2834  0.7909
  184SLPC   C2321123   6.058   4.262  10.399  0.8622 -0.0707 -0.6315
  184SLPC   H3R21124   6.157   4.311  10.410  0.9631 -0.6396  1.4046
  184SLPC   H3S21125   5.988   4.338  10.439 -1.8480 -2.8771  0.3612
  184SLPC   C2421126   6.029   4.222  10.255 -0.2294 -0.1690  0.2038
  184SLPC   H4R21127   5.932   4.167  10.246 -0.9089  0.9562  0.4566
  184SLPC   H4S21128   6.103   4.153  10.209 -0.2430 -1.8677  2.5410
  184SLPC   C2521129   6.023   4.353  10.175  0.2931 -0.5027  0.1939
  184SLPC   H5R21130   6.126   4.395  10.174 -0.5204  1.7076  1.2410
  184SLPC   H5S21131   5.962   4.428  10.229 -3.0396 -1.1256 -2.3636
  184SLPC   C2621132   5.952   4.320  10.041  0.0807  0.5470 -0.1883
  184SLPC   H6R21133   5.907   4.414  10.002  3.0862  1.2143 -2.4139
  184SLPC   H6S21134   5.866   4.251  10.059  2.3037 -2.4822 -0.4924
  184SLPC   C2721135   6.028   4.250   9.921 -0.4571  0.4278  0.0257
  184SLPC   H7R21136   6.039   4.144   9.950  0.5614 -0.2435 -2.5343
  184SLPC   H7S21137   6.125   4.302   9.903  0.0518 -0.1571  1.0132
  184SLPC   C2821138   5.943   4.242   9.789  0.1760 -0.2195 -0.8472
  184SLPC   H8R21139   5.845   4.194   9.811 -0.4676  0.9285 -1.1070
  184SLPC   H8S21140   6.000   4.164   9.734  1.1937 -2.6494  3.2279
  184SLPC   C2921141   5.941   4.381   9.726 -0.7949  0.0678  0.5708
  184SLPC   H9R21142   5.891   4.457   9.788  1.5652  1.1726  1.2011
  184SLPC  C21021143   5.984   4.410   9.598  0.3491  0.1177 -0.3588
  184SLPC  H10R21144   5.966   4.514   9.567  1.0311  0.1791 -0.5726
  184SLPC  C21121145   6.043   4.322   9.489 -0.4106 -0.0661  0.2078
  184SLPC  H11R21146   5.959   4.296   9.421 -2.1136  0.9861  1.7942
  184SLPC  H11S21147   6.084   4.225   9.524  0.6142  0.3622  0.2171
  184SLPC  C21221148   6.149   4.397   9.415  0.7152 -0.7948  0.6263
  184SLPC  H12R21149   6.245   4.408   9.468  1.9163 -1.4906 -1.2663
  184SLPC  C21321150   6.132   4.445   9.289 -0.6241 -0.1080  0.0129
  184SLPC  H13R21151   6.210   4.501   9.234 -0.5713  0.4115  0.6127
  184SLPC  C21421152   6.010   4.430   9.201  0.8964  0.0160 -0.1040
  184SLPC  H14R21153   5.933   4.503   9.235  0.8133 -0.9698  2.0220
  184SLPC  H14S21154   5.956   4.336   9.227 -1.2434  1.4467  0.9197
  184SLPC  C21521155   6.030   4.457   9.053  0.1646  0.3102  0.3977
  184SLPC  H15R21156   6.053   4.562   9.026 -0.5845  0.5880  0.8196
  184SLPC  H15S21157   5.932   4.438   9.005 -0.3256 -2.9568  2.3808
  184SLPC  C21621158   6.133   4.364   8.982  0.3417  0.4847  0.3184
  184SLPC  H16R21159   6.099   4.258   8.984  1.8836 -0.0290  0.4337
  184SLPC  H16S21160   6.227   4.373   9.040  1.2214  1.5548 -1.1811
  184SLPC  C21721161   6.156   4.397   8.840 -0.2530  0.7886 -0.2237
  184SLPC  H17R21162   6.154   4.508   8.836  1.9030  0.9616  1.9703
  184SLPC  H17S21163   6.070   4.358   8.781 -0.4773  0.2288  0.4649
  184SLPC  C21821164   6.294   4.354   8.782  0.0273  0.4650  0.1632
  184SLPC  H18R21165   6.287   4.387   8.676  1.7620  0.9863  0.1765
  184SLPC  H18S21166   6.313   4.245   8.790 -2.4224 -0.1460 -1.2534
  184SLPC  H18T21167   6.386   4.404   8.820  0.7492 -0.7558  0.0824
  184SLPC   C3321168   5.844   3.742  10.041  0.3069  0.3674  0.4814
  184SLPC   H3X21169   5.761   3.796  10.090  0.3619  0.3792  0.5622
  184SLPC   H3Y21170   5.820   3.635  10.056  0.5477  0.2139 -0.1694
  184SLPC   C3421171   5.828   3.758   9.894 -0.5846 -0.3637 -0.3452
  184SLPC   H4X21172   5.726   3.724   9.867 -1.0883 -0.3233  1.3722
  184SLPC   H4Y21173   5.910   3.700   9.845  1.5600  2.1755  0.0261
  184SLPC   C3521174   5.842   3.897   9.843  0.0146 -0.9497 -0.4846
  184SLPC   H5X21175   5.951   3.918   9.843 -0.0071 -0.6390 -2.2379
  184SLPC   H5Y21176   5.785   3.971   9.903  0.5019  2.1185 -3.4506
  184SLPC   C3621177   5.798   3.901   9.697  0.3950 -0.0582 -0.5255
  184SLPC   H6X21178   5.855   3.825   9.639 -0.5334 -0.7809 -0.5141
  184SLPC   H6Y21179   5.816   3.999   9.648  1.1244  0.2333  0.3100
  184SLPC   C3721180   5.649   3.887   9.659  0.0643  0.3167 -0.7432
  184SLPC   H7X21181   5.591   3.965   9.712 -1.1753 -0.6813 -0.5905
  184SLPC   H7Y21182   5.613   3.787   9.689 -1.7755  0.1340 -3.2573
  184SLPC   C3821183   5.610   3.910   9.515 -1.0798 -0.9771  0.2860
  184SLPC   H8X21184   5.652   3.829   9.450  0.0861 -0.4077  0.2954
  184SLPC   H8Y21185   5.660   4.004   9.483 -1.6437 -0.7354  0.1102
  184SLPC   C3921186   5.463   3.928   9.497 -0.7105  0.3347 -0.0358
  184SLPC   H9X21187   5.422   4.007   9.563 -0.7005  0.3074  0.0037
  184SLPC   H9Y21188   5.415   3.834   9.533  0.6967 -0.5845 -0.4505
  184SLPC  C31021189   5.421   3.942   9.346 -0.1045  0.2547  0.2878
  184SLPC  H10X21190   5.488   3.884   9.279 -1.7878 -1.2499 -0.1921
  184SLPC  H10Y21191   5.423   4.050   9.322 -1.1180 -0.1470 -1.9241
  184SLPC  C31121192   5.279   3.887   9.324 -0.4981  0.1270  0.4117
  184SLPC  H11X21193   5.221   3.931   9.409  0.3617 -0.1304  1.1473
  184SLPC  H11Y21194   5.260   3.778   9.332  0.9468 -0.0746  1.4898
  184SLPC  C31221195   5.228   3.935   9.187  0.4129 -0.2995  0.4953
  184SLPC  H12X21196   5.134   3.881   9.161  0.4971 -0.5255  0.6533
  184SLPC  H12Y21197   5.306   3.897   9.117 -0.1680 -0.4091 -0.1037
  184SLPC  C31321198   5.199   4.089   9.188 -0.1518  0.6477  0.2689
  184SLPC  H13X21199   5.286   4.147   9.227 -0.8473 -0.3613  3.6475
  184SLPC  H13Y21200   5.114   4.120   9.252  1.0603  0.4520  2.0577
  184SLPC  C31421201   5.175   4.141   9.042 -0.3218 -0.8565  0.1375
  184SLPC  H14X21202   5.254   4.100   8.975 -0.9804  1.9432 -2.5920
  184SLPC  H14Y21203   5.177   4.252   9.045  0.6740 -0.8087 -1.1986
  184SLPC  C31521204   5.037   4.116   8.980  0.3434 -0.0070 -0.0920
  184SLPC  H15X21205   4.971   4.149   9.063 -0.4723 -0.7054 -0.4425
  184SLPC  H15Y21206   5.021   4.006   8.975 -0.1690  0.0716 -0.2531
  184SLPC  C31621207   5.009   4.193   8.845 -0.2431 -0.3085 -0.1492
  184SLPC  H16X21208   5.040   4.295   8.873  2.9725 -1.2213 -0.0445
  184SLPC  H16Y21209   4.902   4.196   8.815 -0.6777  0.4908  1.3910
  184SLPC  C31721210   5.064   4.126   8.725 -0.3676  0.2955 -0.1716
  184SLPC  H17X21211   5.028   4.021   8.732  1.1275 -0.4555 -2.6179
  184SLPC  H17Y21212   5.173   4.124   8.706 -0.2383 -2.6992  0.3445
  184SLPC  C31821213   5.001   4.166   8.594  0.2096 -0.4054  0.7896
  184SLPC  H18X21214   5.008   4.276   8.578 -0.6551 -0.1643  1.8994
  184SLPC  H18Y21215   4.892   4.145   8.591 -0.3455  2.1822  0.1449
  184SLPC  H18Z21216   5.046   4.111   8.509 -1.6264 -1.1769  0.2633
  185SLPC     N21217   6.115   4.668   6.419  0.4714 -0.3949 -0.1991
  185SLPC   C1321218   5.978   4.727   6.411 -0.0180  0.0483 -0.3775
  185SLPC  H13A21219   5.909   4.654   6.371  0.0266  1.6670 -3.7487
  185SLPC  H13B21220   5.947   4.742   6.513  1.9071  1.4412  0.0604
  185SLPC  H13C21221   5.981   4.819   6.355  1.0473  0.3067  0.0665
  185SLPC   C1421222   6.215   4.766   6.470 -0.4482  0.4994 -0.0339
  185SLPC  H14A21223   6.314   4.722   6.476 -0.8800 -0.5838 -0.7122
  185SLPC  H14B21224   6.234   4.849   6.404 -0.5863  0.0281 -0.6713
  185SLPC  H14C21225   6.193   4.807   6.567  0.9763  3.2033 -0.7339
  185SLPC   C1521226   6.146   4.601   6.287 -0.5845 -0.4301  0.2585
  185SLPC  H15A21227   6.089   4.512   6.265  0.5180 -0.9917 -0.4411
  185SLPC  H15B21228   6.150   4.679   6.212 -0.5399  1.0522  1.7422
  185SLPC  H15C21229   6.246   4.561   6.277 -0.0487  0.5677  1.4119
  185SLPC   C1221230   6.109   4.565   6.532  0.9176 -0.4237  0.2604
  185SLPC  H12A21231   6.200   4.507   6.540  1.1859 -0.0740 -0.1750
  185SLPC  H12B21232   6.022   4.504   6.515 -1.3394  2.3174  1.1010
  185SLPC   C1121233   6.086   4.619   6.676  0.4684  0.8390 -0.0248
  185SLPC  H11A21234   6.154   4.705   6.697  2.2911 -0.5320 -0.0815
  185SLPC  H11B21235   6.114   4.539   6.748 -0.2695 -1.5184 -2.2376
  185SLPC     P21236   5.836   4.567   6.724 -0.2399 -0.2664  0.2486
  185SLPC   O1321237   5.722   4.585   6.627 -0.1589 -0.1070  0.1171
  185SLPC   O1421238   5.876   4.430   6.730 -0.0819  0.1773 -0.1870
  185SLPC   O1221239   5.954   4.662   6.700  0.1758 -0.1318  0.5155
  185SLPC   O1121240   5.775   4.608   6.870  0.0140 -0.3935 -0.2906
  185SLPC    C121241   5.740   4.739   6.881 -0.0906  0.0385  0.4368
  185SLPC    HA21242   5.693   4.776   6.788  1.9347 -1.8167 -1.4300
  185SLPC    HB21243   5.655   4.755   6.952 -1.0849  2.0304 -1.0971
  185SLPC    C221244   5.853   4.841   6.922 -0.1578 -0.3968 -0.4564
  185SLPC    HS21245   5.953   4.815   6.881 -0.3972 -0.2362 -1.1466
  185SLPC   O2121246   5.846   4.848   7.066  0.0219  0.3098 -0.4048
  185SLPC   C2121247   5.924   4.779   7.139  1.0968 -0.2564 -0.0067
  185SLPC   O2221248   6.002   4.694   7.097  0.1752 -0.8732  0.0179
  185SLPC   C2221249   5.891   4.803   7.285 -0.1412  0.0898  0.6259
  185SLPC   H2R21250   5.933   4.900   7.320  1.4747 -0.2982 -0.1524
  185SLPC   H2S21251   5.781   4.817   7.294 -0.4104 -1.2453 -0.2188
  185SLPC    C321252   5.819   4.988   6.875 -0.5748  1.0451  0.1869
  185SLPC    HX21253   5.717   5.016   6.908 -0.6775  1.1461 -0.2120
  185SLPC    HY21254   5.823   5.005   6.765  0.4458 -1.4752 -0.2304
  185SLPC   O3121255   5.899   5.088   6.942  0.3258 -0.3729  0.1384
  185SLPC   C3121256   6.012   5.121   6.883  0.1788  0.3543  0.8142
  185SLPC   O3221257   6.065   5.064   6.790  0.6438  0.0203  0.3389
  185SLPC   C3221258   6.070   5.237   6.963  0.3720  0.1616 -0.4806
  185SLPC   H2X21259   5.999   5.321   6.945  0.0085 -0.1952 -0.7261
  185SLPC   H2Y21260   6.173   5.253   6.923  0.2471  1.1947 -0.4069
  185SLPC   C2321261   5.950   4.692   7.379 -0.1433 -0.2674  0.7400
  185SLPC   H3R21262   6.060   4.693   7.363 -0.4006  0.1835 -1.2823
  185SLPC   H3S21263   5.903   4.599   7.342 -2.2194  0.6614  0.8747
  185SLPC   C2421264   5.917   4.724   7.524 -0.5148 -0.3031  0.9480
  185SLPC   H4R21265   5.807   4.723   7.538 -0.2968 -1.8284  3.0483
  185SLPC   H4S21266   5.951   4.828   7.543  1.4760 -1.0527  1.8365
  185SLPC   C2521267   5.980   4.614   7.610  0.2434  0.0266  0.5340
  185SLPC   H5R21268   6.090   4.609   7.604  0.2851  0.3702  0.9809
  185SLPC   H5S21269   5.927   4.521   7.578 -2.4909  1.2211  1.3115
  185SLPC   C2621270   5.948   4.635   7.765 -0.1894 -0.7944  0.3146
  185SLPC   H6R21271   5.840   4.658   7.771 -0.5065 -2.4696  1.7071
  185SLPC   H6S21272   6.016   4.711   7.809 -0.6330 -0.1060 -0.1713
  185SLPC   C2721273   5.960   4.496   7.832  0.3871  0.2807 -0.1499
  185SLPC   H7R21274   6.065   4.463   7.821  0.8340  2.1688 -2.2213
  185SLPC   H7S21275   5.893   4.414   7.798  0.7780  0.0282 -0.3113
  185SLPC   C2821276   5.925   4.495   7.982  0.0497 -0.8736  0.5314
  185SLPC   H8R21277   5.923   4.391   8.021 -0.0410 -0.9936  0.2038
  185SLPC   H8S21278   5.826   4.544   7.987  0.5749  0.2889  0.1276
  185SLPC   C2921279   6.011   4.587   8.061  0.2676 -0.3946  0.3675
  185SLPC   H9R21280   5.982   4.691   8.037 -3.2942 -1.8335 -2.7014
  185SLPC  C21021281   6.098   4.557   8.158 -0.0716 -0.9562  0.1336
  185SLPC  H10R21282   6.161   4.639   8.196  1.0023 -1.3395 -0.7515
  185SLPC  C21121283   6.141   4.419   8.209  0.3256 -0.1325 -0.1135
  185SLPC  H11R21284   6.240   4.397   8.165 -0.6020 -1.2139 -1.7636
  185SLPC  H11S21285   6.074   4.338   8.173  0.3383 -0.1060 -0.1972
  185SLPC  C21221286   6.144   4.418   8.363 -0.0841  0.5106 -0.1845
  185SLPC  H12R21287   6.144   4.518   8.408  1.0860  0.4496 -0.0167
  185SLPC  C21321288   6.173   4.306   8.436  0.0685  0.5824 -0.0220
  185SLPC  H13R21289   6.164   4.294   8.545  1.2985 -3.2947 -0.2067
  185SLPC  C21421290   6.209   4.174   8.373  0.0560 -0.5299 -0.6425
  185SLPC  H14R21291   6.178   4.176   8.267  0.3620  1.5845 -0.7402
  185SLPC  H14S21292   6.145   4.095   8.419  1.4436  0.1627  2.8374
  185SLPC  C21521293   6.353   4.124   8.378  0.7715  0.3024  0.0950
  185SLPC  H15R21294   6.367   4.120   8.488  0.3310 -1.9451  0.1112
  185SLPC  H15S21295   6.418   4.208   8.347 -0.5621  1.0109 -0.8968
  185SLPC  C21621296   6.380   3.988   8.320 -0.7339  0.1122  0.4737
  185SLPC  H16R21297   6.397   4.003   8.212 -1.1437  0.3372  0.4410
  185SLPC  H16S21298   6.292   3.920   8.331 -0.8220  0.3146  1.0488
  185SLPC  C21721299   6.511   3.921   8.376  0.2640  0.1509  0.2044
  185SLPC  H17R21300   6.487   3.889   8.480  0.4004 -0.6995 -0.0184
  185SLPC  H17S21301   6.594   3.996   8.376 -0.5059  1.0617 -1.6275
  185SLPC  C21821302   6.547   3.787   8.313 -0.6341  0.2857  0.5623
  185SLPC  H18R21303   6.642   3.743   8.350 -1.6249 -3.1015 -0.4677
  185SLPC  H18S21304   6.555   3.792   8.203  3.5072 -0.0918  0.6890
  185SLPC  H18T21305   6.462   3.717   8.327  0.1133 -0.4809  1.4339
  185SLPC   C3321306   6.096   5.223   7.107  0.0533  0.3958 -0.7127
  185SLPC   H3X21307   6.008   5.205   7.172  1.0452 -1.2677  0.2231
  185SLPC   H3Y21308   6.142   5.316   7.146  0.1399 -0.2483  0.7558
  185SLPC   C3421309   6.194   5.115   7.136 -0.3879 -0.5909  0.0078
  185SLPC   H4X21310   6.272   5.099   7.058  1.7378 -0.3824  1.9738
  185SLPC   H4Y21311   6.131   5.023   7.136 -0.4255 -0.5785 -1.1479
  185SLPC   C3521312   6.268   5.130   7.265 -0.5530 -0.1205  0.3193
  185SLPC   H5X21313   6.336   5.218   7.270  1.3834 -1.5866  1.2576
  185SLPC   H5Y21314   6.345   5.050   7.263 -0.8572 -0.5335 -3.9097
  185SLPC   C3621315   6.183   5.093   7.384  0.1530 -0.0344  0.2486
  185SLPC   H6X21316   6.118   5.005   7.367  1.1368 -0.4822 -1.3256
  185SLPC   H6Y21317   6.106   5.173   7.399 -1.4202 -1.4027 -0.1638
  185SLPC   C3721318   6.261   5.081   7.521 -0.9362 -0.1201  0.7519
  185SLPC   H7X21319   6.322   5.173   7.532  0.1576 -1.0204  2.4224
  185SLPC   H7Y21320   6.330   4.996   7.505  0.1179  0.8984 -0.3388
  185SLPC   C3821321   6.176   5.051   7.647  0.3408  0.0576  0.2934
  185SLPC   H8X21322   6.113   4.962   7.627  0.9430 -0.1430 -0.7983
  185SLPC   H8Y21323   6.115   5.141   7.668  2.4373  1.9654 -1.2373
  185SLPC   C3921324   6.262   5.010   7.765  0.5056 -0.1768  0.1005
  185SLPC   H9X21325   6.301   5.105   7.807 -1.2551  1.8081 -2.4499
  185SLPC   H9Y21326   6.348   4.952   7.725 -1.4398 -1.5861 -2.2594
  185SLPC  C31021327   6.184   4.945   7.879 -0.0930  0.3313  0.3442
  185SLPC  H10X21328   6.231   4.845   7.892 -1.1735 -0.5603 -2.0241
  185SLPC  H10Y21329   6.081   4.932   7.841  0.7304 -1.4116 -1.4272
  185SLPC  C31121330   6.178   5.025   8.004  0.0892 -0.1175 -0.2667
  185SLPC  H11X21331   6.114   4.981   8.083  0.4782  0.2917  0.2768
  185SLPC  H11Y21332   6.131   5.125   7.988 -1.8047 -1.0983 -1.1387
  185SLPC  C31221333   6.318   5.050   8.071  1.1422  0.0066 -0.4099
  185SLPC  H12X21334   6.358   5.147   8.035  2.3910 -0.1444  0.5019
  185SLPC  H12Y21335   6.379   4.963   8.039  1.2357 -0.5362  1.1198
  185SLPC  C31321336   6.309   5.049   8.227  0.6112 -0.0995  0.3808
  185SLPC  H13X21337   6.240   5.130   8.258  3.0897  1.8349  1.1557
  185SLPC  H13Y21338   6.415   5.062   8.258  1.2380  0.5842 -1.8662
  185SLPC  C31421339   6.268   4.915   8.290 -0.2353 -0.6856  0.1798
  185SLPC  H14X21340   6.305   4.839   8.217 -3.7360 -1.4084 -1.0207
  185SLPC  H14Y21341   6.159   4.894   8.291 -0.4364  0.2172 -0.8793
  185SLPC  C31521342   6.328   4.904   8.429 -0.3944  0.2244  0.0503
  185SLPC  H15X21343   6.336   5.004   8.477  1.3639  0.6857 -1.1371
  185SLPC  H15Y21344   6.427   4.859   8.410 -0.0460  0.7798  0.5375
  185SLPC  C31621345   6.247   4.808   8.516 -0.0762  0.2654  0.4028
  185SLPC  H16X21346   6.304   4.796   8.611  3.1859 -0.6034 -1.4970
  185SLPC  H16Y21347   6.236   4.708   8.469  0.6385 -0.2773  1.3379
  185SLPC  C31721348   6.114   4.867   8.570 -0.3836  0.1893 -0.2710
  185SLPC  H17X21349   6.069   4.925   8.487  0.1812  2.0104  0.6425
  185SLPC  H17Y21350   6.128   4.935   8.657 -1.9891  0.0479  0.1223
  185SLPC  C31821351   6.026   4.745   8.616 -0.7961 -0.8236  0.0490
  185SLPC  H18X21352   6.091   4.695   8.690  2.1945  2.5876  0.0023
  185SLPC  H18Y21353   6.004   4.672   8.535 -2.2075 -0.5629  0.1618
  185SLPC  H18Z21354   5.928   4.781   8.656  1.0598  2.1334  2.3372
  186SLPC     N21355   6.470   0.005   6.297  0.1764 -0.3616  0.0684
  186SLPC   C1321356   6.403  -0.129   6.282 -0.4267  0.0482 -0.2018
  186SLPC  H13A21357   6.296  -0.121   6.276 -0.4578 -0.8800 -1.1481
  186SLPC  H13B21358   6.424  -0.169   6.184  1.3265 -1.8489  0.8618
  186SLPC  H13C21359   6.436  -0.194   6.362  1.0365  1.2191  0.2019
  186SLPC   C1421360   6.416   0.097   6.188 -0.7602  0.5483  0.7668
  186SLPC  H14A21361   6.311   0.106   6.211 -1.2359 -2.1916  0.0627
  186SLPC  H14B21362   6.466   0.192   6.195 -0.4620  0.3727  1.1195
  186SLPC  H14C21363   6.417   0.066   6.085 -0.9993  0.0776  0.9014
  186SLPC   C1521364   6.621  -0.015   6.273  0.1079  0.4278  0.0981
  186SLPC  H15A21365   6.665   0.084   6.266 -0.8030  0.8082 -0.3915
  186SLPC  H15B21366   6.677  -0.061   6.353  0.5502  1.3245  0.3173
  186SLPC  H15C21367   6.637  -0.065   6.178 -1.0184  1.9093 -0.9217
  186SLPC   C1221368   6.428   0.058   6.428  0.7593  0.3358 -0.0528
  186SLPC  H12A21369   6.478   0.153   6.443  1.1299  0.3262 -1.1867
  186SLPC  H12B21370   6.463  -0.009   6.505  2.7878  0.4046 -0.8640
  186SLPC   C1121371   6.279   0.076   6.462  0.1627 -0.2929 -0.3305
  186SLPC  H11A21372   6.265   0.111   6.567 -0.8590  3.4179 -1.5382
  186SLPC  H11B21373   6.231  -0.022   6.442  1.6978 -0.3572 -4.6113
  186SLPC     P21374   6.230   0.327   6.406  0.1828  0.0507  0.0010
  186SLPC   O1321375   6.372   0.376   6.394 -0.0005  0.2098 -0.1761
  186SLPC   O1421376   6.129   0.390   6.330  0.1328 -0.3158  0.1152
  186SLPC   O1221377   6.219   0.173   6.372 -0.2762 -0.0107 -0.3650
  186SLPC   O1121378   6.179   0.336   6.549 -0.3839 -0.3691  0.9545
  186SLPC    C121379   6.213   0.438   6.648  0.6942  0.0810 -0.1411
  186SLPC    HA21380   6.218   0.539   6.602  0.0320 -0.8491 -2.3993
  186SLPC    HB21381   6.133   0.447   6.724 -0.9537 -0.2547 -1.7494
  186SLPC    C221382   6.339   0.403   6.724 -0.6670  0.2468 -0.2767
  186SLPC    HS21383   6.420   0.374   6.654  0.9131  1.5642  0.9064
  186SLPC   O2121384   6.303   0.306   6.809 -0.0094  0.6498  0.1227
  186SLPC   C2121385   6.402   0.225   6.857  0.3412 -0.3724  0.0012
  186SLPC   O2221386   6.521   0.220   6.821  0.5601 -0.3051 -0.3715
  186SLPC   C2221387   6.348   0.122   6.953  0.5580  0.0992 -0.0511
  186SLPC   H2R21388   6.349   0.170   7.054  1.9300  0.9137 -0.4304
  186SLPC   H2S21389   6.247   0.091   6.917  0.4295 -0.9030  1.0843
  186SLPC    C321390   6.399   0.519   6.799 -0.7136 -0.2745  0.2934
  186SLPC    HX21391   6.416   0.602   6.727  0.1100 -0.1327  0.6459
  186SLPC    HY21392   6.494   0.481   6.841 -0.5139  0.6449  0.6784
  186SLPC   O3121393   6.315   0.580   6.901  0.3055  0.3409 -0.1300
  186SLPC   C3121394   6.386   0.635   7.003 -0.6605  0.0519  0.5138
  186SLPC   O3221395   6.507   0.631   7.011  0.0191  0.1281 -0.6505
  186SLPC   C3221396   6.284   0.720   7.083  0.1756  0.1607  0.7337
  186SLPC   H2X21397   6.183   0.678   7.062 -0.2525  1.6904 -0.4637
  186SLPC   H2Y21398   6.293   0.818   7.033  0.8557  0.1372  0.8068
  186SLPC   C2321399   6.437  -0.000   6.960  0.2538 -0.2812  0.2531
  186SLPC   H3R21400   6.544   0.030   6.953  0.0456  0.9124  1.7974
  186SLPC   H3S21401   6.418  -0.073   6.878  0.3328 -1.4103  1.2200
  186SLPC   C2421402   6.440  -0.076   7.093 -0.7363  0.0956  0.9873
  186SLPC   H4R21403   6.336  -0.080   7.134 -1.1326  1.3111  0.1757
  186SLPC   H4S21404   6.516  -0.039   7.164  1.4252 -1.9968 -0.1106
  186SLPC   C2521405   6.482  -0.220   7.072  0.0576 -0.3489  0.4031
  186SLPC   H5R21406   6.529  -0.225   6.972  0.3032 -2.8924  0.5818
  186SLPC   H5S21407   6.405  -0.300   7.074  0.7859 -1.2357 -2.3000
  186SLPC   C2621408   6.585  -0.254   7.174 -0.3321  0.0818 -0.3470
  186SLPC   H6R21409   6.537  -0.249   7.274  2.1005 -1.6435  1.0205
  186SLPC   H6S21410   6.660  -0.173   7.187 -0.3093 -0.0219  0.2145
  186SLPC   C2721411   6.652  -0.388   7.148  0.0373 -0.4662 -0.2976
  186SLPC   H7R21412   6.732  -0.375   7.071 -2.6718  1.5743 -3.0028
  186SLPC   H7S21413   6.583  -0.465   7.106 -0.7137 -0.5366  1.0098
  186SLPC   C2821414   6.726  -0.438   7.278 -0.3294 -1.2249 -1.2222
  186SLPC   H8R21415   6.787  -0.351   7.311  0.2680 -1.5085 -1.5607
  186SLPC   H8S21416   6.795  -0.521   7.252  1.2865 -0.7982  1.3376
  186SLPC   C2921417   6.631  -0.482   7.387  0.0963 -0.2776  0.2587
  186SLPC   H9R21418   6.540  -0.537   7.359 -0.4212 -0.8962  2.8753
  186SLPC  C21021419   6.653  -0.468   7.515 -0.6850  0.6858  1.1257
  186SLPC  H10R21420   6.577  -0.509   7.583 -2.0754  1.9271  0.4050
  186SLPC  C21121421   6.779  -0.413   7.572 -0.0198 -0.2752  0.1335
  186SLPC  H11R21422   6.834  -0.340   7.509 -0.9926  1.2066  0.9469
  186SLPC  H11S21423   6.844  -0.503   7.575  0.9830  0.4529  0.9144
  186SLPC  C21221424   6.757  -0.354   7.710  0.6404 -0.1113 -0.6744
  186SLPC  H12R21425   6.697  -0.262   7.701 -0.3738 -0.8772 -2.0297
  186SLPC  C21321426   6.815  -0.391   7.823  0.1355  0.2914 -0.5526
  186SLPC  H13R21427   6.793  -0.344   7.920 -0.4359  0.4722 -0.7657
  186SLPC  C21421428   6.918  -0.506   7.831  0.0648  0.0474  0.5670
  186SLPC  H14R21429   6.967  -0.504   7.731 -2.2631 -1.6947 -0.7352
  186SLPC  H14S21430   6.868  -0.604   7.847 -3.0564  1.4814  0.4311
  186SLPC  C21521431   7.022  -0.487   7.938  0.1655 -0.1562  0.4558
  186SLPC  H15R21432   7.075  -0.391   7.921  0.5960 -0.9032 -2.9437
  186SLPC  H15S21433   7.106  -0.558   7.921 -0.0735 -0.4900  0.6448
  186SLPC  C21621434   6.964  -0.496   8.078 -0.2414  0.3105 -0.9112
  186SLPC  H16R21435   6.910  -0.593   8.079  0.0918  0.1272 -0.3631
  186SLPC  H16S21436   6.877  -0.430   8.096 -0.1101  0.9254 -2.3864
  186SLPC  C21721437   7.075  -0.508   8.189  0.5088 -0.6523 -0.4436
  186SLPC  H17R21438   7.137  -0.420   8.163 -1.7769  0.5830 -1.9515
  186SLPC  H17S21439   7.129  -0.604   8.169 -1.2071 -1.5989 -0.7196
  186SLPC  C21821440   7.034  -0.515   8.335 -0.9422  0.0846  0.1156
  186SLPC  H18R21441   6.964  -0.434   8.363 -1.1146 -0.1057  0.2325
  186SLPC  H18S21442   7.118  -0.499   8.406 -1.2813  0.2906  0.4747
  186SLPC  H18T21443   6.982  -0.605   8.374 -1.4901  1.4906  2.8757
  186SLPC   C3321444   6.321   0.725   7.228  0.2689  0.2221 -0.1626
  186SLPC   H3X21445   6.336   0.622   7.266 -1.5221  0.2864  0.8422
  186SLPC   H3Y21446   6.232   0.766   7.282  0.6885 -0.0365  0.7538
  186SLPC   C3421447   6.448   0.802   7.249 -0.0409 -1.4418 -0.1681
  186SLPC   H4X21448   6.429   0.907   7.218 -1.4875 -1.4385  0.6597
  186SLPC   H4Y21449   6.533   0.760   7.192  1.2594 -0.9259  1.3046
  186SLPC   C3521450   6.497   0.819   7.398 -0.2038  0.8077 -0.3343
  186SLPC   H5X21451   6.410   0.849   7.461  0.9810 -0.1518  1.8710
  186SLPC   H5Y21452   6.577   0.896   7.390  1.6194 -0.9740  0.0053
  186SLPC   C3621453   6.571   0.695   7.462  0.0293  0.3001 -0.5945
  186SLPC   H6X21454   6.618   0.644   7.376  0.1771  1.3111 -1.1341
  186SLPC   H6Y21455   6.484   0.638   7.501 -0.4860  0.4532 -1.4924
  186SLPC   C3721456   6.667   0.730   7.572  0.3675 -0.1815  0.1289
  186SLPC   H7X21457   6.742   0.810   7.553  1.0736 -0.6125  1.0231
  186SLPC   H7Y21458   6.717   0.636   7.602 -0.0266 -0.4454 -0.0396
  186SLPC   C3821459   6.585   0.791   7.690  0.7931  0.3453  0.1690
  186SLPC   H8X21460   6.481   0.753   7.694  0.8739  0.2063  2.0322
  186SLPC   H8Y21461   6.581   0.901   7.676  0.2083  0.3767  0.5388
  186SLPC   C3921462   6.643   0.753   7.829 -0.3228 -0.0470  0.1704
  186SLPC   H9X21463   6.751   0.778   7.823 -0.2531 -0.4007 -0.0509
  186SLPC   H9Y21464   6.629   0.645   7.853 -0.7386 -0.2138 -0.7924
  186SLPC  C31021465   6.579   0.840   7.939 -0.1830  0.6118  0.2168
  186SLPC  H10X21466   6.478   0.806   7.970 -0.0573  1.2992  1.4596
  186SLPC  H10Y21467   6.558   0.945   7.909 -1.7183  0.6118  1.1626
  186SLPC  C31121468   6.668   0.851   8.066 -0.3391 -0.3747 -0.4940
  186SLPC  H11X21469   6.765   0.897   8.037  0.3396 -0.5893  1.3140
  186SLPC  H11Y21470   6.678   0.745   8.097 -0.8646 -0.3650 -0.2778
  186SLPC  C31221471   6.602   0.929   8.181 -0.2987  0.9581  0.2669
  186SLPC  H12X21472   6.515   0.870   8.217 -1.4121  1.6585 -1.1565
  186SLPC  H12Y21473   6.566   1.027   8.144 -0.2433  0.5765 -0.8446
  186SLPC  C31321474   6.701   0.962   8.299 -0.8729 -0.1267  0.0249
  186SLPC  H13X21475   6.768   1.045   8.267  2.2670 -2.0001  1.2990
  186SLPC  H13Y21476   6.768   0.875   8.313  0.5894  0.6746 -1.6185
  186SLPC  C31421477   6.623   0.978   8.433  0.0591  0.3656  0.0437
  186SLPC  H14X21478   6.697   0.982   8.516  0.4205 -1.6244 -0.1238
  186SLPC  H14Y21479   6.564   0.890   8.468 -0.0677  1.3870  2.6480
  186SLPC  C31521480   6.519   1.096   8.433  0.0072 -0.1232  0.0386
  186SLPC  H15X21481   6.420   1.048   8.418  0.1323 -0.1402 -0.7872
  186SLPC  H15Y21482   6.546   1.156   8.343  1.2386  0.1186  0.5421
  186SLPC  C31621483   6.537   1.171   8.558 -0.5727 -0.1677  0.1260
  186SLPC  H16X21484   6.471   1.261   8.553 -1.3667 -0.7643 -0.3376
  186SLPC  H16Y21485   6.639   1.211   8.574 -0.5827 -0.8060  2.1180
  186SLPC  C31721486   6.511   1.096   8.697 -0.5454  0.1651  0.0799
  186SLPC  H17X21487   6.586   1.015   8.708  0.6903  1.2229 -0.4048
  186SLPC  H17Y21488   6.415   1.041   8.683 -0.9196  0.7299  0.3598
  186SLPC  C31821489   6.496   1.198   8.809 -0.0813 -0.1091 -0.2669
  186SLPC  H18X21490   6.574   1.276   8.797  1.2237 -1.3342  0.0313
  186SLPC  H18Y21491   6.519   1.147   8.905 -2.5800 -1.9856 -0.5530
  186SLPC  H18Z21492   6.394   1.242   8.807 -1.1258 -2.3814 -2.3192
  187SLPC     N21493   1.489   4.477   6.210  0.8268  0.0720  0.4989
  187SLPC   C1321494   1.489   4.581   6.104  0.0894  0.1670  0.3888
  187SLPC  H13A21495   1.564   4.565   6.029 -0.8450 -0.2765 -0.4668
  187SLPC  H13B21496   1.392   4.564   6.060  0.4755 -0.2910 -0.2905
  187SLPC  H13C21497   1.490   4.687   6.127  0.4697  0.7731 -2.1863
  187SLPC   C1421498   1.631   4.480   6.275  0.7656 -0.5153 -0.0148
  187SLPC  H14A21499   1.710   4.467   6.203  0.4279 -1.2567 -0.2608
  187SLPC  H14B21500   1.648   4.570   6.331 -1.1786 -0.3244  0.3257
  187SLPC  H14C21501   1.642   4.397   6.342  0.7942  1.0085  1.9466
  187SLPC   C1521502   1.478   4.344   6.149 -0.1544  0.7673 -0.1606
  187SLPC  H15A21503   1.478   4.269   6.227  0.0993  1.7363  0.7972
  187SLPC  H15B21504   1.380   4.336   6.103 -0.1561  0.7304 -0.1507
  187SLPC  H15C21505   1.553   4.340   6.071 -0.1092  1.8889 -0.1909
  187SLPC   C1221506   1.372   4.498   6.305  0.2292 -0.0814 -0.0432
  187SLPC  H12A21507   1.395   4.431   6.387 -1.0667 -0.8414 -0.2766
  187SLPC  H12B21508   1.279   4.464   6.264 -0.2356  0.2833  0.6802
  187SLPC   C1121509   1.342   4.642   6.357 -0.0448  0.2432 -0.5585
  187SLPC  H11A21510   1.247   4.623   6.411 -1.3599  2.2864 -2.0351
  187SLPC  H11B21511   1.316   4.700   6.266 -2.0372 -1.5321 -1.2286
  187SLPC     P21512   1.438   4.747   6.574  0.1671  0.0835 -0.3052
  187SLPC   O1321513   1.572   4.733   6.640  0.0470 -0.2839  0.3525
  187SLPC   O1421514   1.379   4.881   6.565 -0.1105  0.2666 -0.1080
  187SLPC   O1221515   1.445   4.697   6.425 -0.1225 -0.5558 -0.4100
  187SLPC   O1121516   1.333   4.646   6.639 -1.0402 -0.4868 -0.1094
  187SLPC    C121517   1.354   4.506   6.640  0.4020 -0.1881 -0.3322
  187SLPC    HA21518   1.252   4.462   6.633 -0.2225  1.0490  0.5840
  187SLPC    HB21519   1.423   4.467   6.562  1.2133 -1.5252  1.0091
  187SLPC    C221520   1.416   4.455   6.776 -0.3858  0.2406  0.9028
  187SLPC    HS21521   1.398   4.346   6.777 -1.0114  0.2452 -1.8935
  187SLPC   O2121522   1.361   4.526   6.886 -0.1616  0.5445  0.0364
  187SLPC   C2121523   1.233   4.512   6.904 -0.1550 -0.8903 -0.2771
  187SLPC   O2221524   1.162   4.418   6.877  0.2912 -0.5630 -0.6661
  187SLPC   C2221525   1.183   4.629   6.989  0.4733 -0.0072 -0.3488
  187SLPC   H2R21526   1.257   4.711   6.998 -0.9498  1.4189 -1.1332
  187SLPC   H2S21527   1.092   4.675   6.945 -1.3626 -1.5931  1.5401
  187SLPC    C321528   1.566   4.472   6.780  0.3386  0.5245  1.1919
  187SLPC    HX21529   1.592   4.579   6.793  0.8729  0.7301 -1.1544
  187SLPC    HY21530   1.597   4.430   6.682 -0.7493  0.4438  0.8641
  187SLPC   O3121531   1.628   4.396   6.883 -0.3273  0.2859  0.0060
  187SLPC   C3121532   1.763   4.378   6.873  0.4186 -0.6582  0.6334
  187SLPC   O3221533   1.828   4.440   6.787  0.0846 -0.6298 -0.0466
  187SLPC   C3221534   1.810   4.281   6.982 -0.4069  0.0964 -0.4572
  187SLPC   H2X21535   1.782   4.177   6.956  0.4439  0.0673 -1.3325
  187SLPC   H2Y21536   1.754   4.312   7.073  0.5849  0.2259  0.1323
  187SLPC   C2321537   1.126   4.577   7.129 -0.1062  0.4520 -0.3336
  187SLPC   H3R21538   1.196   4.510   7.184  2.0719  1.3027 -1.9370
  187SLPC   H3S21539   1.031   4.523   7.108  0.2131 -0.3723  0.2699
  187SLPC   C2421540   1.094   4.697   7.224  0.2004  0.7015 -0.0421
  187SLPC   H4R21541   1.050   4.636   7.305  0.9804  0.0913 -0.0612
  187SLPC   H4S21542   1.015   4.760   7.179 -1.5359 -1.3023  0.0695
  187SLPC   C2521543   1.229   4.767   7.264  0.2825  0.1701 -0.7263
  187SLPC   H5R21544   1.254   4.840   7.185 -1.7150  1.5250 -0.1921
  187SLPC   H5S21545   1.303   4.690   7.295 -0.1825  0.1163  0.3091
  187SLPC   C2621546   1.200   4.842   7.397 -0.2163  0.4691 -0.1480
  187SLPC   H6R21547   1.290   4.891   7.440  0.0625 -0.9858  1.0055
  187SLPC   H6S21548   1.173   4.765   7.473 -0.4279  0.2243 -0.4705
  187SLPC   C2721549   1.091   4.948   7.374 -0.2167 -0.2106 -0.1727
  187SLPC   H7R21550   0.996   4.896   7.349 -0.6381  0.4373  0.0537
  187SLPC   H7S21551   1.135   5.002   7.287 -0.0577  1.3233  0.8222
  187SLPC   C2821552   1.066   5.047   7.488 -0.4658  0.5699 -0.0915
  187SLPC   H8R21553   0.978   5.108   7.458 -0.6571 -0.0869 -0.9189
  187SLPC   H8S21554   1.151   5.119   7.482 -0.2321  0.1775 -3.2388
  187SLPC   C2921555   1.039   4.982   7.618  0.9710 -0.4034 -0.3530
  187SLPC   H9R21556   0.939   4.940   7.634 -1.5256  4.6314 -0.6236
  187SLPC  C21021557   1.126   4.960   7.716  0.0961 -0.0647  0.2209
  187SLPC  H10R21558   1.082   4.923   7.810  1.6398 -0.4875  0.8013
  187SLPC  C21121559   1.276   4.991   7.715  0.1879 -0.2363 -0.7496
  187SLPC  H11R21560   1.305   5.024   7.613 -1.8128 -0.5365 -1.4755
  187SLPC  H11S21561   1.332   4.896   7.730  1.5241  0.4067 -1.4685
  187SLPC  C21221562   1.316   5.097   7.816 -0.2213 -0.7759 -0.2223
  187SLPC  H12R21563   1.258   5.107   7.909  1.4745  1.2934  0.6724
  187SLPC  C21321564   1.427   5.170   7.805 -0.1662  0.2265  0.5302
  187SLPC  H13R21565   1.454   5.233   7.891 -0.7616 -0.3072  1.1232
  187SLPC  C21421566   1.521   5.160   7.689 -0.6019  0.6509 -0.8382
  187SLPC  H14R21567   1.519   5.063   7.636  0.2988  0.5240 -0.6540
  187SLPC  H14S21568   1.627   5.174   7.718 -0.3975 -0.3908 -1.0464
  187SLPC  C21521569   1.490   5.280   7.598 -0.4572 -0.1925  0.4602
  187SLPC  H15R21570   1.488   5.370   7.663  0.6241  0.2216 -0.0448
  187SLPC  H15S21571   1.390   5.258   7.557  0.1905  1.2478 -2.1507
  187SLPC  C21621572   1.597   5.306   7.483 -0.4543 -0.2185 -0.3299
  187SLPC  H16R21573   1.594   5.216   7.417  1.2200 -0.3188 -0.3240
  187SLPC  H16S21574   1.706   5.305   7.507 -0.0911  2.8493 -1.3989
  187SLPC  C21721575   1.552   5.420   7.384 -0.4205 -0.3756 -0.1318
  187SLPC  H17R21576   1.634   5.425   7.309  0.0273  1.6347  0.4503
  187SLPC  H17S21577   1.554   5.511   7.446 -0.4128 -0.7612  0.4399
  187SLPC  C21821578   1.417   5.407   7.319  0.2234 -0.7789  0.7325
  187SLPC  H18R21579   1.339   5.356   7.380 -3.3008  2.1585 -0.9554
  187SLPC  H18S21580   1.422   5.350   7.223  0.2324 -0.1716  0.3663
  187SLPC  H18T21581   1.365   5.502   7.298  1.0504  0.4924  3.9908
  187SLPC   C3321582   1.962   4.291   7.016  0.2267  0.2910  0.1017
  187SLPC   H3X21583   1.990   4.393   7.050  2.3511 -0.4844  0.9022
  187SLPC   H3Y21584   2.003   4.278   6.914  0.1292 -1.6130  0.2616
  187SLPC   C3421585   1.995   4.187   7.121  0.4243 -0.5117 -0.3398
  187SLPC   H4X21586   2.101   4.169   7.150  0.9246  0.6313 -1.3731
  187SLPC   H4Y21587   1.951   4.091   7.087 -1.0529  0.5632 -1.5459
  187SLPC   C3521588   1.936   4.237   7.251  0.0436 -0.9331  0.9298
  187SLPC   H5X21589   1.826   4.223   7.251  0.2368 -2.7042  1.2958
  187SLPC   H5Y21590   1.965   4.342   7.273 -0.8625 -0.6498  0.8104
  187SLPC   C3621591   1.989   4.167   7.371  0.5694  0.4604  0.3109
  187SLPC   H6X21592   2.097   4.189   7.377  0.2888  2.2009 -0.4761
  187SLPC   H6Y21593   1.978   4.058   7.353  1.9711  0.1992  0.9258
  187SLPC   C3721594   1.926   4.213   7.501 -0.6056 -0.3733  0.3005
  187SLPC   H7X21595   1.942   4.320   7.529 -2.0282 -0.7087  2.5990
  187SLPC   H7Y21596   1.817   4.201   7.485 -0.8669  0.1695  1.5386
  187SLPC   C3821597   1.980   4.126   7.622  0.3401  0.5734  0.4837
  187SLPC   H8X21598   2.090   4.111   7.618  0.6805  2.5685  1.1344
  187SLPC   H8Y21599   1.934   4.026   7.609 -1.2416  0.8190  3.3347
  187SLPC   C3921600   1.942   4.192   7.753 -0.7315  0.0032 -0.0717
  187SLPC   H9X21601   1.837   4.229   7.750 -1.0625 -1.0116 -1.6825
  187SLPC   H9Y21602   2.003   4.282   7.776 -0.7714 -0.4407  2.0022
  187SLPC  C31021603   1.943   4.090   7.869  0.1052 -0.9376  0.1731
  187SLPC  H10X21604   2.044   4.043   7.881  0.3764 -0.4430 -0.1531
  187SLPC  H10Y21605   1.859   4.019   7.852 -2.0584  0.7792  2.8621
  187SLPC  C31121606   1.897   4.149   8.001 -0.4955  0.2283 -0.6690
  187SLPC  H11X21607   1.797   4.194   7.983 -1.0034 -1.2778 -1.8544
  187SLPC  H11Y21608   1.964   4.232   8.032 -1.0756  0.8621 -1.0669
  187SLPC  C31221609   1.876   4.043   8.110 -0.5001 -0.0321 -0.5035
  187SLPC  H12X21610   1.807   4.082   8.189  0.0844 -1.0300  0.5364
  187SLPC  H12Y21611   1.976   4.025   8.156 -0.2709  0.2126 -0.9000
  187SLPC  C31321612   1.835   3.904   8.065 -0.2388 -0.0593 -0.5214
  187SLPC  H13X21613   1.907   3.852   7.999 -1.3131 -1.6865 -0.4862
  187SLPC  H13Y21614   1.737   3.920   8.015 -1.4566 -2.3221  0.9309
  187SLPC  C31421615   1.803   3.807   8.179 -0.5468  0.5826 -0.3610
  187SLPC  H14X21616   1.789   3.702   8.147 -2.4387 -0.0245  2.1585
  187SLPC  H14Y21617   1.715   3.852   8.229 -0.1299 -1.1142  2.0733
  187SLPC  C31521618   1.905   3.801   8.295 -0.0271 -0.4007 -0.0135
  187SLPC  H15X21619   1.894   3.889   8.362  1.9972 -1.4207  1.7944
  187SLPC  H15Y21620   2.007   3.789   8.252  0.5341  0.1257  1.1108
  187SLPC  C31621621   1.868   3.682   8.387  0.2082  0.1131  0.4206
  187SLPC  H16X21622   1.884   3.595   8.320 -1.8231  0.0045  0.0087
  187SLPC  H16Y21623   1.759   3.671   8.403 -0.0300  1.9365  0.3015
  187SLPC  C31721624   1.942   3.678   8.513  0.3772 -0.0740  0.4984
  187SLPC  H17X21625   1.948   3.780   8.559  2.7059  0.0424  0.0403
  187SLPC  H17Y21626   2.048   3.654   8.492  0.8214  2.9358 -1.3288
  187SLPC  C31821627   1.886   3.566   8.600  0.0290 -0.3840 -0.0185
  187SLPC  H18X21628   1.779   3.587   8.622 -0.0681 -0.3547 -0.5094
  187SLPC  H18Y21629   1.931   3.563   8.701 -0.3519  1.3944  0.2427
  187SLPC  H18Z21630   1.893   3.467   8.551 -0.1572  0.1359 -1.1197
  188SLPC     N21631   0.398   6.327   6.569  0.0281  0.2825 -0.0185
  188SLPC   C1321632   0.303   6.267   6.665  0.3810  0.5867  0.4409
  188SLPC  H13A21633   0.330   6.276   6.769 -1.4309 -1.0290  1.1088
  188SLPC  H13B21634   0.204   6.307   6.657 -0.5089 -1.1283  2.1358
  188SLPC  H13C21635   0.283   6.164   6.639 -3.1475  1.5656 -1.3911
  188SLPC   C1421636   0.334   6.385   6.444  0.1155 -0.8336  0.3588
  188SLPC  H14A21637   0.407   6.393   6.365  1.6099  0.5081  1.7883
  188SLPC  H14B21638   0.248   6.329   6.410 -0.5276 -0.1363  0.8151
  188SLPC  H14C21639   0.291   6.479   6.477 -2.1645 -1.6086 -0.2302
  188SLPC   C1521640   0.500   6.211   6.546  0.5309 -0.7437 -0.3970
  188SLPC  H15A21641   0.467   6.149   6.465  1.5294 -1.0656 -0.5714
  188SLPC  H15B21642   0.601   6.248   6.536  0.4674 -0.3085  0.4568
  188SLPC  H15C21643   0.503   6.147   6.633 -0.6545 -2.3565 -1.4969
  188SLPC   C1221644   0.458   6.444   6.644  0.5866 -0.0573  0.3193
  188SLPC  H12A21645   0.497   6.404   6.736 -0.6116 -1.4873  0.2358
  188SLPC  H12B21646   0.377   6.508   6.675  0.4157  0.4253 -1.0294
  188SLPC   C1121647   0.562   6.534   6.578 -0.1749 -0.0794  0.1212
  188SLPC  H11A21648   0.639   6.467   6.533 -0.5183 -0.3047 -0.1277
  188SLPC  H11B21649   0.621   6.588   6.656 -2.0361 -1.3798  2.5755
  188SLPC     P21650   0.422   6.742   6.508  0.1214 -0.1385  0.1771
  188SLPC   O1321651   0.488   6.851   6.437 -0.4293 -0.1469 -0.1283
  188SLPC   O1421652   0.281   6.721   6.485 -0.2928  0.4033 -0.4579
  188SLPC   O1221653   0.504   6.612   6.475  0.0067 -0.8002  0.4860
  188SLPC   O1121654   0.446   6.766   6.662 -0.6244 -0.1238 -0.2047
  188SLPC    C121655   0.472   6.900   6.714 -0.0013  0.2502  0.2503
  188SLPC    HA21656   0.574   6.915   6.755  0.7635  1.4735 -1.8993
  188SLPC    HB21657   0.458   6.979   6.637  0.4833  0.8986  0.8183
  188SLPC    C221658   0.373   6.950   6.827 -0.2660  0.6394 -0.1469
  188SLPC    HS21659   0.280   6.986   6.780 -0.3609 -0.3934 -0.8010
  188SLPC   O2121660   0.428   7.055   6.911  0.0744  0.7206 -0.1679
  188SLPC   C2121661   0.453   7.174   6.847 -0.4379  0.9435 -0.1151
  188SLPC   O2221662   0.446   7.193   6.729 -0.9520  0.3746  0.4962
  188SLPC   C2221663   0.475   7.281   6.954 -0.8071 -0.0927 -0.2196
  188SLPC   H2R21664   0.504   7.235   7.051  0.9744  0.1173 -0.6005
  188SLPC   H2S21665   0.571   7.329   6.924 -0.4626 -1.5258 -1.5336
  188SLPC    C321666   0.348   6.823   6.908  0.3487  0.1785 -0.8883
  188SLPC    HX21667   0.448   6.782   6.930 -0.6869 -1.3914  1.2605
  188SLPC    HY21668   0.297   6.752   6.840 -0.3048 -0.8490  0.6239
  188SLPC   O3121669   0.276   6.855   7.026 -0.0138  0.3956  0.4099
  188SLPC   C3121670   0.148   6.883   7.014  1.0498 -0.1948 -0.4243
  188SLPC   O3221671   0.087   6.887   6.905  0.2554  0.3675 -0.0821
  188SLPC   C3221672   0.076   6.898   7.149 -0.9741 -0.2431 -0.3802
  188SLPC   H2X21673  -0.005   6.823   7.136  0.3910 -2.1994  1.7498
  188SLPC   H2Y21674   0.028   6.998   7.161 -1.7930 -0.4356 -1.8122
  188SLPC   C2321675   0.354   7.371   6.972 -0.1087  0.3331 -0.4989
  188SLPC   H3R21676   0.309   7.387   6.872 -0.1511 -0.3527 -0.5897
  188SLPC   H3S21677   0.382   7.469   7.016 -0.0274  0.0032  0.2071
  188SLPC   C2421678   0.241   7.314   7.065  0.1188  0.5724 -0.6382
  188SLPC   H4R21679   0.197   7.212   7.058 -0.0629  0.5471  0.6301
  188SLPC   H4S21680   0.156   7.380   7.038 -0.0456  0.3267 -0.7243
  188SLPC   C2521681   0.274   7.339   7.209 -0.3652  0.3137 -1.3061
  188SLPC   H5R21682   0.279   7.448   7.234  1.4194 -0.3847  2.0219
  188SLPC   H5S21683   0.371   7.296   7.243  0.2460 -0.1690 -3.5007
  188SLPC   C2621684   0.162   7.291   7.302  0.7019 -0.1917 -0.3049
  188SLPC   H6R21685   0.152   7.181   7.288  5.6729 -0.7253 -1.4207
  188SLPC   H6S21686   0.063   7.338   7.281  1.1419  0.2604 -1.4605
  188SLPC   C2721687   0.187   7.301   7.454  0.2732  0.0957 -0.0156
  188SLPC   H7R21688   0.100   7.256   7.505 -0.1089 -1.2826 -1.7799
  188SLPC   H7S21689   0.191   7.408   7.483 -1.3280  0.1874 -0.0395
  188SLPC   C2821690   0.315   7.225   7.520  0.2514  0.0706 -0.6142
  188SLPC   H8R21691   0.401   7.229   7.451  0.7732  1.4066  0.0821
  188SLPC   H8S21692   0.283   7.120   7.541 -1.2558  0.2175 -1.9744
  188SLPC   C2921693   0.363   7.288   7.649 -0.1996  0.6944  0.2418
  188SLPC   H9R21694   0.440   7.366   7.641  0.5625  0.0221  0.8647
  188SLPC  C21021695   0.304   7.273   7.769  0.8590 -0.4185 -0.5388
  188SLPC  H10R21696   0.358   7.315   7.856  1.7473 -0.7529 -0.9224
  188SLPC  C21121697   0.181   7.196   7.802 -0.1105 -0.2582  0.5596
  188SLPC  H11R21698   0.142   7.147   7.711 -1.4717  1.9074 -0.0821
  188SLPC  H11S21699   0.103   7.269   7.834  0.4717  0.1844  0.9957
  188SLPC  C21221700   0.213   7.097   7.911 -0.2049  0.1848 -0.3281
  188SLPC  H12R21701   0.269   7.005   7.893  1.1205  0.6501  1.1304
  188SLPC  C21321702   0.177   7.116   8.039 -0.3220 -0.1149 -0.4715
  188SLPC  H13R21703   0.202   7.036   8.110  0.7802  1.6026  1.1645
  188SLPC  C21421704   0.106   7.230   8.102  0.3703 -0.3468 -0.1840
  188SLPC  H14R21705   0.055   7.195   8.194  0.2335 -0.9171 -0.4747
  188SLPC  H14S21706   0.022   7.264   8.037 -0.8509  1.0312  1.9912
  188SLPC  C21521707   0.191   7.360   8.137  0.4151  0.8139  0.5409
  188SLPC  H15R21708   0.130   7.443   8.179 -2.7212 -0.8085 -0.5351
  188SLPC  H15S21709   0.215   7.398   8.036 -1.3854 -1.7553 -0.9643
  188SLPC  C21621710   0.316   7.344   8.225 -0.0328 -0.2096  0.0919
  188SLPC  H16R21711   0.390   7.412   8.177 -0.1961  0.0455  0.1975
  188SLPC  H16S21712   0.366   7.245   8.216 -0.9693 -0.7282  0.5516
  188SLPC  C21721713   0.301   7.389   8.366  1.1413 -0.3261 -0.3430
  188SLPC  H17R21714   0.199   7.355   8.394  1.6171 -0.3668  1.4709
  188SLPC  H17S21715   0.307   7.500   8.368  2.2688 -0.3815 -0.3969
  188SLPC  C21821716   0.396   7.333   8.469 -0.2850 -0.1419  0.0319
  188SLPC  H18R21717   0.494   7.383   8.456 -1.3821  2.0376 -0.2598
  188SLPC  H18S21718   0.411   7.223   8.461  2.2835  0.0306  1.3316
  188SLPC  H18T21719   0.366   7.349   8.575 -2.8631 -0.3283 -0.6121
  188SLPC   C3321720   0.168   6.862   7.271  0.1704 -0.2057  0.6005
  188SLPC   H3X21721   0.242   6.945   7.274 -1.6908  1.5224  0.3404
  188SLPC   H3Y21722   0.223   6.766   7.254 -1.5701 -1.0872 -0.2831
  188SLPC   C3421723   0.095   6.834   7.401 -0.5836  0.6563 -0.6875
  188SLPC   H4X21724   0.027   6.748   7.382 -0.3133  0.6524 -1.6665
  188SLPC   H4Y21725   0.043   6.928   7.430  1.9576  1.5164  1.4785
  188SLPC   C3521726   0.187   6.803   7.518 -0.0102 -0.6685 -0.2633
  188SLPC   H5X21727   0.248   6.895   7.531 -0.4799 -0.2876 -0.7207
  188SLPC   H5Y21728   0.247   6.714   7.489  1.8588 -0.3865  2.3652
  188SLPC   C3621729   0.125   6.785   7.652  0.0102 -0.1190 -0.2269
  188SLPC   H6X21730   0.048   6.705   7.656  1.6838 -1.7509  2.7924
  188SLPC   H6Y21731   0.082   6.876   7.700  0.8743 -0.3255  0.9973
  188SLPC   C3721732   0.238   6.742   7.749  0.1941  0.6212  0.2550
  188SLPC   H7X21733   0.320   6.814   7.727  1.0377 -0.4814 -0.3038
  188SLPC   H7Y21734   0.275   6.647   7.706 -1.0609 -0.0603  0.6297
  188SLPC   C3821735   0.204   6.725   7.899  0.4491 -0.7156  0.8563
  188SLPC   H8X21736   0.144   6.632   7.899 -0.0358 -0.4685 -1.4172
  188SLPC   H8Y21737   0.141   6.811   7.927  1.1911  0.4402 -0.8431
  188SLPC   C3921738   0.321   6.710   8.001 -0.0069 -0.2879 -0.0393
  188SLPC   H9X21739   0.375   6.806   8.001  0.2646 -0.4322  0.7007
  188SLPC   H9Y21740   0.395   6.633   7.971 -0.0996 -1.1667  1.8529
  188SLPC  C31021741   0.261   6.683   8.145  0.6927 -0.5955  0.3578
  188SLPC  H10X21742   0.273   6.576   8.170 -0.8254 -0.8683 -0.0274
  188SLPC  H10Y21743   0.152   6.702   8.141  0.1356 -3.5062 -0.3380
  188SLPC  C31121744   0.339   6.761   8.251  0.5696  0.1532 -0.7413
  188SLPC  H11X21745   0.345   6.872   8.238 -1.9563  0.7069  1.9101
  188SLPC  H11Y21746   0.444   6.726   8.255  0.5357  0.2164  1.2655
  188SLPC  C31221747   0.271   6.762   8.388  0.2132  0.2657  0.2312
  188SLPC  H12X21748   0.165   6.793   8.370 -0.1000 -1.4576 -1.0807
  188SLPC  H12Y21749   0.316   6.833   8.461  2.8633 -1.6034  0.5231
  188SLPC  C31321750   0.256   6.634   8.466 -0.1278 -0.0222  0.1609
  188SLPC  H13X21751   0.199   6.556   8.411  0.5973 -0.2432 -0.2933
  188SLPC  H13Y21752   0.204   6.663   8.559  0.2098  0.5982  0.1603
  188SLPC  C31421753   0.388   6.561   8.503  0.2387  0.2973 -0.4506
  188SLPC  H14X21754   0.456   6.566   8.415  1.7111  0.1434  0.6476
  188SLPC  H14Y21755   0.368   6.457   8.535 -3.1719  0.9351 -0.1168
  188SLPC  C31521756   0.450   6.636   8.619 -0.5487  0.2231 -0.5640
  188SLPC  H15X21757   0.378   6.646   8.702 -0.1421 -1.6264  0.0744
  188SLPC  H15Y21758   0.491   6.733   8.584  1.0378 -0.3495 -0.3649
  188SLPC  C31621759   0.571   6.551   8.661  0.6970  0.6037 -0.6736
  188SLPC  H16X21760   0.607   6.499   8.570  0.4256  0.1493 -0.5218
  188SLPC  H16Y21761   0.546   6.470   8.733  1.2881  0.2437 -0.8675
  188SLPC  C31721762   0.687   6.638   8.713  0.6381  0.0262  0.6218
  188SLPC  H17X21763   0.741   6.681   8.627 -0.8738  1.8546  0.5253
  188SLPC  H17Y21764   0.757   6.563   8.757  0.3810 -1.0848 -0.8040
  188SLPC  C31821765   0.658   6.741   8.817  0.4773  0.6854 -0.0225
  188SLPC  H18X21766   0.742   6.796   8.863 -0.2673  3.0232 -1.3006
  188SLPC  H18Y21767   0.615   6.688   8.905  1.9007  1.3051  1.0818
  188SLPC  H18Z21768   0.586   6.818   8.782  2.2747  1.3198 -2.6679
  189SLPC     N21769   3.700   0.623   6.410 -0.0151  0.2827  0.0292
  189SLPC   C1321770   3.756   0.571   6.280 -0.3455 -0.4337  0.4609
  189SLPC  H13A21771   3.808   0.478   6.298 -1.0287 -1.3147 -1.7841
  189SLPC  H13B21772   3.679   0.547   6.207  0.3392  0.8823 -0.7376
  189SLPC  H13C21773   3.822   0.651   6.252 -0.5448 -0.2687  0.4603
  189SLPC   C1421774   3.643   0.754   6.374 -0.6491  0.5309 -0.0186
  189SLPC  H14A21775   3.599   0.802   6.460 -0.8802 -0.7472  0.6086
  189SLPC  H14B21776   3.724   0.813   6.336  1.1897 -1.5983  0.3662
  189SLPC  H14C21777   3.569   0.742   6.296 -0.9446  0.9620  0.1942
  189SLPC   C1521778   3.808   0.637   6.516  0.9934 -0.3063  0.1570
  189SLPC  H15A21779   3.898   0.684   6.481 -0.0544  0.6405 -1.3633
  189SLPC  H15B21780   3.763   0.695   6.595 -1.2911 -1.2936 -0.3384
  189SLPC  H15C21781   3.832   0.538   6.554 -1.4051 -0.9492  0.1585
  189SLPC   C1221782   3.585   0.537   6.455 -0.1402 -0.2324  0.4397
  189SLPC  H12A21783   3.628   0.439   6.468 -0.4819 -0.3202  0.9397
  189SLPC  H12B21784   3.509   0.529   6.378 -0.5581 -0.3332  0.8568
  189SLPC   C1121785   3.514   0.576   6.586  0.9035  0.4563 -0.4223
  189SLPC  H11A21786   3.583   0.591   6.671  0.6802 -3.1431  0.5479
  189SLPC  H11B21787   3.456   0.486   6.615  2.8271 -0.5760  0.4574
  189SLPC     P21788   3.299   0.680   6.494 -0.0482 -0.0849 -0.1434
  189SLPC   O1321789   3.229   0.812   6.485 -0.4058 -0.4121 -0.7324
  189SLPC   O1421790   3.320   0.600   6.372  0.2197 -0.0703  0.6763
  189SLPC   O1221791   3.435   0.692   6.575 -0.6603  0.1275  0.0143
  189SLPC   O1121792   3.200   0.592   6.578 -0.0080 -0.0820  0.1086
  189SLPC    C121793   3.154   0.660   6.698  0.0505  0.0454 -0.0913
  189SLPC    HA21794   3.233   0.724   6.743  0.3227 -1.9203  2.5142
  189SLPC    HB21795   3.061   0.718   6.688  0.4931  0.8802  0.5300
  189SLPC    C221796   3.127   0.566   6.822  0.2182  0.2200  0.3172
  189SLPC    HS21797   3.042   0.502   6.792  1.2114  0.0591 -2.3791
  189SLPC   O2121798   3.107   0.645   6.935 -0.8329  0.8284  0.7172
  189SLPC   C2121799   2.994   0.622   6.991 -0.1270 -0.6206  0.0487
  189SLPC   O2221800   2.904   0.552   6.941 -0.2474 -0.2505  0.0029
  189SLPC   C2221801   2.984   0.696   7.129 -0.6607 -0.2050 -0.6004
  189SLPC   H2R21802   3.013   0.801   7.107 -1.5565  0.0732 -0.4770
  189SLPC   H2S21803   2.878   0.694   7.161 -0.3307  0.6587  0.6116
  189SLPC    C321804   3.249   0.474   6.847 -0.2132 -0.6754  0.2014
  189SLPC    HX21805   3.337   0.542   6.837 -0.9172  0.3324  0.6968
  189SLPC    HY21806   3.246   0.411   6.756  1.4809  0.8756 -0.9864
  189SLPC   O3121807   3.250   0.411   6.980 -0.1573  0.3962  0.5107
  189SLPC   C3121808   3.373   0.366   7.001  0.4567  0.0927 -0.7166
  189SLPC   O3221809   3.474   0.382   6.935  1.0458  0.7430  0.0678
  189SLPC   C3221810   3.366   0.273   7.131 -0.0639 -0.5199  0.2921
  189SLPC   H2X21811   3.403   0.173   7.099 -0.3508 -0.3433 -0.6132
  189SLPC   H2Y21812   3.260   0.256   7.158 -0.1623 -1.3416 -0.5879
  189SLPC   C2321813   3.064   0.624   7.241  0.3757 -0.0239  0.0318
  189SLPC   H3R21814   3.154   0.684   7.268 -0.9959  1.1902  2.2882
  189SLPC   H3S21815   3.100   0.525   7.208  0.7718  0.4901 -1.1104
  189SLPC   C2421816   2.977   0.592   7.365 -0.1304  0.0837 -0.2642
  189SLPC   H4R21817   2.921   0.503   7.329  0.2724  0.1126 -0.9883
  189SLPC   H4S21818   2.918   0.685   7.380 -0.7394 -0.6252  2.2503
  189SLPC   C2521819   3.042   0.575   7.504  0.5743  0.2783  0.4038
  189SLPC   H5R21820   3.118   0.493   7.510 -0.0057 -0.4676 -1.6434
  189SLPC   H5S21821   2.961   0.546   7.574  0.3424 -1.0527 -0.3879
  189SLPC   C2621822   3.103   0.710   7.543  0.6193 -0.0603 -0.1322
  189SLPC   H6R21823   3.032   0.794   7.528  2.7920  1.8986  0.0110
  189SLPC   H6S21824   3.185   0.739   7.474  0.1739  0.7351 -0.3425
  189SLPC   C2721825   3.150   0.711   7.686 -0.2202  0.1169 -0.6747
  189SLPC   H7R21826   3.235   0.643   7.708 -0.1630  0.9253  1.9877
  189SLPC   H7S21827   3.066   0.668   7.746  0.0428 -1.4194 -1.3467
  189SLPC   C2821828   3.190   0.848   7.742 -0.5153  0.0612 -0.3449
  189SLPC   H8R21829   3.199   0.838   7.853  2.0365 -0.6177 -0.5475
  189SLPC   H8S21830   3.113   0.923   7.715  0.6446  0.5295 -2.5501
  189SLPC   C2921831   3.322   0.896   7.694  0.0176  0.1229 -0.1579
  189SLPC   H9R21832   3.409   0.834   7.720  0.9697  1.0536 -1.0242
  189SLPC  C21021833   3.345   1.007   7.621  0.5438  0.5292 -0.1178
  189SLPC  H10R21834   3.446   1.040   7.594  0.1746  4.0678  2.0966
  189SLPC  C21121835   3.233   1.101   7.574 -0.2526  0.5818 -0.2561
  189SLPC  H11R21836   3.154   1.104   7.652 -2.0592 -3.4458 -1.6310
  189SLPC  H11S21837   3.180   1.072   7.480  0.1737 -0.9738 -0.0446
  189SLPC  C21221838   3.294   1.238   7.549  0.5264  0.3066 -0.6676
  189SLPC  H12R21839   3.276   1.272   7.446 -1.3149  1.9057  0.1175
  189SLPC  C21321840   3.353   1.321   7.639  0.0429 -0.0422  0.5297
  189SLPC  H13R21841   3.385   1.419   7.603 -1.3931  0.6117  0.9610
  189SLPC  C21421842   3.371   1.289   7.782 -0.0718  0.1307 -0.0711
  189SLPC  H14R21843   3.482   1.286   7.793 -0.2209 -1.1820  1.3026
  189SLPC  H14S21844   3.324   1.191   7.802 -0.5747 -0.3214 -2.9208
  189SLPC  C21521845   3.309   1.398   7.881 -0.0499  0.1855  0.2880
  189SLPC  H15R21846   3.353   1.500   7.868  1.2821 -0.5010 -0.8290
  189SLPC  H15S21847   3.334   1.370   7.985 -0.3806 -3.8792 -0.5780
  189SLPC  C21621848   3.154   1.419   7.876 -0.3899  0.3762 -0.4573
  189SLPC  H16R21849   3.095   1.328   7.852 -1.0525  0.8159 -0.5130
  189SLPC  H16S21850   3.132   1.485   7.790 -1.4943  0.4190 -0.1498
  189SLPC  C21721851   3.090   1.477   7.999  0.8184 -0.2463  0.1905
  189SLPC  H17R21852   3.092   1.408   8.086  1.3850 -0.1474  0.2608
  189SLPC  H17S21853   2.982   1.495   7.979  0.9472  3.0811  1.7618
  189SLPC  C21821854   3.158   1.605   8.065  0.6147  0.0786  0.0336
  189SLPC  H18R21855   3.122   1.631   8.167 -1.0505  5.0082 -1.5387
  189SLPC  H18S21856   3.133   1.693   8.002 -0.7667  0.9827  1.7479
  189SLPC  H18T21857   3.269   1.592   8.060  0.4383 -1.7038  0.0881
  189SLPC   C3321858   3.447   0.330   7.250  0.2569  0.1840  0.5056
  189SLPC   H3X21859   3.554   0.350   7.231  0.4473 -1.2861 -0.1605
  189SLPC   H3Y21860   3.461   0.250   7.325 -0.5279 -1.9217 -1.4637
  189SLPC   C3421861   3.373   0.452   7.319 -0.0618  0.6767 -0.3647
  189SLPC   H4X21862   3.274   0.416   7.354  0.4597 -1.2293 -0.7131
  189SLPC   H4Y21863   3.351   0.525   7.238 -1.6997  0.6922  0.0722
  189SLPC   C3521864   3.468   0.520   7.418  0.2026  0.1542 -0.6791
  189SLPC   H5X21865   3.426   0.622   7.435 -2.2935 -0.9761  0.4007
  189SLPC   H5Y21866   3.565   0.527   7.364  0.2078 -1.4498 -0.9096
  189SLPC   C3621867   3.457   0.447   7.555  0.2963  0.0628 -0.1373
  189SLPC   H6X21868   3.506   0.349   7.540 -0.9290 -0.4389 -0.9796
  189SLPC   H6Y21869   3.351   0.422   7.577  0.6759 -0.5095  1.1471
  189SLPC   C3721870   3.510   0.544   7.665 -0.1389  0.1147 -0.4174
  189SLPC   H7X21871   3.455   0.639   7.648  0.9733  1.0308  0.9633
  189SLPC   H7Y21872   3.615   0.565   7.636  0.2265 -2.3592 -1.1114
  189SLPC   C3821873   3.485   0.486   7.801  0.4511 -0.7187  0.8387
  189SLPC   H8X21874   3.527   0.387   7.830 -2.2384 -2.1813  0.1137
  189SLPC   H8Y21875   3.377   0.457   7.807  0.4831 -0.5481  4.6681
  189SLPC   C3921876   3.509   0.570   7.925 -0.6298 -0.2670  0.2059
  189SLPC   H9X21877   3.565   0.661   7.895  1.5555 -0.2309  3.8611
  189SLPC   H9Y21878   3.564   0.517   8.005 -3.3536 -1.3054  1.5163
  189SLPC  C31021879   3.376   0.615   7.978  0.0847  0.6323  0.2807
  189SLPC  H10X21880   3.339   0.520   8.022  0.6161 -1.1149 -2.7560
  189SLPC  H10Y21881   3.311   0.640   7.892 -1.5883 -1.9615  0.6766
  189SLPC  C31121882   3.368   0.740   8.072  0.3253  0.3771 -0.0912
  189SLPC  H11X21883   3.261   0.754   8.098  0.4470  1.8461 -0.2853
  189SLPC  H11Y21884   3.400   0.830   8.016 -0.7567  1.3233  0.7518
  189SLPC  C31221885   3.442   0.707   8.202 -0.1178  0.4788 -0.4132
  189SLPC  H12X21886   3.547   0.678   8.182 -0.3702 -1.2883  0.6276
  189SLPC  H12Y21887   3.397   0.617   8.249 -2.0350  1.7075  0.2403
  189SLPC  C31321888   3.443   0.830   8.294  0.7155  0.3140  0.3303
  189SLPC  H13X21889   3.343   0.856   8.333  0.3121 -0.0045 -0.4645
  189SLPC  H13Y21890   3.476   0.918   8.235 -1.7822 -0.1911 -2.0187
  189SLPC  C31421891   3.537   0.813   8.410  0.0009 -0.8622  0.0343
  189SLPC  H14X21892   3.641   0.820   8.371  0.0193  0.3082  0.2752
  189SLPC  H14Y21893   3.531   0.712   8.456 -1.7270 -1.2631 -0.9557
  189SLPC  C31521894   3.533   0.930   8.510  0.0581  0.0359 -0.0885
  189SLPC  H15X21895   3.567   1.018   8.451 -0.0619 -1.6274 -2.8232
  189SLPC  H15Y21896   3.618   0.905   8.577 -0.5770 -1.0709  0.3415
  189SLPC  C31621897   3.409   0.950   8.591  0.1547 -0.4577 -0.2946
  189SLPC  H16X21898   3.393   0.859   8.651  0.6799  1.7992  3.5968
  189SLPC  H16Y21899   3.324   0.971   8.521 -0.3081  1.1420  0.6978
  189SLPC  C31721900   3.427   1.073   8.684  0.3491  0.9231 -0.1303
  189SLPC  H17X21901   3.450   1.158   8.617  0.3035  0.8957 -0.1813
  189SLPC  H17Y21902   3.516   1.057   8.749  0.1335  0.4579  0.0536
  189SLPC  C31821903   3.299   1.097   8.765 -0.8350  0.5808  0.2863
  189SLPC  H18X21904   3.271   1.011   8.831  0.3250  0.6477  0.8914
  189SLPC  H18Y21905   3.218   1.118   8.693  1.9820  0.7602 -3.1042
  189SLPC  H18Z21906   3.316   1.178   8.839 -0.0085  0.2031  0.5311
  190SLPC     N21907   4.245   5.414   6.361  0.1654 -0.0827 -0.2056
  190SLPC   C1321908   4.137   5.517   6.343  0.1258  0.3206  0.5815
  190SLPC  H13A21909   4.121   5.574   6.434 -1.5142 -0.0716  0.5756
  190SLPC  H13B21910   4.161   5.581   6.260 -1.6461  0.9330  0.5020
  190SLPC  H13C21911   4.046   5.461   6.326  0.6708 -0.4274  0.0894
  190SLPC   C1421912   4.260   5.353   6.225  0.4779 -0.1396 -0.2370
  190SLPC  H14A21913   4.161   5.316   6.204  0.3992  0.1190 -0.3183
  190SLPC  H14B21914   4.289   5.424   6.150  0.9076 -3.1555 -3.1962
  190SLPC  H14C21915   4.319   5.262   6.225 -0.5536 -0.8526  0.8507
  190SLPC   C1521916   4.205   5.322   6.464 -0.3242  0.2193  0.1601
  190SLPC  H15A21917   4.277   5.246   6.491  1.0372  1.3652 -0.0906
  190SLPC  H15B21918   4.187   5.377   6.555  2.2351  2.0183 -0.2927
  190SLPC  H15C21919   4.111   5.278   6.437  0.3564 -0.3921 -1.3785
  190SLPC   C1221920   4.383   5.475   6.387  0.3165  0.1765  0.2380
  190SLPC  H12A21921   4.425   5.525   6.301 -1.6078  0.7812 -0.3940
  190SLPC  H12B21922   4.453   5.394   6.399 -0.2958 -0.3144  0.5817
  190SLPC   C1121923   4.380   5.559   6.517  0.5347 -0.1057  0.5385
  190SLPC  H11A21924   4.480   5.602   6.540  0.7368  0.0202 -0.5306
  190SLPC  H11B21925   4.352   5.500   6.607  0.6327  0.2890  0.8355
  190SLPC     P21926   4.332   5.813   6.467  0.1394  0.1424  0.4255
  190SLPC   O1321927   4.431   5.802   6.357  0.1144  0.1400  1.2075
  190SLPC   O1421928   4.207   5.884   6.432  0.6260  0.3622  0.1966
  190SLPC   O1221929   4.283   5.672   6.517 -0.1444  0.0377  0.4682
  190SLPC   O1121930   4.394   5.885   6.594 -0.2757  0.4887  0.3792
  190SLPC    C121931   4.314   5.878   6.714  0.1068 -0.1228 -0.6470
  190SLPC    HA21932   4.209   5.904   6.688  0.0035  1.1364  0.8529
  190SLPC    HB21933   4.312   5.773   6.748  1.6792 -0.5658 -1.7980
  190SLPC    C221934   4.355   5.966   6.842 -0.0603  0.1623  0.0783
  190SLPC    HS21935   4.306   5.929   6.934  1.4468 -0.3441  0.7003
  190SLPC   O2121936   4.323   6.102   6.820 -0.2180  0.3669 -0.5287
  190SLPC   C2121937   4.196   6.141   6.829  0.1250 -0.4215  0.1310
  190SLPC   O2221938   4.101   6.071   6.867 -0.9191 -0.6040  0.3587
  190SLPC   C2221939   4.189   6.284   6.787 -0.1769  0.2313 -0.6672
  190SLPC   H2R21940   4.274   6.305   6.719  0.6139 -1.8536 -0.3716
  190SLPC   H2S21941   4.101   6.323   6.732 -1.4461  1.1356  1.8452
  190SLPC    C321942   4.506   5.951   6.854 -0.2332 -0.4261 -0.3222
  190SLPC    HX21943   4.546   5.980   6.754 -4.3969 -0.5114 -2.2093
  190SLPC    HY21944   4.545   5.847   6.863 -0.4325 -0.7846 -2.8412
  190SLPC   O3121945   4.565   6.047   6.951  0.2609 -0.4964  0.0351
  190SLPC   C3121946   4.561   6.017   7.075 -0.3802 -0.3342 -0.3738
  190SLPC   O3221947   4.546   5.901   7.114 -0.8109  0.2549 -0.3780
  190SLPC   C3221948   4.576   6.145   7.162  0.1258 -0.0657 -0.0954
  190SLPC   H2X21949   4.482   6.204   7.167 -0.4759 -0.6531 -2.7631
  190SLPC   H2Y21950   4.658   6.207   7.120 -1.4718  1.2653 -1.4094
  190SLPC   C2321951   4.204   6.385   6.908  0.4050 -0.6909 -0.2039
  190SLPC   H3R21952   4.231   6.483   6.864  1.6072 -1.3074 -0.9001
  190SLPC   H3S21953   4.284   6.349   6.977  0.8473  0.3058 -0.1746
  190SLPC   C2421954   4.088   6.409   7.005 -0.1563  0.1797  0.4259
  190SLPC   H4R21955   4.070   6.323   7.073  0.6156 -1.7420 -1.6648
  190SLPC   H4S21956   3.993   6.416   6.948 -0.2745  2.3302  0.8134
  190SLPC   C2521957   4.111   6.530   7.093  0.0551  0.2752 -0.0942
  190SLPC   H5R21958   4.016   6.556   7.144  0.5776 -0.0200  1.0695
  190SLPC   H5S21959   4.124   6.619   7.027 -0.5418  0.2139 -0.2979
  190SLPC   C2621960   4.218   6.506   7.194 -0.3798  0.2297 -0.1038
  190SLPC   H6R21961   4.316   6.485   7.147 -0.9724  1.4737 -1.9926
  190SLPC   H6S21962   4.190   6.422   7.262  0.8210  1.3478  1.8694
  190SLPC   C2721963   4.247   6.637   7.273  0.0574  0.5639 -0.2171
  190SLPC   H7R21964   4.235   6.722   7.203 -1.7325  0.2745 -0.3001
  190SLPC   H7S21965   4.347   6.625   7.320 -0.5269 -1.6220  0.5529
  190SLPC   C2821966   4.152   6.667   7.394 -0.2844  0.1862  0.1197
  190SLPC   H8R21967   4.055   6.694   7.348 -0.6714 -0.6783  0.4135
  190SLPC   H8S21968   4.181   6.766   7.436  1.3017  1.1688 -2.9387
  190SLPC   C2921969   4.139   6.558   7.494  0.3321  0.3066 -0.4119
  190SLPC   H9R21970   4.102   6.462   7.455  0.0394 -0.0622  0.7159
  190SLPC  C21021971   4.186   6.551   7.618 -0.1738 -0.2791 -0.3230
  190SLPC  H10R21972   4.158   6.463   7.677  0.1557 -0.1811 -0.0200
  190SLPC  C21121973   4.269   6.663   7.683  0.5422  0.0433 -0.2192
  190SLPC  H11R21974   4.193   6.719   7.743  2.5037  2.7426 -0.0809
  190SLPC  H11S21975   4.318   6.738   7.618  2.0354 -1.2977 -0.7095
  190SLPC  C21221976   4.375   6.591   7.767  0.6474 -0.0459  1.1323
  190SLPC  H12R21977   4.396   6.489   7.730 -1.5510 -0.0031 -0.4411
  190SLPC  C21321978   4.414   6.633   7.888  0.1302 -0.5020 -0.7147
  190SLPC  H13R21979   4.481   6.580   7.958 -1.5307 -0.0502  1.3219
  190SLPC  C21421980   4.377   6.768   7.942  0.6259 -0.0579 -0.4231
  190SLPC  H14R21981   4.355   6.836   7.857  2.3894  0.9269 -0.1470
  190SLPC  H14S21982   4.471   6.805   7.989  0.7469 -0.4768 -0.3349
  190SLPC  C21521983   4.259   6.790   8.038  0.5357  0.5968 -0.0298
  190SLPC  H15R21984   4.298   6.747   8.133  1.3845  0.4336 -0.4490
  190SLPC  H15S21985   4.162   6.740   8.015  0.8434 -0.5115  0.9758
  190SLPC  C21621986   4.238   6.937   8.075 -0.1541 -0.2812  0.3431
  190SLPC  H16R21987   4.203   6.989   7.983 -2.1726  1.3750  1.9524
  190SLPC  H16S21988   4.334   6.987   8.099  0.1386 -0.4616 -0.4042
  190SLPC  C21721989   4.133   6.969   8.177  0.4793  0.3264  0.1689
  190SLPC  H17R21990   4.132   7.079   8.196 -0.0858  0.1491  1.2852
  190SLPC  H17S21991   4.161   6.921   8.273  2.6984  1.4817  0.1506
  190SLPC  C21821992   3.987   6.932   8.159 -0.0683 -0.5446  0.5285
  190SLPC  H18R21993   3.944   6.967   8.063  0.2720 -2.7528 -0.5009
  190SLPC  H18S21994   3.933   6.967   8.249 -0.7625 -0.7873  0.2197
  190SLPC  H18T21995   3.976   6.821   8.160 -0.0859 -0.6013 -1.4160
  190SLPC   C3321996   4.610   6.094   7.305 -1.2257  0.4852  0.0184
  190SLPC   H3X21997   4.706   6.038   7.299  0.3842  3.0142  0.6608
  190SLPC   H3Y21998   4.524   6.039   7.348 -1.1057  1.2249  1.2596
  190SLPC   C3421999   4.639   6.207   7.394  0.4281 -0.3608  0.2658
  190SLPC   H4X22000   4.541   6.249   7.422  1.3402  0.7662  1.9554
  190SLPC   H4Y22001   4.689   6.288   7.337 -0.0473 -0.9019 -0.9433
  190SLPC   C3522002   4.707   6.171   7.522  0.2196 -0.2832 -0.3279
  190SLPC   H5X22003   4.816   6.162   7.502  0.2069 -1.1282 -0.0659
  190SLPC   H5Y22004   4.676   6.069   7.551  0.0021 -0.3299 -0.7222
  190SLPC   C3622005   4.673   6.254   7.655 -0.3138 -0.8142  0.6060
  190SLPC   H6X22006   4.693   6.195   7.747 -2.2855  0.5352  1.9784
  190SLPC   H6Y22007   4.567   6.286   7.656 -0.0195  0.2727  2.6553
  190SLPC   C3722008   4.769   6.374   7.671  0.2992 -0.3134 -0.3419
  190SLPC   H7X22009   4.761   6.435   7.578 -0.3417 -0.3061 -0.2861
  190SLPC   H7Y22010   4.870   6.329   7.673  0.8279  0.8414  1.0054
  190SLPC   C3822011   4.737   6.460   7.789 -0.6651  0.2960  0.7568
  190SLPC   H8X22012   4.627   6.471   7.780 -0.5531  0.1179 -1.4598
  190SLPC   H8Y22013   4.781   6.555   7.754 -1.4078  0.9588  1.5890
  190SLPC   C3922014   4.800   6.421   7.923 -0.2292  0.3083 -0.1857
  190SLPC   H9X22015   4.758   6.322   7.954  0.2961  0.0642 -0.2438
  190SLPC   H9Y22016   4.788   6.500   8.000  2.5066  0.1430  0.5215
  190SLPC  C31022017   4.956   6.417   7.922  0.5102 -0.1172  0.3071
  190SLPC  H10X22018   4.999   6.514   7.888 -2.0395  0.0811 -2.7856
  190SLPC  H10Y22019   4.984   6.335   7.852 -0.7407 -0.0032 -0.3571
  190SLPC  C31122020   5.023   6.365   8.050  0.0720 -0.2662 -0.5756
  190SLPC  H11X22021   5.127   6.338   8.024  0.8379  0.3162  1.6647
  190SLPC  H11Y22022   4.971   6.271   8.080  1.7858 -0.7135  1.1543
  190SLPC  C31222023   5.022   6.458   8.172 -0.6112  0.1871  0.4036
  190SLPC  H12X22024   4.914   6.482   8.182 -1.2563 -2.3450  0.1671
  190SLPC  H12Y22025   5.076   6.546   8.131  1.6122 -0.0203  2.6582
  190SLPC  C31322026   5.096   6.426   8.306  0.0790 -0.0185  0.0781
  190SLPC  H13X22027   5.192   6.370   8.301  1.3959  2.2461 -3.2687
  190SLPC  H13Y22028   5.030   6.353   8.357 -0.0221 -0.4471 -0.6554
  190SLPC  C31422029   5.118   6.546   8.395 -0.7139 -0.1237 -0.4394
  190SLPC  H14X22030   5.019   6.579   8.434  0.8551  2.1388  2.0573
  190SLPC  H14Y22031   5.150   6.639   8.343  0.1163  0.8550  1.6936
  190SLPC  C31522032   5.220   6.516   8.511  0.1771  0.2942  0.4696
  190SLPC  H15X22033   5.314   6.485   8.462  0.2940 -0.6330  1.2501
  190SLPC  H15Y22034   5.187   6.422   8.560  0.5751 -1.1043 -1.8120
  190SLPC  C31622035   5.256   6.623   8.614  0.3432  0.0284 -0.3936
  190SLPC  H16X22036   5.172   6.642   8.685  0.5921  1.2727 -0.4077
  190SLPC  H16Y22037   5.254   6.711   8.547 -0.8407 -0.0070 -0.4203
  190SLPC  C31722038   5.393   6.603   8.680 -0.7490 -0.2918 -0.0887
  190SLPC  H17X22039   5.473   6.577   8.608 -0.5232 -0.0443  0.0671
  190SLPC  H17Y22040   5.388   6.517   8.751  2.9180  0.6242  1.5195
  190SLPC  C31822041   5.451   6.725   8.758  0.2149 -0.3899 -0.4415
  190SLPC  H18X22042   5.553   6.712   8.800  0.7588  2.7194 -0.6096
  190SLPC  H18Y22043   5.379   6.745   8.840 -0.5875  0.5986 -1.3619
  190SLPC  H18Z22044   5.456   6.817   8.697 -0.0139  2.2958  3.2799
  191SLPC     N22045   2.083   3.951   5.891 -0.5283  0.2666 -0.1199
  191SLPC   C1322046   2.012   3.929   6.018  0.2152  0.3945 -0.1753
  191SLPC  H13A22047   1.916   3.881   6.016 -0.1488  1.1237 -0.9273
  191SLPC  H13B22048   2.075   3.867   6.081  1.5574  0.3370 -1.5146
  191SLPC  H13C22049   1.976   4.016   6.072  2.3352 -0.9875  3.9112
  191SLPC   C1422050   1.993   4.005   5.792 -0.3665  0.8582  0.9734
  191SLPC  H14A22051   2.044   4.007   5.697  0.5569  1.1970  1.4651
  191SLPC  H14B22052   1.894   3.962   5.797  0.2847 -0.7053  0.8950
  191SLPC  H14C22053   1.973   4.110   5.808 -0.3844  0.8703  0.8739
  191SLPC   C1522054   2.133   3.818   5.853 -0.2281 -0.0117 -0.2018
  191SLPC  H15A22055   2.174   3.814   5.753 -0.5337  1.2512 -0.3922
  191SLPC  H15B22056   2.209   3.793   5.926 -0.5434 -1.1819 -0.2503
  191SLPC  H15C22057   2.061   3.737   5.859 -0.1593  0.0037  1.0127
  191SLPC   C1222058   2.197   4.053   5.910 -0.0361 -0.1516 -0.8668
  191SLPC  H12A22059   2.164   4.134   5.974 -0.4169 -0.7008 -0.3643
  191SLPC  H12B22060   2.216   4.102   5.815  0.6728  1.0118 -0.1503
  191SLPC   C1122061   2.328   4.015   5.983 -0.6505  0.0749  0.1990
  191SLPC  H11A22062   2.386   4.109   5.991  0.2341 -0.4917  0.6094
  191SLPC  H11B22063   2.391   3.945   5.924  0.6254  0.0880  1.5008
  191SLPC     P22064   2.403   3.870   6.175  0.0578  0.2750 -0.1660
  191SLPC   O1322065   2.337   3.737   6.189  0.3853  0.1351 -0.2743
  191SLPC   O1422066   2.534   3.876   6.109 -0.3995  0.1797 -0.9973
  191SLPC   O1222067   2.305   3.972   6.119  0.4742 -0.0812  0.3408
  191SLPC   O1122068   2.428   3.913   6.319  0.3811 -0.3853  0.3781
  191SLPC    C122069   2.501   3.834   6.409 -0.3282  0.0579  0.2742
  191SLPC    HA22070   2.506   3.729   6.374 -1.3663  0.4401 -1.0977
  191SLPC    HB22071   2.607   3.869   6.403 -0.5426  0.5072 -1.2473
  191SLPC    C222072   2.448   3.847   6.552 -0.0644 -0.2931 -0.1851
  191SLPC    HS22073   2.520   3.788   6.613 -2.1863 -1.3051  1.4888
  191SLPC   O2122074   2.318   3.802   6.568 -0.7006  0.6481 -0.1869
  191SLPC   C2122075   2.298   3.671   6.566 -0.5367  0.7805 -0.3502
  191SLPC   O2222076   2.386   3.587   6.565  0.1565 -0.3583 -0.3206
  191SLPC   C2222077   2.155   3.648   6.548 -0.3280  0.2111 -0.6202
  191SLPC   H2R22078   2.090   3.738   6.549 -0.3714  0.1824 -0.7962
  191SLPC   H2S22079   2.160   3.612   6.443  0.9921  0.7760 -0.7580
  191SLPC    C322080   2.460   3.995   6.606  0.4370 -0.6717 -0.1177
  191SLPC    HX22081   2.386   4.067   6.566  0.5597 -0.3980  0.1367
  191SLPC    HY22082   2.558   4.036   6.571 -0.9532  1.3807 -1.8059
  191SLPC   O3122083   2.475   3.986   6.752 -0.1745 -0.1382  0.0408
  191SLPC   C3122084   2.360   3.995   6.813 -0.3473 -0.3125 -0.0285
  191SLPC   O3222085   2.254   4.014   6.759 -0.5560 -0.1495 -0.2119
  191SLPC   C3222086   2.381   3.956   6.964  0.1839 -0.1493 -0.2988
  191SLPC   H2X22087   2.448   3.867   6.970  0.5643  0.1556 -0.0135
  191SLPC   H2Y22088   2.281   3.951   7.012  0.2768 -0.4313 -0.1320
  191SLPC   C2322089   2.109   3.522   6.639 -0.1227  0.1054  0.7882
  191SLPC   H3R22090   2.196   3.454   6.639 -1.4356 -1.8373 -2.5293
  191SLPC   H3S22091   2.015   3.481   6.596  0.1826 -1.5129  1.5828
  191SLPC   C2422092   2.078   3.562   6.781 -0.5453  0.5076 -0.4339
  191SLPC   H4R22093   2.011   3.482   6.819  0.7475 -0.3478  0.1105
  191SLPC   H4S22094   2.006   3.648   6.788 -0.8804  0.1623  0.6750
  191SLPC   C2522095   2.197   3.557   6.882 -0.6406 -0.0368  0.4059
  191SLPC   H5R22096   2.264   3.644   6.864 -0.2495 -0.3028  0.5547
  191SLPC   H5S22097   2.256   3.464   6.864  2.6291  1.7012  1.3898
  191SLPC   C2622098   2.155   3.561   7.030 -0.1326 -0.0719 -0.0806
  191SLPC   H6R22099   2.129   3.460   7.067 -2.1015  0.7178  0.8648
  191SLPC   H6S22100   2.057   3.614   7.032 -1.5112 -2.4692 -0.3845
  191SLPC   C2722101   2.249   3.639   7.127  0.7637 -0.1626 -0.2294
  191SLPC   H7R22102   2.274   3.737   7.081  0.5902  0.6819  1.4013
  191SLPC   H7S22103   2.348   3.592   7.146  1.8107  1.3176 -1.7221
  191SLPC   C2822104   2.181   3.688   7.256  0.6827  0.0739  0.4879
  191SLPC   H8R22105   2.102   3.616   7.286 -0.4575  1.6435  1.3971
  191SLPC   H8S22106   2.132   3.787   7.245  0.4257  0.2763  2.9790
  191SLPC   C2922107   2.283   3.710   7.364 -0.2472 -0.1894  0.2391
  191SLPC   H9R22108   2.377   3.749   7.322 -1.4196  3.0386  0.3676
  191SLPC  C21022109   2.269   3.680   7.492  0.4071  0.0007  0.1729
  191SLPC  H10R22110   2.349   3.699   7.565  0.1242 -1.4892  0.9110
  191SLPC  C21122111   2.150   3.620   7.563 -0.7592  0.1038 -0.1631
  191SLPC  H11R22112   2.183   3.535   7.627  0.5114  0.1559 -0.7163
  191SLPC  H11S22113   2.076   3.575   7.494  0.0039 -0.1202 -0.8466
  191SLPC  C21222114   2.072   3.718   7.650 -0.0003  0.1129 -0.4329
  191SLPC  H12R22115   1.978   3.755   7.607  0.9364  0.2295 -2.5410
  191SLPC  C21322116   2.112   3.764   7.768  0.0013 -1.3725 -0.1344
  191SLPC  H13R22117   2.050   3.834   7.825  1.5111 -0.2536  0.2056
  191SLPC  C21422118   2.237   3.729   7.841  0.6085  0.2133  0.7333
  191SLPC  H14R22119   2.291   3.821   7.872 -0.1915  0.6074  0.9896
  191SLPC  H14S22120   2.317   3.687   7.777  1.5831  1.4494  1.1051
  191SLPC  C21522121   2.204   3.635   7.961 -0.1068  0.1145 -0.1486
  191SLPC  H15R22122   2.121   3.684   8.017 -0.5558  1.3832 -1.8166
  191SLPC  H15S22123   2.282   3.626   8.039 -0.3072  3.1060  0.5251
  191SLPC  C21622124   2.176   3.489   7.920  0.4223 -0.0839  1.1946
  191SLPC  H16R22125   2.266   3.445   7.871  1.4323 -0.0642  2.9660
  191SLPC  H16S22126   2.099   3.500   7.840 -0.0998 -0.4492  1.6425
  191SLPC  C21722127   2.114   3.399   8.038  0.3052 -0.6329  0.5239
  191SLPC  H17R22128   2.111   3.290   8.016  0.3273 -0.3897 -0.7588
  191SLPC  H17S22129   2.005   3.418   8.040  0.7654  2.8591 -0.2866
  191SLPC  C21822130   2.164   3.431   8.178 -0.1752  0.1459  0.0877
  191SLPC  H18R22131   2.131   3.532   8.214  1.4456  0.1923  1.5858
  191SLPC  H18S22132   2.275   3.432   8.176 -0.1515 -0.5930 -2.5266
  191SLPC  H18T22133   2.124   3.360   8.253 -0.4607 -0.2638 -0.4504
  191SLPC   C3322134   2.452   4.068   7.041  0.2480  0.5588  0.2578
  191SLPC   H3X22135   2.394   4.161   7.022 -0.5605  0.1647  0.7734
  191SLPC   H3Y22136   2.557   4.078   7.005 -0.0027  1.0049 -0.3557
  191SLPC   C3422137   2.447   4.034   7.191  0.9831 -0.4655  0.1920
  191SLPC   H4X22138   2.482   3.930   7.203 -2.1753 -1.4865  1.7307
  191SLPC   H4Y22139   2.338   4.031   7.212  0.8992 -1.8966 -0.3906
  191SLPC   C3522140   2.521   4.114   7.295  0.8079  0.0625 -0.6817
  191SLPC   H5X22141   2.472   4.211   7.315  0.0127 -0.5663  0.5614
  191SLPC   H5Y22142   2.626   4.127   7.261  0.9744 -0.4442 -0.3811
  191SLPC   C3622143   2.534   4.055   7.438  0.3678  0.1633 -0.2423
  191SLPC   H6X22144   2.614   4.111   7.492 -0.5291 -0.3821  1.7184
  191SLPC   H6Y22145   2.573   3.951   7.447  2.9174  1.0600 -0.0829
  191SLPC   C3722146   2.402   4.070   7.520 -0.4298 -0.1240  0.9376
  191SLPC   H7X22147   2.318   4.018   7.470  0.3249 -1.8891  1.4338
  191SLPC   H7Y22148   2.382   4.178   7.539  0.2473  0.5250 -1.6464
  191SLPC   C3822149   2.409   4.001   7.651 -0.0545  0.1671 -0.5098
  191SLPC   H8X22150   2.428   3.894   7.627  1.0097  0.6056 -1.7190
  191SLPC   H8Y22151   2.315   4.001   7.711  1.3649 -1.1218  1.8969
  191SLPC   C3922152   2.519   4.048   7.755  0.1875  0.0258 -0.2980
  191SLPC   H9X22153   2.502   4.153   7.786  2.2777  0.6178 -0.9994
  191SLPC   H9Y22154   2.614   4.038   7.698  0.5811 -1.8076  0.6117
  191SLPC  C31022155   2.525   3.958   7.878 -0.2781  0.0426 -0.3994
  191SLPC  H10X22156   2.552   3.856   7.844  0.1297 -0.4645  1.3069
  191SLPC  H10Y22157   2.421   3.948   7.917 -0.4129 -1.1103 -1.0338
  191SLPC  C31122158   2.631   4.001   7.985  0.6224 -0.2209  0.1541
  191SLPC  H11X22159   2.611   4.108   8.005 -4.6977 -0.7746 -0.8514
  191SLPC  H11Y22160   2.730   3.997   7.935  0.5132  2.1023 -0.3411
  191SLPC  C31222161   2.632   3.908   8.110 -0.5875 -0.1707 -0.1026
  191SLPC  H12X22162   2.662   3.807   8.076 -1.3287  0.1710 -1.9094
  191SLPC  H12Y22163   2.533   3.877   8.150  0.6458  0.9538  4.4708
  191SLPC  C31322164   2.721   3.955   8.224  0.0224 -0.0076 -0.0387
  191SLPC  H13X22165   2.692   4.056   8.259  0.1418 -0.3228  0.9951
  191SLPC  H13Y22166   2.824   3.974   8.188 -0.1859 -1.8362 -1.8341
  191SLPC  C31422167   2.726   3.854   8.341 -0.3642 -0.4787  0.0195
  191SLPC  H14X22168   2.739   3.760   8.283 -2.0503 -0.6710 -0.0847
  191SLPC  H14Y22169   2.636   3.836   8.403 -0.0933  1.6447  1.1323
  191SLPC  C31522170   2.839   3.878   8.441  0.0664  0.0759  0.3131
  191SLPC  H15X22171   2.822   3.979   8.484 -1.9239  0.3058 -0.9081
  191SLPC  H15Y22172   2.938   3.878   8.389 -1.2292  0.4868 -2.3492
  191SLPC  C31622173   2.846   3.771   8.549  0.2093  0.0817  0.1554
  191SLPC  H16X22174   2.841   3.665   8.518 -2.7380  0.5636 -1.4113
  191SLPC  H16Y22175   2.752   3.780   8.609  0.4496  1.0012  0.4183
  191SLPC  C31722176   2.969   3.792   8.647  0.8149 -0.2955 -0.6661
  191SLPC  H17X22177   2.980   3.901   8.667 -0.8087 -0.0316 -1.0562
  191SLPC  H17Y22178   3.062   3.768   8.591  1.0253 -0.4395 -0.2577
  191SLPC  C31822179   2.961   3.713   8.779 -0.1489 -0.2215  0.1850
  191SLPC  H18X22180   2.859   3.718   8.824  0.1461 -1.4676  1.0518
  191SLPC  H18Y22181   3.026   3.752   8.860  0.1837 -1.3571  0.4897
  191SLPC  H18Z22182   2.982   3.607   8.754  1.8311  0.2302 -0.2282
  192SLPC     N22183   4.374   4.299   6.721 -0.1528 -0.3570  0.7156
  192SLPC   C1322184   4.423   4.245   6.588  0.4597 -0.3602 -0.6594
  192SLPC  H13A22185   4.351   4.170   6.557  0.6996 -0.5972 -0.6512
  192SLPC  H13B22186   4.438   4.326   6.519  1.0616 -1.8302 -2.3280
  192SLPC  H13C22187   4.516   4.195   6.610  0.1681  0.8640  4.8423
  192SLPC   C1422188   4.246   4.374   6.688 -0.2677  1.2345 -0.1031
  192SLPC  H14A22189   4.161   4.316   6.658  0.0600  1.3137 -1.2624
  192SLPC  H14B22190   4.206   4.419   6.778 -0.2938  1.4783 -0.2354
  192SLPC  H14C22191   4.264   4.443   6.606 -3.2695  0.4742 -1.5286
  192SLPC   C1522192   4.477   4.401   6.759  0.4059  0.4841  0.1548
  192SLPC  H15A22193   4.507   4.470   6.682  0.0384  1.2791  0.7122
  192SLPC  H15B22194   4.441   4.460   6.843  0.4789 -0.8562  1.1599
  192SLPC  H15C22195   4.562   4.344   6.792  1.1615  1.6661  0.3044
  192SLPC   C1222196   4.359   4.193   6.832 -0.0015  0.5287  0.4732
  192SLPC  H12A22197   4.349   4.244   6.926  1.0444  0.2287  0.7578
  192SLPC  H12B22198   4.449   4.134   6.837 -0.5221 -0.2630  0.7890
  192SLPC   C1122199   4.244   4.099   6.812  0.0651  0.8186 -0.0735
  192SLPC  H11A22200   4.153   4.162   6.809  0.8364  1.9347 -1.5907
  192SLPC  H11B22201   4.246   4.034   6.902  1.4697 -0.7074 -1.1496
  192SLPC     P22202   4.138   3.980   6.606 -0.0399 -0.1768 -0.0821
  192SLPC   O1322203   4.088   4.113   6.573  0.6060  0.4163 -0.3002
  192SLPC   O1422204   4.185   3.890   6.501 -0.0724  0.2617  0.3119
  192SLPC   O1222205   4.260   4.004   6.703  0.5474 -0.7932  0.3222
  192SLPC   O1122206   4.032   3.906   6.689  0.3064  0.2116  0.2648
  192SLPC    C122207   4.069   3.792   6.773  0.0401  0.1827 -0.4070
  192SLPC    HA22208   4.023   3.705   6.723  2.2262 -1.8871  0.9678
  192SLPC    HB22209   4.178   3.772   6.764  0.1220 -0.4445  1.4449
  192SLPC    C222210   4.028   3.819   6.921 -0.1637 -1.2482 -0.0318
  192SLPC    HS22211   4.112   3.875   6.969 -3.3890  2.0313  2.4198
  192SLPC   O2122212   4.005   3.691   6.984  0.3341 -0.1745  0.8120
  192SLPC   C2122213   4.102   3.625   7.045 -0.9307 -0.6127 -0.1612
  192SLPC   O2222214   4.220   3.658   7.058 -0.5487 -0.6942 -0.4917
  192SLPC   C2222215   4.050   3.497   7.104 -0.0545 -0.5431 -0.0895
  192SLPC   H2R22216   3.980   3.449   7.031 -0.3858  1.5643 -1.2354
  192SLPC   H2S22217   4.143   3.443   7.134 -0.2289  0.6664  2.8605
  192SLPC    C322218   3.889   3.897   6.921  1.0217  0.3384 -0.5587
  192SLPC    HX22219   3.809   3.837   6.872 -0.0937  1.5719 -0.3209
  192SLPC    HY22220   3.899   3.982   6.851  1.4962  1.7643  1.1795
  192SLPC   O3122221   3.852   3.956   7.039 -0.4964  0.5620 -0.1731
  192SLPC   C3122222   3.924   4.065   7.066 -0.0957  0.0910  0.7271
  192SLPC   O3222223   4.007   4.120   6.999  0.5832  0.0557 -0.0304
  192SLPC   C3222224   3.893   4.117   7.200 -0.2034  0.2401 -0.0989
  192SLPC   H2X22225   3.806   4.186   7.186 -0.3115 -0.0611 -0.9705
  192SLPC   H2Y22226   3.984   4.170   7.233  0.2596  0.2238 -1.3184
  192SLPC   C2322227   3.971   3.530   7.226  0.3058 -0.3525  0.6181
  192SLPC   H3R22228   3.906   3.441   7.234 -0.4631 -0.0674 -1.8347
  192SLPC   H3S22229   3.899   3.615   7.219  0.0092 -0.6819 -0.4467
  192SLPC   C2422230   4.046   3.552   7.362 -0.0433  0.3335  0.6422
  192SLPC   H4R22231   4.093   3.652   7.362 -0.4541  0.5494  1.8388
  192SLPC   H4S22232   4.116   3.468   7.383 -0.5095  0.0636  1.1433
  192SLPC   C2522233   3.954   3.554   7.482 -0.3950 -0.2694 -0.6427
  192SLPC   H5R22234   3.896   3.459   7.490 -0.6860 -0.2155 -1.8999
  192SLPC   H5S22235   3.872   3.628   7.469 -1.3079 -1.3756 -1.4348
  192SLPC   C2622236   4.033   3.593   7.610 -0.2002 -0.1707 -0.3404
  192SLPC   H6R22237   4.094   3.685   7.597 -1.5666  0.6070 -1.4586
  192SLPC   H6S22238   4.110   3.519   7.639 -1.3954 -1.8163 -1.2191
  192SLPC   C2722239   3.933   3.618   7.725 -0.4953 -0.6698 -0.4399
  192SLPC   H7R22240   3.900   3.522   7.770  0.6956 -1.2102 -0.6886
  192SLPC   H7S22241   3.844   3.677   7.692 -0.4241 -0.4647 -0.2687
  192SLPC   C2822242   3.996   3.700   7.839  0.3038 -0.2922 -0.1199
  192SLPC   H8R22243   4.043   3.789   7.793 -1.5472  0.0236 -1.5468
  192SLPC   H8S22244   4.078   3.646   7.891  0.7130  0.0414 -0.4067
  192SLPC   C2922245   3.895   3.747   7.943  0.2818  0.1634  0.0626
  192SLPC   H9R22246   3.804   3.787   7.898  0.3136 -1.7650 -1.8956
  192SLPC  C21022247   3.889   3.734   8.072  0.5135  0.0932  0.3456
  192SLPC  H10R22248   3.806   3.785   8.123  1.1681 -0.2102  1.7439
  192SLPC  C21122249   3.992   3.675   8.164 -0.2435 -0.2986  0.5214
  192SLPC  H11R22250   4.044   3.597   8.104 -0.8334  0.5464 -1.1651
  192SLPC  H11S22251   3.938   3.614   8.240 -0.0261  1.2432  1.9841
  192SLPC  C21222252   4.095   3.767   8.215 -0.0952  0.0527 -0.9579
  192SLPC  H12R22253   4.178   3.791   8.147  0.8898  0.3975  0.3396
  192SLPC  C21322254   4.079   3.836   8.332 -0.1679 -0.4025 -0.2395
  192SLPC  H13R22255   4.163   3.902   8.361 -0.0888  2.0318 -4.9975
  192SLPC  C21422256   3.974   3.828   8.442 -0.6329 -0.5228  0.1953
  192SLPC  H14R22257   3.901   3.747   8.419  0.0118 -1.2111  0.5660
  192SLPC  H14S22258   3.925   3.928   8.441  2.3873  1.0793 -1.5495
  192SLPC  C21522259   4.013   3.802   8.588 -0.1334 -0.3181 -1.0024
  192SLPC  H15R22260   4.087   3.720   8.600  0.4800  0.4616  0.9169
  192SLPC  H15S22261   3.915   3.765   8.626 -0.2507  0.6813 -0.3040
  192SLPC  C21622262   4.059   3.925   8.672  0.3855 -0.4615 -0.1830
  192SLPC  H16R22263   3.987   4.003   8.638  1.9756  1.6829  1.1490
  192SLPC  H16S22264   4.160   3.954   8.637  0.2416  1.8716  1.1299
  192SLPC  C21722265   4.051   3.905   8.828 -0.5844  0.2543 -0.5274
  192SLPC  H17R22266   4.079   3.999   8.880  0.0306  0.3779 -1.0759
  192SLPC  H17S22267   3.942   3.884   8.838 -0.6160  0.5332 -0.2732
  192SLPC  C21822268   4.139   3.791   8.888  0.3467  0.1421 -0.0688
  192SLPC  H18R22269   4.249   3.803   8.879  0.4119 -0.1542  0.3249
  192SLPC  H18S22270   4.113   3.692   8.845  0.5035 -1.2508  2.7952
  192SLPC  H18T22271   4.119   3.775   8.996 -0.6454 -3.5942 -0.6575
  192SLPC   C3322272   3.841   4.009   7.298 -0.3376  0.4326  0.5597
  192SLPC   H3X22273   3.925   3.938   7.315 -1.7457 -1.8941 -1.4954
  192SLPC   H3Y22274   3.755   3.952   7.256  0.3979 -0.5030  0.2832
  192SLPC   C3422275   3.789   4.069   7.426 -0.3658 -0.5308 -0.4919
  192SLPC   H4X22276   3.732   4.159   7.395  0.9951  0.3524 -0.5159
  192SLPC   H4Y22277   3.870   4.106   7.493 -2.0014  0.3392  1.0780
  192SLPC   C3522278   3.687   3.981   7.497  0.7835 -0.2654 -0.2087
  192SLPC   H5X22279   3.717   3.875   7.487 -0.8511 -1.0585  2.5228
  192SLPC   H5Y22280   3.594   4.007   7.441  0.5484 -0.8528 -0.1030
  192SLPC   C3622281   3.674   4.015   7.647 -0.3981  0.1674  0.7323
  192SLPC   H6X22282   3.648   4.123   7.647 -1.8834 -0.0785 -2.4641
  192SLPC   H6Y22283   3.773   3.997   7.696 -1.4136  0.3760  2.9939
  192SLPC   C3722284   3.589   3.928   7.740 -0.0282 -0.5968 -0.1745
  192SLPC   H7X22285   3.632   3.826   7.739  0.1463 -0.6375  2.6132
  192SLPC   H7Y22286   3.483   3.928   7.705  0.2199  1.6282 -1.0953
  192SLPC   C3822287   3.597   3.988   7.881 -0.5091 -0.0449  0.1593
  192SLPC   H8X22288   3.543   4.084   7.868  0.6617  0.5588 -0.3457
  192SLPC   H8Y22289   3.701   3.993   7.920 -0.3885  0.2743 -0.2054
  192SLPC   C3922290   3.511   3.898   7.972 -0.6352 -0.5333 -0.2001
  192SLPC   H9X22291   3.561   3.802   7.996 -0.9861 -1.0791 -1.5648
  192SLPC   H9Y22292   3.425   3.865   7.911 -0.0466 -2.0924 -0.2306
  192SLPC  C31022293   3.461   3.968   8.104 -0.2683  0.3291  0.1109
  192SLPC  H10X22294   3.373   3.910   8.140  0.5751 -0.4191  1.0224
  192SLPC  H10Y22295   3.429   4.073   8.084  2.6746  0.9172 -2.2094
  192SLPC  C31122296   3.562   3.971   8.214 -0.0371  0.4345  0.1177
  192SLPC  H11X22297   3.662   3.965   8.166  1.4173  0.7219  2.9306
  192SLPC  H11Y22298   3.549   3.872   8.263 -2.1333  0.5400 -0.1479
  192SLPC  C31222299   3.559   4.084   8.316  0.2255 -0.2415  0.4151
  192SLPC  H12X22300   3.600   4.168   8.257 -0.9970  0.0902  0.0090
  192SLPC  H12Y22301   3.625   4.062   8.403  1.0470  1.2910  0.2089
  192SLPC  C31322302   3.418   4.115   8.361 -0.0527 -0.6573  0.2527
  192SLPC  H13X22303   3.360   4.023   8.385 -0.3314 -0.3287  0.8596
  192SLPC  H13Y22304   3.372   4.163   8.272 -0.9905 -1.0340  0.5225
  192SLPC  C31422305   3.398   4.208   8.480  0.0655 -0.0405 -0.2767
  192SLPC  H14X22306   3.454   4.302   8.461 -2.1193  1.7487  1.5945
  192SLPC  H14Y22307   3.446   4.142   8.555  0.0014  1.5427  1.2266
  192SLPC  C31522308   3.257   4.223   8.529  0.1489 -0.3561 -0.1159
  192SLPC  H15X22309   3.205   4.127   8.550  0.8778 -1.3576 -2.4883
  192SLPC  H15Y22310   3.203   4.293   8.461  0.2635  1.1006  1.2345
  192SLPC  C31622311   3.248   4.298   8.663  0.3224  0.2674 -0.0779
  192SLPC  H16X22312   3.318   4.384   8.664 -0.0882  0.6145 -0.6682
  192SLPC  H16Y22313   3.284   4.235   8.747  0.2893  0.7350  0.2881
  192SLPC  C31722314   3.101   4.336   8.693  0.2983 -0.6708  0.8855
  192SLPC  H17X22315   3.043   4.245   8.666 -1.2138  0.9203 -1.6024
  192SLPC  H17Y22316   3.066   4.415   8.623 -0.2229  0.2826  2.1690
  192SLPC  C31822317   3.089   4.375   8.837  0.3098 -0.2150 -0.0464
  192SLPC  H18X22318   3.122   4.306   8.918 -0.3080  1.2943  1.5775
  192SLPC  H18Y22319   2.982   4.398   8.857 -0.2634 -0.8888 -2.1539
  192SLPC  H18Z22320   3.146   4.470   8.849 -1.7318  1.0043  0.5460
  193SOD    SOD22321   4.885   5.462  15.258  0.0824 -0.3047 -0.0683
  194SOD    SOD22322   2.720   3.138   6.065  0.0467 -0.2318 -0.4853
  195SOD    SOD22323   0.855   5.563   4.126  0.0435  0.1344  0.0618
  196SOD    SOD22324   0.222   4.080   2.560  0.1565  0.0767 -0.3853
  197SOD    SOD22325   1.080   2.415  12.621  0.1908 -0.1726  0.0837
  198SOD    SOD22326   0.027   0.384  15.719 -0.1918  0.0886 -0.1750
  199SOD    SOD22327   2.845   3.421   3.881 -0.4454 -0.5606 -0.3717
  200SOD    SOD22328   1.782   0.373   3.959 -0.2766 -0.2781 -0.0207
  201SOD    SOD22329   1.445   2.959   1.034 -0.1815  0.3486  0.0642
  202SOD    SOD22330   4.784   5.539  16.316 -0.3261  0.1956 -0.5761
  203SOD    SOD22331   4.054   6.120   6.002 -0.0875  0.1962  0.3985
  204SOD    SOD22332   5.995   4.166   0.146 -0.4355 -0.4874  0.1180
  205SOD    SOD22333   6.342   3.462  11.334 -0.4469 -0.3291  0.4666
  206SOD    SOD22334   2.036   6.585   6.155 -0.4535 -0.1813 -0.3335
  207SOD    SOD22335   5.530   5.601   6.476 -0.1706 -0.0735  0.1869
  208SOD    SOD22336   5.443   4.071   4.812  0.5773  0.3229 -0.1851
  209SOD    SOD22337   3.067   2.497   6.519 -0.3333 -0.0758 -0.0042
  210SOD    SOD22338   5.363   6.203   0.786  0.1435 -0.2326 -0.1006
  211SOD    SOD22339   2.980   0.588  10.843 -0.5887  0.2281  0.5708
  212SOD    SOD22340   1.270   6.739  14.717  0.0142  0.6233 -0.0805
  213SOD    SOD22341   0.847   3.104  13.798  0.1814 -0.3899 -0.3705
  214SOD    SOD22342   5.702   2.262  17.106  0.2459  0.1425 -0.0097
  215SOD    SOD22343   2.507   6.232  17.340 -0.1510  0.2783 -0.2359
  216SOD    SOD22344   2.933   5.269   2.819  0.0403 -0.1612 -0.1503
  217SOD    SOD22345   6.340   3.982  14.683  0.0335  0.3869 -0.0455
  218SOD    SOD22346   1.727   1.035  11.124 -0.4963 -0.0704  0.2199
  219SOD    SOD22347   1.701   5.284  15.269 -0.0350  0.6030  0.0495
  220SOD    SOD22348   3.872   6.710  10.671  0.0820 -0.0641 -0.5389
  221SOD    SOD22349   1.013   3.209   5.939  0.2071 -0.6237  0.0734
  222SOD    SOD22350   3.207   2.456  17.201 -0.2085 -0.4786  0.2848
  223SOD    SOD22351   3.008   4.758   4.976  0.3954 -0.1123  0.1423
  224SOD    SOD22352   5.817   5.284  12.941 -0.2537 -0.2914  0.5308
  225SOD    SOD22353   4.108   1.464   6.115  0.3498  0.1665 -0.8624
  226SOD    SOD22354   1.625   3.856   4.613  0.0167  0.0466  0.0460
  227SOD    SOD22355   5.697   1.752   0.319  0.1334 -0.7914 -0.2540
  228SOD    SOD22356   4.678   0.666  11.540  0.4536  0.0985 -0.3047
  229SOD    SOD22357   6.383   4.013   3.388  0.2604  0.3211  0.3624
  230SOD    SOD22358   4.723   5.729  10.452 -0.8929  0.0711  0.0200
  231SOD    SOD22359   6.683   4.830  11.831  0.1887 -0.2480  0.1747
  232SOD    SOD22360   4.405   2.926  13.927 -0.5915 -0.2317 -0.2488
  233SOD    SOD22361   2.125   5.924   0.435  0.4086 -0.2452  0.5832
  234SOD    SOD22362   5.188   1.803  16.319  0.1934 -0.1247  0.0306
  235SOD    SOD22363   3.966   5.201   2.113 -0.2465 -0.3900  0.5130
  236SOD    SOD22364   3.618   2.221  11.570 -0.3727  0.1959 -0.2075
  237SOD    SOD22365   2.733   4.675  16.825 -0.4362  0.3334  0.3131
  238SOD    SOD22366   2.163   1.459  13.593  0.3716 -0.3582 -0.6076
  239SOD    SOD22367   3.228   1.824  13.705 -0.0021 -0.2189  0.4089
  240SOD    SOD22368   3.647   2.374  17.084 -0.1778 -0.0488  0.0899
  241SOD    SOD22369   5.928   0.371  11.262 -0.3397  0.0568 -0.3634
  242SOD    SOD22370   5.001   3.759   2.760 -0.3399  0.0588  0.0787
  243SOD    SOD22371   6.539   3.542  13.674  0.8514 -0.0675 -0.3381
  244SOD    SOD22372   4.444   5.658   3.989 -0.2792  0.3223  0.4772
  245SOD    SOD22373   3.007   1.330   4.644 -0.0957  0.4860 -0.3798
  246SOD    SOD22374   6.083   6.516  17.111  0.4149  0.5704  0.0175
  247SOD    SOD22375   3.224   4.624   5.830  0.5260 -0.4475  0.3646
  248SOD    SOD22376   6.725   0.200   6.727 -0.3329 -0.4636  0.1525
  249SOD    SOD22377   4.367   1.262  12.405 -0.1631  0.1129  0.3784
  250SOD    SOD22378   1.680   4.795  16.563  0.1400  0.0274  0.1804
  251SOD    SOD22379   5.387   3.193  15.963  0.0274 -0.4339 -0.3640
  252SOD    SOD22380   1.150   1.492  11.208  0.7489  0.1977 -0.4359
  253SOD    SOD22381   4.451   2.529   2.151  0.3922  0.8057  0.5330
  254SOD    SOD22382   4.596   1.164  14.312  0.0602  0.0187  0.0386
  255SOD    SOD22383   5.225   0.735  13.199  0.4977  0.0295 -0.4469
  256SOD    SOD22384   4.970   6.025   5.806 -0.2242 -0.0292  0.0805
  257SOD    SOD22385   1.726   4.804  13.804  0.1190  0.1585 -0.1392
  258SOD    SOD22386   3.406   4.284   5.823 -0.0000 -0.0950 -0.0207
  259SOD    SOD22387   4.267   2.508   3.178  0.1579 -0.1320 -0.0338
  260SOD    SOD22388   2.478   2.173  16.486  0.2461  0.5226  0.2872
  261SOD    SOD22389   1.356   0.129   0.865 -0.4246  0.0770 -0.2823
  262SOD    SOD22390   5.148   0.641   6.062  0.0816 -0.0637  0.0895
  263SOD    SOD22391   2.757   1.781   3.356 -0.2074  0.2986 -0.4125
  264SOD    SOD22392   3.530   4.006   0.508 -0.3125 -0.0687 -0.1254
  265SOD    SOD22393   4.575   5.281   3.530  0.0416  0.0297  0.0168
  266CLA    CLA22394   4.488   2.016   1.322  0.0645  0.2808 -0.1162
  267CLA    CLA22395   3.586   6.526  13.684 -0.3245 -0.5422  0.3740
  268CLA    CLA22396   5.143   0.875   5.726  0.1758 -0.1802 -0.4418
  269CLA    CLA22397   3.050   1.927  16.773  0.1524 -0.4645 -0.0040
  270CLA    CLA22398   0.399   0.019   4.664  0.4195  0.1335  0.0581
  271CLA    CLA22399   1.495   0.048  15.702  0.3199  0.1215  0.2293
  272CLA    CLA22400   5.741   0.841  15.650  0.0355  0.2269 -0.4219
  273CLA    CLA22401   3.129   4.957   5.080  0.0126 -0.4245 -0.0977
  274CLA    CLA22402   0.755   4.689   0.913 -0.3684 -0.2244 -0.1836
  275CLA    CLA22403   3.403   1.142  16.211 -0.3549  0.0512 -0.1053
  276CLA    CLA22404   4.442   4.020  17.261 -0.0152  0.3056  0.2905
  277CLA    CLA22405   1.550   1.450   2.306  0.4892 -0.1509  0.0467
  278CLA    CLA22406   5.077   4.258   6.037  0.2140 -0.0321 -0.0303
  279CLA    CLA22407   2.839   1.447   2.983  0.2131  0.3433 -0.2453
  280CLA    CLA22408   3.245   6.578   5.085  0.0664 -0.1059  0.1284
  281CLA    CLA22409   2.330   2.585   0.004  0.0513 -0.3493  0.2270
  282CLA    CLA22410   0.571   2.568  13.441 -0.5861 -0.3018  0.0844
  283CLA    CLA22411   1.804   5.050  15.328  0.0689 -0.0112  0.2256
  284CLA    CLA22412   5.976   0.157  15.715  0.1144  0.2625 -0.0597
  285CLA    CLA22413   5.781   1.436  17.489 -0.1375 -0.1147  0.0962
  286CLA    CLA22414   4.387   2.010  16.307  0.0262 -0.1761 -0.0896
  287CLA    CLA22415   0.350   6.468   6.098 -0.1952  0.1148 -0.6537
  288CLA    CLA22416   1.619   6.247  14.120 -0.0436 -0.1473 -0.4562
  289CLA    CLA22417   2.298   4.239   0.386  0.5479  0.0348 -0.1019
  290CLA    CLA22418   6.165   3.801   1.130 -0.1923 -0.0406 -0.2122
  291CLA    CLA22419   4.524   1.979   0.875  0.6997  0.0607  0.1019
  292CLA    CLA22420   4.563   2.738   2.835  0.3484  0.0710 -0.0176
  293CLA    CLA22421   6.234   5.845  17.174  0.1139 -0.5510  0.2970
  294CLA    CLA22422   6.473   3.678  15.140 -0.1090  0.0944 -0.3363
  295CLA    CLA22423   6.084   2.545  17.305 -0.2474 -0.3810 -0.4248
  296CLA    CLA22424   2.523   6.338  14.339  0.4448 -0.0365  0.1393
  297CLA    CLA22425   1.756   4.100   2.068  0.0223 -0.1654 -0.5686
  298CLA    CLA22426   4.299   2.043  13.229 -0.0551 -0.3998  0.1749
  299CLA    CLA22427   5.274   4.798  13.577 -0.5128  0.1782  0.1837
  300CLA    CLA22428   4.724   0.570  15.943 -0.1769 -0.4247  0.2935
  301CLA    CLA22429   0.088   0.340  13.187  0.1935 -0.1818  0.1414
  302CLA    CLA22430   4.214   2.999   3.951 -0.1941 -0.0650 -0.0833
  303CLA    CLA22431   2.788   1.560  11.701 -0.0101 -0.1096 -0.3389
  304CLA    CLA22432   4.497   0.113  15.949  0.0292 -0.1276  0.1609
  305CLA    CLA22433   6.118   6.505   4.649  0.0350 -0.4987  0.0896
  306CLA    CLA22434   4.737   4.933   3.226  0.0288  0.0672 -0.0090
  307CLA    CLA22435   2.132   1.975  15.032 -0.0770  0.1445  0.3421
  308CLA    CLA22436   2.117   1.933   0.047  0.1599 -0.1557 -0.2094
  309CLA    CLA22437   2.984   2.662   3.224  0.2944 -0.4210  0.3419
  310CLA    CLA22438   4.206   0.032   1.926  0.1182 -0.2100  0.4296
  311CLA    CLA22439   4.415   3.662   3.463 -0.7210  0.0912 -0.0360
  312CLA    CLA22440   3.263   6.352  13.972 -0.2544  0.1684 -0.1121
  313CLA    CLA22441   6.408   2.183  12.525 -0.1409  0.3867 -0.0633
  314CLA    CLA22442   4.718   3.891   1.338  0.1018  0.1072  0.5474
  315CLA    CLA22443   4.951   2.228  15.828  0.1034  0.2589  0.0872
  316CLA    CLA22444   4.498   0.647  13.053 -0.0909  0.6123 -0.1683
  317CLA    CLA22445   6.174   4.689   4.661  0.3114 -0.0983  0.0096
  318CLA    CLA22446   2.102   2.175  11.891  0.3186  0.0001 -0.3539
  319TIP3   OH222447   1.120   0.934   5.453  0.3994  0.7279  0.3573
  319TIP3    H122448   1.080   0.851   5.479 -1.7622  1.7319  0.4328
  319TIP3    H222449   1.141   0.977   5.537  0.1460  0.8810  0.3429
  320TIP3   OH222450   5.062   5.124   1.604 -0.5287  0.3561  0.2116
  320TIP3    H122451   5.106   5.135   1.688  0.0605 -1.7297  0.2395
  320TIP3    H222452   5.071   5.209   1.561 -1.2730  1.6072  2.4109
  321TIP3   OH222453   1.876   5.592  12.314  0.0188  0.4215  0.7039
  321TIP3    H122454   1.871   5.683  12.343  0.3894  0.6593  0.0586
  321TIP3    H222455   1.889   5.598  12.219 -0.2450 -0.3101  0.6145
  322TIP3   OH222456   1.379   1.557  12.858 -0.2704 -0.7760  0.2403
  322TIP3    H122457   1.465   1.527  12.827 -0.3778 -0.9215  0.0825
  322TIP3    H222458   1.316   1.518  12.797 -0.4235 -0.3643  0.1311
  323TIP3   OH222459   2.229   3.098   4.084 -0.2595  0.4387 -0.2443
  323TIP3    H122460   2.184   3.032   4.137 -0.1234  0.6290  0.1093
  323TIP3    H222461   2.314   3.108   4.126 -0.5366  1.3465  0.1133
  324TIP3   OH222462   3.883   1.003   6.088  0.2010 -0.0216 -0.8946
  324TIP3    H122463   3.861   1.023   5.997 -1.2974  0.0211 -0.5547
  324TIP3    H222464   3.929   0.919   6.084 -1.9541 -1.2436 -1.5299
  325TIP3   OH222465   2.488   3.187  15.557  0.3381  0.3385 -0.2661
  325TIP3    H122466   2.534   3.232  15.487  0.9006  0.7481  0.3607
  325TIP3    H222467   2.481   3.252  15.628  0.6531 -0.3675  0.4318
  326TIP3   OH222468   2.922   4.581  16.917 -0.0010 -0.1729 -0.1378
  326TIP3    H122469   2.894   4.518  16.983  1.1605 -2.0377 -1.3421
  326TIP3    H222470   3.018   4.575  16.918  0.1715  1.8978 -0.0238
  327TIP3   OH222471   0.291   3.197   5.348  0.3323 -0.7035 -0.4521
  327TIP3    H122472   0.315   3.272   5.403  0.2603 -0.7492 -0.3568
  327TIP3    H222473   0.314   3.121   5.401 -1.5860 -0.7704  0.3711
  328TIP3   OH222474   0.188   1.225  14.470 -0.1695 -0.4316 -0.6133
  328TIP3    H122475   0.275   1.230  14.429  0.8355  0.4261  1.4522
  328TIP3    H222476   0.130   1.268  14.408  1.3416  1.1629 -1.0117
  329TIP3   OH222477   4.353   1.825  11.288 -0.5505  0.1128  0.3086
  329TIP3    H122478   4.348   1.779  11.204 -0.9987 -1.8650  1.3492
  329TIP3    H222479   4.393   1.910  11.267  1.3646 -1.1496 -1.5971
  330TIP3   OH222480   2.803   1.332   0.342  0.5544 -0.0659 -0.6938
  330TIP3    H122481   2.896   1.355   0.336  0.4826  0.0139 -1.5650
  330TIP3    H222482   2.765   1.401   0.396  0.6797  0.8853 -1.7881
  331TIP3   OH222483   2.505   6.373  12.916  0.6335  0.2955  0.2422
  331TIP3    H122484   2.493   6.316  12.840 -2.6227 -0.0702  0.8821
  331TIP3    H222485   2.508   6.461  12.878 -2.5901  0.2762 -0.4015
  332TIP3   OH222486   0.848   1.946   1.671  0.0408 -0.1160  0.3230
  332TIP3    H122487   0.897   1.864   1.669 -1.5629 -1.1160 -1.6401
  332TIP3    H222488   0.818   1.958   1.580 -1.6482  1.4661  1.0250
  333TIP3   OH222489   2.301   3.901   2.545 -0.3692 -0.2294 -0.5113
  333TIP3    H122490   2.286   3.885   2.452  1.9134 -0.1390 -0.9531
  333TIP3    H222491   2.343   3.986   2.548 -0.0239 -0.4265  0.5655
  334TIP3   OH222492   5.086   3.043  14.743  0.0315 -0.5850 -0.1876
  334TIP3    H122493   5.032   3.073  14.816 -0.4925 -0.1004 -0.7612
  334TIP3    H222494   5.043   2.963  14.713 -0.1437 -0.4128 -0.3961
  335TIP3   OH222495   2.018   2.791   4.599  0.3742  0.1157 -0.7250
  335TIP3    H122496   1.936   2.743   4.587  0.2545  0.5065 -1.5015
  335TIP3    H222497   2.083   2.723   4.618 -0.3233 -0.1183  1.0400
  336TIP3   OH222498   0.637   0.453   2.661  0.0958 -0.2866 -0.6674
  336TIP3    H122499   0.642   0.535   2.613  1.1314  0.4525  0.6319
  336TIP3    H222500   0.608   0.478   2.749 -0.9511 -1.4943 -0.6306
  337TIP3   OH222501   6.125   0.203  16.278 -0.2674 -0.2417  0.2037
  337TIP3    H122502   6.055   0.191  16.342 -1.3003  1.7406 -0.4760
  337TIP3    H222503   6.197   0.242  16.329 -1.1334  1.4596  0.2236
  338TIP3   OH222504   3.251   3.877  12.542 -0.2955 -0.4955  0.1641
  338TIP3    H122505   3.274   3.825  12.619  1.8171  0.1522  0.0317
  338TIP3    H222506   3.198   3.818  12.488 -2.8859 -0.5997  2.5778
  339TIP3   OH222507   6.021   0.666  15.952  0.4286  0.3508  0.1747
  339TIP3    H122508   6.039   0.610  15.877  0.2619  0.6073 -0.0598
  339TIP3    H222509   6.012   0.606  16.026 -0.1676  0.0357 -0.1481
  340TIP3   OH222510   4.343   2.054   2.716  0.0752 -0.5326  0.0098
  340TIP3    H122511   4.309   1.987   2.657 -1.2845 -0.2723  0.4569
  340TIP3    H222512   4.270   2.075   2.774 -0.0679  2.3797 -1.0237
  341TIP3   OH222513   2.436   5.722   1.574 -0.8437 -0.0467 -0.5922
  341TIP3    H122514   2.362   5.663   1.560 -2.6625  1.6287  1.2731
  341TIP3    H222515   2.396   5.808   1.587  1.3032  0.7097  1.8642
  342TIP3   OH222516   6.053   2.882  16.375 -0.2468  0.2034 -0.1487
  342TIP3    H122517   6.027   2.792  16.352  2.2960 -0.3862 -0.9901
  342TIP3    H222518   6.138   2.894  16.333 -0.6118  3.1322 -0.2585
  343TIP3   OH222519   5.142   2.832   5.021 -0.5027 -0.3572 -0.3592
  343TIP3    H122520   5.186   2.864   5.099 -0.4003  0.4478 -0.7372
  343TIP3    H222521   5.049   2.846   5.038 -0.6356 -1.7880  0.3174
  344TIP3   OH222522   2.831   6.108   4.321  0.2047 -0.3781  0.0288
  344TIP3    H122523   2.745   6.114   4.279  0.1271 -2.2426 -0.1980
  344TIP3    H222524   2.865   6.197   4.321  0.4153 -0.2206 -4.4599
  345TIP3   OH222525   6.542   2.619  15.636  0.6164 -0.0094  0.0480
  345TIP3    H122526   6.553   2.696  15.580 -0.0795 -0.3559 -0.5914
  345TIP3    H222527   6.554   2.652  15.725  1.3229  0.6340 -0.2795
  346TIP3   OH222528   3.245   3.269  16.226  0.0361 -0.4093 -0.0609
  346TIP3    H122529   3.220   3.239  16.314  1.8150  0.8354  0.9399
  346TIP3    H222530   3.294   3.195  16.189 -2.6455 -1.8547 -1.0284
  347TIP3   OH222531   0.639   1.065   0.478  0.2748  0.3566 -0.4885
  347TIP3    H122532   0.617   1.142   0.426 -1.2827 -1.1472 -2.1866
  347TIP3    H222533   0.573   1.065   0.548 -0.7506 -0.2550 -1.4202
  348TIP3   OH222534   2.325   5.596  16.688  0.1120  0.0587  0.1986
  348TIP3    H122535   2.237   5.635  16.682 -0.0760 -0.3420  0.2963
  348TIP3    H222536   2.343   5.593  16.782 -0.7613 -1.9989  0.3581
  349TIP3   OH222537   0.585   1.487   4.350 -0.0675 -0.1965 -0.1057
  349TIP3    H122538   0.587   1.403   4.396 -0.1091  0.2959  0.8129
  349TIP3    H222539   0.677   1.510   4.338  0.0092  1.1330  2.4946
  350TIP3   OH222540   4.143   4.529   4.893 -0.5799  0.3283 -0.8013
  350TIP3    H122541   4.054   4.505   4.869 -0.7857  0.7648 -0.4912
  350TIP3    H222542   4.137   4.557   4.984  0.1557 -1.1263 -0.2816
  351TIP3   OH222543   5.526   6.532   5.313 -0.0387 -0.1226  0.5320
  351TIP3    H122544   5.594   6.541   5.246 -1.2539 -0.0315 -0.7573
  351TIP3    H222545   5.446   6.564   5.270 -1.0060 -0.7271  1.8046
  352TIP3   OH222546   4.383   1.997  12.649 -0.1234  0.3807  0.3868
  352TIP3    H122547   4.401   2.076  12.700  0.1430 -0.4919  1.6972
  352TIP3    H222548   4.419   2.016  12.562 -2.0660  2.5562 -0.0565
  353TIP3   OH222549   5.013   3.785   3.142 -0.6461 -0.1572  0.1467
  353TIP3    H122550   5.046   3.717   3.082  0.8760  0.6866 -0.0107
  353TIP3    H222551   5.034   3.752   3.229 -0.3541 -0.1283  0.0896
  354TIP3   OH222552   5.694   0.013  15.868  0.0640  0.8655 -0.1220
  354TIP3    H122553   5.773   0.051  15.830  0.3934 -0.5839 -0.9350
  354TIP3    H222554   5.714   0.006  15.962  1.6109 -1.0093 -0.5176
  355TIP3   OH222555   4.803   0.001   6.381 -0.0836  0.0762  0.2198
  355TIP3    H122556   4.734   0.063   6.407  1.1275  2.0845 -1.0563
  355TIP3    H222557   4.881   0.035   6.424  0.6862 -0.3363 -0.8247
  356TIP3   OH222558   3.461   6.372  17.137 -0.4730 -0.6561 -0.1351
  356TIP3    H122559   3.390   6.435  17.152 -1.0278 -1.8730  3.1674
  356TIP3    H222560   3.419   6.299  17.092 -0.9516 -0.6977  0.3752
  357TIP3   OH222561   6.481   4.657  11.994 -0.1430 -0.0728 -0.0538
  357TIP3    H122562   6.494   4.734  12.050  2.4791 -0.0565 -0.5412
  357TIP3    H222563   6.452   4.694  11.910  1.4306  0.4790 -0.3926
  358TIP3   OH222564   6.175   5.174  17.202  0.3941  0.1047 -0.4417
  358TIP3    H122565   6.167   5.089  17.159  2.6057 -0.7179  0.6141
  358TIP3    H222566   6.262   5.206  17.177  0.6839  0.7995  1.2916
  359TIP3   OH222567   1.927   0.604   3.090 -0.0998  0.4152  0.0815
  359TIP3    H122568   1.921   0.547   3.166  1.5490 -0.4629 -0.4020
  359TIP3    H222569   1.861   0.672   3.105 -2.7698 -2.0497  0.2581
  360TIP3   OH222570   4.079   0.148   2.185  0.0965  0.1440  0.1913
  360TIP3    H122571   4.061   0.232   2.142  0.7206  0.3519  0.3213
  360TIP3    H222572   4.114   0.093   2.115  0.6963  0.3410  0.3293
  361TIP3   OH222573   5.242   3.305   5.004  0.2389 -0.3946 -0.3709
  361TIP3    H122574   5.274   3.215   5.005  1.0659 -0.1288 -1.0548
  361TIP3    H222575   5.156   3.301   5.045 -0.5799 -1.8299 -2.0898
  362TIP3   OH222576   3.411   4.949   5.664 -0.0889 -0.1406  0.1781
  362TIP3    H122577   3.376   4.956   5.753  0.0358  1.3054  0.1397
  362TIP3    H222578   3.500   4.916   5.675 -0.8178 -2.2296  0.3928
  363TIP3   OH222579   1.514   3.831  15.865 -0.2343 -0.0679 -0.7955
  363TIP3    H122580   1.602   3.822  15.901  0.3486 -1.0811 -2.3495
  363TIP3    H222581   1.513   3.772  15.790 -1.7931  0.9760 -1.6494
  364TIP3   OH222582   4.529   0.742   4.076  0.5733 -0.1849  0.6363
  364TIP3    H122583   4.516   0.735   4.170  2.4392 -0.3819  0.9181
  364TIP3    H222584   4.576   0.662   4.052 -1.3239 -0.9737 -0.8008
  365TIP3   OH222585   2.281   6.434   3.221 -0.0088  0.1747 -0.6985
  365TIP3    H122586   2.364   6.416   3.177 -1.0664 -0.6559 -2.4370
  365TIP3    H222587   2.230   6.483   3.157 -2.2044 -2.4672 -1.1390
  366TIP3   OH222588   2.524   3.367  16.569  0.3354 -0.1277  0.0020
  366TIP3    H122589   2.553   3.422  16.497  0.7035  0.0869  0.3075
  366TIP3    H222590   2.463   3.305  16.530 -0.6415  0.9465 -0.2239
  367TIP3   OH222591   6.442   1.573   5.868  0.1597  0.5945 -0.7018
  367TIP3    H122592   6.442   1.669   5.867  0.7845  0.5948 -1.6901
  367TIP3    H222593   6.374   1.548   5.807 -0.2766  0.3980 -0.1417
  368TIP3   OH222594   0.409   5.996   5.677  0.4608  0.2164  0.1116
  368TIP3    H122595   0.373   5.924   5.627  1.4801 -0.2751  0.0742
  368TIP3    H222596   0.483   6.028   5.625 -0.8874  2.3192 -0.6466
  369TIP3   OH222597   4.404   0.395   3.733 -0.3461 -0.4581  0.0655
  369TIP3    H122598   4.386   0.414   3.641  0.8136  1.0280  0.1006
  369TIP3    H222599   4.387   0.301   3.743 -3.1897 -0.1479 -0.9827
  370TIP3   OH222600   0.852   4.575  17.157 -0.1375  0.3108 -0.3795
  370TIP3    H122601   0.901   4.554  17.078 -2.0277 -0.9075 -1.2993
  370TIP3    H222602   0.763   4.593  17.127 -0.3256  2.5190  1.2160
  371TIP3   OH222603   6.416   2.237   3.918 -0.3957  0.0202  0.1858
  371TIP3    H122604   6.347   2.176   3.943 -0.7059  0.6397  0.8659
  371TIP3    H222605   6.497   2.196   3.951 -0.8427  1.1291  2.9650
  372TIP3   OH222606   1.210   6.188   1.988  0.2534  0.0615  0.6690
  372TIP3    H122607   1.172   6.276   1.990 -0.3835 -0.2109  0.6436
  372TIP3    H222608   1.270   6.186   2.063  0.1480  0.4617  0.7644
  373TIP3   OH222609   0.699   1.095   5.798  0.5846  0.0077  0.6783
  373TIP3    H122610   0.651   1.056   5.725  2.1492 -1.3811  0.3356
  373TIP3    H222611   0.650   1.175   5.818 -1.4453 -0.9507 -0.0886
  374TIP3   OH222612   3.944   2.868   4.013 -0.5391  0.1441 -0.2701
  374TIP3    H122613   3.990   2.785   4.026 -1.0740 -0.2890 -1.0296
  374TIP3    H222614   4.009   2.926   3.974 -0.2938 -0.0738 -0.1818
  375TIP3   OH222615   3.272   5.064  11.673 -0.0476 -0.0487 -0.2247
  375TIP3    H122616   3.353   5.018  11.696  0.3104  0.7544  0.1779
  375TIP3    H222617   3.279   5.148  11.718 -0.6050  0.4703 -1.0863
  376TIP3   OH222618   4.303   4.307  16.091  0.2711 -0.6038 -0.6114
  376TIP3    H122619   4.349   4.353  16.021  1.4422 -1.3788 -0.3882
  376TIP3    H222620   4.369   4.246  16.126  0.1078  0.6104  1.9833
  377TIP3   OH222621   1.166   3.152  14.243  0.0831 -0.3720 -0.2972
  377TIP3    H122622   1.226   3.224  14.226 -0.7501  0.3724 -0.1590
  377TIP3    H222623   1.179   3.092  14.169  1.3580 -0.4962 -0.0001
  378TIP3   OH222624   0.636   6.051   2.740 -0.0847  0.0324  0.0476
  378TIP3    H122625   0.606   6.073   2.828  0.4132 -0.0515  0.2420
  378TIP3    H222626   0.642   5.955   2.740  0.0393  0.0394 -0.0340
  379TIP3   OH222627   4.797   0.742  15.086 -0.7908 -0.4857  0.0938
  379TIP3    H122628   4.719   0.771  15.132 -0.2337 -0.1805  0.8656
  379TIP3    H222629   4.818   0.813  15.026 -0.1105  0.1990  1.1322
  380TIP3   OH222630   1.282   0.753  15.975 -0.4504 -0.4584 -0.7134
  380TIP3    H122631   1.291   0.663  15.946  0.9478 -0.1716 -1.2349
  380TIP3    H222632   1.331   0.757  16.057 -1.5010 -0.4294 -0.0527
  381TIP3   OH222633   3.354   3.867   0.570 -0.3190 -0.3051 -0.1398
  381TIP3    H122634   3.263   3.896   0.581 -1.0994 -1.7723 -2.1248
  381TIP3    H222635   3.370   3.810   0.646 -0.9330  0.2296  0.4034
  382TIP3   OH222636   1.377   5.912   1.022  0.4062 -0.2701  0.0631
  382TIP3    H122637   1.420   5.842   0.973  0.5972 -0.6143  0.7200
  382TIP3    H222638   1.300   5.935   0.969 -0.5724 -2.0841  0.6196
  383TIP3   OH222639   5.232   2.235   1.659  0.5152  0.2376  0.4421
  383TIP3    H122640   5.266   2.295   1.725 -0.3474  0.9401  0.2571
  383TIP3    H222641   5.220   2.289   1.581 -3.2227  0.6284  1.1361
  384TIP3   OH222642   3.283   5.323  12.735 -0.1852 -0.3541 -0.2489
  384TIP3    H122643   3.189   5.327  12.753 -0.4667 -2.4852 -0.9666
  384TIP3    H222644   3.323   5.311  12.821 -0.5072  0.8038  0.0891
  385TIP3   OH222645   2.947   3.163   5.455 -0.3508 -0.3976 -0.2521
  385TIP3    H122646   2.944   3.179   5.361  1.3687 -2.2499 -0.6954
  385TIP3    H222647   2.913   3.074   5.465 -0.0132 -0.4269  0.8089
  386TIP3   OH222648   6.265   4.765  15.479 -0.6172  0.1219  0.1240
  386TIP3    H122649   6.208   4.747  15.554 -0.4274 -0.3328  0.1654
  386TIP3    H222650   6.323   4.835  15.509  0.5915 -1.1814  1.0296
  387TIP3   OH222651   3.327   0.896  10.576 -1.1267 -0.0258 -0.2922
  387TIP3    H122652   3.412   0.893  10.532 -0.9753 -1.2610  0.0311
  387TIP3    H222653   3.340   0.847  10.657 -1.7821  1.0012  0.4598
  388TIP3   OH222654   1.632   2.566   1.665 -0.1619 -0.1833  0.1994
  388TIP3    H122655   1.548   2.553   1.623 -0.3123 -0.6129  0.6321
  388TIP3    H222656   1.696   2.562   1.594 -0.6224  1.8594 -0.4053
  389TIP3   OH222657   6.247   5.367  12.792  0.5092 -0.1811  0.3566
  389TIP3    H122658   6.201   5.398  12.713 -1.0411  0.4495  1.4406
  389TIP3    H222659   6.301   5.441  12.819 -0.9535  0.5910  1.3002
  390TIP3   OH222660   2.968   4.674   2.162 -0.3875  0.3773  1.0905
  390TIP3    H122661   2.949   4.612   2.233 -2.5937  0.0968  0.3436
  390TIP3    H222662   2.896   4.662   2.100  2.1916 -0.5238 -2.0372
  391TIP3   OH222663   0.576   1.104  15.930  0.0654 -0.0320 -0.0900
  391TIP3    H122664   0.605   1.185  15.970  0.2541 -0.5139  0.7714
  391TIP3    H222665   0.620   1.035  15.980 -0.2936 -0.6696 -0.6384
  392TIP3   OH222666   5.720   1.615   6.711 -0.2591 -0.8663 -0.3120
  392TIP3    H122667   5.734   1.619   6.616  1.3814 -0.8087 -0.1026
  392TIP3    H222668   5.801   1.651   6.748  0.2215 -3.2885  1.1542
  393TIP3   OH222669   1.861   5.307   5.911 -0.0543  0.6537 -0.4345
  393TIP3    H122670   1.932   5.360   5.872 -0.4847  1.1990 -0.4885
  393TIP3    H222671   1.906   5.231   5.948  0.7942  1.8394  1.0959
  394TIP3   OH222672   0.798   3.087   2.174 -0.1823 -0.0570 -0.5923
  394TIP3    H122673   0.863   3.155   2.155  1.8085 -1.7139 -0.1664
  394TIP3    H222674   0.787   3.041   2.092 -1.4221  0.6478 -0.8437
  395TIP3   OH222675   1.675   4.433  13.416 -0.2356 -0.5169 -0.4928
  395TIP3    H122676   1.692   4.343  13.390  2.0548 -0.0491 -0.8094
  395TIP3    H222677   1.672   4.481  13.333 -0.0132 -0.0966 -0.2632
  396TIP3   OH222678   6.334   3.109  11.811  0.3309 -0.6015  0.4047
  396TIP3    H122679   6.264   3.049  11.787 -0.8279  1.0775 -0.6917
  396TIP3    H222680   6.351   3.160  11.731  1.5296  0.2558  1.1586
  397TIP3   OH222681   5.761   3.036  16.742 -0.6076  0.1886 -0.6605
  397TIP3    H122682   5.746   2.953  16.787  0.0050  0.0008 -0.7969
  397TIP3    H222683   5.791   3.096  16.811 -2.3126  0.6942 -0.2945
  398TIP3   OH222684   4.648   0.993  14.475 -0.3845  0.1099  0.0779
  398TIP3    H122685   4.713   0.947  14.528  0.9388  0.2061 -1.3644
  398TIP3    H222686   4.581   0.927  14.457 -1.3704  0.3459  2.5976
  399TIP3   OH222687   0.866   4.157  12.659 -0.5797  0.7083  0.1707
  399TIP3    H122688   0.929   4.225  12.636  0.4217 -1.0443 -2.7986
  399TIP3    H222689   0.911   4.105  12.727 -0.4393  1.6341  0.8030
  400TIP3   OH222690   0.364   4.044   0.607 -0.2638 -0.1888  0.2974
  400TIP3    H122691   0.273   4.021   0.627 -0.4374  0.0157 -0.2371
  400TIP3    H222692   0.391   3.980   0.541 -0.7688  1.0992 -1.2384
  401TIP3   OH222693   1.518   1.456  17.266 -0.0267 -0.9455  0.6253
  401TIP3    H122694   1.495   1.437  17.357 -0.2505 -1.6466  0.4315
  401TIP3    H222695   1.588   1.520  17.272 -0.2823 -0.7164  1.2864
  402TIP3   OH222696   4.540   3.896  12.912  0.1052 -0.3538 -0.0852
  402TIP3    H122697   4.544   3.991  12.900  1.9423 -0.3289  0.3100
  402TIP3    H222698   4.475   3.882  12.980 -0.7660  0.5547 -0.7131
  403TIP3   OH222699   5.016   2.845   2.944  0.1970  0.7780  0.3735
  403TIP3    H122700   4.973   2.769   2.982  1.1591  0.2040  0.3517
  403TIP3    H222701   4.946   2.893   2.900 -0.2321 -0.7706 -0.7139
  404TIP3   OH222702   0.501   0.866  16.776  0.8053 -0.5527  0.0658
  404TIP3    H122703   0.565   0.896  16.840  2.2841 -1.5544 -0.8725
  404TIP3    H222704   0.450   0.944  16.753  1.7598  0.2868  0.7711
  405TIP3   OH222705   0.918   4.110  16.895 -0.1721 -0.4630  0.2773
  405TIP3    H122706   0.932   4.128  16.988  2.1702 -2.9855  0.5354
  405TIP3    H222707   0.853   4.040  16.893 -0.2018 -0.4280  0.0295
  406TIP3   OH222708   5.835   1.248   2.810  0.0151  0.9102  0.1422
  406TIP3    H122709   5.864   1.167   2.768  0.2587  1.0466  0.0460
  406TIP3    H222710   5.808   1.222   2.898  0.6857  0.8223  0.3259
  407TIP3   OH222711   4.689   5.489   5.539  0.1831  0.2192 -0.1413
  407TIP3    H122712   4.695   5.506   5.445  0.7928 -0.6314 -0.2733
  407TIP3    H222713   4.676   5.575   5.578 -1.2869  0.4686 -1.0822
  408TIP3   OH222714   3.566   1.188  11.541  0.0750  0.2509  0.2588
  408TIP3    H122715   3.587   1.096  11.555 -0.3068  0.5111  2.9790
  408TIP3    H222716   3.471   1.194  11.554 -0.2894  0.7394 -2.0615
  409TIP3   OH222717   5.328   4.933   4.793  0.3156  0.1482 -0.0100
  409TIP3    H122718   5.393   4.977   4.848  0.8545  0.6144 -0.9931
  409TIP3    H222719   5.245   4.945   4.839  0.9159 -0.4674  1.2763
  410TIP3   OH222720   3.349   2.601   0.614  0.1270 -0.3102  0.7581
  410TIP3    H122721   3.367   2.538   0.544  0.7388  1.0139 -0.3578
  410TIP3    H222722   3.261   2.634   0.595  0.9142  1.2720 -0.4795
  411TIP3   OH222723   4.222   2.109   1.826 -0.2918 -0.6246 -0.0505
  411TIP3    H122724   4.239   2.197   1.792 -0.4320 -0.3715  0.5251
  411TIP3    H222725   4.233   2.052   1.750  2.6409 -0.4384  0.1293
  412TIP3   OH222726   3.113   4.105  13.497  0.2030  0.0780  0.1056
  412TIP3    H122727   3.199   4.140  13.521  0.2716 -0.3157  0.4348
  412TIP3    H222728   3.098   4.033  13.558  0.3992 -0.9688 -1.0561
  413TIP3   OH222729   1.864   5.019  13.691  0.0860 -0.1689  0.0350
  413TIP3    H122730   1.812   5.088  13.732 -0.6054 -0.8539  0.3244
  413TIP3    H222731   1.836   5.020  13.599 -1.6801 -1.6116  0.5018
  414TIP3   OH222732   2.456   1.281  12.565  0.5458 -0.0467 -0.3389
  414TIP3    H122733   2.509   1.312  12.492  0.9096  2.0355  0.7527
  414TIP3    H222734   2.517   1.273  12.638 -0.2566  0.3920  0.4008
  415TIP3   OH222735   5.626   1.963  12.544 -0.1653  0.0524  0.7624
  415TIP3    H122736   5.582   2.014  12.476 -1.0347  0.2473  1.4365
  415TIP3    H222737   5.570   1.974  12.621  1.8328  1.5278  2.1155
  416TIP3   OH222738   1.298   4.177   4.482 -0.4073  0.1547  0.2853
  416TIP3    H122739   1.251   4.218   4.554  3.5635  1.5584  2.3900
  416TIP3    H222740   1.332   4.249   4.430 -0.1549 -0.7355 -0.8328
  417TIP3   OH222741   0.931   1.375   0.954 -0.0601  1.0023 -0.1154
  417TIP3    H122742   0.911   1.375   0.861  0.5763  0.3782 -0.2629
  417TIP3    H222743   0.864   1.318   0.993  0.0977  0.6850 -0.2998
  418TIP3   OH222744   2.571   2.706   3.954 -0.1997 -0.8415 -0.1331
  418TIP3    H122745   2.665   2.723   3.947 -0.4318  1.9691  1.9000
  418TIP3    H222746   2.563   2.647   4.030 -0.1617  1.5686  1.8704
  419TIP3   OH222747   0.423   4.275   0.472  0.1928 -0.3681 -0.3441
  419TIP3    H122748   0.413   4.239   0.384 -1.0769  1.2304 -0.9036
  419TIP3    H222749   0.419   4.199   0.530 -1.5837 -1.2305 -1.5109
  420TIP3   OH222750   3.242   0.438   5.095  0.7126 -0.2987  0.1143
  420TIP3    H122751   3.316   0.436   5.156  1.1186  1.0365 -0.3027
  420TIP3    H222752   3.270   0.496   5.024 -0.0440 -1.2200 -0.9848
  421TIP3   OH222753   5.118   6.410   0.322 -0.1676 -0.1596  0.1573
  421TIP3    H122754   5.024   6.403   0.338 -0.2144  0.3408  0.1211
  421TIP3    H222755   5.156   6.428   0.408 -0.1686  0.1830  0.0897
  422TIP3   OH222756   6.367   3.893   5.561 -0.3462 -0.0609  0.2171
  422TIP3    H122757   6.386   3.979   5.522 -1.9428  0.0466 -0.4206
  422TIP3    H222758   6.438   3.837   5.530  0.9002  1.0692  0.8981
  423TIP3   OH222759   2.711   2.124   4.385  0.0615  0.0817 -0.0026
  423TIP3    H122760   2.759   2.100   4.464 -0.0773  1.0308  0.3847
  423TIP3    H222761   2.622   2.144   4.415 -0.0268  0.3169 -0.4108
  424TIP3   OH222762   4.316   2.860  14.286  0.2643 -0.2528 -0.2814
  424TIP3    H122763   4.385   2.892  14.344 -0.7090 -0.5443  1.0811
  424TIP3    H222764   4.294   2.935  14.231  2.1297 -0.3539 -1.2428
  425TIP3   OH222765   2.667   0.681   0.747  0.7180  0.6827  0.2241
  425TIP3    H122766   2.740   0.694   0.808  1.0213  0.3739 -0.0621
  425TIP3    H222767   2.701   0.712   0.663  0.2964  1.1256  0.2101
  426TIP3   OH222768   2.977   5.867  11.855 -0.2665 -0.0263  0.1947
  426TIP3    H122769   3.071   5.877  11.871  0.1129 -2.8769  0.2840
  426TIP3    H222770   2.967   5.878  11.761  0.2011  0.0862  0.1571
  427TIP3   OH222771   3.978   6.483  15.529 -0.4561 -0.1261 -0.2727
  427TIP3    H122772   4.073   6.481  15.520 -0.3387  0.2921  0.7534
  427TIP3    H222773   3.953   6.572  15.505 -0.4408  0.1324  0.6109
  428TIP3   OH222774   3.987   3.527   3.481 -0.7580  0.3151  0.8384
  428TIP3    H122775   3.965   3.453   3.538  1.1938 -1.0266 -0.0373
  428TIP3    H222776   3.921   3.523   3.411  1.1424 -2.7722 -1.0136
  429TIP3   OH222777   2.879   5.241   0.214  0.5562 -0.1463 -0.2855
  429TIP3    H122778   2.894   5.334   0.230  0.2562  0.1299 -1.4889
  429TIP3    H222779   2.803   5.218   0.267  0.9933  0.1478  0.4713
  430TIP3   OH222780   5.990   5.742   2.644 -0.2363 -0.0775  0.3228
  430TIP3    H122781   6.040   5.756   2.725  1.1716  0.7503 -0.6421
  430TIP3    H222782   5.918   5.806   2.650 -0.3137 -0.2199  1.0407
  431TIP3   OH222783   6.266   1.840  13.051 -0.1450 -0.8003 -0.7701
  431TIP3    H122784   6.295   1.814  12.964  3.6680  1.3037 -0.3099
  431TIP3    H222785   6.260   1.935  13.047  0.6360 -0.6132  1.3936
  432TIP3   OH222786   0.354   3.948  17.509  0.6353 -0.0424 -0.0138
  432TIP3    H122787   0.358   3.926  17.416 -0.4398 -0.5103  0.0401
  432TIP3    H222788   0.360   4.043  17.512  0.8547 -0.0364 -0.5407
  433TIP3   OH222789   0.200   0.889  16.842 -1.0661 -0.5710  0.0140
  433TIP3    H122790   0.141   0.869  16.769 -1.1223  1.4346 -0.5560
  433TIP3    H222791   0.256   0.959  16.809  1.6536 -2.3495  0.5709
  434TIP3   OH222792   3.168   3.696  15.682  0.1710 -1.1284 -0.1103
  434TIP3    H122793   3.125   3.778  15.656  0.5721 -0.8630  0.0516
  434TIP3    H222794   3.211   3.717  15.765  2.0457 -0.8868 -1.1011
  435TIP3   OH222795   0.226   3.465  15.571 -0.1081  0.2092 -0.1064
  435TIP3    H122796   0.277   3.514  15.507  0.4233 -1.1658 -0.7851
  435TIP3    H222797   0.146   3.441  15.524  0.5400 -1.3113 -0.4913
  436TIP3   OH222798   0.737   5.791   5.517 -0.2931  0.7447  0.3197
  436TIP3    H122799   0.714   5.734   5.591 -2.9244 -0.7503 -1.4348
  436TIP3    H222800   0.831   5.802   5.523 -0.2927 -0.0097  3.3748
  437TIP3   OH222801   1.054   5.514   4.203 -0.5432  0.4618  0.8509
  437TIP3    H122802   1.119   5.444   4.200 -2.5818 -1.4822  0.0350
  437TIP3    H222803   1.032   5.522   4.296 -0.3081 -0.0048  0.9497
  438TIP3   OH222804   6.390   2.550   5.135 -0.1925 -0.2083  0.4592
  438TIP3    H122805   6.440   2.620   5.178  0.5725  1.8307 -3.2177
  438TIP3    H222806   6.319   2.596   5.090  0.3144 -1.6870 -2.0758
  439TIP3   OH222807   0.921   2.946  12.508 -0.1024 -0.1962 -0.7676
  439TIP3    H122808   0.868   2.904  12.440 -1.1626 -0.6605  0.3095
  439TIP3    H222809   0.862   3.010  12.548 -0.2869 -1.5275  1.2256
  440TIP3   OH222810   2.382   5.787  12.247 -0.3648  0.5325 -0.0100
  440TIP3    H122811   2.298   5.744  12.261  0.1926  0.0393  2.2081
  440TIP3    H222812   2.360   5.879  12.231 -1.3404  0.3472  0.2541
  441TIP3   OH222813   0.048   4.424  13.764  0.4760  0.9030  0.7458
  441TIP3    H122814   0.031   4.488  13.834  0.8958  1.1255  0.6440
  441TIP3    H222815   0.126   4.457  13.720  0.5558  0.4444  0.5418
  442TIP3   OH222816   0.767   5.475  13.914  0.0343 -0.5695  0.2786
  442TIP3    H122817   0.821   5.553  13.928 -0.3918 -0.1643 -0.2659
  442TIP3    H222818   0.775   5.457  13.821 -0.8983 -0.3894  0.1449
  443TIP3   OH222819   5.726   2.936  13.634  0.0500  0.2325 -0.4857
  443TIP3    H122820   5.727   2.841  13.649 -0.2914  0.1721 -0.8414
  443TIP3    H222821   5.712   2.946  13.540  0.0050  0.6376 -0.4382
  444TIP3   OH222822   0.394   6.047   2.621 -0.4547 -0.1980 -0.0236
  444TIP3    H122823   0.388   5.970   2.564 -1.0561  0.0220 -0.2697
  444TIP3    H222824   0.487   6.056   2.641 -0.3557 -0.8626 -0.1685
  445TIP3   OH222825   5.683   4.070  16.674 -0.3433 -0.1884  0.2541
  445TIP3    H122826   5.622   4.134  16.639  0.1556  0.2958  0.2491
  445TIP3    H222827   5.643   4.040  16.756  0.1648  1.3489  1.1077
  446TIP3   OH222828   3.998   5.609   0.845 -0.2746  0.7761  0.3051
  446TIP3    H122829   3.998   5.620   0.750  1.6757 -0.2024  0.1337
  446TIP3    H222830   4.060   5.674   0.877  0.9489 -0.4895  0.6150
  447TIP3   OH222831   0.510   0.725   4.718  0.2352  0.1132  0.6546
  447TIP3    H122832   0.538   0.712   4.809 -1.3923 -0.7889  1.0662
  447TIP3    H222833   0.415   0.721   4.721  0.1241  0.5104 -1.0461
  448TIP3   OH222834   1.721   2.726  10.961  0.2565 -0.1448 -0.0609
  448TIP3    H122835   1.695   2.637  10.933  0.1058  0.0106 -0.4252
  448TIP3    H222836   1.732   2.774  10.879  3.4649 -0.6445 -0.0473
  449TIP3   OH222837   3.983   2.604   4.421  0.0951 -0.4388 -0.0446
  449TIP3    H122838   3.934   2.607   4.503  0.7176 -0.1374  0.3272
  449TIP3    H222839   4.039   2.527   4.429  1.6465  0.7029  0.7134
  450TIP3   OH222840   3.417   5.816  11.495  0.2034 -0.2963  0.2526
  450TIP3    H122841   3.416   5.749  11.563  1.0566 -0.1764  0.4047
  450TIP3    H222842   3.461   5.774  11.421  1.4496  0.3103  0.6129
  451TIP3   OH222843   1.037   1.788   5.539  0.1557  0.1505  0.0986
  451TIP3    H122844   0.981   1.710   5.533 -1.1594  1.0957 -0.5712
  451TIP3    H222845   1.066   1.790   5.630 -1.0573 -0.2841  0.5152
  452TIP3   OH222846   1.811   0.016   4.863  0.2364  0.0698 -0.2440
  452TIP3    H122847   1.835   0.086   4.803 -1.5106 -0.9688 -2.3008
  452TIP3    H222848   1.808  -0.062   4.809 -0.4840 -1.1110  1.4124
  453TIP3   OH222849   2.853   1.048   1.073 -0.6708  0.4950 -0.2844
  453TIP3    H122850   2.858   1.139   1.042 -3.0433  0.4993 -0.8481
  453TIP3    H222851   2.941   1.029   1.105 -0.3512  3.3280  0.8201
  454TIP3   OH222852   5.569   1.685   0.508 -0.2483  0.0151  0.1812
  454TIP3    H122853   5.521   1.754   0.553 -0.4256 -0.4264  0.6842
  454TIP3    H222854   5.511   1.609   0.511  0.6419 -0.6505  1.1709
  455TIP3   OH222855   2.966   2.086   4.159  0.0583  0.2189  0.1706
  455TIP3    H122856   2.987   2.078   4.252 -0.7585  1.9883  0.5405
  455TIP3    H222857   2.958   1.996   4.129 -0.1416 -0.3917  1.9246
  456TIP3   OH222858   6.479   5.555   2.550 -0.0134  0.2053  0.1330
  456TIP3    H122859   6.443   5.601   2.474 -1.6475 -3.1273 -1.3293
  456TIP3    H222860   6.474   5.618   2.621 -0.2945  2.8463 -2.0821
  457TIP3   OH222861   1.881   2.971  11.626 -0.4322  0.0246 -0.3188
  457TIP3    H122862   1.927   3.054  11.633  0.4025 -0.4280 -0.3027
  457TIP3    H222863   1.804   2.981  11.681  0.2992  0.3612  0.6550
  458TIP3   OH222864   6.254   6.406   6.413  0.3392 -0.5494  0.5655
  458TIP3    H122865   6.250   6.459   6.493  1.0177 -0.2961  0.4388
  458TIP3    H222866   6.195   6.450   6.352 -0.6762 -1.1026  1.1219
  459TIP3   OH222867   1.841   1.069  13.065 -0.6367 -0.2095 -0.5744
  459TIP3    H122868   1.916   1.129  13.059 -1.2059  0.5961  0.1817
  459TIP3    H222869   1.851   1.012  12.989 -0.1516  0.9402 -1.4100
  460TIP3   OH222870   0.580   3.527  12.762  0.5404  0.3646 -0.5084
  460TIP3    H122871   0.579   3.622  12.754  0.4594  0.3285 -1.0100
  460TIP3    H222872   0.493   3.504  12.794  1.0584  0.5637  1.0854
  461TIP3   OH222873   0.343   3.870   1.503 -0.4114 -0.1762  0.4123
  461TIP3    H122874   0.336   3.904   1.593 -1.4880 -2.0276  1.1070
  461TIP3    H222875   0.370   3.778   1.514  1.1262  0.0245 -1.2774
  462TIP3   OH222876   3.959   4.201  14.779 -0.2015  0.3212  0.2647
  462TIP3    H122877   4.025   4.149  14.732  0.5823  2.0026 -0.5751
  462TIP3    H222878   3.965   4.170  14.869 -1.0723 -2.3106 -0.4940
  463TIP3   OH222879   2.619   3.049  16.471  0.2703  0.2948 -0.0798
  463TIP3    H122880   2.558   3.000  16.526 -0.2496  1.5942  0.5566
  463TIP3    H222881   2.568   3.123  16.439  0.9356  0.2611 -1.2715
  464TIP3   OH222882   0.541   3.784  12.123 -0.0961 -0.3497 -0.0883
  464TIP3    H122883   0.536   3.734  12.042 -0.2854  1.1748 -1.0569
  464TIP3    H222884   0.615   3.843  12.110 -0.7658  0.6285  0.4079
  465TIP3   OH222885   5.343   6.456   2.720 -0.2821 -0.6014  0.1604
  465TIP3    H122886   5.271   6.431   2.778  0.1484  0.4246  1.1778
  465TIP3    H222887   5.418   6.468   2.779  0.2006  0.3502 -0.6293
  466TIP3   OH222888   4.306   3.530   5.725 -0.0258 -0.0327  0.1463
  466TIP3    H122889   4.379   3.473   5.747  0.8845  1.5588  1.4427
  466TIP3    H222890   4.233   3.470   5.707  1.8273 -1.7218 -2.3579
  467TIP3   OH222891   0.368   6.520  15.928  0.3308  0.5019  0.0506
  467TIP3    H122892   0.409   6.433  15.922  1.4183  0.8771  1.3236
  467TIP3    H222893   0.278   6.506  15.900  0.6623 -0.9021 -0.4249
  468TIP3   OH222894   0.370   2.771   3.855  0.3140  0.1194  0.1314
  468TIP3    H122895   0.400   2.751   3.943  0.7900  0.7530  0.1172
  468TIP3    H222896   0.431   2.725   3.797  1.5682  1.7455  0.0930
  469TIP3   OH222897   1.426   0.542  15.392 -0.2343 -0.1846 -0.4075
  469TIP3    H122898   1.345   0.562  15.345 -1.9623 -1.4718  1.8377
  469TIP3    H222899   1.411   0.457  15.432  2.4245 -0.6638 -0.2074
  470TIP3   OH222900   5.090   5.114  17.217  0.1713  0.4591 -0.0715
  470TIP3    H122901   5.163   5.100  17.278  0.2483  1.9805  0.2124
  470TIP3    H222902   5.030   5.172  17.264  0.2824  1.7522 -1.4534
  471TIP3   OH222903   5.858   3.527  11.401 -0.3935 -0.3443  0.3250
  471TIP3    H122904   5.845   3.595  11.467  0.5599  1.1702 -0.9950
  471TIP3    H222905   5.775   3.522  11.354  0.8063  3.4611 -2.7144
  472TIP3   OH222906   4.771   2.349  14.162  0.0649 -0.0164 -0.2695
  472TIP3    H122907   4.761   2.438  14.197 -0.6453  0.4540 -1.5722
  472TIP3    H222908   4.704   2.343  14.094 -0.3489 -1.8055  0.2520
  473TIP3   OH222909   5.494   6.680   5.888  0.9142  0.2347 -0.4565
  473TIP3    H122910   5.435   6.696   5.962  0.6348 -0.3945 -0.5356
  473TIP3    H222911   5.581   6.672   5.927  0.4688 -2.5279  0.1308
  474TIP3   OH222912   2.319   3.131   5.029  0.5039  0.4243  0.2038
  474TIP3    H122913   2.355   3.113   5.115  2.9263  1.7907 -0.4014
  474TIP3    H222914   2.350   3.059   4.974  0.6857  0.5873  0.0874
  475TIP3   OH222915   5.180   3.701  11.575  0.2679  0.1642  0.5801
  475TIP3    H122916   5.098   3.672  11.616  0.7588  0.0775  1.5390
  475TIP3    H222917   5.198   3.635  11.508  1.8166 -2.4502  3.2718
  476TIP3   OH222918   4.944   6.630  15.510  0.0881  0.0873 -0.0385
  476TIP3    H122919   4.965   6.677  15.430  1.2358  1.0239  0.7798
  476TIP3    H222920   4.973   6.687  15.581  0.0600 -1.1576  1.0330
  477TIP3   OH222921   3.818   1.847  13.020  0.0345 -0.4138  0.3526
  477TIP3    H122922   3.875   1.838  12.944  0.7415 -0.8184  0.9138
  477TIP3    H222923   3.868   1.808  13.092 -0.0813  1.1176  1.3042
  478TIP3   OH222924   3.782   3.696   3.878  0.6313  0.6903 -0.4487
  478TIP3    H122925   3.756   3.676   3.968 -0.1698 -0.6521 -0.9515
  478TIP3    H222926   3.738   3.777   3.857 -1.1207 -0.2108 -0.4068
  479TIP3   OH222927   3.986   6.166   4.403  0.6045 -0.2839 -0.2288
  479TIP3    H122928   3.951   6.146   4.490 -1.7522 -1.9495 -1.4360
  479TIP3    H222929   4.007   6.259   4.406 -1.1002  0.1154  1.6303
  480TIP3   OH222930   3.281   4.962  14.476 -0.2260 -0.4644  0.6370
  480TIP3    H122931   3.315   4.887  14.524 -0.4669 -1.1059 -0.1803
  480TIP3    H222932   3.224   5.007  14.539 -2.4705 -2.6218  0.2928
  481TIP3   OH222933   5.211   4.259   0.361  1.0228 -0.0765 -0.5759
  481TIP3    H122934   5.233   4.318   0.289  0.2299  1.6239  0.5258
  481TIP3    H222935   5.295   4.228   0.394  1.4243 -0.1070 -1.5796
  482TIP3   OH222936   2.317   0.137  11.487 -0.7358  0.3199 -0.5106
  482TIP3    H122937   2.251   0.205  11.475  1.6446  3.1597  0.9001
  482TIP3    H222938   2.369   0.139  11.406  0.9580  2.2959  0.5217
  483TIP3   OH222939   4.725   0.258  16.856 -0.0040 -0.0774 -0.5343
  483TIP3    H122940   4.763   0.189  16.911 -0.4083  1.4759  1.8344
  483TIP3    H222941   4.632   0.260  16.882 -0.0404  1.1835 -0.7364
  484TIP3   OH222942   2.812   0.729  12.060  0.5615 -0.3134 -0.1965
  484TIP3    H122943   2.851   0.813  12.035  1.8618 -0.8303  0.0185
  484TIP3    H222944   2.751   0.750  12.131 -0.3253  0.6497 -1.2089
  485TIP3   OH222945   3.287   0.474  15.269 -0.1735 -0.1862 -0.7365
  485TIP3    H122946   3.344   0.426  15.209  1.5455  0.1677  0.5347
  485TIP3    H222947   3.287   0.564  15.236  0.3903 -0.0890 -0.4733
  486TIP3   OH222948   2.697   1.767   3.676 -0.6570  0.0365  0.7851
  486TIP3    H122949   2.759   1.824   3.631 -0.5630 -0.7656 -0.1238
  486TIP3    H222950   2.744   1.685   3.687 -0.6072  0.2533  2.5388
  487TIP3   OH222951   5.796   1.898  15.793  0.1668  0.3876 -0.0447
  487TIP3    H122952   5.864   1.863  15.735  1.0970 -0.9858  1.7630
  487TIP3    H222953   5.843   1.958  15.852 -0.9078  2.4364 -1.1682
  488TIP3   OH222954   3.537   4.061  10.905  0.6032  0.8728 -0.7230
  488TIP3    H122955   3.559   3.986  10.849 -1.0877 -0.0206 -0.2565
  488TIP3    H222956   3.445   4.081  10.884 -0.3939 -0.0496  2.2772
  489TIP3   OH222957   5.360   5.092  12.747  0.1480 -0.3842  0.5188
  489TIP3    H122958   5.379   5.167  12.691 -0.2634 -0.8219 -0.2251
  489TIP3    H222959   5.446   5.060  12.774  0.3310  0.2379  0.6957
  490TIP3   OH222960   2.143   0.217   2.980 -0.2382 -0.1451 -0.0195
  490TIP3    H122961   2.154   0.263   3.063 -1.2341 -0.5146  0.3364
  490TIP3    H222962   2.060   0.169   2.990  0.2728 -1.2123 -0.7506
  491TIP3   OH222963   5.868   3.184   3.903 -0.0481  0.0438  0.2056
  491TIP3    H122964   5.902   3.184   3.813  0.2365 -1.9135  0.2601
  491TIP3    H222965   5.946   3.197   3.958 -0.0882  0.3478  0.1890
  492TIP3   OH222966   4.283   5.492   3.860 -0.4171  0.4356  0.0301
  492TIP3    H122967   4.199   5.493   3.815  0.2224  0.9396 -1.1906
  492TIP3    H222968   4.263   5.459   3.948 -1.8056  0.1439 -0.3796
  493TIP3   OH222969   4.512   0.903   2.526 -0.0817  0.2393  0.3825
  493TIP3    H122970   4.432   0.954   2.535  0.2834  0.5025  3.0895
  493TIP3    H222971   4.580   0.960   2.562  1.0175 -0.6869 -0.1706
  494TIP3   OH222972   5.366   4.250   4.454 -0.3951  1.1275  0.9449
  494TIP3    H122973   5.307   4.325   4.444 -0.4194  1.2655  2.0127
  494TIP3    H222974   5.431   4.263   4.385 -1.5559  0.9987 -0.2278
  495TIP3   OH222975   4.542   6.497  13.118  0.3179 -0.2481  0.0597
  495TIP3    H122976   4.601   6.516  13.045 -0.4195  0.4884 -0.3529
  495TIP3    H222977   4.495   6.579  13.133  0.3243 -0.4357  1.2484
  496TIP3   OH222978   5.666   3.430  16.869  0.5443 -0.5098  0.8837
  496TIP3    H122979   5.730   3.459  16.804 -1.0700  0.2282 -0.4659
  496TIP3    H222980   5.694   3.343  16.894  1.7556 -0.4271 -0.1076
  497TIP3   OH222981   6.595   6.760   6.660  1.0818 -1.2290 -0.3913
  497TIP3    H122982   6.540   6.683   6.673  0.0034 -0.2901  0.8305
  497TIP3    H222983   6.684   6.728   6.673  0.7487 -2.4918 -1.0416
  498TIP3   OH222984   1.275   4.619  11.142  0.7171 -0.0174 -0.3184
  498TIP3    H122985   1.318   4.535  11.157  1.1932 -0.0706 -1.7971
  498TIP3    H222986   1.346   4.683  11.140  0.8345 -0.1163 -2.8743
  499TIP3   OH222987   4.359   0.907   1.993 -0.2662 -0.3343  0.1498
  499TIP3    H122988   4.277   0.925   1.946  0.4524  2.9851 -0.0700
  499TIP3    H222989   4.421   0.884   1.924  0.1464  2.0456 -0.3586
  500TIP3   OH222990   0.940   4.970   0.919 -0.2635 -0.3993  0.0798
  500TIP3    H122991   0.922   4.987   0.827 -1.6179  0.3472  0.4551
  500TIP3    H222992   0.884   4.896   0.942  1.1652 -1.5664 -0.0298
  501TIP3   OH222993   3.608   1.743   2.463  0.0010  0.0698 -0.6712
  501TIP3    H122994   3.679   1.769   2.521  0.1066  2.1365 -1.6589
  501TIP3    H222995   3.529   1.783   2.500 -0.0462  0.7962 -1.5150
  502TIP3   OH222996   2.396   6.701  16.937  0.4871 -0.0277 -0.7592
  502TIP3    H122997   2.451   6.642  16.884 -1.8099 -2.9195 -0.2061
  502TIP3    H222998   2.313   6.703  16.891  0.0113  1.5720  0.1179
  503TIP3   OH222999   2.764   3.081   2.165  0.1696  0.1543  0.3694
  503TIP3    H123000   2.684   3.028   2.164 -1.2000  2.0967  1.0448
  503TIP3    H223001   2.820   3.037   2.229 -0.9098 -0.4980  0.9019
  504TIP3   OH223002   4.878   4.304  15.413  0.4627 -0.0017 -0.2334
  504TIP3    H123003   4.813   4.338  15.474  0.3904 -1.2402  0.4131
  504TIP3    H223004   4.883   4.370  15.344 -2.9473 -0.7339 -1.3846
  505TIP3   OH223005   5.306   0.500  13.209 -0.0858 -0.3066 -0.1221
  505TIP3    H123006   5.319   0.428  13.271  1.4969 -0.0738 -0.1571
  505TIP3    H223007   5.376   0.490  13.144 -0.8503  0.2975 -1.0784
  506TIP3   OH223008   6.357   6.209   2.852 -0.1495 -0.5067  0.5979
  506TIP3    H123009   6.388   6.120   2.838  1.3816 -0.5043  3.3956
  506TIP3    H223010   6.286   6.200   2.916 -0.5592  0.2427  0.2684
  507TIP3   OH223011   4.115   4.218  17.518  0.0281  0.3274  0.3088
  507TIP3    H123012   4.036   4.258  17.555 -0.3343  0.1492 -0.2723
  507TIP3    H223013   4.153   4.169  17.591 -0.9081 -0.3700  0.3474
  508TIP3   OH223014   0.986   5.222   5.374 -0.1241 -0.0717 -0.2387
  508TIP3    H123015   0.973   5.275   5.452 -0.3754  1.0403 -1.0051
  508TIP3    H223016   1.074   5.246   5.343 -0.9598  1.4126 -1.6525
  509TIP3   OH223017   5.700   3.564  13.665 -0.1498 -0.1480  0.4050
  509TIP3    H123018   5.669   3.646  13.627  1.7045  0.5114  0.2088
  509TIP3    H223019   5.624   3.506  13.663 -1.3468  1.3651  0.0065
  510TIP3   OH223020   3.470   1.803  14.418  0.2378 -0.1801  0.2270
  510TIP3    H123021   3.465   1.770  14.328 -2.7549  2.5932 -0.8284
  510TIP3    H223022   3.458   1.726  14.473 -0.2715 -1.6552 -1.8363
  511TIP3   OH223023   2.602   2.541   1.553  0.3088  0.4015  0.0216
  511TIP3    H123024   2.547   2.463   1.558 -1.3787  1.4350 -1.1658
  511TIP3    H223025   2.541   2.614   1.564  2.0935  1.6263  3.3918
  512TIP3   OH223026   2.736   1.365   1.271 -0.0886  0.0505  0.4520
  512TIP3    H123027   2.823   1.357   1.231  0.7220  0.3851  2.0390
  512TIP3    H223028   2.693   1.434   1.221 -0.7635 -2.3056 -2.5033
  513TIP3   OH223029   5.784   0.261   6.829  0.4115 -0.6410 -0.3820
  513TIP3    H123030   5.740   0.279   6.912  0.6072  0.4074 -0.5035
  513TIP3    H223031   5.850   0.194   6.851 -0.2604 -1.1651  0.0808
  514TIP3   OH223032   2.893   0.913   6.909  0.3856 -0.2971 -0.0210
  514TIP3    H123033   2.970   0.958   6.874 -0.1142  0.2802 -0.3824
  514TIP3    H223034   2.870   0.849   6.842  0.4912 -0.4115  0.0499
  515TIP3   OH223035   0.286   0.683   6.383  0.3822  0.5657  0.2746
  515TIP3    H123036   0.255   0.712   6.298  0.0030 -0.6103 -0.0085
  515TIP3    H223037   0.379   0.705   6.383  0.3331  0.7972 -0.3409
  516TIP3   OH223038   3.427   6.591   4.830 -0.4135  0.6282  0.4315
  516TIP3    H123039   3.519   6.571   4.850  0.1370  4.1084  2.0725
  516TIP3    H223040   3.383   6.583   4.915 -1.8052 -1.3434 -0.4019
  517TIP3   OH223041   3.837   0.296  13.415 -0.4141  0.0402 -0.5045
  517TIP3    H123042   3.830   0.299  13.320  1.5336  1.8732 -0.6494
  517TIP3    H223043   3.921   0.337  13.435 -0.8426 -0.1333  2.0228
  518TIP3   OH223044   2.526   5.110  13.591 -0.7494  0.2596 -0.3814
  518TIP3    H123045   2.551   5.112  13.683  0.3420  0.3204 -0.6640
  518TIP3    H223046   2.447   5.056  13.589 -0.6153  0.0061  0.5482
  519TIP3   OH223047   2.940   1.867   5.873 -0.1142 -0.2538  0.5035
  519TIP3    H123048   2.967   1.927   5.944 -0.9378 -0.1786  0.7676
  519TIP3    H223049   3.022   1.828   5.843  0.2753 -0.1456  1.3721
  520TIP3   OH223050   5.413   5.189   5.365 -0.4870 -0.2188 -0.0343
  520TIP3    H123051   5.430   5.133   5.440 -1.1404  1.0358  1.1054
  520TIP3    H223052   5.408   5.129   5.290  3.1995 -1.2561  0.3383
  521TIP3   OH223053   2.286   1.185   3.093  0.7134  0.0076 -0.1813
  521TIP3    H123054   2.349   1.114   3.079 -1.4578 -1.8206 -1.2654
  521TIP3    H223055   2.226   1.178   3.019 -2.4883 -0.2811  2.2572
  522TIP3   OH223056   4.748   5.674  15.234  0.4070  0.2453  0.3735
  522TIP3    H123057   4.738   5.769  15.248  3.0246  0.3011  2.6058
  522TIP3    H223058   4.666   5.636  15.265  0.2754  1.6286  1.8265
  523TIP3   OH223059   5.113   0.280   3.760  0.3771 -0.4748  0.0682
  523TIP3    H123060   5.180   0.242   3.818  2.5297 -1.4963 -2.8699
  523TIP3    H223061   5.076   0.205   3.714  0.0035  0.4244 -1.1447
  524TIP3   OH223062   2.326   0.270   0.701 -0.3808  0.1788 -0.0285
  524TIP3    H123063   2.257   0.320   0.659 -1.1458 -1.1344 -0.3967
  524TIP3    H223064   2.364   0.217   0.631 -1.1805 -1.4853  0.7387
  525TIP3   OH223065   3.548   4.568  16.329 -0.7436  0.1129 -0.1956
  525TIP3    H123066   3.580   4.651  16.363  0.1950 -0.8762  1.5033
  525TIP3    H223067   3.462   4.588  16.293 -0.4462  1.8444 -0.0403
  526TIP3   OH223068   5.181   2.271   3.475 -0.4822  0.0247 -0.1273
  526TIP3    H123069   5.217   2.360   3.482  1.4950 -0.7580  0.1742
  526TIP3    H223070   5.094   2.278   3.513  0.8180  1.1938  2.9810
  527TIP3   OH223071   5.576   0.390   1.571  0.2136  0.3583  0.3823
  527TIP3    H123072   5.481   0.400   1.568  0.2637  0.7157 -0.0863
  527TIP3    H223073   5.600   0.418   1.659 -0.2215 -0.7200  0.8691
  528TIP3   OH223074   4.704   2.566  12.485  0.0442  0.0580 -0.1196
  528TIP3    H123075   4.630   2.525  12.440  0.9849 -1.9007  0.0237
  528TIP3    H223076   4.767   2.586  12.417 -0.8123  2.3245 -0.3271
  529TIP3   OH223077   4.978   4.212   4.689  0.0746  0.1690 -0.1384
  529TIP3    H123078   4.941   4.232   4.603 -0.0140 -0.4516 -0.2500
  529TIP3    H223079   4.979   4.116   4.693 -1.7477  0.1501  1.3263
  530TIP3   OH223080   3.478   4.872  12.923 -0.1053  0.4538  0.2383
  530TIP3    H123081   3.551   4.885  12.863  0.2310  1.0315  0.7649
  530TIP3    H223082   3.419   4.945  12.904 -0.5677 -0.0239 -0.2034
  531TIP3   OH223083   5.874   0.547  13.939  0.1904 -0.0456  0.0514
  531TIP3    H123084   5.931   0.474  13.961 -0.2156 -0.5646 -0.5836
  531TIP3    H223085   5.809   0.549  14.010  0.0045 -0.5188 -0.0999
  532TIP3   OH223086   1.309   6.419   4.193  0.3627 -0.4336 -0.1916
  532TIP3    H123087   1.272   6.450   4.276  0.3521 -1.9759  0.4172
  532TIP3    H223088   1.252   6.347   4.167  1.2516 -0.9533 -0.7553
  533TIP3   OH223089   1.226   3.426   2.712  0.1670 -0.6025 -0.7643
  533TIP3    H123090   1.166   3.492   2.748  0.5291 -0.2358 -0.8308
  533TIP3    H223091   1.189   3.343   2.740  0.3749 -0.3341  0.3621
  534TIP3   OH223092   3.517   1.538  15.038  1.0874  0.1813 -0.1979
  534TIP3    H123093   3.519   1.593  14.960  1.5918  0.0794 -0.2578
  534TIP3    H223094   3.480   1.455  15.008 -0.0150  0.5963 -0.0315
  535TIP3   OH223095   1.950   0.005   0.737 -0.2895  0.2808 -0.3451
  535TIP3    H123096   2.036   0.025   0.774 -1.0743 -0.0462  1.8018
  535TIP3    H223097   1.892   0.072   0.772 -1.3099 -0.7398 -0.0303
  536TIP3   OH223098   6.156   4.586   4.970 -0.4149 -0.2981 -0.2153
  536TIP3    H123099   6.159   4.657   4.906  0.8372  0.8612  1.0624
  536TIP3    H223100   6.247   4.557   4.978 -0.9092 -2.1800 -0.8033
  537TIP3   OH223101   6.253   1.687   3.778 -0.0171 -0.2296  0.4761
  537TIP3    H123102   6.306   1.637   3.840  2.5938  0.2947 -1.1735
  537TIP3    H223103   6.243   1.773   3.818  1.2308 -0.0484  0.4413
  538TIP3   OH223104   6.551   5.867  11.569  0.1813  0.2722  0.4685
  538TIP3    H123105   6.558   5.948  11.518 -1.1177 -0.2021 -0.5191
  538TIP3    H223106   6.473   5.824  11.535  2.0137 -2.4732 -0.6014
  539TIP3   OH223107   4.245   2.004   4.228  0.1315  0.3410  0.0205
  539TIP3    H123108   4.185   1.933   4.204  0.4281 -0.1452  0.6802
  539TIP3    H223109   4.330   1.976   4.195  0.2467  0.3955  0.2691
  540TIP3   OH223110   1.105   1.121   5.005  0.3602  0.5277  1.0137
  540TIP3    H123111   1.180   1.083   5.050  0.6072 -0.8640 -0.4844
  540TIP3    H223112   1.033   1.061   5.024  0.8746 -1.1389 -1.8202
  541TIP3   OH223113   4.701   0.383   2.960 -0.4704  0.2886 -0.4088
  541TIP3    H123114   4.646   0.326   2.907  0.4528 -1.0023 -0.0316
  541TIP3    H223115   4.683   0.358   3.050  1.5282 -0.9885 -0.3040
  542TIP3   OH223116   6.518   6.488  13.913  0.0691  0.4625 -0.3985
  542TIP3    H123117   6.455   6.421  13.941  1.4405 -0.3760  0.8689
  542TIP3    H223118   6.479   6.570  13.943  0.9949 -0.2903  3.5186
  543TIP3   OH223119   3.121   5.447  15.793 -0.3030  0.0866 -0.0220
  543TIP3    H123120   3.077   5.419  15.873 -0.6174 -0.1225 -0.2656
  543TIP3    H223121   3.213   5.426  15.807 -0.7451 -2.8299 -0.9150
  544TIP3   OH223122   0.696   0.199  16.488  0.2441 -0.1867 -0.1924
  544TIP3    H123123   0.718   0.272  16.430 -0.8175  0.6104  0.3629
  544TIP3    H223124   0.614   0.226  16.531  0.3947 -1.2418  0.8263
  545TIP3   OH223125   5.904   6.406  13.149 -0.4887 -0.0376  0.7290
  545TIP3    H123126   5.975   6.433  13.090 -0.9509  0.6876  0.4921
  545TIP3    H223127   5.920   6.456  13.229 -0.3439 -0.3859  0.9166
  546TIP3   OH223128   2.615   0.040  11.435 -0.3085  0.4566  0.2782
  546TIP3    H123129   2.581   0.001  11.516 -1.1169 -0.2683 -0.3941
  546TIP3    H223130   2.671   0.111  11.465  0.8275 -0.9040  1.5474
  547TIP3   OH223131   5.490   1.718   3.261 -0.3219  0.0846  0.0969
  547TIP3    H123132   5.570   1.670   3.283 -1.0075 -1.0548  0.1766
  547TIP3    H223133   5.445   1.662   3.198  0.1596  1.9196 -1.9999
  548TIP3   OH223134   2.374   4.172   5.397 -0.0679 -0.8024  0.3053
  548TIP3    H123135   2.440   4.119   5.353  0.4780  0.0205  0.1115
  548TIP3    H223136   2.400   4.263   5.380 -0.3138 -0.4613  1.6005
  549TIP3   OH223137   3.294   2.437   3.512 -0.1466  0.0903  0.2008
  549TIP3    H123138   3.243   2.517   3.523  0.5359  0.5749 -0.0568
  549TIP3    H223139   3.357   2.458   3.443 -0.3466 -0.8705 -0.2876
  550TIP3   OH223140   0.495   5.046   6.071  0.5543  0.6364 -0.3145
  550TIP3    H123141   0.564   4.997   6.026  0.0990  0.3389 -0.7092
  550TIP3    H223142   0.445   4.979   6.117 -0.3091  0.6640 -1.1759
  551TIP3   OH223143   3.986   4.230   5.598  0.3651  0.4361 -0.2104
  551TIP3    H123144   4.038   4.257   5.522  0.9804 -0.1327 -0.0017
  551TIP3    H223145   3.919   4.172   5.562 -1.3018  2.5884 -0.7373
  552TIP3   OH223146   6.266   4.539   0.655  0.2273 -0.3387 -0.4624
  552TIP3    H123147   6.268   4.445   0.633  1.2093 -0.1576 -1.2604
  552TIP3    H223148   6.339   4.576   0.604 -0.4945  0.9505 -0.5859
  553TIP3   OH223149   2.937   2.517  13.101  0.5705 -0.2814 -0.0528
  553TIP3    H123150   2.927   2.612  13.113  1.4332  0.2790 -2.9295
  553TIP3    H223151   2.919   2.480  13.187  0.3361  2.4978  1.2098
  554TIP3   OH223152   4.419   0.959   3.369  0.0735 -0.1809  0.3026
  554TIP3    H123153   4.489   0.902   3.339 -1.4229 -1.1631 -1.5609
  554TIP3    H223154   4.372   0.908   3.435 -1.0019 -1.0137 -1.0502
  555TIP3   OH223155   2.914   4.963   0.468  0.5052  0.0067  0.4811
  555TIP3    H123156   2.993   4.908   0.473 -0.2748 -1.6977 -3.0028
  555TIP3    H223157   2.845   4.909   0.504  0.2243 -0.2479 -0.4083
  556TIP3   OH223158   0.394   0.509   1.431 -0.4019 -0.5709 -0.3729
  556TIP3    H123159   0.374   0.466   1.348 -2.4628  1.0365 -0.7961
  556TIP3    H223160   0.382   0.602   1.414  1.4105  0.0016  1.1660
  557TIP3   OH223161   2.726   5.259  15.541 -0.2689  0.2772  0.7583
  557TIP3    H123162   2.797   5.312  15.577  0.4811 -0.4492  0.3650
  557TIP3    H223163   2.656   5.322  15.524  0.4535  1.0840  0.6978
  558TIP3   OH223164   3.771   1.937   6.784 -0.2361  0.0576 -0.4528
  558TIP3    H123165   3.796   1.993   6.857 -2.0442  1.9351 -1.1831
  558TIP3    H223166   3.847   1.937   6.727 -0.1169  1.6325 -0.3261
  559TIP3   OH223167   6.443   6.647  15.639  0.3495  0.6414  0.4209
  559TIP3    H123168   6.380   6.634  15.710  0.9481  0.8201  1.0015
  559TIP3    H223169   6.397   6.701  15.575 -1.0226 -1.4638 -0.4634
  560TIP3   OH223170   2.519   3.128  16.998  0.0071  0.2006 -0.2795
  560TIP3    H123171   2.456   3.162  16.934 -0.1907  0.6558  0.1476
  560TIP3    H223172   2.583   3.199  17.007  0.3010 -0.0570 -0.3319
  561TIP3   OH223173   2.992   3.483  14.845  0.4521 -0.0183  0.0569
  561TIP3    H123174   3.062   3.501  14.782 -1.5944  0.6847 -2.1970
  561TIP3    H223175   2.973   3.390  14.834 -0.6685  0.3283 -1.3435
  562TIP3   OH223176   5.074   1.337  12.962  0.0927  0.7329  0.2160
  562TIP3    H123177   5.136   1.266  12.980  1.2177  1.6267 -0.0525
  562TIP3    H223178   4.991   1.306  12.999  0.1358 -1.4205 -1.3104
  563TIP3   OH223179   4.229   1.059   2.319 -0.1271  0.2073  0.1974
  563TIP3    H123180   4.250   1.123   2.251  0.6337  0.4593  0.6540
  563TIP3    H223181   4.140   1.082   2.346 -0.5015 -0.0026 -0.8181
  564TIP3   OH223182   4.180   3.272  15.780  0.6476 -0.0824 -0.1664
  564TIP3    H123183   4.255   3.294  15.724 -0.0534 -0.1438 -1.1659
  564TIP3    H223184   4.219   3.236  15.860  1.7907  2.7495  0.6657
  565TIP3   OH223185   1.521   4.148   1.331  0.4530 -0.1795 -0.3072
  565TIP3    H123186   1.428   4.127   1.330 -0.3599  3.0482 -1.2679
  565TIP3    H223187   1.563   4.071   1.293 -1.5283 -2.4899  1.8026
  566TIP3   OH223188   4.610   3.851   2.915  0.3715  0.2337  0.0669
  566TIP3    H123189   4.566   3.814   2.992 -0.4596  0.9121 -0.0597
  566TIP3    H223190   4.569   3.937   2.903  0.1883 -0.0194 -1.3734
  567TIP3   OH223191   5.371   2.865  14.517 -0.0005 -0.1229 -0.4003
  567TIP3    H123192   5.446   2.866  14.577 -0.2595  0.9533 -0.0596
  567TIP3    H223193   5.301   2.822  14.567 -0.2716  0.9364  0.1805
  568TIP3   OH223194   5.015   0.408   4.883 -0.2918 -0.4734  0.5474
  568TIP3    H123195   4.975   0.336   4.931 -0.0148 -0.7154  0.4212
  568TIP3    H223196   5.108   0.386   4.880 -0.0718  0.3057  1.2361
  569TIP3   OH223197   0.163   4.216   2.925 -0.4027 -0.1785  0.2413
  569TIP3    H123198   0.114   4.145   2.885 -3.4657  1.6119  0.5362
  569TIP3    H223199   0.241   4.174   2.961 -1.0965 -3.0127 -1.2768
  570TIP3   OH223200   1.461   3.679   4.166 -0.5366 -0.6092 -0.7757
  570TIP3    H123201   1.492   3.607   4.221 -0.6838 -0.2797 -0.2605
  570TIP3    H223202   1.442   3.637   4.082  0.1584 -1.0266 -0.7311
  571TIP3   OH223203   0.081   3.668   4.306 -0.3456  0.4665  0.0931
  571TIP3    H123204   0.103   3.761   4.302  0.7010  0.2354  0.0713
  571TIP3    H223205   0.060   3.645   4.215 -1.0068  0.7595  0.1633
  572TIP3   OH223206   0.245   2.091   3.230  0.5521  0.4729 -0.0333
  572TIP3    H123207   0.316   2.128   3.177  0.4155  1.5393  0.5099
  572TIP3    H223208   0.287   2.023   3.282  0.7602 -0.3524 -1.2292
  573TIP3   OH223209   6.675   0.196  14.243  0.1734 -0.4760  0.2454
  573TIP3    H123210   6.584   0.179  14.219 -0.2036  0.9165  0.5774
  573TIP3    H223211   6.726   0.155  14.173 -0.6885 -1.4299  0.1484
  574TIP3   OH223212   0.385   2.700  14.916  0.3521  0.3701 -0.0529
  574TIP3    H123213   0.347   2.727  15.000 -1.2850  1.0386 -0.9732
  574TIP3    H223214   0.331   2.626  14.888 -0.5787  1.5606 -1.5505
  575TIP3   OH223215   0.687   4.860   3.707 -0.0210 -0.3863 -0.1147
  575TIP3    H123216   0.655   4.896   3.623 -0.8811  0.0972  0.3989
  575TIP3    H223217   0.627   4.788   3.726 -1.2226  0.8580  1.1200
  576TIP3   OH223218   0.241   2.648   5.671  0.2076 -0.1457 -0.4279
  576TIP3    H123219   0.290   2.647   5.588  1.7873 -1.4478  0.4529
  576TIP3    H223220   0.307   2.667   5.738  0.4138 -5.1840  1.2227
  577TIP3   OH223221   1.928   1.960  16.164  0.3909 -0.0256  0.1046
  577TIP3    H123222   2.017   1.946  16.195  0.6378  0.4581 -0.3681
  577TIP3    H223223   1.877   1.974  16.244  1.2811  2.6400  0.3078
  578TIP3   OH223224   0.517   3.696  11.875 -0.4906  0.0742  0.4870
  578TIP3    H123225   0.489   3.605  11.867 -0.3044  0.1211 -0.9661
  578TIP3    H223226   0.441   3.748  11.849  0.1665  0.2420 -1.2918
  579TIP3   OH223227   4.417   5.145   5.439  0.2511  0.1226  0.0520
  579TIP3    H123228   4.491   5.126   5.496  0.7515 -0.0567 -0.6464
  579TIP3    H223229   4.445   5.221   5.388 -0.4318  0.6627  0.4700
  580TIP3   OH223230   5.840   4.312   1.479 -0.5082  1.1389 -0.3593
  580TIP3    H123231   5.788   4.261   1.542  0.3527  0.9741  0.2302
  580TIP3    H223232   5.851   4.254   1.404 -0.1232  0.7048  0.0252
  581TIP3   OH223233   0.258   4.843   1.519  0.0346  0.1985  0.0359
  581TIP3    H123234   0.166   4.843   1.492  0.5824  3.5066 -2.4800
  581TIP3    H223235   0.303   4.793   1.451  0.3317  0.4482  0.0461
  582TIP3   OH223236   6.629   0.007   1.469 -0.1527  0.2177  0.0748
  582TIP3    H123237   6.615   0.010   1.563 -1.8543  2.6405 -0.1691
  582TIP3    H223238   6.664   0.093   1.447 -0.5284 -0.0105 -1.6019
  583TIP3   OH223239   3.304   0.839   1.414  0.4514 -0.3230  0.7020
  583TIP3    H123240   3.276   0.749   1.402  2.0703 -0.7995  0.2941
  583TIP3    H223241   3.343   0.864   1.330  1.1280  0.3434  1.1986
  584TIP3   OH223242   6.053   1.028  15.190  0.7678 -0.3120  0.1921
  584TIP3    H123243   5.994   0.986  15.252  1.9670 -0.2938  1.4058
  584TIP3    H223244   5.999   1.092  15.143 -0.2235 -0.5212  1.0304
  585TIP3   OH223245   3.054   6.271   0.668 -0.3019  0.1459  0.0168
  585TIP3    H123246   3.046   6.324   0.748  1.0328 -0.1050  0.3422
  585TIP3    H223247   2.968   6.277   0.627 -1.2320 -0.2381  1.7958
  586TIP3   OH223248   1.889   2.451  14.779  0.2799  0.0208 -0.1412
  586TIP3    H123249   1.977   2.439  14.742 -0.5983 -1.3930 -1.9742
  586TIP3    H223250   1.840   2.493  14.709 -1.1408 -1.5997 -0.1874
  587TIP3   OH223251   3.571   4.354   4.413  0.2347 -0.3727  0.0714
  587TIP3    H123252   3.648   4.345   4.468  0.8119 -1.2943 -0.8592
  587TIP3    H223253   3.582   4.438   4.369  0.1247  0.0290  0.7823
  588TIP3   OH223254   3.410   5.285   5.940  0.0201  0.0945 -0.1141
  588TIP3    H123255   3.480   5.327   5.989 -0.2616  1.5622 -0.9272
  588TIP3    H223256   3.445   5.276   5.851  0.7072 -2.9566  0.3502
  589TIP3   OH223257   0.134   1.508   1.960  0.4363 -0.5425 -0.5202
  589TIP3    H123258   0.055   1.483   2.007  0.9383  0.4704  0.9194
  589TIP3    H223259   0.127   1.602   1.948  2.1102 -0.1469  1.0665
  590TIP3   OH223260   4.719   3.689  12.852  0.3296  0.5386 -0.2724
  590TIP3    H123261   4.801   3.724  12.817 -0.0221  0.4520 -1.2024
  590TIP3    H223262   4.672   3.765  12.885  0.6503  0.6232 -0.0006
  591TIP3   OH223263   0.493   1.876  13.595  0.0198 -0.4297  0.2364
  591TIP3    H123264   0.432   1.802  13.596 -0.8707  0.2886 -0.2514
  591TIP3    H223265   0.459   1.935  13.528  1.0045  0.2019  0.2711
  592TIP3   OH223266   1.147   5.222   2.442 -0.5822  0.6375 -0.0904
  592TIP3    H123267   1.135   5.282   2.368  0.3232 -0.4193 -1.1248
  592TIP3    H223268   1.095   5.145   2.420 -0.3849  0.3507  0.4187
  593TIP3   OH223269   3.338   0.488   3.678  0.4461 -0.3488  0.3930
  593TIP3    H123270   3.264   0.492   3.616 -0.2368 -0.1221  1.1978
  593TIP3    H223271   3.370   0.399   3.671  0.8871 -0.1096 -0.8605
  594TIP3   OH223272   3.653   3.416   4.540 -0.0949 -0.3663  0.3860
  594TIP3    H123273   3.568   3.414   4.584  0.5958  1.6693  1.9696
  594TIP3    H223274   3.709   3.359   4.592  0.2996  0.8042  1.3076
  595TIP3   OH223275   6.089   4.303   4.213 -0.7317  0.6323  0.0667
  595TIP3    H123276   6.176   4.313   4.175 -1.7779 -0.0102 -2.7553
  595TIP3    H223277   6.065   4.391   4.241 -0.1318  1.3186 -1.4603
  596TIP3   OH223278   5.149   2.003   0.591  0.0604  0.2072  0.1980
  596TIP3    H123279   5.179   2.093   0.602  1.9632 -0.3589  0.0276
  596TIP3    H223280   5.127   1.997   0.498  1.0758  0.1895 -0.0507
  597TIP3   OH223281   3.557   2.355   5.971  0.2713  0.3470 -0.5087
  597TIP3    H123282   3.649   2.377   5.959  0.1611  1.0567 -0.1437
  597TIP3    H223283   3.519   2.434   6.010 -0.4858  0.0561 -0.6422
  598TIP3   OH223284   5.375   6.615  13.892 -0.6133 -0.1383 -0.4687
  598TIP3    H123285   5.450   6.556  13.901  0.0027  0.6081 -0.6283
  598TIP3    H223286   5.315   6.589  13.961  0.3102  0.0123  0.4066
  599TIP3   OH223287   2.210   1.088  14.279 -0.9894  0.0549  0.2136
  599TIP3    H123288   2.135   1.116  14.228 -0.1896 -1.7728 -2.1371
  599TIP3    H223289   2.276   1.062  14.214  0.3529 -1.7727  2.1418
  600TIP3   OH223290   3.425   5.255  13.754  0.2250 -0.3323  0.3740
  600TIP3    H123291   3.516   5.232  13.771 -0.0527 -0.3561  1.9827
  600TIP3    H223292   3.417   5.346  13.783  0.5591  0.9492 -3.0727
  601TIP3   OH223293   0.473   0.881  11.786 -0.4074  0.5396 -0.1765
  601TIP3    H123294   0.402   0.860  11.847 -0.2778 -0.4281 -0.3505
  601TIP3    H223295   0.553   0.867  11.836 -0.2387 -1.8842 -1.0007
  602TIP3   OH223296   5.423   0.928  13.877 -0.9085 -0.8339  0.0254
  602TIP3    H123297   5.484   1.001  13.887 -1.7081  0.0296 -1.1419
  602TIP3    H223298   5.458   0.878  13.803 -1.2651 -0.6941 -0.2382
  603TIP3   OH223299   3.288   3.684   6.327 -0.3946  0.0526  1.0189
  603TIP3    H123300   3.217   3.631   6.363  1.1483 -1.4627  1.9769
  603TIP3    H223301   3.367   3.633   6.344  1.0818  2.2393  1.1293
  604TIP3   OH223302   2.743   1.220   6.674 -0.0821  0.0969  0.5877
  604TIP3    H123303   2.657   1.185   6.697 -0.4949 -0.6798 -1.8588
  604TIP3    H223304   2.793   1.144   6.646  0.6618  0.8342 -0.1346
  605TIP3   OH223305   5.029   1.808   4.805 -0.1646 -0.4209  0.5958
  605TIP3    H123306   5.119   1.775   4.811  0.4799  1.4493  1.9446
  605TIP3    H223307   5.009   1.803   4.711  1.2161 -1.1594  0.2998
  606TIP3   OH223308   5.751   1.552   3.761 -0.1370  0.2667 -0.4712
  606TIP3    H123309   5.840   1.582   3.781 -0.4690  2.8035 -2.3299
  606TIP3    H223310   5.710   1.539   3.847  2.4126 -2.6133  0.4935
  607TIP3   OH223311   6.283   1.351  12.342 -0.4087 -0.2315 -0.4570
  607TIP3    H123312   6.270   1.420  12.408 -0.7662 -2.2730  1.7648
  607TIP3    H223313   6.331   1.394  12.271 -0.4894  2.2483  0.8841
  608TIP3   OH223314   4.283   1.973   1.539 -0.3147 -0.2106  0.1722
  608TIP3    H123315   4.350   1.978   1.471 -1.4895 -0.4492 -1.0570
  608TIP3    H223316   4.225   2.047   1.522 -1.7291 -1.3765 -0.3539
  609TIP3   OH223317   3.320   1.924   2.763  0.0807  0.0104  0.5031
  609TIP3    H123318   3.291   1.845   2.809 -1.6230  0.5049  0.3780
  609TIP3    H223319   3.267   1.994   2.801  3.4340  1.6605  2.5595
  610TIP3   OH223320   3.380   3.132  10.517  0.0457 -0.1757 -0.8580
  610TIP3    H123321   3.374   3.048  10.471 -0.5281 -0.7404  0.1913
  610TIP3    H223322   3.410   3.194  10.451  0.3139 -1.1748 -1.6996
  611TIP3   OH223323   3.811   3.969  15.117  0.1648 -0.2519  0.4178
  611TIP3    H123324   3.874   3.933  15.179 -0.5415 -2.2672  0.0428
  611TIP3    H223325   3.725   3.955  15.158 -0.1485  1.9791  0.6927
  612TIP3   OH223326   0.826   3.239  12.339 -0.2375  0.4755  0.3817
  612TIP3    H123327   0.800   3.277  12.422  0.9569 -0.0765  1.0424
  612TIP3    H223328   0.778   3.157  12.333  0.9041 -0.2944  1.3486
  613TIP3   OH223329   6.526   3.803  17.235 -0.1161  0.1722 -0.1979
  613TIP3    H123330   6.522   3.712  17.262 -0.7832  0.1913 -0.2282
  613TIP3    H223331   6.436   3.834  17.237 -0.3063  0.0522 -2.8118
  614TIP3   OH223332   3.486   0.248   6.581 -0.1393  0.1292  0.2483
  614TIP3    H123333   3.575   0.266   6.612 -0.1062  0.2428  0.0853
  614TIP3    H223334   3.439   0.218   6.659  0.6396 -2.1090 -0.0546
  615TIP3   OH223335   5.315   5.695   3.302  0.3573 -0.1045  0.1553
  615TIP3    H123336   5.357   5.610   3.313  1.9676  0.5988 -0.3456
  615TIP3    H223337   5.262   5.686   3.223  0.6389 -0.5828  0.0188
  616TIP3   OH223338   0.985   5.685  12.425 -0.2340 -0.1309  0.1539
  616TIP3    H123339   1.046   5.611  12.429 -1.7271 -1.5120 -0.9882
  616TIP3    H223340   1.031   5.752  12.375  0.5432 -0.9570 -0.2679
  617TIP3   OH223341   4.758   0.885   4.442 -0.1559 -0.2762  0.3688
  617TIP3    H123342   4.692   0.847   4.500 -0.3730  0.0851  0.3660
  617TIP3    H223343   4.795   0.811   4.395 -0.4552 -0.4999  0.4844
  618TIP3   OH223344   1.467   2.702  14.326  0.1467 -0.5456 -0.5222
  618TIP3    H123345   1.537   2.762  14.350  1.4569 -2.6895  1.3517
  618TIP3    H223346   1.387   2.750  14.347  1.1460  0.3108  1.6207
  619TIP3   OH223347   3.689   6.369   5.233 -0.2140 -0.2405 -0.3112
  619TIP3    H123348   3.778   6.358   5.199  0.2064 -0.3869  0.7836
  619TIP3    H223349   3.701   6.381   5.327 -1.1999  2.1459 -0.4295
  620TIP3   OH223350   5.984   0.580  12.714  0.0997  0.5299 -0.3271
  620TIP3    H123351   5.994   0.517  12.643  1.2463 -0.2379  0.4871
  620TIP3    H223352   6.072   0.615  12.728  0.4571 -1.0730  2.2482
  621TIP3   OH223353   1.527   4.460  14.194 -0.2590  0.4023 -0.0549
  621TIP3    H123354   1.461   4.432  14.130  0.2928 -2.0312  0.3262
  621TIP3    H223355   1.609   4.461  14.146  0.1302 -1.2706  0.4703
  622TIP3   OH223356   3.420   5.366   5.145  0.2630 -0.5292 -0.1479
  622TIP3    H123357   3.470   5.418   5.082  0.4976 -2.1098 -1.3207
  622TIP3    H223358   3.469   5.284   5.152  0.8213 -0.0472  2.9060
  623TIP3   OH223359   0.581   2.727   0.741  0.4309 -0.2053  0.5264
  623TIP3    H123360   0.512   2.673   0.780 -0.0731 -0.3049 -0.4734
  623TIP3    H223361   0.536   2.783   0.678  1.2045  0.0066  0.1405
  624TIP3   OH223362   4.414   5.082   1.570  0.0837 -0.3263 -0.5123
  624TIP3    H123363   4.355   5.114   1.638  1.1392  0.9602 -0.1709
  624TIP3    H223364   4.496   5.062   1.616  0.7574  0.3983 -1.3630
  625TIP3   OH223365   1.621   5.206  13.733  0.7210 -0.0998  0.3930
  625TIP3    H123366   1.535   5.177  13.765  0.3525 -1.0775 -1.3783
  625TIP3    H223367   1.621   5.184  13.641  1.7069  2.6640 -0.3789
  626TIP3   OH223368   4.774   2.965   3.286  0.5026  0.1933  0.2424
  626TIP3    H123369   4.815   3.027   3.226 -0.2374 -0.2003 -0.6924
  626TIP3    H223370   4.701   2.927   3.236  0.0298 -0.3407  1.2956
  627TIP3   OH223371   3.395   1.270  17.520  0.1008  0.3846 -0.7673
  627TIP3    H123372   3.440   1.308  17.595 -1.5736  2.2484 -0.6220
  627TIP3    H223373   3.351   1.193  17.555  0.0570  0.7408 -0.0211
  628TIP3   OH223374   1.783   5.743   2.029  0.4919  0.0348  0.6374
  628TIP3    H123375   1.843   5.762   1.957  0.6090  0.9713  0.9668
  628TIP3    H223376   1.696   5.755   1.993  0.4936 -0.9747  0.2565
  629TIP3   OH223377   3.442   3.125   3.872  0.4555  0.0227 -0.7346
  629TIP3    H123378   3.458   3.214   3.841  0.6652 -0.0029 -0.6998
  629TIP3    H223379   3.527   3.081   3.865  0.9097  0.4645  1.3632
  630TIP3   OH223380   5.123   6.290  16.915 -0.4752 -0.0959 -0.8739
  630TIP3    H123381   5.074   6.350  16.859 -1.6822  1.2708  1.5124
  630TIP3    H223382   5.165   6.345  16.980 -3.0348 -1.7780  2.4898
  631TIP3   OH223383   5.596   2.315   2.045  0.4144 -0.3029 -0.1622
  631TIP3    H123384   5.522   2.262   2.015 -0.4642  1.2683 -0.8931
  631TIP3    H223385   5.565   2.357   2.125  0.9833 -0.6304  0.2355
  632TIP3   OH223386   5.724   6.556  14.319  0.5441  0.1960 -0.5186
  632TIP3    H123387   5.793   6.546  14.384 -0.1966 -0.2205  0.2287
  632TIP3    H223388   5.667   6.623  14.355  0.4830  0.4395 -1.0639
  633TIP3   OH223389   1.309   0.282  13.565  0.1817  0.2394  0.1521
  633TIP3    H123390   1.334   0.364  13.524  0.1162  0.3204  0.2738
  633TIP3    H223391   1.392   0.238  13.583  0.1976  0.0152 -0.4447
  634TIP3   OH223392   5.735   4.330   4.438 -0.4609 -0.2411  0.2260
  634TIP3    H123393   5.764   4.422   4.440  0.5796 -0.5510 -0.1007
  634TIP3    H223394   5.810   4.282   4.404 -2.0602 -0.8403 -2.7461
  635TIP3   OH223395   6.521   3.519   2.304 -0.1031  0.0380  0.1128
  635TIP3    H123396   6.466   3.467   2.245  1.4711 -0.0591 -1.3466
  635TIP3    H223397   6.565   3.455   2.359  0.0529 -0.0203 -0.0793
  636TIP3   OH223398   2.076   6.482  10.700  0.1678 -0.1310 -0.5860
  636TIP3    H123399   2.000   6.525  10.662 -0.0955  0.2892  0.3925
  636TIP3    H223400   2.041   6.426  10.769  0.6595 -0.6925 -0.7814
  637TIP3   OH223401   1.546   1.975   5.543  0.4289 -0.3577 -0.2531
  637TIP3    H123402   1.502   2.059   5.553  0.0101 -0.5339 -0.5945
  637TIP3    H223403   1.538   1.954   5.450  1.3358 -0.3389 -0.3470
  638TIP3   OH223404   5.940   4.322   4.756  0.2052  0.5555 -0.5745
  638TIP3    H123405   5.985   4.243   4.786 -0.6483 -0.2160 -1.2645
  638TIP3    H223406   6.004   4.366   4.700  1.6911  1.8186  1.9002
  639TIP3   OH223407   5.098   5.811   6.482 -0.5008  0.1280 -0.0337
  639TIP3    H123408   5.186   5.789   6.513  0.2157  0.9390 -1.4374
  639TIP3    H223409   5.101   5.905   6.466 -1.4104  0.0404 -0.7707
  640TIP3   OH223410   4.977   1.716   5.165  0.7274 -0.0524  0.2711
  640TIP3    H123411   5.013   1.716   5.254  0.8736  1.4019  0.2373
  640TIP3    H223412   4.975   1.809   5.141  1.6426 -0.4814 -1.6262
  641TIP3   OH223413   0.855   2.260  11.752 -0.2218 -0.9407 -0.1853
  641TIP3    H123414   0.763   2.263  11.726 -0.4664  2.2525  0.6836
  641TIP3    H223415   0.853   2.249  11.847  0.3546 -1.3620 -0.2091
  642TIP3   OH223416   5.284   1.684   4.135 -0.1275 -0.5561 -0.2073
  642TIP3    H123417   5.245   1.597   4.142 -0.9812 -0.0518  1.6647
  642TIP3    H223418   5.378   1.667   4.131 -0.1909 -1.5253  1.6517
  643TIP3   OH223419   3.790   3.169   0.129 -0.2114 -0.5704  0.7173
  643TIP3    H123420   3.820   3.133   0.213 -1.1511  1.5057  2.0201
  643TIP3    H223421   3.719   3.229   0.153 -0.0467  0.6067 -1.5127
  644TIP3   OH223422   1.346   5.366   4.473 -0.1113 -0.1738 -0.3574
  644TIP3    H123423   1.312   5.341   4.387 -2.6952 -1.6996  0.9628
  644TIP3    H223424   1.287   5.324   4.535  0.0949  2.9019  2.1990
  645TIP3   OH223425   3.956   5.649  14.112 -0.3425  0.6999  0.1167
  645TIP3    H123426   3.882   5.669  14.170 -0.9740  0.5349 -0.6140
  645TIP3    H223427   4.006   5.582  14.159 -0.2946  1.2802  0.9065
  646TIP3   OH223428   1.843   0.908   2.167  0.4355 -0.2683 -0.7555
  646TIP3    H123429   1.799   0.927   2.249  0.0055 -0.3472 -0.9665
  646TIP3    H223430   1.891   0.989   2.146  2.2826 -0.9181  0.6340
  647TIP3   OH223431   4.728   6.114   5.210  0.7315 -0.1547 -0.0956
  647TIP3    H123432   4.807   6.155   5.174  1.0646 -0.8704 -0.2041
  647TIP3    H223433   4.674   6.094   5.134  0.1995  0.8050  0.0150
  648TIP3   OH223434   2.317   5.456   2.151  0.8699 -0.2267 -0.3203
  648TIP3    H123435   2.262   5.386   2.116  0.2189  0.4577 -0.6833
  648TIP3    H223436   2.375   5.412   2.213 -0.0583 -0.9727  0.0395
  649TIP3   OH223437   4.368   2.539   4.573 -0.5649 -0.2560 -0.0192
  649TIP3    H123438   4.283   2.516   4.535 -1.3013  1.7221  0.3351
  649TIP3    H223439   4.347   2.577   4.658  0.5269  1.7377 -0.5755
  650TIP3   OH223440   4.617   1.677   3.927 -0.4757  0.2421  0.0539
  650TIP3    H123441   4.557   1.606   3.903 -1.2340  2.0556 -4.1699
  650TIP3    H223442   4.699   1.654   3.884  0.1217  0.6253  0.9612
  651TIP3   OH223443   5.541   0.803  13.611  0.2845 -0.0447  0.3203
  651TIP3    H123444   5.632   0.821  13.587 -0.4138  1.3823 -1.5217
  651TIP3    H223445   5.547   0.736  13.679  2.7009  0.0348  0.2806
  652TIP3   OH223446   5.806   1.569   0.966  0.5852 -0.8103 -0.1590
  652TIP3    H123447   5.754   1.489   0.967  0.7330 -0.9274 -1.1608
  652TIP3    H223448   5.847   1.572   1.052 -1.2539 -0.5872  0.7738
  653TIP3   OH223449   0.314   3.387   2.524 -0.2356 -0.0994 -0.9614
  653TIP3    H123450   0.404   3.402   2.551 -0.4882  1.4143 -0.8673
  653TIP3    H223451   0.288   3.306   2.568  0.9274 -0.3180 -0.6550
  654TIP3   OH223452   1.655   3.438  11.758  0.0369  0.7357  0.1281
  654TIP3    H123453   1.584   3.476  11.705 -0.1809  1.7564  1.1134
  654TIP3    H223454   1.728   3.498  11.746  0.7496 -0.2870 -0.8407
  655TIP3   OH223455   1.947   4.788   1.228 -0.0388  0.3647 -0.4148
  655TIP3    H123456   1.952   4.832   1.143  1.5190 -0.9931 -1.1029
  655TIP3    H223457   1.952   4.695   1.206  1.0246  0.0134  1.1944
  656TIP3   OH223458   4.043   3.338  13.056  0.1538 -0.0594  0.1912
  656TIP3    H123459   4.073   3.266  13.000 -0.3804 -0.0621 -0.0965
  656TIP3    H223460   3.985   3.389  13.000  1.5149  1.3379 -0.0245
  657TIP3   OH223461   2.134   3.150  17.162  0.0485  0.3990  0.8692
  657TIP3    H123462   2.225   3.149  17.193 -0.5613 -1.4077  2.8500
  657TIP3    H223463   2.090   3.214  17.219 -0.1046  0.6259  0.4968
  658TIP3   OH223464   3.667   2.640   1.246  0.2133  0.1878 -0.4936
  658TIP3    H123465   3.746   2.659   1.296 -0.1569  2.2573 -0.6033
  658TIP3    H223466   3.613   2.586   1.304  1.7412 -1.4009 -0.4887
  659TIP3   OH223467   5.271   6.743   3.268  0.0803 -0.0255 -0.4209
  659TIP3    H123468   5.294   6.746   3.176 -2.3133 -0.6267 -1.1253
  659TIP3    H223469   5.325   6.673   3.305  3.2856  2.1743 -0.5494
  660TIP3   OH223470   3.663   2.157   4.623 -0.5426  0.1252  0.5548
  660TIP3    H123471   3.638   2.092   4.689  0.7460  0.2414  1.1701
  660TIP3    H223472   3.739   2.120   4.579 -0.7540  0.5248 -0.1758
  661TIP3   OH223473   4.919   3.420   6.495  0.6225 -0.2217 -0.0180
  661TIP3    H123474   4.965   3.372   6.563 -0.5908 -0.1083  0.9074
  661TIP3    H223475   4.988   3.452   6.437  1.8398  1.1146  2.0556
  662TIP3   OH223476   3.422   5.350   1.180 -0.1250 -0.1759 -0.4855
  662TIP3    H123477   3.381   5.435   1.198 -0.3689 -0.2200 -0.8307
  662TIP3    H223478   3.359   5.304   1.125 -0.7047 -1.1989  0.9700
  663TIP3   OH223479   0.265   6.457  14.430 -0.8814  0.3445  0.1336
  663TIP3    H123480   0.301   6.432  14.345 -0.3940  0.0532  0.4245
  663TIP3    H223481   0.177   6.420  14.430 -0.8153  0.1834 -0.1658
  664TIP3   OH223482   2.673   1.944   2.267  0.5045  0.2531  0.4886
  664TIP3    H123483   2.654   1.935   2.173 -0.9949 -1.6709  0.9061
  664TIP3    H223484   2.589   1.925   2.310  1.1157  1.3087  2.2291
  665TIP3   OH223485   6.387   3.718  12.529 -0.3567  0.4069 -0.2530
  665TIP3    H123486   6.451   3.753  12.467 -0.8115  0.9686 -0.4190
  665TIP3    H223487   6.423   3.634  12.556  1.1500  1.3194  0.7276
  666TIP3   OH223488   3.173   5.627  16.315 -0.0373  0.8504 -0.0096
  666TIP3    H123489   3.104   5.606  16.378  0.4816  0.2816  0.3848
  666TIP3    H223490   3.215   5.705  16.350  2.2936 -1.2202  2.0916
  667TIP3   OH223491   4.283   6.403   2.298 -0.0403  0.0880 -0.4470
  667TIP3    H123492   4.320   6.458   2.229  0.4430 -1.9157 -1.8731
  667TIP3    H223493   4.348   6.333   2.309 -0.5677 -0.1486  1.3908
  668TIP3   OH223494   3.394   0.739   5.783  0.5569  0.3923  0.1033
  668TIP3    H123495   3.425   0.650   5.795 -2.3174 -0.5633  1.0907
  668TIP3    H223496   3.314   0.730   5.731 -1.6766  1.9600  2.9760
  669TIP3   OH223497   1.418   3.614   3.890 -0.3821 -0.5913  0.3135
  669TIP3    H123498   1.409   3.706   3.862 -0.7975 -0.2977  1.3643
  669TIP3    H223499   1.499   3.585   3.848  0.1914  0.5084  0.5959
  670TIP3   OH223500   2.981   4.127   5.569 -0.0537 -0.4484  0.4723
  670TIP3    H123501   2.922   4.200   5.587  0.1664  0.2473 -1.3557
  670TIP3    H223502   2.975   4.071   5.646 -1.1488  0.8892  1.4064
  671TIP3   OH223503   3.219   1.065  14.669  0.4719  0.0977  0.4729
  671TIP3    H123504   3.253   0.990  14.620 -0.4261 -0.0455  0.0562
  671TIP3    H223505   3.176   1.026  14.746  0.3609  0.2103  0.4680
  672TIP3   OH223506   3.138   1.175   6.357 -0.0823 -0.3972  0.7182
  672TIP3    H123507   3.162   1.199   6.447  0.1293 -0.1196  0.5875
  672TIP3    H223508   3.071   1.107   6.368 -0.6366  0.1920  1.0863
  673TIP3   OH223509   4.129   1.131   1.575  0.0274 -0.0441  0.1853
  673TIP3    H123510   4.190   1.154   1.504  0.8055 -0.0446  0.8371
  673TIP3    H223511   4.186   1.105   1.647 -0.7717 -0.7215  0.5852
  674TIP3   OH223512   3.363   5.295   3.618 -0.1182  0.1246  0.1246
  674TIP3    H123513   3.433   5.308   3.682  2.1117 -2.4017 -1.5581
  674TIP3    H223514   3.287   5.268   3.670  0.5254  1.5583  1.9125
  675TIP3   OH223515   3.934   3.305  16.305 -0.3049  0.6001 -0.5370
  675TIP3    H123516   3.980   3.318  16.222  0.5540  1.2717  0.0282
  675TIP3    H223517   3.892   3.219  16.296 -0.1345  0.6120 -1.6136
  676TIP3   OH223518   0.038   0.626   4.074 -0.4323  0.2615  0.4497
  676TIP3    H123519  -0.047   0.656   4.045 -0.3797 -0.6840 -0.7766
  676TIP3    H223520   0.019   0.562   4.143 -0.7324 -0.2298 -0.0887
  677TIP3   OH223521   0.238   1.308   5.343  0.5581 -0.1891 -0.4627
  677TIP3    H123522   0.249   1.356   5.425 -0.7041  0.8509 -0.8735
  677TIP3    H223523   0.215   1.219   5.370 -1.1028  0.4438  0.3531
  678TIP3   OH223524   3.244   2.750   5.994  0.0522 -0.5982  0.5824
  678TIP3    H123525   3.165   2.764   6.045  0.2285 -0.1681  0.7383
  678TIP3    H223526   3.263   2.835   5.954 -0.6804 -1.1658 -1.0696
  679TIP3   OH223527   1.815   6.643   1.932  0.1942 -0.2658  0.4294
  679TIP3    H123528   1.807   6.737   1.922 -2.0053 -0.2842  1.4170
  679TIP3    H223529   1.745   6.607   1.876 -0.8048 -1.1253  2.1534
  680TIP3   OH223530   1.118   4.990  16.675 -0.1167 -0.3499 -0.1124
  680TIP3    H123531   1.138   4.901  16.703 -3.3689 -1.6826 -1.5603
  680TIP3    H223532   1.046   5.018  16.732  0.2781  1.0289 -0.2506
  681TIP3   OH223533   6.389   3.110  11.136 -0.1619  0.2462  0.5878
  681TIP3    H123534   6.422   3.191  11.097 -1.4393  0.4200 -0.1837
  681TIP3    H223535   6.319   3.139  11.194 -0.9500 -0.3362 -0.0591
  682TIP3   OH223536   0.154   0.029  15.192  0.9014 -0.1339 -0.4394
  682TIP3    H123537   0.207   0.017  15.113 -0.7785 -1.8019 -1.3866
  682TIP3    H223538   0.159   0.123  15.210  3.4347 -0.0750 -0.9564
  683TIP3   OH223539   2.261   0.824  14.588  0.5713 -0.1392 -0.5618
  683TIP3    H123540   2.295   0.751  14.536 -0.3060 -0.5398 -0.6015
  683TIP3    H223541   2.167   0.807  14.594  0.4671  0.5914  0.0704
  684TIP3   OH223542   4.860   1.503  11.734 -0.6701 -0.1236 -0.1609
  684TIP3    H123543   4.783   1.557  11.718 -0.4783 -0.1510 -1.2494
  684TIP3    H223544   4.896   1.536  11.816 -2.2117 -0.5702  0.7420
  685TIP3   OH223545   5.616   1.295   0.313  0.3999  0.5419 -0.1534
  685TIP3    H123546   5.677   1.249   0.254  0.0916  1.0498 -0.8870
  685TIP3    H223547   5.533   1.295   0.266  0.3269  1.6124 -0.0658
  686TIP3   OH223548   2.755   5.291   6.141  0.4653  0.1453 -0.0591
  686TIP3    H123549   2.746   5.366   6.200 -4.6440 -0.4856  0.4300
  686TIP3    H223550   2.736   5.215   6.196  1.6694 -1.1635 -1.3560
  687TIP3   OH223551   4.748   2.842   0.902  0.2348 -0.3696 -0.3176
  687TIP3    H123552   4.745   2.746   0.901  0.1731 -0.4001 -2.3041
  687TIP3    H223553   4.709   2.866   0.986  2.0009 -2.0872  1.0909
  688TIP3   OH223554   5.464   6.490  13.394 -0.3616  0.0966 -0.4070
  688TIP3    H123555   5.410   6.569  13.395 -1.7566 -0.8243  0.3904
  688TIP3    H223556   5.537   6.511  13.452 -0.6771  0.8400 -0.2630
  689TIP3   OH223557   6.723   2.073   3.677  0.4724 -0.0263 -0.4127
  689TIP3    H123558   6.773   2.073   3.595 -0.2989 -0.3587 -0.8987
  689TIP3    H223559   6.716   2.165   3.701  1.1944  0.0346 -0.4060
  690TIP3   OH223560   1.590   5.500   0.620 -0.1657 -0.6072  0.4627
  690TIP3    H123561   1.532   5.548   0.679 -0.8005 -1.5182  0.6061
  690TIP3    H223562   1.539   5.490   0.539  0.7074  0.6600 -0.2838
  691TIP3   OH223563   0.992   3.435  16.676 -0.3745 -0.2597  0.2788
  691TIP3    H123564   1.009   3.507  16.737 -1.8953  0.9249 -0.6170
  691TIP3    H223565   1.035   3.461  16.595 -2.6119  0.7348 -0.6912
  692TIP3   OH223566   3.678   2.323  12.214  0.4594  0.4670  0.0649
  692TIP3    H123567   3.720   2.237  12.222  0.8225  0.7743  1.8951
  692TIP3    H223568   3.631   2.319  12.131 -0.7619 -2.0309  0.7987
  693TIP3   OH223569   0.635   2.403  16.779 -0.8180  0.3460  0.0113
  693TIP3    H123570   0.607   2.490  16.750  0.7225  0.4910 -1.1734
  693TIP3    H223571   0.560   2.347  16.760 -1.8704  1.4046  0.8660
  694TIP3   OH223572   1.826   1.889   2.138  0.1822 -0.3300 -0.1040
  694TIP3    H123573   1.783   1.838   2.207 -0.5913  1.0985  0.5128
  694TIP3    H223574   1.911   1.914   2.175 -0.1120  0.1873  0.2330
  695TIP3   OH223575   2.676   0.575   2.612 -0.6735  0.1497 -0.0508
  695TIP3    H123576   2.751   0.572   2.671 -0.8165 -1.0813  0.1032
  695TIP3    H223577   2.640   0.486   2.615 -2.0937  0.6906 -0.1734
  696TIP3   OH223578   4.116   1.954   4.713  0.3233 -0.5100  0.1306
  696TIP3    H123579   4.111   1.926   4.622 -0.0165 -0.8178  0.2415
  696TIP3    H223580   4.208   1.978   4.726  0.7168 -1.9358  0.1354
  697TIP3   OH223581   5.455   0.795  16.676  0.5363  0.1229 -0.1281
  697TIP3    H123582   5.404   0.759  16.604  0.1510 -0.8025  0.5780
  697TIP3    H223583   5.390   0.832  16.735  0.8636  1.0797 -0.3527
  698TIP3   OH223584   2.810   2.756  15.267  0.4879 -0.2407  0.1787
  698TIP3    H123585   2.892   2.784  15.227  0.6566 -0.1626  0.5750
  698TIP3    H223586   2.777   2.834  15.311 -0.0491 -0.1401 -0.3893
  699TIP3   OH223587   1.853   5.789  13.842 -0.1196  0.3830 -0.2478
  699TIP3    H123588   1.922   5.837  13.889 -0.1470 -1.0187  1.3198
  699TIP3    H223589   1.886   5.783  13.752  1.2126  0.8643  0.1724
  700TIP3   OH223590   4.654   0.056  14.996 -0.1882  0.0941  0.2106
  700TIP3    H123591   4.631   0.148  14.994 -1.3143 -0.1793 -1.7471
  700TIP3    H223592   4.746   0.053  14.968 -0.1661  0.6055  0.2308
  701TIP3   OH223593   1.820   4.470  11.285 -0.9997 -0.1497  0.4515
  701TIP3    H123594   1.858   4.434  11.204  0.4356 -1.1202  1.5025
  701TIP3    H223595   1.895   4.478  11.344 -1.9175  1.1591  1.4905
  702TIP3   OH223596   6.506   2.190  14.344 -0.2097 -0.5544  0.6095
  702TIP3    H123597   6.546   2.131  14.407 -0.0865 -0.0201  1.0429
  702TIP3    H223598   6.416   2.201  14.375  0.0739  0.3264  1.1524
  703TIP3   OH223599   2.744   0.839   4.895  0.1228  0.4185 -0.4245
  703TIP3    H123600   2.727   0.801   4.809 -0.2517  0.1238 -0.2236
  703TIP3    H223601   2.666   0.817   4.947  0.0313  1.1834 -0.2127
  704TIP3   OH223602   3.120   1.853   1.039 -0.1069 -0.1716  0.4502
  704TIP3    H123603   3.076   1.919   0.987  1.1572 -0.3713 -0.9558
  704TIP3    H223604   3.181   1.902   1.094 -0.0969 -0.0848  0.3614
  705TIP3   OH223605   5.389   0.543   4.861 -0.2969  0.6392  0.1314
  705TIP3    H123606   5.303   0.504   4.845  0.4888 -0.7975 -0.8141
  705TIP3    H223607   5.393   0.619   4.803 -0.5362  0.0813 -0.6337
  706TIP3   OH223608   5.619   5.170   2.697 -0.4898  0.8071 -0.2427
  706TIP3    H123609   5.672   5.216   2.632 -1.4948  0.6263 -1.2207
  706TIP3    H223610   5.657   5.196   2.781  0.4636  1.5195 -0.8620
  707TIP3   OH223611   6.077   2.896   0.176 -0.3567 -0.3964  0.0201
  707TIP3    H123612   6.164   2.872   0.208  0.0410 -0.1159 -0.8132
  707TIP3    H223613   6.093   2.934   0.090 -1.1561  1.0395  0.4711
  708TIP3   OH223614   0.493   3.296   1.397  0.3956 -0.2011 -0.2809
  708TIP3    H123615   0.579   3.335   1.381  0.0840  0.8500  0.4820
  708TIP3    H223616   0.488   3.224   1.334  1.5277  0.1804 -0.8527
  709TIP3   OH223617   0.853   4.476   1.708 -0.1665  0.0077 -0.4215
  709TIP3    H123618   0.905   4.513   1.637 -0.2206  0.6022 -0.1587
  709TIP3    H223619   0.817   4.395   1.672 -1.1187  0.8601 -1.4450
  710TIP3   OH223620   3.500   5.279  16.276 -0.4132 -0.2544  0.0161
  710TIP3    H123621   3.571   5.295  16.339  0.1476  1.5914 -1.0188
  710TIP3    H223622   3.517   5.191  16.242  0.6179 -0.3482  0.7232
  711TIP3   OH223623   1.827   6.581   4.639  0.0491  0.5951  0.0980
  711TIP3    H123624   1.815   6.488   4.620 -1.6955  0.8615 -0.2896
  711TIP3    H223625   1.833   6.622   4.552  1.7121  0.7726  0.2668
  712TIP3   OH223626   1.666   1.759   2.868 -0.3090 -0.2044  0.3839
  712TIP3    H123627   1.698   1.848   2.883  1.4577 -0.8258  0.4682
  712TIP3    H223628   1.578   1.772   2.833 -0.9723  1.5222  2.3925
  713TIP3   OH223629   3.262   3.720   3.947 -0.2600  0.0240 -0.2448
  713TIP3    H123630   3.339   3.676   3.910  0.1936  2.0978 -1.9471
  713TIP3    H223631   3.280   3.722   4.041  1.3568 -0.3071 -0.5114
  714TIP3   OH223632   5.700   4.300   3.623  0.1624  0.4106 -0.2091
  714TIP3    H123633   5.636   4.348   3.675  0.2186  0.1174  0.1327
  714TIP3    H223634   5.707   4.215   3.665 -1.0724 -0.4771 -1.6862
  715TIP3   OH223635   0.145   2.728  15.522  0.3588  0.5287  0.0183
  715TIP3    H123636   0.100   2.775  15.592 -0.0283  0.0219  0.1122
  715TIP3    H223637   0.076   2.706  15.460 -0.1256 -2.8773  1.5782
  716TIP3   OH223638   0.080   1.096   1.625  0.1001 -0.1651 -0.0106
  716TIP3    H123639   0.116   1.183   1.610 -2.0325  0.7227 -0.3152
  716TIP3    H223640   0.031   1.076   1.545 -0.7270 -0.9597  0.6685
  717TIP3   OH223641   1.381   3.791  13.316  0.3478  0.7269  0.0229
  717TIP3    H123642   1.321   3.718  13.328 -0.5189  1.1962 -1.2690
  717TIP3    H223643   1.452   3.774  13.378 -0.4924 -0.4965  0.6845
  718TIP3   OH223644   3.113   4.837   5.888 -0.3397  0.0764 -0.0906
  718TIP3    H123645   3.163   4.908   5.928  1.2832 -0.3771 -1.1956
  718TIP3    H223646   3.094   4.869   5.799 -1.7293  0.0715  0.1740
  719TIP3   OH223647   6.370   4.261   7.231 -0.8919 -0.2892  0.1939
  719TIP3    H123648   6.310   4.322   7.189 -0.0618  0.3421 -0.0897
  719TIP3    H223649   6.350   4.268   7.324 -0.8428  0.3675  0.1573
  720TIP3   OH223650   5.816   0.048  11.844 -0.1173  0.1031 -0.7633
  720TIP3    H123651   5.741   0.006  11.802 -0.6547  1.8166 -1.6030
  720TIP3    H223652   5.778   0.106  11.910  0.2588  2.3627 -2.4112
  721TIP3   OH223653   4.985   3.993  14.882 -0.4612 -0.2471  0.4802
  721TIP3    H123654   4.921   3.970  14.814 -1.5452 -1.5251  1.8560
  721TIP3    H223655   5.069   3.961  14.849 -0.7436  0.2883 -0.7946
  722TIP3   OH223656   1.207   6.694  14.156  0.0247  0.0501 -0.3085
  722TIP3    H123657   1.259   6.614  14.150 -2.2916 -1.5052 -0.9252
  722TIP3    H223658   1.247   6.754  14.093  1.9942 -0.4320  0.3906
  723TIP3   OH223659   3.689   3.962   3.715  0.2586  0.2764  0.0531
  723TIP3    H123660   3.758   3.973   3.781  0.2319  0.7607  0.0038
  723TIP3    H223661   3.611   3.998   3.756 -0.2645 -1.3300  0.5738
  724TIP3   OH223662   0.952   3.999  13.044 -0.0932 -0.1748  0.0790
  724TIP3    H123663   1.008   4.020  12.969  1.7938 -1.6501  0.9863
  724TIP3    H223664   1.002   4.026  13.120 -2.3735  2.1490  0.8967
  725TIP3   OH223665   4.328   5.724   6.116  0.5549  0.1289 -0.3220
  725TIP3    H123666   4.362   5.753   6.200  0.2893 -0.5885  0.0396
  725TIP3    H223667   4.406   5.702   6.064  0.7934  1.9838 -0.8105
  726TIP3   OH223668   4.721   1.070   6.323  0.2893 -0.1002  0.9006
  726TIP3    H123669   4.626   1.068   6.311  0.5575 -2.4818 -1.5767
  726TIP3    H223670   4.752   1.136   6.261  0.4334 -1.4975 -0.5739
  727TIP3   OH223671   1.699   2.600  13.394 -0.0274 -0.2775  0.1206
  727TIP3    H123672   1.775   2.610  13.337 -0.5445 -0.7354 -0.6789
  727TIP3    H223673   1.648   2.679  13.379 -0.5527 -0.7479 -0.6831
  728TIP3   OH223674   0.494   6.158   3.696  0.0467 -0.2907 -0.0700
  728TIP3    H123675   0.571   6.106   3.673 -0.2763 -1.7271  1.8924
  728TIP3    H223676   0.528   6.233   3.744  0.3546  0.3346 -1.2151
  729TIP3   OH223677   0.849   2.471   3.610 -0.1172  0.8272 -0.2060
  729TIP3    H123678   0.873   2.562   3.625  1.3174  0.1694  2.2151
  729TIP3    H223679   0.932   2.423   3.618 -1.1143 -0.8585  0.6450
  730TIP3   OH223680   2.654   4.467  16.873  0.2825 -0.1120  0.4385
  730TIP3    H123681   2.666   4.383  16.917 -1.9403 -1.4757 -1.3359
  730TIP3    H223682   2.560   4.472  16.857  0.6555  1.5312 -1.7488
  731TIP3   OH223683   0.075   2.080  10.770 -0.0377 -0.4679 -0.4863
  731TIP3    H123684   0.017   2.057  10.697  1.4620  2.3040 -2.7166
  731TIP3    H223685   0.161   2.050  10.742  0.2238 -1.6260  1.3643
  732TIP3   OH223686   5.516   3.148   2.762 -1.0617 -0.5109  0.1425
  732TIP3    H123687   5.430   3.121   2.729 -1.2099  0.0956  0.0276
  732TIP3    H223688   5.568   3.162   2.684 -1.1831  0.1819  0.1857
  733TIP3   OH223689   1.632   0.771   5.724 -0.0783  0.9958  0.1666
  733TIP3    H123690   1.575   0.728   5.661  1.2223 -2.4284  1.1053
  733TIP3    H223691   1.720   0.743   5.700  0.5674  0.6474  2.6439
  734TIP3   OH223692   5.250   6.317  15.677 -0.2943  0.1992  0.3477
  734TIP3    H123693   5.293   6.370  15.610 -1.3220  1.3464  0.5318
  734TIP3    H223694   5.195   6.380  15.724  0.7986 -0.4586  2.6231
  735TIP3   OH223695   4.369   5.136   2.431  0.0024 -0.1019  0.1162
  735TIP3    H123696   4.371   5.195   2.356 -0.2154 -0.3698 -0.1039
  735TIP3    H223697   4.404   5.187   2.503  0.7336 -0.0139 -0.2904
  736TIP3   OH223698   0.231   3.699   0.397  0.0595  0.1305 -0.3958
  736TIP3    H123699   0.281   3.778   0.419  1.0717 -0.5680 -0.1254
  736TIP3    H223700   0.244   3.688   0.303 -0.1939  0.3662 -0.4574
  737TIP3   OH223701   6.750   2.903   0.585 -0.0328 -0.0442 -0.0802
  737TIP3    H123702   6.761   2.986   0.537  0.2483 -0.4457 -0.7211
  737TIP3    H223703   6.658   2.879   0.570 -0.1473  0.1984  0.2009
  738TIP3   OH223704   4.272   0.118  14.616 -0.0077 -0.2938  0.3816
  738TIP3    H123705   4.245   0.200  14.657 -0.7780 -0.4127  0.1259
  738TIP3    H223706   4.278   0.139  14.523  2.7898  0.2702  0.5768
  739TIP3   OH223707   2.950   6.367   4.612  0.4360  0.5818 -0.1051
  739TIP3    H123708   2.914   6.313   4.683 -1.0685  1.5899 -0.0443
  739TIP3    H223709   2.931   6.457   4.639  2.4481  1.1611 -0.4279
  740TIP3   OH223710   0.509   5.941  11.765  0.0036  0.3948  0.0135
  740TIP3    H123711   0.481   5.849  11.761 -1.2784  0.7300  0.7719
  740TIP3    H223712   0.499   5.973  11.675  3.4619 -0.9871 -1.0181
  741TIP3   OH223713   2.541   6.022  17.446  0.1216  0.5540 -0.8333
  741TIP3    H123714   2.529   5.928  17.433  0.7197  0.4750 -0.8361
  741TIP3    H223715   2.608   6.029  17.514 -1.3692  0.9814  0.6517
  742TIP3   OH223716   4.222   4.779   0.602  0.4591  0.4442  0.3590
  742TIP3    H123717   4.157   4.842   0.569 -0.0800  0.0457  0.6413
  742TIP3    H223718   4.169   4.707   0.636  1.0471  0.2699  0.9137
  743TIP3   OH223719   3.871   6.227   6.088  0.0519  0.5777 -0.0129
  743TIP3    H123720   3.781   6.200   6.072 -0.3510  1.7179  0.2518
  743TIP3    H223721   3.877   6.241   6.182  0.9225 -0.8671  0.1831
  744TIP3   OH223722   3.999   4.377  13.004 -0.1471 -0.1800  0.1836
  744TIP3    H123723   3.997   4.472  12.991 -2.0582 -0.0105  1.3390
  744TIP3    H223724   4.079   4.361  13.054 -0.7640  1.1048  1.6784
  745TIP3   OH223725   2.995   2.946   0.350 -0.3786 -0.2879  0.2781
  745TIP3    H123726   2.941   2.949   0.429 -0.4808 -1.0632  0.2462
  745TIP3    H223727   2.937   2.910   0.282 -0.1676 -0.0331 -0.0393
  746TIP3   OH223728   5.200   0.186  12.282  0.6881  0.1130  0.4038
  746TIP3    H123729   5.138   0.232  12.338 -1.4256 -0.0858 -1.6200
  746TIP3    H223730   5.261   0.143  12.342 -1.3776  0.0041  2.5294
  747TIP3   OH223731   0.239   2.574   0.135  0.1788 -0.2884  0.0207
  747TIP3    H123732   0.254   2.627   0.214 -0.5520 -1.6739  1.1395
  747TIP3    H223733   0.245   2.636   0.063  1.4750  0.9285  1.1088
  748TIP3   OH223734   0.726   0.949   5.082  0.2245  0.8865  0.1524
  748TIP3    H123735   0.694   1.039   5.083 -0.0886  0.8366 -2.1104
  748TIP3    H223736   0.813   0.955   5.121 -0.4363  1.8672  1.5668
  749TIP3   OH223737   1.388   6.660   2.262  0.8995 -0.2171 -0.5064
  749TIP3    H123738   1.424   6.604   2.193 -0.8417 -1.6751 -0.2821
  749TIP3    H223739   1.426   6.626   2.343  0.2535 -0.7574 -0.4231
  750TIP3   OH223740   0.872   1.477   1.918  0.0601 -0.7916 -0.4920
  750TIP3    H123741   0.941   1.482   1.985 -0.5835 -1.4549  0.2394
  750TIP3    H223742   0.886   1.392   1.876 -1.3679 -1.7507  0.8700
  751TIP3   OH223743   3.288   2.855   0.310 -0.2101  0.3913 -0.6259
  751TIP3    H123744   3.193   2.871   0.310 -0.2629  0.3617  1.3148
  751TIP3    H223745   3.309   2.838   0.402  1.8925  1.6049 -0.8197
  752TIP3   OH223746   0.060   4.682   3.796  0.7623 -0.4119 -0.1211
  752TIP3    H123747   0.022   4.634   3.722 -0.3256  1.4526 -0.8529
  752TIP3    H223748   0.003   4.757   3.807  1.5600 -0.0431  1.9304
  753TIP3   OH223749   2.349   2.429   5.197  0.1861 -0.0480  0.4744
  753TIP3    H123750   2.341   2.429   5.293 -2.7256 -3.3092  0.4467
  753TIP3    H223751   2.386   2.343   5.176 -0.5774  0.0232 -1.3561
  754TIP3   OH223752   4.162   1.069   0.825 -0.2209 -0.0095  0.1376
  754TIP3    H123753   4.172   0.977   0.798  1.7671  0.1800  0.0831
  754TIP3    H223754   4.138   1.115   0.746 -0.1798 -0.3257 -0.0617
  755TIP3   OH223755   0.054   6.597  12.608  0.1860 -0.0695 -0.2332
  755TIP3    H123756   0.102   6.533  12.555  2.6615  1.7531 -0.3912
  755TIP3    H223757   0.117   6.668  12.623 -2.0465  1.8312  0.8737
  756TIP3   OH223758   5.885   6.064  15.823  0.1949  0.1251  0.6621
  756TIP3    H123759   5.949   6.126  15.787 -0.2486  0.4181  0.3728
  756TIP3    H223760   5.809   6.072  15.765  0.3598 -1.1401  0.2496
  757TIP3   OH223761   4.583   5.122   0.501 -0.2916  0.1794  0.5539
  757TIP3    H123762   4.579   5.035   0.541 -1.6897 -0.7058 -1.3141
  757TIP3    H223763   4.538   5.179   0.564 -0.4379 -0.6891  1.2614
  758TIP3   OH223764   5.665   0.117  14.076  0.9019 -0.4144 -0.4833
  758TIP3    H123765   5.624   0.189  14.028 -0.1280 -0.5343  0.1819
  758TIP3    H223766   5.700   0.158  14.155 -0.6543 -0.7995  0.4316
  759TIP3   OH223767   1.289   5.465   1.849 -0.9025  0.1202  0.5808
  759TIP3    H123768   1.244   5.524   1.909  0.2263  1.8673 -0.1905
  759TIP3    H223769   1.329   5.523   1.784  0.6527 -1.4795  0.0181
  760TIP3   OH223770   4.350   4.065  13.269  0.8694  0.2489 -0.1168
  760TIP3    H123771   4.334   4.010  13.346 -1.6463  1.5251  0.3832
  760TIP3    H223772   4.439   4.043  13.242  1.9809 -0.0675  3.3070
  761TIP3   OH223773   0.851   1.749  15.783  0.0332  0.0112  0.2129
  761TIP3    H123774   0.901   1.747  15.865  0.2713  0.7491  0.0885
  761TIP3    H223775   0.912   1.715  15.717 -0.5193 -1.6713  0.5102
  762TIP3   OH223776   1.110   4.636  14.017 -0.4757  0.1645 -0.4837
  762TIP3    H123777   1.044   4.701  13.995  0.7217  0.4485 -3.7366
  762TIP3    H223778   1.194   4.682  14.009  0.3077 -1.2729 -1.0574
  763TIP3   OH223779   1.723   4.414  15.888 -0.2596  0.2049  0.6613
  763TIP3    H123780   1.699   4.459  15.807  1.3006  1.5435  0.9070
  763TIP3    H223781   1.735   4.322  15.861  0.1484  0.6115 -0.6090
  764TIP3   OH223782   6.410   1.143  11.574 -0.0870 -0.2913  0.6049
  764TIP3    H123783   6.473   1.207  11.540 -0.9994  0.5706  0.5020
  764TIP3    H223784   6.326   1.170  11.536 -0.6449 -0.9779  1.3332
  765TIP3   OH223785   0.160   2.675  11.393  0.2049  0.3838 -0.4801
  765TIP3    H123786   0.172   2.635  11.479 -0.2647 -0.7263 -0.9047
  765TIP3    H223787   0.247   2.672  11.352  0.5763  1.5193  0.1827
  766TIP3   OH223788   1.402   2.012   3.640  0.0523  0.1557  0.0099
  766TIP3    H123789   1.313   2.024   3.608 -0.3896  0.0035  1.1442
  766TIP3    H223790   1.397   1.936   3.698  0.8858  0.2360  0.2071
  767TIP3   OH223791   4.641   5.432   4.709 -0.3302  0.0971  0.6769
  767TIP3    H123792   4.549   5.459   4.705 -0.4544 -0.4110 -0.4295
  767TIP3    H223793   4.686   5.494   4.652  0.0548  0.4665  1.3770
  768TIP3   OH223794   4.319   2.309  13.066 -0.0542  0.0032  0.1469
  768TIP3    H123795   4.303   2.229  13.116  0.9563 -0.3130 -0.0097
  768TIP3    H223796   4.233   2.348  13.054 -0.8321 -1.9599 -1.2566
  769TIP3   OH223797   4.270   2.266   6.228  0.2752 -0.6803 -0.1318
  769TIP3    H123798   4.203   2.204   6.198 -1.1712 -0.0472  1.6118
  769TIP3    H223799   4.228   2.315   6.299  2.1251  0.7581  0.0626
  770TIP3   OH223800   1.233   5.931  13.012  0.5380 -0.0383 -0.0718
  770TIP3    H123801   1.165   5.872  13.045 -1.3904  2.6727  1.1475
  770TIP3    H223802   1.193   5.974  12.936  1.5390  0.4217 -0.3591
  771TIP3   OH223803   6.005   4.701   3.497 -0.1072 -0.4874 -0.1731
  771TIP3    H123804   5.921   4.743   3.516 -0.4482 -0.9425 -0.6341
  771TIP3    H223805   6.009   4.627   3.556  0.5209  0.2120  0.6793
  772TIP3   OH223806   2.835   6.405   6.095 -0.3573 -0.4928 -0.1416
  772TIP3    H123807   2.789   6.477   6.051 -2.2225 -1.8160 -0.5191
  772TIP3    H223808   2.786   6.392   6.176 -0.7072 -1.9672 -0.5591
  773TIP3   OH223809   6.544   5.197   0.462  0.5154  0.6104 -0.0708
  773TIP3    H123810   6.625   5.213   0.511  1.2229  1.5139 -1.4813
  773TIP3    H223811   6.476   5.243   0.511  0.8820  0.0540  0.9892
  774TIP3   OH223812   2.880   5.261  16.651  0.2656  0.2551  0.2164
  774TIP3    H123813   2.861   5.229  16.562  1.7065 -1.5360  0.5028
  774TIP3    H223814   2.971   5.290  16.647  0.3591  0.0967  1.1186
  775TIP3   OH223815   2.140   5.826   4.235 -0.0806 -0.3460  0.8488
  775TIP3    H123816   2.057   5.873   4.246 -0.3639 -0.7998  0.6650
  775TIP3    H223817   2.170   5.810   4.324  0.6038  1.1849  0.9334
  776TIP3   OH223818   0.721   3.322   0.859  0.0173  0.2991 -0.3242
  776TIP3    H123819   0.629   3.307   0.838 -0.3710  0.4092  1.2149
  776TIP3    H223820   0.730   3.417   0.865 -0.4548  0.2412  2.2581
  777TIP3   OH223821   1.069   4.648   3.094  0.1012 -0.2232  0.2691
  777TIP3    H123822   1.158   4.617   3.109 -0.1296 -2.0995 -1.7443
  777TIP3    H223823   1.031   4.658   3.181  2.1613  0.3546  1.1498
  778TIP3   OH223824   0.073   1.663   3.250 -0.1196  0.3360  0.8129
  778TIP3    H123825   0.106   1.743   3.291 -0.0428 -0.3119  2.0865
  778TIP3    H223826  -0.006   1.642   3.300  0.5829 -1.0874  1.3794
  779TIP3   OH223827   5.461   6.009   5.620  0.4022  0.0128  0.4788
  779TIP3    H123828   5.433   5.924   5.655  2.1541 -0.9527 -0.2810
  779TIP3    H223829   5.381   6.054   5.596 -0.8594  0.1578  4.3071
  780TIP3   OH223830   2.027   1.680   0.210  0.6121  0.1548 -0.4498
  780TIP3    H123831   2.028   1.732   0.130 -0.2274 -0.7135 -1.0434
  780TIP3    H223832   2.011   1.590   0.181  1.8444 -0.4232  0.5744
  781TIP3   OH223833   2.122   4.238   1.129  0.4961  0.1958  0.3365
  781TIP3    H123834   2.097   4.151   1.162 -1.3198 -0.1240 -1.6480
  781TIP3    H223835   2.197   4.221   1.073  1.7576  0.3299  1.9171
  782TIP3   OH223836   6.406   0.976   1.974 -0.1517 -0.1070 -0.2465
  782TIP3    H123837   6.425   0.885   1.997  0.9603 -0.2906 -1.7526
  782TIP3    H223838   6.488   1.023   1.991 -0.8691  0.7482  1.0273
  783TIP3   OH223839   2.138   0.670  11.121 -0.1158  0.3023 -0.0327
  783TIP3    H123840   2.091   0.637  11.197 -1.1188  0.0960 -0.7346
  783TIP3    H223841   2.117   0.764  11.117  0.6261  0.4954  0.4341
  784TIP3   OH223842   2.678   0.271   0.671  0.3080  0.1165  0.2312
  784TIP3    H123843   2.696   0.197   0.614 -1.2842 -0.2397  0.1372
  784TIP3    H223844   2.750   0.331   0.656  0.6365 -0.5710 -1.1241
  785TIP3   OH223845   5.263   1.447  17.356 -0.2523 -0.1221  0.0913
  785TIP3    H123846   5.231   1.357  17.357 -1.4396  0.0712 -3.8424
  785TIP3    H223847   5.210   1.492  17.422 -2.7231 -1.4640 -0.8500
  786TIP3   OH223848   5.794   3.936  17.076 -0.2775  0.4808 -0.1842
  786TIP3    H123849   5.739   4.012  17.093 -0.1296  0.2841  1.3732
  786TIP3    H223850   5.742   3.880  17.019 -0.6455  1.4412 -0.8117
  787TIP3   OH223851   4.256   2.515   0.515 -0.1888  0.5172  0.1003
  787TIP3    H123852   4.340   2.522   0.559  0.3273  0.4498 -0.8513
  787TIP3    H223853   4.269   2.448   0.448 -1.6221 -1.0774  1.3058
  788TIP3   OH223854   4.828   4.723  16.348  0.1642 -0.2776 -0.2349
  788TIP3    H123855   4.782   4.766  16.420  2.0122  0.2459  0.6989
  788TIP3    H223856   4.920   4.726  16.374  0.8146 -0.6604 -2.3298
  789TIP3   OH223857   5.837   3.560  17.525  0.5408  0.0325  0.2197
  789TIP3    H123858   5.870   3.612  17.598 -0.8443 -0.3075  1.1427
  789TIP3    H223859   5.915   3.521  17.486  1.5706  2.3617 -0.2106
  790TIP3   OH223860   1.372   3.658   2.405 -0.9940  0.2995 -0.1097
  790TIP3    H123861   1.429   3.683   2.333 -1.9002  2.8096 -0.0674
  790TIP3    H223862   1.431   3.617   2.469  0.0483 -0.6929 -1.6345
  791TIP3   OH223863   2.724   4.395   0.570  0.2396  0.3054 -0.3577
  791TIP3    H123864   2.718   4.452   0.494  0.0629  1.0175  0.1720
  791TIP3    H223865   2.661   4.325   0.554 -0.3064  0.8388 -0.5436
  792TIP3   OH223866   1.032   3.906  12.759 -0.6713 -0.2457 -0.1867
  792TIP3    H123867   1.018   3.814  12.779  2.0217 -0.8288 -0.6168
  792TIP3    H223868   1.020   3.912  12.664 -2.2309  0.1981  0.0016
  793TIP3   OH223869   6.280   3.196   3.342  0.0810  0.6597  0.3979
  793TIP3    H123870   6.312   3.126   3.285 -2.5587  1.0733 -1.8317
  793TIP3    H223871   6.305   3.169   3.430  0.2842 -2.4659 -0.4974
  794TIP3   OH223872   3.177   6.215  10.795  0.1454  0.0036  0.3385
  794TIP3    H123873   3.203   6.123  10.782 -1.7294 -0.3500 -1.4793
  794TIP3    H223874   3.259   6.260  10.818  1.4601 -1.8025 -0.5342
  795TIP3   OH223875   0.799   6.202  15.373 -0.1680  0.3526 -0.2130
  795TIP3    H123876   0.736   6.131  15.360  0.9127 -0.3279 -2.2836
  795TIP3    H223877   0.782   6.234  15.461 -2.2741 -0.9008 -0.0986
  796TIP3   OH223878   5.464   6.456  14.218 -0.1748 -0.4131  0.0569
  796TIP3    H123879   5.498   6.449  14.129  1.5904 -3.9512  0.8532
  796TIP3    H223880   5.541   6.451  14.274 -1.1861  2.1553  1.9225
  797TIP3   OH223881   4.044   0.853  13.066 -0.1490 -0.4840 -0.3096
  797TIP3    H123882   4.050   0.779  13.126 -2.4858 -0.2470  0.3205
  797TIP3    H223883   4.123   0.904  13.082  0.0277 -1.2468  1.4695
  798TIP3   OH223884   5.575   0.483  17.102 -0.2255  0.3665  0.3901
  798TIP3    H123885   5.510   0.515  17.163  0.3500 -0.0179  1.2230
  798TIP3    H223886   5.582   0.551  17.035 -1.9540  0.1175 -0.0948
  799TIP3   OH223887   5.195   2.021  12.295 -0.0549 -0.3101  0.0575
  799TIP3    H123888   5.247   2.080  12.351  1.3515 -0.2061 -1.2987
  799TIP3    H223889   5.155   1.960  12.356  1.0301  0.1001  1.2331
  800TIP3   OH223890   4.262   5.165   5.079  0.1393  0.2202  0.1034
  800TIP3    H123891   4.263   5.196   5.170 -2.4455  2.2201 -0.4386
  800TIP3    H223892   4.252   5.070   5.087 -0.9906  0.4359  1.9351
  801TIP3   OH223893   2.697   2.126  12.990 -0.1545  0.2167  0.0315
  801TIP3    H123894   2.709   2.035  12.962  2.1724  0.0647  1.3047
  801TIP3    H223895   2.764   2.175  12.944 -0.5915  1.0864  0.2922
  802TIP3   OH223896   3.212   4.675  16.787 -0.3492  0.6933 -0.3225
  802TIP3    H123897   3.190   4.629  16.868  1.5464  0.8114  0.3031
  802TIP3    H223898   3.172   4.622  16.718  0.9765 -1.4206  0.4354
  803TIP3   OH223899   1.223   3.434   0.583 -0.3189  0.1843  0.1389
  803TIP3    H123900   1.189   3.386   0.658 -1.2408 -0.7565 -0.8356
  803TIP3    H223901   1.153   3.496   0.561 -0.2875  0.0760 -0.2703
  804TIP3   OH223902   4.401   6.582   2.115 -0.5394 -0.0019 -0.1764
  804TIP3    H123903   4.374   6.642   2.046  0.3861  1.3033  0.5503
  804TIP3    H223904   4.423   6.639   2.189  0.7945 -1.2111  0.3945
  805TIP3   OH223905   4.454   0.852  15.587  0.1383  0.3021 -0.1312
  805TIP3    H123906   4.539   0.826  15.622 -0.2429 -0.8745 -0.0322
  805TIP3    H223907   4.395   0.850  15.662 -0.1324  0.3807 -0.3383
  806TIP3   OH223908   4.696   6.048  12.642  0.2690  0.4091 -0.8417
  806TIP3    H123909   4.716   6.052  12.736 -0.8208  2.6642 -0.6282
  806TIP3    H223910   4.781   6.039  12.600  0.7388 -1.1918  0.3594
  807TIP3   OH223911   2.731   6.631   5.991 -0.0591 -0.1247  0.1054
  807TIP3    H123912   2.781   6.622   5.910 -0.7686 -0.5768 -0.2859
  807TIP3    H223913   2.788   6.684   6.048  0.6168 -0.1491 -0.5311
  808TIP3   OH223914   2.664   2.798  16.804 -0.1725 -0.4131 -0.2506
  808TIP3    H123915   2.571   2.821  16.799 -0.5137 -1.3748  0.9269
  808TIP3    H223916   2.674   2.725  16.742  0.2995  1.0516 -1.9581
  809TIP3   OH223917   0.800   3.796   6.097  0.0355  0.0324 -0.0633
  809TIP3    H123918   0.790   3.712   6.141  0.2612  1.3644  2.8135
  809TIP3    H223919   0.739   3.854   6.142 -0.2538  1.4028 -2.0768
  810TIP3   OH223920   5.795   1.468  13.396 -0.1303 -0.8137  0.1956
  810TIP3    H123921   5.859   1.446  13.329  0.9436  0.4580  0.7449
  810TIP3    H223922   5.818   1.414  13.471 -0.3505 -1.0913  0.0675
  811TIP3   OH223923   2.390   0.323  16.720  0.4742 -0.3668 -0.3062
  811TIP3    H123924   2.364   0.281  16.637 -1.1358  1.7915 -0.9825
  811TIP3    H223925   2.313   0.314  16.776  0.3142  1.0845 -0.2582
  812TIP3   OH223926   3.687   3.919   1.230 -0.4774 -0.6237 -0.4030
  812TIP3    H123927   3.750   3.980   1.269  0.9514 -0.6208 -2.5183
  812TIP3    H223928   3.704   3.836   1.273 -1.5648  0.1299  1.6042
  813TIP3   OH223929   6.453   0.062  14.151  0.4191 -0.2383  0.0827
  813TIP3    H123930   6.454  -0.032  14.170  3.3686 -0.3708 -0.2901
  813TIP3    H223931   6.447   0.067  14.055 -1.3989  0.0656  0.1719
  814TIP3   OH223932   3.614   6.198  14.665 -0.0768 -0.1915  0.3985
  814TIP3    H123933   3.609   6.108  14.634 -1.9141  0.2757 -0.8157
  814TIP3    H223934   3.685   6.237  14.614 -0.7259 -0.3905 -0.6916
  815TIP3   OH223935   5.470   0.688  15.567  0.0223  0.4200 -0.0633
  815TIP3    H123936   5.500   0.768  15.611  2.3204 -0.8722  0.9254
  815TIP3    H223937   5.495   0.700  15.475 -1.5813  1.6655 -0.3741
  816TIP3   OH223938   6.293   3.028  15.500 -0.6675  0.5114  0.7535
  816TIP3    H123939   6.368   2.971  15.517 -0.8535 -0.0870 -0.3782
  816TIP3    H223940   6.318   3.078  15.422 -1.6137  0.0002  0.1094
  817TIP3   OH223941   2.914   2.697  17.209  0.2905 -0.0384  0.0528
  817TIP3    H123942   2.875   2.779  17.241  1.5251  0.0237  1.5086
  817TIP3    H223943   2.854   2.668  17.140 -1.9847  0.3554  1.7523
  818TIP3   OH223944   1.873   4.861   5.305 -0.4578  0.7189  0.0889
  818TIP3    H123945   1.807   4.793   5.291 -0.4521  1.1254 -2.3215
  818TIP3    H223946   1.956   4.813   5.314 -0.5663  0.3616 -0.7605
  819TIP3   OH223947   2.533   1.471  16.817  0.8898 -0.2364 -1.0258
  819TIP3    H123948   2.581   1.554  16.815  3.1046 -1.3638  0.9468
  819TIP3    H223949   2.489   1.470  16.902 -2.1884  0.4139 -2.4757
  820TIP3   OH223950   1.654   2.841   1.027 -0.2668 -0.0182  0.2741
  820TIP3    H123951   1.700   2.766   1.063  1.0791  1.1722  1.1669
  820TIP3    H223952   1.723   2.901   0.998 -1.2905  0.8139 -0.5627
  821TIP3   OH223953   6.184   2.694   6.501 -0.0045 -0.0036 -0.6119
  821TIP3    H123954   6.093   2.722   6.490  0.1724  0.0826 -1.9935
  821TIP3    H223955   6.212   2.669   6.413  1.6044  0.8748 -0.3852
  822TIP3   OH223956   2.519   2.977   2.116  0.2756 -0.6401 -1.0261
  822TIP3    H123957   2.433   3.017   2.125 -0.1395 -1.4067 -1.4821
  822TIP3    H223958   2.523   2.950   2.024  1.2244 -0.1233 -1.1522
  823TIP3   OH223959   3.183   5.810   4.092 -0.7304  0.2801 -0.2707
  823TIP3    H123960   3.189   5.906   4.092 -1.3174  0.3604  1.6756
  823TIP3    H223961   3.091   5.791   4.075 -0.5342  0.0358 -1.0864
  824TIP3   OH223962   0.356   6.380   3.122 -1.0682  0.5088 -0.0216
  824TIP3    H123963   0.380   6.296   3.083 -1.7189  0.4957 -0.4297
  824TIP3    H223964   0.261   6.386   3.106 -0.6765  2.3271 -2.0183
  825TIP3   OH223965   1.778   2.002  16.429  0.2362 -0.0010 -0.8196
  825TIP3    H123966   1.746   1.945  16.499  0.1248 -0.8343 -1.5402
  825TIP3    H223967   1.702   2.055  16.404  0.4515  0.7887  0.1481
  826TIP3   OH223968   1.995   4.698   5.073  0.9535 -0.4310 -0.4371
  826TIP3    H123969   2.049   4.717   5.149  0.9153 -1.9401  0.0115
  826TIP3    H223970   2.055   4.658   5.010  0.2744 -3.1828  0.4941
  827TIP3   OH223971   0.854   1.022   4.774  0.6003 -0.4322 -0.5656
  827TIP3    H123972   0.815   1.076   4.843  1.0773  0.7931 -1.2369
  827TIP3    H223973   0.932   0.983   4.815  1.4078  1.0335 -0.6678
  828TIP3   OH223974   2.913   6.073  15.575 -0.3300 -0.2383 -0.1393
  828TIP3    H123975   2.906   6.112  15.488  0.6848 -0.4679 -0.3380
  828TIP3    H223976   2.993   6.021  15.572  0.9628  1.4748  1.5944
  829TIP3   OH223977   4.280   1.346   0.365 -0.7369 -0.3541  0.6393
  829TIP3    H123978   4.291   1.434   0.328  1.0584  0.3766  2.7302
  829TIP3    H223979   4.340   1.291   0.315  1.1613  0.4862  1.8782
  830TIP3   OH223980   1.928   4.722   0.299  0.0754 -0.2976 -0.4873
  830TIP3    H123981   1.991   4.653   0.321  1.7157  1.6420  1.2895
  830TIP3    H223982   1.975   4.780   0.239 -0.6029  0.2889 -0.4722
  831TIP3   OH223983   0.736   4.548  14.597  0.2478 -0.3997  0.0533
  831TIP3    H123984   0.650   4.546  14.555  0.1517  0.0808  0.2266
  831TIP3    H223985   0.763   4.639  14.593  1.0210 -0.6418 -0.5364
  832TIP3   OH223986   3.744   4.604  13.597  0.0750 -0.3141 -0.4599
  832TIP3    H123987   3.732   4.671  13.529 -0.5499  0.0393 -0.0008
  832TIP3    H223988   3.835   4.576  13.586  0.9826  2.0114  0.6019
  833TIP3   OH223989   1.426   5.597   3.167  0.2337 -0.4378 -0.1734
  833TIP3    H123990   1.354   5.534   3.171  0.6310 -1.0582 -1.8660
  833TIP3    H223991   1.477   5.570   3.091  0.0705  2.3061 -1.3598
  834TIP3   OH223992   1.375   5.112   6.704 -0.5272  0.2637 -0.3633
  834TIP3    H123993   1.342   5.046   6.642 -1.5700 -0.9732  1.3999
  834TIP3    H223994   1.302   5.125   6.765  0.3445  1.6816  0.4145
  835TIP3   OH223995   1.768   1.754   3.434  0.0296  0.2485  0.5408
  835TIP3    H123996   1.793   1.661   3.438  0.5598  0.3139 -0.7021
  835TIP3    H223997   1.844   1.801   3.468 -1.0612  0.1751  3.3016
  836TIP3   OH223998   5.751   1.307   0.896 -0.4691 -0.1293 -0.5519
  836TIP3    H123999   5.796   1.323   0.813  1.7108 -0.4294  0.4954
  836TIP3    H224000   5.686   1.239   0.875  0.3213 -0.4990 -1.9336
  837TIP3   OH224001   4.270   5.467   5.476  0.0120 -0.2191 -0.0961
  837TIP3    H124002   4.334   5.430   5.537  0.4978  1.6782  0.6157
  837TIP3    H224003   4.291   5.560   5.473 -2.2612  0.3459 -0.4265
  838TIP3   OH224004   1.094   4.911  15.202 -0.0259 -0.5085  0.5290
  838TIP3    H124005   1.154   4.855  15.154 -0.6192 -0.5272 -0.2161
  838TIP3    H224006   1.068   4.978  15.138 -1.6563 -1.1461  0.4688
  839TIP3   OH224007   5.461   0.210  15.869 -0.0552  0.5967  0.4393
  839TIP3    H124008   5.542   0.260  15.882  0.8226 -0.8851  0.9231
  839TIP3    H224009   5.491   0.126  15.835 -1.4860  0.3583 -0.2805
  840TIP3   OH224010   6.739   5.997  12.929 -0.1070 -0.1490 -0.0523
  840TIP3    H124011   6.691   6.049  12.864 -2.9209 -1.1798  1.0297
  840TIP3    H224012   6.750   6.056  13.003 -1.8097 -0.5179  0.5413
  841TIP3   OH224013   5.624   3.129  14.521 -0.2448 -0.1196  0.3799
  841TIP3    H124014   5.700   3.182  14.545  1.3569 -1.9583 -0.3544
  841TIP3    H224015   5.621   3.134  14.425 -1.8371  0.8904  0.4347
  842TIP3   OH224016   5.509   5.320  16.363 -0.3355 -0.0694 -0.7937
  842TIP3    H124017   5.490   5.343  16.272  2.1710 -2.6950 -2.1606
  842TIP3    H224018   5.546   5.399  16.401  1.8417  0.1777 -3.1963
  843TIP3   OH224019   6.567   5.876  17.405  0.1485  0.0316 -0.1676
  843TIP3    H124020   6.602   5.815  17.470  0.3689  0.2600 -0.0691
  843TIP3    H224021   6.553   5.823  17.327 -0.1388 -0.2505  0.0727
  844TIP3   OH224022   1.242   2.514   1.934  0.4747  0.2955 -0.0178
  844TIP3    H124023   1.208   2.501   1.846  0.4814 -1.9895  0.2585
  844TIP3    H224024   1.230   2.430   1.977  3.5659  0.3281  1.1207
  845TIP3   OH224025   4.441   6.092   0.685 -0.4775 -0.0558  0.0568
  845TIP3    H124026   4.420   6.159   0.750 -1.0150  0.7553 -0.9075
  845TIP3    H224027   4.432   6.138   0.601 -1.6644 -1.5452 -0.6730
  846TIP3   OH224028   4.782   2.979   1.394 -0.2332 -1.1216  0.6138
  846TIP3    H124029   4.753   2.902   1.444 -0.2605 -1.5782 -0.0837
  846TIP3    H224030   4.862   2.950   1.351 -1.0377 -1.2883 -0.8677
  847TIP3   OH224031   6.046   0.942  16.225 -0.2396  0.0007  0.0067
  847TIP3    H124032   6.088   0.884  16.161 -0.9526 -0.0764 -0.4039
  847TIP3    H224033   5.962   0.964  16.185 -0.1632  0.9657  0.3606
  848TIP3   OH224034   4.919   2.298   6.138  0.3834  0.0674 -0.1996
  848TIP3    H124035   4.846   2.309   6.077 -0.7966  0.7283  1.2597
  848TIP3    H224036   4.996   2.287   6.082 -1.1539 -3.8708 -1.9393
  849TIP3   OH224037   1.497   1.186  16.380 -0.3343  0.2517  0.2216
  849TIP3    H124038   1.537   1.234  16.453 -0.0975  0.2294  0.1060
  849TIP3    H224039   1.452   1.113  16.422 -0.1059  0.1759  0.3385
  850TIP3   OH224040   1.414   3.032  15.844 -0.3851  0.4905 -0.3122
  850TIP3    H124041   1.500   3.053  15.881  0.7841 -2.2915 -1.1863
  850TIP3    H224042   1.355   3.029  15.920  0.5295  1.2568  0.4494
  851TIP3   OH224043   2.236   2.626   2.056  0.5604  0.3884 -0.1230
  851TIP3    H124044   2.232   2.721   2.070 -0.1500  0.4300 -0.5700
  851TIP3    H224045   2.300   2.595   2.120  1.1206  1.2248 -0.2577
  852TIP3   OH224046   4.059   4.928   4.057  0.2421  0.0297 -1.0374
  852TIP3    H124047   4.120   4.998   4.081 -0.2271  0.3657 -0.8099
  852TIP3    H224048   4.111   4.848   4.061 -0.2181 -0.2500  3.1316
  853TIP3   OH224049   4.760   3.145  13.309 -0.0428  0.2722 -0.4826
  853TIP3    H124050   4.679   3.166  13.265 -0.6931 -0.6286  0.2271
  853TIP3    H224051   4.826   3.202  13.269 -1.2700  2.0078 -0.1050
  854TIP3   OH224052   6.599   1.616   0.522 -0.0332 -0.1027  0.1288
  854TIP3    H124053   6.525   1.662   0.483  0.4625 -0.1873 -0.9320
  854TIP3    H224054   6.648   1.684   0.568 -0.0669  0.1865 -0.2572
  855TIP3   OH224055   2.935   4.376   4.428  0.2891  0.2142  0.6723
  855TIP3    H124056   3.018   4.330   4.417  0.3045  0.5166 -0.7155
  855TIP3    H224057   2.940   4.449   4.366 -0.5044  0.9768  1.4810
  856TIP3   OH224058   4.710   4.132  12.167 -0.3448 -0.4722 -0.2008
  856TIP3    H124059   4.635   4.077  12.142 -0.5403 -0.8938  1.2412
  856TIP3    H224060   4.752   4.154  12.083 -1.8088 -0.5975 -1.0084
  857TIP3   OH224061   4.134   0.325  14.442 -0.1287 -0.4464  0.4884
  857TIP3    H124062   4.077   0.384  14.392 -0.7251 -0.0021  1.6417
  857TIP3    H224063   4.222   0.358  14.427 -0.0895 -1.3533 -1.6152
  858TIP3   OH224064   4.187   4.418   0.985  0.2784  0.1565 -0.6688
  858TIP3    H124065   4.274   4.415   0.947  0.3201  1.1562 -0.6810
  858TIP3    H224066   4.188   4.496   1.041  0.2729 -1.3035  1.5101
  859TIP3   OH224067   3.745   3.426  12.459  0.4119 -0.3534  0.3696
  859TIP3    H124068   3.832   3.423  12.500  0.9825  0.8306 -0.6987
  859TIP3    H224069   3.721   3.518  12.460  0.0138 -0.4155 -1.0327
  860TIP3   OH224070   6.492   6.174   2.291 -0.6424  0.5637  0.2224
  860TIP3    H124071   6.572   6.223   2.273  0.3582 -0.5001  1.5231
  860TIP3    H224072   6.431   6.239   2.328  0.0156  1.1747  0.2369
  861TIP3   OH224073   3.238   3.280  16.975  0.2567  0.2814 -0.2209
  861TIP3    H124074   3.163   3.295  16.918 -0.6246  1.0594  1.0932
  861TIP3    H224075   3.280   3.201  16.940 -1.7239 -0.7274 -0.4184
  862TIP3   OH224076   1.463   1.112   3.362  0.4858  0.7184  0.6515
  862TIP3    H124077   1.504   1.131   3.278 -0.5716  0.2288  0.0116
  862TIP3    H224078   1.436   1.198   3.395 -2.8548  0.6870 -1.5056
  863TIP3   OH224079   2.220   5.605  15.309  0.5476 -0.3672 -0.1722
  863TIP3    H124080   2.153   5.562  15.363  0.6364 -2.4602 -1.6373
  863TIP3    H224081   2.291   5.623  15.370  0.0275 -1.2504  0.7256
  864TIP3   OH224082   4.406   3.185  13.919  0.0712  0.2204 -0.4805
  864TIP3    H124083   4.474   3.240  13.958 -0.0338 -0.6724  1.0337
  864TIP3    H224084   4.360   3.243  13.858  0.5843  1.5349  0.3412
  865TIP3   OH224085   3.581   5.236   1.839 -0.4007 -0.2839 -0.7745
  865TIP3    H124086   3.643   5.188   1.785 -1.2912 -0.6779 -1.4687
  865TIP3    H224087   3.543   5.302   1.781 -0.3624  0.2150 -0.2526
  866TIP3   OH224088   0.080   1.571   4.982 -0.2570  0.2542  0.0220
  866TIP3    H124089  -0.004   1.609   4.957  0.0306  1.3162  0.6100
  866TIP3    H224090   0.136   1.646   5.003  1.2331 -0.3667 -1.4660
  867TIP3   OH224091   1.814   5.148  11.922 -0.5979 -0.1979 -0.1994
  867TIP3    H124092   1.731   5.191  11.942 -0.7734 -0.6750  0.1407
  867TIP3    H224093   1.820   5.149  11.827 -1.6604 -1.3412 -0.3102
  868TIP3   OH224094   3.768   3.369  16.536  0.0345 -0.3614  0.0054
  868TIP3    H124095   3.683   3.405  16.562 -0.4190 -2.1960  1.2845
  868TIP3    H224096   3.763   3.362  16.441 -1.1839 -0.2645  0.0404
  869TIP3   OH224097   2.108   1.917  12.069 -0.3852  0.8508 -0.2220
  869TIP3    H124098   2.167   1.843  12.075 -1.6021 -0.3193 -1.7890
  869TIP3    H224099   2.150   1.977  12.007 -0.4570  0.4077 -0.7017
  870TIP3   OH224100   5.751   3.026  10.864  0.2107 -0.0277 -0.4566
  870TIP3    H124101   5.707   2.943  10.880  0.1160  0.1281  0.0978
  870TIP3    H224102   5.845   3.004  10.865  0.2371  0.1105  1.1061
  871TIP3   OH224103   5.886   5.802   2.282  0.0408  0.4983 -0.4512
  871TIP3    H124104   5.968   5.762   2.309  0.3286  1.3744  0.0322
  871TIP3    H224105   5.873   5.772   2.192 -0.2344 -1.3831  0.1682
  872TIP3   OH224106   6.761   5.888  13.796  0.2904  0.0468 -0.1388
  872TIP3    H124107   6.690   5.929  13.746  2.1987  1.0985 -2.1511
  872TIP3    H224108   6.763   5.936  13.879 -1.0637  0.2605 -0.2116
  873TIP3   OH224109   4.359   3.840  15.711 -0.6623 -0.3368 -0.4037
  873TIP3    H124110   4.453   3.827  15.699 -0.6578 -0.5247 -0.1777
  873TIP3    H224111   4.347   3.846  15.806 -1.0122 -1.4170 -0.3578
  874TIP3   OH224112   3.979   1.696   1.977  0.4725  0.2071 -0.2913
  874TIP3    H124113   4.069   1.680   1.950  0.0728  0.7747 -2.1721
  874TIP3    H224114   3.986   1.766   2.042  1.3992  0.0120 -0.1620
  875TIP3   OH224115   4.772   2.453   2.481  0.4462  0.3463  0.0392
  875TIP3    H124116   4.851   2.404   2.458  0.4042  0.6294 -0.7228
  875TIP3    H224117   4.776   2.533   2.428 -1.1607 -0.3851 -1.2920
  876TIP3   OH224118   1.751   4.555  12.704  0.2926 -0.0078  0.0014
  876TIP3    H124119   1.840   4.552  12.670 -0.0696 -0.4817 -0.9240
  876TIP3    H224120   1.697   4.579  12.629 -0.3097  0.7898  0.6701
  877TIP3   OH224121   5.685   6.138   5.752 -0.0248  0.4833 -0.3221
  877TIP3    H124122   5.770   6.134   5.707  0.5102 -0.8902  0.7325
  877TIP3    H224123   5.625   6.091   5.694 -0.2131  1.8753 -1.3055
  878TIP3   OH224124   5.764   2.649   4.543 -0.4855  0.2648 -0.0263
  878TIP3    H124125   5.699   2.627   4.611 -0.3465 -1.2479 -0.3466
  878TIP3    H224126   5.715   2.644   4.461 -0.0130 -0.8023 -0.2624
  879TIP3   OH224127   6.750   3.966   5.215 -0.0847  0.3736 -0.0074
  879TIP3    H124128   6.656   3.982   5.218 -0.1270  0.5170 -1.3409
  879TIP3    H224129   6.784   4.002   5.297 -1.3186 -0.6959  1.0043
  880TIP3   OH224130   2.703   0.803   5.726  0.1275 -0.1500  0.4824
  880TIP3    H124131   2.681   0.887   5.767  1.1290 -0.7724  2.4102
  880TIP3    H224132   2.769   0.825   5.660  1.4395  0.4848  1.9213
  881TIP3   OH224133   0.640   4.053   4.715 -0.3572  0.2237 -0.0124
  881TIP3    H124134   0.611   4.006   4.637 -0.1731  0.9697 -0.5312
  881TIP3    H224135   0.627   3.989   4.786  0.1448 -0.7140 -0.7351
  882TIP3   OH224136   6.348   2.669   1.801 -0.7492 -0.2105 -0.1693
  882TIP3    H124137   6.343   2.752   1.848 -1.3376 -0.7572  0.7687
  882TIP3    H224138   6.322   2.603   1.865  3.3731 -1.6288  0.3145
  883TIP3   OH224139   1.993   5.029   1.602  0.4468 -0.0718  0.0575
  883TIP3    H124140   2.026   5.102   1.550  0.9744 -0.2258  0.1714
  883TIP3    H224141   2.058   4.960   1.590 -0.2958 -0.6851 -0.4299
  884TIP3   OH224142   5.410   1.301  10.661  0.4603 -0.1020 -0.0744
  884TIP3    H124143   5.473   1.371  10.679  1.9103 -1.2998 -0.2642
  884TIP3    H224144   5.464   1.226  10.637 -1.0852 -1.0152 -0.8765
  885TIP3   OH224145   4.917   5.979  17.440 -0.0498  0.4345 -0.0307
  885TIP3    H124146   4.990   5.954  17.496  0.4970 -0.3644 -1.0635
  885TIP3    H224147   4.841   5.979  17.498  0.7017  0.9111  0.9791
  886TIP3   OH224148   2.216   1.574   0.587 -0.5794  0.4371  0.5455
  886TIP3    H124149   2.207   1.641   0.520 -0.4218  1.1015  1.1753
  886TIP3    H224150   2.128   1.538   0.599 -1.1235  2.0678  1.7536
  887TIP3   OH224151   3.911   2.162   0.773  0.5662  0.3521  0.5067
  887TIP3    H124152   3.871   2.206   0.847  1.4055 -0.1103  1.2522
  887TIP3    H224153   4.002   2.147   0.799  0.2193 -2.2569  0.5240
  888TIP3   OH224154   2.110   5.727   3.166 -0.1545 -0.2543 -0.0445
  888TIP3    H124155   2.161   5.733   3.085  0.0818  2.3912  0.1995
  888TIP3    H224156   2.042   5.663   3.147  0.2308 -0.1093 -2.1551
  889TIP3   OH224157   1.919   4.177   4.048  0.2588  0.1883 -0.1355
  889TIP3    H124158   1.888   4.150   3.961 -1.9985  2.2038 -0.0493
  889TIP3    H224159   1.964   4.260   4.032  1.0396 -0.1189  0.4590
  890TIP3   OH224160   3.662   5.230   4.595  0.1029 -0.5300 -0.4804
  890TIP3    H124161   3.609   5.276   4.660 -0.8571  0.8983 -2.1745
  890TIP3    H224162   3.610   5.153   4.572 -0.8773  0.3809 -1.4586
  891TIP3   OH224163   5.147   0.162  15.149 -0.3041  0.0099  0.3211
  891TIP3    H124164   5.167   0.255  15.146 -0.4695  0.0487  0.4345
  891TIP3    H224165   5.052   0.158  15.161 -0.1851 -0.1727  1.2850
  892TIP3   OH224166   1.884   0.914   0.339  0.0611  0.0198 -0.0740
  892TIP3    H124167   1.970   0.953   0.326  0.7487 -1.4297 -0.1568
  892TIP3    H224168   1.883   0.838   0.281 -1.4880  0.2926 -0.4716
  893TIP3   OH224169   2.558   6.345   0.425  0.6065  0.6910  0.6700
  893TIP3    H124170   2.649   6.372   0.410  0.4827  0.0947 -1.4697
  893TIP3    H224171   2.506   6.417   0.390  0.2521  0.4693  0.7413
  894TIP3   OH224172   1.898   5.878  16.406 -0.0616  0.2504  0.2189
  894TIP3    H124173   1.830   5.893  16.471  0.2977 -0.3212  0.7426
  894TIP3    H224174   1.851   5.858  16.325 -0.5287 -1.1323  0.8087
  895TIP3   OH224175   1.560   0.274   3.889  0.1324  0.0856  0.0418
  895TIP3    H124176   1.495   0.218   3.931 -1.1109  0.7546 -0.9129
  895TIP3    H224177   1.609   0.215   3.832  1.6467 -0.7761  2.1194
  896TIP3   OH224178   2.969   5.821   5.027  0.0261 -0.0919 -0.2125
  896TIP3    H124179   2.960   5.787   5.116 -0.6065 -0.0072 -0.2412
  896TIP3    H224180   2.952   5.745   4.971  0.8791 -0.2540 -0.2624
  897TIP3   OH224181   5.810   0.378   0.780  0.2018 -0.2804 -0.3686
  897TIP3    H124182   5.871   0.308   0.803  1.8839  1.4817  0.8276
  897TIP3    H224183   5.725   0.334   0.772  1.3073 -2.5471 -0.4088
  898TIP3   OH224184   2.927   4.107  14.302  0.3512 -0.1579 -0.9409
  898TIP3    H124185   2.848   4.130  14.252 -0.8489 -1.1483  0.3998
  898TIP3    H224186   2.949   4.019  14.273 -0.2446 -0.6679  0.0911
  899TIP3   OH224187   0.443   1.123  15.692 -0.6984  0.0972  0.1430
  899TIP3    H124188   0.479   1.109  15.780 -1.1848  1.7775  0.6465
  899TIP3    H224189   0.471   1.046  15.642  1.0736 -0.0556  1.2863
  900TIP3   OH224190   0.236   0.309  16.734 -0.9209  0.0265 -0.6529
  900TIP3    H124191   0.175   0.353  16.675 -0.6834  0.7516 -0.3556
  900TIP3    H224192   0.214   0.341  16.821 -0.3492  0.0257 -0.5033
  901TIP3   OH224193   4.844   5.604  12.757  1.0448  0.0353 -0.1197
  901TIP3    H124194   4.825   5.668  12.825  0.1762 -1.7374  1.3891
  901TIP3    H224195   4.898   5.652  12.693 -0.4855  2.5460  0.3351
  902TIP3   OH224196   5.892   1.067   4.064 -0.2431 -0.0778 -0.1548
  902TIP3    H124197   5.886   1.035   4.154  0.8049 -0.4316 -0.1884
  902TIP3    H224198   5.984   1.094   4.055 -0.4712  0.4596 -0.9503
  903TIP3   OH224199   2.681   0.781   1.504 -0.3047  0.1016 -0.5261
  903TIP3    H124200   2.660   0.851   1.442 -2.4359  1.1794  1.2787
  903TIP3    H224201   2.635   0.704   1.470 -0.8539  0.4857 -0.6554
  904TIP3   OH224202   4.675   5.684  16.776  0.8943 -0.0744 -0.4149
  904TIP3    H124203   4.602   5.716  16.829  0.7903 -0.2879 -0.4278
  904TIP3    H224204   4.750   5.684  16.835  0.7289 -0.5322 -0.2004
  905TIP3   OH224205   4.372   0.206  13.938 -1.1938  0.0907  0.0712
  905TIP3    H124206   4.450   0.246  13.976 -0.4016  0.1028 -1.5014
  905TIP3    H224207   4.299   0.245  13.987 -0.2508  0.1930  1.4597
  906TIP3   OH224208   4.662   6.572  12.887 -0.4095 -0.5955  0.1887
  906TIP3    H124209   4.652   6.484  12.851 -0.1701 -1.0004  1.0669
  906TIP3    H224210   4.646   6.631  12.814 -1.0090 -1.3678 -0.3142
  907TIP3   OH224211   4.610   3.789  16.003  0.1099  0.2076 -0.0315
  907TIP3    H124212   4.692   3.819  15.964 -0.5452  0.1772 -1.5032
  907TIP3    H224213   4.622   3.801  16.097  1.8295  0.1133 -0.2057
  908TIP3   OH224214   2.797   1.441  16.581 -0.8724  0.4310 -0.0234
  908TIP3    H124215   2.718   1.404  16.542  0.7623 -2.2646 -1.0039
  908TIP3    H224216   2.779   1.443  16.675 -1.3522 -2.3685  0.0314
  909TIP3   OH224217   6.429   4.739  12.495 -0.5476 -0.6320  0.0652
  909TIP3    H124218   6.368   4.673  12.462  0.2977 -2.2164  1.5145
  909TIP3    H224219   6.512   4.691  12.506  0.2160  0.7973  0.7325
  910TIP3   OH224220   1.214   4.852   4.339 -0.3968  0.0003 -0.1832
  910TIP3    H124221   1.198   4.826   4.430 -0.1829 -1.5422 -0.5575
  910TIP3    H224222   1.132   4.894   4.312 -0.6012  0.1233  0.5911
  911TIP3   OH224223   6.537   5.366   4.117  0.0416  0.0600 -0.0824
  911TIP3    H124224   6.498   5.338   4.035  0.8481 -0.8996 -0.1636
  911TIP3    H224225   6.464   5.404   4.167 -0.2563  1.6076 -1.6194
  912TIP3   OH224226   4.851   5.101  12.440  0.4728 -0.0576  0.1604
  912TIP3    H124227   4.862   5.048  12.362  3.0588 -4.5489  3.1203
  912TIP3    H224228   4.756   5.108  12.451  0.0405 -1.3548 -2.0789
  913TIP3   OH224229   2.594   1.289  11.285 -0.4985 -0.2080  0.6296
  913TIP3    H124230   2.539   1.272  11.208 -0.2195  1.0259  0.1420
  913TIP3    H224231   2.575   1.216  11.344 -2.2962 -0.0575  0.2860
  914TIP3   OH224232   6.146   4.885  13.370  0.4417 -0.5181 -0.5696
  914TIP3    H124233   6.061   4.888  13.413  1.2835 -0.1711  1.1553
  914TIP3    H224234   6.202   4.836  13.431  1.3917 -1.0989 -1.8563
  915TIP3   OH224235   3.169   4.749  15.638 -0.0859 -0.0459 -0.5324
  915TIP3    H124236   3.183   4.726  15.546  0.0735  0.8835 -0.7464
  915TIP3    H224237   3.155   4.843  15.638  1.1006  0.1651  0.5247
  916TIP3   OH224238   1.553   1.578   5.576 -0.2071 -0.0655  0.4951
  916TIP3    H124239   1.580   1.642   5.511 -0.8646  0.7425  0.9917
  916TIP3    H224240   1.490   1.625   5.632  1.9982  0.0477  3.1188
  917TIP3   OH224241   6.343   5.971   5.671 -0.1874 -0.0811 -0.4767
  917TIP3    H124242   6.382   6.019   5.597  0.0152  1.6514  0.6873
  917TIP3    H224243   6.293   6.037   5.718 -0.3978 -1.1763  0.8888
  918TIP3   OH224244   1.459   4.170  13.902  0.6454 -0.2413 -0.7086
  918TIP3    H124245   1.472   4.252  13.855  1.7737 -0.9799 -1.7427
  918TIP3    H224246   1.374   4.138  13.871  1.1452 -0.4713 -1.9137
  919TIP3   OH224247   6.086   4.242   6.351 -0.0735 -0.2314 -0.4474
  919TIP3    H124248   6.161   4.223   6.293 -0.0616 -2.8585  0.2718
  919TIP3    H224249   6.124   4.246   6.438 -0.4365  1.1980 -0.3381
  920TIP3   OH224250   1.351   5.735  15.307  0.1283 -0.0817 -0.7566
  920TIP3    H124251   1.295   5.694  15.373  1.8811 -0.8151  0.3497
  920TIP3    H224252   1.325   5.694  15.225 -2.1646  0.9164 -0.6159
  921TIP3   OH224253   0.974   6.112  11.458  0.3835  0.1808 -0.0889
  921TIP3    H124254   0.929   6.178  11.406  0.9945 -0.1234 -1.0178
  921TIP3    H224255   0.917   6.035  11.455  0.0545  0.4022  0.3369
  922TIP3   OH224256   0.440   0.594  12.132 -0.5333  0.2221 -0.0235
  922TIP3    H124257   0.511   0.548  12.178 -0.8966  0.4446  0.7870
  922TIP3    H224258   0.377   0.615  12.201 -0.6357  1.4399 -0.4657
  923TIP3   OH224259   5.199   4.014   5.493 -0.0062  0.0975 -0.3395
  923TIP3    H124260   5.221   4.025   5.585 -0.2275  0.0212 -0.2777
  923TIP3    H224261   5.234   3.927   5.470  2.3971  1.1594 -1.0173
  924TIP3   OH224262   1.191   4.464  11.432 -0.0870 -1.2637  0.5029
  924TIP3    H124263   1.209   4.371  11.422  1.5794 -0.7411 -2.1611
  924TIP3    H224264   1.263   4.497  11.485  0.6539 -1.1074 -0.5822
  925TIP3   OH224265   0.709   1.915   4.665  0.2748  0.3194  0.0626
  925TIP3    H124266   0.701   1.886   4.756  0.0656  0.6093  0.1376
  925TIP3    H224267   0.622   1.947   4.642  0.7587  1.9189  0.3431
  926TIP3   OH224268   3.554   3.974  13.134 -0.5103 -0.3832  0.1405
  926TIP3    H124269   3.618   3.986  13.204 -1.2726 -2.0598  1.1926
  926TIP3    H224270   3.494   3.907  13.167 -1.8116 -0.1095 -1.5041
  927TIP3   OH224271   0.776   3.634  16.069 -0.3034 -0.0704  0.4614
  927TIP3    H124272   0.805   3.691  15.998 -1.1927 -1.0583 -0.7242
  927TIP3    H224273   0.717   3.689  16.121  0.0652  0.5521  0.2297
  928TIP3   OH224274   6.241   5.897   4.027  0.0500  0.3397 -0.2304
  928TIP3    H124275   6.331   5.870   4.007 -0.0494 -0.5491  0.4158
  928TIP3    H224276   6.193   5.886   3.945  0.6076  1.2229 -0.6886
  929TIP3   OH224277   5.794   5.393   2.002  1.0655  0.6256  0.4745
  929TIP3    H124278   5.721   5.397   2.063  0.6573  0.0614  0.0293
  929TIP3    H224279   5.798   5.301   1.974  1.0002  0.9429 -0.6305
  930TIP3   OH224280   4.694   1.621   1.924  0.1776 -0.1037 -0.0764
  930TIP3    H124281   4.767   1.584   1.877 -1.5787 -1.3393 -1.9939
  930TIP3    H224282   4.646   1.673   1.859  0.1784  2.0360  1.5018
  931TIP3   OH224283   2.270   4.375  11.282 -0.3988 -0.0790 -0.5797
  931TIP3    H124284   2.193   4.317  11.279 -0.4134 -0.1327  0.3568
  931TIP3    H224285   2.344   4.315  11.284 -0.2312 -0.0246 -2.7656
  932TIP3   OH224286   0.226   3.742  12.525 -0.2228  0.2919  0.6410
  932TIP3    H124287   0.259   3.654  12.543  2.5327  1.0920  0.0097
  932TIP3    H224288   0.237   3.789  12.607  0.9166  0.7449  0.2443
  933TIP3   OH224289   0.830   4.038  14.659  0.4101 -0.2055 -0.3394
  933TIP3    H124290   0.860   3.970  14.719 -0.0285 -0.2572 -0.1715
  933TIP3    H224291   0.879   4.116  14.684 -0.6110  0.0772  0.8770
  934TIP3   OH224292   3.547   1.879   3.003  0.1868  0.5467  0.2833
  934TIP3    H124293   3.570   1.951   3.062  0.2702  0.4037  0.4252
  934TIP3    H224294   3.458   1.855   3.028  1.5529 -2.1959  3.1180
  935TIP3   OH224295   0.945   6.419   2.880 -0.0494  0.0033  0.3482
  935TIP3    H124296   0.962   6.512   2.897 -0.6215  0.2699 -0.4764
  935TIP3    H224297   0.989   6.401   2.798  1.7167 -0.9814  1.4440
  936TIP3   OH224298   3.857   0.923   0.978  0.6426  0.0449 -0.3175
  936TIP3    H124299   3.864   0.994   1.043  0.9576  0.4562 -0.7979
  936TIP3    H224300   3.778   0.876   1.004  1.0154 -0.0888  0.6561
  937TIP3   OH224301   1.621   4.169  13.345  0.3943 -0.9791  0.6681
  937TIP3    H124302   1.641   4.093  13.290 -0.3813  0.8511 -2.3625
  937TIP3    H224303   1.536   4.150  13.383 -0.2741 -1.2755 -0.8925
  938TIP3   OH224304   3.528   2.818  16.118 -0.2021 -0.6501  0.3975
  938TIP3    H124305   3.547   2.779  16.203 -1.8470 -1.8757  0.2576
  938TIP3    H224306   3.457   2.764  16.083 -1.6063  1.6173 -0.4531
  939TIP3   OH224307   5.740   2.790   1.068 -0.1369  0.2685 -0.8932
  939TIP3    H124308   5.776   2.829   1.147 -3.1369  1.8995 -0.1701
  939TIP3    H224309   5.798   2.819   0.998  0.8902  1.3147  0.3468
  940TIP3   OH224310   6.476   6.398   6.058  0.1302  0.1222 -0.2505
  940TIP3    H124311   6.537   6.421   6.129  0.9850 -1.8497 -0.2716
  940TIP3    H224312   6.506   6.449   5.983 -0.1768  1.4935  0.5391
  941TIP3   OH224313   4.655   2.037  13.965  0.3200 -0.3591 -0.0413
  941TIP3    H124314   4.626   1.981  14.038 -0.3348 -0.2143 -0.1810
  941TIP3    H224315   4.749   2.046  13.978  0.2446 -0.5068  0.6703
  942TIP3   OH224316   5.416   3.918  13.602  0.4650 -0.4583 -0.3932
  942TIP3    H124317   5.398   3.937  13.694 -1.2105 -1.8997 -0.3707
  942TIP3    H224318   5.438   4.003  13.564  1.7779  0.0819  1.4305
  943TIP3   OH224319   2.529   6.689  14.308 -0.1457  0.2584  0.0055
  943TIP3    H124320   2.514   6.726  14.395  2.0081 -1.6229  1.3237
  943TIP3    H224321   2.501   6.598  14.316  1.7581 -0.4352 -0.6551
  944TIP3   OH224322   5.862   3.569  16.695 -0.3539 -0.2783  0.0403
  944TIP3    H124323   5.924   3.498  16.678 -0.3176 -0.3361  0.3955
  944TIP3    H224324   5.877   3.631  16.624  0.0432 -0.3398  0.0653
  945TIP3   OH224325   0.970   2.941   0.564  0.1231 -0.1984 -0.1297
  945TIP3    H124326   0.946   3.017   0.510  2.7638  0.5548 -0.3686
  945TIP3    H224327   1.056   2.915   0.531 -0.4261 -2.9087  0.4210
  946TIP3   OH224328   2.133   2.022   1.049 -0.1996  0.1504  0.0000
  946TIP3    H124329   2.191   2.098   1.051 -0.8609  0.6525  2.4184
  946TIP3    H224330   2.117   2.000   1.140 -3.2989 -0.3481 -0.5343
  947TIP3   OH224331   3.797   0.293  15.821 -0.2702  0.8693  0.4637
  947TIP3    H124332   3.813   0.385  15.805 -1.8866  1.0456 -0.3558
  947TIP3    H224333   3.719   0.272  15.769  1.0779 -1.4092 -0.7988
  948TIP3   OH224334   5.337   1.497   2.866  0.2475 -0.3055 -0.3254
  948TIP3    H124335   5.278   1.571   2.858 -0.3050 -0.7571 -0.4462
  948TIP3    H224336   5.377   1.489   2.779  1.5130  0.8368  0.1180
  949TIP3   OH224337   0.939   6.648   0.415  0.7591 -0.0188 -0.1506
  949TIP3    H124338   0.854   6.627   0.376 -0.1727 -0.0220  1.7378
  949TIP3    H224339   0.935   6.609   0.503  1.8723  1.8132  0.7714
  950TIP3   OH224340   5.122   1.220  12.670 -0.4393  0.1427  0.5189
  950TIP3    H124341   5.163   1.159  12.732  1.8248  1.3814  0.3326
  950TIP3    H224342   5.029   1.197  12.673  0.1554 -2.6635  1.1591
  951TIP3   OH224343   4.655   0.811   3.261  0.1714  0.2586 -0.1892
  951TIP3    H124344   4.672   0.867   3.185  0.0373  1.0109  0.3195
  951TIP3    H224345   4.729   0.828   3.319 -0.7212  1.2153  0.7085
  952TIP3   OH224346   5.233   3.771  16.569 -0.2560 -0.5388  0.2366
  952TIP3    H124347   5.163   3.712  16.596 -1.4874  1.1024  0.7928
  952TIP3    H224348   5.188   3.848  16.534  1.2357  0.6278  0.7481
  953TIP3   OH224349   1.985   3.951   1.563  0.1723  0.3020 -0.0028
  953TIP3    H124350   1.939   4.002   1.496 -0.4011 -0.7159 -0.4038
  953TIP3    H224351   2.071   3.993   1.570 -0.0387  0.8968 -0.8116
  954TIP3   OH224352   3.413   4.292   2.451 -0.6230 -0.4063  0.3903
  954TIP3    H124353   3.467   4.363   2.416 -1.8172  0.7764  0.8274
  954TIP3    H224354   3.420   4.302   2.546 -1.3502 -0.4193  0.4501
  955TIP3   OH224355   5.432   5.820   5.010 -0.5568  0.7317  0.0302
  955TIP3    H124356   5.346   5.785   5.031  0.0973  1.0498  3.9736
  955TIP3    H224357   5.416   5.880   4.937 -3.1856 -0.9650 -0.9427
  956TIP3   OH224358   5.192   3.118   1.209  0.2479  0.1709  0.1149
  956TIP3    H124359   5.096   3.126   1.209  0.1097 -0.6539  2.7095
  956TIP3    H224360   5.218   3.142   1.297  2.4330 -0.0479 -0.4150
  957TIP3   OH224361   3.325   5.027   5.925 -0.5940  0.8897  0.6691
  957TIP3    H124362   3.360   5.013   6.013  4.4400  2.7120 -0.7093
  957TIP3    H224363   3.338   5.121   5.909 -0.2747  0.4165 -2.3917
  958TIP3   OH224364   3.291   3.374  11.659  0.0517 -0.1328 -0.8694
  958TIP3    H124365   3.232   3.322  11.714  0.1621 -1.6293 -2.1046
  958TIP3    H224366   3.373   3.324  11.658  0.6715  0.8583 -0.8579
  959TIP3   OH224367   5.710   5.268   0.228  0.3488  0.0286  0.0096
  959TIP3    H124368   5.669   5.345   0.268 -0.1585 -0.7013  0.9307
  959TIP3    H224369   5.689   5.196   0.287  1.6944 -0.6506 -0.2933
  960TIP3   OH224370   0.266   4.227   1.906 -0.5035  0.6616 -0.3354
  960TIP3    H124371   0.272   4.176   1.986  0.9090  1.3288  0.0254
  960TIP3    H224372   0.201   4.181   1.853  0.4129 -1.3036  0.1233
  961TIP3   OH224373   1.552   4.558   1.158 -0.3620 -0.0263 -0.8245
  961TIP3    H124374   1.469   4.548   1.204  0.1174 -0.4206 -0.0357
  961TIP3    H224375   1.584   4.469   1.145  0.3020  0.1511 -0.4474
  962TIP3   OH224376   5.481   0.322  12.610 -0.1788 -0.3017  0.0903
  962TIP3    H124377   5.403   0.373  12.631  0.2645  0.1657  0.6471
  962TIP3    H224378   5.550   0.360  12.665  0.6655 -0.0615 -1.1011
  963TIP3   OH224379   4.570   2.443  16.988  0.3840  0.6977 -0.2133
  963TIP3    H124380   4.594   2.516  17.045  2.0556  1.1887 -1.4797
  963TIP3    H224381   4.623   2.370  17.019 -1.3961 -0.0895  1.1478
  964TIP3   OH224382   3.205   1.018   2.673 -0.5345 -0.3408  0.5578
  964TIP3    H124383   3.245   1.054   2.595 -1.5647 -0.9668 -0.2967
  964TIP3    H224384   3.177   1.094   2.724  0.0438  0.0663  0.2744
  965TIP3   OH224385   1.452   0.875  14.288  0.0590  0.2416 -0.2647
  965TIP3    H124386   1.375   0.820  14.276  0.7174 -0.5849 -0.7718
  965TIP3    H224387   1.417   0.964  14.292 -0.8492 -0.0497 -1.3234
  966TIP3   OH224388   1.788   5.788  17.092 -0.6157  0.4221  0.0844
  966TIP3    H124389   1.836   5.865  17.062  1.9380 -0.1401  2.3279
  966TIP3    H224390   1.748   5.752  17.013 -1.2552  3.5643 -1.1493
  967TIP3   OH224391   2.788   2.599   1.377  0.5220 -0.2680 -0.3670
  967TIP3    H124392   2.837   2.522   1.350  0.8811 -0.8430  1.7868
  967TIP3    H224393   2.714   2.565   1.426 -0.6034  0.6996 -1.3233
  968TIP3   OH224394   5.727   3.577   1.936 -0.5021  0.0712 -0.2086
  968TIP3    H124395   5.734   3.532   1.851 -0.4679  1.6612 -1.0990
  968TIP3    H224396   5.749   3.668   1.916 -2.6130  0.9346  1.0991
  969TIP3   OH224397   5.734   0.304  15.831 -0.0103  0.2642  0.3345
  969TIP3    H124398   5.721   0.390  15.792 -0.1530  0.5779  1.0575
  969TIP3    H224399   5.807   0.266  15.781 -0.1573  0.6674 -0.1981
  970TIP3   OH224400   2.831   0.512   5.543  0.3620  0.3935 -0.0161
  970TIP3    H124401   2.776   0.460   5.601  0.1299 -0.1846 -0.7404
  970TIP3    H224402   2.781   0.591   5.526  0.4236  0.5582  0.5482
  971TIP3   OH224403   5.957   0.525   5.882 -0.4113 -0.7650  0.0475
  971TIP3    H124404   5.867   0.521   5.851 -0.7332 -1.1661  0.9731
  971TIP3    H224405   5.949   0.545   5.976  0.5163  0.6736 -0.1501
  972TIP3   OH224406   4.851   3.958   3.276 -0.2775 -0.1855 -0.0105
  972TIP3    H124407   4.781   3.916   3.326  1.9427 -2.2288  1.6208
  972TIP3    H224408   4.875   3.893   3.210 -0.4817  0.8688 -1.1451
  973TIP3   OH224409   6.601   4.724   5.859  0.3681  0.5796  0.3858
  973TIP3    H124410   6.622   4.808   5.900  0.0065  0.8548  0.0223
  973TIP3    H224411   6.679   4.701   5.808  0.1179  1.1784 -0.2864
  974TIP3   OH224412   4.749   6.643  14.019 -0.1951 -0.2720  0.8413
  974TIP3    H124413   4.678   6.665  13.959 -0.0406  1.4003  1.2369
  974TIP3    H224414   4.780   6.727  14.052 -0.0539 -1.1145  3.0054
  975TIP3   OH224415   1.162   5.156   0.181  0.1056 -0.4547 -0.3138
  975TIP3    H124416   1.195   5.188   0.265 -1.8964 -1.2674  0.8483
  975TIP3    H224417   1.084   5.106   0.203 -0.0128 -1.4176 -2.6015
  976TIP3   OH224418   5.998   4.895  14.969  0.4637  0.7924 -0.2925
  976TIP3    H124419   5.922   4.951  14.952  0.6229  0.7663 -1.0900
  976TIP3    H224420   5.965   4.829  15.030  0.2695  1.7427  0.6857
  977TIP3   OH224421   4.102   4.921   3.756 -0.0890  0.3112 -0.0976
  977TIP3    H124422   4.157   4.863   3.704  1.6654 -0.2879  2.2190
  977TIP3    H224423   4.072   4.867   3.829 -0.6161  1.6259  0.7148
  978TIP3   OH224424   5.436   0.030   1.487 -0.1355  0.1264  0.5498
  978TIP3    H124425   5.354   0.064   1.524 -0.9273 -0.9981 -0.0781
  978TIP3    H224426   5.434   0.059   1.396 -0.6773 -1.2454  0.0850
  979TIP3   OH224427   4.994   3.078   0.287 -0.1139 -0.0444  0.1403
  979TIP3    H124428   5.087   3.060   0.306 -0.1761 -0.7044 -0.1577
  979TIP3    H224429   4.957   2.992   0.267 -0.7205  0.2615 -0.0581
  980TIP3   OH224430   6.385   4.756   3.304  0.0593  0.0584 -0.0385
  980TIP3    H124431   6.342   4.764   3.219 -0.1282  0.5167  0.0947
  980TIP3    H224432   6.478   4.770   3.286  0.2842 -1.7166 -0.4519
  981TIP3   OH224433   5.955   4.194  13.489  0.3818 -0.2843  0.6420
  981TIP3    H124434   5.949   4.108  13.448 -0.3922 -0.1277  0.4061
  981TIP3    H224435   5.975   4.176  13.581 -0.4573 -0.7564  0.7428
  982TIP3   OH224436   5.172   5.392  12.664  0.1057 -0.3443  0.0839
  982TIP3    H124437   5.147   5.349  12.746 -0.4897 -1.3240 -0.5992
  982TIP3    H224438   5.091   5.397  12.614  0.1554  1.6035  0.1319
  983TIP3   OH224439   3.398   0.718  16.895 -0.2031  0.1616  0.3458
  983TIP3    H124440   3.344   0.795  16.874 -1.9611 -1.0047  0.3833
  983TIP3    H224441   3.475   0.754  16.940 -0.5837  1.9526 -0.3585
  984TIP3   OH224442   2.864   1.652   5.383 -0.0052  0.7975 -0.0923
  984TIP3    H124443   2.957   1.670   5.376  0.1657  0.7177  1.5770
  984TIP3    H224444   2.856   1.592   5.457 -1.2542 -0.3359 -1.0925
  985TIP3   OH224445   6.285   0.394  16.415 -0.4246 -0.0571  0.7417
  985TIP3    H124446   6.331   0.434  16.341 -2.0157  1.3062  0.4421
  985TIP3    H224447   6.334   0.422  16.492 -0.5181  1.0670  0.4096
  986TIP3   OH224448   4.495   1.020   2.785  0.2717 -0.5351 -0.6171
  986TIP3    H124449   4.426   1.039   2.720  0.6639  0.6321 -0.7134
  986TIP3    H224450   4.553   1.096   2.781  2.1619 -1.9450 -1.2810
  987TIP3   OH224451   5.139   1.887   0.146 -0.1645 -0.3297 -0.6865
  987TIP3    H124452   5.072   1.840   0.197 -1.0342  1.2537 -0.3145
  987TIP3    H224453   5.222   1.849   0.175 -0.7261 -0.3724  0.9767
  988TIP3   OH224454   2.440   2.121   4.378  0.2780 -0.4916  0.0563
  988TIP3    H124455   2.369   2.141   4.440  1.1635 -0.8221  1.2129
  988TIP3    H224456   2.412   2.162   4.296 -0.3186  1.1099  1.0099
  989TIP3   OH224457   2.748   6.093   5.983 -0.1247 -0.6691 -0.6996
  989TIP3    H124458   2.748   6.130   6.071 -2.0235 -1.7137 -0.1987
  989TIP3    H224459   2.770   6.001   5.997  0.8983 -0.5627 -1.5007
  990TIP3   OH224460   0.628   3.560   3.328  0.1852 -0.2531 -0.0671
  990TIP3    H124461   0.700   3.581   3.269  0.6545 -3.0148 -0.6394
  990TIP3    H224462   0.549   3.565   3.274  0.1884  0.5396 -0.0144
  991TIP3   OH224463   0.179   4.510  15.464  0.0937  0.6162  0.2722
  991TIP3    H124464   0.193   4.604  15.481 -2.2125  0.6851  2.5399
  991TIP3    H224465   0.103   4.508  15.406 -0.4776  0.1850  1.0140
  992TIP3   OH224466   2.212   1.517   2.491 -0.7197 -0.3530  0.2165
  992TIP3    H124467   2.172   1.533   2.577 -1.8850 -0.4641 -0.2974
  992TIP3    H224468   2.306   1.533   2.506 -0.9521  0.0351  1.4078
  993TIP3   OH224469   2.778   2.333   0.211  0.0453  0.0292  0.0922
  993TIP3    H124470   2.727   2.279   0.150  0.0245  0.3950 -0.2162
  993TIP3    H224471   2.836   2.384   0.156  1.0257 -0.6518  0.4653
  994TIP3   OH224472   1.732   5.324   0.268  0.0159  0.0985  0.5232
  994TIP3    H124473   1.685   5.299   0.188 -1.4861  0.0843  1.3746
  994TIP3    H224474   1.711   5.255   0.331  1.2881  0.0409  0.9125
  995TIP3   OH224475   2.849   1.312  11.278  0.1077 -0.3248  0.6169
  995TIP3    H124476   2.759   1.282  11.288  0.8628 -2.6085  1.1218
  995TIP3    H224477   2.880   1.268  11.198  1.2759 -0.9993  1.4073
  996TIP3   OH224478   3.657   4.162   5.174  0.2397 -0.1078 -0.1527
  996TIP3    H124479   3.661   4.188   5.082  0.7264 -1.6128 -0.5903
  996TIP3    H224480   3.683   4.069   5.174  0.5316 -0.0617  1.5326
  997TIP3   OH224481   5.387   4.091  16.076 -0.9407  0.1105 -0.5483
  997TIP3    H124482   5.450   4.162  16.087 -0.3895 -0.6847  2.0839
  997TIP3    H224483   5.431   4.028  16.019  0.3003  0.0076  0.4859
  998TIP3   OH224484   0.967   3.420   2.792 -0.3384 -0.2328 -0.4669
  998TIP3    H124485   0.876   3.429   2.764 -0.9183 -1.5349  0.8587
  998TIP3    H224486   0.999   3.510   2.797 -2.3820  0.4758  1.5937
  999TIP3   OH224487   3.370   3.451   4.106 -0.2344  0.6055  0.2863
  999TIP3    H124488   3.453   3.466   4.150 -0.5941  1.3588  0.7217
  999TIP3    H224489   3.390   3.459   4.013  0.3208  0.0422  0.3501
 1000TIP3   OH224490   2.101   1.686   4.994  0.0461 -0.1690 -0.3161
 1000TIP3    H124491   2.061   1.677   5.080 -2.6395 -0.0137 -1.4433
 1000TIP3    H224492   2.098   1.598   4.956  2.9195 -0.6555  0.3273
 1001TIP3   OH224493   1.224   5.397   2.924 -0.0340  0.1864 -0.0766
 1001TIP3    H124494   1.190   5.440   2.846  1.3551 -0.9037 -1.3218
 1001TIP3    H224495   1.316   5.379   2.904 -0.4887 -3.2814  0.3575
 1002TIP3   OH224496   0.819   0.238   4.701  0.9315  0.2223  0.3409
 1002TIP3    H124497   0.833   0.330   4.725  0.6034  0.8457 -1.7081
 1002TIP3    H224498   0.843   0.232   4.609 -0.1491 -1.4910  0.1104
 1003TIP3   OH224499   1.512   2.914   5.697  0.0069  0.2241 -0.3565
 1003TIP3    H124500   1.451   2.933   5.626 -1.2018 -0.6158  0.4235
 1003TIP3    H224501   1.559   2.996   5.711 -2.7505  1.7487  0.7326
 1004TIP3   OH224502   2.636   4.617   5.115  0.9147 -0.3669 -0.4050
 1004TIP3    H124503   2.630   4.646   5.205  0.3809 -0.0491 -0.5369
 1004TIP3    H224504   2.685   4.686   5.070  0.7161 -0.2653 -0.4662
 1005TIP3   OH224505   0.593   3.937   5.680 -0.0335  0.1261  0.5499
 1005TIP3    H124506   0.569   3.909   5.769  0.8905 -1.0158  0.4512
 1005TIP3    H224507   0.686   3.916   5.672 -0.4687 -1.3180 -1.2587
 1006TIP3   OH224508   3.309   1.721  13.209 -0.0037  0.6164 -0.3550
 1006TIP3    H124509   3.313   1.796  13.150  1.1042  0.0251 -1.0552
 1006TIP3    H224510   3.336   1.646  13.156  1.8172  0.1935  1.0757
 1007TIP3   OH224511   3.186   5.846  12.214  0.3807  0.4235 -0.3962
 1007TIP3    H124512   3.200   5.762  12.171  0.3086  1.1969 -2.0290
 1007TIP3    H224513   3.090   5.854  12.219  0.3725 -0.4141  1.5388
 1008TIP3   OH224514   3.902   5.527  15.334 -0.0965  0.3285 -0.0386
 1008TIP3    H124515   3.937   5.439  15.350 -2.4842 -1.1713 -2.3131
 1008TIP3    H224516   3.810   5.521  15.357 -1.1755  1.0603 -3.5399
 1009TIP3   OH224517   5.050   2.470  15.415  0.4681 -0.1431  0.0277
 1009TIP3    H124518   5.136   2.441  15.385 -0.3210 -1.4026 -1.1465
 1009TIP3    H224519   4.999   2.483  15.335 -0.8699 -0.8648  0.7230
 1010TIP3   OH224520   1.662   5.857   3.900  0.2500 -0.2584  1.1625
 1010TIP3    H124521   1.641   5.864   3.807  1.0869 -1.7333  0.8310
 1010TIP3    H224522   1.583   5.886   3.945 -0.1446  0.5226  0.0008
 1011TIP3   OH224523   1.054   0.745   4.232 -0.4259  0.7303  0.0183
 1011TIP3    H124524   1.043   0.711   4.320  3.3510 -0.9173  0.0233
 1011TIP3    H224525   1.049   0.840   4.242  2.1331  0.7399  2.5383
 1012TIP3   OH224526   5.160   2.330  14.149 -0.4575 -0.5012  0.0652
 1012TIP3    H124527   5.255   2.340  14.144 -0.6909  2.1794 -0.8839
 1012TIP3    H224528   5.133   2.308  14.060 -0.7142 -1.7762  0.4404
 1013TIP3   OH224529   4.476   6.731  15.191 -0.4650 -0.8457  0.4793
 1013TIP3    H124530   4.520   6.770  15.115 -1.3394  1.3516  0.9928
 1013TIP3    H224531   4.531   6.754  15.266 -1.6921  0.7614  0.9599
 1014TIP3   OH224532   5.462   6.688   6.963  0.2333  0.2880  0.4593
 1014TIP3    H124533   5.385   6.691   7.020 -0.9392  0.1756 -1.0472
 1014TIP3    H224534   5.504   6.604   6.985  0.3515  0.6711  1.7901
 1015TIP3   OH224535   2.979   5.088   6.536  0.5924 -0.1768 -0.5503
 1015TIP3    H124536   2.977   4.994   6.519  0.7108 -0.3534  0.3639
 1015TIP3    H224537   2.889   5.117   6.524  0.4053 -0.5520 -0.0609
 1016TIP3   OH224538   6.571   2.538   0.713  0.0747  0.6152 -0.2150
 1016TIP3    H124539   6.598   2.501   0.797 -2.1859 -0.0568  0.2909
 1016TIP3    H224540   6.478   2.515   0.706 -0.1769  2.0177 -2.1877
 1017TIP3   OH224541   2.025   4.826   3.751  0.2185 -0.6092  0.2144
 1017TIP3    H124542   2.114   4.793   3.761  0.4715  0.4329  1.8345
 1017TIP3    H224543   2.017   4.893   3.820 -2.2872 -1.7205  1.1162
 1018TIP3   OH224544   5.793   4.505  11.964 -0.1310  0.2707 -0.1748
 1018TIP3    H124545   5.817   4.588  12.004  1.2544 -0.1687 -0.0585
 1018TIP3    H224546   5.874   4.471  11.927 -0.3911 -1.6259  0.8549
 1019TIP3   OH224547   0.382   3.751   2.267 -0.5502  0.1859  0.2010
 1019TIP3    H124548   0.450   3.806   2.306 -0.5790  0.6222 -0.3383
 1019TIP3    H224549   0.421   3.719   2.185 -1.0890  0.6813 -0.2584
 1020TIP3   OH224550   4.191   3.153   2.108  0.5955 -0.3348  0.2028
 1020TIP3    H124551   4.195   3.060   2.131 -0.1631  0.2199  2.9856
 1020TIP3    H224552   4.101   3.178   2.127  0.8880  1.0489 -0.1475
 1021TIP3   OH224553   5.866   6.439  17.025 -0.2910 -0.4481 -0.5175
 1021TIP3    H124554   5.779   6.457  17.061 -0.3348  0.5977 -1.1099
 1021TIP3    H224555   5.851   6.373  16.957 -0.9587  1.1676 -2.0221
 1022TIP3   OH224556   0.642   0.401  13.555  0.2927 -0.0862 -0.1032
 1022TIP3    H124557   0.548   0.400  13.575 -0.0740 -1.5567 -1.6532
 1022TIP3    H224558   0.650   0.346  13.477  2.2805  1.0747 -0.7887
 1023TIP3   OH224559   4.581   2.363   4.473 -0.6589  0.2041 -0.3466
 1023TIP3    H124560   4.544   2.317   4.398 -1.0366  2.3901 -1.5683
 1023TIP3    H224561   4.513   2.423   4.501  0.8947  2.3426 -0.8961
 1024TIP3   OH224562   5.559   2.157   1.281 -0.0747 -0.0208  0.5411
 1024TIP3    H124563   5.546   2.163   1.186 -2.8704 -2.3473  0.6223
 1024TIP3    H224564   5.653   2.144   1.291  0.3008  0.2078 -1.9208
 1025TIP3   OH224565   5.736   3.054   0.658 -0.3056  0.1542 -0.0685
 1025TIP3    H124566   5.804   3.006   0.611 -0.0857  1.2696 -0.9468
 1025TIP3    H224567   5.771   3.142   0.668 -0.9587  0.3233  0.9355
 1026TIP3   OH224568   5.683   2.371   0.274 -0.0667 -0.2331 -0.5044
 1026TIP3    H124569   5.776   2.394   0.273 -0.5080  1.8221  0.4614
 1026TIP3    H224570   5.663   2.347   0.184  1.2675 -0.1499 -0.8406
 1027TIP3   OH224571   0.631   0.811   5.318  0.1554  0.4963 -0.3593
 1027TIP3    H124572   0.613   0.723   5.286  1.1708 -0.1036  0.6540
 1027TIP3    H224573   0.662   0.859   5.240  2.0697 -0.7747 -0.4448
 1028TIP3   OH224574   0.939   0.271   1.376  0.5318  0.1005  0.1753
 1028TIP3    H124575   0.865   0.318   1.337 -0.3908 -3.0454 -2.3055
 1028TIP3    H224576   0.898   0.204   1.431  1.6891  0.1540  1.1418
 1029TIP3   OH224577   5.261   1.159   3.263  0.0298 -0.1318 -0.5762
 1029TIP3    H124578   5.249   1.189   3.173 -1.3382 -0.6256 -0.5838
 1029TIP3    H224579   5.253   1.238   3.316 -1.8538 -0.1678 -0.7203
 1030TIP3   OH224580   5.067   1.199   6.377  0.5718  0.9976  0.0084
 1030TIP3    H124581   5.154   1.176   6.344 -0.5733  0.0137 -2.6598
 1030TIP3    H224582   5.041   1.124   6.431  0.2151 -0.2105 -1.7476
 1031TIP3   OH224583   0.169   5.581   4.722  0.4018  0.2529  0.2210
 1031TIP3    H124584   0.196   5.573   4.813 -1.0104  0.6809  0.7128
 1031TIP3    H224585   0.089   5.530   4.716  0.4787  0.2236 -0.7882
 1032TIP3   OH224586   0.831   3.305   5.329 -0.3543  0.4489  0.1522
 1032TIP3    H124587   0.796   3.388   5.361  1.3796  0.8556  1.0867
 1032TIP3    H224588   0.925   3.319   5.322 -0.4078  0.1875 -4.5184
 1033TIP3   OH224589   1.522   2.404  13.346  0.2135  0.2802  0.1923
 1033TIP3    H124590   1.569   2.484  13.369  0.3154 -0.0814  1.2677
 1033TIP3    H224591   1.563   2.336  13.398 -1.0353 -0.1677  0.6233
 1034TIP3   OH224592   1.210   4.762  14.441  0.2715  0.1656  0.5187
 1034TIP3    H124593   1.292   4.712  14.437 -0.3021 -0.7609 -2.6272
 1034TIP3    H224594   1.238   4.853  14.429  0.9332  0.0088  0.7922
 1035TIP3   OH224595   3.262   2.001  15.132 -0.0243  0.7905 -0.0543
 1035TIP3    H124596   3.337   1.998  15.191  0.5861  0.4668 -0.8287
 1035TIP3    H224597   3.278   2.076  15.075  0.9847 -0.6675 -1.8235
 1036TIP3   OH224598   3.553   1.319  14.421  0.0989  0.1898 -1.0758
 1036TIP3    H124599   3.507   1.263  14.358 -1.8501 -0.1181  0.5432
 1036TIP3    H224600   3.558   1.266  14.500  0.9079  1.2369 -0.4149
 1037TIP3   OH224601   6.456   4.186   3.242 -0.1445 -0.3309 -0.2146
 1037TIP3    H124602   6.408   4.266   3.264 -0.1764 -0.5477  0.5481
 1037TIP3    H224603   6.530   4.216   3.188 -0.9692  0.0351 -1.1592
 1038TIP3   OH224604   0.423   2.146   0.921  0.0419 -0.5808  0.3006
 1038TIP3    H124605   0.445   2.168   0.830  0.6496 -0.7257  0.4131
 1038TIP3    H224606   0.328   2.132   0.919 -0.2763  1.3435  0.0742
 1039TIP3   OH224607   5.947   2.235  10.998 -0.0640  0.2116 -0.3167
 1039TIP3    H124608   5.996   2.154  11.016  0.0597  0.4973  0.6667
 1039TIP3    H224609   6.004   2.305  11.029  0.4458  0.8020 -2.4086
 1040TIP3   OH224610   0.654   3.536   5.441  0.7007  0.0440 -0.1547
 1040TIP3    H124611   0.594   3.599   5.483  0.5159 -0.4493  0.3336
 1040TIP3    H224612   0.603   3.497   5.371 -0.1053 -1.5317  1.2548
 1041TIP3   OH224613   4.294   1.561  11.623 -0.2622  0.4474  0.0367
 1041TIP3    H124614   4.255   1.591  11.540  0.4927  0.2818 -0.3861
 1041TIP3    H224615   4.373   1.514  11.596 -0.8859 -1.0387  0.7528
 1042TIP3   OH224616   6.065   2.511   3.988  0.2648  0.0180 -0.1371
 1042TIP3    H124617   6.058   2.586   3.929  3.0679 -1.1328 -2.2045
 1042TIP3    H224618   6.156   2.514   4.019  0.0232 -1.7192  0.8769
 1043TIP3   OH224619   6.134   3.617   0.398 -0.9167 -0.3191  0.2311
 1043TIP3    H124620   6.160   3.561   0.471 -0.5958 -1.6965 -0.9011
 1043TIP3    H224621   6.214   3.662   0.371 -0.6162 -1.2033 -0.4138
 1044TIP3   OH224622   3.037   4.494  14.816 -0.5756  0.3105  0.7520
 1044TIP3    H124623   3.123   4.536  14.826  0.0632 -1.0141  0.9841
 1044TIP3    H224624   3.057   4.407  14.782 -1.9173  0.3816 -0.2748
 1045TIP3   OH224625   0.546   3.404   0.156  0.4419  0.0584 -0.2422
 1045TIP3    H124626   0.588   3.465   0.096  0.9387 -0.5738 -0.5504
 1045TIP3    H224627   0.543   3.321   0.108  1.4390 -0.6264  0.8266
 1046TIP3   OH224628   0.550   5.645   5.005  0.2645 -0.0381  0.2853
 1046TIP3    H124629   0.474   5.592   5.026  0.4812 -0.6100 -0.3493
 1046TIP3    H224630   0.623   5.583   5.001  0.5111  0.2817 -0.4982
 1047TIP3   OH224631   3.640   4.457   6.762  0.0492 -0.2758 -0.2470
 1047TIP3    H124632   3.665   4.380   6.811 -1.3114  0.1107  1.1432
 1047TIP3    H224633   3.694   4.528   6.796  1.3298 -0.5779 -1.5534
 1048TIP3   OH224634   5.888   6.733   4.452 -0.4190 -0.0021 -0.0406
 1048TIP3    H124635   5.914   6.736   4.544 -0.3601  0.5185 -0.0729
 1048TIP3    H224636   5.929   6.654   4.418  0.4471  0.3779  0.1139
 1049TIP3   OH224637   5.647   4.129  15.066  0.4875 -0.1294 -0.5656
 1049TIP3    H124638   5.708   4.203  15.068  0.4367 -0.0561 -1.4669
 1049TIP3    H224639   5.605   4.135  14.981  1.1430 -1.7223 -1.0332
 1050TIP3   OH224640   3.856   4.308   3.312  0.7619  0.9918  0.4470
 1050TIP3    H124641   3.794   4.248   3.353 -0.2929  1.3185 -0.5877
 1050TIP3    H224642   3.942   4.270   3.327  0.1327 -0.6971 -0.0399
 1051TIP3   OH224643   1.877   0.874   3.869  0.1251  0.1356 -0.1336
 1051TIP3    H124644   1.895   0.960   3.906 -0.7010 -0.1023  0.8700
 1051TIP3    H224645   1.788   0.881   3.833 -0.3806 -0.5889  0.9188
 1052TIP3   OH224646   1.879   0.181  15.869  0.0056  0.5392 -0.0198
 1052TIP3    H124647   1.793   0.140  15.880  0.3545 -0.6416 -1.3123
 1052TIP3    H224648   1.941   0.109  15.882  0.6390  0.5165 -2.5962
 1053TIP3   OH224649   5.990   6.157  11.887 -0.1744 -0.0435  0.1422
 1053TIP3    H124650   5.969   6.127  11.798  1.9340 -1.7744  0.1442
 1053TIP3    H224651   6.084   6.169  11.887 -0.1730  0.2487  2.0658
 1054TIP3   OH224652   3.148   2.997  12.866 -0.2735  0.3445 -0.3320
 1054TIP3    H124653   3.148   2.943  12.945  3.6624 -1.1717 -1.1984
 1054TIP3    H224654   3.218   3.061  12.880 -0.8169  1.3328 -1.8312
 1055TIP3   OH224655   5.459   3.256   6.145  0.3607 -0.0471  0.1385
 1055TIP3    H124656   5.433   3.326   6.204 -2.8261 -0.9049 -0.0821
 1055TIP3    H224657   5.451   3.294   6.057  0.5794 -0.1196  0.0853
 1056TIP3   OH224658   4.805   2.974   2.434 -0.4558  0.3390  0.0762
 1056TIP3    H124659   4.831   3.007   2.520 -0.6609  0.6929  0.0065
 1056TIP3    H224660   4.794   3.053   2.380  1.6513  0.0455 -0.8600
 1057TIP3   OH224661   5.919   5.457  13.070 -0.1612 -0.3270  0.4944
 1057TIP3    H124662   6.007   5.429  13.097  0.3875 -0.0869 -0.9482
 1057TIP3    H224663   5.894   5.522  13.135  1.0644  0.1652  0.5118
 1058TIP3   OH224664   4.014   2.210  17.398 -0.2926  0.2013  0.1562
 1058TIP3    H124665   3.922   2.202  17.371 -0.3694  1.1917  0.0632
 1058TIP3    H224666   4.031   2.304  17.394  0.3275  0.1643  1.4775
 1059TIP3   OH224667   0.793   6.051   0.209  0.0759  0.0421  0.4523
 1059TIP3    H124668   0.831   6.139   0.201 -0.5852  0.3252  0.3811
 1059TIP3    H224669   0.845   5.998   0.149 -0.5965  0.7571 -0.8270
 1060TIP3   OH224670   4.841   4.937  17.377 -0.8306 -0.0781  0.0479
 1060TIP3    H124671   4.781   4.998  17.418  1.9928  3.7636 -0.9756
 1060TIP3    H224672   4.814   4.933  17.285 -0.1856  0.9082 -0.2049
 1061TIP3   OH224673   6.579   5.518   1.736 -0.0555 -0.1372 -0.7648
 1061TIP3    H124674   6.607   5.484   1.651  0.9788 -0.0008 -0.4904
 1061TIP3    H224675   6.523   5.593   1.713  1.4441  0.8635 -1.3479
 1062TIP3   OH224676   5.781   2.683  17.197 -0.2030  0.0475  0.4060
 1062TIP3    H124677   5.711   2.696  17.262  0.4946  0.3932  1.0983
 1062TIP3    H224678   5.858   2.661  17.249  0.1299 -0.6949 -0.3826
 1063TIP3   OH224679   0.594   3.442  15.328  0.4053  0.7548  0.4177
 1063TIP3    H124680   0.665   3.382  15.353 -0.8908 -0.8406  0.4070
 1063TIP3    H224681   0.584   3.430  15.234  0.0013  0.8775  0.4458
 1064TIP3   OH224682   0.751   1.031  17.509 -0.1795  0.0058 -0.2505
 1064TIP3    H124683   0.756   1.076  17.594  1.1153 -0.0157 -0.2981
 1064TIP3    H224684   0.754   0.938  17.532 -1.6339 -0.0545 -0.2277
 1065TIP3   OH224685   5.277   2.264  17.318  0.6888 -0.0242  0.3195
 1065TIP3    H124686   5.212   2.260  17.388  0.6089  1.6991  0.3822
 1065TIP3    H224687   5.328   2.183  17.327 -0.7655 -0.9081  0.9178
 1066TIP3   OH224688   4.363   0.476   3.331 -0.6191  0.4717 -0.9129
 1066TIP3    H124689   4.297   0.436   3.275 -3.0646  0.0738  2.0255
 1066TIP3    H224690   4.405   0.541   3.274 -3.4303  0.6852 -2.9974
 1067TIP3   OH224691   1.155   1.916   5.333  0.1496  0.3643 -0.0804
 1067TIP3    H124692   1.106   1.868   5.401  1.8470 -0.4887  0.5989
 1067TIP3    H224693   1.088   1.967   5.287 -1.6237 -1.9208 -0.2254
 1068TIP3   OH224694   0.870   2.613  15.173 -0.0778  0.5649  0.5644
 1068TIP3    H124695   0.930   2.613  15.099 -0.7572  0.8559 -0.0084
 1068TIP3    H224696   0.905   2.547  15.233 -0.1002 -0.4625 -0.5124
 1069TIP3   OH224697   0.443   6.716   0.371 -0.0774 -0.5265  0.4617
 1069TIP3    H124698   0.442   6.789   0.432  2.5370  0.6815 -0.7886
 1069TIP3    H224699   0.426   6.639   0.425 -1.1928  0.7855  2.0895
 1070TIP3   OH224700   3.782   6.383   3.682  0.2983 -0.2067  0.4967
 1070TIP3    H124701   3.797   6.471   3.717  1.7325 -0.9375  1.8012
 1070TIP3    H224702   3.737   6.336   3.752 -2.1813 -0.0458 -0.8722
 1071TIP3   OH224703   5.836   6.590   1.445 -0.2379 -0.3171 -0.6061
 1071TIP3    H124704   5.831   6.504   1.404  1.3783 -0.2530 -1.0176
 1071TIP3    H224705   5.874   6.646   1.377 -0.2633  0.4690  0.0170
 1072TIP3   OH224706   5.130   5.369   1.058  0.3933 -0.0739  0.0862
 1072TIP3    H124707   5.204   5.316   1.087  0.1329 -0.6920 -0.3483
 1072TIP3    H224708   5.154   5.400   0.971  1.0557  1.5463  0.8157
 1073TIP3   OH224709   5.391   3.469   4.866 -0.5934  0.0800  0.2889
 1073TIP3    H124710   5.315   3.429   4.907  0.4605 -1.7473  0.5725
 1073TIP3    H224711   5.446   3.395   4.839  1.3946  1.3124  0.7106
 1074TIP3   OH224712   0.071   2.906  11.513  0.0768 -0.2509  0.4802
 1074TIP3    H124713   0.077   2.816  11.481 -0.4783 -0.3065  0.5183
 1074TIP3    H224714   0.145   2.952  11.472  0.6296 -0.8278  0.8208
 1075TIP3   OH224715   0.232   1.560  16.397 -0.2355  0.0396 -0.0041
 1075TIP3    H124716   0.151   1.529  16.355 -0.6630  0.0651  0.7862
 1075TIP3    H224717   0.270   1.620  16.333 -1.1799  0.5228 -0.1412
 1076TIP3   OH224718   6.290   1.904   1.773  0.0804  0.4329  0.8266
 1076TIP3    H124719   6.294   1.965   1.699 -0.1746 -0.9418 -0.3765
 1076TIP3    H224720   6.197   1.897   1.794  0.1110  0.4955  0.9830
 1077TIP3   OH224721   1.652   6.746   3.458  0.4427  0.8010  0.0727
 1077TIP3    H124722   1.575   6.777   3.410  0.0554 -0.6360 -0.2819
 1077TIP3    H224723   1.631   6.656   3.482  0.8163  1.2956  2.5622
 1078TIP3   OH224724   4.880   6.633   1.598  0.6079  1.0372  0.5888
 1078TIP3    H124725   4.904   6.602   1.686  0.9612 -1.2891 -0.2408
 1078TIP3    H224726   4.963   6.640   1.552  0.2746 -1.3228 -0.5607
 1079TIP3   OH224727   4.231   2.032   5.465  0.8362 -0.3918  0.6356
 1079TIP3    H124728   4.179   1.953   5.448  1.4800 -0.6305 -0.2613
 1079TIP3    H224729   4.321   2.006   5.447  1.1786  0.2667  1.3469
 1080TIP3   OH224730   1.567   0.246  14.530  0.1437 -0.1946 -0.6137
 1080TIP3    H124731   1.656   0.229  14.498  0.7448  1.8235 -0.1642
 1080TIP3    H224732   1.535   0.317  14.474 -0.2479  0.7356  0.7429
 1081TIP3   OH224733   6.699   4.083  14.143  0.1967 -0.0089  0.0814
 1081TIP3    H124734   6.662   4.019  14.082 -0.4661 -0.9467  1.4123
 1081TIP3    H224735   6.738   4.030  14.212 -0.2026  1.0180  1.1289
 1082TIP3   OH224736   4.057   3.103   3.141 -0.0641 -0.3671 -0.1188
 1082TIP3    H124737   4.135   3.085   3.088  1.5263  0.2093  1.9154
 1082TIP3    H224738   4.065   3.046   3.217 -1.0554  0.5067  0.6743
 1083TIP3   OH224739   5.245   0.512   3.225  0.2544 -0.1683 -0.2495
 1083TIP3    H124740   5.216   0.573   3.292 -1.5092  1.6786 -2.5025
 1083TIP3    H224741   5.233   0.425   3.264  0.3836  0.8154  2.1504
 1084TIP3   OH224742   4.099   1.602   0.505  0.1281 -0.4161 -0.2006
 1084TIP3    H124743   4.131   1.537   0.568  1.9052 -0.1309 -0.7536
 1084TIP3    H224744   4.136   1.575   0.421  2.9740  2.5274 -0.0870
 1085TIP3   OH224745   4.692   0.769   6.146 -0.5779 -0.1730 -0.6778
 1085TIP3    H124746   4.721   0.817   6.223 -0.2033 -1.7342  0.1999
 1085TIP3    H224747   4.773   0.749   6.099 -0.7419  0.1195 -1.0963
 1086TIP3   OH224748   3.646   2.614  14.025  0.1089 -0.5646  0.3082
 1086TIP3    H124749   3.619   2.582  13.939 -0.4154 -0.8056  0.5597
 1086TIP3    H224750   3.735   2.579  14.037  1.1514  1.3869 -1.1120
 1087TIP3   OH224751   1.931   5.536  16.255  0.0547  0.0295 -0.6279
 1087TIP3    H124752   1.955   5.596  16.184  1.5494  0.7863  0.4612
 1087TIP3    H224753   1.990   5.558  16.326 -1.7599 -0.3315  1.0849
 1088TIP3   OH224754   1.454   1.542   5.105 -0.0387 -0.2418 -0.0724
 1088TIP3    H124755   1.425   1.618   5.156  0.3652 -0.1199 -0.0232
 1088TIP3    H224756   1.483   1.479   5.171  0.7105  0.0083 -0.1585
 1089TIP3   OH224757   4.240   3.913  15.974  0.3348 -0.2955 -0.2636
 1089TIP3    H124758   4.216   3.839  16.030  2.6699 -0.1486  1.0649
 1089TIP3    H224759   4.228   3.990  16.029  1.1308 -0.0074 -0.4790
 1090TIP3   OH224760   0.310   3.947   3.116 -0.2137 -0.1565 -0.4264
 1090TIP3    H124761   0.217   3.933   3.099 -0.5065  1.8186 -0.7449
 1090TIP3    H224762   0.350   3.947   3.029 -0.9300  4.8237 -1.0908
 1091TIP3   OH224763   1.800   5.982  11.954  0.0191  0.7328 -0.0337
 1091TIP3    H124764   1.867   5.974  11.886  1.7360 -1.2932  1.7690
 1091TIP3    H224765   1.828   6.057  12.007  1.5274 -0.7162  1.3095
 1092TIP3   OH224766   4.622   0.045   0.619 -0.2686 -0.1124  0.0880
 1092TIP3    H124767   4.585   0.107   0.556 -0.2718  0.1369  0.3312
 1092TIP3    H224768   4.556   0.037   0.687 -1.1077 -1.8519 -0.8544
 1093TIP3   OH224769   3.860   0.473  16.148  0.8783 -0.0401 -0.8215
 1093TIP3    H124770   3.818   0.388  16.144 -0.5464  0.6739 -3.2717
 1093TIP3    H224771   3.794   0.531  16.186  0.7828  0.4810 -1.7494
 1094TIP3   OH224772   5.072   0.437  17.345  0.2809  0.0186 -0.0328
 1094TIP3    H124773   5.039   0.376  17.279 -1.4343  1.3496 -0.4829
 1094TIP3    H224774   5.019   0.419  17.423 -1.5383  2.0632 -0.7081
 1095TIP3   OH224775   5.305   0.469  11.719 -0.4100  0.0354 -0.1077
 1095TIP3    H124776   5.283   0.518  11.798 -0.6344 -1.0688  0.5363
 1095TIP3    H224777   5.336   0.535  11.657  0.1157  0.8683  1.0195
 1096TIP3   OH224778   5.147   5.759  16.687  0.2084  0.4070 -0.1247
 1096TIP3    H124779   5.224   5.759  16.630  1.6107  1.2183  1.6917
 1096TIP3    H224780   5.120   5.851  16.691 -1.3038  0.0527 -1.2527
 1097TIP3   OH224781   3.069   4.606   1.103  0.0680 -0.0088 -0.1441
 1097TIP3    H124782   3.142   4.554   1.137 -0.1770 -0.5401 -0.4301
 1097TIP3    H224783   3.038   4.656   1.179 -1.3143 -2.1577  0.8016
 1098TIP3   OH224784   2.205   3.837  13.561  0.0864  0.0714 -0.0252
 1098TIP3    H124785   2.291   3.871  13.537  0.1600  0.6271  0.9811
 1098TIP3    H224786   2.215   3.741  13.556  0.5076  0.1447 -0.7275
 1099TIP3   OH224787   1.499   3.551   1.447  0.0159  0.0190 -0.4427
 1099TIP3    H124788   1.490   3.526   1.540 -0.1432  0.3649 -0.3642
 1099TIP3    H224789   1.410   3.545   1.412  0.1018 -0.2720 -0.6174
 1100TIP3   OH224790   0.323   0.022   1.524  0.4699 -0.0346 -0.6273
 1100TIP3    H124791   0.243   0.061   1.558  0.6810  0.7979 -1.0724
 1100TIP3    H224792   0.311  -0.072   1.537 -0.5013  0.0972 -0.5309
 1101TIP3   OH224793   2.772   6.572   2.581  0.0377  0.3362  0.1598
 1101TIP3    H124794   2.711   6.544   2.513 -0.4122  0.5864  0.4552
 1101TIP3    H224795   2.717   6.612   2.648  0.7540  3.2198 -0.8493
 1102TIP3   OH224796   1.193   1.282   3.648 -0.2296  0.4997  0.2608
 1102TIP3    H124797   1.175   1.277   3.742  1.4955  1.4604  0.6962
 1102TIP3    H224798   1.289   1.291   3.643 -0.2965  0.5223 -1.5940
 1103TIP3   OH224799   6.354   5.663  15.712 -0.1372  0.1933 -0.3673
 1103TIP3    H124800   6.391   5.664  15.801  0.5085  0.2292 -0.6330
 1103TIP3    H224801   6.304   5.582  15.708 -0.0471  0.1199 -0.0172
 1104TIP3   OH224802   5.880   5.386   0.519 -0.0349  0.2166  0.2876
 1104TIP3    H124803   5.893   5.295   0.546  0.1268  0.5904  1.5825
 1104TIP3    H224804   5.968   5.423   0.521 -0.0901  0.3890 -0.3182
 1105TIP3   OH224805   4.389   2.269   4.096  0.1580  0.2810 -0.3080
 1105TIP3    H124806   4.420   2.339   4.154  1.2344  0.0031 -0.5147
 1105TIP3    H224807   4.467   2.243   4.047 -0.5243 -0.1417 -1.2046
 1106TIP3   OH224808   0.376   0.544  16.978  0.1691 -0.5451 -0.1830
 1106TIP3    H124809   0.348   0.546  17.069  0.3204 -2.6899 -0.0573
 1106TIP3    H224810   0.472   0.538  16.982  0.1420 -1.2829 -0.4460
 1107TIP3   OH224811   5.567   1.952  13.745 -0.0083  0.0714  0.1826
 1107TIP3    H124812   5.507   1.930  13.816 -0.1870  1.1150  0.3658
 1107TIP3    H224813   5.605   1.868  13.720 -1.0095 -0.5151  0.5384
 1108TIP3   OH224814   2.278   1.994   3.038  0.6303  0.1856  0.3578
 1108TIP3    H124815   2.330   1.914   3.035 -0.0343 -0.2973  1.3327
 1108TIP3    H224816   2.244   1.998   3.127 -1.7935 -0.0191 -0.4831
 1109TIP3   OH224817   2.252   5.995   0.001  0.1342 -0.5715  0.5526
 1109TIP3    H124818   2.234   5.941  -0.076  0.7560 -2.3781  1.5986
 1109TIP3    H224819   2.347   6.009  -0.002  0.2018 -0.8873  1.1259
 1110TIP3   OH224820   5.267   2.172  11.082 -0.0418  0.2653  0.0470
 1110TIP3    H124821   5.335   2.129  11.133 -0.3064  0.2338  0.3776
 1110TIP3    H224822   5.313   2.241  11.034  0.5173 -0.9053 -1.1293
 1111TIP3   OH224823   5.721   3.631   2.223  0.0318 -0.1346 -0.5504
 1111TIP3    H124824   5.677   3.713   2.243  0.8749  0.1781  0.1119
 1111TIP3    H224825   5.705   3.616   2.130 -0.4497  0.5753 -0.5842
 1112TIP3   OH224826   2.632   5.803   4.161 -0.2727  0.1550  0.1261
 1112TIP3    H124827   2.585   5.758   4.231  2.4404 -2.0620  0.7427
 1112TIP3    H224828   2.591   5.772   4.080 -1.3052  0.1162  0.6520
 1113TIP3   OH224829   1.228   6.081  13.251 -0.4257 -0.1362  0.0324
 1113TIP3    H124830   1.179   6.158  13.223  1.6585  1.5584  0.8112
 1113TIP3    H224831   1.290   6.064  13.180  0.4687  0.1584  0.7232
 1114TIP3   OH224832   1.506   1.218  13.955 -0.0406  0.7606  0.0156
 1114TIP3    H124833   1.564   1.293  13.937 -0.8595  1.4614  0.2178
 1114TIP3    H224834   1.418   1.256  13.952 -0.4349 -0.0871  0.7268
 1115TIP3   OH224835   3.663   1.125  13.759  0.2471 -0.7631 -0.1740
 1115TIP3    H124836   3.623   1.061  13.818  1.1216 -0.9738  0.2051
 1115TIP3    H224837   3.630   1.209  13.788 -2.7671 -1.1544 -2.1083
 1116TIP3   OH224838   5.053   2.040   3.283 -0.0264  0.0644  0.2149
 1116TIP3    H124839   5.077   2.021   3.374  0.5543  0.3336  0.1223
 1116TIP3    H224840   5.097   2.123   3.264 -1.3828  0.8157  0.1683
 1117TIP3   OH224841   3.829   0.136  11.985  0.2473 -0.3609 -0.5282
 1117TIP3    H124842   3.737   0.122  11.962  0.6199  0.2615 -2.6075
 1117TIP3    H224843   3.831   0.133  12.081 -2.1160  0.6793 -0.3812
 1118TIP3   OH224844   2.571   5.141  11.367  0.0064  0.1209 -0.5070
 1118TIP3    H124845   2.624   5.150  11.288 -0.6454 -0.4792 -1.0268
 1118TIP3    H224846   2.625   5.089  11.426  0.3838  0.3329 -0.6626
 1119TIP3   OH224847   0.282   2.376   4.643  0.2804 -0.6183  0.8545
 1119TIP3    H124848   0.258   2.340   4.557 -1.3515 -0.3027  1.1301
 1119TIP3    H224849   0.283   2.300   4.701  1.9185 -0.9114  0.4807
 1120TIP3   OH224850   2.027   3.997  11.600  0.0483 -0.6764  0.1025
 1120TIP3    H124851   2.113   3.955  11.613 -0.1670 -1.2120 -0.1575
 1120TIP3    H224852   2.009   3.985  11.507  0.3995  0.8282 -0.1796
 1121TIP3   OH224853   6.089   5.329  12.133  0.1383 -0.0708 -0.2234
 1121TIP3    H124854   6.040   5.255  12.095 -0.4956 -0.2397  0.8870
 1121TIP3    H224855   6.138   5.291  12.206  0.9832  0.3411 -0.5613
 1122TIP3   OH224856   0.862   1.650  12.887  0.5110 -0.3821  0.9456
 1122TIP3    H124857   0.923   1.696  12.829 -0.3025  2.3487  2.0971
 1122TIP3    H224858   0.849   1.710  12.961 -4.5254 -0.1289  0.1902
 1123TIP3   OH224859   2.687   3.460   0.884  0.3466  0.6480  0.6792
 1123TIP3    H124860   2.604   3.412   0.876  0.7661  0.0259 -0.0791
 1123TIP3    H224861   2.665   3.550   0.860 -0.3220  0.7216  1.5205
 1124TIP3   OH224862   3.070   0.099   0.027 -0.3939  0.4680 -0.6368
 1124TIP3    H124863   3.039   0.076   0.114 -0.6656  0.3785 -0.7546
 1124TIP3    H224864   3.098   0.190   0.034  0.1851  0.2673 -0.2979
 1125TIP3   OH224865   1.522   2.253   4.071 -0.3446  0.1446 -0.1591
 1125TIP3    H124866   1.521   2.297   4.156 -1.7032  0.4074 -0.2764
 1125TIP3    H224867   1.436   2.273   4.033  0.4365  0.5080 -1.8439
 1126TIP3   OH224868   2.824   5.382  12.547  0.3688 -0.1913  0.5655
 1126TIP3    H124869   2.849   5.312  12.606 -1.6765 -0.7900  0.8125
 1126TIP3    H224870   2.885   5.375  12.474  2.3639 -0.0038  2.1401
 1127TIP3   OH224871   0.672   1.247  12.125 -0.6886  0.1795 -0.7163
 1127TIP3    H124872   0.589   1.231  12.080 -1.4719 -0.5678  0.8843
 1127TIP3    H224873   0.723   1.167  12.110 -0.4304  0.4571 -1.3316
 1128TIP3   OH224874   5.289   6.461  17.056 -0.0822  0.0320 -0.6342
 1128TIP3    H124875   5.246   6.507  16.984 -1.1191  0.9446  0.4987
 1128TIP3    H224876   5.322   6.531  17.113 -0.0779 -0.6408  0.2206
 1129TIP3   OH224877   4.352   0.564  14.982 -0.1605 -0.1633 -0.0936
 1129TIP3    H124878   4.360   0.582  15.076 -0.0322 -1.2372  0.1172
 1129TIP3    H224879   4.397   0.636  14.939 -4.7522  3.4535  0.3961
 1130TIP3   OH224880   4.588   2.095  15.257  0.1195  0.2728 -0.5758
 1130TIP3    H124881   4.508   2.042  15.256  1.0775 -1.4495  2.2778
 1130TIP3    H224882   4.564   2.172  15.309 -0.0702  0.5042 -0.9991
 1131TIP3   OH224883   5.881   1.245  11.423 -0.4151  0.8855 -0.0117
 1131TIP3    H124884   5.919   1.189  11.355  0.0961 -0.2340  1.1218
 1131TIP3    H224885   5.935   1.324  11.422  0.2222  0.4629 -0.2621
 1132TIP3   OH224886   3.157   3.681   2.954  0.0256  0.3445 -0.0813
 1132TIP3    H124887   3.213   3.607   2.929 -1.6878 -0.8269 -0.6076
 1132TIP3    H224888   3.206   3.725   3.024  2.2594  0.2602 -1.4780
 1133TIP3   OH224889   4.562   5.108  14.749  0.4893 -0.0552 -0.1389
 1133TIP3    H124890   4.508   5.174  14.705  0.5604 -0.8089 -1.4060
 1133TIP3    H224891   4.533   5.025  14.712  0.2028 -0.7941  1.6405
 1134TIP3   OH224892   6.757   4.703  12.513 -0.8184  0.1155  0.3708
 1134TIP3    H124893   6.710   4.674  12.591 -0.9045  0.1209  0.3213
 1134TIP3    H224894   6.722   4.790  12.495 -0.4602  0.3087  0.6022
 1135TIP3   OH224895   2.155   0.248  15.257  0.1418 -0.1498  0.3139
 1135TIP3    H124896   2.179   0.330  15.215  3.1221 -1.3240 -0.5574
 1135TIP3    H224897   2.191   0.255  15.345 -1.0800  0.0891  0.8120
 1136TIP3   OH224898   3.823   2.877  15.660  0.3455 -0.1817 -0.1871
 1136TIP3    H124899   3.905   2.921  15.641  0.4891 -0.5446 -0.4203
 1136TIP3    H224900   3.818   2.875  15.755 -0.0072  0.9694 -0.1641
 1137TIP3   OH224901   2.896   1.051   1.567  0.1446  0.0759 -0.4791
 1137TIP3    H124902   2.914   0.967   1.611  1.3333  1.0310  0.9632
 1137TIP3    H224903   2.938   1.116   1.623  1.0097  1.4652 -2.6392
 1138TIP3   OH224904   4.683   5.348  13.769  0.0322  0.1853 -0.1961
 1138TIP3    H124905   4.688   5.268  13.716 -1.6700  2.2868 -3.9318
 1138TIP3    H224906   4.745   5.408  13.727 -0.4702  1.5790  0.9872
 1139TIP3   OH224907   0.527   3.150   1.627 -0.1757  0.4744 -0.3217
 1139TIP3    H124908   0.444   3.166   1.673  0.8388  0.6275  1.5683
 1139TIP3    H224909   0.526   3.211   1.553 -1.9298  0.1529 -0.6160
 1140TIP3   OH224910   6.378   5.592  14.422 -0.3842 -0.0568 -0.4299
 1140TIP3    H124911   6.326   5.515  14.445 -0.7858  0.7931  1.7836
 1140TIP3    H224912   6.378   5.645  14.502  0.9380  1.6444 -1.4964
 1141TIP3   OH224913   2.980   4.213   5.154 -0.2297  0.6506 -0.1011
 1141TIP3    H124914   2.887   4.234   5.160 -0.6439 -0.9699 -0.3592
 1141TIP3    H224915   3.024   4.291   5.185 -1.7252  0.4499  2.8954
 1142TIP3   OH224916   3.267   4.874  12.392 -1.1296  0.3402 -0.3683
 1142TIP3    H124917   3.176   4.868  12.364 -1.4935  0.7963  0.6724
 1142TIP3    H224918   3.270   4.953  12.446 -0.0968  0.3752 -0.4533
 1143TIP3   OH224919   4.232   2.770   0.061 -0.4274 -0.1701  0.4201
 1143TIP3    H124920   4.167   2.724   0.114  0.9351 -0.9857  1.4755
 1143TIP3    H224921   4.230   2.725  -0.023 -0.9381 -0.4602  0.5819
 1144TIP3   OH224922   6.729   6.342   0.662 -0.5350 -0.5537  0.1204
 1144TIP3    H124923   6.653   6.379   0.707 -1.8973 -2.2257 -0.7149
 1144TIP3    H224924   6.702   6.336   0.570  1.3408  0.6141 -0.5727
 1145TIP3   OH224925   0.803   1.029  12.060  0.2770  0.2202 -0.8527
 1145TIP3    H124926   0.800   0.934  12.074 -0.1467  0.2873 -0.4424
 1145TIP3    H224927   0.870   1.041  11.993  0.5397 -0.3475 -0.7058
 1146TIP3   OH224928   4.996   0.329  14.893 -0.2806  0.0983 -0.3623
 1146TIP3    H124929   4.934   0.269  14.935  0.3350 -0.9939 -0.9659
 1146TIP3    H224930   5.037   0.375  14.966 -0.5115 -0.4708  0.1388
 1147TIP3   OH224931   0.835   6.269  12.141 -0.3856  0.2355  0.3844
 1147TIP3    H124932   0.872   6.228  12.219 -0.4336  0.5228  0.5573
 1147TIP3    H224933   0.786   6.344  12.173  0.4020  0.9318 -0.0033
 1148TIP3   OH224934   6.692   6.286  13.137  0.0018 -0.6863 -0.3545
 1148TIP3    H124935   6.746   6.362  13.159  2.3621 -1.9468 -1.3244
 1148TIP3    H224936   6.656   6.307  13.051  0.9596 -0.7565 -0.7950
 1149TIP3   OH224937   5.894   1.446  14.847  0.5718 -0.2641  0.0323
 1149TIP3    H124938   5.811   1.444  14.895  0.5343 -1.8303 -0.0528
 1149TIP3    H224939   5.936   1.364  14.870  1.8116  0.2123 -0.4677
 1150TIP3   OH224940   6.530   5.084  16.295  0.3616 -0.0572  0.3710
 1150TIP3    H124941   6.485   5.110  16.215 -0.9868  1.5159  1.5623
 1150TIP3    H224942   6.465   5.032  16.343  0.3972  0.7411  1.3206
 1151TIP3   OH224943   1.950   2.670   4.851 -0.6288  0.2168 -0.3998
 1151TIP3    H124944   2.003   2.738   4.811 -2.3123  2.9776  1.6588
 1151TIP3    H224945   1.992   2.653   4.936 -1.6389  0.6708  0.2174
 1152TIP3   OH224946   2.896   1.815  11.887  0.3573  0.1211  0.1949
 1152TIP3    H124947   2.913   1.882  11.820 -0.8659  0.5579  0.3026
 1152TIP3    H224948   2.840   1.751  11.844 -1.6204  1.1162  1.1362
 1153TIP3   OH224949   2.868   0.590  12.677  0.3538 -0.0740  0.2527
 1153TIP3    H124950   2.846   0.630  12.592  2.1138  0.3897 -0.0230
 1153TIP3    H224951   2.899   0.503  12.654 -0.7004 -0.5598  0.5979
 1154TIP3   OH224952   1.213   4.448   1.000  0.7746 -0.6905  0.5703
 1154TIP3    H124953   1.178   4.359   1.000  0.0373 -0.4131  0.0828
 1154TIP3    H224954   1.299   4.440   1.041  0.0941 -1.3716  1.9211
 1155TIP3   OH224955   5.760   1.040   3.063 -0.2479  0.4909  0.2687
 1155TIP3    H124956   5.839   0.992   3.039 -0.0047  0.8155  0.4131
 1155TIP3    H224957   5.766   1.051   3.158  0.9764  2.9766 -0.0018
 1156TIP3   OH224958   3.396   5.383  15.270 -0.1557 -0.1794 -0.0406
 1156TIP3    H124959   3.302   5.372  15.285  0.0008 -1.9093 -0.0201
 1156TIP3    H224960   3.432   5.294  15.277  1.5410  0.4842  0.2967
 1157TIP3   OH224961   1.704   1.464   3.644  0.5319  0.5353  0.1850
 1157TIP3    H124962   1.733   1.497   3.729  0.8295  0.0813  0.2596
 1157TIP3    H224963   1.776   1.485   3.584  0.6665  0.1348  0.2066
 1158TIP3   OH224964   0.525   6.381   2.373 -0.0056  0.5038  0.5331
 1158TIP3    H124965   0.610   6.354   2.406  0.5319  0.9488 -0.4610
 1158TIP3    H224966   0.486   6.302   2.336  0.7516  0.6597 -0.6388
 1159TIP3   OH224967   0.319   5.494  12.174 -0.0215 -0.0463 -0.0564
 1159TIP3    H124968   0.245   5.552  12.161  0.3227  0.2058 -0.9419
 1159TIP3    H224969   0.298   5.416  12.123  0.1806 -0.1006 -0.0610
 1160TIP3   OH224970   4.949   6.632  13.731 -0.2514 -0.1095  0.2973
 1160TIP3    H124971   4.914   6.596  13.650 -0.1749  0.0333  0.1993
 1160TIP3    H224972   4.875   6.633  13.792 -0.9485  1.9612 -0.4781
 1161TIP3   OH224973   0.862   6.247   1.480  0.1653  0.2990  0.9616
 1161TIP3    H124974   0.864   6.268   1.387  1.7653  1.0376  1.1334
 1161TIP3    H224975   0.836   6.155   1.483 -0.5258  0.4344 -0.1678
 1162TIP3   OH224976   1.673   6.278   4.946  0.0883  0.4941  0.1847
 1162TIP3    H124977   1.674   6.359   4.995 -0.2680  1.5161 -1.4238
 1162TIP3    H224978   1.749   6.283   4.888  0.4881 -0.6623  0.5784
 1163TIP3   OH224979   3.068   1.673  13.795 -0.0407  0.0295  0.6030
 1163TIP3    H124980   2.992   1.632  13.754 -0.7552  0.7776  1.1544
 1163TIP3    H224981   3.031   1.739  13.853  1.0151  0.0198  1.3033
 1164TIP3   OH224982   4.227   0.924  11.859 -0.5560 -0.0265 -0.0717
 1164TIP3    H124983   4.308   0.875  11.849  0.3735  0.9284  2.0934
 1164TIP3    H224984   4.206   0.956  11.771  2.2135  0.8736 -0.4796
 1165TIP3   OH224985   4.907   5.199  14.379 -0.3739  0.1724  0.0018
 1165TIP3    H124986   4.996   5.223  14.407 -1.2963  0.2536  3.2978
 1165TIP3    H224987   4.879   5.273  14.325  0.2909  2.0506  2.0357
 1166TIP3   OH224988   4.835   1.489   5.120 -0.4083 -0.0697  0.1579
 1166TIP3    H124989   4.759   1.519   5.070  0.8567  0.7783 -1.3305
 1166TIP3    H224990   4.899   1.560   5.113 -0.0487 -0.0062  2.8200
 1167TIP3   OH224991   2.645   4.211  15.303  0.2048  0.1859 -0.1391
 1167TIP3    H124992   2.699   4.185  15.228 -0.1750  1.5325 -0.9195
 1167TIP3    H224993   2.693   4.180  15.380  1.2231 -0.1455 -0.8924
 1168TIP3   OH224994   3.041   0.306   0.370  0.0189  0.1663 -0.6750
 1168TIP3    H124995   3.088   0.229   0.337 -0.6772 -1.1161  1.1678
 1168TIP3    H224996   3.105   0.377   0.366  0.9915 -0.7205 -1.5135
 1169TIP3   OH224997   1.514   2.646   1.926 -0.3176 -0.3104 -0.0571
 1169TIP3    H124998   1.447   2.578   1.932 -0.7528  0.1307  0.1334
 1169TIP3    H224999   1.571   2.618   1.855 -0.5792 -0.8002 -0.0746
 1170TIP3   OH225000   5.103   3.300   3.134  0.3108 -0.1571  0.0805
 1170TIP3    H125001   5.055   3.231   3.179 -1.0688  1.1014  0.6020
 1170TIP3    H225002   5.161   3.337   3.201  0.9785 -0.7354 -0.1730
 1171TIP3   OH225003   5.406   0.272  11.320  0.3342 -0.2205  0.3527
 1171TIP3    H125004   5.354   0.303  11.246  0.4116 -0.3933  0.2245
 1171TIP3    H225005   5.402   0.344  11.384 -0.4974 -0.4552  0.5714
 1172TIP3   OH225006   1.566   4.332  16.434  0.4262  0.3791  0.5689
 1172TIP3    H125007   1.647   4.298  16.396  0.0016  2.4504 -2.5227
 1172TIP3    H225008   1.594   4.386  16.507  1.5364 -1.3080  1.4643
 1173TIP3   OH225009   5.764   0.512  17.322 -0.2945 -0.0586  0.0640
 1173TIP3    H125010   5.853   0.546  17.326  0.1702 -1.3663  1.5140
 1173TIP3    H225011   5.713   0.584  17.283  1.4984  0.3976 -1.5928
 1174TIP3   OH225012   2.711   5.615  15.541  0.0533 -0.6086 -0.5552
 1174TIP3    H125013   2.622   5.586  15.519 -0.4216  0.7691 -0.5826
 1174TIP3    H225014   2.732   5.680  15.474  1.1879 -1.0877 -0.6831
 1175TIP3   OH225015   3.288   2.603  16.661 -0.1532 -0.6192  0.3450
 1175TIP3    H125016   3.195   2.581  16.664  0.0405 -1.5359 -0.1335
 1175TIP3    H225017   3.330   2.537  16.716  0.6530 -2.7441 -2.6142
 1176TIP3   OH225018   4.836   0.558   5.453 -0.3174 -0.3275 -0.1336
 1176TIP3    H125019   4.920   0.592   5.423 -0.1707  0.2613  0.8848
 1176TIP3    H225020   4.833   0.469   5.418  1.2562 -0.7695  0.7209
 1177TIP3   OH225021   1.464   3.269   4.819 -0.0121 -0.2583  0.1134
 1177TIP3    H125022   1.407   3.201   4.854  0.2215 -0.9857 -0.8839
 1177TIP3    H225023   1.552   3.231   4.823  0.2411  0.3466  0.4148
 1178TIP3   OH225024   4.299   1.205  14.882  0.1596 -0.3381  0.0647
 1178TIP3    H125025   4.346   1.288  14.877 -0.6121  0.3875  3.1862
 1178TIP3    H225026   4.209   1.229  14.906 -1.3761 -1.8522 -3.3707
 1179TIP3   OH225027   6.582   5.014   3.231 -0.0429  0.4002 -0.1543
 1179TIP3    H125028   6.521   5.053   3.294  1.4548  2.3400  0.1812
 1179TIP3    H225029   6.660   4.995   3.283  0.3428 -0.2557 -0.9551
 1180TIP3   OH225030   6.173   3.516   1.645 -0.3302 -0.1054 -0.2510
 1180TIP3    H125031   6.221   3.538   1.724 -1.6786  1.2536  0.2431
 1180TIP3    H225032   6.238   3.478   1.586  1.3768  1.8210  0.3141
 1181TIP3   OH225033   5.044   3.435   5.488  0.3879  0.3589  0.6389
 1181TIP3    H125034   5.118   3.471   5.537 -0.3144  1.8445  0.6466
 1181TIP3    H225035   5.029   3.349   5.527  1.8091  0.2159  0.9302
 1182TIP3   OH225036   6.122   0.626   6.183  0.0407 -0.3809 -0.9576
 1182TIP3    H125037   6.205   0.613   6.137  0.7081  0.7944 -0.1544
 1182TIP3    H225038   6.114   0.550   6.240  0.9760 -0.1216 -0.4635
 1183TIP3   OH225039   3.282   6.249  11.979  0.3311  0.1142 -0.0288
 1183TIP3    H125040   3.347   6.203  11.926 -1.6070 -1.9550 -0.7467
 1183TIP3    H225041   3.283   6.204  12.063 -0.2026  0.0211 -0.0705
 1184TIP3   OH225042   2.105   1.437   3.008 -0.3385  0.6511 -0.5690
 1184TIP3    H125043   2.110   1.350   2.968 -0.3423 -0.8505  2.4512
 1184TIP3    H225044   2.019   1.470   2.982  0.2547  0.4637 -2.9888
 1185TIP3   OH225045   4.743   1.926   1.539  0.1421  0.0812  0.2992
 1185TIP3    H125046   4.775   2.016   1.553  0.9988  0.2116 -2.1038
 1185TIP3    H225047   4.672   1.936   1.476  0.0497 -0.9340  0.2381
 1186TIP3   OH225048   4.139   3.682  13.219 -0.1634 -0.0357  0.5728
 1186TIP3    H125049   4.047   3.696  13.199  0.0780  0.0514 -0.5268
 1186TIP3    H225050   4.140   3.616  13.289 -1.1224  1.3641  1.9774
 1187TIP3   OH225051   1.244   6.704   3.851  0.3151 -0.1727 -0.2809
 1187TIP3    H125052   1.169   6.645   3.845 -1.6237  2.0668  0.1200
 1187TIP3    H225053   1.229   6.769   3.782  2.2048  0.0463 -0.5394
 1188TIP3   OH225054   1.973   0.165  12.122  0.3525  0.2276  0.0920
 1188TIP3    H125055   2.019   0.248  12.114 -0.2037  0.6027  0.7176
 1188TIP3    H225056   1.883   0.188  12.143  0.1870 -0.5274  0.2667
 1189TIP3   OH225057   0.288   0.764   4.029  0.7919  0.3463 -0.2674
 1189TIP3    H125058   0.370   0.728   4.065  0.0008 -0.7737  0.4928
 1189TIP3    H225059   0.223   0.696   4.046 -0.2477  1.0982 -1.1241
 1190TIP3   OH225060   2.177   2.736  12.410 -0.0432  0.0122  0.2939
 1190TIP3    H125061   2.173   2.701  12.321  0.6485 -0.5563  0.4825
 1190TIP3    H225062   2.258   2.701  12.447  1.3446  2.7767  0.1057
 1191TIP3   OH225063   0.522   4.712  12.343  0.0434 -0.2813 -0.4027
 1191TIP3    H125064   0.576   4.737  12.418 -0.5469 -1.4917  0.4542
 1191TIP3    H225065   0.432   4.718  12.374 -0.1689 -2.2617 -0.5073
 1192TIP3   OH225066   6.363   6.598   2.961  0.0899 -0.6748 -0.1073
 1192TIP3    H125067   6.293   6.663   2.951  1.2779  0.4945 -1.4064
 1192TIP3    H225068   6.424   6.619   2.891  2.0351 -1.2723  1.3353
 1193TIP3   OH225069   3.051   1.170   4.820 -0.1416  0.5298 -0.0084
 1193TIP3    H125070   3.025   1.089   4.864  0.7133  0.0288 -0.4001
 1193TIP3    H225071   3.119   1.208   4.875 -1.7090  1.9063  1.0781
 1194TIP3   OH225072   1.625   5.803  14.174 -0.1759  0.4262  0.0754
 1194TIP3    H125073   1.583   5.799  14.087 -1.1006 -0.5844  0.5439
 1194TIP3    H225074   1.624   5.713  14.205  0.2656  0.7604  1.0911
 1195TIP3   OH225075   1.260   3.804   0.776  0.5229 -0.5880 -0.1326
 1195TIP3    H125076   1.319   3.863   0.729 -0.0707  0.4525  0.4030
 1195TIP3    H225077   1.304   3.787   0.860 -0.5268  1.3395  0.8787
 1196TIP3   OH225078   6.145   3.733   3.095 -0.0616 -0.1496 -0.2470
 1196TIP3    H125079   6.062   3.687   3.104  1.2196 -2.1907  3.1652
 1196TIP3    H225080   6.164   3.732   3.002 -3.3569 -0.4518 -1.0262
 1197TIP3   OH225081   2.996   5.507   0.359  0.2775 -0.1428  0.0569
 1197TIP3    H125082   2.968   5.512   0.451 -1.0915 -0.4844 -0.3164
 1197TIP3    H225083   3.091   5.505   0.363  0.2577  0.6035  1.4322
 1198TIP3   OH225084   1.687   3.462   0.069  0.1112  0.5566 -0.3008
 1198TIP3    H125085   1.629   3.537   0.054 -1.1141  0.3222  2.6450
 1198TIP3    H225086   1.651   3.420   0.147  3.2673 -0.6366  0.6220
 1199TIP3   OH225087   3.558   6.200  16.397  0.4853  0.0121 -0.0829
 1199TIP3    H125088   3.518   6.213  16.483 -0.2509  0.0665 -0.4217
 1199TIP3    H225089   3.533   6.111  16.372 -0.3680  0.4279 -0.7693
 1200TIP3   OH225090   3.647   0.534  16.907  0.1954  0.0955 -0.2046
 1200TIP3    H125091   3.559   0.569  16.926  0.3780  0.8708 -0.7107
 1200TIP3    H225092   3.637   0.488  16.824  0.8045  2.5447 -1.7417
 1201TIP3   OH225093   3.394   6.662   2.235 -0.3918  0.8813 -0.0562
 1201TIP3    H125094   3.313   6.663   2.184 -2.1458  0.5010  2.5347
 1201TIP3    H225095   3.382   6.732   2.299 -0.3301 -1.4336  2.6657
 1202TIP3   OH225096   0.636   5.232  13.484 -0.4374 -0.1966  0.2307
 1202TIP3    H125097   0.552   5.202  13.516  0.2851  0.0866  2.5299
 1202TIP3    H225098   0.685   5.258  13.562  2.0190 -0.9258 -0.9431
 1203TIP3   OH225099   5.322   2.043  16.599 -0.0741  0.1693  0.6939
 1203TIP3    H125100   5.322   2.134  16.630  2.3497  0.6428 -0.4067
 1203TIP3    H225101   5.298   2.050  16.507 -1.5918 -0.5411  1.0195
 1204TIP3   OH225102   4.587   5.593  13.411  0.5323  0.1004  0.4963
 1204TIP3    H125103   4.551   5.681  13.401  0.9463  0.1190 -1.1455
 1204TIP3    H225104   4.529   5.550  13.473  1.1202  1.9373  2.4175
 1205TIP3   OH225105   3.216   2.873  16.677 -0.1502 -0.2588  0.2682
 1205TIP3    H125106   3.172   2.892  16.759  0.0287  0.7417  0.1436
 1205TIP3    H225107   3.261   2.790  16.692  1.8933  1.0865  2.0123
 1206TIP3   OH225108   0.540   5.773  12.840  0.3045  0.2122 -0.5696
 1206TIP3    H125109   0.618   5.788  12.893 -0.0246 -2.2032  0.7132
 1206TIP3    H225110   0.573   5.764  12.750  1.2520  1.1185 -0.3224
 1207TIP3   OH225111   5.651   5.663  13.641  0.2046  0.3114 -0.8263
 1207TIP3    H125112   5.592   5.719  13.692  0.8364  0.4161 -0.1888
 1207TIP3    H225113   5.594   5.617  13.580 -0.5937  0.1052  0.0467
 1208TIP3   OH225114   5.986   3.567  12.961 -0.2051 -0.3733  0.3941
 1208TIP3    H125115   5.958   3.483  12.996  0.9959 -1.3574 -0.9106
 1208TIP3    H225116   5.912   3.596  12.907 -0.7034 -0.4815  1.0159
 1209TIP3   OH225117   4.699   4.243  16.569  0.3213  0.2086 -0.5008
 1209TIP3    H125118   4.769   4.253  16.505 -0.2340 -1.5851 -1.4573
 1209TIP3    H225119   4.743   4.227  16.652  1.1116 -1.6815 -1.2234
 1210TIP3   OH225120   2.709   4.703   4.435 -0.2005  0.1678  0.1232
 1210TIP3    H125121   2.738   4.625   4.388 -0.5953 -0.6418  1.1783
 1210TIP3    H225122   2.720   4.775   4.372  1.0450 -0.5850 -0.5689
 1211TIP3   OH225123   4.068   6.603  13.898  0.3223  0.2259 -0.5821
 1211TIP3    H125124   4.024   6.688  13.895 -0.1064  0.0339  0.0652
 1211TIP3    H225125   4.015   6.547  13.841 -1.4077 -0.5043  1.6229
 1212TIP3   OH225126   3.571   3.444   4.281  0.5623 -0.4714  0.3811
 1212TIP3    H125127   3.595   3.433   4.373 -0.1512 -0.2698  0.5992
 1212TIP3    H225128   3.560   3.354   4.248  0.9776 -0.5477  0.4455
 1213TIP3   OH225129   0.545   1.196  16.521  0.0700  0.0349  1.0783
 1213TIP3    H125130   0.514   1.271  16.470 -0.4786  0.4528  2.0091
 1213TIP3    H225131   0.594   1.234  16.593  2.9537 -0.6058 -0.4039
 1214TIP3   OH225132   2.207   4.464   5.553 -0.2395  0.8092  0.1390
 1214TIP3    H125133   2.242   4.462   5.642 -1.7792  1.3832  0.7973
 1214TIP3    H225134   2.273   4.511   5.502  1.7945 -1.5901  0.4077
 1215TIP3   OH225135   6.502   4.050  12.862 -0.0484 -0.0794  0.1546
 1215TIP3    H125136   6.595   4.039  12.843  0.2245  1.9155  0.0934
 1215TIP3    H225137   6.472   4.114  12.798 -1.4317 -0.5332  0.3198
 1216TIP3   OH225138   2.643   2.383  17.128  0.1810  0.1991 -0.0803
 1216TIP3    H125139   2.679   2.388  17.216 -1.0540 -0.9992  0.5344
 1216TIP3    H225140   2.651   2.291  17.103 -1.2706  0.1350 -0.4094
 1217TIP3   OH225141   1.213   2.939  12.158 -0.2116  0.0617  0.5293
 1217TIP3    H125142   1.303   2.905  12.154 -0.8282 -1.6342  0.4011
 1217TIP3    H225143   1.181   2.931  12.068 -0.4214  0.9010  0.5211
 1218TIP3   OH225144   1.243   0.121   5.366 -0.0914 -0.1320 -0.0892
 1218TIP3    H125145   1.181   0.083   5.304 -0.2535 -0.2415  0.1398
 1218TIP3    H225146   1.197   0.118   5.450  1.2944 -2.9344  0.6805
 1219TIP3   OH225147   3.172   5.116  17.318  0.5676  0.0265  0.0053
 1219TIP3    H125148   3.085   5.110  17.278  0.5675  0.6078 -0.0817
 1219TIP3    H225149   3.185   5.030  17.359 -0.9990  0.6310  1.9448
 1220TIP3   OH225150   3.567   0.277  17.321 -0.0752  0.1248 -0.2736
 1220TIP3    H125151   3.650   0.261  17.365 -0.0225 -1.7119 -0.9227
 1220TIP3    H225152   3.500   0.257  17.387  0.0140 -1.6848 -0.6641
 1221TIP3   OH225153   1.123   1.793  15.051 -0.1566  0.1241  0.8893
 1221TIP3    H125154   1.195   1.762  15.105  0.6732 -0.8962 -0.7518
 1221TIP3    H225155   1.086   1.714  15.011 -0.2681  0.8929 -0.5989
 1222TIP3   OH225156   3.724   5.471  14.339 -0.2426  0.0962  0.4136
 1222TIP3    H125157   3.710   5.405  14.407  1.5973 -1.0276 -0.2141
 1222TIP3    H225158   3.770   5.542  14.383  0.3455 -0.3383  0.5195
 1223TIP3   OH225159   1.020   0.746  11.613  0.5021 -0.0420  0.5370
 1223TIP3    H125160   1.041   0.839  11.623 -0.5240  0.0468  2.3066
 1223TIP3    H225161   0.927   0.740  11.633  0.0361 -1.1780 -1.7126
 1224TIP3   OH225162   1.427   3.226   0.763 -0.0259 -0.9548  0.2174
 1224TIP3    H125163   1.506   3.200   0.810  0.2445  1.0854  1.0038
 1224TIP3    H225164   1.459   3.277   0.689 -0.5766  0.2901  0.8087
 1225TIP3   OH225165   0.044   3.230  13.432  0.0170  0.1736 -0.8599
 1225TIP3    H125166   0.070   3.152  13.480  1.7905  0.5274 -1.1907
 1225TIP3    H225167   0.054   3.207  13.339 -2.3053 -0.1380 -1.0932
 1226TIP3   OH225168   1.116   4.392   1.701 -0.6746 -0.0977  0.4531
 1226TIP3    H125169   1.046   4.430   1.755 -0.5204  0.8845 -0.0338
 1226TIP3    H225170   1.193   4.444   1.721 -0.8721  1.0556 -1.5629
 1227TIP3   OH225171   2.331   6.647  13.125  0.4731 -0.3743  0.2503
 1227TIP3    H125172   2.425   6.637  13.141  0.3429  0.8009  2.0323
 1227TIP3    H225173   2.315   6.741  13.133 -0.6903 -0.4051 -1.2402
 1228TIP3   OH225174   6.083   2.867   3.186 -0.1951  0.0885  0.4443
 1228TIP3    H125175   6.068   2.832   3.099 -0.5020 -0.9099  0.8791
 1228TIP3    H225176   6.177   2.885   3.189  0.2784 -2.1045  0.6581
 1229TIP3   OH225177   0.219   5.908  14.248 -0.6990  0.1151 -0.5899
 1229TIP3    H125178   0.237   5.894  14.341 -1.1900  0.2671 -0.4697
 1229TIP3    H225179   0.136   5.863  14.233 -0.4521 -0.1950 -1.0314
 1230TIP3   OH225180   0.822   1.821  13.109  1.0957 -0.2366 -0.2870
 1230TIP3    H125181   0.791   1.823  13.200  0.6421  0.1992 -0.4456
 1230TIP3    H225182   0.917   1.817  13.116  1.0474 -0.7179  0.2088
 1231TIP3   OH225183   2.356   6.157  15.586  0.0044  0.5827 -0.3021
 1231TIP3    H125184   2.368   6.252  15.595  0.8757  0.4945 -0.4117
 1231TIP3    H225185   2.320   6.146  15.498 -0.1704  0.8206 -0.2616
 1232TIP3   OH225186   4.100   3.344  16.527 -0.1048  0.2125 -0.4430
 1232TIP3    H125187   4.033   3.351  16.460 -0.5169 -0.5484 -0.1132
 1232TIP3    H225188   4.167   3.287  16.490 -0.2154 -0.0094 -0.3018
 1233TIP3   OH225189   6.138   2.571  11.552  0.1970  0.0735  0.3314
 1233TIP3    H125190   6.133   2.554  11.458  0.0935 -1.2822  0.5710
 1233TIP3    H225191   6.226   2.543  11.578  1.1046  2.5730  0.2697
 1234TIP3   OH225192   3.704   4.192   6.215  0.0188 -0.2802 -0.6658
 1234TIP3    H125193   3.625   4.247   6.217  0.0552 -0.1407  2.7921
 1234TIP3    H225194   3.756   4.228   6.143 -1.5598  1.8780 -0.8349
 1235TIP3   OH225195   4.818   3.442  12.401  0.4140  0.4359  0.3216
 1235TIP3    H125196   4.777   3.420  12.317  0.0784 -0.8510  0.8004
 1235TIP3    H225197   4.745   3.449  12.462  0.7668 -0.0161  0.7970
 1236TIP3   OH225198   3.023   3.744  14.535 -0.1376  1.1369  0.3133
 1236TIP3    H125199   2.950   3.716  14.480  1.4353 -0.4945 -1.0616
 1236TIP3    H225200   3.050   3.828  14.497  0.4682  0.3793 -1.0119
 1237TIP3   OH225201   0.369   5.123  14.200  0.6693  0.6595  0.6667
 1237TIP3    H125202   0.331   5.047  14.244  1.4401  0.8666  1.7499
 1237TIP3    H225203   0.293   5.175  14.173  0.0539 -1.3673 -1.8202
 1238TIP3   OH225204   3.144   0.340   2.298 -0.0467 -0.1293  0.0075
 1238TIP3    H125205   3.085   0.414   2.289 -0.6830 -0.3213  2.0641
 1238TIP3    H225206   3.229   0.379   2.318 -0.1872  0.0835  0.1959
 1239TIP3   OH225207   0.219   4.868   2.367  0.3659 -0.5591  0.2259
 1239TIP3    H125208   0.189   4.856   2.458  2.8799 -2.3649  0.9034
 1239TIP3    H225209   0.308   4.902   2.375  0.0357  0.8856 -1.6390
 1240TIP3   OH225210   3.953   4.992   4.551  0.3494  0.2427  0.0427
 1240TIP3    H125211   3.957   5.049   4.627  0.9355 -0.4953  0.5804
 1240TIP3    H225212   3.861   4.965   4.546  0.2529  0.5248  0.3132
 1241TIP3   OH225213   1.695   4.162   3.549 -0.0322 -0.0900  1.1686
 1241TIP3    H125214   1.727   4.135   3.462 -0.1823 -2.2713  1.7341
 1241TIP3    H225215   1.672   4.254   3.538  0.6791 -0.0966 -0.8991
 1242TIP3   OH225216   1.428   0.057  16.143  0.2396  0.2420  0.0408
 1242TIP3    H125217   1.417   0.020  16.056 -0.0889  1.7636 -0.5977
 1242TIP3    H225218   1.355   0.119  16.152  1.5986  1.8412  0.4531
 1243TIP3   OH225219   6.363   2.387  15.933  0.2474 -0.0303  0.1755
 1243TIP3    H125220   6.341   2.462  15.877  0.3589  0.0903  0.2916
 1243TIP3    H225221   6.347   2.310  15.878 -0.0378  0.0722  0.1143
 1244TIP3   OH225222   4.517   3.545  14.265  0.3472  0.0920 -0.2464
 1244TIP3    H125223   4.597   3.501  14.239  0.6567  0.3775  0.1992
 1244TIP3    H225224   4.529   3.636  14.239  0.2397  0.1708 -0.0275
 1245TIP3   OH225225   3.002   2.266  16.715 -0.1029 -0.2807  0.1720
 1245TIP3    H125226   2.927   2.276  16.774 -0.3257 -1.1362  0.0428
 1245TIP3    H225227   3.014   2.172  16.707  0.5204 -0.1597 -0.4071
 1246TIP3   OH225228   5.662   4.438  17.460  0.4658  0.0767 -0.0616
 1246TIP3    H125229   5.713   4.395  17.391  1.0963  0.4498  0.1629
 1246TIP3    H225230   5.601   4.371  17.490  2.4479 -1.1905  1.3732
 1247TIP3   OH225231   4.941   0.541  14.523  0.4015 -0.5834 -0.0177
 1247TIP3    H125232   4.897   0.604  14.466 -0.0576  1.0362  2.0304
 1247TIP3    H225233   5.034   0.565  14.519  0.8102 -2.1391 -2.0122
 1248TIP3   OH225234   6.170   3.626   6.114  0.5673 -0.3091 -0.0242
 1248TIP3    H125235   6.246   3.679   6.139  1.8643 -3.0055  2.3116
 1248TIP3    H225236   6.204   3.562   6.052 -0.4367  0.0952 -1.0157
 1249TIP3   OH225237   5.826   4.624   0.049 -0.5258 -0.1707  0.5271
 1249TIP3    H125238   5.771   4.691   0.091 -0.3386  0.5636 -0.3842
 1249TIP3    H225239   5.768   4.584  -0.016 -0.0944  0.3653 -0.1934
 1250TIP3   OH225240   5.291   5.163  14.620 -0.0724 -0.1155 -0.1155
 1250TIP3    H125241   5.378   5.128  14.642 -0.2846 -0.0739  0.8473
 1250TIP3    H225242   5.291   5.169  14.525  1.3203  0.7350 -0.0892
 1251TIP3   OH225243   2.627   0.759  16.251  0.4577 -0.3995  0.4109
 1251TIP3    H125244   2.638   0.705  16.329  1.9347 -2.8253 -1.3236
 1251TIP3    H225245   2.715   0.792  16.233 -0.1629  1.4926  0.5992
 1252TIP3   OH225246   0.287   5.076   2.952  0.1538  0.7378 -0.2468
 1252TIP3    H125247   0.339   4.998   2.972 -0.2320  0.6405  0.3809
 1252TIP3    H225248   0.317   5.142   3.014 -1.8377  0.1006  1.5128
 1253TIP3   OH225249   2.202   6.339   2.740 -0.2204  0.1440  0.1831
 1253TIP3    H125250   2.259   6.263   2.748 -0.2651  0.0801 -0.0989
 1253TIP3    H225251   2.116   6.308   2.770 -0.5964 -0.3409 -1.3395
 1254TIP3   OH225252   0.867   6.327   0.157 -0.0480 -0.1540  0.3698
 1254TIP3    H125253   0.901   6.321   0.068  2.2449  0.3421  1.1369
 1254TIP3    H225254   0.775   6.352   0.147  0.8586  2.8187 -1.8181
 1255TIP3   OH225255   0.449   4.276  14.696 -0.4239  0.0965 -0.4542
 1255TIP3    H125256   0.503   4.319  14.762 -2.4215  1.5814  0.3472
 1255TIP3    H225257   0.511   4.237  14.635  1.5015  0.7855  0.9560
 1256TIP3   OH225258   5.826   5.511   2.284  0.2774 -0.2821 -0.0108
 1256TIP3    H125259   5.732   5.506   2.302  0.3498 -1.3073  0.1670
 1256TIP3    H225260   5.834   5.573   2.212 -0.3961  0.9058  0.9205
 1257TIP3   OH225261   4.531   3.576   5.124 -0.0115  0.3274  0.2561
 1257TIP3    H125262   4.590   3.610   5.057  1.7396  0.9347  2.0286
 1257TIP3    H225263   4.474   3.650   5.145 -1.3929 -0.2091 -1.3283
 1258TIP3   OH225264   1.311   4.512   2.107  0.2542 -0.2918  0.3165
 1258TIP3    H125265   1.378   4.482   2.047 -1.4841 -1.8676 -0.9485
 1258TIP3    H225266   1.297   4.604   2.083  1.4600 -0.1359  0.1635
 1259TIP3   OH225267   3.811   0.562   5.926 -0.0675  0.4110 -0.4060
 1259TIP3    H125268   3.716   0.561   5.908 -0.5078 -2.0919  1.4987
 1259TIP3    H225269   3.827   0.481   5.974  3.5009 -0.4819 -2.7062
 1260TIP3   OH225270   5.434   5.843   2.819 -0.3486 -0.3803 -0.5296
 1260TIP3    H125271   5.489   5.884   2.753 -1.6114 -1.1092 -2.0869
 1260TIP3    H225272   5.357   5.812   2.771 -2.5139  1.2470  1.6269
 1261TIP3   OH225273   2.311   4.812   1.766  0.1605  0.0231  0.6276
 1261TIP3    H125274   2.332   4.905   1.773  0.4351 -0.0347  0.5744
 1261TIP3    H225275   2.246   4.798   1.835  0.2185  0.2253  0.7259
 1262TIP3   OH225276   0.328   3.109   2.321 -0.3036  0.6434 -0.2007
 1262TIP3    H125277   0.333   3.013   2.319 -0.1231  0.6332  0.6500
 1262TIP3    H225278   0.356   3.133   2.409 -1.3187  1.4286 -0.0763
 1263TIP3   OH225279   4.479   6.419   4.399 -0.2757 -0.3711 -0.1611
 1263TIP3    H125280   4.545   6.466   4.348 -0.7123 -0.2634 -0.6292
 1263TIP3    H225281   4.397   6.465   4.380 -0.5401 -0.7045  0.1637
 1264TIP3   OH225282   6.753   4.326  14.561  0.2227 -0.4915 -0.3369
 1264TIP3    H125283   6.721   4.264  14.627 -0.8995  0.6609  0.2464
 1264TIP3    H225284   6.712   4.296  14.479  0.6148 -1.1831 -0.2893
 1265TIP3   OH225285   5.676   3.671   4.789  0.2092 -0.1221  0.3915
 1265TIP3    H125286   5.667   3.606   4.719  0.5578  0.0440  0.1915
 1265TIP3    H225287   5.624   3.746   4.759 -0.3053 -0.3505  0.6844
 1266TIP3   OH225288   5.979   6.375   0.845  0.2282  0.2015  0.4542
 1266TIP3    H125289   6.011   6.394   0.933 -0.9504  0.6273  0.8061
 1266TIP3    H225290   5.986   6.457   0.798 -0.6759  0.3908  0.6430
 1267TIP3   OH225291   4.713   3.532   4.000  0.3393 -0.6529 -0.1164
 1267TIP3    H125292   4.652   3.465   4.030  2.7481 -2.1280  1.9032
 1267TIP3    H225293   4.778   3.484   3.948  1.0863  0.4348 -0.2295
 1268TIP3   OH225294   4.944   5.352  11.659 -0.3124  0.0132 -0.4585
 1268TIP3    H125295   4.963   5.258  11.663 -1.7972 -0.2802  3.1057
 1268TIP3    H225296   5.027   5.393  11.682 -0.1338 -0.5133 -0.1354
 1269TIP3   OH225297   5.085   4.209  13.273  0.1438 -0.3720  0.3586
 1269TIP3    H125298   5.079   4.154  13.351 -1.9451 -1.3826 -0.4367
 1269TIP3    H225299   5.031   4.286  13.293  2.3770  1.0951  1.1440
 1270TIP3   OH225300   3.983   4.265   4.732  0.3899 -0.5903  0.4373
 1270TIP3    H125301   4.051   4.213   4.775  1.9340  0.6360 -0.4465
 1270TIP3    H225302   4.030   4.329   4.679 -1.4574  0.1230 -0.4525
 1271TIP3   OH225303   5.436   5.563  16.796  0.6446 -0.0263  0.3476
 1271TIP3    H125304   5.439   5.653  16.761 -1.3723 -0.1333 -0.2547
 1271TIP3    H225305   5.502   5.516  16.746 -0.4546  0.4246 -1.6404
 1272TIP3   OH225306   1.471   3.429  15.469  0.1659 -0.2816  0.0706
 1272TIP3    H125307   1.507   3.356  15.418 -0.2274 -2.2334  2.4343
 1272TIP3    H225308   1.381   3.403  15.489  0.5376  0.0167  2.4018
 1273TIP3   OH225309   4.672   0.089  14.244  0.3018  0.0563  0.4589
 1273TIP3    H125310   4.631   0.174  14.259 -0.9297 -0.5044  0.3501
 1273TIP3    H225311   4.738   0.105  14.177 -1.1230  0.5953 -0.8528
 1274TIP3   OH225312   5.030   6.132   3.414 -0.6037 -0.1878 -0.6404
 1274TIP3    H125313   5.077   6.199   3.365  2.9076 -1.7390  0.2993
 1274TIP3    H225314   5.043   6.051   3.365  0.6206 -1.2488  1.2851
 1275TIP3   OH225315   4.789   1.415  17.232  0.4110 -0.1824 -0.2656
 1275TIP3    H125316   4.819   1.331  17.196  0.4396 -0.8464  1.2403
 1275TIP3    H225317   4.867   1.470  17.231  0.2780  0.0233 -1.7294
 1276TIP3   OH225318   3.962   5.254  15.551 -0.3953  0.3126 -0.3578
 1276TIP3    H125319   4.019   5.220  15.620 -0.8998 -0.1164 -0.1459
 1276TIP3    H225320   4.021   5.267  15.476 -0.3092 -1.8677 -0.7352
 1277TIP3   OH225321   4.480   1.260   0.939  0.1076 -0.6018 -0.9044
 1277TIP3    H125322   4.504   1.345   0.976  0.8284 -1.3557  0.4610
 1277TIP3    H225323   4.477   1.275   0.844 -3.4025  1.8114 -0.5827
 1278TIP3   OH225324   5.222   0.747   1.325  0.2322 -0.0448 -0.1566
 1278TIP3    H125325   5.310   0.761   1.360  0.0653  1.2173 -0.2103
 1278TIP3    H225326   5.229   0.770   1.232 -0.3113  0.7675 -0.0048
 1279TIP3   OH225327   3.722   0.884  13.501  0.3046 -0.0827 -0.2562
 1279TIP3    H125328   3.767   0.886  13.416  1.6316  0.7040  0.4337
 1279TIP3    H225329   3.661   0.958  13.498  1.1917  0.6745 -0.1076
 1280TIP3   OH225330   6.031   1.051   2.976  1.0541 -0.1105 -0.5122
 1280TIP3    H125331   6.005   1.026   2.888  1.9192 -2.2312 -0.2225
 1280TIP3    H225332   6.098   1.118   2.963  2.6687 -1.8385 -1.5914
 1281TIP3   OH225333   6.720   0.900  17.429  0.0730  0.0024  0.2054
 1281TIP3    H125334   6.647   0.945  17.386  0.7378  0.5778 -0.3303
 1281TIP3    H225335   6.678   0.830  17.479 -0.9250  0.8147  0.5435
 1282TIP3   OH225336   4.274   3.803   1.954  0.5598  0.4795  0.6388
 1282TIP3    H125337   4.314   3.832   1.872 -0.2716  0.2790  0.1542
 1282TIP3    H225338   4.214   3.733   1.928 -0.7479  1.3386  1.2287
 1283TIP3   OH225339   6.014   0.640   2.934 -0.8106  0.0262  0.4663
 1283TIP3    H125340   6.055   0.672   3.015 -0.6834 -2.0255  1.2582
 1283TIP3    H225341   6.067   0.565   2.908 -1.6655 -0.1766 -0.7856
 1284TIP3   OH225342   2.084   0.674   0.152  0.4958  0.3376 -0.4308
 1284TIP3    H125343   2.142   0.744   0.182  0.6447  1.6747 -3.4394
 1284TIP3    H225344   2.020   0.718   0.096 -0.4959 -1.7037 -1.0011
 1285TIP3   OH225345   4.410   3.554  12.563 -0.2103  0.3007  0.3565
 1285TIP3    H125346   4.404   3.644  12.594  0.1670  0.5856 -0.3802
 1285TIP3    H225347   4.374   3.556  12.474 -1.8981 -0.6312  0.9637
 1286TIP3   OH225348   4.651   4.611  13.105 -0.5058  0.2518 -0.1986
 1286TIP3    H125349   4.647   4.609  13.010 -0.2174 -0.5264 -0.2011
 1286TIP3    H225350   4.711   4.684  13.125 -1.5847  1.2768 -0.5580
 1287TIP3   OH225351   3.975   1.568   4.143 -0.3888  0.5796  0.1292
 1287TIP3    H125352   4.062   1.543   4.111  0.1767  1.6280  0.7793
 1287TIP3    H225353   3.939   1.488   4.181  0.3011  0.1323 -0.1313
 1288TIP3   OH225354   1.188   2.021  13.394  0.1334 -0.1814 -0.2426
 1288TIP3    H125355   1.257   2.087  13.383 -0.8603  0.9358  0.0114
 1288TIP3    H225356   1.107   2.068  13.374 -0.6210 -1.2861  0.1563
 1289TIP3   OH225357   1.374   3.511   0.038 -0.2495  0.1803  0.0997
 1289TIP3    H125358   1.336   3.439   0.089  3.7810 -1.4567  1.1212
 1289TIP3    H225359   1.364   3.485  -0.053 -0.6672 -0.6409  0.3762
 1290TIP3   OH225360   1.345   6.045   2.813  0.1766  0.0964  0.4865
 1290TIP3    H125361   1.310   6.013   2.730  0.7718  0.1734  0.2014
 1290TIP3    H225362   1.402   5.974   2.844 -0.3089 -0.0769  1.0027
 1291TIP3   OH225363   0.656   5.317  11.551 -0.0952  0.3554 -0.2036
 1291TIP3    H125364   0.670   5.247  11.614 -0.2186 -0.1108 -0.6852
 1291TIP3    H225365   0.587   5.284  11.493  0.2831  0.6106 -0.8143
 1292TIP3   OH225366   4.066   2.564   5.426 -0.6477 -0.0687 -0.2823
 1292TIP3    H125367   4.118   2.574   5.346 -1.7887 -0.4544 -1.0865
 1292TIP3    H225368   4.065   2.469   5.442 -0.3014  0.0166  0.2893
 1293TIP3   OH225369   0.786   0.947  15.706  0.3495 -0.3764  0.2874
 1293TIP3    H125370   0.845   0.992  15.645 -0.3631 -0.4335 -0.4546
 1293TIP3    H225371   0.840   0.933  15.784  0.2883  2.8997  1.0867
 1294TIP3   OH225372   5.522   1.846   1.049 -0.1551  0.0390 -0.2904
 1294TIP3    H125373   5.461   1.879   0.983 -1.9991 -0.3410  1.1207
 1294TIP3    H225374   5.514   1.907   1.122 -0.2327 -0.9972  0.6105
 1295TIP3   OH225375   1.905   6.666  17.183 -0.1089  0.3169 -0.6175
 1295TIP3    H125376   1.817   6.705  17.178 -0.1669  0.1053 -1.3705
 1295TIP3    H225377   1.916   6.622  17.099  0.1384 -0.9202  0.0372
 1296TIP3   OH225378   5.477   6.547   0.442  0.8217  0.3482 -0.5209
 1296TIP3    H125379   5.391   6.552   0.484  0.6479 -2.5706 -0.3827
 1296TIP3    H225380   5.459   6.561   0.349  0.0501 -1.0449 -0.5965
 1297TIP3   OH225381   4.233   4.439  11.352  0.0329  0.0621  0.0690
 1297TIP3    H125382   4.325   4.461  11.334  0.3085  0.8941  2.2124
 1297TIP3    H225383   4.184   4.518  11.327  0.0672  0.1299  0.2146
 1298TIP3   OH225384   0.602   0.969  12.454  0.3733 -0.1704  0.0810
 1298TIP3    H125385   0.649   0.915  12.518  1.0633  0.4091  0.0876
 1298TIP3    H225386   0.606   0.919  12.373 -0.4416 -0.8762  0.4732
 1299TIP3   OH225387   2.991   3.429  15.503 -0.1919 -0.2179  0.2737
 1299TIP3    H125388   2.978   3.431  15.598 -1.5147  0.2382  0.1104
 1299TIP3    H225389   3.009   3.520  15.479  1.4173 -0.5209  0.2166
 1300TIP3   OH225390   0.361   1.923   3.429 -0.2943  0.3621  0.5955
 1300TIP3    H125391   0.451   1.927   3.396 -0.0270 -1.6104  0.9415
 1300TIP3    H225392   0.363   1.972   3.511  0.3523  0.7324  0.3615
 1301TIP3   OH225393   0.997   1.605  14.780 -0.9975  0.4685  0.1860
 1301TIP3    H125394   0.941   1.629  14.854 -0.4773 -0.9757  1.1037
 1301TIP3    H225395   1.065   1.549  14.819  0.0497  0.7327 -1.1858
 1302TIP3   OH225396   2.735   2.483   3.374 -0.4099 -0.0059 -0.1998
 1302TIP3    H125397   2.792   2.507   3.300 -0.2468  0.4420  0.0733
 1302TIP3    H225398   2.648   2.511   3.347 -0.2013  1.0402  0.1780
 1303TIP3   OH225399   5.694   4.027   4.027  0.4139 -0.4364 -0.2476
 1303TIP3    H125400   5.637   4.089   4.072  1.4826  0.5381 -0.1850
 1303TIP3    H225401   5.684   3.945   4.076 -0.0740  0.0238  0.4371
 1304TIP3   OH225402   3.918   0.786  15.484  0.1680  0.4718  0.3538
 1304TIP3    H125403   3.999   0.830  15.459 -0.1560  1.0153  0.2528
 1304TIP3    H225404   3.855   0.811  15.416 -0.4310  1.0772  1.1131
 1305TIP3   OH225405   0.499   5.131  11.376 -0.3352  0.2064  0.8876
 1305TIP3    H125406   0.512   5.131  11.281 -0.3248  0.8624  0.8868
 1305TIP3    H225407   0.410   5.098  11.388 -0.0128 -0.7599  0.7032
 1306TIP3   OH225408   4.919   0.262  16.111  0.0633 -0.1081  0.6445
 1306TIP3    H125409   5.010   0.275  16.085 -0.0448 -1.1469 -0.3874
 1306TIP3    H225410   4.891   0.185  16.060 -0.8114 -1.0030  2.3700
 1307TIP3   OH225411   4.253   5.219  15.574 -0.2421  0.1526 -0.1370
 1307TIP3    H125412   4.243   5.128  15.546  1.3211  0.1578 -0.8779
 1307TIP3    H225413   4.282   5.213  15.665 -0.1902 -0.0909 -0.1680
 1308TIP3   OH225414   2.872   2.035   1.596 -0.3809  0.3451 -0.0435
 1308TIP3    H125415   2.799   1.991   1.552 -0.8923  0.8155  0.3090
 1308TIP3    H225416   2.906   1.970   1.658 -0.9658  0.3504  0.2936
 1309TIP3   OH225417   6.474   3.645  14.200  0.1336  0.9163  0.4421
 1309TIP3    H125418   6.454   3.569  14.255  0.0357  0.3091 -0.4107
 1309TIP3    H225419   6.570   3.650  14.200  0.2872 -0.7312 -1.4473
 1310TIP3   OH225420   1.957   2.113  17.217 -0.2504  0.0539  0.1862
 1310TIP3    H125421   2.043   2.154  17.227  0.2660 -1.0297  0.3490
 1310TIP3    H225422   1.965   2.029  17.263 -0.5146 -1.2888 -2.0409
 1311TIP3   OH225423   3.209   6.418   1.396 -0.1234  0.3609  0.2520
 1311TIP3    H125424   3.270   6.453   1.461 -0.5212  0.8793  0.3514
 1311TIP3    H225425   3.214   6.323   1.406  1.2102  0.3502 -0.2285
 1312TIP3   OH225426   4.315   3.169  15.990  0.3652  0.3431 -0.0837
 1312TIP3    H125427   4.294   3.083  16.026 -1.5771  0.2160 -1.3744
 1312TIP3    H225428   4.341   3.221  16.066 -2.5476 -0.2127  1.4571
 1313TIP3   OH225429   4.545   4.131   2.197  0.4541  0.0678  0.5089
 1313TIP3    H125430   4.628   4.149   2.153 -0.7217  0.0500 -1.9018
 1313TIP3    H225431   4.549   4.183   2.278  2.5482  0.5049  0.1905
 1314TIP3   OH225432   3.941   0.053  12.855  0.0754  0.9594  0.2816
 1314TIP3    H125433   3.877   0.024  12.790  1.8699 -2.4700 -0.1684
 1314TIP3    H225434   3.889   0.101  12.920 -2.3339  1.4106 -1.8065
 1315TIP3   OH225435   2.161   5.598   1.550  0.6096  0.1702  1.1490
 1315TIP3    H125436   2.075   5.633   1.573  0.0750 -0.3716  0.0609
 1315TIP3    H225437   2.177   5.530   1.615  1.7150  2.3778  3.3607
 1316TIP3   OH225438   0.603   6.212   4.318  0.0405 -0.1985  0.4259
 1316TIP3    H125439   0.581   6.218   4.225  0.9840  0.7868  0.2346
 1316TIP3    H225440   0.572   6.126   4.345  0.3918 -0.8000 -0.9791
 1317TIP3   OH225441   3.712   4.456  12.129 -0.2493 -0.0411  0.7016
 1317TIP3    H125442   3.625   4.417  12.119 -0.1742 -0.2817  0.9745
 1317TIP3    H225443   3.773   4.385  12.111 -0.0763  0.5565 -1.2673
 1318TIP3   OH225444   4.170   1.741  12.107  0.4639 -0.5713 -0.0254
 1318TIP3    H125445   4.128   1.671  12.058 -0.0748  0.1424 -0.6149
 1318TIP3    H225446   4.264   1.724  12.098  0.3967 -0.3038 -1.5839
 1319TIP3   OH225447   6.420   0.678   2.827 -0.1861 -0.4095  0.0303
 1319TIP3    H125448   6.450   0.721   2.747  2.1687 -0.5627  0.7371
 1319TIP3    H225449   6.408   0.749   2.890  1.5287 -0.5217  0.5452
 1320TIP3   OH225450   5.485   6.059   0.653  0.5076  0.1201  0.1363
 1320TIP3    H125451   5.529   6.002   0.717 -0.5080 -1.4763 -0.5202
 1320TIP3    H225452   5.529   6.039   0.570  0.7163  0.9471  0.0463
 1321TIP3   OH225453   0.931   0.498   1.748  0.6414 -0.4908 -0.0285
 1321TIP3    H125454   0.901   0.585   1.720  0.8167 -0.8806 -1.5225
 1321TIP3    H225455   0.872   0.437   1.703  0.2241 -1.1624  1.3672
 1322TIP3   OH225456   6.056   3.923   2.414 -0.5188 -0.1491  0.4587
 1322TIP3    H125457   6.073   3.844   2.465  2.3102 -0.7498 -1.1863
 1322TIP3    H225458   6.131   3.979   2.432 -0.3588  0.3652 -1.5700
 1323TIP3   OH225459   3.244   6.380   2.226 -0.1599  0.3775 -0.5515
 1323TIP3    H125460   3.216   6.471   2.214  1.8313  1.5950  2.7631
 1323TIP3    H225461   3.328   6.375   2.180  1.2351  1.2628  1.7115
 1324TIP3   OH225462   1.122   4.356  17.249 -0.5489  0.3824  0.0074
 1324TIP3    H125463   1.153   4.435  17.294 -0.9503  1.2913 -1.2796
 1324TIP3    H225464   1.086   4.388  17.167 -0.7909 -1.1475 -0.4989
 1325TIP3   OH225465   0.094   6.248  15.066 -0.4286  0.1891  0.4189
 1325TIP3    H125466   0.089   6.228  15.159 -1.4262 -1.1284  0.0949
 1325TIP3    H225467   0.013   6.295  15.047 -0.1574  0.5903  0.2378
 1326TIP3   OH225468   0.539   0.726  17.437 -0.3451  0.3366  0.4175
 1326TIP3    H125469   0.476   0.663  17.403  0.0727  0.4460 -0.6026
 1326TIP3    H225470   0.601   0.673  17.487  0.1156 -0.1131 -0.5919
 1327TIP3   OH225471   3.353   4.973   6.206 -0.1068  0.3773  0.5641
 1327TIP3    H125472   3.337   4.882   6.182 -2.4371  0.7961  0.2959
 1327TIP3    H225473   3.430   4.970   6.264  0.7250 -1.5485 -0.5528
 1328TIP3   OH225474   3.854   1.483  16.022 -0.0197 -0.1516 -0.2247
 1328TIP3    H125475   3.848   1.390  16.001  1.4776 -0.2966 -0.1217
 1328TIP3    H225476   3.940   1.509  15.990 -0.1896  1.0699  0.2581
 1329TIP3   OH225477   1.329   3.479   4.576 -0.3337  0.2626 -0.1277
 1329TIP3    H125478   1.286   3.532   4.644 -0.7535  0.3946 -0.4965
 1329TIP3    H225479   1.280   3.498   4.496 -0.1892 -0.3218 -0.3582
 1330TIP3   OH225480   3.101   4.542  16.572  0.6295 -0.1578  0.2919
 1330TIP3    H125481   3.010   4.511  16.574  0.8701 -0.9275 -0.0536
 1330TIP3    H225482   3.124   4.541  16.479  0.0523  2.9677  0.0329
 1331TIP3   OH225483   1.511   1.774  13.052  0.0002 -0.8667 -0.6423
 1331TIP3    H125484   1.572   1.716  13.008 -0.1663 -0.3639 -1.5533
 1331TIP3    H225485   1.454   1.808  12.983 -0.6089 -0.4755  0.0269
 1332TIP3   OH225486   3.012   1.817  11.273 -0.6084 -0.1818  0.0334
 1332TIP3    H125487   2.995   1.845  11.183 -0.3343  1.8331  0.5491
 1332TIP3    H225488   3.107   1.809  11.278 -0.4320  1.6158  0.5814
 1333TIP3   OH225489   6.122   4.281  15.259  0.4749 -0.2194  0.0751
 1333TIP3    H125490   6.102   4.243  15.345  1.4259  0.9696  0.8615
 1333TIP3    H225491   6.217   4.273  15.251  0.7556  2.0677  0.3673
 1334TIP3   OH225492   0.425   2.974   1.936 -0.5855 -0.6058  0.3334
 1334TIP3    H125493   0.353   3.017   1.981 -0.9604  1.1732 -1.8245
 1334TIP3    H225494   0.495   3.039   1.935  0.0042 -1.2313 -0.1969
 1335TIP3   OH225495   2.482   6.522   5.922  0.1371 -0.1255  0.0013
 1335TIP3    H125496   2.562   6.575   5.915 -0.2621  0.6967  1.3229
 1335TIP3    H225497   2.472   6.506   6.016  0.7055 -3.3419 -0.3707
 1336TIP3   OH225498   6.014   6.124  13.907 -0.1877 -0.1761 -0.2406
 1336TIP3    H125499   6.011   6.219  13.901 -0.0211 -0.1607 -0.0875
 1336TIP3    H225500   6.002   6.106  14.000  3.1402 -0.1684  0.2898
 1337TIP3   OH225501   3.799   0.002  13.236  0.1414  0.2178 -0.3380
 1337TIP3    H125502   3.828  -0.086  13.259  1.7658  1.0726  1.0615
 1337TIP3    H225503   3.730   0.022  13.299 -0.1431  0.0127 -0.5793
 1338TIP3   OH225504   1.795   4.915  13.299 -0.3177 -0.3343 -0.1365
 1338TIP3    H125505   1.846   4.984  13.342  1.3933 -1.4756 -0.2282
 1338TIP3    H225506   1.825   4.917  13.208 -0.8854 -0.6413 -0.3356
 1339TIP3   OH225507   1.028   1.761   3.702 -0.2893 -0.1575 -0.2309
 1339TIP3    H125508   1.028   1.667   3.717  1.1019 -0.2371 -0.6389
 1339TIP3    H225509   0.959   1.795   3.759 -1.1943 -1.4785 -0.5082
 1340TIP3   OH225510   0.972   3.443   3.388  0.3590 -0.0147 -0.3518
 1340TIP3    H125511   1.048   3.435   3.446  1.2091  1.3607 -1.2065
 1340TIP3    H225512   1.009   3.439   3.300 -0.4705  1.1396 -0.7798
 1341TIP3   OH225513   3.068   0.763  14.788  0.2201 -0.3528 -0.3862
 1341TIP3    H125514   3.005   0.726  14.850  1.6196 -3.2149 -0.5274
 1341TIP3    H225515   3.015   0.786  14.711 -1.1826  1.1262  0.9505
 1342TIP3   OH225516   3.192   0.527  12.732  0.4652  0.2034 -0.1368
 1342TIP3    H125517   3.111   0.522  12.683  0.4644  2.3108 -0.4365
 1342TIP3    H225518   3.177   0.472  12.809 -1.0355  0.1380 -0.4564
 1343TIP3   OH225519   0.130   3.142   2.676  0.3478 -0.4528 -0.3746
 1343TIP3    H125520   0.164   3.065   2.722 -0.0049 -0.1018  0.4858
 1343TIP3    H225521   0.036   3.128   2.673  0.4174 -0.7709 -1.5565
 1344TIP3   OH225522   4.214   5.088   4.223  0.6261  0.2850 -0.0036
 1344TIP3    H125523   4.172   5.144   4.288  0.4764 -1.6359  1.6578
 1344TIP3    H225524   4.301   5.070   4.260  0.7439 -0.3907 -0.5864
 1345TIP3   OH225525   6.684   3.461  13.535 -0.8973  0.1249  0.3790
 1345TIP3    H125526   6.725   3.389  13.489 -0.3087  0.3687  0.5137
 1345TIP3    H225527   6.732   3.539  13.506 -1.9427  0.5478 -0.2655
 1346TIP3   OH225528   1.467   6.357   5.792 -0.4898 -0.2848  0.6029
 1346TIP3    H125529   1.434   6.445   5.772  1.1873  0.2346  0.0055
 1346TIP3    H225530   1.440   6.305   5.716  1.0455  0.4221 -0.4830
 1347TIP3   OH225531   4.097   0.520   4.919  0.3240 -0.0308 -0.8067
 1347TIP3    H125532   4.185   0.550   4.942  0.6498 -1.4151 -0.1378
 1347TIP3    H225533   4.041   0.597   4.931  1.1036  0.3095  0.9082
 1348TIP3   OH225534   3.127   6.706  15.213 -0.0565  0.1469  0.0913
 1348TIP3    H125535   3.103   6.789  15.174 -0.9025  0.0194  0.3111
 1348TIP3    H225536   3.202   6.676  15.163 -0.4667  0.4876 -0.7454
 1349TIP3   OH225537   0.851   2.833   1.839 -0.0342  0.0383 -0.6493
 1349TIP3    H125538   0.805   2.897   1.784 -0.1695 -1.5107 -2.4571
 1349TIP3    H225539   0.942   2.838   1.810  0.1114 -0.0187 -0.2052
 1350TIP3   OH225540   6.565   1.643   1.198  0.3938  0.6722 -0.2864
 1350TIP3    H125541   6.510   1.567   1.214  1.6245  0.2041  2.2388
 1350TIP3    H225542   6.504   1.717   1.194 -0.6856 -0.2358 -1.2806
 1351TIP3   OH225543   2.645   0.546  12.831 -0.0459  0.4943  0.0842
 1351TIP3    H125544   2.598   0.491  12.769  0.9051 -1.8175  1.3008
 1351TIP3    H225545   2.733   0.554  12.794  0.4464 -0.6709  0.9406
 1352TIP3   OH225546   5.563   6.371   6.731  0.3779  0.1765  0.0915
 1352TIP3    H125547   5.626   6.312   6.772  0.4480 -1.5571 -2.2824
 1352TIP3    H225548   5.488   6.370   6.790  0.9511 -1.1160  0.8553
 1353TIP3   OH225549   4.586   2.779  11.676  0.3927 -0.0045  0.1770
 1353TIP3    H125550   4.518   2.790  11.610  1.2282 -1.2376 -0.9481
 1353TIP3    H225551   4.635   2.861  11.675 -1.6273  1.3382  1.7574
 1354TIP3   OH225552   6.247   4.035  13.603 -0.2527  0.1530  0.0821
 1354TIP3    H125553   6.204   4.078  13.677  2.8124 -1.6085  3.1425
 1354TIP3    H225554   6.195   3.956  13.588 -1.3658  0.9239 -0.2631
 1355TIP3   OH225555   0.612   1.204  12.674  0.3779 -0.5836  0.1447
 1355TIP3    H125556   0.568   1.260  12.609  2.8122 -0.6945 -1.7153
 1355TIP3    H225557   0.546   1.193  12.743 -1.6582  1.1436 -1.3574
 1356TIP3   OH225558   3.070   1.120   1.803 -0.8233  0.4127 -1.2853
 1356TIP3    H125559   3.101   1.211   1.807 -1.0043  0.4511  1.7693
 1356TIP3    H225560   3.135   1.071   1.853 -1.8091 -0.7772 -1.1280
 1357TIP3   OH225561   4.075   4.451  12.391  0.2280  0.4628  0.1993
 1357TIP3    H125562   4.154   4.487  12.351  0.6589 -2.2313 -1.6540
 1357TIP3    H225563   4.108   4.382  12.449 -0.7302  0.3527  0.6207
 1358TIP3   OH225564   6.689   4.545   5.278 -0.0970  0.1228  0.3644
 1358TIP3    H125565   6.733   4.477   5.329  0.3404  0.2664  0.1808
 1358TIP3    H225566   6.596   4.521   5.282 -0.1034  0.2790  1.4562
 1359TIP3   OH225567   2.998   0.204  14.048  0.0330  0.0277 -0.2573
 1359TIP3    H125568   2.928   0.155  14.006  0.1271  1.3701 -2.0928
 1359TIP3    H225569   3.074   0.189  13.993  0.1526  1.8652 -0.6464
 1360TIP3   OH225570   1.003   5.150   3.401 -0.3343 -0.2118  0.2587
 1360TIP3    H125571   0.957   5.199   3.470 -2.5407  0.1362 -1.3646
 1360TIP3    H225572   0.939   5.085   3.372  2.1205 -3.4570  1.5477
 1361TIP3   OH225573   1.814   0.841   0.837 -0.0244 -0.8184 -0.3325
 1361TIP3    H125574   1.908   0.831   0.823 -0.0569 -0.0144 -1.2459
 1361TIP3    H225575   1.780   0.864   0.751 -0.9734 -0.4845  0.1236
 1362TIP3   OH225576   4.883   5.548  12.189 -0.7011 -0.2508  0.5211
 1362TIP3    H125577   4.879   5.643  12.176 -1.1763 -0.2609  0.5612
 1362TIP3    H225578   4.917   5.514  12.107  0.1073  0.0067  0.7437
 1363TIP3   OH225579   5.557   5.538  12.588 -0.3004  0.5708  0.0770
 1363TIP3    H125580   5.638   5.551  12.538  0.6608  0.0522  1.4255
 1363TIP3    H225581   5.499   5.608  12.558 -0.0517 -0.1384 -2.2515
 1364TIP3   OH225582   0.944   1.010   6.178 -0.2792 -0.1270 -0.3787
 1364TIP3    H125583   1.009   0.964   6.231  1.0578 -0.2876 -2.0645
 1364TIP3    H225584   0.898   0.940   6.130  0.2658  0.1469 -1.3164
 1365TIP3   OH225585   2.785   5.315  13.178 -0.1134  0.2506 -0.2831
 1365TIP3    H125586   2.722   5.291  13.245 -0.9720  0.9690 -0.8184
 1365TIP3    H225587   2.832   5.234  13.159 -1.6841 -0.5915 -0.7428
 1366TIP3   OH225588   1.600   6.242   1.394 -0.0879 -0.5709  0.1380
 1366TIP3    H125589   1.653   6.280   1.463  0.0703 -0.3567 -0.0977
 1366TIP3    H225590   1.525   6.203   1.439  1.1249 -2.4132  0.6439
 1367TIP3   OH225591   4.761   0.437   4.452 -0.6698 -0.0979  0.7370
 1367TIP3    H125592   4.751   0.355   4.404 -2.1912 -0.5451  1.7530
 1367TIP3    H225593   4.846   0.428   4.496 -1.3231 -1.6605  1.7664
 1368TIP3   OH225594   1.847   6.737   0.248  0.1580  0.4181 -0.3466
 1368TIP3    H125595   1.865   6.711   0.158  2.9386  0.6765  0.0514
 1368TIP3    H225596   1.823   6.829   0.243 -0.9748  0.1118 -0.8989
 1369TIP3   OH225597   1.400   5.248  12.599  0.2791 -0.1994 -0.3218
 1369TIP3    H125598   1.457   5.219  12.670 -0.7347 -0.8703  0.2509
 1369TIP3    H225599   1.318   5.201  12.614 -0.9019  1.7365 -0.3050
 1370TIP3   OH225600   4.721   6.469  16.168 -0.3200  0.7087  0.0961
 1370TIP3    H125601   4.810   6.502  16.184 -0.7569  2.0369 -0.0666
 1370TIP3    H225602   4.666   6.548  16.167 -1.4055 -0.0288 -0.5016
 1371TIP3   OH225603   0.669   3.115   5.456  0.6493  0.3593  0.1960
 1371TIP3    H125604   0.690   3.033   5.412  0.1259  1.0738 -1.5015
 1371TIP3    H225605   0.721   3.181   5.409 -0.9865  1.3444 -0.3371
 1372TIP3   OH225606   6.187   4.172   1.753  0.6123  0.0203  0.0894
 1372TIP3    H125607   6.194   4.232   1.679  0.5854 -1.8347 -1.5126
 1372TIP3    H225608   6.142   4.095   1.717  1.8614 -1.5115  1.6384
 1373TIP3   OH225609   0.146   2.290   2.353 -0.1097 -0.0918  0.4483
 1373TIP3    H125610   0.205   2.317   2.424 -0.3887  1.1794  0.2021
 1373TIP3    H225611   0.203   2.242   2.293  0.3200 -0.3726  1.0559
 1374TIP3   OH225612   4.458   1.736  12.685  0.1940  0.0437 -0.4136
 1374TIP3    H125613   4.422   1.819  12.718 -1.7657 -1.1233  0.5559
 1374TIP3    H225614   4.503   1.761  12.605 -0.9736  1.9794 -0.5493
 1375TIP3   OH225615   0.950   3.769  17.090 -0.6953 -0.3993  0.7679
 1375TIP3    H125616   0.924   3.797  17.002 -0.2468  2.6975  1.4922
 1375TIP3    H225617   1.018   3.831  17.115  0.4017 -2.2619  2.6862
 1376TIP3   OH225618   1.783   2.649  16.272  0.0916 -0.5375 -0.9262
 1376TIP3    H125619   1.714   2.701  16.313 -0.6812 -0.8093 -1.8390
 1376TIP3    H225620   1.737   2.599  16.204  0.7594 -2.6462  0.1166
 1377TIP3   OH225621   2.730   4.246  13.096 -0.2234 -0.1831 -0.2710
 1377TIP3    H125622   2.773   4.226  13.180 -0.3442  0.2049 -0.1160
 1377TIP3    H225623   2.671   4.319  13.116  1.0791  1.1276 -1.0897
 1378TIP3   OH225624   0.855   5.053  15.877  0.2260 -0.1412 -0.0404
 1378TIP3    H125625   0.813   5.019  15.798 -0.8263 -0.4325  0.6233
 1378TIP3    H225626   0.945   5.073  15.850  0.3335 -1.6792 -0.9394
 1379TIP3   OH225627   0.937   6.133  11.136  0.1444  0.6676  0.4440
 1379TIP3    H125628   0.889   6.056  11.167  1.2314  0.4359  1.6356
 1379TIP3    H225629   0.913   6.202  11.197 -0.8492  1.3178 -0.6360
 1380TIP3   OH225630   6.322   5.270   3.773  0.0712  0.5835 -0.2029
 1380TIP3    H125631   6.348   5.361   3.762 -1.3506  1.0188 -0.1768
 1380TIP3    H225632   6.400   5.226   3.807  0.6014  1.9042  0.3291
 1381TIP3   OH225633   3.812   5.027   3.907 -0.7012 -0.4630  0.1734
 1381TIP3    H125634   3.853   5.104   3.870 -0.4209 -1.1899 -1.0893
 1381TIP3    H225635   3.879   4.987   3.962 -0.3762 -0.5518 -0.2816
 1382TIP3   OH225636   2.510   5.112  16.591  0.2843 -0.3703  0.3213
 1382TIP3    H125637   2.522   5.179  16.524 -0.0313  0.3916  1.0059
 1382TIP3    H225638   2.447   5.151  16.653  0.7295 -0.9621  1.1694
 1383TIP3   OH225639   0.353   6.574   4.875  0.2818  0.1864  0.2445
 1383TIP3    H125640   0.325   6.613   4.958 -1.2524  1.8799 -0.9779
 1383TIP3    H225641   0.372   6.649   4.819  0.3029 -0.8929 -1.2447
 1384TIP3   OH225642   0.858   1.384  15.030  0.5611 -0.5107 -0.3678
 1384TIP3    H125643   0.814   1.345  14.955 -4.0016 -0.7136  2.0138
 1384TIP3    H225644   0.847   1.479  15.019  0.0509 -0.5340 -0.1213
 1385TIP3   OH225645   3.851   0.708   5.711  0.2593 -0.2261 -0.1535
 1385TIP3    H125646   3.836   0.657   5.791 -0.7931  0.1932 -0.0658
 1385TIP3    H225647   3.897   0.648   5.653 -1.7936 -1.6516 -0.4197
 1386TIP3   OH225648   5.377   6.497  12.554 -0.5503 -0.6938  0.0414
 1386TIP3    H125649   5.456   6.482  12.606 -0.5580  0.4752  0.4291
 1386TIP3    H225650   5.402   6.476  12.464  0.6332  0.9384 -0.0506
 1387TIP3   OH225651   6.532   3.163   1.806  0.0046  0.3199  0.1737
 1387TIP3    H125652   6.594   3.182   1.736  0.3573  0.3286  0.4828
 1387TIP3    H225653   6.539   3.238   1.865 -2.8902  2.1232 -1.5510
 1388TIP3   OH225654   4.560   0.306   6.920 -0.1323  0.1879 -0.1102
 1388TIP3    H125655   4.637   0.327   6.974  0.4567  1.2493 -1.2948
 1388TIP3    H225656   4.591   0.318   6.830 -1.7935  1.0521 -0.6076
 1389TIP3   OH225657   6.279   3.510  13.002 -0.6920  0.5643  0.8595
 1389TIP3    H125658   6.220   3.438  13.022  0.0516 -0.0172  1.0242
 1389TIP3    H225659   6.243   3.550  12.923 -1.7075  0.6935  1.3712
 1390TIP3   OH225660   5.412   6.341  14.897 -0.0895 -0.2121 -0.2298
 1390TIP3    H125661   5.376   6.260  14.934 -1.7845  0.7722  0.4175
 1390TIP3    H225662   5.337   6.400  14.893  0.9452  1.0821 -1.4270
 1391TIP3   OH225663   3.779   3.148  13.326  0.5831 -0.6425  0.0167
 1391TIP3    H125664   3.699   3.201  13.322  0.9569 -0.0829 -0.1748
 1391TIP3    H225665   3.781   3.102  13.243  0.5409 -0.5421 -0.0401
 1392TIP3   OH225666   4.867   2.239   1.174  0.0667  0.5075  0.0472
 1392TIP3    H125667   4.877   2.255   1.267  0.4273  0.3449  0.0368
 1392TIP3    H225668   4.858   2.144   1.167 -0.0177  0.5240 -0.0790
 1393TIP3   OH225669   3.881   4.788   5.600 -0.1409  0.3544 -0.1579
 1393TIP3    H125670   3.930   4.720   5.647  0.7576  1.2596  0.2552
 1393TIP3    H225671   3.866   4.856   5.665  0.1021  1.1209 -0.8923
 1394TIP3   OH225672   2.953   5.693  10.573  0.1054  0.2444 -0.7869
 1394TIP3    H125673   2.949   5.598  10.587  0.6532  0.0893 -1.6273
 1394TIP3    H225674   3.014   5.725  10.639 -0.3306  0.0593 -0.2887
 1395TIP3   OH225675   4.074   3.213  13.297 -0.4445 -0.2748  0.2956
 1395TIP3    H125676   3.989   3.210  13.340 -0.6016  0.0860  0.0096
 1395TIP3    H225677   4.055   3.241  13.207 -0.1286 -1.1009 -0.0373
 1396TIP3   OH225678   6.464   6.565  14.188 -0.5006  0.3258 -0.0028
 1396TIP3    H125679   6.552   6.527  14.180 -1.2874 -2.1439  1.6980
 1396TIP3    H225680   6.428   6.526  14.268 -3.1652  1.2218 -0.6499
 1397TIP3   OH225681   3.330   1.700  15.606  0.2536  0.1563 -0.2396
 1397TIP3    H125682   3.391   1.773  15.615  0.3817  0.0724 -0.4174
 1397TIP3    H225683   3.301   1.682  15.696 -1.4635  1.8430 -0.4043
 1398TIP3   OH225684   1.257   1.889  10.624  0.0091  0.1280 -0.1220
 1398TIP3    H125685   1.185   1.952  10.623 -0.4056 -0.3201  0.6167
 1398TIP3    H225686   1.256   1.850  10.537 -0.5407  0.2539 -0.1788
 1399TIP3   OH225687   6.503   6.665   3.697 -0.2554 -0.3160 -0.0980
 1399TIP3    H125688   6.438   6.602   3.668  0.0657 -0.1715 -1.1583
 1399TIP3    H225689   6.583   6.614   3.709 -0.7558 -0.6860  2.1756
 1400TIP3   OH225690   2.378   2.565  11.675  0.2718  0.5367  0.2417
 1400TIP3    H125691   2.349   2.517  11.597  1.4972  2.0255 -1.2100
 1400TIP3    H225692   2.390   2.497  11.741  1.4657 -1.1738 -1.5834
 1401TIP3   OH225693   1.834   6.316   6.509 -0.2616  0.3536  0.4774
 1401TIP3    H125694   1.861   6.262   6.583 -1.5171  0.0171  0.7168
 1401TIP3    H225695   1.757   6.363   6.540 -0.4356  0.6867 -0.4122
 1402TIP3   OH225696   1.207   0.536   0.530 -0.9343  0.0376 -0.2445
 1402TIP3    H125697   1.227   0.623   0.564  0.5961 -0.1285 -0.6537
 1402TIP3    H225698   1.177   0.552   0.441  1.3269  0.0549 -1.0613
 1403TIP3   OH225699   0.755   6.371   4.836  0.0385  0.2866 -0.4463
 1403TIP3    H125700   0.788   6.315   4.906 -0.2907  1.3995  0.6397
 1403TIP3    H225701   0.692   6.316   4.790  2.0252 -1.2868 -1.4632
 1404TIP3   OH225702   6.241   6.604  15.407  0.4147  0.7792 -0.2748
 1404TIP3    H125703   6.173   6.663  15.375 -0.6095 -0.2741 -0.1024
 1404TIP3    H225704   6.211   6.579  15.494  0.8087 -0.0292 -0.3701
 1405TIP3   OH225705   6.028   1.629   2.206  0.1264  0.4349  0.1802
 1405TIP3    H125706   6.060   1.600   2.291 -1.9645 -2.2394  0.1779
 1405TIP3    H225707   5.953   1.685   2.226  0.7574  1.3382  0.0827
 1406TIP3   OH225708   6.734   6.567  15.160 -0.3928  0.4267  0.4884
 1406TIP3    H125709   6.821   6.605  15.173 -1.3659  2.7905  0.7504
 1406TIP3    H225710   6.677   6.616  15.219 -1.8919 -1.1931  0.4718
 1407TIP3   OH225711   5.378   2.149  14.062  0.1026  0.4094 -0.2410
 1407TIP3    H125712   5.458   2.194  14.037  1.1702 -1.4450 -0.3539
 1407TIP3    H225713   5.384   2.142  14.158 -0.9059  1.9547 -0.0285
 1408TIP3   OH225714   4.838   0.781  17.015  0.1472  0.1025  0.8017
 1408TIP3    H125715   4.795   0.708  16.970  3.6923 -1.2137 -0.8936
 1408TIP3    H225716   4.795   0.859  16.981 -1.4660 -1.1069 -0.0497
 1409TIP3   OH225717   0.512   2.478  13.928 -0.0065  0.4347  0.3491
 1409TIP3    H125718   0.452   2.543  13.892 -0.3079  0.1785  0.3838
 1409TIP3    H225719   0.479   2.394  13.897 -0.6661  0.1482  1.7286
 1410TIP3   OH225720   0.275   3.734   5.403  0.4879 -0.3137  0.0526
 1410TIP3    H125721   0.305   3.706   5.317  2.1680  0.7242  0.2685
 1410TIP3    H225722   0.348   3.713   5.462  0.6246  1.7965  0.7006
 1411TIP3   OH225723   6.117   5.578  17.437  0.0337  0.2256  0.4384
 1411TIP3    H125724   6.185   5.555  17.373 -0.3047  0.5672 -0.0572
 1411TIP3    H225725   6.054   5.631  17.387 -0.7939 -0.4023  0.7823
 1412TIP3   OH225726   4.185   3.271   4.161 -0.5082 -0.3409 -0.6663
 1412TIP3    H125727   4.275   3.297   4.146 -0.1758 -0.7219  0.5675
 1412TIP3    H225728   4.133   3.346   4.131  0.3459  1.1957  1.4935
 1413TIP3   OH225729   1.105   1.309   4.355 -0.5147  0.1032 -0.8790
 1413TIP3    H125730   1.113   1.399   4.389 -0.4697 -0.4444  0.6503
 1413TIP3    H225731   1.100   1.255   4.434  1.0407 -1.3891 -1.7429
 1414TIP3   OH225732   1.360   4.023  15.739  0.4799 -0.0106 -0.0401
 1414TIP3    H125733   1.395   3.965  15.807  0.9099 -0.7981 -0.9006
 1414TIP3    H225734   1.390   3.983  15.657 -0.6486  0.5073 -0.7170
 1415TIP3   OH225735   1.977   6.317  14.831 -0.1975 -0.5585 -0.1663
 1415TIP3    H125736   1.978   6.286  14.741  0.2104 -0.1541 -0.3065
 1415TIP3    H225737   1.950   6.241  14.883 -2.1304 -0.3403 -0.7981
 1416TIP3   OH225738   5.816   4.791  16.899 -0.9343  0.0764  0.6423
 1416TIP3    H125739   5.898   4.812  16.855 -0.8858  2.3452  1.6921
 1416TIP3    H225740   5.769   4.875  16.906 -1.6006 -0.4187  3.4824
 1417TIP3   OH225741   6.443   6.490   1.051  0.0755 -0.4368 -0.0585
 1417TIP3    H125742   6.427   6.426   0.981 -2.0252 -0.3370  0.2541
 1417TIP3    H225743   6.398   6.452   1.127  0.4008  0.5332  0.6229
 1418TIP3   OH225744   2.649   3.915  15.154 -0.0124  0.2642  0.7671
 1418TIP3    H125745   2.733   3.954  15.132 -0.8274  1.9254  0.4466
 1418TIP3    H225746   2.635   3.849  15.085  0.3439  1.0341 -0.0648
 1419TIP3   OH225747   2.240   2.157  15.950  0.1097  1.4368 -0.1855
 1419TIP3    H125748   2.175   2.220  15.982  0.8629  2.4795 -0.6523
 1419TIP3    H225749   2.324   2.202  15.961  0.6631  0.5182 -0.5601
 1420TIP3   OH225750   6.586   3.276   3.088 -0.3157 -0.1419  0.0984
 1420TIP3    H125751   6.595   3.283   2.993 -0.2028 -1.3847 -0.0078
 1420TIP3    H225752   6.504   3.319   3.108 -0.4049  0.0168 -0.5856
 1421TIP3   OH225753   2.708   6.085   2.618 -0.0918  0.4127  0.3107
 1421TIP3    H125754   2.641   6.131   2.568 -1.3903 -1.1460  0.5395
 1421TIP3    H225755   2.781   6.147   2.624 -1.7559  2.4501  0.6512
 1422TIP3   OH225756   4.757   1.092  11.225  0.0897 -0.4067 -0.4972
 1422TIP3    H125757   4.730   1.003  11.202  0.1569 -0.4760 -0.3136
 1422TIP3    H225758   4.795   1.127  11.145 -0.5628 -0.2973 -0.7612
 1423TIP3   OH225759   2.963   5.310   2.223  0.5748 -0.3226  0.0754
 1423TIP3    H125760   3.014   5.391   2.217 -1.1750  0.8150 -0.0902
 1423TIP3    H225761   2.942   5.287   2.133 -1.0899  0.4966  0.2250
 1424TIP3   OH225762   6.474   1.623  15.315 -0.1919  0.7055 -0.5235
 1424TIP3    H125763   6.560   1.660  15.336 -1.0479  2.2553  0.4242
 1424TIP3    H225764   6.494   1.534  15.285  1.6685  0.6352  0.6932
 1425TIP3   OH225765   5.092   2.041   1.939  0.2030  0.1681  0.4244
 1425TIP3    H125766   5.055   1.953   1.929  1.8540 -0.6360  1.0050
 1425TIP3    H225767   5.130   2.062   1.854 -1.4594  0.9834 -0.1642
 1426TIP3   OH225768   5.491   1.619  12.310  0.2908 -0.1344 -0.6763
 1426TIP3    H125769   5.450   1.569  12.239 -0.1876 -1.1981  0.3178
 1426TIP3    H225770   5.537   1.690  12.266 -3.3610  1.7389 -1.8343
 1427TIP3   OH225771   2.103   4.795  12.965  0.0744 -0.3612 -0.0523
 1427TIP3    H125772   2.112   4.822  12.874 -1.1137  1.1500  0.2246
 1427TIP3    H225773   2.014   4.822  12.989  0.0312 -1.5683  1.2964
 1428TIP3   OH225774   2.244   4.729   3.556  0.7100 -0.1620 -0.4859
 1428TIP3    H125775   2.260   4.705   3.647 -3.0768 -1.5630 -0.0162
 1428TIP3    H225776   2.227   4.823   3.558  1.5464 -0.0081  0.0533
 1429TIP3   OH225777   6.009   4.881   5.599  0.0849 -0.3291 -0.1862
 1429TIP3    H125778   6.059   4.875   5.518  0.2410  0.0603 -0.1206
 1429TIP3    H225779   6.060   4.833   5.663 -0.2004 -0.9222 -0.3910
 1430TIP3   OH225780   4.810   0.119  12.391 -0.8529  0.8922  0.2900
 1430TIP3    H125781   4.782   0.122  12.483  2.1354  0.1505  1.3330
 1430TIP3    H225782   4.869   0.194  12.382 -0.0593  0.1763 -0.6173
 1431TIP3   OH225783   4.326   4.096  13.778 -0.8156 -0.4359 -0.2710
 1431TIP3    H125784   4.332   4.130  13.867  1.1421  2.3076 -1.2871
 1431TIP3    H225785   4.233   4.079  13.764 -1.4971  1.4816  1.4860
 1432TIP3   OH225786   5.654   2.621   5.605 -0.2634  0.1340  0.3713
 1432TIP3    H125787   5.704   2.684   5.554 -1.6505  1.2168  0.2885
 1432TIP3    H225788   5.615   2.673   5.675 -0.7326 -0.7957  0.8168
 1433TIP3   OH225789   1.459   3.755   5.196 -0.4070 -0.4047 -0.8660
 1433TIP3    H125790   1.547   3.724   5.219 -0.3158  0.7321  0.4282
 1433TIP3    H225791   1.474   3.820   5.128  0.0949  1.8163  1.2124
 1434TIP3   OH225792   4.243   4.227   2.928  0.1034  0.5813 -0.4577
 1434TIP3    H125793   4.170   4.285   2.905  1.0291  1.7035 -0.6554
 1434TIP3    H225794   4.225   4.146   2.880 -2.3280 -0.1360  1.5048
 1435TIP3   OH225795   5.509   0.360  14.372  0.5463  0.5537 -0.3634
 1435TIP3    H125796   5.593   0.315  14.359  2.1090  3.0630  0.1692
 1435TIP3    H225797   5.453   0.295  14.413  2.6001 -0.9492  0.2364
 1436TIP3   OH225798   1.179   5.091  12.314  0.0017  0.0327  0.2288
 1436TIP3    H125799   1.234   5.169  12.319  1.0058 -0.7098  1.1797
 1436TIP3    H225800   1.166   5.065  12.405 -0.0694 -1.0684 -0.0807
 1437TIP3   OH225801   2.237   2.497   4.804  0.0013 -0.4663  0.6291
 1437TIP3    H125802   2.248   2.473   4.712 -1.5482  1.6682 -0.1978
 1437TIP3    H225803   2.277   2.584   4.811  2.2474 -1.5720  2.6032
 1438TIP3   OH225804   1.349   0.764   0.192  0.3024  0.2330 -0.2049
 1438TIP3    H125805   1.371   0.850   0.157  1.1471  1.3002  2.6821
 1438TIP3    H225806   1.430   0.731   0.230 -0.6858 -0.4310  1.4643
 1439TIP3   OH225807   6.293   0.881  11.540 -1.0001 -0.5773  0.1001
 1439TIP3    H125808   6.325   0.961  11.581 -1.3858  0.6025 -1.7605
 1439TIP3    H225809   6.215   0.909  11.491 -0.6588 -1.9019 -1.2749
 1440TIP3   OH225810   1.476   6.689   5.906  0.1185  0.5933 -0.1321
 1440TIP3    H125811   1.442   6.599   5.907 -1.3902  1.0673 -2.1034
 1440TIP3    H225812   1.403   6.741   5.873  0.8557  2.6230  1.2623
 1441TIP3   OH225813   2.627   3.314   2.108 -1.0490 -0.1081  0.0692
 1441TIP3    H125814   2.642   3.232   2.155 -2.0912 -0.8963 -0.9252
 1441TIP3    H225815   2.536   3.336   2.125 -0.7823  0.8581  0.3141
 1442TIP3   OH225816   5.581   6.718  14.468 -0.1597  0.0698 -0.4402
 1442TIP3    H125817   5.527   6.670  14.531  0.1813 -0.8857 -0.8464
 1442TIP3    H225818   5.558   6.810  14.482  1.7382  0.2103  2.8683
 1443TIP3   OH225819   6.506   2.273   5.091 -0.0293 -0.2218 -0.2432
 1443TIP3    H125820   6.514   2.288   4.997 -0.3584 -0.1974 -0.2687
 1443TIP3    H225821   6.506   2.360   5.130  0.2802 -0.2389 -0.2068
 1444TIP3   OH225822   5.817   1.751  13.220  0.1239 -0.3394  0.1610
 1444TIP3    H125823   5.850   1.731  13.132  0.0838 -2.1730  0.5284
 1444TIP3    H225824   5.872   1.699  13.278 -0.6696 -0.1090  1.1285
 1445TIP3   OH225825   2.630   1.101  13.447 -0.0545 -0.0321  0.4222
 1445TIP3    H125826   2.558   1.044  13.419  0.0883  1.2581 -3.1179
 1445TIP3    H225827   2.704   1.042  13.462 -0.3340 -0.9823 -1.6133
 1446TIP3   OH225828   4.585   0.570   0.467 -0.3006 -0.3902 -0.7270
 1446TIP3    H125829   4.527   0.517   0.522 -1.3327  0.3585 -1.0709
 1446TIP3    H225830   4.658   0.594   0.525 -1.8681  1.2515  0.6743
 1447TIP3   OH225831   3.049   1.203  10.780 -0.1432 -0.3302  0.1556
 1447TIP3    H125832   3.083   1.283  10.740  0.1029 -0.3352  0.3549
 1447TIP3    H225833   3.068   1.134  10.716  3.2356 -0.9313  1.6049
 1448TIP3   OH225834   2.325   5.419   2.502  0.5736 -0.0051  0.1013
 1448TIP3    H125835   2.387   5.403   2.573  2.0582 -0.7954 -1.3037
 1448TIP3    H225836   2.326   5.515   2.491 -0.9036  0.2874  2.1504
 1449TIP3   OH225837   0.435   4.019   0.941  0.1091  0.1122  0.4072
 1449TIP3    H125838   0.395   4.105   0.942 -1.2179 -0.3787 -2.3557
 1449TIP3    H225839   0.366   3.960   0.971  0.3416 -0.2015  0.3326
 1450TIP3   OH225840   4.965   2.242  11.090 -0.4386 -0.7216  0.1647
 1450TIP3    H125841   4.889   2.252  11.033  0.1783  3.3290 -0.2448
 1450TIP3    H225842   5.017   2.173  11.049 -1.4191  0.0423 -2.5794
 1451TIP3   OH225843   6.076   0.582  16.827  0.0485  0.5591  0.0189
 1451TIP3    H125844   6.084   0.672  16.797 -2.6356  1.0955  0.6416
 1451TIP3    H225845   6.134   0.576  16.903 -0.2561  1.9827  0.3796
 1452TIP3   OH225846   4.887   6.021  12.834  0.2845 -0.4292  0.0945
 1452TIP3    H125847   4.851   5.936  12.861  0.6834 -0.5216  0.3476
 1452TIP3    H225848   4.860   6.081  12.903 -0.2267 -0.2891 -0.2201
 1453TIP3   OH225849   6.027   2.354  12.236 -0.4580  0.6341  0.4759
 1453TIP3    H125850   6.004   2.263  12.215  0.5609  0.9726 -2.7624
 1453TIP3    H225851   6.112   2.349  12.278  0.2259  0.1073 -0.9193
 1454TIP3   OH225852   3.194   1.719  12.758 -0.7144 -0.0117  0.5067
 1454TIP3    H125853   3.156   1.773  12.827 -0.7505 -0.3243  0.7321
 1454TIP3    H225854   3.228   1.782  12.694 -0.3529  0.2830  0.9850
 1455TIP3   OH225855   4.424   5.841  12.040 -0.5992  0.3724  0.2692
 1455TIP3    H125856   4.399   5.750  12.028  0.6903 -0.0887  0.9911
 1455TIP3    H225857   4.431   5.852  12.135  0.3340  0.9191  0.1448
 1456TIP3   OH225858   0.401   0.891  11.034  0.3346  0.0778 -0.6500
 1456TIP3    H125859   0.353   0.839  10.969 -0.4617  0.6782 -0.5598
 1456TIP3    H225860   0.378   0.852  11.118  0.9723 -0.3869 -0.6815
 1457TIP3   OH225861   4.338   5.626  14.905 -0.1715  0.0497  0.1232
 1457TIP3    H125862   4.434   5.620  14.902 -0.2205 -1.1845  0.6131
 1457TIP3    H225863   4.321   5.719  14.921  1.0139  0.0002  2.0039
 1458TIP3   OH225864   4.775   5.807  15.915  0.6323  0.3174 -0.0658
 1458TIP3    H125865   4.770   5.902  15.930  1.3925  0.3374  0.0995
 1458TIP3    H225866   4.712   5.791  15.844 -1.1280  0.6003  1.3658
 1459TIP3   OH225867   5.311   1.330   1.564  0.1567 -0.1099  0.5942
 1459TIP3    H125868   5.381   1.391   1.588 -0.4201  0.3358  1.1716
 1459TIP3    H225869   5.230   1.381   1.575 -0.2305 -0.4308 -0.6365
 1460TIP3   OH225870   1.059   4.465  16.983  0.2595  0.2966  0.3137
 1460TIP3    H125871   0.992   4.439  16.919 -1.4295  0.5939  1.8680
 1460TIP3    H225872   1.132   4.495  16.930 -0.1258 -1.7019 -1.4940
 1461TIP3   OH225873   4.284   3.932   4.970 -0.3302  0.5958 -0.2397
 1461TIP3    H125874   4.198   3.903   5.002 -0.6575  2.1222  0.3505
 1461TIP3    H225875   4.330   3.961   5.049  0.7241 -0.1665 -0.5636
 1462TIP3   OH225876   5.791   5.918   0.463 -0.4153 -0.5228 -0.0464
 1462TIP3    H125877   5.820   5.884   0.378 -0.7845 -0.7386 -0.0923
 1462TIP3    H225878   5.815   6.010   0.461  2.0565 -1.0722  0.7223
 1463TIP3   OH225879   6.201   0.218  11.669 -0.2929 -0.0844  0.0160
 1463TIP3    H125880   6.180   0.137  11.716 -0.8477  0.9632  1.6334
 1463TIP3    H225881   6.134   0.223  11.600 -1.7835  0.2042  1.4283
 1464TIP3   OH225882   2.193   0.959  12.679  0.2796  0.1916 -0.1161
 1464TIP3    H125883   2.221   1.040  12.637 -0.9285 -0.4318 -2.2991
 1464TIP3    H225884   2.209   0.891  12.613 -1.4281 -0.9146  0.5301
 1465TIP3   OH225885   0.971   2.245  12.520 -0.3853 -0.2786 -0.2919
 1465TIP3    H125886   0.889   2.255  12.472 -0.6474  2.9188  0.5961
 1465TIP3    H225887   0.955   2.171  12.580 -2.5038  0.0779 -0.3417
 1466TIP3   OH225888   1.704   0.534   4.128  0.0880 -0.3891  0.0645
 1466TIP3    H125889   1.675   0.511   4.216 -0.6773 -1.7543 -0.5130
 1466TIP3    H225890   1.763   0.608   4.141 -0.4621 -0.1919  1.6632
 1467TIP3   OH225891   1.102   1.076  16.130 -0.4623  0.6160  0.2855
 1467TIP3    H125892   1.144   1.119  16.055 -0.6829  2.2113  1.0453
 1467TIP3    H225893   1.059   0.999  16.092 -0.1758  1.1347 -1.1481
 1468TIP3   OH225894   2.709   4.416   0.863  0.2631 -0.0197  0.4515
 1468TIP3    H125895   2.705   4.321   0.875 -0.0512  0.0242  0.7211
 1468TIP3    H225896   2.730   4.428   0.771 -1.9956 -0.3433 -0.1685
 1469TIP3   OH225897   2.327   1.505  15.406 -0.4563  0.2560 -0.8078
 1469TIP3    H125898   2.392   1.498  15.475 -0.4893  0.1179 -0.7913
 1469TIP3    H225899   2.364   1.568  15.344 -1.4203  2.1704  0.4628
 1470TIP3   OH225900   0.715   5.988   5.794 -0.4839  0.3836  0.2110
 1470TIP3    H125901   0.706   5.991   5.889  1.0213 -0.1765  0.4027
 1470TIP3    H225902   0.720   5.894   5.773  1.5857  0.5152 -0.1209
 1471TIP3   OH225903   2.647   1.314  16.137  0.5387  0.3915  0.8756
 1471TIP3    H125904   2.560   1.333  16.171  0.0463 -1.4934  0.7736
 1471TIP3    H225905   2.688   1.400  16.126 -1.6135  1.3851  0.0823
 1472TIP3   OH225906   4.161   3.114   2.817  0.1069 -0.3384 -0.3329
 1472TIP3    H125907   4.223   3.048   2.848  0.0820 -1.0634 -1.7630
 1472TIP3    H225908   4.077   3.086   2.854 -0.3382 -2.4470 -2.6715
 1473TIP3   OH225909   4.829   4.471  16.107 -0.0601  0.7652  0.1876
 1473TIP3    H125910   4.832   4.567  16.101  0.5196  0.9688  2.5616
 1473TIP3    H225911   4.919   4.443  16.090 -0.1902  0.6542 -0.3216
 1474TIP3   OH225912   4.162   1.440  16.700  1.0081  0.5462 -0.6943
 1474TIP3    H125913   4.078   1.475  16.727  1.1240  0.4316 -0.1673
 1474TIP3    H225914   4.140   1.367  16.642  0.7689  1.5330 -1.8766
 1475TIP3   OH225915   5.670   3.657   3.701  0.0880 -0.0788 -0.3714
 1475TIP3    H125916   5.624   3.578   3.730  0.0722 -0.1280 -0.5308
 1475TIP3    H225917   5.637   3.726   3.760  1.9959 -0.6452  1.4590
 1476TIP3   OH225918   2.992   2.850   5.481 -0.1130  0.1177  0.2679
 1476TIP3    H125919   3.049   2.775   5.496 -0.4781 -0.0360  0.9076
 1476TIP3    H225920   3.045   2.926   5.504 -0.1785 -0.0268  0.8996
 1477TIP3   OH225921   2.664   0.186   0.933  0.4978  0.3420  0.2177
 1477TIP3    H125922   2.641   0.273   0.968  1.7093  0.5562  0.5113
 1477TIP3    H225923   2.640   0.190   0.841 -0.8077  0.4781  0.5349
 1478TIP3   OH225924   4.346   4.544   3.655 -0.0767  0.0244  0.8769
 1478TIP3    H125925   4.349   4.457   3.614 -0.4644  0.9465 -1.1977
 1478TIP3    H225926   4.294   4.597   3.595  1.5010  2.1237  1.2870
 1479TIP3   OH225927   0.492   0.313   2.463 -0.2544  0.1711  0.4821
 1479TIP3    H125928   0.428   0.377   2.493 -1.0691 -0.3145 -0.1893
 1479TIP3    H225929   0.546   0.295   2.541  0.0364  1.6877  0.6648
 1480TIP3   OH225930   2.713   2.074  14.968 -0.2069 -0.5440 -0.2432
 1480TIP3    H125931   2.644   2.092  15.032  0.4944  1.2545  0.0761
 1480TIP3    H225932   2.707   1.980  14.952 -1.0188 -0.8830  1.7468
 1481TIP3   OH225933   1.848   1.452   4.812  0.2671 -0.1956  0.3545
 1481TIP3    H125934   1.807   1.373   4.776 -0.5140  0.8896 -1.2762
 1481TIP3    H225935   1.927   1.420   4.855 -1.7155 -2.2797  2.8088
 1482TIP3   OH225936   0.540   6.744  14.024 -0.0716 -0.0306  0.5128
 1482TIP3    H125937   0.479   6.799  14.073  0.3422 -0.1895  1.2152
 1482TIP3    H225938   0.622   6.793  14.024  0.0226 -0.1873  0.2647
 1483TIP3   OH225939   5.905   4.256   5.036 -0.2345 -0.3247  0.4949
 1483TIP3    H125940   5.870   4.307   5.109  0.8226  1.6725 -0.3124
 1483TIP3    H225941   5.998   4.280   5.033 -0.6277  1.2407 -2.6868
 1484TIP3   OH225942   4.732   1.545  13.597  0.2990  0.2636 -0.7612
 1484TIP3    H125943   4.726   1.513  13.507 -0.7916 -1.5653 -0.0651
 1484TIP3    H225944   4.825   1.537  13.619  0.1826 -1.8321 -0.8636
 1485TIP3   OH225945   2.324   6.278   2.435  0.0858  0.1350  0.0052
 1485TIP3    H125946   2.258   6.209   2.429  1.1465 -0.8028 -2.1686
 1485TIP3    H225947   2.277   6.359   2.414 -0.6230 -0.3312 -0.2207
 1486TIP3   OH225948   2.775   0.232  13.209 -0.2007  0.7117  0.4710
 1486TIP3    H125949   2.812   0.145  13.222  0.5696  0.6690 -1.5994
 1486TIP3    H225950   2.684   0.217  13.185  0.0396  0.4429 -0.2855
 1487TIP3   OH225951   0.752   2.357  17.282  0.5611  0.7512  0.3116
 1487TIP3    H125952   0.711   2.395  17.360 -0.5145  1.5114 -0.5877
 1487TIP3    H225953   0.679   2.339  17.223  1.3058 -0.3728 -0.2993
 1488TIP3   OH225954   3.143   1.350  13.552  0.7229  0.0163 -0.0103
 1488TIP3    H125955   3.102   1.420  13.501  0.1085 -0.7920 -0.6502
 1488TIP3    H225956   3.227   1.334  13.508  1.0615  0.6280  0.3930
 1489TIP3   OH225957   1.169   3.835   1.581  0.9447 -0.1449 -0.3511
 1489TIP3    H125958   1.145   3.774   1.650 -1.2470  1.6832  0.6133
 1489TIP3    H225959   1.265   3.838   1.584  0.9438  0.6103  3.3581
 1490TIP3   OH225960   2.926   6.523  13.895  0.3396  0.1680  0.3572
 1490TIP3    H125961   2.854   6.470  13.929  0.4693 -2.0843 -2.4790
 1490TIP3    H225962   3.005   6.479  13.925  0.4615 -2.0378 -2.6788
 1491TIP3   OH225963   0.519   4.667   4.869  0.1479  0.7100  0.2351
 1491TIP3    H125964   0.556   4.665   4.781  2.2036  1.9053  0.9845
 1491TIP3    H225965   0.565   4.598   4.916 -2.7457 -1.6919 -0.1510
 1492TIP3   OH225966   6.077   2.222  15.587  0.1733 -0.0178 -0.4302
 1492TIP3    H125967   6.155   2.273  15.564  0.4342 -1.0182 -1.8947
 1492TIP3    H225968   6.112   2.141  15.625 -0.1790 -0.1101 -0.3010
 1493TIP3   OH225969   5.781   1.890   6.065  0.0004 -0.4206 -0.1622
 1493TIP3    H125970   5.775   1.812   6.009 -0.7108  1.0276 -2.2284
 1493TIP3    H225971   5.833   1.952   6.014 -2.4923  1.7506 -0.2649
 1494TIP3   OH225972   6.748   5.207  13.658 -0.1416 -0.5943 -0.0929
 1494TIP3    H125973   6.805   5.134  13.685  0.7692  0.9674  2.6383
 1494TIP3    H225974   6.748   5.266  13.733 -2.8074  1.0850 -1.2723
 1495TIP3   OH225975   2.730   4.138   6.419  0.3849  0.1743  0.0696
 1495TIP3    H125976   2.748   4.119   6.327 -0.3140  2.2041 -0.5421
 1495TIP3    H225977   2.684   4.221   6.417 -1.0889 -0.5238  2.1668
 1496TIP3   OH225978   0.449   3.675  13.206  0.2326 -0.1109 -0.2888
 1496TIP3    H125979   0.522   3.616  13.224  0.8587  0.8298  0.2994
 1496TIP3    H225980   0.443   3.730  13.283  0.5325  1.5112 -1.3811
 1497TIP3   OH225981   3.978   1.879  15.197 -0.2841  0.2092  0.5267
 1497TIP3    H125982   3.976   1.975  15.191  0.0415  0.1149 -2.2897
 1497TIP3    H225983   3.912   1.850  15.135  2.6606 -1.3631 -2.1294
 1498TIP3   OH225984   3.221   3.730  11.290 -0.0210  0.6048  0.0768
 1498TIP3    H125985   3.217   3.821  11.321 -0.2298  1.1954 -1.5879
 1498TIP3    H225986   3.209   3.678  11.369 -0.2687  2.0286  1.0233
 1499TIP3   OH225987   1.811   5.820   0.715  0.1030  0.3312 -0.2840
 1499TIP3    H125988   1.729   5.788   0.679  0.9904 -2.3541 -0.1304
 1499TIP3    H225989   1.785   5.869   0.793 -1.3406 -1.5906  0.5337
 1500TIP3   OH225990   1.979   2.602   2.203  0.1271  0.4579  0.0553
 1500TIP3    H125991   1.998   2.662   2.275 -1.8990 -0.0497  1.0893
 1500TIP3    H225992   2.052   2.613   2.143  2.1948  0.5152  2.4272
 1501TIP3   OH225993   3.316   1.245  16.488 -0.3190 -0.6014  0.4821
 1501TIP3    H125994   3.337   1.204  16.404  1.1376  1.0328 -0.0212
 1501TIP3    H225995   3.227   1.278  16.477 -1.0096 -2.3727  0.4347
 1502TIP3   OH225996   5.450   5.679   0.803  0.0899 -0.0974  0.4935
 1502TIP3    H125997   5.500   5.736   0.745 -0.0832 -0.2923  0.1522
 1502TIP3    H225998   5.467   5.591   0.771 -1.5354 -0.0958 -0.4867
 1503TIP3   OH225999   6.709   3.888  16.496 -0.2715 -0.4129 -0.9837
 1503TIP3    H126000   6.619   3.856  16.505 -0.0547 -0.7846  0.0353
 1503TIP3    H226001   6.701   3.983  16.492 -0.5948 -0.2979  1.2938
 1504TIP3   OH226002   0.549   4.232   6.160  0.0859  0.3685  0.2333
 1504TIP3    H126003   0.486   4.255   6.229 -0.4046 -0.6805  0.1497
 1504TIP3    H226004   0.514   4.273   6.081  1.1549  2.4151  0.7256
 1505TIP3   OH226005   4.456   0.815  12.586  0.2202 -0.3935 -0.0820
 1505TIP3    H126006   4.444   0.819  12.681  1.2981 -2.1734  0.1788
 1505TIP3    H226007   4.368   0.798  12.551  0.3489 -4.2598  1.0391
 1506TIP3   OH226008   1.836   2.541  11.609 -0.0495  0.5312  0.5258
 1506TIP3    H126009   1.764   2.603  11.613  0.0031  0.6055  0.3317
 1506TIP3    H226010   1.891   2.572  11.537 -0.9836 -0.7907 -0.8169
 1507TIP3   OH226011   2.728   5.391   5.180  0.4843 -0.2449  0.2978
 1507TIP3    H126012   2.716   5.367   5.088 -1.3020 -1.9155  0.9046
 1507TIP3    H226013   2.816   5.359   5.202  0.4315 -0.9753 -0.5007
 1508TIP3   OH226014   2.183   2.178   1.567 -0.2846  0.0120 -0.3723
 1508TIP3    H126015   2.167   2.203   1.658  1.4175  1.0958 -0.3365
 1508TIP3    H226016   2.189   2.082   1.570 -1.4577 -0.0671  0.4139
 1509TIP3   OH226017   3.088   1.054   0.793  0.5125  0.5018  0.3130
 1509TIP3    H126018   3.125   1.040   0.881  1.3116 -0.3337 -0.1409
 1509TIP3    H226019   3.084   1.149   0.785  0.7220  0.5955  1.1430
 1510TIP3   OH226020   2.875   2.583   0.807 -0.9827  0.1558  0.2328
 1510TIP3    H126021   2.905   2.674   0.798 -1.2275  0.3250  1.0286
 1510TIP3    H226022   2.788   2.582   0.767 -0.3530 -0.1051 -1.1866
 1511TIP3   OH226023   3.695   2.632  13.506 -0.2326  0.0865 -0.1878
 1511TIP3    H126024   3.751   2.688  13.452 -0.1649 -0.8221 -1.0819
 1511TIP3    H226025   3.629   2.692  13.541  0.6973  0.9897  0.0714
 1512TIP3   OH226026   4.857   1.638   5.950 -0.2819  0.0619 -0.3500
 1512TIP3    H126027   4.895   1.574   5.891  0.9951 -2.3705  2.8288
 1512TIP3    H226028   4.771   1.603   5.973  0.0280 -0.0672  0.6736
 1513TIP3   OH226029   2.971   2.368   6.320 -0.0458  0.1179 -0.1555
 1513TIP3    H126030   3.005   2.379   6.232  0.1937  1.5148  0.0891
 1513TIP3    H226031   2.895   2.310   6.310  0.7452 -0.7707 -1.0796
 1514TIP3   OH226032   1.301   1.616  13.097  0.1165 -0.6724 -0.3166
 1514TIP3    H126033   1.390   1.640  13.123  0.3965  0.0818 -1.8340
 1514TIP3    H226034   1.311   1.581  13.008 -1.0479 -1.0269 -0.3228
 1515TIP3   OH226035   5.235   5.696  12.507 -0.4219 -0.6791 -0.4797
 1515TIP3    H126036   5.284   5.746  12.442 -1.5926  2.7583  1.0313
 1515TIP3    H226037   5.192   5.627  12.456 -0.2095  0.9884 -3.1618
 1516TIP3   OH226038   3.084   3.873  13.623  0.0310  0.5180 -0.3461
 1516TIP3    H126039   3.162   3.823  13.598  1.5391  1.6284  1.7776
 1516TIP3    H226040   3.021   3.807  13.651  0.7520 -0.3544 -0.7344
 1517TIP3   OH226041   3.480   0.497  15.479 -0.2584 -0.1399 -0.2324
 1517TIP3    H126042   3.421   0.494  15.404 -1.3566 -1.1040  0.6257
 1517TIP3    H226043   3.484   0.590  15.503 -0.4124  0.0922 -1.0686
 1518TIP3   OH226044   6.145   6.537  15.902 -0.2301  0.1134 -1.0459
 1518TIP3    H126045   6.193   6.529  15.984 -0.1428 -1.0095 -1.1885
 1518TIP3    H226046   6.053   6.539  15.928 -0.1804  0.3353 -0.8887
 1519TIP3   OH226047   4.453   0.717  13.353  0.2108 -0.1855  0.0601
 1519TIP3    H126048   4.474   0.690  13.263 -0.5677 -2.3126  0.4684
 1519TIP3    H226049   4.385   0.655  13.381 -1.4830  2.0525  1.2150
 1520TIP3   OH226050   3.426   2.541   0.198 -0.2792 -0.0094 -0.5576
 1520TIP3    H126051   3.468   2.463   0.234  1.5779  1.5786  0.9266
 1520TIP3    H226052   3.332   2.522   0.204  0.0734 -1.5731  1.1071
 1521TIP3   OH226053   2.517   6.443   5.148  0.2363  0.0028  0.2236
 1521TIP3    H126054   2.501   6.534   5.173 -0.5218 -0.4852  1.6393
 1521TIP3    H226055   2.592   6.416   5.201 -1.2193 -0.9681  1.8795
 1522TIP3   OH226056   4.371   6.109   1.609  0.2150 -0.5719  0.0107
 1522TIP3    H126057   4.449   6.131   1.558  1.6003 -3.0612  0.8975
 1522TIP3    H226058   4.357   6.016   1.594 -1.1895 -0.6981  1.7240
 1523TIP3   OH226059   0.993   2.782  13.911  0.0855 -0.1150 -0.5739
 1523TIP3    H126060   0.943   2.783  13.829 -1.9847  0.5617  0.6445
 1523TIP3    H226061   0.933   2.815  13.977  2.2470  1.0122  0.9564
 1524TIP3   OH226062   5.467   5.885  12.533 -0.2923  0.0750 -0.3168
 1524TIP3    H126063   5.540   5.946  12.520 -0.4971  0.8877  1.9859
 1524TIP3    H226064   5.425   5.914  12.614 -4.7828  1.2407 -2.7115
 1525TIP3   OH226065   6.191   6.267   4.338  0.1262  0.4558  0.2983
 1525TIP3    H126066   6.103   6.287   4.307  0.9627  0.6150 -2.1656
 1525TIP3    H226067   6.205   6.176   4.312  0.9799  0.6904 -0.0825
 1526TIP3   OH226068   4.456   1.242   3.328  0.0593  0.1956 -0.1377
 1526TIP3    H126069   4.545   1.242   3.290 -0.4177 -0.3773 -1.3185
 1526TIP3    H226070   4.437   1.149   3.342 -0.6429  0.2556 -0.6291
 1527TIP3   OH226071   3.720   4.166   4.201  0.2982 -0.8376 -0.0114
 1527TIP3    H126072   3.666   4.135   4.128  0.7378  0.0590 -0.7375
 1527TIP3    H226073   3.658   4.176   4.274 -0.8805  1.6413 -1.2286
 1528TIP3   OH226074   0.309   3.039  17.463 -0.4488 -0.8579 -0.0127
 1528TIP3    H126075   0.292   3.111  17.402 -1.0558  0.6427  1.8582
 1528TIP3    H226076   0.388   3.065  17.510 -1.8023 -0.3766  2.0920
 1529TIP3   OH226077   6.307   2.184   2.094  0.4047 -0.5313  0.0053
 1529TIP3    H126078   6.361   2.210   2.169  0.7077 -0.8729 -0.0870
 1529TIP3    H226079   6.225   2.155   2.133  0.4199 -0.3436  0.1783
 1530TIP3   OH226080   4.205   1.802   5.790  0.3466 -0.0311  0.2289
 1530TIP3    H126081   4.178   1.712   5.809 -1.5449  0.2072 -1.0594
 1530TIP3    H226082   4.277   1.794   5.728 -1.1406 -0.6691 -1.4665
 1531TIP3   OH226083   6.145   1.787   1.426 -0.2194 -0.0114  0.1403
 1531TIP3    H126084   6.163   1.693   1.422  0.6074  0.1928 -1.8204
 1531TIP3    H226085   6.211   1.826   1.368 -3.0785  1.3963 -2.3968
 1532TIP3   OH226086   5.297   0.144   1.957 -0.5200 -0.1012  0.3746
 1532TIP3    H126087   5.367   0.087   1.926 -0.4085 -0.5704  1.4508
 1532TIP3    H226088   5.232   0.085   1.995 -1.1697  0.3844  0.0535
 1533TIP3   OH226089   1.421   2.161  10.922  0.5265 -0.2385  0.4948
 1533TIP3    H126090   1.451   2.173  10.832 -0.8828 -1.3547 -0.1662
 1533TIP3    H226091   1.501   2.163  10.974  1.3679  0.4881 -0.7558
 1534TIP3   OH226092   6.421   2.926  12.292 -0.0056  0.1813 -0.3314
 1534TIP3    H126093   6.446   2.833  12.297 -2.3673 -0.4567  2.4938
 1534TIP3    H226094   6.504   2.973  12.297  1.1304 -1.7962  0.5597
 1535TIP3   OH226095   3.696   0.927   2.813  0.1093  0.0610 -0.1077
 1535TIP3    H126096   3.750   0.989   2.763  0.1778 -1.0030 -1.4252
 1535TIP3    H226097   3.609   0.934   2.774  0.5863 -2.1393 -1.7601
 1536TIP3   OH226098   4.470   3.874   3.712  0.6382 -0.1041 -0.5011
 1536TIP3    H126099   4.491   3.822   3.635  0.8898 -0.8029  0.0380
 1536TIP3    H226100   4.528   3.950   3.707  1.5520 -0.7848 -0.3295
 1537TIP3   OH226101   5.544   0.378   5.025 -0.1619 -0.2635 -0.4481
 1537TIP3    H126102   5.524   0.469   5.003 -1.3397 -0.9267 -2.3289
 1537TIP3    H226103   5.460   0.332   5.017  0.5402 -1.6442 -0.1704
 1538TIP3   OH226104   5.381   3.290  14.635 -0.0635 -0.0692  0.2701
 1538TIP3    H126105   5.303   3.250  14.674 -0.8595  2.2423  1.2708
 1538TIP3    H226106   5.399   3.237  14.557 -2.3012 -1.0306  0.3226
 1539TIP3   OH226107   1.064   5.117  15.718  0.0858  0.6284  0.4932
 1539TIP3    H126108   1.063   5.061  15.640  1.6371 -0.4856  1.2225
 1539TIP3    H226109   1.013   5.194  15.693  0.8048  0.4457 -1.7294
 1540TIP3   OH226110   5.680   4.518   1.440 -0.6359  0.7715 -0.0841
 1540TIP3    H126111   5.735   4.448   1.475 -0.8859  0.7203  0.2078
 1540TIP3    H226112   5.725   4.545   1.359  0.7825  1.9354  1.0461
 1541TIP3   OH226113   0.296   0.866   5.685 -0.3007 -0.2716  0.4194
 1541TIP3    H126114   0.389   0.881   5.666  0.1145 -0.9142  1.8045
 1541TIP3    H226115   0.259   0.837   5.601  1.0773 -1.4240  0.1726
 1542TIP3   OH226116   5.640   4.739   5.185 -0.0934  0.1235  0.1039
 1542TIP3    H126117   5.733   4.720   5.177 -0.0897  0.7211 -1.7450
 1542TIP3    H226118   5.597   4.685   5.119 -1.0489  0.0372  0.7598
 1543TIP3   OH226119   0.044   1.273   6.042 -0.3763 -0.0475 -0.7813
 1543TIP3    H126120  -0.025   1.301   6.102 -0.6675 -0.8259 -0.7391
 1543TIP3    H226121   0.124   1.276   6.094 -0.3326  1.1014 -0.9017
 1544TIP3   OH226122   4.523   3.577  11.717  0.1636  0.4778 -0.0850
 1544TIP3    H126123   4.509   3.582  11.622  1.3721  1.0913 -0.2465
 1544TIP3    H226124   4.436   3.591  11.755 -0.1911  1.0847 -1.0879
 1545TIP3   OH226125   4.634   6.054   1.535 -0.0414  1.3298 -0.3612
 1545TIP3    H126126   4.666   6.044   1.445  0.4100  0.8808 -0.1559
 1545TIP3    H226127   4.681   6.129   1.570  0.9577  0.5549  0.0031
 1546TIP3   OH226128   2.752   0.553   1.250 -0.4720  0.3305  0.2067
 1546TIP3    H126129   2.730   0.537   1.158 -0.8811  1.0975  0.1633
 1546TIP3    H226130   2.846   0.572   1.248 -0.3437 -0.3094  0.0364
 1547TIP3   OH226131   4.488   0.901   4.710 -0.3803 -0.0612  0.7035
 1547TIP3    H126132   4.556   0.834   4.699 -0.8881 -0.5283  0.3609
 1547TIP3    H226133   4.424   0.881   4.642 -0.7224  0.5508  0.8417
 1548TIP3   OH226134   2.312   5.426   4.240  0.4218 -0.1610  0.2107
 1548TIP3    H126135   2.267   5.443   4.157  0.0002 -1.9790  0.0178
 1548TIP3    H226136   2.370   5.501   4.252 -0.8938  1.0672 -0.7632
 1549TIP3   OH226137   5.559   0.024   6.286 -0.2325 -0.0577  0.5976
 1549TIP3    H126138   5.559   0.102   6.342 -1.2069  1.3879 -1.3273
 1549TIP3    H226139   5.647   0.023   6.248 -0.8550  1.4062 -1.0132
 1550TIP3   OH226140   5.661   6.126  12.096 -0.4927 -0.0996  0.7966
 1550TIP3    H126141   5.613   6.168  12.025  0.4605  0.7682  0.6388
 1550TIP3    H226142   5.751   6.155  12.085 -0.1318 -0.7856  1.7479
 1551TIP3   OH226143   1.966   0.715  13.267 -0.0693  0.0063  0.5750
 1551TIP3    H126144   2.024   0.639  13.274 -0.0360  0.0657  0.9864
 1551TIP3    H226145   2.020   0.781  13.224  0.0601 -0.0487  0.6493
 1552TIP3   OH226146   5.877   4.381   0.192 -0.1157 -0.0360 -0.5151
 1552TIP3    H126147   5.844   4.431   0.117  0.9308 -1.0866 -1.7157
 1552TIP3    H226148   5.946   4.437   0.229  0.6737 -0.3181 -1.5163
 1553TIP3   OH226149   2.128   5.885  12.398 -0.0914  0.1844 -0.4556
 1553TIP3    H126150   2.069   5.957  12.373  0.4500  0.8957  0.2784
 1553TIP3    H226151   2.092   5.851  12.480  0.5119  0.6151 -0.0102
 1554TIP3   OH226152   5.930   4.094  11.719 -0.0572 -0.4513 -0.0900
 1554TIP3    H126153   5.856   4.148  11.689 -0.7709  0.5637  3.1718
 1554TIP3    H226154   5.891   4.008  11.733  0.2644 -0.9147 -1.7484
 1555TIP3   OH226155   3.969   4.384   1.833 -0.5558  0.3212 -0.2720
 1555TIP3    H126156   4.041   4.412   1.776 -0.0340  1.0372  0.7216
 1555TIP3    H226157   3.891   4.390   1.778 -0.1685  1.7646 -0.6922
 1556TIP3   OH226158   0.458   6.262  16.995  0.2237  0.0997  0.2679
 1556TIP3    H126159   0.511   6.184  16.976 -0.2353  0.0454 -0.8642
 1556TIP3    H226160   0.521   6.327  17.027  0.8262 -0.2809 -0.1375
 1557TIP3   OH226161   1.748   5.797  16.208 -0.7186 -0.4618  0.3896
 1557TIP3    H126162   1.665   5.830  16.174  0.6637  0.9625 -1.8444
 1557TIP3    H226163   1.749   5.704  16.182 -0.5473  0.1225 -1.9453
 1558TIP3   OH226164   5.460   1.208  16.103 -0.4688 -0.0573  0.2522
 1558TIP3    H126165   5.423   1.251  16.026 -0.1328  0.5777  0.4470
 1558TIP3    H226166   5.504   1.130  16.069  1.2714  1.1722 -0.4405
 1559TIP3   OH226167   5.244   0.073   4.633 -0.4550  0.6408  0.1832
 1559TIP3    H126168   5.156   0.098   4.605 -0.8030 -0.3777  0.2925
 1559TIP3    H226169   5.294   0.154   4.634 -1.2968  1.1736 -0.2513
 1560TIP3   OH226170   3.981   2.538  14.733  0.0976 -0.2945  0.1940
 1560TIP3    H126171   3.944   2.462  14.776 -1.0072 -0.1848 -0.5260
 1560TIP3    H226172   3.917   2.608  14.747  0.8383  0.3657  0.3890
 1561TIP3   OH226173   3.592   3.656  17.308  0.2575  0.3728  0.0271
 1561TIP3    H126174   3.647   3.595  17.358 -0.9517 -1.5009 -0.7959
 1561TIP3    H226175   3.505   3.616  17.311 -0.2717  1.3092 -1.8127
 1562TIP3   OH226176   5.521   5.822   1.532  0.5148  0.1417  0.1738
 1562TIP3    H126177   5.564   5.898   1.493  0.2755  0.5518  0.7052
 1562TIP3    H226178   5.464   5.790   1.462 -1.8127  2.3704  0.8950
 1563TIP3   OH226179   1.379   4.887  15.447 -0.5135 -0.1966  0.2163
 1563TIP3    H126180   1.333   4.963  15.411 -0.6041 -0.3860 -0.0740
 1563TIP3    H226181   1.467   4.918  15.466 -0.8164  0.2280  0.9798
 1564TIP3   OH226182   6.411   1.342  11.213 -0.3231 -0.0995  0.1686
 1564TIP3    H126183   6.393   1.372  11.302 -1.7207 -0.6439  0.1055
 1564TIP3    H226184   6.335   1.371  11.162  1.5197  2.3362 -1.4325
 1565TIP3   OH226185   4.560   6.223  16.602  0.0642  0.7185 -0.1904
 1565TIP3    H126186   4.561   6.297  16.542 -0.3010 -0.1585 -1.3333
 1565TIP3    H226187   4.504   6.158  16.559 -0.7423  0.3010  1.4238
 1566TIP3   OH226188   4.127   0.692   2.872  0.0599 -0.4289 -0.0446
 1566TIP3    H126189   4.197   0.729   2.925  0.1480 -1.9976  1.0163
 1566TIP3    H226190   4.135   0.735   2.787  0.8629  1.0642  0.7454
 1567TIP3   OH226191   3.862   4.463   2.347 -0.2022  0.0844 -0.4799
 1567TIP3    H126192   3.937   4.493   2.296 -1.0012  1.0440 -1.1441
 1567TIP3    H226193   3.789   4.516   2.315 -0.9270  0.0373  0.9935
 1568TIP3   OH226194   3.385   4.913  14.714 -0.6940 -0.3826 -0.2715
 1568TIP3    H126195   3.443   4.868  14.776 -1.9007  0.9921  1.9939
 1568TIP3    H226196   3.402   5.006  14.729 -0.6725 -0.0062 -2.4233
 1569TIP3   OH226197   6.067   5.968   1.241  0.3111 -0.1534 -0.1246
 1569TIP3    H126198   6.133   5.903   1.262 -2.4715 -2.7249  1.3707
 1569TIP3    H226199   6.042   5.948   1.151  0.7254  0.0946 -0.3008
 1570TIP3   OH226200   5.404   3.889   0.531  0.2877 -0.1779 -0.4685
 1570TIP3    H126201   5.429   3.919   0.444  1.4486  0.6523  0.1333
 1570TIP3    H226202   5.346   3.814   0.514 -0.7235  0.8861 -1.9545
 1571TIP3   OH226203   6.308   0.334   3.182 -0.1466 -0.0593 -0.1250
 1571TIP3    H126204   6.380   0.328   3.119 -0.2337  1.0617 -0.3538
 1571TIP3    H226205   6.267   0.418   3.163 -1.0123 -0.3142  0.5524
 1572TIP3   OH226206   5.053   2.499   4.761 -0.4755 -0.1377 -0.2099
 1572TIP3    H126207   5.135   2.464   4.796 -1.0919 -0.9100  0.5102
 1572TIP3    H226208   5.024   2.433   4.697 -0.4817  0.1865 -0.5459
 1573TIP3   OH226209   3.824   4.836   3.718 -0.2975  0.5024  0.3904
 1573TIP3    H126210   3.890   4.779   3.758  0.4098  1.3262  0.4459
 1573TIP3    H226211   3.816   4.910   3.778  0.2061  1.3764 -0.5740
 1574TIP3   OH226212   4.079   0.719  14.389  0.8677 -0.3390  0.2159
 1574TIP3    H126213   4.033   0.711  14.473  0.5604 -0.1064  0.0679
 1574TIP3    H226214   4.031   0.661  14.330  1.3748 -0.8767  0.3238
 1575TIP3   OH226215   4.349   2.344   1.499  0.0611 -0.0401 -0.1357
 1575TIP3    H126216   4.325   2.338   1.406 -0.2550  0.7549 -0.1173
 1575TIP3    H226217   4.431   2.295   1.505 -0.0055 -0.2564 -0.7994
 1576TIP3   OH226218   5.491   5.576  14.822  0.2264 -0.1180  0.1183
 1576TIP3    H126219   5.486   5.667  14.794  3.8764  0.2333  0.1216
 1576TIP3    H226220   5.486   5.525  14.741  1.2127  0.3017 -0.2184
 1577TIP3   OH226221   4.854   2.321   4.347  0.2390 -0.5346 -0.3337
 1577TIP3    H126222   4.772   2.328   4.395  1.1833 -0.0381  1.2695
 1577TIP3    H226223   4.894   2.240   4.379  2.4778  1.4647  2.4919
 1578TIP3   OH226224   4.832   5.126  13.174 -0.2452 -0.0843  0.8105
 1578TIP3    H126225   4.890   5.184  13.124 -0.6278 -0.0647  0.3803
 1578TIP3    H226226   4.798   5.181  13.245 -1.1976  0.4632 -0.0281
 1579TIP3   OH226227   3.438   6.496  15.599 -0.4355  0.0954  0.3854
 1579TIP3    H126228   3.367   6.517  15.660 -0.7692 -0.0692  0.0586
 1579TIP3    H226229   3.473   6.581  15.574 -1.1936  0.2341 -0.2413
 1580TIP3   OH226230   5.250   5.492  14.499  0.3700  0.1965  0.0358
 1580TIP3    H126231   5.226   5.406  14.535  1.0785 -0.4927 -1.0804
 1580TIP3    H226232   5.336   5.511  14.535  0.1543  0.5239  0.3948
 1581TIP3   OH226233   4.311   5.954   3.267  0.3752  0.0150 -0.0291
 1581TIP3    H126234   4.244   5.919   3.326 -0.4923  0.5221 -0.6813
 1581TIP3    H226235   4.392   5.912   3.295 -0.1160 -0.1989  1.1402
 1582TIP3   OH226236   1.968   5.956  11.744 -0.9046  0.8582 -0.1287
 1582TIP3    H126237   2.009   5.910  11.670 -0.1446  1.0986  0.1276
 1582TIP3    H226238   1.992   6.048  11.732 -0.2748  0.8203  0.7218
 1583TIP3   OH226239   0.689   6.571   0.297 -0.1654 -0.6665  0.3059
 1583TIP3    H126240   0.609   6.612   0.330 -0.3221  0.1130 -0.9488
 1583TIP3    H226241   0.658   6.493   0.251 -0.6015  1.1050 -2.6443
 1584TIP3   OH226242   3.302   4.130  12.462  0.2765 -0.3843  0.4007
 1584TIP3    H126243   3.260   4.044  12.460 -1.2676  0.2848  1.4108
 1584TIP3    H226244   3.322   4.145  12.555  0.3833  0.3983  0.2592
 1585TIP3   OH226245   0.500   3.758  12.914 -0.4941  0.5461  0.1203
 1585TIP3    H126246   0.492   3.725  13.003 -0.0500  1.5860  0.5651
 1585TIP3    H226247   0.575   3.817  12.917 -1.2980  1.6573 -0.6004
 1586TIP3   OH226248   0.849   1.528  14.408 -0.5215  0.5784 -0.7158
 1586TIP3    H126249   0.760   1.527  14.442  0.2394  2.5761  1.6464
 1586TIP3    H226250   0.850   1.602  14.346 -0.7376 -0.1145 -1.5649
 1587TIP3   OH226251   6.286   1.494   0.411  0.3460  0.3644  0.2637
 1587TIP3    H126252   6.331   1.559   0.465 -0.6958  2.0727 -0.8551
 1587TIP3    H226253   6.208   1.470   0.461 -0.0617  1.1468  0.0205
 1588TIP3   OH226254   2.183   5.230  12.555  0.3007 -0.4250  0.4315
 1588TIP3    H126255   2.232   5.173  12.496  0.8761 -0.1739  0.6602
 1588TIP3    H226256   2.204   5.197  12.642  0.0756 -0.2995  0.5337
 1589TIP3   OH226257   2.241   1.958  14.322 -0.3438  0.0928  0.1960
 1589TIP3    H126258   2.265   2.051  14.320 -0.8667  0.2225 -0.6012
 1589TIP3    H226259   2.226   1.939  14.414 -0.1057  0.7658  0.3832
 1590TIP3   OH226260   4.394   3.545  13.820  1.4135  0.2320 -0.4124
 1590TIP3    H126261   4.384   3.634  13.786 -0.5909  0.5797  0.8922
 1590TIP3    H226262   4.369   3.489  13.747 -1.9882  0.9369  0.0441
 1591TIP3   OH226263   2.915   3.625   5.990 -0.1155 -0.0198  0.4807
 1591TIP3    H126264   2.972   3.621   6.066 -0.9553  1.2077  1.2273
 1591TIP3    H226265   2.829   3.647   6.026 -0.5894  0.3245 -0.7905
 1592TIP3   OH226266   1.937   0.027   2.985  0.4431 -0.1123 -0.4359
 1592TIP3    H126267   1.979  -0.012   3.062 -0.4138  0.7333  0.4920
 1592TIP3    H226268   1.984  -0.010   2.910  0.0744 -2.4263  0.4043
 1593TIP3   OH226269   5.770   4.838  13.221  1.0334 -0.2681 -0.5933
 1593TIP3    H126270   5.842   4.776  13.233 -0.5424 -2.6764 -2.5584
 1593TIP3    H226271   5.709   4.817  13.292  1.1114  0.0524 -0.4258
 1594TIP3   OH226272   3.993   5.378   0.680 -0.5263 -0.1370 -0.4229
 1594TIP3    H126273   3.915   5.407   0.633 -1.4151  0.2086  1.1920
 1594TIP3    H226274   4.012   5.449   0.741 -0.3382 -1.2036  0.8002
 1595TIP3   OH226275   1.841   1.363  14.107  0.0043 -0.0498  0.1141
 1595TIP3    H126276   1.918   1.419  14.096 -0.9489  1.3782  0.4209
 1595TIP3    H226277   1.804   1.355  14.019 -0.6970  1.1013  0.2770
 1596TIP3   OH226278   0.713   5.434  16.102 -0.3201  0.4562 -0.2213
 1596TIP3    H126279   0.730   5.340  16.096 -2.8897 -0.3810  2.7107
 1596TIP3    H226280   0.787   5.468  16.153  0.6100  0.0784 -1.2676
 1597TIP3   OH226281   5.130   1.243  13.308 -0.0575  0.2029 -0.9756
 1597TIP3    H126282   5.034   1.249  13.310 -0.1408 -1.0576  0.5081
 1597TIP3    H226283   5.156   1.307  13.242 -1.6027  4.7198  2.2595
 1598TIP3   OH226284   1.741   1.323  14.774  0.3058  0.2750  0.4867
 1598TIP3    H126285   1.812   1.386  14.758  1.0350 -0.4526  0.7733
 1598TIP3    H226286   1.786   1.239  14.783 -0.6081 -0.2021  0.6394
 1599TIP3   OH226287   5.649   4.082  12.991 -0.0911  0.2231 -0.1243
 1599TIP3    H126288   5.632   4.004  12.938  3.1332 -1.5183  1.1372
 1599TIP3    H226289   5.679   4.148  12.930 -2.3087  0.3894 -1.1396
 1600TIP3   OH226290   0.461   5.119   4.616 -0.1842 -0.8672 -0.1355
 1600TIP3    H126291   0.380   5.083   4.578  0.2300 -0.1240 -1.8256
 1600TIP3    H226292   0.435   5.203   4.653 -0.0923 -0.3325 -1.2464
 1601TIP3   OH226293   3.393   3.435  11.396  0.2619  0.2043  0.6612
 1601TIP3    H126294   3.436   3.359  11.358 -0.7897  0.3932 -1.0113
 1601TIP3    H226295   3.332   3.400  11.460  0.7265 -0.2635  0.8473
 1602TIP3   OH226296   1.196   6.752   4.831 -0.2559 -0.7941 -0.8878
 1602TIP3    H126297   1.285   6.786   4.825  0.6126 -2.2568  2.0920
 1602TIP3    H226298   1.202   6.663   4.796 -0.6567 -0.7358 -1.1092
 1603TIP3   OH226299   5.004   5.611  16.372  0.0145 -0.2406  0.3103
 1603TIP3    H126300   4.998   5.689  16.428  0.8066 -0.3440  0.5502
 1603TIP3    H226301   5.033   5.645  16.287 -0.3630 -0.1859  0.2014
 1604TIP3   OH226302   5.927   3.289  15.195 -0.6564 -0.1296 -0.0460
 1604TIP3    H126303   5.967   3.222  15.250 -1.5757 -0.8746 -0.2675
 1604TIP3    H226304   5.927   3.368  15.249  0.9877 -0.1290 -0.0006
 1605TIP3   OH226305   4.630   3.197   1.061 -0.0667 -0.6085  0.0459
 1605TIP3    H126306   4.577   3.229   0.989 -0.7942 -3.2216 -0.6907
 1605TIP3    H226307   4.636   3.271   1.122 -0.8240  1.1354 -1.8892
 1606TIP3   OH226308   3.492   4.083   3.884 -0.8566  0.2477 -0.2601
 1606TIP3    H126309   3.496   4.178   3.887 -0.2758  0.2096  0.6685
 1606TIP3    H226310   3.501   4.056   3.975 -0.4212 -0.7125 -0.5739
 1607TIP3   OH226311   4.522   4.747   3.646  1.0668 -0.0644  0.5478
 1607TIP3    H126312   4.451   4.690   3.615  1.7051 -0.1203 -0.8938
 1607TIP3    H226313   4.519   4.822   3.587  1.5784  0.4012  1.1075
 1608TIP3   OH226314   2.671   0.440  12.177  0.4756  0.3704  0.4780
 1608TIP3    H126315   2.692   0.348  12.166 -0.2801  0.2204  0.1979
 1608TIP3    H226316   2.667   0.453  12.272 -1.4474 -0.3961  0.5422
 1609TIP3   OH226317   3.794   1.364   2.186 -0.5889 -0.4596 -0.0556
 1609TIP3    H126318   3.806   1.368   2.092 -1.2001 -2.7400 -0.2874
 1609TIP3    H226319   3.699   1.366   2.198 -0.5973  4.0650  0.8843
 1610TIP3   OH226320   4.582   5.808  14.669  0.5895  0.3971 -0.4711
 1610TIP3    H126321   4.658   5.867  14.673  0.4091  0.5711  1.1199
 1610TIP3    H226322   4.599   5.743  14.738  0.1473 -0.6418 -1.3267
 1611TIP3   OH226323   3.842   1.542   2.712 -0.2676  0.1321  0.1406
 1611TIP3    H126324   3.929   1.503   2.697 -0.3375  0.2483 -0.6133
 1611TIP3    H226325   3.841   1.620   2.657 -1.4009 -0.6873 -1.0687
 1612TIP3   OH226326   5.022   2.405  11.751 -0.1702 -0.5639 -0.7846
 1612TIP3    H126327   5.075   2.371  11.823 -0.2447  1.0081  0.0554
 1612TIP3    H226328   4.984   2.485  11.786 -0.4722  0.0605 -2.4773
 1613TIP3   OH226329   6.102   4.919   6.165 -0.2089 -0.6434 -0.5762
 1613TIP3    H126330   6.092   4.946   6.074 -0.3260  0.7944 -0.1690
 1613TIP3    H226331   6.189   4.879   6.169 -0.0164 -0.2929 -1.2222
 1614TIP3   OH226332   2.413   5.206  14.095  0.8368 -0.3331 -0.3256
 1614TIP3    H126333   2.426   5.296  14.124  3.0046 -0.2180 -1.4928
 1614TIP3    H226334   2.484   5.157  14.135  0.9908 -1.0814 -1.4539
 1615TIP3   OH226335   1.472   0.717  11.575  0.3378  0.5281 -0.0259
 1615TIP3    H126336   1.515   0.736  11.658 -2.1865  0.8773  1.2989
 1615TIP3    H226337   1.414   0.643  11.595  0.2825  0.0852 -1.6953
 1616TIP3   OH226338   3.844   0.583  15.882 -0.0644  0.3597 -0.0647
 1616TIP3    H126339   3.890   0.525  15.943  0.7407  0.4332 -0.5882
 1616TIP3    H226340   3.907   0.652  15.863 -1.0917  1.5587  0.7314
 1617TIP3   OH226341   5.970   3.211  14.828  0.3679  0.2066  0.0736
 1617TIP3    H126342   6.043   3.238  14.883  1.2721 -0.9714 -0.5053
 1617TIP3    H226343   5.956   3.119  14.850  0.7180 -0.2805 -1.6102
 1618TIP3   OH226344   3.068   6.650   0.531  0.3760  0.3958  0.1738
 1618TIP3    H126345   3.027   6.736   0.539 -1.0404 -0.2654  0.2886
 1618TIP3    H226346   2.995   6.590   0.514  0.9063 -1.2633  3.0663
 1619TIP3   OH226347   5.467   5.973  13.342  0.2477  0.1837 -0.1784
 1619TIP3    H126348   5.555   5.988  13.376  0.0366 -1.6127  1.3064
 1619TIP3    H226349   5.409   5.993  13.415 -0.6779  1.8815 -1.3021
 1620TIP3   OH226350   5.937   1.464   2.687 -0.0257  0.0329  0.1032
 1620TIP3    H126351   5.879   1.537   2.711  0.9743  0.8799 -0.0112
 1620TIP3    H226352   5.902   1.390   2.735 -1.2175  0.5215  0.0320
 1621TIP3   OH226353   6.067   6.375   0.040 -0.4819 -0.2533 -0.3193
 1621TIP3    H126354   6.120   6.393   0.118 -0.0772 -1.2209 -0.3554
 1621TIP3    H226355   6.114   6.305  -0.006 -0.4299  0.6648 -1.7289
 1622TIP3   OH226356   1.826   5.300  15.743 -0.9218  0.1065  0.5303
 1622TIP3    H126357   1.824   5.225  15.802  3.0791 -0.6663 -0.0795
 1622TIP3    H226358   1.819   5.376  15.801 -0.9994 -0.6781  1.5826
 1623TIP3   OH226359   6.548   2.678   1.105  0.5029  0.5202 -0.0184
 1623TIP3    H126360   6.516   2.678   1.015 -0.6994  0.2981  0.3916
 1623TIP3    H226361   6.644   2.679   1.096  0.4110  1.6522 -1.2763
 1624TIP3   OH226362   0.302   4.288  17.510  0.4298  0.5530  0.0680
 1624TIP3    H126363   0.213   4.322  17.498  0.6395  1.9084  1.8910
 1624TIP3    H226364   0.339   4.287  17.422 -0.9029  1.3684 -0.5433
 1625TIP3   OH226365   1.855   3.149  12.812 -0.3304 -0.0982  0.3011
 1625TIP3    H126366   1.815   3.189  12.890 -0.5645  0.3316 -0.0343
 1625TIP3    H226367   1.850   3.218  12.745 -0.7864 -0.7086 -0.2997
 1626TIP3   OH226368   6.098   3.376  13.489 -0.5709 -0.1281 -0.0583
 1626TIP3    H126369   6.025   3.314  13.500 -0.3417 -0.2582  0.8657
 1626TIP3    H226370   6.061   3.461  13.512 -0.4081 -0.2112  0.5225
 1627TIP3   OH226371   1.805   3.834  11.602 -0.3864  0.3838  0.6212
 1627TIP3    H126372   1.885   3.888  11.603  0.1154 -0.3528  0.9268
 1627TIP3    H226373   1.740   3.889  11.558  0.8660  0.2048 -1.6053
 1628TIP3   OH226374   0.002   4.088  17.406 -0.7894 -0.8130 -0.1796
 1628TIP3    H126375  -0.056   4.164  17.402  0.6857  0.3338 -0.5785
 1628TIP3    H226376  -0.027   4.032  17.333 -1.5633 -0.4202 -0.1901
 1629TIP3   OH226377   0.194   1.961  12.928  0.0649  0.0372  0.5764
 1629TIP3    H126378   0.240   1.888  12.886 -0.2732 -1.3968  2.5617
 1629TIP3    H226379   0.264   2.016  12.964  0.2871 -0.3466  0.7373
 1630TIP3   OH226380   0.311   4.447   5.173  0.6140 -0.5480  0.2663
 1630TIP3    H126381   0.258   4.456   5.094  0.6028  0.7697  0.4032
 1630TIP3    H226382   0.358   4.364   5.161 -0.0953 -0.8276 -0.6840
 1631TIP3   OH226383   1.974   5.526   4.361  0.4912 -0.2540  0.4652
 1631TIP3    H126384   2.027   5.605   4.376  0.5082 -0.3151  0.7357
 1631TIP3    H226385   1.917   5.521   4.439  0.1939 -0.2729  0.2495
 1632TIP3   OH226386   0.997   2.935   4.968 -0.3664 -0.3826  0.2662
 1632TIP3    H126387   1.041   2.967   4.889 -0.6373 -1.4084 -0.3297
 1632TIP3    H226388   0.911   2.977   4.966 -0.0074  0.3826  0.5703
 1633TIP3   OH226389   2.184   3.425   1.587  0.1844  0.2267  0.1386
 1633TIP3    H126390   2.159   3.517   1.583 -0.4187  0.0412 -1.1629
 1633TIP3    H226391   2.260   3.419   1.530 -0.8775 -0.3626 -1.2965
 1634TIP3   OH226392   0.683   5.585  11.622  0.0613  0.1957 -0.3601
 1634TIP3    H126393   0.725   5.631  11.550  2.8891  0.9989  1.6319
 1634TIP3    H226394   0.689   5.492  11.597  2.6232  0.3111 -0.4956
 1635TIP3   OH226395   2.930   3.383   0.996  0.2067 -0.0594 -0.0815
 1635TIP3    H126396   2.844   3.409   0.963 -0.8976 -0.5825  2.1695
 1635TIP3    H226397   2.913   3.354   1.085  2.6715 -0.6707  0.2521
 1636TIP3   OH226398   6.662   2.585   6.094  0.3770 -0.0114  0.0580
 1636TIP3    H126399   6.709   2.538   6.163 -0.3677 -0.3589  0.3506
 1636TIP3    H226400   6.689   2.676   6.103  2.8288 -0.5075 -1.3227
 1637TIP3   OH226401   1.546   0.800  11.849  0.0717 -0.2970  0.1414
 1637TIP3    H126402   1.502   0.866  11.796 -0.5934 -1.6901 -1.1098
 1637TIP3    H226403   1.508   0.810  11.937  0.5580  1.4595  0.1783
 1638TIP3   OH226404   1.419   6.744   5.579  0.3768  0.2088  0.4604
 1638TIP3    H126405   1.377   6.822   5.616  2.6803  0.7075  2.2391
 1638TIP3    H226406   1.505   6.775   5.551  0.9404 -1.4869  0.2391
 1639TIP3   OH226407   3.131   6.347  11.406 -0.7825  0.1835 -0.4944
 1639TIP3    H126408   3.132   6.261  11.449  1.2178  0.0676 -0.6979
 1639TIP3    H226409   3.055   6.343  11.348 -1.3227 -1.0551  0.2437
 1640TIP3   OH226410   2.806   0.747  14.920  0.2852  0.4806 -0.2580
 1640TIP3    H126411   2.758   0.687  14.977  3.2034 -2.2428 -0.3749
 1640TIP3    H226412   2.822   0.824  14.975 -2.9905  1.0150  0.1324
 1641TIP3   OH226413   0.708   0.487   6.643 -0.1226  0.4766 -0.6105
 1641TIP3    H126414   0.697   0.413   6.582  0.3825  0.0304 -0.1635
 1641TIP3    H226415   0.618   0.514   6.663 -0.3160  1.2771 -2.3161
 1642TIP3   OH226416   4.346   3.154  16.933  0.3318 -0.2074  0.4745
 1642TIP3    H126417   4.261   3.109  16.931  0.6672 -0.8607 -1.9846
 1642TIP3    H226418   4.328   3.240  16.895  0.4664  0.3633  1.6306
 1643TIP3   OH226419   0.966   0.344  10.669  0.2065 -0.3262 -0.0095
 1643TIP3    H126420   1.000   0.262  10.632  0.1297 -1.4727  2.2807
 1643TIP3    H226421   0.894   0.369  10.610  0.4191 -1.7477 -0.9203
 1644TIP3   OH226422   6.339   1.342   4.231  0.0518  0.0850  0.4718
 1644TIP3    H126423   6.249   1.317   4.249 -0.2237  0.8947  0.2343
 1644TIP3    H226424   6.365   1.397   4.304 -0.1035  0.9729 -0.1260
 1645TIP3   OH226425   1.533   5.396   3.784  0.6271 -0.0221 -0.5235
 1645TIP3    H126426   1.478   5.327   3.747 -1.4805  0.9469  0.6023
 1645TIP3    H226427   1.603   5.349   3.829 -1.5824 -1.5827  1.5352
 1646TIP3   OH226428   5.100   6.019   2.622 -1.0913 -0.4939  0.5264
 1646TIP3    H126429   5.137   5.953   2.564 -0.1293 -0.5037  1.1245
 1646TIP3    H226430   5.117   6.102   2.578  0.4888 -0.4220  1.1789
 1647TIP3   OH226431   4.263   5.941   1.388  0.2140  0.5438 -0.3056
 1647TIP3    H126432   4.355   5.936   1.361  0.0424  0.9220 -1.0129
 1647TIP3    H226433   4.220   5.873   1.337 -0.2198  1.6589 -1.5053
 1648TIP3   OH226434   2.318   0.753   5.699 -0.1691  0.1826  0.4966
 1648TIP3    H126435   2.255   0.727   5.766 -1.8905  2.4046 -0.1199
 1648TIP3    H226436   2.342   0.843   5.721  2.9689 -0.5955  0.7503
 1649TIP3   OH226437   1.303   0.575  15.075  0.0135 -0.3668  0.6271
 1649TIP3    H126438   1.306   0.670  15.063 -0.9650 -0.5952 -2.2518
 1649TIP3    H226439   1.386   0.544  15.037 -0.4207 -0.7611 -0.0101
 1650TIP3   OH226440   4.563   6.635  14.812  0.6455  0.7095  0.3484
 1650TIP3    H126441   4.589   6.692  14.884  0.0488  1.8468 -0.3269
 1650TIP3    H226442   4.603   6.674  14.734 -0.9649  1.0454 -0.3377
 1651TIP3   OH226443   3.238   5.512   6.708 -0.0305  0.0931  0.1810
 1651TIP3    H126444   3.165   5.574   6.703  0.6431  1.0319  1.3635
 1651TIP3    H226445   3.197   5.426   6.698 -1.4059  0.5638  1.3974
 1652TIP3   OH226446   5.850   5.351   5.514  0.6029 -1.1577 -0.2498
 1652TIP3    H126447   5.837   5.258   5.499 -1.0721 -0.4840 -4.4292
 1652TIP3    H226448   5.906   5.380   5.442  0.7441  1.1252  0.6896
 1653TIP3   OH226449   6.515   1.529   1.714 -0.4798 -0.1720 -0.3119
 1653TIP3    H126450   6.463   1.581   1.652  0.7546  1.3947 -0.0985
 1653TIP3    H226451   6.605   1.545   1.688 -0.0063 -0.9168  0.8212
 1654TIP3   OH226452   6.309   1.353  17.501 -0.2984  0.6351  0.3088
 1654TIP3    H126453   6.222   1.315  17.512 -0.7608  2.2794  3.2803
 1654TIP3    H226454   6.292   1.444  17.477  0.6517  0.7448  0.0326
 1655TIP3   OH226455   3.937   6.580   2.873 -0.0775  0.0255 -0.5558
 1655TIP3    H126456   3.888   6.636   2.933 -1.8132 -1.9272 -0.0608
 1655TIP3    H226457   3.967   6.640   2.805  2.2763  2.4510  2.2784
 1656TIP3   OH226458   4.229   4.132   4.818 -0.1114 -0.1469  0.6622
 1656TIP3    H126459   4.314   4.144   4.776 -1.0618 -0.1807 -1.4248
 1656TIP3    H226460   4.237   4.050   4.867  0.9882 -0.2492  0.3328
 1657TIP3   OH226461   5.178   6.489  14.907  0.0782  0.1349  0.4073
 1657TIP3    H126462   5.172   6.562  14.845  0.4645 -0.1969 -0.0265
 1657TIP3    H226463   5.152   6.527  14.991 -0.9112  0.4796 -0.0373
 1658TIP3   OH226464   2.522   3.686  13.701  0.1098 -0.1332  0.1902
 1658TIP3    H126465   2.521   3.774  13.664  2.0081 -0.2248 -0.1913
 1658TIP3    H226466   2.469   3.693  13.781 -0.1059  1.2468 -0.0483
 1659TIP3   OH226467   2.405   5.975  14.435  0.4275  0.0459 -0.2034
 1659TIP3    H126468   2.411   6.061  14.477  0.3682 -0.5550  1.0768
 1659TIP3    H226469   2.333   5.984  14.373  0.0697  0.7663  0.2948
 1660TIP3   OH226470   4.086   2.328  11.635 -0.1025  0.4997  0.1092
 1660TIP3    H126471   4.119   2.258  11.692  1.2557  1.5453  0.6663
 1660TIP3    H226472   4.103   2.297  11.546 -0.1230 -0.1537  0.3265
 1661TIP3   OH226473   3.819   0.188   4.860  0.4403  0.1192  0.2134
 1661TIP3    H126474   3.817   0.160   4.769  0.2522  1.1663 -0.1190
 1661TIP3    H226475   3.820   0.106   4.910  0.4586 -0.4692 -0.7161
 1662TIP3   OH226476   1.592   1.579   5.865  0.3604  0.1661 -0.0978
 1662TIP3    H126477   1.515   1.634   5.848 -1.5657 -1.7058  1.8574
 1662TIP3    H226478   1.619   1.548   5.778 -1.8651 -0.0447 -0.7873
 1663TIP3   OH226479   2.376   5.059   5.746 -0.8563  0.2249  0.0316
 1663TIP3    H126480   2.407   5.149   5.737 -0.4227  0.1406  0.5980
 1663TIP3    H226481   2.281   5.065   5.738 -0.8679  0.7974  0.5033
 1664TIP3   OH226482   5.578   1.174  13.429  0.7669  0.2067  0.0031
 1664TIP3    H126483   5.599   1.082  13.442  0.1080  0.2431  1.6207
 1664TIP3    H226484   5.578   1.211  13.518 -0.3769  1.4380 -0.4738
 1665TIP3   OH226485   4.903   4.678   2.864 -0.3619  0.9599  0.0081
 1665TIP3    H126486   4.996   4.694   2.851 -0.2143 -0.4167 -0.7860
 1665TIP3    H226487   4.897   4.637   2.950  0.2224 -2.1820 -1.3378
 1666TIP3   OH226488   1.249   1.488  14.731 -0.2307  0.0922  0.1871
 1666TIP3    H126489   1.219   1.507  14.643 -2.2755 -1.9880  0.3313
 1666TIP3    H226490   1.343   1.474  14.722 -0.1242  1.4690 -1.3274
 1667TIP3   OH226491   3.827   6.325  11.990  0.0067  0.0790 -0.1780
 1667TIP3    H126492   3.864   6.409  12.019 -0.8772  0.6987 -0.7675
 1667TIP3    H226493   3.825   6.333  11.894 -1.3945 -0.0375 -0.1669
 1668TIP3   OH226494   1.245   3.355   3.625  0.2706  0.0885  0.5476
 1668TIP3    H126495   1.304   3.324   3.694 -0.2733 -0.8472  0.6035
 1668TIP3    H226496   1.304   3.386   3.555  0.8192  0.0080  0.9688
 1669TIP3   OH226497   0.952   4.601   5.268  0.3533  0.1948 -0.4445
 1669TIP3    H126498   0.896   4.672   5.300  0.5377  0.4509 -0.6800
 1669TIP3    H226499   0.949   4.610   5.173 -0.9040 -1.1159 -0.5559
 1670TIP3   OH226500   0.142   3.486   0.830  0.1759 -0.1922 -0.3383
 1670TIP3    H126501   0.135   3.557   0.893 -2.7844  1.2388 -2.0457
 1670TIP3    H226502   0.120   3.407   0.880 -2.3611  0.9203  0.4917
 1671TIP3   OH226503   0.196   3.599   5.754  0.2723  0.2852 -0.8392
 1671TIP3    H126504   0.177   3.519   5.802  2.1466  0.5758  0.4744
 1671TIP3    H226505   0.284   3.624   5.782  0.3635  1.9458 -2.4194
 1672TIP3   OH226506   2.644   0.181  12.130 -0.2046  0.5679  0.0590
 1672TIP3    H126507   2.664   0.087  12.132  0.4536  0.6730 -0.8520
 1672TIP3    H226508   2.566   0.187  12.074 -0.6069  0.5146  0.6050
 1673TIP3   OH226509   5.237   2.834   2.273  0.0222  0.1540 -0.6408
 1673TIP3    H126510   5.225   2.773   2.346  1.8023 -0.4181 -0.7752
 1673TIP3    H226511   5.165   2.896   2.282 -0.5880 -0.6979  0.7957
 1674TIP3   OH226512   4.139   2.074  12.924  0.1472  0.2884 -0.2738
 1674TIP3    H126513   4.114   2.044  13.012  0.6839  0.2660 -0.1253
 1674TIP3    H226514   4.225   2.035  12.910  0.3076  0.7564 -0.5843
 1675TIP3   OH226515   5.426   0.024  13.389  0.4965 -0.3154  0.5152
 1675TIP3    H126516   5.426   0.098  13.329  0.6853  1.1905  2.2566
 1675TIP3    H226517   5.519   0.005  13.404  0.4852  0.0334  1.0996
 1676TIP3   OH226518   6.626   3.102   0.053  0.2496  0.7013  0.1604
 1676TIP3    H126519   6.668   3.156  -0.015  1.6565 -0.4770  0.0433
 1676TIP3    H226520   6.638   3.012   0.022 -1.6830  0.2623  0.5582
 1677TIP3   OH226521   3.826   2.400  13.077  0.6471  0.0700  0.0650
 1677TIP3    H126522   3.804   2.331  13.139 -0.2381 -0.5241 -0.8795
 1677TIP3    H226523   3.868   2.354  13.004  2.9984  0.9033  0.7780
 1678TIP3   OH226524   2.419   2.947   6.243 -0.3506  0.3787  0.0403
 1678TIP3    H126525   2.393   2.878   6.304  2.6436 -0.0703  0.9848
 1678TIP3    H226526   2.436   3.023   6.299  0.6050  0.5364 -0.4504
 1679TIP3   OH226527   3.297   2.402   3.786 -0.0709  0.1546 -0.0739
 1679TIP3    H126528   3.305   2.493   3.816  0.7886 -0.0441  0.3302
 1679TIP3    H226529   3.291   2.409   3.691 -1.6620  0.7251  0.0327
 1680TIP3   OH226530   1.393   6.703   0.725  0.0747 -0.9783  0.2050
 1680TIP3    H126531   1.477   6.674   0.689  0.3891 -0.3856  0.4437
 1680TIP3    H226532   1.328   6.652   0.678  0.4942 -0.4825 -0.9611
 1681TIP3   OH226533   2.564   3.950   2.831 -0.1046 -0.0965  0.3160
 1681TIP3    H126534   2.566   4.005   2.909  1.6769 -0.0084  0.2326
 1681TIP3    H226535   2.569   3.860   2.865 -0.4485 -0.1070  0.3425
 1682TIP3   OH226536   0.088   4.534  14.279 -0.9677  0.2242  1.1292
 1682TIP3    H126537   0.120   4.481  14.352 -0.0294 -2.1331 -0.8396
 1682TIP3    H226538   0.159   4.594  14.260 -0.4950 -0.3415  1.0835
 1683TIP3   OH226539   0.295   4.244   1.070  0.0587 -0.3354  0.5030
 1683TIP3    H126540   0.290   4.302   0.993  0.0460 -0.6131  0.2939
 1683TIP3    H226541   0.218   4.188   1.063  0.9789 -1.5668 -0.2666
 1684TIP3   OH226542   6.371   6.127  12.812  0.1757 -0.1479 -0.5628
 1684TIP3    H126543   6.462   6.144  12.786  0.0467  0.0347 -0.9169
 1684TIP3    H226544   6.329   6.094  12.732 -0.0162 -0.4381 -0.3436
 1685TIP3   OH226545   5.780   1.024   0.726 -0.0072  0.3458  0.0435
 1685TIP3    H126546   5.850   0.969   0.761 -0.5123 -0.3295  0.0186
 1685TIP3    H226547   5.766   0.991   0.637 -0.0621  0.7571 -0.0984
 1686TIP3   OH226548   3.406   4.886   1.194 -0.3275 -0.1979  0.3342
 1686TIP3    H126549   3.407   4.898   1.099  1.1931 -1.1786  0.1812
 1686TIP3    H226550   3.356   4.960   1.228  1.4183  1.7412 -1.0597
 1687TIP3   OH226551   2.316   0.470   6.160 -0.3073 -0.0462 -0.4155
 1687TIP3    H126552   2.380   0.446   6.227 -0.6292  1.4412  0.4777
 1687TIP3    H226553   2.280   0.554   6.191 -0.9529  0.3330 -2.1197
 1688TIP3   OH226554   0.059   4.024   0.629  0.4203  0.0218 -0.6105
 1688TIP3    H126555   0.046   4.040   0.536  0.1140  0.3878 -0.5078
 1688TIP3    H226556   0.016   4.098   0.672 -0.5373 -0.7813 -0.1483
 1689TIP3   OH226557   6.663   4.046   4.716  0.1513  0.3259 -0.6627
 1689TIP3    H126558   6.596   4.010   4.658  0.2586  2.4797 -2.2590
 1689TIP3    H226559   6.707   3.970   4.752 -1.9814 -1.1339 -0.9528
 1690TIP3   OH226560   4.645   4.600  15.176 -0.5119  0.0865 -0.0657
 1690TIP3    H126561   4.628   4.608  15.082 -2.9171  0.7427  0.3710
 1690TIP3    H226562   4.664   4.690  15.204 -1.2394  0.1312  0.3050
 1691TIP3   OH226563   6.638   3.021   2.876 -0.1613 -0.1906 -0.1221
 1691TIP3    H126564   6.656   3.115   2.867  1.2899 -0.4661 -0.3082
 1691TIP3    H226565   6.654   3.003   2.969  0.8622 -0.4979 -0.3499
 1692TIP3   OH226566   2.633   2.563  16.149  0.0829 -0.4219  0.1932
 1692TIP3    H126567   2.537   2.554  16.148  0.1315 -0.9886 -0.2832
 1692TIP3    H226568   2.662   2.514  16.072  0.7027  0.4597 -0.1436
 1693TIP3   OH226569   1.409   0.289  15.240 -0.1591  0.2645  0.3069
 1693TIP3    H126570   1.359   0.292  15.321 -0.6834 -1.4831  0.0882
 1693TIP3    H226571   1.497   0.265  15.267 -0.2062  0.2103  0.4117
 1694TIP3   OH226572   3.306   4.557   4.650  0.4321  0.3116 -0.0018
 1694TIP3    H126573   3.321   4.546   4.556 -1.1345 -2.0131 -0.0677
 1694TIP3    H226574   3.392   4.577   4.686  1.4768 -0.8918 -1.6649
 1695TIP3   OH226575   5.291   2.939  16.388  0.3002 -0.2555  0.2433
 1695TIP3    H126576   5.225   2.870  16.401  0.0595 -0.5892 -2.2520
 1695TIP3    H226577   5.375   2.894  16.400  0.1612  0.0098  2.7104
 1696TIP3   OH226578   5.172   6.067  15.244 -0.2190  0.1865 -0.0213
 1696TIP3    H126579   5.259   6.028  15.237 -0.6888 -0.7799 -0.6600
 1696TIP3    H226580   5.185   6.159  15.222  0.7015  0.1374  0.2923
 1697TIP3   OH226581   4.422   5.554   0.531 -0.0059  0.0765  0.2353
 1697TIP3    H126582   4.441   5.591   0.617  0.6504 -0.1086  0.1716
 1697TIP3    H226583   4.373   5.474   0.550  1.3482 -0.7198  0.5086
 1698TIP3   OH226584   0.723   5.374   5.566  0.8673  0.0813 -0.1707
 1698TIP3    H126585   0.810   5.337   5.581  2.5269  3.4635 -0.5357
 1698TIP3    H226586   0.680   5.369   5.651  1.4002 -1.5788  0.0398
 1699TIP3   OH226587   5.454   2.711   4.984  0.0019 -0.1424 -0.2344
 1699TIP3    H126588   5.452   2.685   4.892 -0.3461 -0.0529 -0.2538
 1699TIP3    H226589   5.365   2.696   5.015 -0.1826  0.9095 -0.2186
 1700TIP3   OH226590   2.848   1.560  12.882 -0.3162  0.3663  0.0391
 1700TIP3    H126591   2.789   1.627  12.848  0.3195  1.4088  0.9033
 1700TIP3    H226592   2.892   1.524  12.805 -1.8455 -0.2339 -0.5934
 1701TIP3   OH226593   0.834   4.996   4.488  0.4880 -0.1855 -0.2331
 1701TIP3    H126594   0.926   4.977   4.471  0.7047  0.9729 -0.4084
 1701TIP3    H226595   0.787   4.934   4.432  1.1594 -0.3138 -0.6775
 1702TIP3   OH226596   4.104   3.990   2.835 -0.5998 -0.0068 -0.3128
 1702TIP3    H126597   4.123   3.940   2.915 -0.4987  0.2277 -0.1881
 1702TIP3    H226598   4.011   4.009   2.841 -0.2563  1.5915  0.6803
 1703TIP3   OH226599   5.259   2.222   2.404 -0.5033  0.2476  0.0932
 1703TIP3    H126600   5.317   2.296   2.387 -2.0982  1.7027  0.6912
 1703TIP3    H226601   5.284   2.156   2.339  0.0545  1.8413 -1.3863
 1704TIP3   OH226602   5.370   1.445   0.527  0.0684 -0.1354  0.7915
 1704TIP3    H126603   5.308   1.458   0.599 -0.0157  0.0912  0.6782
 1704TIP3    H226604   5.427   1.373   0.557 -0.0684 -0.1512  1.0144
 1705TIP3   OH226605   4.013   3.655   1.200 -0.4244 -0.6264 -0.5651
 1705TIP3    H126606   4.006   3.581   1.140 -2.8169 -0.1382 -0.9825
 1705TIP3    H226607   4.026   3.731   1.143  2.0385 -0.6549 -0.1405
 1706TIP3   OH226608   0.308   3.839  11.783  0.2204  0.4311 -0.3943
 1706TIP3    H126609   0.310   3.799  11.696 -0.2632 -1.7889  0.5647
 1706TIP3    H226610   0.265   3.923  11.769  1.9952  1.0809 -2.6239
 1707TIP3   OH226611   4.178   6.225  12.618  0.2860 -0.0203 -0.1898
 1707TIP3    H126612   4.115   6.160  12.650  2.1860 -0.8445  2.1869
 1707TIP3    H226613   4.178   6.294  12.684  0.1528  1.2020 -1.4069
 1708TIP3   OH226614   0.201   3.344  14.085  0.5462  0.7699  0.2806
 1708TIP3    H126615   0.148   3.352  14.164  0.0197  2.5719 -0.2027
 1708TIP3    H226616   0.263   3.417  14.090  2.3561 -0.6688  0.3217
 1709TIP3   OH226617   1.315   5.344  12.259 -0.3518 -0.4671  0.1888
 1709TIP3    H126618   1.292   5.433  12.230  1.3322  0.3372  1.1457
 1709TIP3    H226619   1.383   5.358  12.325 -1.1676 -2.4216  1.5247
 1710TIP3   OH226620   3.530   4.198  17.260 -0.1280  0.4711 -0.5723
 1710TIP3    H126621   3.459   4.185  17.197 -0.0640  0.0583 -0.5602
 1710TIP3    H226622   3.582   4.118  17.255  1.3526  1.4676 -1.8661
 1711TIP3   OH226623   0.560   5.727   1.237  0.3208 -0.1111  0.6089
 1711TIP3    H126624   0.655   5.736   1.232  0.4102 -0.1179  1.9835
 1711TIP3    H226625   0.541   5.726   1.330 -1.0510  0.0307  0.3474
 1712TIP3   OH226626   4.149   4.266   0.416  0.1681 -0.1893 -0.6741
 1712TIP3    H126627   4.182   4.316   0.341 -0.5177  0.0810 -0.8062
 1712TIP3    H226628   4.103   4.192   0.377 -2.0489  1.0823 -0.6450
 1713TIP3   OH226629   3.692   5.040   6.134  0.6859  0.4527  0.3278
 1713TIP3    H126630   3.780   5.011   6.157  0.8858  2.0790  1.7748
 1713TIP3    H226631   3.642   5.031   6.215  0.0474  1.4453  0.0556
 1714TIP3   OH226632   4.905   3.914   1.984  0.5984 -0.3873 -0.3722
 1714TIP3    H126633   4.969   3.984   1.977 -1.7266  1.9280  0.0228
 1714TIP3    H226634   4.831   3.944   1.931 -0.8545 -2.0995  0.5921
 1715TIP3   OH226635   0.397   5.630  13.499  0.0130  0.4782 -0.0826
 1715TIP3    H126636   0.352   5.687  13.561 -1.3722 -1.8453  1.2028
 1715TIP3    H226637   0.474   5.599  13.546  0.4882  0.8829 -0.5855
 1716TIP3   OH226638   0.918   0.320   4.439  0.6107  0.2340 -0.1049
 1716TIP3    H126639   0.858   0.375   4.389  1.6475  0.8020 -0.7808
 1716TIP3    H226640   0.974   0.382   4.487 -0.4225 -0.2964  1.8914
 1717TIP3   OH226641   1.467   1.955   2.827  0.8464  0.3071 -0.1187
 1717TIP3    H126642   1.457   1.976   2.920 -0.4648 -0.4759 -0.0647
 1717TIP3    H226643   1.418   2.023   2.781 -1.8163 -1.4066 -0.0223
 1718TIP3   OH226644   0.715   4.046   0.460 -0.5590  0.0851 -0.5655
 1718TIP3    H126645   0.702   4.122   0.403  1.9988  0.3807 -0.8501
 1718TIP3    H226646   0.762   3.983   0.405 -0.9920 -0.9698  0.2446
 1719TIP3   OH226647   6.160   0.961   3.699  0.1641  0.1174 -0.3093
 1719TIP3    H126648   6.198   0.886   3.653  1.5733  1.2530 -1.0889
 1719TIP3    H226649   6.234   1.020   3.713 -1.2001  2.1503 -1.2909
 1720TIP3   OH226650   4.969   5.607   0.032  0.5917 -0.6025 -0.1737
 1720TIP3    H126651   5.002   5.673   0.094  0.7424 -1.0660  0.2510
 1720TIP3    H226652   4.885   5.580   0.068 -1.0505  1.6824 -2.0675
 1721TIP3   OH226653   6.407   0.004  13.436 -0.3326  0.4547 -0.1600
 1721TIP3    H126654   6.317   0.019  13.465 -0.8771 -0.4371 -1.3086
 1721TIP3    H226655   6.403   0.011  13.341  0.9117  0.8401 -0.2065
 1722TIP3   OH226656   3.957   6.173   2.005  0.6944 -0.2144  0.2729
 1722TIP3    H126657   4.017   6.173   1.931  0.3433 -1.1331 -0.0328
 1722TIP3    H226658   3.917   6.086   2.003 -1.6562  0.7758 -0.3758
 1723TIP3   OH226659   5.243   5.699   5.437  0.0242 -0.6961 -0.3341
 1723TIP3    H126660   5.258   5.656   5.521  1.0649 -0.0599 -0.1789
 1723TIP3    H226661   5.229   5.628   5.375 -1.3134 -1.1661  0.4601
 1724TIP3   OH226662   4.501   5.233   5.883  0.5174 -0.1127  0.0637
 1724TIP3    H126663   4.475   5.147   5.849 -2.3103  1.2155 -1.4495
 1724TIP3    H226664   4.587   5.218   5.922  0.4927 -3.4402 -0.8632
 1725TIP3   OH226665   2.704   4.209   4.299  0.1920  0.0198  0.0805
 1725TIP3    H126666   2.651   4.281   4.333 -0.8893  0.8373 -2.9487
 1725TIP3    H226667   2.785   4.212   4.350 -1.7216  0.1751  3.3450
 1726TIP3   OH226668   4.703   2.413   3.095 -0.0492  0.2108 -0.7866
 1726TIP3    H126669   4.741   2.441   3.178  0.8258 -0.0217 -1.1035
 1726TIP3    H226670   4.609   2.429   3.105  0.0128 -0.0704  0.3467
 1727TIP3   OH226671   2.147   1.998   6.289 -0.1562  0.1286  0.3313
 1727TIP3    H126672   2.166   1.905   6.300  2.6104  0.0962 -3.0625
 1727TIP3    H226673   2.054   2.006   6.308 -0.1895 -3.0085  2.1537
 1728TIP3   OH226674   3.395   3.892  16.771  0.7823  0.9964 -0.4944
 1728TIP3    H126675   3.458   3.913  16.840  1.7147  0.9177 -1.2864
 1728TIP3    H226676   3.357   3.976  16.746 -1.3475  0.7837  1.7051
 1729TIP3   OH226677   2.543   4.772  16.890 -0.2023  0.1509  0.0465
 1729TIP3    H126678   2.520   4.865  16.893 -0.4807  0.0687  0.8017
 1729TIP3    H226679   2.486   4.731  16.955  2.1956 -0.0323  2.1821
 1730TIP3   OH226680   4.919   2.492  13.640 -0.1963 -0.6407 -0.6615
 1730TIP3    H126681   4.848   2.435  13.611  0.0210 -1.6426  0.6891
 1730TIP3    H226682   4.996   2.434  13.644  0.3322  0.0565 -0.5511
 1731TIP3   OH226683   2.875   1.305  17.372  0.2174 -0.0803  0.0528
 1731TIP3    H126684   2.913   1.239  17.314  0.3570  0.9114 -1.0159
 1731TIP3    H226685   2.929   1.301  17.451  0.8705 -0.5291 -0.4009
 1732TIP3   OH226686   3.391   1.973  13.674 -0.6726 -1.0193 -0.3744
 1732TIP3    H126687   3.454   2.004  13.609 -1.0358 -0.6637 -0.5599
 1732TIP3    H226688   3.353   2.053  13.711 -0.3274 -1.2147  0.4187
 1733TIP3   OH226689   0.112   3.601  16.887 -0.2537  0.4394  0.3915
 1733TIP3    H126690   0.092   3.639  16.801  0.1921  1.2370  0.6269
 1733TIP3    H226691   0.201   3.631  16.905  0.1387 -0.8018  0.5635
 1734TIP3   OH226692   5.539   2.641  11.251  0.0048  0.3590 -0.2442
 1734TIP3    H126693   5.541   2.716  11.310 -1.0494 -0.8169  1.3633
 1734TIP3    H226694   5.622   2.646  11.203  0.7218  1.5692  1.0459
 1735TIP3   OH226695   2.564   6.647   2.794 -0.0009 -0.4349  1.0493
 1735TIP3    H126696   2.507   6.720   2.820 -0.4364 -0.4800  0.2201
 1735TIP3    H226697   2.568   6.591   2.872 -1.1046 -0.4414  1.1065
 1736TIP3   OH226698   3.113   6.377   5.494 -0.7140 -0.6699  0.1415
 1736TIP3    H126699   3.166   6.340   5.424 -1.1549  0.1970 -0.6793
 1736TIP3    H226700   3.025   6.381   5.457 -1.0381 -0.6172  0.9080
 1737TIP3   OH226701   6.431   2.870  11.917 -0.9624  0.1181  0.5899
 1737TIP3    H126702   6.494   2.894  11.985 -0.8277 -2.9393  1.7334
 1737TIP3    H226703   6.426   2.946  11.861  0.8835  1.8646  2.5953
 1738TIP3   OH226704   4.206   3.125  12.306  0.0241 -0.6214 -0.5916
 1738TIP3    H126705   4.202   3.070  12.227 -0.1823 -1.4180 -0.0338
 1738TIP3    H226706   4.237   3.210  12.274 -1.8598 -0.3447 -1.8658
 1739TIP3   OH226707   4.603   5.424   4.387 -0.5020  0.2645 -0.1278
 1739TIP3    H126708   4.608   5.331   4.410 -0.0279  0.3224  0.0188
 1739TIP3    H226709   4.691   5.458   4.405 -0.2620  0.4414 -1.5064
 1740TIP3   OH226710   1.506   3.662   1.173 -0.9069  0.5380 -0.3256
 1740TIP3    H126711   1.490   3.602   1.247  0.0438  2.3833  1.4936
 1740TIP3    H226712   1.421   3.669   1.130 -1.0369 -2.1405 -0.6979
 1741TIP3   OH226713   4.191   4.916  13.073 -0.0722  0.1042 -0.0111
 1741TIP3    H126714   4.222   4.952  13.156 -1.7995  0.8655  0.3577
 1741TIP3    H226715   4.248   4.841  13.057  1.8616  1.3620  0.6113
 1742TIP3   OH226716   0.380   3.524  13.886 -0.0985 -0.3623 -0.0874
 1742TIP3    H126717   0.458   3.468  13.894 -0.3457 -0.7544 -0.3445
 1742TIP3    H226718   0.387   3.562  13.799 -0.2163 -0.4387 -0.1313
 1743TIP3   OH226719   1.646   0.698  14.194 -0.0272 -0.4964  0.4826
 1743TIP3    H126720   1.658   0.650  14.277  1.5988  0.1083  0.6384
 1743TIP3    H226721   1.613   0.783  14.221 -1.9362 -1.1245  0.2796
 1744TIP3   OH226722   1.751   5.453  12.634 -0.0887 -0.2052 -0.5293
 1744TIP3    H126723   1.762   5.414  12.720  0.9243 -1.4009 -1.1636
 1744TIP3    H226724   1.792   5.391  12.574 -1.7293  0.0574 -2.0094
 1745TIP3   OH226725   3.919   5.454  16.287  0.1856  0.2232  0.3868
 1745TIP3    H126726   3.841   5.485  16.333  0.7916  0.9233  0.9730
 1745TIP3    H226727   3.941   5.527  16.228  0.0371 -0.2327 -0.2428
 1746TIP3   OH226728   5.630   0.745  13.117  0.1276 -0.5608  0.1113
 1746TIP3    H126729   5.699   0.787  13.066  1.2642 -1.7608  0.6314
 1746TIP3    H226730   5.595   0.815  13.173  1.0996 -0.0054  0.0368
 1747TIP3   OH226731   5.452   4.780  13.323 -0.1165  0.0494  0.5131
 1747TIP3    H126732   5.445   4.793  13.417  2.2022  0.0704  0.7330
 1747TIP3    H226733   5.504   4.701  13.313 -0.1117  0.1837 -0.7379
 1748TIP3   OH226734   2.504   4.926  16.113 -0.0353  0.0875  0.1402
 1748TIP3    H126735   2.592   4.928  16.074 -0.5879 -3.0973 -1.6797
 1748TIP3    H226736   2.445   4.932  16.038 -1.2289 -2.0361  0.8306
 1749TIP3   OH226737   3.248   3.109  13.454  0.5624  0.3607  0.4925
 1749TIP3    H126738   3.265   3.195  13.492  0.5751  0.6659 -0.2029
 1749TIP3    H226739   3.153   3.098  13.462  0.5079  0.6159  0.2036
 1750TIP3   OH226740   2.225   2.725   3.348  0.0628 -0.2645  0.2571
 1750TIP3    H126741   2.163   2.664   3.308  0.9132  0.4873 -2.3966
 1750TIP3    H226742   2.273   2.672   3.411 -0.2459 -1.9941 -0.8847
 1751TIP3   OH226743   1.519   0.029  14.054  0.4883  0.4853  0.0456
 1751TIP3    H126744   1.582   0.003  14.121  0.3464  0.3217  0.1164
 1751TIP3    H226745   1.477   0.107  14.089 -1.1568 -0.8123  1.1696
 1752TIP3   OH226746   2.503   0.718   6.687  0.0813  0.0376  1.2583
 1752TIP3    H126747   2.441   0.653   6.720 -0.4446 -0.0024  0.2348
 1752TIP3    H226748   2.498   0.790   6.749  0.1525 -0.6071  2.0240
 1753TIP3   OH226749   2.671   4.420  14.635 -0.1254  0.2536  0.6352
 1753TIP3    H126750   2.605   4.484  14.609  0.6462  0.0218 -2.3523
 1753TIP3    H226751   2.709   4.455  14.715 -1.1418  2.4607  0.2232
 1754TIP3   OH226752   1.397   4.009  15.039  0.3337  0.1183 -0.5024
 1754TIP3    H126753   1.319   3.987  15.090  0.1304  2.0545  0.1042
 1754TIP3    H226754   1.469   3.962  15.082 -0.1443  0.1696  0.3618
 1755TIP3   OH226755   1.556   1.915   0.913  0.0882 -0.4138 -0.1985
 1755TIP3    H126756   1.598   1.939   0.830  0.1396 -0.2052 -0.1111
 1755TIP3    H226757   1.468   1.952   0.907 -0.0676 -0.7947 -0.3535
 1756TIP3   OH226758   5.606   1.634  14.575  0.1600  0.3217  0.7218
 1756TIP3    H126759   5.553   1.577  14.630 -1.4203  3.3895  2.6574
 1756TIP3    H226760   5.693   1.633  14.616  0.9749 -2.4662 -0.7763
 1757TIP3   OH226761   2.085   2.577   5.050 -0.1470  0.3164  0.4621
 1757TIP3    H126762   2.127   2.549   4.969 -0.3409  3.0940 -0.6999
 1757TIP3    H226763   2.102   2.506   5.112  0.8998 -1.4228 -1.6914
 1758TIP3   OH226764   4.910   0.444  12.694  0.2289 -0.0907 -0.1110
 1758TIP3    H126765   4.913   0.531  12.733  1.3671 -0.2767  0.2774
 1758TIP3    H226766   4.826   0.440  12.649 -0.8238  0.4175  1.6942
 1759TIP3   OH226767   4.370   6.310  13.567 -0.0329  0.6120  0.0050
 1759TIP3    H126768   4.292   6.283  13.519 -0.9920 -1.3186  2.4189
 1759TIP3    H226769   4.440   6.256  13.531 -0.5758 -0.2773  0.2622
 1760TIP3   OH226770   1.617   4.872   0.105  0.2037 -0.2037  0.3439
 1760TIP3    H126771   1.604   4.816   0.181  0.0126  2.5562  2.5064
 1760TIP3    H226772   1.540   4.930   0.104 -0.1700 -0.6051 -2.4387
 1761TIP3   OH226773   3.201   4.620   1.848  0.2403 -0.3983  0.1673
 1761TIP3    H126774   3.121   4.604   1.797 -2.4005 -0.3013  3.8988
 1761TIP3    H226775   3.250   4.537   1.842  0.1430 -0.3481 -2.4680
 1762TIP3   OH226776   5.129   4.589   4.063  0.2842  0.6595 -0.1038
 1762TIP3    H126777   5.050   4.572   4.115 -1.3129 -0.3385 -2.6692
 1762TIP3    H226778   5.135   4.685   4.060 -0.8711  0.7557  0.0928
 1763TIP3   OH226779   0.024   4.419   2.396  0.5759  0.2163 -0.3480
 1763TIP3    H126780   0.083   4.355   2.437 -1.0499 -0.6950  0.6704
 1763TIP3    H226781  -0.061   4.403   2.437 -0.4816  1.2325 -2.0367
 1764TIP3   OH226782   2.418   4.189  12.840  0.6864  0.3775  0.1722
 1764TIP3    H126783   2.406   4.105  12.795  2.5205  0.4734 -0.5722
 1764TIP3    H226784   2.386   4.172  12.929  0.1366 -0.8175 -0.2221
 1765TIP3   OH226785   6.242   3.804  11.231 -0.1923  0.5512  0.2802
 1765TIP3    H126786   6.154   3.791  11.196  1.0874 -0.3564 -2.8751
 1765TIP3    H226787   6.278   3.716  11.240  1.3127  0.9658 -1.1543
 1766TIP3   OH226788   0.389   1.762  15.907 -0.2208 -0.2801 -0.2442
 1766TIP3    H126789   0.444   1.696  15.948  0.4844 -1.1553 -2.4150
 1766TIP3    H226790   0.443   1.840  15.901  1.0879 -1.2501 -2.7239
 1767TIP3   OH226791   1.889   1.773  12.064  0.0409  0.1328  0.2732
 1767TIP3    H126792   1.956   1.841  12.055  0.0268 -0.0072 -1.1209
 1767TIP3    H226793   1.916   1.705  12.002 -1.8064  0.4462 -0.9551
 1768TIP3   OH226794   5.650   0.103  11.114  0.4742 -0.1916  0.0595
 1768TIP3    H126795   5.679   0.012  11.110 -1.6540 -0.9018 -1.3119
 1768TIP3    H226796   5.716   0.151  11.064  0.7712 -1.2667 -0.6352
 1769TIP3   OH226797   0.769   4.515   6.162 -0.1523 -0.2196 -0.2750
 1769TIP3    H126798   0.700   4.576   6.186 -0.6952 -0.4184 -1.2785
 1769TIP3    H226799   0.741   4.478   6.079  1.3442 -0.0045 -0.9212
 1770TIP3   OH226800   0.183   3.072   3.994 -0.0500  0.1127  0.0319
 1770TIP3    H126801   0.243   3.116   3.934  1.0433 -1.3136  0.0469
 1770TIP3    H226802   0.167   2.986   3.954 -0.2037 -0.4284  1.2089
 1771TIP3   OH226803   2.200   5.871  16.999  0.3664  0.1318  0.2734
 1771TIP3    H126804   2.187   5.965  17.010  3.0685  0.6223  0.0529
 1771TIP3    H226805   2.162   5.852  16.912 -0.3592  0.9507  0.3958
 1772TIP3   OH226806   6.632   0.311   1.692 -0.3619  0.1295 -0.3956
 1772TIP3    H126807   6.612   0.401   1.719 -0.9727  0.4353 -1.7485
 1772TIP3    H226808   6.559   0.259   1.725 -1.0027  0.4639 -1.2502
 1773TIP3   OH226809   3.694   1.635   1.094  0.6971 -0.2359 -0.7577
 1773TIP3    H126810   3.727   1.620   1.005  0.4074 -1.0773 -0.7276
 1773TIP3    H226811   3.670   1.728   1.094 -2.0108 -0.8028 -2.5055
 1774TIP3   OH226812   0.124   5.806  12.562 -0.7041 -0.0492 -0.2441
 1774TIP3    H126813   0.055   5.842  12.507 -1.2996  1.2535  1.2539
 1774TIP3    H226814   0.181   5.881  12.580  1.7034 -1.2805 -2.1901
 1775TIP3   OH226815   2.034   5.293  14.020  0.8593 -0.0556  0.6452
 1775TIP3    H126816   1.997   5.377  13.993  0.5592  0.0210  1.2732
 1775TIP3    H226817   2.095   5.315  14.091  0.1190 -0.4534  1.4203
 1776TIP3   OH226818   3.662   6.602   4.389 -0.2654 -0.4263  0.1536
 1776TIP3    H126819   3.643   6.661   4.317 -0.4098 -0.0164  0.5208
 1776TIP3    H226820   3.747   6.630   4.423 -0.4965 -0.1972  0.5538
 1777TIP3   OH226821   0.979   0.117   2.442  0.4656 -0.2453  0.0170
 1777TIP3    H126822   1.041   0.103   2.514  0.2389 -1.9027 -0.0685
 1777TIP3    H226823   1.018   0.187   2.390  1.9315 -0.7625  0.3678
 1778TIP3   OH226824   1.087   3.891  15.381  0.1023 -0.3122  0.3627
 1778TIP3    H126825   1.007   3.870  15.430  0.9353 -0.9395  1.5039
 1778TIP3    H226826   1.084   3.986  15.370 -1.2220 -0.4218 -0.3774
 1779TIP3   OH226827   0.048   2.648   1.047  0.4695 -0.4583 -0.3591
 1779TIP3    H126828   0.047   2.708   0.972 -0.4576  0.2405  0.1850
 1779TIP3    H226829   0.114   2.685   1.105  0.1010 -0.1049 -0.1538
 1780TIP3   OH226830   2.266   1.657   4.670 -0.3717  0.3651 -0.2897
 1780TIP3    H126831   2.230   1.746   4.661 -0.2568  0.4697  0.2624
 1780TIP3    H226832   2.317   1.644   4.590  0.1764  1.0652 -0.0641
 1781TIP3   OH226833   4.340   1.775  16.975  0.3307  0.4122  0.8961
 1781TIP3    H126834   4.372   1.742  16.891  0.8151  1.2438  0.7427
 1781TIP3    H226835   4.245   1.766  16.970 -0.0394  3.6620 -1.2242
 1782TIP3   OH226836   0.204   2.718  11.913  0.1914  0.1424  0.0524
 1782TIP3    H126837   0.161   2.802  11.903 -0.7942 -0.4451 -0.9434
 1782TIP3    H226838   0.168   2.682  11.994 -0.6020  0.0141 -0.3432
 1783TIP3   OH226839   6.412   1.834  15.693 -0.7516  0.6799  0.5513
 1783TIP3    H126840   6.439   1.759  15.745 -0.7913 -0.6171 -1.2263
 1783TIP3    H226841   6.493   1.881  15.673 -0.4002 -0.3168 -0.4350
 1784TIP3   OH226842   2.554   1.737  13.775 -0.1871  0.2618  0.3658
 1784TIP3    H126843   2.524   1.779  13.694 -1.1012 -2.1541 -0.6410
 1784TIP3    H226844   2.643   1.771  13.788  0.6957 -0.5363 -2.6523
 1785TIP3   OH226845   5.324   6.123   5.218 -0.5911 -0.2055 -0.1782
 1785TIP3    H126846   5.407   6.163   5.191 -0.2975  0.8754  2.0943
 1785TIP3    H226847   5.258   6.184   5.186 -0.2810  0.7644  0.9375
 1786TIP3   OH226848   4.072   2.009  16.268  0.2109 -0.3765 -0.3662
 1786TIP3    H126849   4.166   1.993  16.272  0.3354  0.5166  0.8671
 1786TIP3    H226850   4.063   2.104  16.278 -0.8702 -0.5964  1.1979
 1787TIP3   OH226851   0.736   0.979  10.158  0.0557  0.4082 -0.2836
 1787TIP3    H126852   0.815   0.924  10.156 -0.8499 -0.9423 -0.8494
 1787TIP3    H226853   0.751   1.045  10.091  1.3534  1.1431  0.6940
 1788TIP3   OH226854   1.831   4.947  11.553 -0.6247  0.0807 -0.4121
 1788TIP3    H126855   1.846   4.986  11.467 -0.5875  0.2968 -0.3101
 1788TIP3    H226856   1.900   4.881  11.563 -0.8765 -0.2313 -0.7163
 1789TIP3   OH226857   5.095   5.509  15.358  0.2755  0.3049  0.0006
 1789TIP3    H126858   5.160   5.573  15.330  0.3463  0.8842  1.4092
 1789TIP3    H226859   5.123   5.482  15.446 -1.4896  0.7635  0.7595
 1790TIP3   OH226860   2.946   0.457  17.250 -0.0940 -0.3484  0.3961
 1790TIP3    H126861   2.986   0.541  17.227 -0.2733  0.3006  2.3088
 1790TIP3    H226862   2.883   0.441  17.180  0.3301  0.8426 -0.2838
 1791TIP3   OH226863   2.692   5.825   0.742 -0.3977  0.2609 -0.2099
 1791TIP3    H126864   2.777   5.851   0.705  0.3863 -0.6677  0.8804
 1791TIP3    H226865   2.714   5.757   0.806 -2.0557 -0.5513 -0.4736
 1792TIP3   OH226866   6.464   0.798  12.099 -0.2826  0.5407 -0.1853
 1792TIP3    H126867   6.432   0.708  12.104  0.6956  0.2509  1.0862
 1792TIP3    H226868   6.539   0.793  12.039  1.9059 -0.1919  2.4282
 1793TIP3   OH226869   2.695   4.172   5.088  0.8011 -0.6344 -0.2055
 1793TIP3    H126870   2.660   4.243   5.035  1.9209  0.9861  1.1222
 1793TIP3    H226871   2.622   4.111   5.099 -0.7171  1.1531  0.0234
 1794TIP3   OH226872   4.967   2.772  11.730 -0.3827  0.4107 -0.0447
 1794TIP3    H126873   4.914   2.818  11.665 -0.0915 -1.9774 -2.1317
 1794TIP3    H226874   4.938   2.808  11.814 -2.0598  2.3621 -1.3483
 1795TIP3   OH226875   4.668   1.849  15.130  0.0843  0.5928 -0.5324
 1795TIP3    H126876   4.750   1.835  15.178 -0.5454  2.3716  1.1780
 1795TIP3    H226877   4.633   1.931  15.164 -3.9773 -1.5300  1.1532
 1796TIP3   OH226878   4.353   0.100   5.512  0.0068 -0.2481  0.4438
 1796TIP3    H126879   4.318   0.119   5.426  0.5101  1.4195  0.5713
 1796TIP3    H226880   4.447   0.085   5.497 -0.0021 -0.5005  0.6317
 1797TIP3   OH226881   3.889   1.202  15.995 -0.1547  0.4914  0.3779
 1797TIP3    H126882   3.936   1.177  16.075 -0.3448  1.0420  0.6665
 1797TIP3    H226883   3.948   1.177  15.924  0.4070  0.8109  0.7218
 1798TIP3   OH226884   2.023   0.425   4.964 -0.1538  0.1832  0.6450
 1798TIP3    H126885   2.012   0.377   4.882  1.1021  1.8940 -0.5874
 1798TIP3    H226886   1.939   0.413   5.010 -0.6510 -1.3314 -0.5840
 1799TIP3   OH226887   4.678   1.561   4.205 -0.8919 -0.2605  0.4633
 1799TIP3    H126888   4.587   1.571   4.233 -1.6700  1.1822 -2.2726
 1799TIP3    H226889   4.689   1.468   4.191 -2.2417 -0.3579 -0.0542
 1800TIP3   OH226890   4.590   6.018  13.569 -0.4177 -0.4805 -0.0055
 1800TIP3    H126891   4.539   5.938  13.556 -0.4835 -0.1289 -2.2548
 1800TIP3    H226892   4.668   6.007  13.516  0.6453  0.0875  1.3606
 1801TIP3   OH226893   3.523   6.608   5.249  0.1661  0.8484 -0.2932
 1801TIP3    H126894   3.438   6.610   5.206 -0.0012  0.3692  0.0088
 1801TIP3    H226895   3.563   6.526   5.220  0.1020  0.5757  0.3532
 1802TIP3   OH226896   2.922   4.598   4.273  0.2047  0.3284  0.3013
 1802TIP3    H126897   2.920   4.530   4.205  0.7801  0.8787 -0.2709
 1802TIP3    H226898   2.974   4.668   4.236  2.2782 -0.1443  2.0780
 1803TIP3   OH226899   0.706   5.691  17.428 -0.5287  0.2708  0.2524
 1803TIP3    H126900   0.655   5.617  17.459  0.9602 -1.1922 -0.6296
 1803TIP3    H226901   0.688   5.696  17.335 -2.2170  2.4054  0.5915
 1804TIP3   OH226902   2.882   2.341   1.765 -0.8467 -0.2628  0.4572
 1804TIP3    H126903   2.855   2.431   1.784 -0.2839 -0.0316  0.1841
 1804TIP3    H226904   2.865   2.331   1.671 -1.4746 -0.6461  0.6049
 1805TIP3   OH226905   3.034   4.595  15.824 -0.5913 -0.0487  0.0771
 1805TIP3    H126906   3.078   4.610  15.907  0.4655  0.0372 -0.4770
 1805TIP3    H226907   3.090   4.637  15.759 -0.3101 -1.8708 -0.9249
 1806TIP3   OH226908   2.386   2.075   4.742 -0.1914  0.0918 -0.1747
 1806TIP3    H126909   2.460   2.013   4.749  1.3708  1.8997  0.1767
 1806TIP3    H226910   2.316   2.034   4.792  0.7596 -1.4421 -0.0235
 1807TIP3   OH226911   3.956   2.857  12.103  0.1484 -0.5808  0.2969
 1807TIP3    H126912   3.886   2.920  12.121 -2.0270 -2.7180 -0.1237
 1807TIP3    H226913   3.962   2.856  12.007  1.3025  0.0951  0.3451
 1808TIP3   OH226914   5.052   1.816  15.895  0.7883 -0.7317  0.1790
 1808TIP3    H126915   5.036   1.824  15.802 -0.4864 -0.1550  0.4324
 1808TIP3    H226916   4.984   1.757  15.927  0.0420  0.5376  1.0316
 1809TIP3   OH226917   3.826   2.001   6.115 -0.4194  0.6550  0.0054
 1809TIP3    H126918   3.736   1.975   6.100  0.1344 -1.2661 -0.2248
 1809TIP3    H226919   3.839   1.991   6.209  0.4153 -2.3479 -0.3134
 1810TIP3   OH226920   3.282   5.218   1.528  0.2244 -0.6472  0.1360
 1810TIP3    H126921   3.361   5.267   1.552  0.6957 -1.2219 -0.1805
 1810TIP3    H226922   3.300   5.128   1.558 -0.8283 -0.5343  1.1468
 1811TIP3   OH226923   6.280   2.596  12.641 -0.3841  0.0567 -0.2960
 1811TIP3    H126924   6.200   2.548  12.620 -2.6488  2.7277  1.5864
 1811TIP3    H226925   6.332   2.534  12.693 -1.8971 -1.2679 -0.2849
 1812TIP3   OH226926   4.208   1.547   2.823  0.2114  0.3694 -0.0135
 1812TIP3    H126927   4.146   1.483   2.787  0.6093  1.2422 -2.4425
 1812TIP3    H226928   4.163   1.631   2.815  0.9061  0.7629  0.1246
 1813TIP3   OH226929   0.796   0.737  11.112  0.2299  0.2603  0.1826
 1813TIP3    H126930   0.749   0.680  11.051 -0.7137  1.0789  0.1140
 1813TIP3    H226931   0.876   0.761  11.066  0.9176 -1.4395  0.4403
 1814TIP3   OH226932   2.418   0.970   0.536 -0.1843  0.1116  0.2637
 1814TIP3    H126933   2.462   0.972   0.621  0.0780  2.1230  0.1261
 1814TIP3    H226934   2.457   0.896   0.491 -1.5816 -2.1471  2.4888
 1815TIP3   OH226935   4.510   0.717   4.345  0.8310  0.5833 -0.4072
 1815TIP3    H126936   4.476   0.629   4.326 -1.1299  1.7970 -3.0614
 1815TIP3    H226937   4.604   0.703   4.359  1.1852 -1.6918 -3.7019
 1816TIP3   OH226938   3.296   4.315   2.221 -0.0669 -0.3389 -0.1116
 1816TIP3    H126939   3.339   4.294   2.304 -1.2496 -0.0161  0.6029
 1816TIP3    H226940   3.214   4.357   2.246 -0.2135  0.2365 -1.4545
 1817TIP3   OH226941   5.012   6.017  15.768 -0.0559 -0.2774  0.7164
 1817TIP3    H126942   5.037   6.014  15.675 -1.5175 -0.3124  0.2906
 1817TIP3    H226943   4.920   6.042  15.766 -0.7038 -2.3093  2.0573
 1818TIP3   OH226944   5.394   5.012  11.689  0.0618  0.0918  0.3206
 1818TIP3    H126945   5.313   4.974  11.657 -0.6470  0.4775  1.5553
 1818TIP3    H226946   5.405   5.093  11.639  0.0033 -0.2634 -0.2630
 1819TIP3   OH226947   2.403   3.354  14.046  0.0805  0.2797  0.5828
 1819TIP3    H126948   2.474   3.417  14.041 -1.6700  2.3626  0.2343
 1819TIP3    H226949   2.373   3.358  14.137 -0.2824  0.2328  0.4705
 1820TIP3   OH226950   5.681   1.464  11.497  0.1939  0.2800  0.0600
 1820TIP3    H126951   5.735   1.542  11.487  0.5929 -0.2247 -2.2295
 1820TIP3    H226952   5.735   1.393  11.464 -0.8981 -0.6696  0.2662
 1821TIP3   OH226953   4.991   3.379  16.966 -0.6566  0.1037 -0.6280
 1821TIP3    H126954   4.981   3.473  16.980  0.0734  0.4063 -1.9586
 1821TIP3    H226955   4.985   3.341  17.053 -1.7808  1.3006 -0.1474
 1822TIP3   OH226956   1.381   6.218  16.512  0.4169  0.8329 -0.4568
 1822TIP3    H126957   1.427   6.154  16.457  0.6204  0.9200 -0.3911
 1822TIP3    H226958   1.419   6.302  16.488  0.5131  0.8710 -0.1822
 1823TIP3   OH226959   4.153   3.585   3.257 -0.1534 -0.0750 -0.0031
 1823TIP3    H126960   4.079   3.554   3.310 -0.1355  0.2857  0.2385
 1823TIP3    H226961   4.228   3.578   3.315  0.2921 -1.8847 -0.7247
 1824TIP3   OH226962   1.135   1.523  15.052 -0.2403  0.0213  0.8515
 1824TIP3    H126963   1.106   1.528  15.143 -0.3988 -0.8263  0.8595
 1824TIP3    H226964   1.172   1.435  15.044  0.4204  0.3377  0.2837
 1825TIP3   OH226965   4.097   4.805   4.684 -0.1683 -0.0693 -0.0786
 1825TIP3    H126966   4.064   4.842   4.602  1.4811 -1.2482 -1.3635
 1825TIP3    H226967   4.024   4.754   4.718 -0.9316  0.5407 -0.7607
 1826TIP3   OH226968   2.219   1.783  11.061 -0.0904  0.1666  0.4541
 1826TIP3    H126969   2.173   1.730  10.995  0.2733  2.0540 -1.4086
 1826TIP3    H226970   2.300   1.810  11.018 -0.3317  2.3362  1.2464
 1827TIP3   OH226971   4.414   2.925   2.600 -0.0834 -0.0217  0.4888
 1827TIP3    H126972   4.326   2.894   2.581 -0.6617  1.9914 -0.4701
 1827TIP3    H226973   4.448   2.865   2.666 -2.1859 -0.8109  0.9081
 1828TIP3   OH226974   3.983   1.003   3.331 -0.4967 -0.3508  0.0936
 1828TIP3    H126975   3.995   0.968   3.419 -1.3172  0.6899  0.6611
 1828TIP3    H226976   3.895   1.041   3.333 -0.2628  0.2905 -0.9666
 1829TIP3   OH226977   4.308   1.077  13.905  0.0089  1.3109  0.0298
 1829TIP3    H126978   4.297   1.163  13.864  1.2133  1.2528 -0.4726
 1829TIP3    H226979   4.301   1.094  13.999 -1.9689  1.5798 -0.1222
 1830TIP3   OH226980   5.811   2.258   0.827  0.0481  0.3351 -0.2124
 1830TIP3    H126981   5.815   2.233   0.920 -0.2576  4.4887  1.0943
 1830TIP3    H226982   5.880   2.323   0.816  2.0191 -1.9777 -3.8055
 1831TIP3   OH226983   6.077   0.841  16.694 -0.3828 -0.4781  0.2526
 1831TIP3    H126984   6.153   0.893  16.666 -0.8972  1.4153  2.1027
 1831TIP3    H226985   6.035   0.814  16.612  1.6535 -0.6422 -0.8057
 1832TIP3   OH226986   0.531   5.250   0.671 -0.0583  0.4151  0.3009
 1832TIP3    H126987   0.491   5.216   0.751 -0.1402 -1.0447 -0.3243
 1832TIP3    H226988   0.620   5.272   0.696  0.2014 -0.8919  0.6089
 1833TIP3   OH226989   3.923   1.512  13.370  0.5067  0.0234 -0.2733
 1833TIP3    H126990   3.948   1.588  13.318 -0.1744  1.1825  1.0304
 1833TIP3    H226991   3.984   1.512  13.444  1.6692 -1.7883 -1.1393
 1834TIP3   OH226992   3.550   1.281   5.599  0.1239  0.1542  0.0244
 1834TIP3    H126993   3.640   1.254   5.615 -0.1403 -1.0408 -0.3969
 1834TIP3    H226994   3.515   1.301   5.686  0.8865  1.0192  0.1551
 1835TIP3   OH226995   5.290   3.210  12.788 -0.7046 -0.2235  0.5007
 1835TIP3    H126996   5.221   3.171  12.734 -0.3257 -0.2298  0.0077
 1835TIP3    H226997   5.329   3.136  12.834 -0.7513 -0.2766  0.4554
 1836TIP3   OH226998   6.385   0.385  14.910 -0.2512 -0.2757  0.3270
 1836TIP3    H126999   6.440   0.398  14.833 -1.5113 -2.0019 -0.9522
 1836TIP3    H227000   6.429   0.314  14.958 -0.4184 -0.4428  0.2340
 1837TIP3   OH227001   6.345   0.909  13.056  0.3939  0.1814 -0.4404
 1837TIP3    H127002   6.317   0.910  12.964 -1.2803  1.2174  0.0225
 1837TIP3    H227003   6.320   0.822  13.087  1.6055 -0.4308 -1.1202
 1838TIP3   OH227004   4.622   5.023   1.736 -0.3429 -0.0315  1.0666
 1838TIP3    H127005   4.600   4.944   1.787  0.7402  0.3565  2.1634
 1838TIP3    H227006   4.633   5.091   1.802 -0.9534  0.9861  0.1402
 1839TIP3   OH227007   0.501   0.639   0.324 -0.6531 -0.1849  0.3483
 1839TIP3    H127008   0.500   0.619   0.418 -1.0660 -0.4975  0.2827
 1839TIP3    H227009   0.569   0.705   0.314  0.8330 -1.6227  0.5757
 1840TIP3   OH227010   3.047   0.718  15.344  0.0458  0.1510 -0.3190
 1840TIP3    H127011   3.098   0.718  15.263  0.4822  1.2507 -0.0603
 1840TIP3    H227012   3.105   0.758  15.409 -0.0280 -1.3406  0.7274
 1841TIP3   OH227013   1.181   4.840   2.866 -0.0385 -0.4249 -0.0132
 1841TIP3    H127014   1.148   4.773   2.925  1.1697  0.2169  1.4506
 1841TIP3    H227015   1.158   4.923   2.907  1.5891  0.0347  0.0477
 1842TIP3   OH227016   2.871   2.074   2.969 -0.6858 -0.5523  0.6433
 1842TIP3    H127017   2.849   2.155   2.923 -2.6287 -1.2420  0.2570
 1842TIP3    H227018   2.855   2.005   2.905  1.0731 -1.2767  0.9256
 1843TIP3   OH227019   1.908   3.395   4.019  0.1483 -0.2778 -0.0419
 1843TIP3    H127020   1.867   3.363   4.099 -0.6262 -0.4378 -0.4919
 1843TIP3    H227021   1.910   3.319   3.960 -0.5974  0.1796 -0.6804
 1844TIP3   OH227022   4.538   3.792  16.607 -0.3672  0.0623  0.7115
 1844TIP3    H127023   4.529   3.732  16.533 -0.3882  0.6365  0.2323
 1844TIP3    H227024   4.474   3.762  16.671 -0.6513 -0.1911  0.3134
 1845TIP3   OH227025   3.057   3.008   1.014 -0.5909  0.4884  0.1875
 1845TIP3    H127026   3.014   3.059   1.082 -0.8951  0.9604 -0.3571
 1845TIP3    H227027   3.043   2.917   1.040 -0.4789  0.6724  0.8932
 1846TIP3   OH227028   2.573   5.500  16.132 -0.1934  0.7560 -0.0972
 1846TIP3    H127029   2.618   5.569  16.180 -1.5938  1.9051 -0.3683
 1846TIP3    H227030   2.633   5.476  16.062 -0.7035  3.6440 -1.6626
 1847TIP3   OH227031   3.432   5.143  12.235 -0.4107  0.2527 -0.3217
 1847TIP3    H127032   3.503   5.194  12.274 -0.7994  1.8980 -1.6492
 1847TIP3    H227033   3.428   5.063  12.287  1.4363  0.7761  0.6959
 1848TIP3   OH227034   0.343   6.378  11.474 -0.2482  0.5228  0.0925
 1848TIP3    H127035   0.384   6.392  11.559 -1.0244 -1.1626  0.7763
 1848TIP3    H227036   0.312   6.465  11.447  0.4263  1.1498  1.2895
 1849TIP3   OH227037   6.212   5.249  15.888 -0.1391  0.2011  0.2108
 1849TIP3    H127038   6.151   5.316  15.918 -1.4193 -1.3650  1.3454
 1849TIP3    H227039   6.181   5.224  15.801  2.0519  2.9767 -1.5028
 1850TIP3   OH227040   2.358   5.732   5.942  0.8045  0.0561 -0.0318
 1850TIP3    H127041   2.308   5.707   6.020  1.2179 -1.4599 -0.2258
 1850TIP3    H227042   2.293   5.773   5.885  0.1229 -0.4050  0.3880
 1851TIP3   OH227043   4.954   2.905  15.832  0.3619 -0.1135 -0.3604
 1851TIP3    H127044   5.033   2.861  15.801 -0.0677 -1.4576  0.3408
 1851TIP3    H227045   4.883   2.843  15.813 -0.0101 -0.7676  2.6503
 1852TIP3   OH227046   2.895   5.545   4.936 -0.4744  0.3752 -0.2222
 1852TIP3    H127047   2.979   5.519   4.974  0.0041  0.4336 -1.2054
 1852TIP3    H227048   2.872   5.473   4.878  0.2004  1.4814 -1.9405
 1853TIP3   OH227049   1.716   3.467   1.046  0.0442  0.3419 -0.4334
 1853TIP3    H127050   1.664   3.475   0.966 -0.7509 -1.6568 -0.1924
 1853TIP3    H227051   1.677   3.530   1.107 -0.9985  0.1026 -0.8256
 1854TIP3   OH227052   4.382   1.459  17.498  0.3415  0.5364 -0.1064
 1854TIP3    H127053   4.400   1.470  17.404 -1.2445 -0.8050 -0.6180
 1854TIP3    H227054   4.305   1.514  17.514  3.1749  4.5099  1.5579
 1855TIP3   OH227055   2.933   1.437   6.723 -0.2910  0.0310  0.2895
 1855TIP3    H127056   2.871   1.364   6.724 -0.2396 -0.0112  0.5625
 1855TIP3    H227057   2.889   1.505   6.672 -0.8092  0.2129  0.9557
 1856TIP3   OH227058   0.374   2.405  12.555 -0.2296  0.6380  0.2151
 1856TIP3    H127059   0.458   2.370  12.584  0.5649  2.2541 -0.0118
 1856TIP3    H227060   0.310   2.367  12.615  0.7847  0.1568  1.0230
 1857TIP3   OH227061   3.100   5.870  15.565 -0.0384 -0.1836  0.4398
 1857TIP3    H127062   3.150   5.909  15.637 -1.8689 -1.5940  2.5940
 1857TIP3    H227063   3.108   5.776  15.578  0.2865 -0.5108 -1.7707
 1858TIP3   OH227064   0.270   1.154   4.929  0.2004  0.8914 -0.8198
 1858TIP3    H127065   0.268   1.061   4.954  1.0760  1.1573  0.3074
 1858TIP3    H227066   0.228   1.156   4.843  0.3261 -0.5807 -0.9445
 1859TIP3   OH227067   2.726   2.137  15.889  0.1238 -0.3975  0.6109
 1859TIP3    H127068   2.685   2.073  15.946 -0.5859  0.3984  1.0147
 1859TIP3    H227069   2.766   2.085  15.820  0.6326 -1.3437  1.5987
 1860TIP3   OH227070   3.191   1.667   5.821 -0.1324 -0.2531 -0.3212
 1860TIP3    H127071   3.158   1.696   5.735 -0.5915 -2.0142 -0.7780
 1860TIP3    H227072   3.204   1.573   5.811  2.0670 -0.1324  0.8410
 1861TIP3   OH227073   0.871   3.590  12.359 -0.2640  0.4821 -0.0807
 1861TIP3    H127074   0.841   3.680  12.367 -0.0430  0.4229  1.6485
 1861TIP3    H227075   0.857   3.569  12.266 -1.2387  1.9552 -0.3048
 1862TIP3   OH227076   5.386   5.481  13.053  0.2431 -0.2751  0.2659
 1862TIP3    H127077   5.416   5.558  13.101 -0.1059 -0.2904  0.5129
 1862TIP3    H227078   5.292   5.495  13.041  0.3115 -0.3136 -0.3371
 1863TIP3   OH227079   6.651   5.823   1.581  0.1677 -0.5150 -0.1941
 1863TIP3    H127080   6.645   5.881   1.657  0.6705 -0.7541  0.0341
 1863TIP3    H227081   6.568   5.835   1.535  0.0376 -0.0404  0.1561
 1864TIP3   OH227082   2.097   3.632   6.149 -0.4773 -0.6463  0.2594
 1864TIP3    H127083   2.186   3.658   6.172 -1.0488  1.2216  0.5982
 1864TIP3    H227084   2.041   3.694   6.197 -1.8801 -0.2651 -1.7054
 1865TIP3   OH227085   0.332   2.089   1.829  0.5225 -1.1933  0.4300
 1865TIP3    H127086   0.375   2.094   1.914  1.7867  0.0139 -0.2352
 1865TIP3    H227087   0.257   2.148   1.836  0.4437 -1.3363  0.7950
 1866TIP3   OH227088   5.934   6.403   4.972 -0.4936 -0.1704 -0.2454
 1866TIP3    H127089   5.974   6.484   5.005  0.5488 -0.4515 -0.7534
 1866TIP3    H227090   5.909   6.424   4.882 -1.4869 -0.0139  0.0521
 1867TIP3   OH227091   4.454   3.549   6.953  0.7119 -0.5412  0.0762
 1867TIP3    H127092   4.387   3.593   7.005 -0.0356 -0.0036 -1.2858
 1867TIP3    H227093   4.426   3.458   6.950 -0.3608 -0.1983 -1.0395
 1868TIP3   OH227094   5.902   0.687   2.645 -0.2859  0.2243 -0.0909
 1868TIP3    H127095   5.842   0.733   2.704  0.8317  1.0554  0.4300
 1868TIP3    H227096   5.965   0.645   2.704  1.1076  1.4199 -0.6716
 1869TIP3   OH227097   3.500   6.112  17.301 -0.1315  0.4430 -0.7222
 1869TIP3    H127098   3.509   6.199  17.264 -1.8026  0.3928 -1.3478
 1869TIP3    H227099   3.470   6.058  17.227 -1.8582 -0.0260  0.2640
 1870TIP3   OH227100   4.471   3.324   0.533  0.0492  0.0135 -0.4411
 1870TIP3    H127101   4.441   3.390   0.597  2.0424 -0.1399  0.7287
 1870TIP3    H227102   4.477   3.243   0.584  1.8092 -0.0833 -0.7556
 1871TIP3   OH227103   2.744   2.212   5.797 -0.5139 -0.0151 -0.5315
 1871TIP3    H127104   2.779   2.246   5.879 -0.4715  1.1919 -1.0365
 1871TIP3    H227105   2.649   2.226   5.803 -0.2656  2.8369 -1.8646
 1872TIP3   OH227106   6.573   4.555  12.691  0.1991  0.1209 -0.4208
 1872TIP3    H127107   6.561   4.497  12.615  0.1844  1.9864 -1.9165
 1872TIP3    H227108   6.489   4.553  12.736  1.0516 -3.2744  1.3262
 1873TIP3   OH227109   0.326   3.364  16.309 -0.3260  0.2585  0.2434
 1873TIP3    H127110   0.283   3.438  16.266  1.0416  1.0847  0.2451
 1873TIP3    H227111   0.304   3.373  16.401 -1.3628 -0.1845  0.0460
 1874TIP3   OH227112   6.537   0.713   0.137 -0.0243 -0.1054 -0.3069
 1874TIP3    H127113   6.478   0.686   0.207  0.8823  0.5369  0.7341
 1874TIP3    H227114   6.587   0.786   0.174  1.4051 -0.6106 -1.1509
 1875TIP3   OH227115   0.753   6.318  15.929  0.0635 -0.1175  0.2023
 1875TIP3    H127116   0.811   6.253  15.889 -0.4908 -0.3387 -0.2590
 1875TIP3    H227117   0.676   6.319  15.873 -1.4070 -1.5230  2.0578
 1876TIP3   OH227118   0.082   0.399  11.973  0.7486  0.9626 -0.1502
 1876TIP3    H127119   0.014   0.366  12.032  0.3541  1.1061 -0.5162
 1876TIP3    H227120   0.148   0.330  11.971 -0.0811  0.1577 -0.9368
 1877TIP3   OH227121   6.372   4.458   6.067  0.3216 -0.0639  0.1736
 1877TIP3    H127122   6.387   4.429   6.157  1.3252 -1.0620 -0.2841
 1877TIP3    H227123   6.287   4.421   6.043  0.1405  0.0450  0.6522
 1878TIP3   OH227124   4.392   5.377  12.081  0.1661 -0.0799  0.5200
 1878TIP3    H127125   4.436   5.367  12.166  1.5718 -0.4017 -0.2115
 1878TIP3    H227126   4.329   5.447  12.095  1.1141  0.6102  1.5669
 1879TIP3   OH227127   6.303   5.433  12.332 -0.2306 -0.1929  0.0406
 1879TIP3    H127128   6.238   5.465  12.394 -0.5256  1.1651 -0.8953
 1879TIP3    H227129   6.311   5.504  12.268  0.8980 -1.0589 -0.8281
 1880TIP3   OH227130   4.195   1.174  11.664  0.2402 -0.1235  0.2757
 1880TIP3    H127131   4.114   1.207  11.625  0.3511  0.5414  0.5959
 1880TIP3    H227132   4.236   1.251  11.702  0.7397 -0.5582  0.6249
 1881TIP3   OH227133   0.450   3.525   4.214  0.1435  0.0469 -0.2737
 1881TIP3    H127134   0.503   3.599   4.184  2.1547 -1.0980  0.2043
 1881TIP3    H227135   0.489   3.449   4.170 -0.8060 -0.9034  0.4744
 1882TIP3   OH227136   4.323   0.832   4.510 -0.1923  0.3626 -0.4677
 1882TIP3    H127137   4.249   0.771   4.508  1.1585 -1.5718  1.9749
 1882TIP3    H227138   4.390   0.789   4.456  0.0775  0.7251 -0.4265
 1883TIP3   OH227139   4.784   1.025   5.061 -0.0690  0.1992  0.0175
 1883TIP3    H127140   4.790   0.958   5.129  1.3612 -0.7045 -0.9371
 1883TIP3    H227141   4.734   1.096   5.102 -0.6972 -0.9859  1.4225
 1884TIP3   OH227142   1.144   2.142  15.962 -0.3147 -0.4662  0.3957
 1884TIP3    H127143   1.172   2.234  15.966 -1.0848 -0.2621  1.4910
 1884TIP3    H227144   1.212   2.099  15.910  0.1893  0.6726  0.0673
 1885TIP3   OH227145   1.274   2.377   2.335 -0.2333 -0.0548  0.4235
 1885TIP3    H127146   1.366   2.401   2.324 -0.4287  0.9012  0.7818
 1885TIP3    H227147   1.245   2.352   2.246 -0.5949  3.2838 -0.5465
 1886TIP3   OH227148   5.758   0.845  13.869 -0.7863  0.9072  0.7394
 1886TIP3    H127149   5.839   0.832  13.819 -1.9187  2.9855 -1.9203
 1886TIP3    H227150   5.776   0.922  13.923  0.2426 -0.9999  3.2761
 1887TIP3   OH227151   6.453   4.526  15.427  0.3697 -1.0667 -0.1663
 1887TIP3    H127152   6.451   4.519  15.522  0.7717 -1.2115 -0.1672
 1887TIP3    H227153   6.412   4.610  15.408 -0.3024 -1.3328  0.0962
 1888TIP3   OH227154   2.994   0.151  15.528 -0.0551  0.2207  0.0073
 1888TIP3    H127155   2.933   0.108  15.468 -1.5771 -1.4998  2.5889
 1888TIP3    H227156   3.077   0.106  15.514 -0.5693 -0.6506 -0.3177
 1889TIP3   OH227157   0.313   3.564   6.566  0.6738 -0.2483  0.1966
 1889TIP3    H127158   0.345   3.491   6.512 -1.1993  0.3444 -1.8766
 1889TIP3    H227159   0.363   3.640   6.536 -0.0681  0.0013 -0.4532
 1890TIP3   OH227160   3.263   3.635   3.621  0.2290  0.1545  0.5055
 1890TIP3    H127161   3.260   3.543   3.596  0.3518  0.8174 -2.2957
 1890TIP3    H227162   3.355   3.651   3.645 -0.2145 -0.8822  3.3379
 1891TIP3   OH227163   6.449   4.311  16.665  0.7556  0.6511  0.2347
 1891TIP3    H127164   6.487   4.233  16.706  0.8194 -0.0288 -1.0841
 1891TIP3    H227165   6.455   4.295  16.571 -2.6855  0.5116 -0.1031
 1892TIP3   OH227166   1.227   2.639  13.900 -0.3864 -0.1590  0.4193
 1892TIP3    H127167   1.170   2.567  13.872  0.2185 -0.7616  0.6819
 1892TIP3    H227168   1.167   2.707  13.931 -0.9613 -1.0302  1.3116
 1893TIP3   OH227169   5.206   1.715   6.461 -0.4219 -0.0343  0.6268
 1893TIP3    H127170   5.172   1.669   6.384  0.6629  1.6483 -0.9205
 1893TIP3    H227171   5.258   1.648   6.507  0.1417 -0.6899 -0.9017
 1894TIP3   OH227172   6.462   3.704  12.154 -0.0262 -0.3613 -0.6987
 1894TIP3    H127173   6.392   3.753  12.111 -0.3347 -1.8498 -2.0346
 1894TIP3    H227174   6.422   3.619  12.174  0.5791 -0.2389  1.2255
 1895TIP3   OH227175   4.055   2.810  11.401  0.1881 -0.4820  0.1337
 1895TIP3    H127176   4.111   2.880  11.434  0.1273 -0.5628  0.4071
 1895TIP3    H227177   4.002   2.851  11.333  2.2315 -0.9047 -1.8351
 1896TIP3   OH227178   0.713   5.674   1.828 -0.5642  0.9133  0.2592
 1896TIP3    H127179   0.754   5.761   1.827  3.3034 -0.6616  2.1499
 1896TIP3    H227180   0.707   5.649   1.736  2.0683  1.6851 -0.2158
 1897TIP3   OH227181   4.968   5.757   4.494 -0.2617  0.1841 -0.3325
 1897TIP3    H127182   5.034   5.754   4.424  0.4798  1.0864  0.2911
 1897TIP3    H227183   4.965   5.849   4.519  0.2017 -0.2495  1.4597
 1898TIP3   OH227184   3.919   6.234  17.066  0.0990 -0.4992  0.3771
 1898TIP3    H127185   3.850   6.298  17.048  1.0393  0.6095  0.6325
 1898TIP3    H227186   3.943   6.250  17.158  2.9437  1.4109 -0.5779
 1899TIP3   OH227187   6.099   3.216  17.279  0.3938 -0.1701 -0.4873
 1899TIP3    H127188   6.082   3.233  17.187  1.4656 -0.2494 -0.7088
 1899TIP3    H227189   6.027   3.159  17.306  0.2037 -0.3428 -1.3271
 1900TIP3   OH227190   6.489   0.793   3.821 -0.3130 -0.7125  0.7416
 1900TIP3    H127191   6.571   0.747   3.805  1.4240  2.6130 -1.1250
 1900TIP3    H227192   6.500   0.833   3.907 -0.3685 -1.0638  0.9101
 1901TIP3   OH227193   1.249   2.741   5.594 -0.8676  0.3031 -0.3806
 1901TIP3    H127194   1.280   2.776   5.677  0.0786 -0.2704 -0.4703
 1901TIP3    H227195   1.154   2.744   5.600 -0.8083  1.4908  0.1922
 1902TIP3   OH227196   5.184   4.438  16.130  0.0342 -0.3013 -0.6638
 1902TIP3    H127197   5.221   4.483  16.054  2.5077 -0.5800  0.3014
 1902TIP3    H227198   5.232   4.472  16.205 -0.1834 -2.2464  0.4461
 1903TIP3   OH227199   5.436   4.615   1.473 -0.1294  0.0773  0.0781
 1903TIP3    H127200   5.456   4.540   1.418 -1.1763 -0.1618  0.0066
 1903TIP3    H227201   5.522   4.646   1.503  0.3652 -0.6190 -0.5702
 1904TIP3   OH227202   1.518   4.488  11.920  0.0452  0.6619 -0.9428
 1904TIP3    H127203   1.449   4.425  11.902 -0.3478  1.2639 -1.6004
 1904TIP3    H227204   1.588   4.466  11.858  1.5185 -1.4725  1.2773
 1905TIP3   OH227205   5.351   1.235  15.551 -0.4793 -0.4685 -0.1412
 1905TIP3    H127206   5.290   1.223  15.478  0.3731  0.0345 -0.9589
 1905TIP3    H227207   5.386   1.147  15.566 -2.2018 -1.0060  1.1073
 1906TIP3   OH227208   0.187   4.689   3.403 -0.2774  0.0780 -0.0078
 1906TIP3    H127209   0.237   4.649   3.474  1.9787  1.9488 -0.3928
 1906TIP3    H227210   0.223   4.650   3.323  0.1769  0.9990 -0.2675
 1907TIP3   OH227211   0.231   1.796   2.596  0.2729 -0.0237  0.1889
 1907TIP3    H127212   0.321   1.769   2.614  0.8960  0.6072 -1.6920
 1907TIP3    H227213   0.196   1.725   2.541  0.0281  0.3137 -0.0897
 1908TIP3   OH227214   3.879   4.580  16.073  0.2932 -0.3531  0.5653
 1908TIP3    H127215   3.872   4.531  16.156  0.7967 -2.3386 -0.5033
 1908TIP3    H227216   3.802   4.554  16.024  0.8629 -0.5381 -0.2491
 1909TIP3   OH227217   0.526   5.693  16.765  0.5407 -0.4556  0.3696
 1909TIP3    H127218   0.553   5.601  16.763 -1.0981 -0.9441 -0.6204
 1909TIP3    H227219   0.462   5.698  16.835  1.3231  0.1784  1.0704
 1910TIP3   OH227220   5.706   4.390  13.466 -0.4815 -0.3126  0.0893
 1910TIP3    H127221   5.660   4.440  13.398  0.0636 -0.7953 -0.6533
 1910TIP3    H227222   5.783   4.355  13.422  0.8345  0.7901  1.4051
 1911TIP3   OH227223   1.016   4.367  11.028 -0.3262  0.6631  0.5164
 1911TIP3    H127224   0.959   4.410  10.963 -0.0176 -0.0311 -0.2325
 1911TIP3    H227225   1.072   4.310  10.976  1.0708  1.3160  1.2439
 1912TIP3   OH227226   5.305   6.194  12.515  0.2466 -0.2019  0.2600
 1912TIP3    H127227   5.391   6.207  12.555  0.7046 -0.8003 -0.4940
 1912TIP3    H227228   5.258   6.276  12.531 -0.2273 -1.0020  3.4868
 1913TIP3   OH227229   2.078   2.439   3.012 -0.1661 -0.5162 -0.0434
 1913TIP3    H127230   2.173   2.433   3.009  0.0042  1.6416 -3.0194
 1913TIP3    H227231   2.060   2.500   3.084  0.6929 -0.6836  0.3247
 1914TIP3   OH227232   2.834   3.252  14.954  0.0922  0.3805 -0.1418
 1914TIP3    H127233   2.791   3.180  15.001  1.8081 -0.1113  0.7783
 1914TIP3    H227234   2.920   3.259  14.996  0.4187  2.1777 -1.0295
 1915TIP3   OH227235   6.264   1.605   2.577  0.1759  0.4218 -0.0198
 1915TIP3    H127236   6.338   1.607   2.518  0.5311 -0.9242  0.3400
 1915TIP3    H227237   6.189   1.586   2.521  0.4924 -0.7216 -0.0839
 1916TIP3   OH227238   2.389   6.751   6.307  0.5004 -0.4322 -0.0986
 1916TIP3    H127239   2.459   6.816   6.317  1.6283 -1.4821 -0.8377
 1916TIP3    H227240   2.435   6.669   6.290 -0.9073 -1.3082  0.1625
 1917TIP3   OH227241   4.443   1.484   3.017  0.2479 -0.1793  0.2342
 1917TIP3    H127242   4.401   1.416   2.965 -1.0136 -0.3209  1.3830
 1917TIP3    H227243   4.400   1.565   2.990 -0.5994 -0.2871  1.2078
 1918TIP3   OH227244   2.701   2.862  13.671  0.2015  0.3567  0.4538
 1918TIP3    H127245   2.634   2.918  13.630 -0.1140  0.9006  1.6688
 1918TIP3    H227246   2.754   2.922  13.722  1.7900 -0.0480 -0.6609
 1919TIP3   OH227247   5.942   2.392  12.890 -0.1435  0.8251  0.2367
 1919TIP3    H127248   6.020   2.366  12.940 -0.2010 -3.0018 -1.3445
 1919TIP3    H227249   5.875   2.329  12.916 -1.8305  2.1567 -0.6812
 1920TIP3   OH227250   5.882   5.160  16.272 -0.3719  0.4216  0.1835
 1920TIP3    H127251   5.789   5.141  16.258  0.1156 -0.7963 -1.9626
 1920TIP3    H227252   5.883   5.244  16.318 -2.5388 -0.8189  2.7251
 1921TIP3   OH227253   5.732   6.434   0.435  0.3503 -0.0287  0.0103
 1921TIP3    H127254   5.761   6.456   0.347 -2.1292 -0.7539 -1.0744
 1921TIP3    H227255   5.648   6.478   0.445  0.7639  0.3864  2.2100
 1922TIP3   OH227256   2.163   4.144   3.865  0.3574  0.3575  0.1288
 1922TIP3    H127257   2.188   4.082   3.934 -3.0963 -0.2405  1.0471
 1922TIP3    H227258   2.084   4.106   3.826 -1.8326  3.9265  0.5791
 1923TIP3   OH227259   0.538   6.601  12.757 -0.5946 -0.2275  0.0814
 1923TIP3    H127260   0.632   6.615  12.756 -0.6867  0.3975 -0.1006
 1923TIP3    H227261   0.502   6.680  12.798 -1.2033  0.6342 -2.0139
 1924TIP3   OH227262   6.487   5.344  16.529  0.3900  0.0255 -0.1785
 1924TIP3    H127263   6.499   5.256  16.565 -0.7444 -0.8959 -1.9460
 1924TIP3    H227264   6.549   5.349  16.456  0.7918  0.9141  0.1937
 1925TIP3   OH227265   1.833   2.122  14.390  0.0473 -0.3808  0.1023
 1925TIP3    H127266   1.897   2.127  14.461 -0.7376 -1.8452  0.9541
 1925TIP3    H227267   1.885   2.129  14.310  1.1143 -0.1973  0.8008
 1926TIP3   OH227268   4.962   5.218   5.723  0.2895 -0.4289  0.1057
 1926TIP3    H127269   5.049   5.199   5.687  0.5047 -2.0508  1.3645
 1926TIP3    H227270   4.957   5.313   5.725  0.6206 -0.2167 -3.2341
 1927TIP3   OH227271   2.572   5.950   3.276 -0.4627  0.4222  0.1582
 1927TIP3    H127272   2.633   5.918   3.210 -1.3290  0.7986 -0.8486
 1927TIP3    H227273   2.516   5.875   3.295  1.1935 -0.4025  2.2138
 1928TIP3   OH227274   5.399   0.190  12.072  0.2928 -0.1300 -0.1772
 1928TIP3    H127275   5.431   0.271  12.113  1.1545 -1.4969  1.9784
 1928TIP3    H227276   5.327   0.162  12.128  1.5709 -2.1211  0.5664
 1929TIP3   OH227277   3.974   4.419  14.460  0.8052  0.5522 -0.5027
 1929TIP3    H127278   3.970   4.476  14.538 -0.1976 -1.4049  0.9562
 1929TIP3    H227279   3.908   4.455  14.401 -0.1877  0.6375  0.6200
 1930TIP3   OH227280   1.826   2.870   3.945 -0.1054  0.1785  0.4451
 1930TIP3    H127281   1.915   2.887   3.916 -0.4256 -0.0463 -0.7266
 1930TIP3    H227282   1.835   2.799   4.008  0.5367  0.0842  0.2551
 1931TIP3   OH227283   0.624   2.024  15.939  0.1762 -0.0485 -0.0522
 1931TIP3    H127284   0.698   2.014  15.999  0.0417 -0.5534  0.0303
 1931TIP3    H227285   0.664   2.020  15.852  0.4118  0.9900 -0.0074
 1932TIP3   OH227286   2.565   1.316  13.610  0.2863 -0.2252  0.3096
 1932TIP3    H127287   2.531   1.394  13.565 -1.2066 -0.4569  0.9504
 1932TIP3    H227288   2.603   1.263  13.540 -1.4083 -0.2909 -0.6318
 1933TIP3   OH227289   2.337   0.118  10.219 -0.2906 -0.5256 -0.0695
 1933TIP3    H127290   2.373   0.036  10.254  0.2982 -0.0241  0.5197
 1933TIP3    H227291   2.242   0.108  10.227 -0.1698 -0.3017  1.9874
 1934TIP3   OH227292   1.685   3.729   3.608  0.3935 -0.3717 -0.1015
 1934TIP3    H127293   1.749   3.744   3.678  0.0827 -0.6163  0.2404
 1934TIP3    H227294   1.738   3.721   3.529  0.8920 -1.6023  0.3191
 1935TIP3   OH227295   2.766   4.452   4.639 -0.3478 -0.3510  0.1605
 1935TIP3    H127296   2.816   4.454   4.557 -0.6762  0.6689 -0.0378
 1935TIP3    H227297   2.825   4.410   4.702 -0.5328 -2.2612 -0.8569
 1936TIP3   OH227298   2.857   6.025   0.012  0.5388 -0.0304 -0.0890
 1936TIP3    H127299   2.852   5.943  -0.038 -0.3558 -1.7405  2.5895
 1936TIP3    H227300   2.774   6.029   0.061  0.4073  2.6862 -0.3495
 1937TIP3   OH227301   2.000   5.070   2.225  0.0607 -0.3382  0.3553
 1937TIP3    H127302   2.071   5.128   2.252  0.1377 -0.4780  0.4587
 1937TIP3    H227303   2.023   5.043   2.136 -0.9246  1.2587 -0.4132
 1938TIP3   OH227304   0.946   1.331   2.720  0.5812 -0.7288 -0.4657
 1938TIP3    H127305   0.986   1.345   2.634 -0.6219 -1.7092 -1.2193
 1938TIP3    H227306   0.928   1.237   2.723 -1.6331 -0.3451 -0.1762
 1939TIP3   OH227307   4.632   6.599   3.313  0.2854  0.4104 -0.5685
 1939TIP3    H127308   4.545   6.596   3.352  1.0622  0.8475  1.3421
 1939TIP3    H227309   4.653   6.508   3.292 -1.1337  0.4479 -2.3366
 1940TIP3   OH227310   0.259   2.299  15.560  0.3945  0.5132  0.5046
 1940TIP3    H127311   0.239   2.367  15.623 -0.5937  0.9156 -0.2132
 1940TIP3    H227312   0.215   2.221  15.594  0.7351  0.4637  0.8379
 1941TIP3   OH227313   5.619   3.085   3.871  0.2510 -0.3563 -0.1351
 1941TIP3    H127314   5.548   3.145   3.849  0.1248  0.2719  1.7861
 1941TIP3    H227315   5.699   3.134   3.850  0.1358  0.1633  0.6082
 1942TIP3   OH227316   6.222   3.246  12.506  0.3748  0.3662  0.4541
 1942TIP3    H127317   6.190   3.156  12.497  1.8017 -0.2185  0.8597
 1942TIP3    H227318   6.170   3.297  12.445  0.1147 -0.9027 -0.4110
 1943TIP3   OH227319   2.670   2.184  11.322 -0.0314 -0.8232 -0.1913
 1943TIP3    H127320   2.763   2.170  11.339  0.0891 -0.4457 -0.5321
 1943TIP3    H227321   2.667   2.232  11.240 -0.3575  2.3741  1.5209
 1944TIP3   OH227322   4.148   3.761   3.036 -0.0843  0.1372  0.3104
 1944TIP3    H127323   4.172   3.674   3.005  1.1760  0.0718  1.3857
 1944TIP3    H227324   4.172   3.760   3.129  3.5857  2.8179 -0.3809
 1945TIP3   OH227325   5.157   1.467  11.114  0.3368 -0.5922 -0.7402
 1945TIP3    H127326   5.223   1.432  11.053 -0.1774 -1.6572 -0.7072
 1945TIP3    H227327   5.107   1.530  11.061 -0.1352 -1.5359 -1.4601
 1946TIP3   OH227328   3.961   3.416  14.974  0.0177 -0.2782 -0.3538
 1946TIP3    H127329   3.917   3.334  14.997  0.6270 -0.4396  0.2809
 1946TIP3    H227330   3.945   3.427  14.881 -1.8792 -0.0279 -0.0536
 1947TIP3   OH227331   6.041   1.285   5.502 -0.6157  0.5210  0.4768
 1947TIP3    H127332   5.949   1.281   5.528 -1.0213 -2.5187 -1.0309
 1947TIP3    H227333   6.089   1.269   5.583 -1.4364  0.6252  0.9979
 1948TIP3   OH227334   0.972   1.916  12.211 -0.2056 -0.0520 -0.3862
 1948TIP3    H127335   1.061   1.905  12.246 -0.5644 -3.2120 -0.2084
 1948TIP3    H227336   0.986   1.956  12.126  1.3150  0.4606  0.0561
 1949TIP3   OH227337   3.540   0.033   1.853 -0.7376 -0.4580 -0.0025
 1949TIP3    H127338   3.526  -0.005   1.766 -0.0335 -0.5671 -0.0714
 1949TIP3    H227339   3.613  -0.016   1.890 -0.9728 -0.3481  0.6165
 1950TIP3   OH227340   2.007   0.724  14.700  0.1708 -0.3540 -0.3883
 1950TIP3    H127341   1.931   0.767  14.661  1.5371  0.9587 -1.7686
 1950TIP3    H227342   2.016   0.642  14.652 -0.2476 -0.4018 -0.3853
 1951TIP3   OH227343   1.766   2.952  13.570  0.1054 -0.5765 -0.1687
 1951TIP3    H127344   1.685   2.975  13.523 -0.9156 -0.2557  1.6583
 1951TIP3    H227345   1.824   3.026  13.554 -0.5786 -0.0213 -0.1595
 1952TIP3   OH227346   2.475   5.465  11.328 -0.6366 -0.7986 -0.0723
 1952TIP3    H127347   2.416   5.394  11.304 -0.0869 -1.4398  0.4387
 1952TIP3    H227348   2.489   5.454  11.422 -0.8820  0.2438  0.0923
 1953TIP3   OH227349   1.155   3.763  13.040 -0.4083  0.1694  0.3948
 1953TIP3    H127350   1.147   3.857  13.026 -2.0879 -0.0440 -0.3538
 1953TIP3    H227351   1.072   3.738  13.080  0.0523 -0.9914  0.6708
 1954TIP3   OH227352   0.405   3.204   1.140  0.4021  0.6766 -0.1422
 1954TIP3    H127353   0.446   3.121   1.118 -0.1648  0.1572  0.6840
 1954TIP3    H227354   0.328   3.209   1.084 -0.5358 -0.2113  1.0081
 1955TIP3   OH227355   4.744   0.155   5.696  0.0082  0.3769 -0.2783
 1955TIP3    H127356   4.831   0.167   5.735  0.1860  4.9681 -1.4440
 1955TIP3    H227357   4.683   0.178   5.766 -0.3775 -2.2050  0.3405
 1956TIP3   OH227358   5.160   4.985   1.957 -0.1075  0.8510  0.7351
 1956TIP3    H127359   5.126   4.909   2.003  1.1969  0.1442  0.5899
 1956TIP3    H227360   5.237   5.012   2.008 -1.2077  2.8151  1.4566
 1957TIP3   OH227361   5.455   4.796  11.508 -0.0633  0.3506  0.5077
 1957TIP3    H127362   5.472   4.854  11.582  0.2085 -0.5250  1.1510
 1957TIP3    H227363   5.528   4.809  11.449 -0.9737  2.0807 -0.2922
 1958TIP3   OH227364   0.890   3.007  13.601 -0.7313 -0.2372 -0.6967
 1958TIP3    H127365   0.969   2.997  13.547 -0.9332  0.6439 -1.1850
 1958TIP3    H227366   0.846   2.922  13.595 -0.1599 -0.5189 -0.9755
 1959TIP3   OH227367   5.078   4.829  12.376  0.5828 -0.2907 -0.9284
 1959TIP3    H127368   5.029   4.753  12.405 -1.3037  0.4505 -1.9509
 1959TIP3    H227369   5.144   4.843  12.443 -1.3192 -0.7005  1.1412
 1960TIP3   OH227370   3.819   2.854   0.331 -0.1955  0.5137 -0.2922
 1960TIP3    H127371   3.912   2.834   0.327 -0.1590  0.7108 -0.4931
 1960TIP3    H227372   3.775   2.769   0.323 -0.0392  0.4614 -0.6255
 1961TIP3   OH227373   1.753   0.445  12.197  0.1609 -0.0818 -0.4606
 1961TIP3    H127374   1.694   0.397  12.256  0.1171 -0.9496 -1.1900
 1961TIP3    H227375   1.791   0.514  12.252  0.1323 -0.8766  0.5899
 1962TIP3   OH227376   4.804   1.828   5.636  0.2347 -1.0673  0.1249
 1962TIP3    H127377   4.767   1.748   5.598  0.7466 -1.1605 -0.1858
 1962TIP3    H227378   4.890   1.801   5.668 -0.0029 -0.8821  0.9471
 1963TIP3   OH227379   5.670   0.398   4.194  0.4210  0.1678 -0.6741
 1963TIP3    H127380   5.665   0.318   4.142  0.8109  0.2651 -0.8623
 1963TIP3    H227381   5.760   0.429   4.182  1.3908 -1.2012  2.0966
 1964TIP3   OH227382   6.252   0.677  14.551 -0.1286 -0.0482  0.0850
 1964TIP3    H127383   6.238   0.595  14.599 -0.1469  0.8368  1.6704
 1964TIP3    H227384   6.340   0.705  14.577  0.0352  0.2448 -0.7555
 1965TIP3   OH227385   1.212   0.212   0.264  0.1766 -0.3274  0.3640
 1965TIP3    H127386   1.175   0.145   0.206 -1.4371  0.0486  0.9119
 1965TIP3    H227387   1.144   0.228   0.329  0.3408  2.1387  0.0128
 1966TIP3   OH227388   5.121   6.447   4.579  0.3931  0.1342  0.9515
 1966TIP3    H127389   5.074   6.477   4.501  0.5114 -0.5496  0.6050
 1966TIP3    H227390   5.199   6.403   4.545 -0.4247 -1.7192  1.3371
 1967TIP3   OH227391   3.937   3.756  12.798  0.0846 -0.2770 -0.7556
 1967TIP3    H127392   3.941   3.772  12.892 -1.1939 -1.5411 -0.4531
 1967TIP3    H227393   3.899   3.836  12.762  0.8985  0.3488 -0.2499
 1968TIP3   OH227394   5.783   2.418   2.908 -0.0262 -0.0729  0.2370
 1968TIP3    H127395   5.870   2.380   2.923 -0.2169 -1.0473 -0.9676
 1968TIP3    H227396   5.735   2.398   2.988 -0.1160 -2.4406 -0.3347
 1969TIP3   OH227397   0.946   0.792  15.108 -0.1327 -0.2732  0.0047
 1969TIP3    H127398   0.877   0.729  15.086 -0.6014  0.8043 -1.7539
 1969TIP3    H227399   0.961   0.778  15.202 -2.4724 -0.7942  0.3664
 1970TIP3   OH227400   6.332   3.431  17.337 -0.0642 -0.1059 -0.1493
 1970TIP3    H127401   6.321   3.461  17.247 -0.2761  1.0405  0.2516
 1970TIP3    H227402   6.389   3.496  17.378 -0.2441 -0.4345  0.6446
 1971TIP3   OH227403   3.843   0.853   5.201 -0.0983  0.8435 -0.6241
 1971TIP3    H127404   3.904   0.838   5.273 -1.8921 -0.2292  0.7650
 1971TIP3    H227405   3.830   0.948   5.200 -0.0324  0.8749  0.4471
 1972TIP3   OH227406   3.950   2.411   5.125 -0.4886 -0.0210  0.2028
 1972TIP3    H127407   3.893   2.426   5.050  0.3800  1.8490 -0.1259
 1972TIP3    H227408   4.033   2.381   5.086 -0.2173  0.4117  0.4418
 1973TIP3   OH227409   5.836   4.732   4.733  0.5087  0.4418 -0.3104
 1973TIP3    H127410   5.912   4.688   4.694  0.8257  1.3826 -0.7920
 1973TIP3    H227411   5.790   4.663   4.781 -0.6356 -1.1185 -3.3914
 1974TIP3   OH227412   3.202   1.111   0.100  0.2794 -0.4538 -1.0711
 1974TIP3    H127413   3.202   1.106   0.196 -0.1336 -2.0184 -1.1252
 1974TIP3    H227414   3.129   1.169   0.079 -0.6655 -1.3898 -0.4620
 1975TIP3   OH227415   4.627   3.938   4.033  0.4255  0.5280 -0.6025
 1975TIP3    H127416   4.696   3.939   3.967  2.1732 -0.8073  1.1090
 1975TIP3    H227417   4.579   3.856   4.018  2.9105 -1.5206  1.6737
 1976TIP3   OH227418   3.460   1.725  14.150  0.0111  0.1318 -0.1743
 1976TIP3    H127419   3.514   1.803  14.161 -2.3561  1.5217  3.1584
 1976TIP3    H227420   3.521   1.652  14.163  1.6708  1.4772  0.0278
 1977TIP3   OH227421   3.505   0.564   2.180 -0.4310  0.1432  1.1811
 1977TIP3    H127422   3.442   0.534   2.116  0.0364 -2.9278  2.0036
 1977TIP3    H227423   3.582   0.589   2.128 -1.1740  0.8534  0.3918
 1978TIP3   OH227424   3.045   1.413  16.489 -0.5716  0.5927  0.3722
 1978TIP3    H127425   2.975   1.392  16.550  0.7561 -2.0687  1.1194
 1978TIP3    H227426   3.031   1.354  16.415  1.0723 -0.3381  0.7476
 1979TIP3   OH227427   1.043   2.248  16.546 -0.4283  0.1477 -0.2138
 1979TIP3    H127428   0.993   2.224  16.467 -0.5040 -0.0515 -0.1046
 1979TIP3    H227429   1.038   2.344  16.548 -0.2423  0.1689 -0.5715
 1980TIP3   OH227430   3.085   5.657   0.811  0.0315  0.0508 -0.4118
 1980TIP3    H127431   3.070   5.721   0.881 -1.7786  0.3506 -1.0181
 1980TIP3    H227432   3.170   5.680   0.775  0.5099  0.5662  0.9676
 1981TIP3   OH227433   6.241   1.989   0.090  0.0583 -0.0381 -0.3687
 1981TIP3    H127434   6.234   2.071   0.042 -0.9929 -0.5118 -1.0849
 1981TIP3    H227435   6.191   2.004   0.170 -0.6369 -0.1467 -0.7692
 1982TIP3   OH227436   5.377   0.804  16.380 -0.2653 -0.1312 -0.2385
 1982TIP3    H127437   5.294   0.757  16.374 -0.0602 -0.6699  0.9827
 1982TIP3    H227438   5.355   0.888  16.419 -0.6068  0.7783 -2.2765
 1983TIP3   OH227439   3.711   4.967  11.337 -0.2525 -0.4420 -0.1526
 1983TIP3    H127440   3.790   4.913  11.348  0.8388  1.0610 -0.3036
 1983TIP3    H227441   3.692   4.962  11.243  1.2699  1.2778 -0.6074
 1984TIP3   OH227442   0.512   1.148  11.657 -0.5428  0.2010 -0.4021
 1984TIP3    H127443   0.502   1.053  11.666 -1.3934  0.3036 -0.2364
 1984TIP3    H227444   0.423   1.181  11.649 -0.2361  0.9677 -0.6986
 1985TIP3   OH227445   3.659   5.557  12.221 -0.5979 -0.1880 -0.0765
 1985TIP3    H127446   3.646   5.629  12.282  1.1244 -1.5445  2.0234
 1985TIP3    H227447   3.728   5.587  12.162 -1.6314  0.7755 -0.8383
 1986TIP3   OH227448   0.526   5.652  12.569 -0.1618  0.3359 -0.1794
 1986TIP3    H127449   0.600   5.623  12.516  0.5563 -2.0098  1.8920
 1986TIP3    H227450   0.455   5.664  12.507  0.8825 -1.3251 -1.7794
 1987TIP3   OH227451   2.743   5.438   1.525 -0.3774 -0.6808  0.7216
 1987TIP3    H127452   2.812   5.375   1.548 -1.0725 -1.0691  1.8432
 1987TIP3    H227453   2.669   5.383   1.500 -0.3769 -0.2703 -0.2034
 1988TIP3   OH227454   5.968   3.145   5.820 -0.2929  0.2390 -0.8328
 1988TIP3    H127455   5.893   3.093   5.789  0.0664 -1.9808  1.7000
 1988TIP3    H227456   5.940   3.179   5.905  0.9780  0.7986 -0.6236
 1989TIP3   OH227457   0.977   5.613  14.499 -0.5117 -0.6215  0.1683
 1989TIP3    H127458   1.024   5.677  14.445 -0.4030  1.2777  2.3824
 1989TIP3    H227459   0.945   5.549  14.436  1.2585  0.4032 -1.9235
 1990TIP3   OH227460   0.073   5.742  16.934 -0.3061 -0.1103  0.2534
 1990TIP3    H127461   0.075   5.755  17.029 -0.1271  1.0841  0.0999
 1990TIP3    H227462   0.101   5.651  16.922  2.1738  0.4474  1.2354
 1991TIP3   OH227463   4.388   1.913   3.245 -0.1421 -0.5371  0.0241
 1991TIP3    H127464   4.445   1.990   3.244 -2.1007  0.9853 -0.4947
 1991TIP3    H227465   4.446   1.841   3.272  2.1746  0.7291 -1.2607
 1992TIP3   OH227466   5.582   6.358  11.445 -0.2890 -0.2964 -0.0638
 1992TIP3    H127467   5.571   6.452  11.439 -1.1322 -0.4005 -0.2677
 1992TIP3    H227468   5.667   6.341  11.402 -0.3358  0.3166 -0.4130
 1993TIP3   OH227469   2.291   2.897  13.801  0.1598 -0.0495 -0.0763
 1993TIP3    H127470   2.205   2.880  13.763 -1.5984  2.9229  2.1139
 1993TIP3    H227471   2.289   2.851  13.885  1.9305 -2.2057 -1.0892
 1994TIP3   OH227472   5.199   3.979  15.767  0.7348 -0.4132  0.2293
 1994TIP3    H127473   5.196   4.071  15.794  2.1179 -0.7334  1.6340
 1994TIP3    H227474   5.193   3.929  15.849  0.4393 -1.5773 -0.4718
 1995TIP3   OH227475   2.116   0.948   4.581  0.0034  0.3369  0.2983
 1995TIP3    H127476   2.087   0.886   4.514  2.1397 -0.5124  0.0777
 1995TIP3    H227477   2.114   0.897   4.663  0.6977  0.3097  0.3010
 1996TIP3   OH227478   4.582   0.621   3.429  0.1261 -0.0739 -0.5799
 1996TIP3    H127479   4.632   0.683   3.375 -0.8229  0.1818 -1.2007
 1996TIP3    H227480   4.519   0.583   3.368  0.2763 -1.1846 -0.0482
 1997TIP3   OH227481   2.935   1.794   0.394  1.0605  0.5180  0.0071
 1997TIP3    H127482   2.951   1.734   0.468  0.7429  1.2729  0.7047
 1997TIP3    H227483   2.882   1.864   0.432  1.4164  1.2358 -0.8001
 1998TIP3   OH227484   3.838   2.650  13.742 -0.6225 -0.0286 -0.2155
 1998TIP3    H127485   3.771   2.649  13.673  1.2742  0.2354 -2.1698
 1998TIP3    H227486   3.842   2.559  13.771 -1.5308 -0.1309 -0.3728
 1999TIP3   OH227487   3.856   4.089  11.503 -0.3647 -0.1554 -0.3699
 1999TIP3    H127488   3.776   4.132  11.473 -0.1805 -0.0452 -0.7108
 1999TIP3    H227489   3.864   4.011  11.447 -0.8981 -0.8529  0.4861
 2000TIP3   OH227490   1.203   4.235  15.727 -0.3479 -0.2784  0.0487
 2000TIP3    H127491   1.133   4.201  15.782  1.0101 -0.0612  2.0048
 2000TIP3    H227492   1.275   4.172  15.737 -0.0441 -0.2266 -1.5015
 2001TIP3   OH227493   4.944   6.685   5.868  0.0211 -0.4436 -0.4917
 2001TIP3    H127494   4.894   6.719   5.942  1.0865  0.5552 -0.1847
 2001TIP3    H227495   4.993   6.611   5.904 -1.6737 -1.8384 -0.9540
 2002TIP3   OH227496   1.314   2.840   4.090  0.3772  0.0619  0.3024
 2002TIP3    H127497   1.328   2.746   4.077 -0.0255  0.0328  0.0936
 2002TIP3    H227498   1.349   2.857   4.178  0.4201 -0.2875  0.3537
 2003TIP3   OH227499   0.262   3.729   0.130 -0.4599 -0.4886 -0.4361
 2003TIP3    H127500   0.323   3.678   0.077  0.5494  0.7917 -0.5596
 2003TIP3    H227501   0.268   3.818   0.095 -2.5516 -0.3555 -0.5585
 2004TIP3   OH227502   3.261   5.972  10.851  0.3622  0.0948 -0.2842
 2004TIP3    H127503   3.248   5.897  10.793  1.0069 -0.4124  0.2158
 2004TIP3    H227504   3.220   5.945  10.933 -0.6419  0.8519 -0.5225
 2005TIP3   OH227505   0.375   0.042   1.827  0.1031 -0.1549  0.1957
 2005TIP3    H127506   0.406  -0.042   1.859  2.1435  0.7054  0.6726
 2005TIP3    H227507   0.361   0.028   1.733  0.1242 -1.1031  0.3242
 2006TIP3   OH227508   1.394   1.721  14.555  0.5659 -0.0009  0.7242
 2006TIP3    H127509   1.489   1.712  14.563  0.8147  0.8786 -0.8493
 2006TIP3    H227510   1.366   1.640  14.512  1.3417  1.6185 -3.3210
 2007TIP3   OH227511   6.624   2.882   1.733 -0.1620 -0.0280 -0.0295
 2007TIP3    H127512   6.600   2.939   1.806 -0.9172 -0.6456  0.2150
 2007TIP3    H227513   6.651   2.942   1.663  0.9676  0.5564  0.8904
 2008TIP3   OH227514   5.594   2.068   5.724 -0.4093 -0.0208  0.0690
 2008TIP3    H127515   5.523   2.005   5.734  0.9792 -2.1443 -2.2685
 2008TIP3    H227516   5.671   2.025   5.761  0.3718  0.7230 -0.6143
 2009TIP3   OH227517   5.027   3.658  17.228  0.0661 -0.3290 -0.0751
 2009TIP3    H127518   5.061   3.721  17.164 -0.3736 -0.9973 -1.0084
 2009TIP3    H227519   4.934   3.650  17.205 -0.2238 -0.1736  1.0114
 2010TIP3   OH227520   4.114   3.094  12.569  0.2529  0.1562  0.5312
 2010TIP3    H127521   4.122   3.136  12.483 -4.0610  0.6246  0.1584
 2010TIP3    H227522   4.051   3.023  12.555  0.0800 -0.2920  3.1301
 2011TIP3   OH227523   5.585   4.150   2.953  0.1739  0.3963  0.4926
 2011TIP3    H127524   5.657   4.192   2.999  0.8419 -2.1867  2.0356
 2011TIP3    H227525   5.586   4.060   2.985 -1.6806 -0.5959 -1.9380
 2012TIP3   OH227526   5.870   4.924  15.632  0.4867  0.3701  0.1761
 2012TIP3    H127527   5.886   5.018  15.642  2.6503  0.1230 -0.4898
 2012TIP3    H227528   5.857   4.911  15.538 -0.6171  0.0900  0.3520
 2013TIP3   OH227529   2.913   6.078  16.946  0.0156  0.3744  0.0453
 2013TIP3    H127530   2.971   6.030  16.886  2.5027  2.3600  0.6878
 2013TIP3    H227531   2.911   6.167  16.912 -0.5827  0.9541  1.5043
 2014TIP3   OH227532   4.249   6.436  12.765 -0.1110  0.2525 -0.0858
 2014TIP3    H127533   4.175   6.470  12.816 -0.4505  0.9971 -1.0370
 2014TIP3    H227534   4.285   6.513  12.721  1.9864  0.1073  1.2441
 2015TIP3   OH227535   0.105   6.275   1.879 -0.0372 -0.3654 -0.6092
 2015TIP3    H127536   0.107   6.348   1.940  1.1468 -0.1738 -0.8699
 2015TIP3    H227537   0.183   6.285   1.825  0.5523 -2.2363 -0.1739
 2016TIP3   OH227538   4.712   2.375   4.921  0.2268  0.3488  0.4445
 2016TIP3    H127539   4.739   2.325   4.998 -0.9943 -0.3056  0.4769
 2016TIP3    H227540   4.713   2.311   4.850  0.9044  0.8408 -0.0006
 2017TIP3   OH227541   3.335   3.738   1.962  0.2423  0.0513  0.8677
 2017TIP3    H127542   3.302   3.653   1.932 -0.4002  1.2075 -2.1209
 2017TIP3    H227543   3.411   3.717   2.016  0.3766 -2.4228 -0.1474
 2018TIP3   OH227544   2.836   4.537   4.021 -0.7586 -0.2376 -0.4808
 2018TIP3    H127545   2.910   4.543   3.960 -1.7557 -0.7312 -1.7993
 2018TIP3    H227546   2.800   4.626   4.024  0.2351  0.1451  0.6517
 2019TIP3   OH227547   4.632   1.407  16.271  0.1348  0.4244 -0.2118
 2019TIP3    H127548   4.641   1.377  16.180 -0.0184 -0.0980 -0.0582
 2019TIP3    H227549   4.597   1.496  16.264 -1.8696 -0.3459 -0.6308
 2020TIP3   OH227550   5.957   0.076   6.438  0.1056 -0.3801 -0.3030
 2020TIP3    H127551   6.052   0.072   6.426  0.0175 -0.6246 -0.9920
 2020TIP3    H227552   5.941   0.028   6.519  0.3969 -2.1468 -1.2267
 2021TIP3   OH227553   6.430   0.932  16.137  0.3833 -0.2483 -0.2340
 2021TIP3    H127554   6.345   0.920  16.096  0.1886  0.5158 -0.0618
 2021TIP3    H227555   6.422   0.890  16.222  0.0264  0.2066 -0.0351
 2022TIP3   OH227556   3.798   5.931   0.709 -0.1084 -0.9364 -0.4060
 2022TIP3    H127557   3.725   5.974   0.665 -0.3598 -1.3968 -0.4546
 2022TIP3    H227558   3.757   5.876   0.775  0.2604 -0.3751  0.2961
 2023TIP3   OH227559   5.150   1.490   1.920 -0.2164  0.1488 -0.5623
 2023TIP3    H127560   5.243   1.498   1.899 -0.5433 -0.1491 -2.2727
 2023TIP3    H227561   5.106   1.554   1.863 -1.1142 -0.1635 -0.2474
 2024TIP3   OH227562   2.684   4.575  12.783 -0.1206 -0.7459  0.6739
 2024TIP3    H127563   2.652   4.512  12.848 -0.1939 -1.5156 -0.0838
 2024TIP3    H227564   2.664   4.660  12.821  1.9358 -1.0761  2.7357
 2025TIP3   OH227565   0.583   2.077   2.242  0.1018  0.3320  0.4162
 2025TIP3    H127566   0.664   2.055   2.196 -0.3125 -0.8351  0.2194
 2025TIP3    H227567   0.584   2.021   2.319 -0.6643  0.0979  0.2548
 2026TIP3   OH227568   5.331   1.780   5.479  0.2864 -0.3969 -0.4786
 2026TIP3    H127569   5.319   1.842   5.551 -0.2774  0.3109 -1.1718
 2026TIP3    H227570   5.380   1.829   5.413  1.6211 -1.3308 -0.2211
 2027TIP3   OH227571   5.076   2.851  13.299  0.6018  0.5920 -0.1706
 2027TIP3    H127572   5.094   2.917  13.232  0.3306 -0.3304 -1.1775
 2027TIP3    H227573   4.981   2.845  13.303  0.5782  1.3445  1.0339
 2028TIP3   OH227574   1.558   1.924  13.280  0.1302  0.8659  0.7890
 2028TIP3    H127575   1.603   2.007  13.264  1.6065  0.0455  0.4702
 2028TIP3    H227576   1.559   1.880  13.195 -1.1613  0.7411  0.8186
 2029TIP3   OH227577   2.863   1.272  15.283 -0.6545 -0.2874  0.1929
 2029TIP3    H127578   2.880   1.188  15.241 -1.7653 -0.6185  0.3483
 2029TIP3    H227579   2.864   1.253  15.377 -2.1533 -0.4320  0.2148
 2030TIP3   OH227580   1.392   6.717  16.483  0.3165 -0.1550 -0.2575
 2030TIP3    H127581   1.396   6.682  16.572  1.4255 -1.1682 -0.6651
 2030TIP3    H227582   1.481   6.706  16.449 -0.0901  0.1711 -1.5089
 2031TIP3   OH227583   5.410   4.141   5.275 -0.4458  0.1949  0.0001
 2031TIP3    H127584   5.349   4.189   5.331 -2.9785 -0.7060 -1.8178
 2031TIP3    H227585   5.377   4.051   5.274  0.1406 -0.0614 -2.0149
 2032TIP3   OH227586   2.817   4.731   3.052  0.5001  0.0171  0.2015
 2032TIP3    H127587   2.887   4.723   2.988  1.6457  0.1091  1.3853
 2032TIP3    H227588   2.826   4.820   3.087 -1.5512  0.8063 -1.0644
 2033TIP3   OH227589   5.550   4.274   4.705 -0.4330 -0.0845  0.3396
 2033TIP3    H127590   5.642   4.301   4.697 -0.6513  0.5499 -0.1240
 2033TIP3    H227591   5.513   4.291   4.618 -0.6115 -1.8101  0.0448
 2034TIP3   OH227592   2.511   6.686  15.368 -0.0845  0.6073 -0.9947
 2034TIP3    H127593   2.524   6.591  15.366 -0.4247  0.5378 -0.1503
 2034TIP3    H227594   2.597   6.722  15.391  0.1029  0.5288 -1.5449
 2035TIP3   OH227595   1.269   2.470  12.451 -0.0275  0.6827 -0.0289
 2035TIP3    H127596   1.360   2.440  12.455 -0.2875  0.0118  1.3420
 2035TIP3    H227597   1.274   2.556  12.410  1.4234  1.3856  1.5162
 2036TIP3   OH227598   1.764   3.197   0.673 -0.4593 -0.3216  0.5201
 2036TIP3    H127599   1.756   3.292   0.677 -0.6227 -0.3508  0.8599
 2036TIP3    H227600   1.730   3.173   0.587 -0.8071 -0.1141  0.6009
 2037TIP3   OH227601   1.229   3.067   5.241 -0.4885  0.2977 -0.2759
 2037TIP3    H127602   1.257   3.097   5.154 -1.8876  3.7134  0.3259
 2037TIP3    H227603   1.136   3.047   5.230 -0.6354  0.5986  0.4214
 2038TIP3   OH227604   2.483   2.244  12.841 -0.5626 -0.2109  0.3714
 2038TIP3    H127605   2.501   2.204  12.755 -1.1824  0.0276  0.1214
 2038TIP3    H227606   2.534   2.192  12.903 -0.7188 -0.8820 -0.0511
 2039TIP3   OH227607   4.572   0.968  15.216 -0.2559  0.5779  0.3105
 2039TIP3    H127608   4.491   0.977  15.266 -0.7984 -2.3054  0.0893
 2039TIP3    H227609   4.569   1.040  15.153 -2.4370  0.7931  0.5824
 2040TIP3   OH227610   4.641   2.555  15.075 -1.0003 -0.1129  0.3913
 2040TIP3    H127611   4.592   2.488  15.028 -1.9107  0.6000  0.3027
 2040TIP3    H227612   4.581   2.587  15.142  0.3288 -1.2355  2.2294
 2041TIP3   OH227613   2.354   0.694  17.493  0.4812  0.2068 -0.2414
 2041TIP3    H127614   2.336   0.784  17.520 -0.3575 -0.5539  1.9821
 2041TIP3    H227615   2.295   0.679  17.420 -1.5518  0.6151  1.2158
 2042TIP3   OH227616   2.202   6.599  10.931  0.5254 -0.2699 -0.3864
 2042TIP3    H127617   2.296   6.588  10.926  0.6326  1.0540 -2.5483
 2042TIP3    H227618   2.166   6.514  10.905  1.0225 -1.3714  2.2188
 2043TIP3   OH227619   5.752   6.118   6.157 -0.2412  0.3225 -0.1076
 2043TIP3    H127620   5.847   6.125   6.147 -0.0233  3.0409  2.4344
 2043TIP3    H227621   5.716   6.193   6.109 -0.8891  0.5806  0.7537
 2044TIP3   OH227622   0.557   5.939   4.418  0.3117 -0.0582  0.1580
 2044TIP3    H127623   0.481   5.909   4.369  0.3818 -1.0004  0.6187
 2044TIP3    H227624   0.535   5.922   4.510  0.9092  0.0359  0.3250
 2045TIP3   OH227625   6.409   1.902  14.080 -0.5691  0.1471 -0.5103
 2045TIP3    H127626   6.498   1.915  14.111  0.4913 -0.7715 -2.8966
 2045TIP3    H227627   6.381   1.989  14.050 -0.6131  0.4921  0.5032
 2046TIP3   OH227628   6.435   5.351   2.302 -0.4922 -0.3417  0.4000
 2046TIP3    H127629   6.433   5.274   2.358  0.4600 -1.4512 -1.0394
 2046TIP3    H227630   6.505   5.405   2.340 -0.8560 -0.3652  1.1379
 2047TIP3   OH227631   3.715   1.931   5.436 -0.4853 -0.3831 -1.1571
 2047TIP3    H127632   3.766   2.006   5.405 -1.2813  0.3207 -0.8011
 2047TIP3    H227633   3.678   1.960   5.519 -1.8433 -0.7006 -1.6349
 2048TIP3   OH227634   5.896   2.819  13.212  0.8121 -0.0061  0.3957
 2048TIP3    H127635   5.963   2.755  13.188 -0.7412 -1.4928 -0.1414
 2048TIP3    H227636   5.815   2.769  13.217 -0.2715  1.7130  1.1567
 2049TIP3   OH227637   1.678   4.310   4.488 -0.3159 -0.1422  0.0873
 2049TIP3    H127638   1.676   4.221   4.523 -1.3561 -0.5963 -1.0501
 2049TIP3    H227639   1.636   4.364   4.556 -1.5861 -0.8734 -0.0809
 2050TIP3   OH227640   1.301   2.973   2.643  0.4623 -0.4034 -0.1498
 2050TIP3    H127641   1.220   3.006   2.683  0.1258 -2.0273  0.5710
 2050TIP3    H227642   1.338   3.049   2.597  0.1372  1.1831  2.0705
 2051TIP3   OH227643   2.616   0.526   2.222 -0.3057 -0.1679 -0.1624
 2051TIP3    H127644   2.565   0.600   2.257 -2.3439 -1.0134 -1.1892
 2051TIP3    H227645   2.650   0.558   2.139  1.7957  0.7269  0.9470
 2052TIP3   OH227646   0.117   2.470  12.375 -0.1398 -0.3287  0.4416
 2052TIP3    H127647   0.210   2.447  12.375 -0.0643 -0.2278 -1.5961
 2052TIP3    H227648   0.109   2.539  12.440  1.4803  0.5635 -0.2447
 2053TIP3   OH227649   4.081   2.261  15.391  0.1352 -0.6336  0.2838
 2053TIP3    H127650   4.102   2.328  15.326 -4.2128  0.5721 -0.1781
 2053TIP3    H227651   4.074   2.308  15.473 -1.5736 -0.6618  0.2021
 2054TIP3   OH227652   2.861   5.875   2.293 -0.1466  0.4295  0.4130
 2054TIP3    H127653   2.863   5.970   2.300  0.0682  0.5572 -0.9947
 2054TIP3    H227654   2.952   5.848   2.295 -0.0939  0.4330 -0.8638
 2055TIP3   OH227655   1.658   4.820   1.512  0.2903 -0.2836  0.1450
 2055TIP3    H127656   1.739   4.814   1.563  1.4457  0.6668 -1.4684
 2055TIP3    H227657   1.662   4.907   1.472 -0.4814 -1.0194 -1.6301
 2056TIP3   OH227658   6.595   3.618   1.075 -0.0055 -0.0409 -0.3574
 2056TIP3    H127659   6.618   3.525   1.080  1.4173  0.2855 -0.5146
 2056TIP3    H227660   6.575   3.633   0.983  2.0949  0.3020 -0.8049
 2057TIP3   OH227661   2.924   1.121   5.438  0.7218  0.1729  0.4086
 2057TIP3    H127662   2.843   1.173   5.445 -0.1558 -1.0870 -0.0258
 2057TIP3    H227663   2.949   1.127   5.346 -1.1464 -2.6088 -0.4176
 2058TIP3   OH227664   2.340   1.659  11.527  0.8409 -0.0160 -0.4299
 2058TIP3    H127665   2.427   1.648  11.566  0.4952 -1.8061 -0.0953
 2058TIP3    H227666   2.280   1.663  11.602  0.3949 -1.2933 -0.6989
 2059TIP3   OH227667   1.847   6.477   3.219 -0.3681  0.4065  0.3610
 2059TIP3    H127668   1.755   6.465   3.193 -0.3990  0.9545  0.2196
 2059TIP3    H227669   1.870   6.394   3.262 -1.0063  0.3632  0.6338
 2060TIP3   OH227670   1.781   4.067  12.743 -0.2975 -0.3306  0.2046
 2060TIP3    H127671   1.731   4.144  12.771 -1.4468 -0.4022 -1.5248
 2060TIP3    H227672   1.745   3.995  12.795  0.2726  0.1385  1.2917
 2061TIP3   OH227673   4.246   4.910  16.922  0.8540 -0.5384 -0.4122
 2061TIP3    H127674   4.186   4.958  16.866  1.9446  0.1867 -0.9765
 2061TIP3    H227675   4.240   4.953  17.008  1.6665  0.5133 -0.8585
 2062TIP3   OH227676   2.852   5.141  15.821 -0.0539  0.3067  0.2242
 2062TIP3    H127677   2.932   5.097  15.848  0.5382  1.8999  1.2323
 2062TIP3    H227678   2.828   5.099  15.739  0.9587 -1.2223  0.6580
 2063TIP3   OH227679   1.859   5.339   1.651  0.0345  0.2508  0.1174
 2063TIP3    H127680   1.899   5.352   1.565  0.0145 -3.1073 -0.5163
 2063TIP3    H227681   1.844   5.245   1.657 -1.0254  0.5001  3.3677
 2064TIP3   OH227682   5.560   6.434  12.035 -0.4694 -0.0712  0.0104
 2064TIP3    H127683   5.494   6.406  12.099 -0.2171  0.4209  0.4975
 2064TIP3    H227684   5.517   6.503  11.985 -0.4238  0.0556  0.1432
 2065TIP3   OH227685   5.401   4.106   3.198  0.1882  0.4330  0.2554
 2065TIP3    H127686   5.326   4.090   3.256  0.7502 -1.7257  0.4880
 2065TIP3    H227687   5.365   4.099   3.110  0.0945 -0.6300  0.3654
 2066TIP3   OH227688   4.713   6.025   3.908 -0.1555 -0.2948  0.1950
 2066TIP3    H127689   4.656   5.952   3.882 -0.7875 -0.2106  1.2923
 2066TIP3    H227690   4.802   5.989   3.900 -0.4507 -1.1494  0.5763
 2067TIP3   OH227691   3.291   0.733  14.180  0.3250 -0.4865 -0.4050
 2067TIP3    H127692   3.350   0.658  14.169  1.6617  0.2858  1.0214
 2067TIP3    H227693   3.276   0.766  14.092  1.2745 -1.2737 -0.8793
 2068TIP3   OH227694   0.402   1.819   5.518 -0.2988  0.1743  0.0937
 2068TIP3    H127695   0.461   1.848   5.587 -0.0823 -0.9413  0.3922
 2068TIP3    H227696   0.459   1.803   5.443 -0.5777  1.7407 -0.4861
 2069TIP3   OH227697   1.803   3.461   0.719  0.0321  0.0600  0.3306
 2069TIP3    H127698   1.778   3.523   0.651 -2.5624 -0.9397  0.2566
 2069TIP3    H227699   1.885   3.424   0.689 -0.5019  0.4244 -1.7229
 2070TIP3   OH227700   3.321   2.614   2.148 -0.1858 -0.6862 -0.8802
 2070TIP3    H127701   3.283   2.544   2.096 -1.0562 -0.3763 -0.6792
 2070TIP3    H227702   3.248   2.675   2.163 -0.0254 -0.8860  0.8950
 2071TIP3   OH227703   0.946   4.524   0.079  0.0430  0.3761 -0.3262
 2071TIP3    H127704   0.901   4.559   0.156  0.2986  0.5223 -0.2430
 2071TIP3    H227705   1.032   4.499   0.111 -0.1003 -0.2353 -0.4064
 2072TIP3   OH227706   2.684   4.078   3.298  0.0281 -0.5053 -0.1556
 2072TIP3    H127707   2.728   4.055   3.216  1.8229 -0.2375  0.6834
 2072TIP3    H227708   2.637   3.999   3.324 -0.0182 -0.7946 -1.1016
 2073TIP3   OH227709   0.527   4.307  13.707 -0.2325  0.1410  0.2574
 2073TIP3    H127710   0.512   4.237  13.771  1.0171 -1.2286 -0.8899
 2073TIP3    H227711   0.451   4.303  13.649 -0.1939 -0.2258  0.2317
 2074TIP3   OH227712   6.051   2.401  12.610 -0.8076  0.9166  0.1282
 2074TIP3    H127713   6.101   2.380  12.689  0.6836  0.3110 -0.9184
 2074TIP3    H227714   5.998   2.324  12.594 -0.0001  0.4311 -0.2649
 2075TIP3   OH227715   3.185   5.304   2.808  0.0672  0.6441  0.2298
 2075TIP3    H127716   3.246   5.233   2.826 -0.2169 -0.0328 -1.3121
 2075TIP3    H227717   3.208   5.372   2.871  0.8379 -0.5044  1.2473
 2076TIP3   OH227718   2.206   4.797   5.762  0.1675 -0.5866  0.0659
 2076TIP3    H127719   2.162   4.866   5.812  1.5557  1.2412 -1.0696
 2076TIP3    H227720   2.150   4.721   5.772 -0.4053  0.0671  3.1172
 2077TIP3   OH227721   5.371   4.298   2.922 -0.4683 -0.6138  0.3056
 2077TIP3    H127722   5.396   4.390   2.920  0.8450 -0.9426  0.9938
 2077TIP3    H227723   5.452   4.250   2.908 -1.3454 -1.6766 -1.5391
 2078TIP3   OH227724   3.082   6.347  13.152  0.0696  0.1423  0.0349
 2078TIP3    H127725   3.142   6.388  13.089  0.4654 -0.6463 -0.1080
 2078TIP3    H227726   3.119   6.369  13.238 -0.2369  0.8588 -0.0068
 2079TIP3   OH227727   0.260   5.426  16.218 -0.4229 -0.2234  0.1706
 2079TIP3    H127728   0.262   5.374  16.298  0.5976  1.7005  1.4960
 2079TIP3    H227729   0.222   5.369  16.152 -0.1210 -2.3163  1.7237
 2080TIP3   OH227730   0.802   4.907   3.310  0.0940 -0.4602  0.4989
 2080TIP3    H127731   0.837   4.923   3.223  0.7178  0.2259  0.8644
 2080TIP3    H227732   0.711   4.881   3.295  0.7813 -2.5064 -0.4892
 2081TIP3   OH227733   4.688   4.746  12.293  0.5810  0.3837  0.4672
 2081TIP3    H127734   4.699   4.665  12.344  0.2018  0.2584  0.3524
 2081TIP3    H227735   4.611   4.730  12.239  0.6516  0.7312  0.2618
 2082TIP3   OH227736   2.878   0.527  14.321 -0.0269  0.5200 -0.5766
 2082TIP3    H127737   2.936   0.573  14.260 -0.5426  2.3313  0.2481
 2082TIP3    H227738   2.905   0.435  14.314  2.2915  1.1695 -0.9156
 2083TIP3   OH227739   3.731   2.235   5.107 -0.2128  0.1877 -0.0389
 2083TIP3    H127740   3.727   2.293   5.182  2.4100  1.5507 -0.8156
 2083TIP3    H227741   3.662   2.266   5.048 -0.5172  0.8485  0.6540
 2084TIP3   OH227742   5.945   2.094  15.365  0.5542  0.1053  0.2098
 2084TIP3    H127743   5.944   2.168  15.304 -1.0166 -0.5181 -0.5753
 2084TIP3    H227744   5.993   2.127  15.441 -0.6830  2.2122  0.1773
 2085TIP3   OH227745   6.081   1.104  13.979  0.1287 -0.1548  0.4457
 2085TIP3    H127746   6.023   1.068  14.047 -0.8627  1.5819  0.5707
 2085TIP3    H227747   6.021   1.148  13.919  1.0202 -1.3620 -1.4120
 2086TIP3   OH227748   6.085   5.592  14.203 -0.6154  0.4753  0.1508
 2086TIP3    H127749   6.136   5.595  14.122 -1.4133 -0.8729 -0.4391
 2086TIP3    H227750   5.994   5.585  14.174 -0.9598  0.5949  1.1639
 2087TIP3   OH227751   6.532   1.368   3.332 -0.1312  0.1780  0.2940
 2087TIP3    H127752   6.474   1.293   3.323  0.9155 -0.6040 -0.1360
 2087TIP3    H227753   6.494   1.420   3.403 -1.4117 -0.2408 -0.0601
 2088TIP3   OH227754   6.180   5.439   4.599 -0.2979 -0.0074 -0.8088
 2088TIP3    H127755   6.257   5.435   4.654  0.2679  2.8334 -1.2316
 2088TIP3    H227756   6.201   5.385   4.523  0.9444  0.0584 -0.5239
 2089TIP3   OH227757   1.971   3.145  14.639 -0.0033 -0.3237 -0.2412
 2089TIP3    H127758   2.030   3.184  14.575  1.6891  0.5809  1.7518
 2089TIP3    H227759   2.009   3.059  14.658 -0.2209 -0.3900 -0.1015
 2090TIP3   OH227760   4.361   1.144   2.564 -0.3715 -0.4441  0.0959
 2090TIP3    H127761   4.299   1.133   2.492 -0.3233 -0.2383  0.0238
 2090TIP3    H227762   4.433   1.194   2.527  0.0273 -1.0270  0.0734
 2091TIP3   OH227763   6.045   3.705   4.479 -0.2433 -0.2048 -0.0190
 2091TIP3    H127764   6.062   3.612   4.495  0.1198 -0.4758 -1.7640
 2091TIP3    H227765   6.129   3.748   4.497  0.8210 -0.7854 -2.9906
 2092TIP3   OH227766   6.240   3.214   1.842  0.0972 -0.3979 -0.0055
 2092TIP3    H127767   6.184   3.209   1.764  0.7601  1.9144 -0.6982
 2092TIP3    H227768   6.327   3.236   1.808  0.0177  2.5859  1.4339
 2093TIP3   OH227769   5.607   2.970   5.113  0.2476 -0.8587 -0.1479
 2093TIP3    H127770   5.688   3.016   5.136 -0.0418 -0.6231  0.4283
 2093TIP3    H227771   5.636   2.892   5.065  0.9063 -1.5438  1.2935
 2094TIP3   OH227772   0.042   1.310   2.997 -0.1608  0.6675 -0.0062
 2094TIP3    H127773   0.082   1.232   2.959  1.1934  0.8577  0.9608
 2094TIP3    H227774   0.072   1.381   2.940 -0.4657  0.6342 -0.2162
 2095TIP3   OH227775   1.707   5.376   1.983 -0.0324 -0.1356 -0.2694
 2095TIP3    H127776   1.790   5.399   1.940 -0.3925  0.0312 -0.8915
 2095TIP3    H227777   1.731   5.311   2.049  0.4829 -0.6854 -0.9814
 2096TIP3   OH227778   1.627   4.221   6.506  0.2337 -0.5685 -0.3441
 2096TIP3    H127779   1.560   4.179   6.451 -2.5865  2.7818  0.2177
 2096TIP3    H227780   1.600   4.201   6.596 -1.5083  2.6326 -0.0432
 2097TIP3   OH227781   3.239   5.022  16.349 -0.1525  0.3099 -0.1714
 2097TIP3    H127782   3.237   5.061  16.262 -0.5309  0.9482  0.1145
 2097TIP3    H227783   3.328   4.988  16.359 -0.3508 -0.5177 -1.1216
 2098TIP3   OH227784   4.966   1.718   0.286  0.4976  0.1361 -0.3162
 2098TIP3    H127785   5.002   1.728   0.374  1.1943 -1.1159 -0.4273
 2098TIP3    H227786   4.882   1.764   0.288  1.2330  1.5142  0.5130
 2099TIP3   OH227787   1.546   6.524   1.349  0.3702  0.4406  0.1758
 2099TIP3    H127788   1.473   6.524   1.287  0.6489  1.4515 -0.1607
 2099TIP3    H227789   1.573   6.432   1.354 -0.8541  0.0626  0.2322
 2100TIP3   OH227790   4.037   3.569   5.418  0.1660  0.7465  0.6095
 2100TIP3    H127791   4.077   3.507   5.357  2.7967  0.6383  2.3222
 2100TIP3    H227792   3.993   3.632   5.361  1.6278  0.0883 -1.3688
 2101TIP3   OH227793   1.539   1.008   1.212 -0.1281 -0.0027 -0.1404
 2101TIP3    H127794   1.622   1.015   1.165 -0.4025  0.8425 -0.5039
 2101TIP3    H227795   1.547   1.071   1.284 -0.8117  0.7461 -0.7143
 2102TIP3   OH227796   0.432   3.794   3.488  0.6536 -0.2601  0.0048
 2102TIP3    H127797   0.435   3.884   3.455 -1.0323  0.0266  0.5380
 2102TIP3    H227798   0.493   3.746   3.431  0.6724  0.9660 -1.0630
 2103TIP3   OH227799   3.215   4.912   3.714  0.5144 -0.0184 -0.9880
 2103TIP3    H127800   3.278   4.937   3.646 -1.5881 -0.8245 -3.4040
 2103TIP3    H227801   3.183   4.995   3.748  3.4021  0.4407  0.9777
 2104TIP3   OH227802   2.708   6.042  10.627 -0.7918 -0.2526  0.0345
 2104TIP3    H127803   2.682   6.120  10.578 -0.3598  0.4621  0.9231
 2104TIP3    H227804   2.684   5.969  10.569  2.2886  0.5687 -2.5789
 2105TIP3   OH227805   4.173   2.138  15.956 -0.3074 -0.2011  0.0964
 2105TIP3    H127806   4.139   2.117  15.870 -2.9981 -1.3830  1.3224
 2105TIP3    H227807   4.256   2.091  15.962 -0.1035 -0.1330 -1.7771
 2106TIP3   OH227808   0.431   6.026  16.312  0.3276  0.3675 -0.0172
 2106TIP3    H127809   0.366   6.043  16.380  0.6221  0.7337  0.1776
 2106TIP3    H227810   0.505   6.082  16.335  0.5545  0.2579 -0.4643
 2107TIP3   OH227811   5.183   2.218  16.188  0.3539  0.0203 -0.4216
 2107TIP3    H127812   5.231   2.138  16.164 -1.0609 -0.6374 -1.2138
 2107TIP3    H227813   5.212   2.284  16.125  0.2862 -0.3508 -0.8493
 2108TIP3   OH227814   6.185   2.364  16.529  0.4165  0.3004 -0.0785
 2108TIP3    H127815   6.123   2.383  16.458 -0.4955 -1.9974  0.0296
 2108TIP3    H227816   6.227   2.282  16.502 -0.1610 -0.7833  2.1196
 2109TIP3   OH227817   6.611   5.053  14.828 -0.3289  0.3692 -1.0390
 2109TIP3    H127818   6.540   5.090  14.776 -0.3675  0.9222 -0.5948
 2109TIP3    H227819   6.689   5.099  14.799 -0.3123  0.4987 -0.7982
 2110TIP3   OH227820   1.509   3.536  13.768  0.5722  0.0284  0.2639
 2110TIP3    H127821   1.450   3.544  13.843 -1.3211  0.8887 -1.1909
 2110TIP3    H227822   1.536   3.444  13.767 -0.1152 -0.2021  1.4637
 2111TIP3   OH227823   6.197   2.469   0.061  0.1705 -0.5707 -0.6835
 2111TIP3    H127824   6.291   2.472   0.040  0.4712  1.4070  0.6770
 2111TIP3    H227825   6.154   2.494  -0.021  1.0641  2.1144 -0.4268
 2112TIP3   OH227826   1.333   3.042   4.982  0.0830  0.5013 -0.5857
 2112TIP3    H127827   1.305   3.017   4.894  1.2107 -1.3144 -0.4796
 2112TIP3    H227828   1.330   2.961   5.032  0.2545  1.3444  0.8421
 2113TIP3   OH227829   4.145   2.088  12.379  0.8000  0.5644 -0.4329
 2113TIP3    H127830   4.224   2.129  12.341  1.0684 -1.4279 -2.2102
 2113TIP3    H227831   4.100   2.050  12.304 -1.7560  1.3777  0.5919
 2114TIP3   OH227832   4.753   2.013  11.553 -0.2046 -0.0029 -0.4908
 2114TIP3    H127833   4.698   1.961  11.611 -0.9388  2.0375  0.7852
 2114TIP3    H227834   4.840   2.007  11.591 -0.5637  0.8135  0.5181
 2115TIP3   OH227835   3.613   2.530  15.919  0.1196  0.1677  0.0875
 2115TIP3    H127836   3.543   2.489  15.868  0.6105 -0.4006 -0.1578
 2115TIP3    H227837   3.622   2.617  15.882  1.1033 -0.5491 -1.4846
 2116TIP3   OH227838   5.872   6.578   1.978  0.0248 -0.2011  0.2205
 2116TIP3    H127839   5.841   6.660   2.016  0.7699 -0.2180  0.9052
 2116TIP3    H227840   5.827   6.510   2.028 -0.0009 -0.2120  0.1825
 2117TIP3   OH227841   6.326   5.708   3.289 -0.1668  0.3602 -0.3116
 2117TIP3    H127842   6.386   5.635   3.304 -1.2193 -0.4509  0.0696
 2117TIP3    H227843   6.289   5.691   3.203 -1.0670 -0.0433  0.1467
 2118TIP3   OH227844   3.980   3.339  14.398 -0.4861  0.1853 -0.2357
 2118TIP3    H127845   3.906   3.342  14.337  2.0770  1.2749 -3.6058
 2118TIP3    H227846   4.030   3.418  14.378  1.6609 -0.5365  1.8352
 2119TIP3   OH227847   0.015   6.718   2.553 -0.2820 -0.3493  0.7528
 2119TIP3    H127848  -0.062   6.713   2.609  0.4642  0.0398  1.8363
 2119TIP3    H227849   0.084   6.676   2.602  0.5396  0.5530  0.4058
 2120TIP3   OH227850   5.225   6.687   4.064  0.2859 -0.0246 -0.0592
 2120TIP3    H127851   5.259   6.685   4.154  0.5006 -0.3115 -0.1439
 2120TIP3    H227852   5.240   6.598   4.032  1.4437  0.4343 -0.8445
 2121TIP3   OH227853   1.511   1.136  11.084  0.5959  0.0242 -0.0178
 2121TIP3    H127854   1.447   1.151  11.015  0.2568  1.5612  0.5859
 2121TIP3    H227855   1.468   1.169  11.164  0.0404 -3.7136  1.4436
 2122TIP3   OH227856   2.060   4.553  12.268  0.1096  0.4030 -0.0745
 2122TIP3    H127857   2.086   4.461  12.263  3.4796  1.2441 -0.7331
 2122TIP3    H227858   2.007   4.567  12.189 -0.1505 -0.8744 -0.1441
 2123TIP3   OH227859   0.549   5.090  13.716 -0.3471  0.0889  0.4394
 2123TIP3    H127860   0.483   5.053  13.658  0.0464  1.3888 -0.8973
 2123TIP3    H227861   0.633   5.058  13.681 -0.1418  0.4148  0.6264
 2124TIP3   OH227862   0.463   2.186   3.109  0.3902  0.1891  0.4006
 2124TIP3    H127863   0.508   2.238   3.177  3.0205  0.2186 -1.2330
 2124TIP3    H227864   0.530   2.128   3.075 -1.7661 -2.3192  0.1512
 2125TIP3   OH227865   1.696   4.734  13.592  0.4686 -0.2482 -0.3803
 2125TIP3    H127866   1.718   4.644  13.572 -1.1441 -0.6377 -0.5041
 2125TIP3    H227867   1.660   4.770  13.511  1.3560  0.6077 -0.4202
 2126TIP3   OH227868   1.597   1.473  12.721 -0.1298  0.5163 -0.3321
 2126TIP3    H127869   1.659   1.482  12.648 -0.0664  0.8528 -0.2350
 2126TIP3    H227870   1.601   1.380  12.744  0.8320  0.6563  0.1106
 2127TIP3   OH227871   0.256   5.426   5.191  0.6225  0.1048 -0.1331
 2127TIP3    H127872   0.326   5.376   5.234  0.3560  1.0538  1.4947
 2127TIP3    H227873   0.243   5.502   5.248  0.9075  1.9707 -2.4304
 2128TIP3   OH227874   0.750   0.777   2.618  0.6942 -0.1167 -0.5440
 2128TIP3    H127875   0.789   0.752   2.702  0.3152  0.4954 -0.1770
 2128TIP3    H227876   0.823   0.777   2.557  1.8461  3.2881  0.5899
 2129TIP3   OH227877   5.509   6.603  11.419 -0.0022 -0.1424 -0.3469
 2129TIP3    H127878   5.505   6.647  11.335  0.8117  0.8768  0.1271
 2129TIP3    H227879   5.436   6.640  11.469 -0.2893 -0.5113 -0.4907
 2130TIP3   OH227880   1.602   4.962  13.924  0.6281  0.2828 -0.1023
 2130TIP3    H127881   1.665   5.019  13.968  0.2575  0.6912 -0.0858
 2130TIP3    H227882   1.520   5.011  13.928  0.7390  0.6770 -1.9277
 2131TIP3   OH227883   3.208   3.304  11.933  0.1456 -0.2876  0.7128
 2131TIP3    H127884   3.124   3.284  11.893 -0.1609 -0.2825  1.3319
 2131TIP3    H227885   3.198   3.278  12.025  0.9760 -0.7218  0.6949
 2132TIP3   OH227886   4.171   1.142   5.914  0.2394 -0.1558  0.4733
 2132TIP3    H127887   4.097   1.114   5.859  1.6460 -2.2147 -0.4978
 2132TIP3    H227888   4.243   1.155   5.852  0.8714  1.2623  1.4618
 2133TIP3   OH227889   6.632   2.619   1.845  0.0011 -0.4713  0.3862
 2133TIP3    H127890   6.537   2.632   1.851 -0.0118 -1.0202  1.7694
 2133TIP3    H227891   6.666   2.705   1.820 -0.6969  0.2591  1.8424
 2134TIP3   OH227892   1.226   3.113   1.385 -0.4521 -0.2064 -0.1480
 2134TIP3    H127893   1.206   3.206   1.395 -2.1105 -0.5564  0.1361
 2134TIP3    H227894   1.140   3.071   1.379  0.2457 -1.8281  0.6585
 2135TIP3   OH227895   3.745   6.753  12.656 -0.0630  0.6688  0.1170
 2135TIP3    H127896   3.676   6.798  12.704 -0.0613  0.0898  0.6896
 2135TIP3    H227897   3.706   6.668  12.634 -0.2057  1.0783 -1.2815
 2136TIP3   OH227898   6.318   5.863   5.340 -0.3987 -0.0018 -0.2134
 2136TIP3    H127899   6.330   5.768   5.333 -1.3160 -0.0413 -1.7532
 2136TIP3    H227900   6.223   5.876   5.334 -0.1702  1.1176 -2.0468
 2137TIP3   OH227901   3.831   4.165  16.446  0.2458  0.0991 -0.1577
 2137TIP3    H127902   3.750   4.209  16.422  0.6738 -0.0763 -2.1071
 2137TIP3    H227903   3.853   4.200  16.533 -1.0634  1.3292 -0.2922
 2138TIP3   OH227904   4.521   0.498   2.310 -0.6738  0.4022 -1.0489
 2138TIP3    H127905   4.465   0.467   2.239 -0.6129 -0.1689 -0.8507
 2138TIP3    H227906   4.469   0.486   2.389 -0.1928 -0.3556 -0.8356
 2139TIP3   OH227907   4.026   5.656  14.607 -0.4221  0.0136  0.0001
 2139TIP3    H127908   4.057   5.581  14.556  0.9077  0.2442  0.4309
 2139TIP3    H227909   4.105   5.692  14.647 -1.3774 -0.1066  2.1627
 2140TIP3   OH227910   4.509   6.230  13.052  0.1989  0.2449 -0.0365
 2140TIP3    H127911   4.540   6.224  12.961  2.3191 -1.7134  0.6979
 2140TIP3    H227912   4.509   6.324  13.071  1.5437  0.5967 -1.5051
 2141TIP3   OH227913   4.016   5.949  13.029  0.2583 -0.3013  0.0425
 2141TIP3    H127914   4.009   5.864  12.984 -1.0088 -0.1139 -0.1615
 2141TIP3    H227915   3.988   5.930  13.119  1.3026 -0.3612  0.3702
 2142TIP3   OH227916   1.245   1.057   2.015  0.4875 -0.6003 -0.1585
 2142TIP3    H127917   1.245   1.129   1.953 -0.8667  0.7326  1.2825
 2142TIP3    H227918   1.169   1.074   2.071  0.3215 -2.9674  0.4591
 2143TIP3   OH227919   3.776   6.174   3.511 -0.0475 -0.4309 -0.0780
 2143TIP3    H127920   3.855   6.187   3.458  0.2203  1.3873  0.7060
 2143TIP3    H227921   3.768   6.254   3.562 -2.7345 -0.3026 -0.5545
 2144TIP3   OH227922   5.084   4.937  16.171  0.5374  0.6868 -0.5111
 2144TIP3    H127923   4.990   4.928  16.155  0.6600  1.7025 -1.9179
 2144TIP3    H227924   5.125   4.886  16.101  1.0704 -0.5756  0.6568
 2145TIP3   OH227925   2.226   2.088   3.934 -0.3886 -0.3079 -0.0910
 2145TIP3    H127926   2.256   2.179   3.926  0.2697 -0.5513 -0.4381
 2145TIP3    H227927   2.284   2.050   4.000 -1.2568 -0.2395  0.7457
 2146TIP3   OH227928   2.160   3.035   6.109  0.2000  0.3559  0.2832
 2146TIP3    H127929   2.193   2.945   6.105  0.2384  0.4032 -0.7127
 2146TIP3    H227930   2.239   3.088   6.124  0.3217  0.3088 -0.1820
 2147TIP3   OH227931   2.859   3.390  16.143 -0.7218 -0.0909 -0.4025
 2147TIP3    H127932   2.923   3.350  16.201 -1.4501 -1.2149 -0.3334
 2147TIP3    H227933   2.901   3.469  16.111  0.0002  0.1403  1.0412
 2148TIP3   OH227934   1.684   5.932  13.273 -0.0278 -0.7364 -0.5512
 2148TIP3    H127935   1.703   6.013  13.225 -0.2531 -0.0942  0.4154
 2148TIP3    H227936   1.613   5.892  13.224 -0.6736  0.2187 -0.4378
 2149TIP3   OH227937   4.555   2.132  14.333  0.3612  0.3307 -0.8302
 2149TIP3    H127938   4.596   2.216  14.353 -2.7528  1.7447  0.2269
 2149TIP3    H227939   4.605   2.068  14.384  1.4448  1.8371  0.0868
 2150TIP3   OH227940   1.720   1.662   0.140  0.4868  0.3788 -0.1257
 2150TIP3    H127941   1.762   1.739   0.178  0.7012  0.4760 -0.5571
 2150TIP3    H227942   1.754   1.589   0.191 -0.9589  0.6929  1.3704
 2151TIP3   OH227943   2.256   5.226  16.344  0.0867  0.0215  0.6111
 2151TIP3    H127944   2.310   5.209  16.267 -0.2673 -1.7539  0.7283
 2151TIP3    H227945   2.251   5.322  16.348  3.1479  0.2983  0.5620
 2152TIP3   OH227946   5.518   0.955  15.942 -0.9680  0.4071  0.1076
 2152TIP3    H127947   5.612   0.964  15.924 -1.0740  1.5166  0.0409
 2152TIP3    H227948   5.514   0.911  16.027 -0.3635  1.0062  0.4556
 2153TIP3   OH227949   2.236   6.238  14.272  0.4263  0.3745  0.3457
 2153TIP3    H127950   2.326   6.266  14.289  0.4889 -0.0802  0.7958
 2153TIP3    H227951   2.203   6.299  14.206  0.7466  1.1426  0.8842
 2154TIP3   OH227952   1.861   3.846   1.147 -0.0026 -0.6032 -1.2240
 2154TIP3    H127953   1.870   3.751   1.141 -0.4746 -0.9153  1.5328
 2154TIP3    H227954   1.767   3.860   1.162  0.4133  0.0110  1.1895
 2155TIP3   OH227955   3.081   4.208   0.836  0.3827  0.0454 -0.0726
 2155TIP3    H127956   3.167   4.195   0.877  0.3072  0.0977  0.0995
 2155TIP3    H227957   3.068   4.303   0.838 -0.9074 -0.1085  2.4058
 2156TIP3   OH227958   2.440   0.249  14.930 -0.1000 -0.3367 -0.1260
 2156TIP3    H127959   2.508   0.316  14.943 -1.4891  1.2190 -0.5974
 2156TIP3    H227960   2.433   0.240  14.835 -2.1909  1.3473 -0.2116
 2157TIP3   OH227961   4.371   2.674  16.354 -0.3456  0.1015  0.4631
 2157TIP3    H127962   4.430   2.747  16.370 -1.1619  0.6623  0.9816
 2157TIP3    H227963   4.416   2.620  16.289 -0.0554  1.4455 -0.4836
 2158TIP3   OH227964   1.738   5.828   0.340  0.7381  0.4236  0.3609
 2158TIP3    H127965   1.809   5.866   0.392  0.4938 -0.4843  1.3873
 2158TIP3    H227966   1.745   5.734   0.354 -0.5330  0.2963  0.2962
 2159TIP3   OH227967   5.385   0.394   5.420  0.6757 -0.5891  0.1598
 2159TIP3    H127968   5.352   0.448   5.348  1.8594  1.0750  0.7836
 2159TIP3    H227969   5.347   0.434   5.499  0.3289 -1.6662  0.5619
 2160TIP3   OH227970   6.080   0.127  12.711 -0.2638  0.1512 -0.0317
 2160TIP3    H127971   6.125   0.211  12.719 -1.1941  1.0780 -2.9537
 2160TIP3    H227972   5.997   0.140  12.757  0.4318  0.0800  1.2839
 2161TIP3   OH227973   0.396   0.209  11.633  0.0213  0.3660  0.4371
 2161TIP3    H127974   0.491   0.207  11.623  0.0673 -0.2107  0.9262
 2161TIP3    H227975   0.363   0.223  11.544  0.5359 -0.5286  0.0959
 2162TIP3   OH227976   0.378   4.464   3.218  0.0280  0.0414  0.2378
 2162TIP3    H127977   0.381   4.544   3.166 -1.2431 -0.6874 -1.0050
 2162TIP3    H227978   0.452   4.472   3.278  0.5392  1.6689 -0.5592
 2163TIP3   OH227979   4.884   3.713  14.468  0.2081  0.0407 -0.1963
 2163TIP3    H127980   4.863   3.801  14.438  1.1401  0.6125  0.7523
 2163TIP3    H227981   4.919   3.668  14.391 -1.0687  0.2075 -0.8938
 2164TIP3   OH227982   2.732   0.312  17.385  0.2777  0.2925 -0.1791
 2164TIP3    H127983   2.662   0.377  17.392 -0.0041 -0.0664  0.3802
 2164TIP3    H227984   2.807   0.361  17.353 -0.2496  0.6666 -0.8811
 2165TIP3   OH227985   6.356   4.471   3.304  0.8287  0.1739  0.3576
 2165TIP3    H127986   6.337   4.563   3.290  1.6657  0.2914 -0.0798
 2165TIP3    H227987   6.362   4.462   3.399 -0.3997  0.3195  0.4611
 2166TIP3   OH227988   3.683   3.912  11.933  0.2265  0.1822  0.7762
 2166TIP3    H127989   3.754   3.857  11.966  1.4415  1.2362 -0.0183
 2166TIP3    H227990   3.623   3.851  11.890  0.4623 -0.7542  1.7182
 2167TIP3   OH227991   3.061   2.201  10.974 -0.2671 -0.2195 -0.6107
 2167TIP3    H127992   3.036   2.224  10.885  2.3576  1.1360 -1.1194
 2167TIP3    H227993   3.036   2.276  11.027  0.0032 -0.1296 -0.6048
 2168TIP3   OH227994   4.638   5.575   0.140  0.3487  0.2548 -0.6874
 2168TIP3    H127995   4.555   5.565   0.093  1.2538 -0.6778 -2.1567
 2168TIP3    H227996   4.638   5.504   0.205  0.0608  0.1826 -0.7668
 2169TIP3   OH227997   5.645   3.426  15.757  0.0993 -0.1691  0.3080
 2169TIP3    H127998   5.608   3.348  15.714  0.0831 -0.4515  0.8241
 2169TIP3    H227999   5.595   3.499  15.721 -0.3542 -0.4639  0.3275
 2170TIP3   OH228000   5.624   2.675  12.495 -0.2653  0.2982 -0.1997
 2170TIP3    H128001   5.557   2.623  12.451  0.7815 -0.9632 -0.3598
 2170TIP3    H228002   5.635   2.752  12.439 -1.8488  0.7381  0.0468
 2171TIP3   OH228003   3.686   0.300   1.812  0.2535  0.3944 -0.3223
 2171TIP3    H128004   3.743   0.253   1.873  1.1150  0.5108 -1.0215
 2171TIP3    H228005   3.604   0.251   1.813  1.5367 -1.9569 -2.0244
 2172TIP3   OH228006   3.982   2.912   2.922  0.3802 -0.1141 -0.1430
 2172TIP3    H128007   3.961   2.855   2.848 -0.5545  0.0778 -0.0346
 2172TIP3    H228008   3.924   2.987   2.912  1.6798  0.8964 -0.3476
 2173TIP3   OH228009   2.435   6.760  11.253  0.2192  0.8638 -0.2495
 2173TIP3    H128010   2.505   6.764  11.318  1.5521  0.8904 -1.6284
 2173TIP3    H228011   2.450   6.837  11.197 -0.7694  0.7406 -0.7065
 2174TIP3   OH228012   5.446   6.714   1.820 -0.1360  0.0308  0.6495
 2174TIP3    H128013   5.486   6.676   1.898  0.8472  1.2146  0.7504
 2174TIP3    H228014   5.519   6.735   1.762 -0.7383  0.5231  0.0335
 2175TIP3   OH228015   3.987   0.465   6.890  0.3715 -0.2598  0.3334
 2175TIP3    H128016   4.054   0.418   6.939  0.7000 -0.2983 -0.1447
 2175TIP3    H228017   4.026   0.478   6.803  0.7091  1.7883  0.7345
 2176TIP3   OH228018   0.212   3.294  13.809 -0.6211  0.3527  0.4349
 2176TIP3    H128019   0.129   3.247  13.806 -1.1366  1.2906 -1.3103
 2176TIP3    H228020   0.210   3.341  13.893 -1.9145  0.4482  0.3689
 2177TIP3   OH228021   3.493   0.524  14.070  0.0598  0.4272 -0.1267
 2177TIP3    H128022   3.534   0.573  13.999 -0.3869 -0.3181 -0.9263
 2177TIP3    H228023   3.516   0.433  14.053 -1.2722  0.0755 -0.1796
 2178TIP3   OH228024   1.521   0.981   1.982  0.0786 -0.4067  0.4182
 2178TIP3    H128025   1.583   0.934   2.039 -0.3462  0.5975  1.7675
 2178TIP3    H228026   1.443   0.993   2.037 -0.0060  1.4067 -0.0562
 2179TIP3   OH228027   6.575   2.970   2.148 -0.2149 -0.1943  0.0331
 2179TIP3    H128028   6.645   2.919   2.189  0.0676  0.7435  0.7414
 2179TIP3    H228029   6.602   3.061   2.158 -1.5180  0.1905  0.2800
 2180TIP3   OH228030   3.284   4.359  15.767 -0.6733 -0.0561  0.3364
 2180TIP3    H128031   3.234   4.379  15.688 -0.3402 -0.8733 -0.1026
 2180TIP3    H228032   3.341   4.435  15.780 -2.6498  1.3065  1.3911
 2181TIP3   OH228033   0.801   3.709  15.619 -0.2973 -0.0243 -0.3131
 2181TIP3    H128034   0.850   3.695  15.537 -1.4774 -0.1449 -1.0303
 2181TIP3    H228035   0.755   3.626  15.633 -2.6506  1.0165 -1.3253
 2182TIP3   OH228036   1.112   4.266   1.464 -0.1203  0.3492 -0.3932
 2182TIP3    H128037   1.118   4.353   1.424 -1.9974  1.3814  1.3261
 2182TIP3    H228038   1.114   4.284   1.558  1.2338 -1.6856  0.0188
 2183TIP3   OH228039   0.192   5.901   3.346  0.2866  0.0973 -0.0809
 2183TIP3    H128040   0.270   5.934   3.390  0.7528  0.0018 -0.8186
 2183TIP3    H228041   0.121   5.959   3.375  0.8686  0.9817 -0.3912
 2184TIP3   OH228042   4.956   5.496   5.712 -0.4344 -0.2375 -0.0400
 2184TIP3    H128043   4.906   5.513   5.633 -1.8382  1.5816  1.1495
 2184TIP3    H228044   5.043   5.531   5.694 -1.4441  2.5079  0.0295
 2185TIP3   OH228045   0.391   5.662   1.462  0.2325 -0.0660 -0.5341
 2185TIP3    H128046   0.297   5.681   1.464  0.0791 -0.7962  1.0241
 2185TIP3    H228047   0.396   5.567   1.451  0.8375  0.1033 -1.9107
 2186TIP3   OH228048   5.302   5.684  15.249  0.3304  0.4271  0.3049
 2186TIP3    H128049   5.349   5.608  15.215 -0.9859 -0.1742 -0.2241
 2186TIP3    H228050   5.263   5.725  15.172  0.1247  1.0129  0.7130
 2187TIP3   OH228051   0.204   4.332   4.917  0.1801 -0.1363 -0.2905
 2187TIP3    H128052   0.252   4.252   4.899 -0.6884 -0.4235 -1.4437
 2187TIP3    H228053   0.112   4.306   4.913 -0.0956  0.6563  0.6118
 2188TIP3   OH228054   3.257   4.636   3.159  0.0845 -0.0868  0.0818
 2188TIP3    H128055   3.222   4.672   3.077  0.2517 -0.5873 -0.2119
 2188TIP3    H228056   3.303   4.710   3.199  0.3726  0.0492 -0.4876
 2189TIP3   OH228057   5.468   4.265   6.016  0.1730 -0.1173 -0.2175
 2189TIP3    H128058   5.431   4.240   6.101  0.0100  1.8080  0.3325
 2189TIP3    H228059   5.408   4.331   5.982 -1.5440 -2.9728 -3.3897
 2190TIP3   OH228060   4.239   6.689  12.360  0.2267  0.3658  0.2861
 2190TIP3    H128061   4.329   6.688  12.330  0.4211 -0.5670  0.8547
 2190TIP3    H228062   4.245   6.674  12.454 -0.5188  0.3300  0.3328
 2191TIP3   OH228063   0.876   2.372  13.697  0.3412  0.7381 -0.8039
 2191TIP3    H128064   0.927   2.439  13.650  1.2171  1.2049  0.7291
 2191TIP3    H228065   0.941   2.308  13.725  0.1693  1.3795  1.2586
 2192TIP3   OH228066   4.373   6.629  16.402 -0.0500  0.4403  0.1297
 2192TIP3    H128067   4.307   6.695  16.426 -0.9484 -0.7992  1.1993
 2192TIP3    H228068   4.374   6.630  16.306 -4.0440 -1.7027 -0.1547
 2193TIP3   OH228069   3.108   6.766   4.873  0.6638  0.0850  0.4061
 2193TIP3    H128070   3.157   6.707   4.930 -0.4504 -2.1613 -0.8106
 2193TIP3    H228071   3.167   6.782   4.799  0.6049 -0.3765  0.2522
 2194TIP3   OH228072   2.461   3.639   5.888  0.1391 -0.1185  0.2422
 2194TIP3    H128073   2.493   3.692   5.961  0.2930 -0.2155  0.2444
 2194TIP3    H228074   2.533   3.640   5.825  0.5571 -1.2054  0.6882
 2195TIP3   OH228075   1.527   1.746  11.797 -0.5745 -0.4608  0.5806
 2195TIP3    H128076   1.566   1.771  11.881 -1.4080 -2.0310  1.4755
 2195TIP3    H228077   1.453   1.691  11.820 -0.2029 -1.8010 -1.1995
 2196TIP3   OH228078   3.302   0.893   3.288 -0.4199 -0.0617 -0.4972
 2196TIP3    H128079   3.301   0.941   3.205  0.8432 -1.1165 -1.1557
 2196TIP3    H228080   3.260   0.810   3.268 -0.7551 -0.0455  0.1166
 2197TIP3   OH228081   5.125   3.098  12.241  0.2680  0.2865  0.0944
 2197TIP3    H128082   5.032   3.082  12.257 -0.2640 -1.0041 -3.4400
 2197TIP3    H228083   5.130   3.191  12.218 -0.0172  0.5274  0.9922
 2198TIP3   OH228084   1.245   6.699  12.178  0.2913 -0.0213  0.1878
 2198TIP3    H128085   1.184   6.765  12.211  1.5759  0.8785  0.8487
 2198TIP3    H228086   1.234   6.624  12.237 -0.0575  0.1851  0.3910
 2199TIP3   OH228087   2.609   4.805   5.328  0.7129  0.3896  0.0035
 2199TIP3    H128088   2.597   4.771   5.416  1.7955 -0.9454 -0.3300
 2199TIP3    H228089   2.525   4.846   5.306 -0.0296 -0.4856  1.1201
 2200TIP3   OH228090   0.168   2.529  14.187 -0.0329 -0.0452  0.0008
 2200TIP3    H128091   0.256   2.568  14.182 -0.4635  0.7573 -2.0388
 2200TIP3    H228092   0.109   2.603  14.197 -0.6900 -0.3375 -1.5499
 2201TIP3   OH228093   0.994   2.576   0.712 -0.3444  0.5076  0.4084
 2201TIP3    H128094   0.916   2.614   0.669  1.4366  2.5407 -1.2613
 2201TIP3    H228095   1.003   2.490   0.671 -0.7846  0.9314 -0.6433
 2202TIP3   OH228096   5.555   3.577   6.323  0.1060  0.3274 -0.4829
 2202TIP3    H128097   5.478   3.523   6.340 -0.2567 -0.7805 -4.6455
 2202TIP3    H228098   5.523   3.667   6.329 -0.1922  0.1322  2.6656
 2203TIP3   OH228099   1.150   3.782  13.593  0.1665  0.2571  0.1574
 2203TIP3    H128100   1.099   3.702  13.581  0.1375  0.2304  0.4526
 2203TIP3    H228101   1.240   3.756  13.575 -0.1050  0.6667 -1.9478
 2204TIP3   OH228102   2.289   3.630  15.616 -0.0898 -0.3393  0.2743
 2204TIP3    H128103   2.219   3.668  15.670  0.1348  0.4136  0.0461
 2204TIP3    H228104   2.284   3.677  15.533  0.9239  0.0020  0.3839
 2205TIP3   OH228105   4.972   2.335  13.876 -0.8647  0.0030  0.6705
 2205TIP3    H128106   5.053   2.284  13.868 -0.1864  0.7910  2.1611
 2205TIP3    H228107   4.912   2.276  13.922 -1.1248 -0.5320 -0.3156
 2206TIP3   OH228108   5.250   5.070  16.355  0.6228  0.3955 -0.4169
 2206TIP3    H128109   5.207   5.155  16.368  0.2157  0.1708 -0.2919
 2206TIP3    H228110   5.194   5.024  16.293  0.7799  0.1693 -0.3916
 2207TIP3   OH228111   2.615   2.810  13.938  0.1751 -0.3592 -0.2629
 2207TIP3    H128112   2.614   2.834  13.846 -1.0167 -1.4271 -0.5655
 2207TIP3    H228113   2.537   2.852  13.975  0.0834 -0.7557  0.0108
 2208TIP3   OH228114   1.030   3.400  13.003  0.0308 -0.4398  0.3125
 2208TIP3    H128115   0.982   3.345  12.940  0.7060 -1.2647  0.5085
 2208TIP3    H228116   1.091   3.450  12.949 -0.5990  0.1480  0.1313
 2209TIP3   OH228117   4.537   3.981   2.577 -0.2667  0.2612 -0.4659
 2209TIP3    H128118   4.556   4.002   2.669  1.4601  0.7357 -0.8967
 2209TIP3    H228119   4.449   3.945   2.579 -0.0626 -0.2676  1.4627
 2210TIP3   OH228120   5.761   3.326   2.082  0.4577 -0.5072  0.4320
 2210TIP3    H128121   5.829   3.286   2.027 -1.9911 -1.6767 -1.9519
 2210TIP3    H228122   5.754   3.416   2.050 -1.0629 -1.2259 -1.4129
 2211TIP3   OH228123   5.282   6.596   0.828  0.2727  0.0591 -0.0100
 2211TIP3    H128124   5.346   6.606   0.899 -0.3142 -0.6360  0.6460
 2211TIP3    H228125   5.198   6.613   0.870 -0.1973 -1.5544 -0.2214
 2212TIP3   OH228126   4.624   4.644   6.158  0.1859  0.4060 -0.4844
 2212TIP3    H128127   4.670   4.637   6.074  0.3984  0.7312 -0.3991
 2212TIP3    H228128   4.672   4.711   6.206  0.0127  0.2832 -0.1339
 2213TIP3   OH228129   5.622   3.996   4.414  0.3123 -0.5224  0.1357
 2213TIP3    H128130   5.665   4.082   4.420 -0.0118 -0.3181 -0.4460
 2213TIP3    H228131   5.695   3.933   4.417  0.6511 -0.1854 -0.6440
 2214TIP3   OH228132   4.183   1.421   1.192  0.0294  0.0638  0.1804
 2214TIP3    H128133   4.106   1.467   1.160  0.6387  0.1730 -1.2208
 2214TIP3    H228134   4.223   1.384   1.113  0.8142 -0.9147  1.0082
 2215TIP3   OH228135   2.608   2.136   3.277 -0.1807 -0.0746  0.7117
 2215TIP3    H128136   2.526   2.107   3.317 -1.1726  0.9737 -0.4953
 2215TIP3    H228137   2.629   2.219   3.321 -0.1505  0.0170  0.5279
 2216TIP3   OH228138   2.834   5.093   5.376 -0.5415 -0.2650 -0.5527
 2216TIP3    H128139   2.763   5.116   5.316 -1.0861  1.4200  0.6821
 2216TIP3    H228140   2.888   5.172   5.381  0.4632 -0.9582 -0.1414
 2217TIP3   OH228141   0.083   0.799   2.176  0.5307 -0.0668  0.0921
 2217TIP3    H128142   0.002   0.849   2.169  0.9553  0.5301 -0.6383
 2217TIP3    H228143   0.099   0.793   2.270 -0.4580 -0.3565  0.2542
 2218TIP3   OH228144   6.399   0.937   6.129  0.3039 -0.0550  0.2887
 2218TIP3    H128145   6.463   0.882   6.174  1.0566  1.9174  1.7799
 2218TIP3    H228146   6.448   1.016   6.103 -1.4593  1.5359  1.5089
 2219TIP3   OH228147   1.512   1.136  14.642  0.1502 -0.6339  0.3675
 2219TIP3    H128148   1.560   1.219  14.637 -0.3353 -0.3497  0.3926
 2219TIP3    H228149   1.533   1.102  14.728  0.7360 -0.7783  0.1788
 2220TIP3   OH228150   2.355   1.945   5.541 -0.0937  0.4450  0.2210
 2220TIP3    H128151   2.347   1.864   5.489 -0.9442  0.6899 -0.0454
 2220TIP3    H228152   2.278   1.996   5.517 -0.3462  0.6951  1.5049
 2221TIP3   OH228153   0.480   0.707  11.218  0.1157  0.0902 -0.1271
 2221TIP3    H128154   0.514   0.642  11.156 -0.6198  1.3336 -1.8811
 2221TIP3    H228155   0.559   0.749  11.253  0.5339  0.3673 -1.3354
 2222TIP3   OH228156   3.401   4.646  15.123 -0.0501  0.0793  0.8057
 2222TIP3    H128157   3.450   4.723  15.150 -1.2539  0.7803  1.0414
 2222TIP3    H228158   3.331   4.637  15.189 -0.4569 -0.6946  0.2918
 2223TIP3   OH228159   3.350   2.311   1.621  0.3955 -0.1413 -0.0202
 2223TIP3    H128160   3.317   2.363   1.547 -0.2958  2.3107  1.8744
 2223TIP3    H228161   3.339   2.220   1.593  0.3292  0.6662 -2.9680
 2224TIP3   OH228162   0.940   2.367  14.402  0.2740  0.8463  0.1242
 2224TIP3    H128163   0.914   2.443  14.351  0.5508  1.6461  1.1520
 2224TIP3    H228164   0.871   2.356  14.467 -0.7493 -0.9477 -1.1529
 2225TIP3   OH228165   5.184   2.959  16.685  0.1518  0.3574 -0.4216
 2225TIP3    H128166   5.172   3.052  16.704  0.3147  0.6134 -1.4989
 2225TIP3    H228167   5.279   2.948  16.681  0.1465  0.0011  0.3511
 2226TIP3   OH228168   0.191   0.951   2.646  0.6573 -0.4514  0.5950
 2226TIP3    H128169   0.271   0.979   2.601 -0.2346 -0.4249 -1.0476
 2226TIP3    H228170   0.186   1.009   2.723  0.5942  1.7178 -0.9510
 2227TIP3   OH228171   4.669   1.356  11.006 -0.2013  0.3374  0.2618
 2227TIP3    H128172   4.701   1.429  11.059 -1.9010  0.4807  1.1938
 2227TIP3    H228173   4.742   1.295  11.002  0.5238  1.0811  1.4051
 2228TIP3   OH228174   0.296   5.586  12.427  0.5770 -0.1516  0.1385
 2228TIP3    H128175   0.303   5.568  12.333 -0.6356  0.4611 -0.0877
 2228TIP3    H228176   0.225   5.650  12.434 -0.1333 -1.0336  1.5708
 2229TIP3   OH228177   5.155   0.854  14.548 -0.0685 -0.0015  0.2744
 2229TIP3    H128178   5.222   0.881  14.611  1.2243 -1.5928 -0.3667
 2229TIP3    H228179   5.167   0.760  14.539 -2.6188 -0.4034  0.3612
 2230TIP3   OH228180   4.059   3.454  12.407  0.5790 -0.3354  0.2523
 2230TIP3    H128181   4.031   3.498  12.488 -0.1705  2.3744 -1.3748
 2230TIP3    H228182   4.152   3.475  12.400  0.6651 -0.6460  0.4307
 2231TIP3   OH228183   5.406   4.980   0.548  0.1914  0.1027 -0.0807
 2231TIP3    H128184   5.392   4.930   0.629  2.1911 -0.3209  0.0488
 2231TIP3    H228185   5.372   5.067   0.568 -1.2991 -0.5662  0.4576
 2232TIP3   OH228186   1.827   0.805  15.164  0.4023 -0.1297 -0.5871
 2232TIP3    H128187   1.733   0.793  15.175  0.4883 -1.9537 -1.4395
 2232TIP3    H228188   1.849   0.754  15.086  1.9919  0.8769 -0.8488
 2233TIP3   OH228189   1.920   6.168  14.019  0.7615 -0.3409 -0.0287
 2233TIP3    H128190   1.835   6.200  13.987  0.7225 -3.0704 -3.2817
 2233TIP3    H228191   1.953   6.237  14.075 -2.0360  2.3879 -1.4683
 2234TIP3   OH228192   5.724   4.528   5.875 -1.1383 -0.7992  0.5467
 2234TIP3    H128193   5.798   4.532   5.814 -2.5646 -1.8454 -1.3909
 2234TIP3    H228194   5.762   4.499   5.958  0.8229  0.2360  0.0613
 2235TIP3   OH228195   0.680   6.164  12.814  0.3273 -0.5718  0.3014
 2235TIP3    H128196   0.657   6.074  12.793 -0.8159 -0.5102  1.2360
 2235TIP3    H228197   0.760   6.180  12.764  0.2653 -1.9309 -0.2723
 2236TIP3   OH228198   3.766   6.102   3.239 -0.5565  0.1096  0.0313
 2236TIP3    H128199   3.746   6.105   3.333 -0.8401 -0.3935 -0.0072
 2236TIP3    H228200   3.721   6.178   3.202  0.3419  0.8611  0.4362
 2237TIP3   OH228201   3.549   6.441  16.232  0.1512 -0.1958  0.1590
 2237TIP3    H128202   3.519   6.393  16.309  1.0527 -1.3948 -0.2054
 2237TIP3    H228203   3.540   6.378  16.160  0.4968  0.4984 -0.5039
 2238TIP3   OH228204   3.717   3.928  14.845  0.4722  0.4207  0.0284
 2238TIP3    H128205   3.744   3.992  14.779 -1.4996  1.8464  0.5214
 2238TIP3    H228206   3.784   3.934  14.913  1.7842 -0.0781 -1.1808
 2239TIP3   OH228207   2.532   5.505   1.892  0.5467  0.0034  0.2725
 2239TIP3    H128208   2.518   5.461   1.809 -3.1602 -0.2107  0.8485
 2239TIP3    H228209   2.587   5.445   1.942 -1.5369 -2.4975 -0.1988
 2240TIP3   OH228210   3.934   4.811  14.298  0.4142 -0.0150  0.1277
 2240TIP3    H128211   3.973   4.854  14.374  0.4135  1.3435 -0.5930
 2240TIP3    H228212   3.865   4.872  14.270  0.3417 -0.5503 -0.8884
 2241TIP3   OH228213   2.625   6.029   0.198 -0.2459  0.0094  0.5658
 2241TIP3    H128214   2.593   5.940   0.215 -1.4225  0.6663  1.9561
 2241TIP3    H228215   2.662   6.058   0.281 -2.6829  1.9260  1.0879
 2242TIP3   OH228216   1.140   2.015   3.188 -0.0250  0.3067  0.1927
 2242TIP3    H128217   1.084   1.991   3.114 -1.8691 -2.5070  2.2620
 2242TIP3    H228218   1.215   1.955   3.181  0.7027  1.2483 -0.3041
 2243TIP3   OH228219   3.988   5.252   2.336  0.0494  0.3118  0.1665
 2243TIP3    H128220   3.904   5.290   2.362  1.6090  1.9223  3.3595
 2243TIP3    H228221   4.010   5.189   2.405  1.7925  0.4580 -0.1914
 2244TIP3   OH228222   3.569   5.140   0.676 -0.0500  0.2050  0.4537
 2244TIP3    H128223   3.656   5.141   0.717 -0.1919 -1.2530  0.8289
 2244TIP3    H228224   3.509   5.165   0.747  0.0586  1.3291  0.1645
 2245TIP3   OH228225   2.652   2.647   5.570  0.2362 -0.2855 -0.1924
 2245TIP3    H128226   2.592   2.693   5.511  2.5301  2.1502 -0.8286
 2245TIP3    H228227   2.704   2.592   5.512  0.2119 -0.5715  0.0533
 2246TIP3   OH228228   3.710   6.430  16.961  0.1837  0.5914  0.0788
 2246TIP3    H128229   3.624   6.411  16.999  0.6122 -0.5110  0.5336
 2246TIP3    H228230   3.712   6.525  16.953 -1.6053  0.5668 -1.2194
 2247TIP3   OH228231   0.289   1.490   3.139 -0.1682 -0.0990  0.2038
 2247TIP3    H128232   0.220   1.546   3.175 -1.7381 -1.5745 -0.3579
 2247TIP3    H228233   0.284   1.505   3.044 -0.0630 -0.5845  0.1215
 2248TIP3   OH228234   4.575   2.656   2.292 -0.5892  0.3446  0.2293
 2248TIP3    H128235   4.611   2.744   2.304  2.0010 -0.2573 -2.0470
 2248TIP3    H228236   4.562   2.623   2.381  1.4597  1.9250  1.2049
 2249TIP3   OH228237   1.457   1.264  16.940  0.0139  0.1797 -0.0741
 2249TIP3    H128238   1.414   1.286  17.023  0.9999  0.1270  0.4726
 2249TIP3    H228239   1.409   1.188  16.907 -1.6749  1.4173 -0.5933
 2250TIP3   OH228240   1.424   0.660   2.472 -0.2190  0.0417  0.0748
 2250TIP3    H128241   1.502   0.630   2.519 -0.0989  0.0800 -0.0960
 2250TIP3    H228242   1.447   0.651   2.380 -0.4711 -0.0818  0.0231
 2251TIP3   OH228243   4.624   0.006  11.448 -0.1515  0.4493 -0.4468
 2251TIP3    H128244   4.609  -0.081  11.412 -0.5606  0.4131 -0.1916
 2251TIP3    H228245   4.606  -0.002  11.541  3.6650 -0.1620  0.4167
 2252TIP3   OH228246   0.835   2.621   5.423 -0.0968  0.5612 -0.0498
 2252TIP3    H128247   0.899   2.572   5.474  0.8854 -0.0612 -1.7808
 2252TIP3    H228248   0.786   2.554   5.375 -0.6275  1.1348 -0.3249
 2253TIP3   OH228249   5.544   0.257  11.777  0.0505  0.1380 -0.1145
 2253TIP3    H128250   5.614   0.287  11.835  1.3662 -0.1234 -1.4894
 2253TIP3    H228251   5.488   0.333  11.766  0.0785  0.3456  1.0470
 2254TIP3   OH228252   0.347   2.900   4.876 -0.1981 -0.6967  0.1124
 2254TIP3    H128253   0.353   2.887   4.970 -0.8909 -0.4721  0.1901
 2254TIP3    H228254   0.253   2.900   4.857 -0.0576 -1.0147 -0.6136
 2255TIP3   OH228255   4.348   0.843   2.961  0.3198  0.2605  0.3287
 2255TIP3    H128256   4.337   0.915   3.023 -0.8320  0.6317 -0.2734
 2255TIP3    H228257   4.391   0.883   2.885  1.8305 -0.2170  0.8904
 2256TIP3   OH228258   0.061   1.588   4.151  0.3616  0.2520  1.0007
 2256TIP3    H128259  -0.028   1.555   4.166 -0.0846  1.2394  0.5922
 2256TIP3    H228260   0.112   1.551   4.223  0.0070 -1.7443  0.3001
 2257TIP3   OH228261   6.376   1.083  15.529 -0.6977  0.7822 -0.2885
 2257TIP3    H128262   6.391   1.040  15.445 -0.7263  0.8956 -0.3522
 2257TIP3    H228263   6.429   1.163  15.525  0.7149 -0.0833  0.5142
 2258TIP3   OH228264   2.067   4.200  11.209  0.3722 -0.2334  0.5987
 2258TIP3    H128265   2.004   4.248  11.155 -0.7619 -1.0892  1.1516
 2258TIP3    H228266   2.115   4.146  11.146  0.3779  0.2053  0.2141
 2259TIP3   OH228267   3.032   4.994  15.058 -0.1132  0.0093 -0.3674
 2259TIP3    H128268   3.123   5.014  15.037  0.2489  0.3159  1.3695
 2259TIP3    H228269   3.029   4.898  15.064  0.6818  0.0577  1.8082
 2260TIP3   OH228270   0.065   5.058   3.862  0.2635  0.2723 -0.1770
 2260TIP3    H128271   0.040   5.128   3.923  0.6126  0.2691 -0.0307
 2260TIP3    H228272   0.060   4.978   3.914 -0.5424  0.1315 -0.4527
 2261TIP3   OH228273   5.776   3.660  11.111 -0.0046 -0.1283  0.4055
 2261TIP3    H128274   5.717   3.587  11.130  1.3945 -1.2380  0.7272
 2261TIP3    H228275   5.722   3.725  11.067 -1.8631 -0.3315  2.2435
 2262TIP3   OH228276   5.560   1.926   3.425 -0.1750 -0.6486  0.4703
 2262TIP3    H128277   5.515   1.860   3.372 -3.0617 -1.3567  3.4996
 2262TIP3    H228278   5.510   2.006   3.412  0.7216 -0.1175  0.1584
 2263TIP3   OH228279   6.096   5.647   0.223  1.0436  0.3626 -0.3796
 2263TIP3    H128280   6.161   5.579   0.213  0.0771 -0.6644  0.0576
 2263TIP3    H228281   6.145   5.723   0.255  1.6818 -1.2299  2.8610
 2264TIP3   OH228282   6.038   5.456   6.634 -0.1088  0.0835  0.5839
 2264TIP3    H128283   6.080   5.496   6.710  0.9876 -0.8875  0.5064
 2264TIP3    H228284   6.101   5.464   6.563 -0.6355 -0.1019  0.0786
 2265TIP3   OH228285   1.153   2.767  14.953 -0.2684 -0.0539 -0.0548
 2265TIP3    H128286   1.083   2.760  14.887 -0.9463 -2.0695  0.7888
 2265TIP3    H228287   1.206   2.841  14.924 -0.6976 -0.6846 -2.7365
 2266TIP3   OH228288   2.190   5.019   3.572 -0.0676 -0.1310  0.2147
 2266TIP3    H128289   2.268   5.074   3.568  0.3015 -0.7145 -1.1842
 2266TIP3    H228290   2.132   5.065   3.633  0.7419  1.1117  0.0953
 2267TIP3   OH228291   5.043   1.500   2.991  0.2993 -0.1747 -0.2762
 2267TIP3    H128292   5.058   1.595   2.991 -2.2466  0.3056  0.4085
 2267TIP3    H228293   5.000   1.483   2.906 -2.2363 -0.0574  0.8770
 2268TIP3   OH228294   0.108   1.782   6.442 -0.2951  0.0419 -0.5004
 2268TIP3    H128295   0.099   1.809   6.350 -1.0356  1.3757 -0.0488
 2268TIP3    H228296   0.084   1.690   6.442 -1.0831  0.2351 -1.5177
 2269TIP3   OH228297   3.296   5.585   5.739 -0.2310 -0.5738  0.4714
 2269TIP3    H128298   3.305   5.679   5.755  0.1060 -0.5735  0.2965
 2269TIP3    H228299   3.270   5.579   5.647  1.5416 -0.7083 -0.0623
 2270TIP3   OH228300   2.314   1.422  14.015 -0.3204 -0.6677  0.0001
 2270TIP3    H128301   2.350   1.509  14.032  1.0610 -0.9508 -1.2767
 2270TIP3    H228302   2.309   1.382  14.102  0.4226  0.1707  0.4540
 2271TIP3   OH228303   1.964   2.216  15.181  0.3832  0.4618 -0.1368
 2271TIP3    H128304   1.998   2.181  15.099  0.9661  1.5796 -0.3999
 2271TIP3    H228305   1.957   2.310  15.165  1.6328  0.8753  1.4711
 2272TIP3   OH228306   4.852   3.635  14.744  0.4611  0.4010 -0.3091
 2272TIP3    H128307   4.943   3.612  14.762  0.6570  1.0396 -0.4352
 2272TIP3    H228308   4.846   3.632  14.648  0.1267 -0.4420 -0.2637
 2273TIP3   OH228309   1.378   4.416  15.128  0.6121 -0.1423 -0.0421
 2273TIP3    H128310   1.380   4.499  15.176 -1.5173 -0.6146  1.0118
 2273TIP3    H228311   1.410   4.437  15.041 -1.0013  2.0754 -0.1741
 2274TIP3   OH228312   4.426   5.862  13.383 -0.3508  0.0574 -0.0959
 2274TIP3    H128313   4.377   5.818  13.313 -0.8221  0.3746  0.0268
 2274TIP3    H228314   4.438   5.951  13.350  3.1292 -0.8167 -1.6430
 2275TIP3   OH228315   4.425   5.289  16.932 -0.0528  0.3250 -0.1497
 2275TIP3    H128316   4.401   5.377  16.902  0.2033  0.5609  0.3174
 2275TIP3    H228317   4.344   5.253  16.968 -0.7130 -0.4904 -2.3057
 2276TIP3   OH228318   2.663   3.637  13.257  0.0045 -0.1993 -0.5148
 2276TIP3    H128319   2.711   3.712  13.221  0.8975 -0.3269  0.3384
 2276TIP3    H228320   2.709   3.561  13.222  0.2556 -0.3243  0.0652
 2277TIP3   OH228321   0.333   0.789  14.679  0.6672 -0.4955 -0.7507
 2277TIP3    H128322   0.260   0.805  14.739  0.5661 -0.0462 -0.9888
 2277TIP3    H228323   0.411   0.789  14.735  0.5561 -0.2687 -0.5973
 2278TIP3   OH228324   3.785   1.684  11.528  0.0022  0.9215  0.4371
 2278TIP3    H128325   3.708   1.715  11.576  0.1878  2.3331 -0.1117
 2278TIP3    H228326   3.840   1.762  11.519  0.3383  0.5217 -1.3523
 2279TIP3   OH228327   2.766   0.728  17.290  0.0945 -0.0018  0.1523
 2279TIP3    H128328   2.713   0.683  17.224 -0.5852  0.5580  0.3004
 2279TIP3    H228329   2.775   0.817  17.256 -0.2842  0.2999  0.8178
 2280TIP3   OH228330   1.434   4.291   3.039  1.0778  0.0382 -0.6139
 2280TIP3    H128331   1.504   4.283   3.104  2.1889  1.9156 -1.5347
 2280TIP3    H228332   1.397   4.378   3.053  0.9905  0.2753 -2.1761
 2281TIP3   OH228333   3.350   3.782  13.229  0.7452 -0.2095  0.1928
 2281TIP3    H128334   3.283   3.849  13.240  1.1139  0.1225  0.4463
 2281TIP3    H228335   3.325   3.713  13.290  1.3749  0.5120  1.2960
 2282TIP3   OH228336   3.131   1.482  12.613 -0.3825  0.2125 -0.4566
 2282TIP3    H128337   3.164   1.482  12.524  3.3260 -1.1296  0.7416
 2282TIP3    H228338   3.160   1.565  12.650 -2.6204  1.1399 -0.6392
 2283TIP3   OH228339   2.565   0.754  15.970 -0.3885 -0.8734  0.0157
 2283TIP3    H128340   2.540   0.747  16.062  0.3252 -0.9666  0.2094
 2283TIP3    H228341   2.574   0.848  15.954 -1.4093 -0.8077 -0.2132
 2284TIP3   OH228342   1.339   5.073   5.495 -0.2469 -0.5421 -0.7105
 2284TIP3    H128343   1.318   5.072   5.402 -0.1951 -0.4336 -0.7239
 2284TIP3    H228344   1.423   5.028   5.501  0.1363  0.1409 -0.8158
 2285TIP3   OH228345   3.718   3.484   5.741  0.7205 -0.6643 -0.0351
 2285TIP3    H128346   3.680   3.520   5.821 -2.2207 -2.7541 -0.3566
 2285TIP3    H228347   3.801   3.532   5.730  1.5705 -0.7056  4.5192
 2286TIP3   OH228348   0.641   4.458  12.221 -0.3182  0.1271 -0.4569
 2286TIP3    H128349   0.606   4.537  12.264  0.4932 -0.5206  1.4810
 2286TIP3    H228350   0.684   4.491  12.142 -1.0272  1.4762 -0.3139
 2287TIP3   OH228351   0.581   0.983  17.042  0.1305 -0.4569 -0.2289
 2287TIP3    H128352   0.641   1.058  17.036  0.2508 -0.4510  0.8762
 2287TIP3    H228353   0.623   0.924  17.105 -1.2679 -0.2100  0.9756
 2288TIP3   OH228354   4.930   1.075  13.861 -0.3034 -0.6177  0.0644
 2288TIP3    H128355   4.999   1.040  13.805 -0.0975 -0.1899  0.0532
 2288TIP3    H228356   4.976   1.112  13.936 -0.5559 -0.8444  0.3304
 2289TIP3   OH228357   5.265   0.163   5.471 -0.4885 -0.2641 -0.0872
 2289TIP3    H128358   5.331   0.155   5.539 -1.0245 -0.6600  0.3930
 2289TIP3    H228359   5.281   0.249   5.432 -0.1031 -0.0818  0.4649
 2290TIP3   OH228360   1.682   4.021   4.130 -0.2288 -0.0043 -0.2979
 2290TIP3    H128361   1.687   3.939   4.080 -0.3508  0.9028 -1.8809
 2290TIP3    H228362   1.761   4.069   4.105 -0.3688  0.5444  0.2836
 2291TIP3   OH228363   5.866   6.285  16.269 -0.1832  0.2556  0.1384
 2291TIP3    H128364   5.774   6.266  16.252 -0.0043 -0.5327 -0.0002
 2291TIP3    H228365   5.891   6.223  16.338  0.7627 -0.9770 -1.2467
 2292TIP3   OH228366   0.998   3.170   1.095  0.0020  0.1265  0.4726
 2292TIP3    H128367   1.002   3.172   1.000  0.3396  2.6329  0.4793
 2292TIP3    H228368   0.906   3.191   1.116 -0.1621 -0.7985  0.7088
 2293TIP3   OH228369   0.911   1.069  11.812  0.0735 -0.7607  0.1146
 2293TIP3    H128370   0.955   1.024  11.739 -0.9338 -1.3035 -0.1787
 2293TIP3    H228371   0.848   1.127  11.769  1.4392  1.0543  0.4890
 2294TIP3   OH228372   4.335   5.907   5.040 -0.5526 -0.1982  0.1875
 2294TIP3    H128373   4.269   5.936   5.102 -0.8026 -2.2144  0.9654
 2294TIP3    H228374   4.303   5.823   5.008  0.5890 -0.1890 -1.1020
 2295TIP3   OH228375   4.526   4.945  17.384 -0.0949  0.4416  0.4017
 2295TIP3    H128376   4.554   4.866  17.428  0.1904  0.6958  0.6772
 2295TIP3    H228377   4.500   4.916  17.297  1.0323  0.2072  0.1319
 2296TIP3   OH228378   3.732   1.802   3.964 -0.3487 -0.4252  0.6176
 2296TIP3    H128379   3.726   1.746   3.888  2.1609  0.2584 -0.1653
 2296TIP3    H228380   3.657   1.862   3.956 -1.3255 -1.6989 -0.1141
 2297TIP3   OH228381   5.593   1.531  12.795 -0.3711 -0.3002  0.2521
 2297TIP3    H128382   5.528   1.554  12.729  0.2135  0.5172 -0.0519
 2297TIP3    H228383   5.670   1.505  12.745 -0.4172 -1.1844  0.6121
 2298TIP3   OH228384   6.477   1.493   5.445  0.1518 -0.0797 -0.6377
 2298TIP3    H128385   6.450   1.475   5.355 -1.6999  0.5344 -0.2397
 2298TIP3    H228386   6.421   1.565   5.473  0.5031 -0.4511  1.1066
 2299TIP3   OH228387   4.934   6.494   0.842 -0.1326  0.0607  0.5636
 2299TIP3    H128388   4.890   6.525   0.763 -1.6428 -1.4329  0.7738
 2299TIP3    H228389   4.960   6.575   0.888  2.2035  0.9963 -2.1111
 2300TIP3   OH228390   2.587   4.552  17.269  0.3173 -0.0525 -0.2313
 2300TIP3    H128391   2.675   4.515  17.266  0.4266 -0.0937  2.1381
 2300TIP3    H228392   2.535   4.488  17.316 -0.4278  1.0245  0.4495
 2301TIP3   OH228393   1.603   2.894  11.130 -0.0183  0.0775 -0.5920
 2301TIP3    H128394   1.619   2.972  11.077  3.0878  0.7957  1.1379
 2301TIP3    H228395   1.656   2.825  11.090  0.3382 -0.0611  0.0986
 2302TIP3   OH228396   0.787   1.842   3.562  0.1253 -0.0268  0.0993
 2302TIP3    H128397   0.730   1.824   3.637 -0.6912 -1.8737 -0.8867
 2302TIP3    H228398   0.857   1.777   3.569  0.1903 -0.0404 -0.5924
 2303TIP3   OH228399   5.736   3.712  10.846 -0.5229 -0.1069 -0.5099
 2303TIP3    H128400   5.740   3.669  10.760 -0.0100  2.9456 -2.1360
 2303TIP3    H228401   5.819   3.758  10.854 -0.2791 -0.8307  2.0096
 2304TIP3   OH228402   0.895   4.383  14.459 -0.4047  0.4383 -0.4066
 2304TIP3    H128403   0.834   4.405  14.389  0.3990  0.3154 -1.1529
 2304TIP3    H228404   0.868   4.439  14.532 -0.7500  1.1640 -1.0702
 2305TIP3   OH228405   6.006   0.241   1.123 -0.2154 -0.0670  0.7635
 2305TIP3    H128406   6.053   0.191   1.190 -0.4070 -1.9803 -0.4514
 2305TIP3    H228407   5.928   0.189   1.105 -1.1119  1.3680  0.3577
 2306TIP3   OH228408   3.310   3.093   1.021 -0.1876 -0.2420  0.1971
 2306TIP3    H128409   3.215   3.085   1.013 -0.1172 -0.1265 -1.0043
 2306TIP3    H228410   3.328   3.079   1.114 -1.2440 -1.6455  0.2225
 2307TIP3   OH228411   1.938   6.089   4.775  0.2566 -0.4218  0.4731
 2307TIP3    H128412   2.028   6.095   4.805  0.4592 -1.0724  0.0143
 2307TIP3    H228413   1.921   6.174   4.733  0.8598 -0.5291  0.0015
 2308TIP3   OH228414   0.684   2.676   6.012  0.4953 -0.3925 -0.3885
 2308TIP3    H128415   0.638   2.759   6.021  0.3389 -0.0618 -3.2492
 2308TIP3    H228416   0.616   2.610   6.028  0.2225  0.0524  0.2941
 2309TIP3   OH228417   0.051   5.527   1.873  0.0080  0.0645 -0.4012
 2309TIP3    H128418   0.021   5.531   1.964 -0.7641 -1.1720 -0.5850
 2309TIP3    H228419  -0.028   5.516   1.821  0.5177 -0.1121 -1.1630
 2310TIP3   OH228420   1.909   3.148  15.072  0.0649 -0.4305 -0.5099
 2310TIP3    H128421   1.914   3.169  14.979 -0.4034  0.5752 -0.3159
 2310TIP3    H228422   1.921   3.231  15.117  0.5177 -0.9378  0.3464
 2311TIP3   OH228423   1.439   3.206  12.176 -0.1406  0.4468  0.3536
 2311TIP3    H128424   1.478   3.250  12.100 -3.0528  1.7153 -0.5741
 2311TIP3    H228425   1.448   3.113  12.157 -1.8813  0.6785 -2.3490
 2312TIP3   OH228426   1.456   4.267  10.488 -0.6008  0.6202  0.8016
 2312TIP3    H128427   1.384   4.207  10.470  1.5990 -1.5476 -1.5712
 2312TIP3    H228428   1.522   4.214  10.534  1.9044  0.6438 -2.3913
 2313TIP3   OH228429   5.350   5.987  11.952 -0.1827  0.4994  0.2683
 2313TIP3    H128430   5.283   5.936  11.907  0.9594 -0.2383 -0.6862
 2313TIP3    H228431   5.329   6.078  11.933 -0.1446  0.2243 -1.1982
 2314TIP3   OH228432   5.115   6.573   6.048  0.5457 -0.1075 -0.0292
 2314TIP3    H128433   5.099   6.564   6.141  1.6321 -0.7110  0.1163
 2314TIP3    H228434   5.196   6.623   6.042  0.6950 -0.4098 -0.6434
 2315TIP3   OH228435   2.390   1.885   0.196 -0.4758  0.4538 -0.3757
 2315TIP3    H128436   2.447   1.961   0.188 -1.5527  1.7307  2.7712
 2315TIP3    H228437   2.310   1.909   0.149 -0.6341  1.0896  0.2105
 2316TIP3   OH228438   0.980   1.155  15.169 -0.9447 -0.0638  0.0946
 2316TIP3    H128439   0.993   1.118  15.082 -0.2234 -1.5354  0.7863
 2316TIP3    H228440   0.960   1.248  15.154 -0.5908 -0.2424 -1.6056
 2317TIP3   OH228441   4.829   6.371  14.728 -0.4370  0.0106 -0.3140
 2317TIP3    H128442   4.803   6.458  14.758 -0.7288  0.7990 -2.6523
 2317TIP3    H228443   4.747   6.329  14.703 -0.1434 -0.2283 -0.8982
 2318TIP3   OH228444   0.456   4.871   0.504  0.4050 -0.0076  0.2254
 2318TIP3    H128445   0.502   4.865   0.588 -0.6671 -0.4533  0.8099
 2318TIP3    H228446   0.493   4.949   0.462  1.4224 -0.1542  0.8176
 2319TIP3   OH228447   6.611   5.354   2.677  0.6757 -0.0671  0.3739
 2319TIP3    H128448   6.559   5.395   2.608  1.8298 -0.6514 -0.8711
 2319TIP3    H228449   6.675   5.421   2.702  1.8639 -0.6843 -0.9041
 2320TIP3   OH228450   0.833   0.158  14.914 -0.2574  0.1709  0.2624
 2320TIP3    H128451   0.855   0.065  14.913  0.5430  0.3575  0.1851
 2320TIP3    H228452   0.737   0.159  14.910 -0.5089 -0.7352  3.2980
 2321TIP3   OH228453   4.758   4.083   6.339  0.2567  0.5751 -0.6816
 2321TIP3    H128454   4.668   4.094   6.310 -0.3399 -0.7726  0.4954
 2321TIP3    H228455   4.753   4.093   6.434  0.9197 -1.6192 -0.3492
 2322TIP3   OH228456   4.392   5.906   0.314  0.3850 -0.1429 -0.4805
 2322TIP3    H128457   4.393   5.811   0.315  0.3776 -0.1361  0.1899
 2322TIP3    H228458   4.397   5.929   0.221  1.3218 -0.7800 -0.5973
 2323TIP3   OH228459   4.908   6.558  16.564  0.6229  0.2692  0.3582
 2323TIP3    H128460   4.980   6.605  16.522 -0.1651  0.8163 -0.4083
 2323TIP3    H228461   4.867   6.622  16.621  0.2250  0.1977  0.1552
 2324TIP3   OH228462   3.625   4.917   5.874  0.3824 -0.0741 -0.0022
 2324TIP3    H128463   3.680   4.841   5.896 -2.0465 -1.5088  1.6285
 2324TIP3    H228464   3.650   4.984   5.938  1.0578 -0.2601 -0.0626
 2325TIP3   OH228465   6.437   6.136   1.341  0.2127 -0.3078 -0.6694
 2325TIP3    H128466   6.430   6.220   1.295  1.5976  1.2808  1.7997
 2325TIP3    H228467   6.526   6.136   1.378 -0.2184 -2.2527  0.5076
 2326TIP3   OH228468   5.371   3.772   5.589 -0.0284  0.0528 -0.3557
 2326TIP3    H128469   5.356   3.740   5.500 -0.9145 -0.2649 -0.1034
 2326TIP3    H228470   5.399   3.695   5.638 -0.7062 -0.0303 -0.0905
 2327TIP3   OH228471   1.826   3.507  14.383  0.1581  0.0042 -0.2738
 2327TIP3    H128472   1.819   3.418  14.348  1.4578 -0.0689 -0.3904
 2327TIP3    H228473   1.783   3.562  14.317 -1.2157 -0.5713  0.0951
 2328TIP3   OH228474   5.655   1.245  14.896  0.3519  0.5944  0.3807
 2328TIP3    H128475   5.701   1.179  14.947 -0.3892 -0.4514 -0.2556
 2328TIP3    H228476   5.586   1.276  14.955  0.8535  0.9975  0.7684
 2329TIP3   OH228477   6.100   1.656  17.244  0.4703 -0.0465 -0.4648
 2329TIP3    H128478   6.095   1.563  17.269 -0.3385 -0.2924 -1.4850
 2329TIP3    H228479   6.118   1.655  17.150  2.0521  0.8614 -0.1993
 2330TIP3   OH228480   1.592   2.800  13.188 -0.4236 -0.3000  0.0421
 2330TIP3    H128481   1.678   2.809  13.147 -0.4181  1.1155  0.3085
 2330TIP3    H228482   1.542   2.875  13.155 -0.6901  0.4168  1.9037
 2331TIP3   OH228483   2.066   1.919   3.797  0.8345  0.0042 -0.7262
 2331TIP3    H128484   2.119   1.961   3.864  0.6169 -2.2122  0.9633
 2331TIP3    H228485   1.975   1.934   3.824  0.7249 -0.3899 -0.8630
 2332TIP3   OH228486   3.255   0.565  17.073  0.3385  0.0514  0.1210
 2332TIP3    H128487   3.307   0.620  17.014  2.0033 -1.8151 -0.2690
 2332TIP3    H228488   3.313   0.548  17.148 -0.7259  0.1077  0.9755
 2333TIP3   OH228489   3.585   0.542  17.174  0.4651  0.2856  0.0679
 2333TIP3    H128490   3.595   0.468  17.234 -0.7259  0.8452  1.0123
 2333TIP3    H228491   3.637   0.519  17.098  1.6230 -0.6782  1.1142
 2334TIP3   OH228492   5.569   3.223   4.840 -0.5457  0.1733 -0.6386
 2334TIP3    H128493   5.570   3.218   4.744 -2.7976  3.1725 -0.9693
 2334TIP3    H228494   5.651   3.265   4.863 -0.3461  0.1568 -1.3077
 2335TIP3   OH228495   0.757   0.633  13.594 -0.0921 -0.0934 -0.6461
 2335TIP3    H128496   0.718   0.548  13.573 -1.0678  0.1209  0.2162
 2335TIP3    H228497   0.745   0.685  13.514 -0.1514 -0.5288 -0.9243
 2336TIP3   OH228498   3.942   4.459   0.402  0.0984 -0.0996 -0.4668
 2336TIP3    H128499   3.864   4.434   0.452  0.5277 -0.0978  0.2081
 2336TIP3    H228500   4.012   4.406   0.439  0.4793  0.1190 -0.8732
 2337TIP3   OH228501   6.224   3.875   3.493  0.3870 -0.0670  0.2757
 2337TIP3    H128502   6.173   3.955   3.505  0.6188  0.1036  0.1263
 2337TIP3    H228503   6.158   3.806   3.487  0.1468  0.2237 -0.5125
 2338TIP3   OH228504   4.674   1.786  15.972  0.2988 -0.5428 -0.3533
 2338TIP3    H128505   4.656   1.777  15.878  1.7334 -0.4518 -0.6662
 2338TIP3    H228506   4.730   1.712  15.992 -2.5201 -2.4233  1.1966
 2339TIP3   OH228507   3.239   5.932   5.228  0.7544  0.1950 -0.5440
 2339TIP3    H128508   3.315   5.924   5.171 -0.2857  2.1858 -2.3350
 2339TIP3    H228509   3.183   5.996   5.185 -1.5004 -0.4581  1.2248
 2340TIP3   OH228510   5.484   5.742  17.500  0.6699  0.4370  0.2292
 2340TIP3    H128511   5.401   5.751  17.454  0.8909 -0.5425 -0.3820
 2340TIP3    H228512   5.510   5.832  17.519  0.3870  0.8561 -1.2419
 2341TIP3   OH228513   3.944   0.660   1.258 -0.1863 -0.4436  0.0042
 2341TIP3    H128514   3.969   0.752   1.250 -0.6160 -0.4291 -1.4102
 2341TIP3    H228515   4.027   0.612   1.259  0.0977 -0.0027  1.9451
 2342TIP3   OH228516   4.384   2.789  11.964 -0.0853 -0.4342  0.3818
 2342TIP3    H128517   4.421   2.839  11.891  1.0515  0.2698  1.3971
 2342TIP3    H228518   4.431   2.706  11.963  1.3779  0.3369  1.4774
 2343TIP3   OH228519   0.334   3.025  11.159 -0.2089  0.1294  0.0459
 2343TIP3    H128520   0.253   3.050  11.203  0.0282  1.1602 -0.0766
 2343TIP3    H228521   0.402   3.076  11.203  0.5488 -1.5381  0.8819
 2344TIP3   OH228522   5.860   0.988   5.283 -0.3722  0.6453 -0.3891
 2344TIP3    H128523   5.812   0.980   5.200  0.1810 -0.1629 -0.6455
 2344TIP3    H228524   5.814   0.930   5.343 -0.7781  1.2375 -0.1184
 2345TIP3   OH228525   1.709   3.833  14.396  0.4736 -0.6888 -0.2420
 2345TIP3    H128526   1.651   3.895  14.440 -0.6079 -2.1066  0.4336
 2345TIP3    H228527   1.776   3.887  14.355 -0.3704  0.9008  0.3886
 2346TIP3   OH228528   5.577   1.789  17.356  0.4174  0.4564 -0.3912
 2346TIP3    H128529   5.531   1.707  17.376 -0.8214  0.9295 -1.1777
 2346TIP3    H228530   5.665   1.761  17.331  0.2175 -0.5822  0.0209
 2347TIP3   OH228531   4.737   0.486  16.654  0.1891 -0.0873  0.0918
 2347TIP3    H128532   4.738   0.431  16.732  1.5413 -0.6890 -0.3132
 2347TIP3    H228533   4.665   0.453  16.601 -1.0423  0.6268  1.2631
 2348TIP3   OH228534   0.327   3.858  12.300  0.1064  0.0213  0.0197
 2348TIP3    H128535   0.281   3.812  12.371 -0.6276  0.7725  0.0463
 2348TIP3    H228536   0.398   3.798  12.275  0.6986 -0.0727  1.7140
 2349TIP3   OH228537   5.291   1.056   0.624 -0.6842  0.0280 -0.0889
 2349TIP3    H128538   5.269   1.064   0.717 -1.7526 -0.0511 -0.3214
 2349TIP3    H228539   5.366   1.113   0.612 -0.4499 -0.0644  0.8503
 2350TIP3   OH228540   3.685   5.619  13.930  0.3319 -0.2571 -0.2390
 2350TIP3    H128541   3.637   5.655  14.005  1.6254 -1.2059  1.1099
 2350TIP3    H228542   3.665   5.679  13.858  0.4670  1.7827  1.3055
 2351TIP3   OH228543   6.078   4.662   0.198 -0.2238 -0.2668  1.0564
 2351TIP3    H128544   6.075   4.674   0.103  0.8858  0.4744  1.0990
 2351TIP3    H228545   6.002   4.710   0.231 -0.9268 -0.9785  0.5187
 2352TIP3   OH228546   1.615   1.903   0.467 -0.2452 -0.3688 -0.7108
 2352TIP3    H128547   1.544   1.844   0.493 -0.2757 -0.4818 -1.0361
 2352TIP3    H228548   1.587   1.936   0.381 -0.2190  0.1038 -0.5391
 2353TIP3   OH228549   5.648   4.348   0.352  0.4383  0.3537 -0.2116
 2353TIP3    H128550   5.672   4.434   0.385  1.7150 -0.3207  0.6998
 2353TIP3    H228551   5.720   4.324   0.293 -0.8046  0.6641 -1.9239
 2354TIP3   OH228552   4.848   1.399   2.438  0.8522  0.0725 -0.0190
 2354TIP3    H128553   4.870   1.325   2.494  0.7042  0.4369  0.5314
 2354TIP3    H228554   4.856   1.365   2.349  0.2315 -0.7675  0.2326
 2355TIP3   OH228555   2.931   2.989   2.392  0.0185 -0.0561  0.3141
 2355TIP3    H128556   2.881   2.916   2.427 -0.1554 -0.3570 -0.5442
 2355TIP3    H228557   3.010   2.993   2.446  1.3123 -2.5466 -1.2052
 2356TIP3   OH228558   0.782   4.233  13.233 -0.4885  0.2667  0.8065
 2356TIP3    H128559   0.756   4.198  13.318 -1.3036 -1.5695 -0.1472
 2356TIP3    H228560   0.712   4.207  13.174  1.1039 -0.4278 -0.8566
 2357TIP3   OH228561   6.615   3.172  15.045 -0.4997 -0.0360  0.1936
 2357TIP3    H128562   6.557   3.099  15.066 -2.8763  2.0247  1.3295
 2357TIP3    H228563   6.574   3.214  14.968  0.9150  0.0424 -0.5503
 2358TIP3   OH228564   5.240   6.300  16.657 -0.7582 -0.1007 -0.2214
 2358TIP3    H128565   5.253   6.243  16.581 -1.3226  0.4461 -0.7385
 2358TIP3    H228566   5.282   6.253  16.730  0.7269 -0.1437 -1.0668
 2359TIP3   OH228567   6.537   4.988  11.914 -0.2392  0.4374  0.5552
 2359TIP3    H128568   6.572   5.071  11.946  0.4155 -0.7604  3.2727
 2359TIP3    H228569   6.442   5.000  11.916 -0.1942  0.7411  2.1857
 2360TIP3   OH228570   5.868   4.424   6.399  0.5533 -0.2072  0.3007
 2360TIP3    H128571   5.816   4.387   6.471  0.3094 -0.2554  0.1027
 2360TIP3    H228572   5.938   4.361   6.385  0.0710 -0.6692 -0.1158
 2361TIP3   OH228573   1.777   0.538   0.123 -0.4230 -0.5504  0.5948
 2361TIP3    H128574   1.872   0.536   0.115 -0.4992 -0.2838 -0.6708
 2361TIP3    H228575   1.747   0.468   0.066 -1.0724  1.4952 -1.7907
 2362TIP3   OH228576   4.918   5.070  11.661 -0.0650  0.4344  0.0376
 2362TIP3    H128577   4.881   4.988  11.626 -0.4608  0.1120  1.1856
 2362TIP3    H228578   4.843   5.115  11.699  0.5827  0.1252  1.7283
 2363TIP3   OH228579   5.263   2.027   2.200 -0.2601  0.2025 -0.5338
 2363TIP3    H128580   5.319   1.953   2.223  2.0787  1.7696 -0.8444
 2363TIP3    H228581   5.195   1.989   2.144  0.9211 -1.7031 -0.7735
 2364TIP3   OH228582   6.678   3.117  12.179 -0.1452 -0.7884 -0.0297
 2364TIP3    H128583   6.680   3.175  12.254 -1.0216 -0.9540  0.1300
 2364TIP3    H228584   6.590   3.127  12.142  0.4564 -0.2404 -1.4084
 2365TIP3   OH228585   3.553   4.103  13.430 -0.1527 -0.6905 -1.1421
 2365TIP3    H128586   3.530   4.150  13.349  0.2029  3.4115  0.8618
 2365TIP3    H228587   3.648   4.096  13.427 -0.1985 -1.2787 -1.3966
 2366TIP3   OH228588   3.129   5.778   3.611 -0.5220 -0.3950 -0.4717
 2366TIP3    H128589   3.109   5.743   3.698 -0.5155 -0.7587 -0.6174
 2366TIP3    H228590   3.220   5.751   3.595 -0.0987  0.7199 -0.0747
 2367TIP3   OH228591   2.994   4.055   2.126 -0.5071  0.0846 -0.2278
 2367TIP3    H128592   2.980   4.128   2.067 -1.9665 -0.2416 -0.3033
 2367TIP3    H228593   2.918   3.998   2.114 -0.3507 -0.4817  1.2341
 2368TIP3   OH228594   6.636   4.428   1.056 -0.1758 -0.2873  0.0832
 2368TIP3    H128595   6.630   4.333   1.046 -0.2902 -0.1245 -1.6442
 2368TIP3    H228596   6.582   4.463   0.985 -0.7089  1.0779  1.1293
 2369TIP3   OH228597   1.877   0.704  15.750 -0.1229  0.1945 -0.4221
 2369TIP3    H128598   1.957   0.660  15.721 -0.1939  0.4079 -0.9497
 2369TIP3    H228599   1.810   0.636  15.747  0.1580 -0.1455  0.6193
 2370TIP3   OH228600   5.307   3.949   5.755  0.2705 -0.1851  0.4021
 2370TIP3    H128601   5.379   3.950   5.819  0.6680 -0.4927 -0.0330
 2370TIP3    H228602   5.315   3.865   5.711 -1.1127 -0.7469  1.1705
 2371TIP3   OH228603   6.422   4.787   3.796  0.7666 -0.2208 -0.1588
 2371TIP3    H128604   6.395   4.741   3.716 -2.5602 -0.9686  1.2222
 2371TIP3    H228605   6.366   4.866   3.797  1.6431  0.4052  0.8344
 2372TIP3   OH228606   3.247   6.132   4.655 -0.7697 -0.4990  0.0620
 2372TIP3    H128607   3.202   6.114   4.737 -0.5636 -0.0008  0.2913
 2372TIP3    H228608   3.245   6.050   4.607 -4.5150  0.1712 -1.2419
 2373TIP3   OH228609   3.794   0.525  14.115 -0.0451  0.0116  0.1735
 2373TIP3    H128610   3.716   0.471  14.100  0.4811 -0.2320 -2.0955
 2373TIP3    H228611   3.777   0.605  14.064  1.5837 -0.4751 -1.2115
 2374TIP3   OH228612   6.499   5.522   0.856 -0.3363 -0.1722  0.5747
 2374TIP3    H128613   6.535   5.610   0.847 -0.0697 -0.4392 -1.3712
 2374TIP3    H228614   6.575   5.467   0.875 -0.3230 -0.1642  0.5435
 2375TIP3   OH228615   4.515   1.720  14.961  0.1037 -0.2797  0.1429
 2375TIP3    H128616   4.429   1.727  15.002  0.6468  0.7115  1.1463
 2375TIP3    H228617   4.570   1.781  15.010  0.3430  2.5709 -3.2412
 2376TIP3   OH228618   2.842   1.192   5.994 -1.0045 -0.5245 -0.3187
 2376TIP3    H128619   2.843   1.246   6.073  1.4191  1.6064 -1.6555
 2376TIP3    H228620   2.824   1.103   6.026  0.6158  0.0930  2.7329
 2377TIP3   OH228621   0.949   0.032  16.208 -0.1455  0.2610  0.1128
 2377TIP3    H128622   0.871  -0.021  16.192 -0.1493  0.6660 -1.3479
 2377TIP3    H228623   1.021  -0.032  16.206 -0.0295  0.3376 -2.7233
 2378TIP3   OH228624   4.883   1.942  14.248  0.0392  0.2044  0.0052
 2378TIP3    H128625   4.977   1.932  14.237  0.0959  1.7136 -1.0234
 2378TIP3    H228626   4.870   2.034  14.271 -1.2622  0.2492 -0.8264
 2379TIP3   OH228627   2.211   2.864   0.056  0.3815 -0.2266  0.0293
 2379TIP3    H128628   2.217   2.769   0.040  1.0479 -0.3873  1.1360
 2379TIP3    H228629   2.136   2.873   0.114  0.7262 -0.1451  0.4589
 2380TIP3   OH228630   0.127   3.066   1.927  0.0478  0.0421 -0.0631
 2380TIP3    H128631   0.093   3.006   1.993  0.4741 -0.6876 -0.4890
 2380TIP3    H228632   0.090   3.151   1.950 -2.9013 -0.8474 -1.0533
 2381TIP3   OH228633   3.444   3.931   5.073  0.2561  0.4998 -0.4854
 2381TIP3    H128634   3.423   4.025   5.075 -2.0029  0.0529  0.4551
 2381TIP3    H228635   3.418   3.902   4.986  0.0246  0.5844 -0.4469
 2382TIP3   OH228636   2.483   2.545  13.463  0.0061 -0.6426 -0.1437
 2382TIP3    H128637   2.413   2.585  13.515  0.5502 -0.7889  0.7191
 2382TIP3    H228638   2.439   2.475  13.415 -0.3521 -1.0715  0.7845
 2383TIP3   OH228639   3.033   4.410   3.773  0.0418 -0.5472 -0.4186
 2383TIP3    H128640   3.116   4.386   3.733  0.0117 -0.3298 -0.6103
 2383TIP3    H228641   2.993   4.472   3.712  0.0172 -0.1763 -0.0294
 2384TIP3   OH228642   6.733   5.404   4.739 -0.2007  0.2336  0.1793
 2384TIP3    H128643   6.735   5.379   4.831  0.4958 -0.1631  0.0670
 2384TIP3    H228644   6.671   5.476   4.735 -2.0609 -1.2584  0.5609
 2385TIP3   OH228645   2.661   1.059   3.595  0.4298 -0.1353  0.1400
 2385TIP3    H128646   2.650   1.049   3.500 -2.1738 -0.4382  0.3960
 2385TIP3    H228647   2.730   0.996   3.617  0.4616 -0.7072 -1.4296
 2386TIP3   OH228648   2.385   0.285  17.311  0.5953  0.3495  0.2270
 2386TIP3    H128649   2.336   0.336  17.377  1.7092  0.3629  1.0686
 2386TIP3    H228650   2.409   0.205  17.357  0.5150 -0.0981 -0.5006
 2387TIP3   OH228651   1.834   4.116  14.939 -0.5990  0.1433 -0.4227
 2387TIP3    H128652   1.832   4.175  14.864 -1.2520 -1.1961 -1.4919
 2387TIP3    H228653   1.884   4.040  14.909 -0.0062 -0.0099  0.8391
 2388TIP3   OH228654   1.091   3.189  17.395  0.4833  0.6121 -0.5224
 2388TIP3    H128655   1.037   3.142  17.331 -1.4269  2.4108 -0.3325
 2388TIP3    H228656   1.105   3.275  17.356  3.2759  0.2559 -0.5274
 2389TIP3   OH228657   1.945   6.466   0.009 -0.1151  0.1697  0.0818
 2389TIP3    H128658   1.926   6.554  -0.023  1.4692  0.4283 -0.2154
 2389TIP3    H228659   1.895   6.459   0.090 -0.3349  1.3102  0.0612
 2390TIP3   OH228660   1.279   3.012  14.039  0.1823 -0.4023 -0.4167
 2390TIP3    H128661   1.322   3.089  14.001  0.2606 -0.5099 -0.5457
 2390TIP3    H228662   1.347   2.945  14.041  0.1814 -0.3979 -0.0805
 2391TIP3   OH228663   5.045   1.042   5.371  0.1813  0.0431  0.2473
 2391TIP3    H128664   5.009   1.082   5.450  1.6839  0.5332  0.7377
 2391TIP3    H228665   5.092   1.114   5.328  0.4647 -0.5258 -0.4069
 2392TIP3   OH228666   0.012   0.208  14.729  0.0498  0.7566  0.3342
 2392TIP3    H128667   0.013   0.124  14.775  0.0669 -0.8155 -2.3314
 2392TIP3    H228668   0.104   0.231  14.720  0.1087  0.3833 -0.0547
 2393TIP3   OH228669   2.605   0.037  16.748 -0.2700  0.0366 -0.0914
 2393TIP3    H128670   2.574  -0.054  16.744 -0.7020  0.1700  0.1662
 2393TIP3    H228671   2.604   0.066  16.657  1.7924 -0.8405 -0.4595
 2394TIP3   OH228672   2.156   2.863  10.846  0.5611 -0.5673 -0.1485
 2394TIP3    H128673   2.208   2.791  10.882 -0.1685 -0.3651  1.4003
 2394TIP3    H228674   2.151   2.927  10.917 -1.3374 -0.3427 -0.4213
 2395TIP3   OH228675   6.592   4.623   2.511  0.4520 -0.0432 -0.1730
 2395TIP3    H128676   6.640   4.626   2.428 -0.2870 -0.1692 -0.6082
 2395TIP3    H228677   6.560   4.534   2.517  0.5483 -0.0497  0.2825
 2396TIP3   OH228678   6.257   1.250   1.565 -0.1837 -0.3322  0.3616
 2396TIP3    H128679   6.212   1.182   1.516 -1.0958 -0.4865  1.3894
 2396TIP3    H228680   6.251   1.222   1.656  3.3319 -1.1708  0.4942
 2397TIP3   OH228681   3.740   3.841   2.512 -0.0844 -0.4348 -0.1180
 2397TIP3    H128682   3.728   3.933   2.539 -3.5215 -1.0430  0.9290
 2397TIP3    H228683   3.751   3.845   2.417  1.1987  1.0937  0.0497
 2398TIP3   OH228684   0.744   4.432   2.766  0.1786  0.7328  0.2523
 2398TIP3    H128685   0.798   4.510   2.758  0.5114  0.5092  0.3086
 2398TIP3    H228686   0.787   4.367   2.709  1.3001 -0.1832  2.0471
 2399TIP3   OH228687   0.612   1.935  15.017 -0.4254 -0.2029  0.1412
 2399TIP3    H128688   0.691   1.978  14.985  0.0040 -0.7088  0.5110
 2399TIP3    H228689   0.633   1.910  15.107 -1.5686  1.1006  0.8286
 2400TIP3   OH228690   6.447   3.128  16.488  0.4935 -0.2347  0.1660
 2400TIP3    H128691   6.429   3.048  16.537  1.7229  0.0013  1.0410
 2400TIP3    H228692   6.543   3.130  16.481  0.3950  0.3179 -1.2856
 2401TIP3   OH228693   5.341   2.975   6.706 -0.2681  0.2118  0.3686
 2401TIP3    H128694   5.293   2.911   6.757 -0.5646 -0.4648 -0.7391
 2401TIP3    H228695   5.417   2.928   6.672  0.5026  0.9308  1.0320
 2402TIP3   OH228696   1.261   2.156  15.154  0.0359 -0.3096  0.0019
 2402TIP3    H128697   1.346   2.192  15.179  0.2247 -0.1344 -0.8755
 2402TIP3    H228698   1.275   2.116  15.069 -0.4708 -1.3884  0.3953
 2403TIP3   OH228699   2.430   2.152   2.759 -0.2842  0.5759 -0.3467
 2403TIP3    H128700   2.514   2.164   2.803  0.0337 -0.9294 -0.5057
 2403TIP3    H228701   2.405   2.240   2.731  0.7411  1.1846  0.5888
 2404TIP3   OH228702   2.132   1.009   4.015  0.1948  0.0633 -0.5206
 2404TIP3    H128703   2.190   0.981   3.944  0.5845 -0.3758 -0.0358
 2404TIP3    H228704   2.151   1.102   4.026 -0.3407  0.2897 -1.4280
 2405TIP3   OH228705   0.986   0.391   0.557 -0.1161 -0.2581 -0.4698
 2405TIP3    H128706   1.022   0.313   0.515  0.1901 -0.6099  0.4134
 2405TIP3    H228707   1.063   0.445   0.577  0.0835 -1.3953  2.1914
 2406TIP3   OH228708   0.043   2.697  17.234  0.1903 -0.4291  0.2191
 2406TIP3    H128709   0.033   2.635  17.162  0.2939  1.5908 -1.6066
 2406TIP3    H228710   0.120   2.666  17.282 -0.6570 -2.5576  0.2994
 2407TIP3   OH228711   0.003   2.128  16.652 -0.1982 -0.5762  0.0768
 2407TIP3    H128712  -0.051   2.075  16.710  0.6616  0.1440  1.5955
 2407TIP3    H228713  -0.018   2.218  16.675  1.0078 -0.2815  0.1009
 2408TIP3   OH228714   2.016   5.124   1.168 -0.3370 -0.1416 -0.4794
 2408TIP3    H128715   1.977   5.058   1.111 -0.4548 -0.2570 -0.2651
 2408TIP3    H228716   2.110   5.109   1.162 -0.2803  0.4851 -1.4332
 2409TIP3   OH228717   5.892   5.013   0.867  0.3213  0.0839  0.0754
 2409TIP3    H128718   5.810   4.975   0.898  0.0732  1.2966  0.9430
 2409TIP3    H228719   5.928   5.059   0.943  0.3708  1.9981 -1.0449
 2410TIP3   OH228720   5.317   4.602  15.917  0.1108  0.2063  0.4438
 2410TIP3    H128721   5.233   4.647  15.905  0.0429 -0.1751 -0.6529
 2410TIP3    H228722   5.350   4.590  15.828  0.8626 -0.5297  0.8132
 2411TIP3   OH228723   2.388   1.646   3.347  0.1809  0.2229  0.4514
 2411TIP3    H128724   2.305   1.687   3.370  0.9431  1.2076  1.6022
 2411TIP3    H228725   2.365   1.578   3.284 -1.2123  2.0120 -1.0799
 2412TIP3   OH228726   3.547   2.880  14.162  0.4224 -0.9091  0.7131
 2412TIP3    H128727   3.639   2.860  14.179  1.2508 -0.1160 -2.2740
 2412TIP3    H228728   3.526   2.952  14.222  1.9834 -0.5933  0.8993
 2413TIP3   OH228729   6.695   4.731  15.992  0.1470 -0.4057 -0.1409
 2413TIP3    H128730   6.705   4.643  15.955  1.8585  0.3730 -1.7156
 2413TIP3    H228731   6.671   4.785  15.917 -1.0522  0.4853  0.8434
 2414TIP3   OH228732   4.542   3.047   1.493 -0.2706 -0.5329  0.0269
 2414TIP3    H128733   4.474   3.039   1.426  0.4802  2.5040 -1.2456
 2414TIP3    H228734   4.624   3.049   1.444  0.2229  3.3125  0.6921
 2415TIP3   OH228735   6.349   3.760   5.132 -0.4057 -0.5115 -0.1794
 2415TIP3    H128736   6.369   3.839   5.181 -0.4935 -0.9479  0.5773
 2415TIP3    H228737   6.409   3.762   5.057 -1.8762  1.3603 -1.4002
 2416TIP3   OH228738   3.805   4.595  15.014  0.4714  0.2315  0.5451
 2416TIP3    H128739   3.819   4.593  15.108  1.5470 -1.7716  0.3900
 2416TIP3    H228740   3.891   4.577  14.976 -0.2955 -0.9019 -0.7490
 2417TIP3   OH228741   0.851   3.938   3.229 -0.4140 -0.4402 -0.3550
 2417TIP3    H128742   0.819   3.863   3.278 -0.2438  1.4526  2.9256
 2417TIP3    H228743   0.936   3.959   3.269 -1.0711  2.2869 -0.1819
 2418TIP3   OH228744   5.770   3.461  14.011 -0.5833 -0.1035 -0.2349
 2418TIP3    H128745   5.754   3.396  14.080 -0.1867  0.0983  0.0565
 2418TIP3    H228746   5.688   3.510  14.005 -0.4237  0.2787  0.5343
 2419TIP3   OH228747   1.346   6.499  13.652 -0.5368  0.1552  1.1461
 2419TIP3    H128748   1.333   6.406  13.670  1.1878 -0.1938  0.7363
 2419TIP3    H228749   1.356   6.538  13.739  2.5921 -0.7192  1.3216
 2420TIP3   OH228750   5.706   1.417  12.355  0.1662  0.2737 -0.0064
 2420TIP3    H128751   5.726   1.510  12.370 -1.6498  0.6660  0.1540
 2420TIP3    H228752   5.611   1.411  12.363  0.4141 -2.0114  2.1008
 2421TIP3   OH228753   2.113   4.688   5.307 -0.0838  0.2026 -0.1016
 2421TIP3    H128754   2.170   4.616   5.278 -1.4263 -0.9287 -0.0185
 2421TIP3    H228755   2.100   4.672   5.401 -0.0492  0.8130  0.0116
 2422TIP3   OH228756   0.107   4.194  13.367  0.0479  0.0264 -0.3771
 2422TIP3    H128757   0.113   4.102  13.393  1.6853  0.1300 -0.2289
 2422TIP3    H228758   0.014   4.214  13.368 -0.2321 -1.1161  1.4408
 2423TIP3   OH228759   4.122   2.281   5.428 -0.1807  0.7658  0.1770
 2423TIP3    H128760   4.067   2.248   5.357 -0.3994 -0.0277  0.6925
 2423TIP3    H228761   4.167   2.203   5.462  2.1188  1.5258 -0.9170
 2424TIP3   OH228762   1.261   0.250   2.554  0.4056  0.6939  0.5024
 2424TIP3    H128763   1.217   0.329   2.521  1.2085  1.0900  0.3360
 2424TIP3    H228764   1.302   0.212   2.476 -0.9367 -0.5446  0.3738
 2425TIP3   OH228765   1.197   2.204   2.823 -0.5871 -0.0981  0.1674
 2425TIP3    H128766   1.164   2.252   2.898 -2.0718 -0.5241 -0.1677
 2425TIP3    H228767   1.287   2.235   2.811 -1.4003  2.4744  0.0665
 2426TIP3   OH228768   2.379   4.343  11.623  0.0119  0.4133  0.1152
 2426TIP3    H128769   2.419   4.261  11.591  0.6740  0.3041  1.1746
 2426TIP3    H228770   2.370   4.329  11.717 -1.1026  1.0628  0.1164
 2427TIP3   OH228771   1.140   4.830  10.990 -0.0151 -0.4181 -0.1515
 2427TIP3    H128772   1.203   4.902  10.989  0.9794 -1.2210 -2.3832
 2427TIP3    H228773   1.175   4.769  11.056  0.8171 -0.2261 -0.3976
 2428TIP3   OH228774   1.884   1.520   4.418 -0.2339  0.1415 -0.4377
 2428TIP3    H128775   1.866   1.552   4.507 -0.6242 -0.7948 -0.1741
 2428TIP3    H228776   1.797   1.501   4.382 -0.0136 -0.4724 -0.6475
 2429TIP3   OH228777   6.651   2.233   0.432 -0.3330 -0.3479  0.4256
 2429TIP3    H128778   6.645   2.290   0.356 -2.6907  0.4047  1.1011
 2429TIP3    H228779   6.570   2.249   0.481  1.1600 -0.6497  3.2104
 2430TIP3   OH228780   0.874   2.025  15.464 -0.4024  0.6530  0.0191
 2430TIP3    H128781   0.930   2.024  15.542 -0.1301  0.1112 -0.1814
 2430TIP3    H228782   0.910   2.095  15.410 -0.9319  1.4072  0.6199
 2431TIP3   OH228783   0.234   0.494   1.669  0.0702  0.3784  0.0040
 2431TIP3    H128784   0.292   0.491   1.593  0.7632  0.0113  0.5396
 2431TIP3    H228785   0.188   0.578   1.661  0.6746  0.6746 -0.4242
 2432TIP3   OH228786   0.752   4.268   2.332  0.3226 -0.0236  0.3374
 2432TIP3    H128787   0.676   4.316   2.363  0.0633 -0.6497  0.6726
 2432TIP3    H228788   0.827   4.316   2.368  0.1383  1.0670 -0.6542
 2433TIP3   OH228789   0.902   2.379   2.940 -0.0798  0.5866  0.6672
 2433TIP3    H128790   0.855   2.448   2.986 -0.8530 -0.0103  0.8034
 2433TIP3    H228791   0.961   2.342   3.006  0.6196  1.3615  0.4866
 2434TIP3   OH228792   6.432   4.411  14.886  0.3636 -0.0519  0.2241
 2434TIP3    H128793   6.421   4.406  14.980  0.9689 -0.9245  0.2597
 2434TIP3    H228794   6.408   4.324  14.854 -0.8237  0.5205 -0.5498
 2435TIP3   OH228795   4.911   5.716   2.461 -0.4488 -0.4530 -0.4764
 2435TIP3    H128796   4.925   5.673   2.545  0.3744  1.2968  0.3190
 2435TIP3    H228797   4.819   5.741   2.461 -0.5770 -0.9094 -0.3401
 2436TIP3   OH228798   6.423   0.753   2.539 -0.0774 -0.0877  0.0319
 2436TIP3    H128799   6.332   0.723   2.533  0.0727 -0.4927 -0.2618
 2436TIP3    H228800   6.471   0.695   2.481  0.1972  0.8489 -0.6988
 2437TIP3   OH228801   1.382   4.335  12.288 -0.1601 -0.0728 -0.0011
 2437TIP3    H128802   1.414   4.303  12.372 -2.3311 -3.0414 -0.1498
 2437TIP3    H228803   1.437   4.292  12.223 -0.2140  0.0552 -0.1312
 2438TIP3   OH228804   5.666   5.619  17.314  0.1754  0.0523  0.4455
 2438TIP3    H128805   5.694   5.546  17.369 -2.0150 -2.6516 -1.7154
 2438TIP3    H228806   5.604   5.668  17.367 -0.4954 -1.4014  1.0522
 2439TIP3   OH228807   6.602   2.510   4.320  1.1475  0.2365 -0.0531
 2439TIP3    H128808   6.630   2.469   4.402  0.8717  0.1600  0.0005
 2439TIP3    H228809   6.559   2.440   4.271 -0.4507  0.7619  0.5695
 2440TIP3   OH228810   6.304   6.702  12.703 -0.1611 -0.4843 -0.1857
 2440TIP3    H128811   6.220   6.744  12.721  0.4381  0.3302  0.8779
 2440TIP3    H228812   6.368   6.758  12.748  0.7538 -2.1792  0.6974
 2441TIP3   OH228813   5.831   1.545  13.798 -0.1379 -0.2650 -0.0382
 2441TIP3    H128814   5.892   1.513  13.864 -0.0323 -2.2245 -1.0075
 2441TIP3    H228815   5.885   1.593  13.736  0.4369 -1.7570 -0.7469
 2442TIP3   OH228816   3.990   3.120   0.612  0.0356  0.5023 -0.2501
 2442TIP3    H128817   4.045   3.184   0.567 -0.0822  0.7902  0.0161
 2442TIP3    H228818   3.922   3.097   0.548  0.3971  0.2273 -0.5404
 2443TIP3   OH228819   2.753   2.908  17.214 -0.3097 -0.1974 -0.3261
 2443TIP3    H128820   2.789   2.963  17.145  1.0740 -1.7368 -0.9075
 2443TIP3    H228821   2.669   2.949  17.237  0.0180  1.3178 -1.6829
 2444TIP3   OH228822   5.976   0.086  17.196 -0.5560  0.4305  0.7519
 2444TIP3    H128823   6.017   0.173  17.201 -0.5023  0.4920 -0.3970
 2444TIP3    H228824   5.953   0.077  17.103 -0.1037 -0.9969  0.7680
 2445TIP3   OH228825   4.236   2.729  11.601 -0.3154 -0.6087 -0.1426
 2445TIP3    H128826   4.183   2.706  11.525 -0.0674 -0.3288 -0.4062
 2445TIP3    H228827   4.326   2.720  11.571 -0.2099  0.2578 -0.1234
 2446TIP3   OH228828   5.630   3.616  12.279 -0.4307 -0.3848 -0.0556
 2446TIP3    H128829   5.708   3.639  12.330  0.1733 -0.9504 -0.7140
 2446TIP3    H228830   5.594   3.700  12.252  0.8672 -0.1274 -1.0953
 2447TIP3   OH228831   2.725   3.926   0.616  0.0447 -0.6185 -0.0402
 2447TIP3    H128832   2.770   4.002   0.654 -1.9528  1.1087 -0.8956
 2447TIP3    H228833   2.689   3.959   0.533 -1.4124 -2.3365 -0.1498
 2448TIP3   OH228834   6.482   1.882  12.497  0.2681  0.1805 -0.3021
 2448TIP3    H128835   6.507   1.843  12.413  0.4652 -0.7438  0.1765
 2448TIP3    H228836   6.468   1.975  12.476  1.5290  0.2272 -1.1178
 2449TIP3   OH228837   6.287   6.559  16.133  0.4335  0.3394 -0.3298
 2449TIP3    H128838   6.217   6.543  16.195 -0.0181  2.1745 -0.3182
 2449TIP3    H228839   6.361   6.587  16.187  0.6677 -0.0077 -0.4686
 2450TIP3   OH228840   0.243   3.962  16.764  0.3765  0.1747 -0.4281
 2450TIP3    H128841   0.281   4.037  16.809 -0.9191  0.6821 -0.1430
 2450TIP3    H228842   0.298   3.950  16.686  0.4507  1.5933 -0.6174
 2451TIP3   OH228843   1.649   0.057  12.646  0.1212  0.3691 -0.1873
 2451TIP3    H128844   1.735   0.075  12.606  0.0100 -1.8719 -1.5856
 2451TIP3    H228845   1.670   0.011  12.727  0.2556 -0.5883 -0.7554
 2452TIP3   OH228846   5.347   5.494   1.997 -0.2602 -1.1899  0.1726
 2452TIP3    H128847   5.289   5.570   2.006 -1.4037 -2.0838  0.4553
 2452TIP3    H228848   5.344   5.472   1.904 -0.6877 -1.4733  0.2520
 2453TIP3   OH228849   3.606   2.055   1.749 -0.0054 -0.1523  0.3517
 2453TIP3    H128850   3.611   1.964   1.780  2.5970  0.3289  1.5839
 2453TIP3    H228851   3.615   2.049   1.654 -0.7512 -1.2191  0.3332
 2454TIP3   OH228852   5.039   4.299  13.658  0.2528  0.3017 -0.3459
 2454TIP3    H128853   5.119   4.334  13.617  0.6757  1.3217  1.2633
 2454TIP3    H228854   4.996   4.376  13.696  1.1847 -0.7990  3.3182
 2455TIP3   OH228855   3.594   1.323   1.497  0.2949 -0.2847 -0.0163
 2455TIP3    H128856   3.683   1.349   1.521  0.2233  0.3103 -0.3967
 2455TIP3    H228857   3.572   1.377   1.422 -0.2350 -0.7291 -0.1878
 2456TIP3   OH228858   2.243   0.023  12.850  0.6866  0.2046 -0.2036
 2456TIP3    H128859   2.188   0.033  12.772  2.0286  0.6636 -1.1290
 2456TIP3    H228860   2.193   0.065  12.920 -0.1624  0.5631 -0.9995
 2457TIP3   OH228861   5.117   6.500  15.801  0.3753 -0.8542 -0.6804
 2457TIP3    H128862   5.153   6.492  15.889  0.1638  2.8968 -0.0969
 2457TIP3    H228863   5.023   6.507  15.813  0.2018 -1.6759 -1.3946
 2458TIP3   OH228864   2.867   6.184  12.600  0.1158  0.1113  0.0805
 2458TIP3    H128865   2.825   6.268  12.620  0.7461  0.8020 -1.3886
 2458TIP3    H228866   2.853   6.172  12.506  1.1125 -0.8222  0.0389
 2459TIP3   OH228867   3.103   1.904  12.943  0.2454  0.6556 -0.5871
 2459TIP3    H128868   3.174   1.912  13.006 -0.8402  1.0173  0.6426
 2459TIP3    H228869   3.097   1.991  12.903  0.4671  0.6370 -0.6602
 2460TIP3   OH228870   6.732   2.925   1.092 -0.1251 -0.1872  0.3065
 2460TIP3    H128871   6.644   2.962   1.097 -1.2853 -2.4971 -0.9961
 2460TIP3    H228872   6.735   2.863   1.165 -0.3504 -1.5035 -0.7640
 2461TIP3   OH228873   1.404   5.842  12.034 -0.1746  0.7223 -0.1536
 2461TIP3    H128874   1.419   5.893  12.114 -2.0259  1.7222 -0.3920
 2461TIP3    H228875   1.464   5.881  11.970  1.2773 -0.0444  0.6699
 2462TIP3   OH228876   4.378   3.047  13.484  0.6976  0.5317 -0.7982
 2462TIP3    H128877   4.344   3.028  13.396 -0.9358 -0.0582 -0.0850
 2462TIP3    H228878   4.382   3.142  13.488  1.2496  0.5582 -1.6666
 2463TIP3   OH228879   5.483   2.427   3.387  0.1562 -0.2415 -0.5811
 2463TIP3    H128880   5.425   2.503   3.385 -1.1929 -1.2404 -1.3779
 2463TIP3    H228881   5.513   2.422   3.478 -0.9434  0.3650 -0.1645
 2464TIP3   OH228882   2.552   4.679   1.716  0.4545  0.3088 -0.7401
 2464TIP3    H128883   2.563   4.585   1.729 -0.0250  0.1431 -1.4593
 2464TIP3    H228884   2.461   4.697   1.740  0.4931  0.5515 -0.7689
 2465TIP3   OH228885   6.723   4.120  14.745 -0.2725 -0.0520 -0.3548
 2465TIP3    H128886   6.716   4.048  14.683 -0.2858 -0.3354 -0.0281
 2465TIP3    H228887   6.703   4.081  14.830 -1.2728  0.5361 -0.2944
 2466TIP3   OH228888   0.026   6.640   4.213  0.2568  0.3203  0.5156
 2466TIP3    H128889   0.096   6.577   4.192 -1.0405 -0.9718 -0.1384
 2466TIP3    H228890  -0.006   6.669   4.128  0.2226  1.1728  0.8141
 2467TIP3   OH228891   1.068   0.039  13.863  0.1596 -0.4975 -1.0424
 2467TIP3    H128892   1.157   0.009  13.883  0.7607  0.8082 -1.6026
 2467TIP3    H228893   1.080   0.103  13.792 -1.1110  0.4061 -0.4862
 2468TIP3   OH228894   5.684   1.137   5.455  0.3197  0.5556 -0.0217
 2468TIP3    H128895   5.596   1.136   5.416  0.5537  0.1036 -0.5524
 2468TIP3    H228896   5.739   1.181   5.390  0.9195 -1.1135 -0.7178
 2469TIP3   OH228897   6.352   3.387  13.611  0.1816 -0.4996 -0.3964
 2469TIP3    H128898   6.382   3.301  13.639  0.5449 -0.4279 -0.5552
 2469TIP3    H228899   6.261   3.374  13.585 -0.3007 -0.4778  1.2208
 2470TIP3   OH228900   2.790   5.485  12.960  0.1292 -0.5372  0.1896
 2470TIP3    H128901   2.808   5.427  13.034 -1.3670 -1.1856  0.0848
 2470TIP3    H228902   2.695   5.485  12.953 -0.0268  2.7518  0.8067
 2471TIP3   OH228903   5.840   4.595  17.138  0.1374 -0.1345 -0.2842
 2471TIP3    H128904   5.833   4.542  17.058 -2.5516 -0.0014 -0.2112
 2471TIP3    H228905   5.853   4.684  17.106  0.4836 -0.2595 -0.5091
 2472TIP3   OH228906   4.941   1.654  17.235  0.1406  0.2027  1.0443
 2472TIP3    H128907   4.904   1.681  17.151  0.5689 -1.2184  0.3640
 2472TIP3    H228908   4.870   1.668  17.298 -0.5528  0.2973  0.2682
 2473TIP3   OH228909   1.164   4.280  16.006  0.5233  0.1329  0.0485
 2473TIP3    H128910   1.128   4.352  15.955  0.5567  0.6962  0.8074
 2473TIP3    H228911   1.253   4.307  16.027 -0.0236  0.6941  1.8410
 2474TIP3   OH228912   1.292   2.293  13.346  0.7337 -0.5310 -0.5226
 2474TIP3    H128913   1.217   2.302  13.287 -0.0179  2.3959  0.7242
 2474TIP3    H228914   1.361   2.344  13.305  0.1271  1.7474  1.1274
 2475TIP3   OH228915   3.384   3.849  11.686  0.1304 -0.1523  0.1911
 2475TIP3    H128916   3.326   3.917  11.718 -0.8489 -0.7778 -0.2215
 2475TIP3    H228917   3.438   3.893  11.619 -1.5936 -0.1187 -1.2557
 2476TIP3   OH228918   0.091   5.665  12.206 -1.1857  0.0589 -0.0538
 2476TIP3    H128919   0.114   5.743  12.257  0.5954 -0.8332  0.5991
 2476TIP3    H228920   0.001   5.645  12.231 -1.2644  1.2179  0.6600
 2477TIP3   OH228921   0.032   3.338   1.033 -0.2176 -0.1595 -0.3113
 2477TIP3    H128922  -0.032   3.267   1.041  0.8146 -1.0682  0.1239
 2477TIP3    H228923   0.058   3.357   1.123 -0.9315  1.2171 -0.3706
 2478TIP3   OH228924   6.063   3.426   4.566 -0.1084  0.5490  0.3213
 2478TIP3    H128925   5.988   3.369   4.549  0.1221  0.2167  0.4155
 2478TIP3    H228926   6.139   3.367   4.568  0.1022  0.8286  0.6517
 2479TIP3   OH228927   3.577   2.245  13.185 -0.5161 -0.1011 -0.4566
 2479TIP3    H128928   3.492   2.243  13.229 -1.5566  0.2696 -2.3020
 2479TIP3    H228929   3.579   2.330  13.141 -0.6084 -1.3043 -2.9607
 2480TIP3   OH228930   5.787   5.736   1.636 -0.4461  0.0268 -0.1770
 2480TIP3    H128931   5.864   5.793   1.626 -0.0780  0.1441  2.5416
 2480TIP3    H228932   5.718   5.780   1.586  0.8918  0.5868 -1.6335
 2481TIP3   OH228933   0.761   6.189  14.536 -0.6880 -0.0891  0.5542
 2481TIP3    H128934   0.705   6.113  14.521 -0.1709 -0.1971 -1.0125
 2481TIP3    H228935   0.850   6.153  14.534 -0.3514  0.7225 -1.7114
 2482TIP3   OH228936   5.130   0.026  16.210 -0.4129  0.4687  0.0358
 2482TIP3    H128937   5.070   0.061  16.276  0.3194  1.5451  0.1593
 2482TIP3    H228938   5.153   0.102  16.156 -0.1889 -0.1908 -0.8149
 2483TIP3   OH228939   2.341   4.947  11.221 -0.4040 -0.6120 -0.5701
 2483TIP3    H128940   2.282   4.883  11.183 -1.2814  0.6594 -1.4398
 2483TIP3    H228941   2.295   4.980  11.298 -1.1855  0.8348 -1.5982
 2484TIP3   OH228942   1.963   0.347   1.265  0.3413 -0.5749 -0.4970
 2484TIP3    H128943   1.890   0.378   1.319  0.2098 -0.2703 -0.8448
 2484TIP3    H228944   2.017   0.297   1.325 -0.0687 -0.6630 -0.1967
 2485TIP3   OH228945   5.518   5.681  15.667 -0.8516 -0.1732 -0.0285
 2485TIP3    H128946   5.602   5.684  15.714 -0.3813 -1.5072 -0.7421
 2485TIP3    H228947   5.452   5.689  15.736 -0.1738 -1.9785  0.8806
 2486TIP3   OH228948   0.529   2.682   5.578 -0.4108  0.7299  0.4638
 2486TIP3    H128949   0.618   2.672   5.546 -0.4210 -1.8487  1.0154
 2486TIP3    H228950   0.539   2.715   5.667 -0.0743  1.4213  0.1748
 2487TIP3   OH228951   6.327   1.476  16.378 -0.0407  0.4025  0.6138
 2487TIP3    H128952   6.296   1.406  16.320 -0.0098  0.7119  0.2202
 2487TIP3    H228953   6.271   1.470  16.455 -1.8393  1.6373 -0.5257
 2488TIP3   OH228954   6.706   0.091  13.243 -0.6263 -0.1552  0.6247
 2488TIP3    H128955   6.701   0.129  13.156  0.3356 -1.1514  0.1027
 2488TIP3    H228956   6.738   0.162  13.298  0.8828 -0.0809 -0.2793
 2489TIP3   OH228957   1.378   4.056  13.359 -0.0297 -0.3164  0.1910
 2489TIP3    H128958   1.283   4.065  13.364  0.1020  1.0968  0.6582
 2489TIP3    H228959   1.392   3.966  13.331 -1.4944 -0.7627  0.7685
 2490TIP3   OH228960   2.837   2.055  14.272  0.2500 -0.1056  0.2611
 2490TIP3    H128961   2.900   1.990  14.303 -0.7292 -0.6548  1.1315
 2490TIP3    H228962   2.867   2.137  14.310  1.6820  0.0671 -1.1032
 2491TIP3   OH228963   4.683   3.876  13.965 -0.1862  0.2679  0.2225
 2491TIP3    H128964   4.669   3.826  14.046 -1.1180  1.5676  0.8961
 2491TIP3    H228965   4.732   3.816  13.908  0.0622 -0.8526  1.5578
 2492TIP3   OH228966   5.334   0.627   1.976 -0.2474 -0.2069 -0.8148
 2492TIP3    H128967   5.358   0.703   2.028  2.6455 -1.6124  0.1303
 2492TIP3    H228968   5.314   0.559   2.040  1.0191 -1.2864 -1.5023
 2493TIP3   OH228969   2.651   2.307  11.096  0.5450 -0.2255  0.6373
 2493TIP3    H128970   2.586   2.366  11.056 -0.6214 -0.3766  2.2145
 2493TIP3    H228971   2.691   2.263  11.022  1.2564  2.3064 -0.6082
 2494TIP3   OH228972   3.602   5.516  15.132  0.0385  0.3356  0.0044
 2494TIP3    H128973   3.689   5.501  15.169 -0.3547  1.9623  1.7863
 2494TIP3    H228974   3.542   5.477  15.196 -0.6015  1.2433 -0.0211
 2495TIP3   OH228975   5.576   0.623  12.375  0.4115  0.4573  0.1351
 2495TIP3    H128976   5.505   0.676  12.411 -0.3258  0.1702 -0.8623
 2495TIP3    H228977   5.637   0.613  12.448 -1.1705 -0.3586  1.4224
 2496TIP3   OH228978   4.257   5.650  12.187  0.0098  0.3260 -0.7196
 2496TIP3    H128979   4.261   5.717  12.255  0.2657  0.8874 -1.2854
 2496TIP3    H228980   4.177   5.669  12.138 -0.3369 -0.2609 -0.4052
 2497TIP3   OH228981   2.792   0.445   1.562  0.0409  0.2502  0.6405
 2497TIP3    H128982   2.876   0.486   1.540 -0.2174 -0.4719 -2.1467
 2497TIP3    H228983   2.731   0.519   1.571  1.0566  0.8412  3.5873
 2498TIP3   OH228984   0.170   4.833   3.111 -0.2032  0.1287  0.5651
 2498TIP3    H128985   0.252   4.807   3.153 -0.3580 -0.9161  0.2388
 2498TIP3    H228986   0.137   4.904   3.166  1.7484  1.7672 -0.2433
 2499TIP3   OH228987   1.235   3.463  16.956 -0.0275  0.6094  0.4565
 2499TIP3    H128988   1.294   3.388  16.961 -2.1971 -1.1116  2.2440
 2499TIP3    H228989   1.282   3.534  16.999  1.4828 -0.1173  0.0636
 2500TIP3   OH228990   1.597   1.414  14.316 -0.1028 -0.1124 -0.0445
 2500TIP3    H128991   1.680   1.370  14.338 -0.1778 -0.9435 -1.2980
 2500TIP3    H228992   1.620   1.475  14.247 -0.5270 -0.3446 -0.3960
 2501TIP3   OH228993   4.561   3.008  13.700 -0.0618  0.2222 -0.4793
 2501TIP3    H128994   4.638   3.024  13.646 -0.0300 -3.7733 -1.9720
 2501TIP3    H228995   4.489   3.001  13.638 -0.8157 -0.2421  0.4204
 2502TIP3   OH228996   4.201   4.277  15.441  0.3273  0.2872  0.3309
 2502TIP3    H128997   4.274   4.283  15.379 -0.3677 -2.0468 -0.8307
 2502TIP3    H228998   4.215   4.194  15.486 -0.1383  1.1286  2.1233
 2503TIP3   OH228999   5.334   5.009  13.220 -0.5592  0.0347  0.3431
 2503TIP3    H129000   5.380   4.933  13.256 -0.4430 -0.2846 -0.4577
 2503TIP3    H229001   5.241   4.986  13.228 -0.5348 -0.0280  0.4497
 2504TIP3   OH229002   5.724   1.164   6.219 -0.3194  0.1811  0.3677
 2504TIP3    H129003   5.716   1.259   6.212 -1.9395  0.2623  2.2581
 2504TIP3    H229004   5.648   1.137   6.271  0.6738 -2.0221  0.8127
 2505TIP3   OH229005   4.420   0.311   1.697 -0.2180 -0.4246 -0.7419
 2505TIP3    H129006   4.403   0.272   1.783  0.1985 -0.8212 -0.8363
 2505TIP3    H229007   4.417   0.237   1.636  0.0989 -0.2377 -0.9859
 2506TIP3   OH229008   5.642   6.041  13.558 -0.2144 -0.4021 -0.3175
 2506TIP3    H129009   5.679   6.089  13.483  0.4814  0.6215  0.6396
 2506TIP3    H229010   5.719   6.017  13.610 -0.7176 -0.7952  0.2452
 2507TIP3   OH229011   1.359   1.354  13.244  0.2819 -0.3596 -0.0811
 2507TIP3    H129012   1.325   1.432  13.201  0.1281  0.5131  1.5481
 2507TIP3    H229013   1.455   1.364  13.240  0.3239 -1.1257 -1.6554
 2508TIP3   OH229014   4.158   2.030   3.377 -0.2365 -0.6784 -0.0931
 2508TIP3    H129015   4.246   2.015   3.342  0.0500 -1.2375  0.8311
 2508TIP3    H229016   4.171   2.042   3.471 -1.1466 -0.7227  0.0506
 2509TIP3   OH229017   0.028   2.450   1.650 -0.4142  0.0334 -0.0792
 2509TIP3    H129018   0.001   2.512   1.719  0.2319  0.6179 -0.3302
 2509TIP3    H229019   0.017   2.499   1.569  0.8361  0.1191 -0.2286
 2510TIP3   OH229020   5.064   6.108   5.012  0.0328 -0.1018  0.2978
 2510TIP3    H129021   5.003   6.049   4.968 -0.9013 -1.2245  2.8712
 2510TIP3    H229022   5.010   6.156   5.075  1.1247  2.1656 -0.3874
 2511TIP3   OH229023   6.384   1.434  10.705 -0.1936 -0.3917  0.2006
 2511TIP3    H129024   6.290   1.428  10.724 -0.3881 -1.8959 -1.0566
 2511TIP3    H229025   6.415   1.344  10.711  0.6740 -0.2733 -1.7207
 2512TIP3   OH229026   3.857   1.756  13.612  0.2163 -0.0790 -0.1661
 2512TIP3    H129027   3.940   1.708  13.607  0.6493  0.2673  2.2572
 2512TIP3    H229028   3.790   1.689  13.612  0.7156 -0.6235  1.1377
 2513TIP3   OH229029   5.922   3.047  10.527 -0.7184 -0.0937 -0.1963
 2513TIP3    H129030   5.868   2.975  10.494 -1.7755  0.3757  0.4564
 2513TIP3    H229031   5.900   3.052  10.620 -0.1577  0.6432 -0.1000
 2514TIP3   OH229032   1.879   1.175  12.619  0.1473  0.2976 -0.4975
 2514TIP3    H129033   1.966   1.206  12.597  0.1422 -0.2107 -1.2579
 2514TIP3    H229034   1.829   1.180  12.538 -0.2217 -0.4332 -0.3321
 2515TIP3   OH229035   0.144   6.711  11.841  0.1234  0.0387  0.0524
 2515TIP3    H129036   0.213   6.697  11.776 -0.6776 -0.0465 -0.8074
 2515TIP3    H229037   0.116   6.622  11.866  0.8642  0.0581  1.0170
 2516TIP3   OH229038   4.887   6.352   0.085 -0.3413 -0.7944  0.6249
 2516TIP3    H129039   4.908   6.267   0.122  1.5913 -1.3927 -1.6211
 2516TIP3    H229040   4.960   6.371   0.025  0.2029  3.1925  2.2071
 2517TIP3   OH229041   1.252   0.198  14.092  0.3726  0.0971 -0.0374
 2517TIP3    H129042   1.175   0.246  14.125  0.5920 -0.4384  1.2854
 2517TIP3    H229043   1.269   0.238  14.006 -1.1324  0.4978 -0.1833
 2518TIP3   OH229044   2.734   1.907  17.370 -0.0222 -0.1529 -0.6542
 2518TIP3    H129045   2.770   1.841  17.310  1.9927 -0.8799  1.1996
 2518TIP3    H229046   2.667   1.860  17.419 -0.8332  0.1086 -1.4934
 2519TIP3   OH229047   4.443   3.501   3.095 -0.7105  0.1597 -0.3255
 2519TIP3    H129048   4.500   3.511   3.018  0.2448 -0.4812  0.2759
 2519TIP3    H229049   4.465   3.574   3.152  2.1997 -1.9413  1.5281
 2520TIP3   OH229050   0.093   6.062   4.955 -0.2102 -0.5889 -0.1378
 2520TIP3    H129051   0.148   6.020   5.020  1.2296 -0.5252 -1.2556
 2520TIP3    H229052   0.120   6.154   4.957 -1.0919 -0.3267  0.0887
 2521TIP3   OH229053   3.350   0.326   6.352 -0.1073 -0.6814  0.1102
 2521TIP3    H129054   3.307   0.409   6.373  1.1346 -0.0293  0.1297
 2521TIP3    H229055   3.391   0.298   6.434  1.2929 -0.2118 -0.4172
 2522TIP3   OH229056   0.555   2.283   1.938 -0.2364  0.5214  0.4850
 2522TIP3    H129057   0.645   2.316   1.946 -0.2506  1.0419 -1.1508
 2522TIP3    H229058   0.501   2.362   1.946 -0.3241  0.8485 -2.3279
 2523TIP3   OH229059   5.113   4.554  11.505 -0.3017 -0.0558 -0.8658
 2523TIP3    H129060   5.144   4.495  11.574  1.4508  1.5174 -0.2060
 2523TIP3    H229061   5.049   4.502  11.456  0.4460 -2.1542  0.2362
 2524TIP3   OH229062   0.812   3.492   5.672 -0.3450  0.3358  0.7447
 2524TIP3    H129063   0.761   3.487   5.591 -0.5469  0.9169  0.8314
 2524TIP3    H229064   0.839   3.401   5.689 -0.9381  0.0909  0.4331
 2525TIP3   OH229065   6.542   2.537   2.441  0.0683  0.4285  0.0008
 2525TIP3    H129066   6.613   2.500   2.389 -0.1162  1.0369 -0.6887
 2525TIP3    H229067   6.570   2.525   2.532  0.5565 -0.3039 -0.2349
 2526TIP3   OH229068   4.342   6.015   2.055 -0.1532  0.2133  0.7937
 2526TIP3    H129069   4.361   6.076   1.984 -0.8345 -0.8139 -0.3276
 2526TIP3    H229070   4.421   6.013   2.108  0.5080  0.7387 -0.1566
 2527TIP3   OH229071   4.088   2.479  17.328 -0.3536  0.0552  0.1271
 2527TIP3    H129072   4.102   2.435  17.244  0.1164 -0.5350  0.5020
 2527TIP3    H229073   4.011   2.535  17.314 -1.2317 -1.2073 -0.2417
 2528TIP3   OH229074   6.641   2.856  13.442  0.2261 -0.3083  0.2791
 2528TIP3    H129075   6.575   2.918  13.410  0.2842 -0.2841  0.2052
 2528TIP3    H229076   6.716   2.870  13.384  1.0277  1.0739  1.5746
 2529TIP3   OH229077   3.060   0.194  11.605 -0.3602 -0.6723  0.6493
 2529TIP3    H129078   3.120   0.188  11.531  0.0940 -0.2654  0.9765
 2529TIP3    H229079   3.009   0.113  11.601  0.4621 -1.1976  0.5846
 2530TIP3   OH229080   3.178   2.314  11.312  0.1522 -0.1037 -0.6731
 2530TIP3    H129081   3.203   2.393  11.360 -2.4962 -0.3436  1.3914
 2530TIP3    H229082   3.107   2.342  11.254 -0.8800 -0.9040  0.1461
 2531TIP3   OH229083   5.863   2.724  17.485 -0.4202  0.0143  0.5736
 2531TIP3    H129084   5.938   2.676  17.449 -0.2019  0.0729  0.9475
 2531TIP3    H229085   5.865   2.704  17.579 -0.0665  1.1115  0.8101
 2532TIP3   OH229086   1.406   5.128   3.032  0.0766 -0.8263  0.1772
 2532TIP3    H129087   1.481   5.187   3.027 -1.2952  0.9914  0.4166
 2532TIP3    H229088   1.380   5.130   3.124 -2.3651  1.3321 -0.4727
 2533TIP3   OH229089   6.007   3.068  16.568  0.1369 -0.3019 -0.0572
 2533TIP3    H129090   5.918   3.046  16.594 -0.7074  1.3219 -1.3589
 2533TIP3    H229091   6.033   2.997  16.508  0.2070 -1.3923  1.2246
 2534TIP3   OH229092   2.825   0.526  15.338 -0.2586  0.1026 -0.5210
 2534TIP3    H129093   2.882   0.588  15.293  1.9365 -1.5568 -0.2670
 2534TIP3    H229094   2.853   0.531  15.430 -0.7228 -0.5326 -0.3369
 2535TIP3   OH229095   2.354   1.338  14.284  0.4365 -0.1802 -0.2729
 2535TIP3    H129096   2.343   1.244  14.294  1.2697 -0.1539  1.1683
 2535TIP3    H229097   2.323   1.375  14.367 -1.2649  0.9620 -1.3513
 2536TIP3   OH229098   2.651   3.079  12.104  0.2465 -0.5286 -0.2403
 2536TIP3    H129099   2.666   3.009  12.168 -1.9823  1.1300  2.3182
 2536TIP3    H229100   2.739   3.109  12.081  1.2021 -0.6262  2.8014
 2537TIP3   OH229101   0.425   4.765   3.226  0.5394  0.0952 -0.2333
 2537TIP3    H129102   0.442   4.854   3.194 -1.0385  0.6581  0.3614
 2537TIP3    H229103   0.497   4.713   3.192  0.6048  1.2666 -2.0385
 2538TIP3   OH229104   4.408   3.522  13.277 -0.2684  0.3047 -0.3379
 2538TIP3    H129105   4.375   3.555  13.194  0.6724 -0.6226 -1.1039
 2538TIP3    H229106   4.486   3.575  13.294 -0.1364  0.1109 -0.3359
 2539TIP3   OH229107   6.591   5.558  15.192 -0.0230  0.5048 -0.0917
 2539TIP3    H129108   6.604   5.492  15.261 -2.6311  2.2077  2.2725
 2539TIP3    H229109   6.650   5.629  15.215  0.3898  0.3663 -0.7001
 2540TIP3   OH229110   2.649   6.685   4.549 -0.0886  0.4891  0.0275
 2540TIP3    H129111   2.660   6.621   4.479 -0.2040  0.5057 -0.0058
 2540TIP3    H229112   2.683   6.642   4.627 -0.2075  0.3704  0.0132
 2541TIP3   OH229113   0.439   4.640  16.837  0.1801 -0.4322 -0.3867
 2541TIP3    H129114   0.471   4.624  16.749  1.9249  0.5602  0.0114
 2541TIP3    H229115   0.347   4.612  16.835 -0.6545  1.9844 -3.2367
 2542TIP3   OH229116   6.683   6.008  17.000  0.0915  0.0969  0.1738
 2542TIP3    H129117   6.621   5.957  16.948 -0.5816 -0.6685  1.6677
 2542TIP3    H229118   6.730   6.061  16.935  0.2971 -1.8400 -1.3689
 2543TIP3   OH229119   0.642   0.547  13.868  0.3153 -0.6004 -0.2163
 2543TIP3    H129120   0.553   0.575  13.844 -1.0964 -3.3196  1.3929
 2543TIP3    H229121   0.698   0.590  13.803 -2.0798  1.5151 -1.0953
 2544TIP3   OH229122   1.051   6.350   5.069  0.0164  0.2316  1.1315
 2544TIP3    H129123   1.061   6.303   5.151  2.1407 -0.7392  0.3791
 2544TIP3    H229124   1.139   6.383   5.049 -0.3282  0.0203 -0.9804
 2545TIP3   OH229125   0.326   5.450   2.210 -0.4793  0.3857 -0.1717
 2545TIP3    H129126   0.277   5.522   2.249 -1.0742  0.3348 -0.7943
 2545TIP3    H229127   0.394   5.493   2.158  0.1620  0.4576  0.7004
 2546TIP3   OH229128   0.482   5.344  10.963  0.3908  0.1277  0.0205
 2546TIP3    H129129   0.454   5.403  11.033 -0.6000  1.2343 -1.2467
 2546TIP3    H229130   0.407   5.286  10.950  0.4541  0.1149 -0.2934
 2547TIP3   OH229131   1.706   6.470  16.909  0.7740  0.1714  0.6447
 2547TIP3    H129132   1.664   6.439  16.989 -0.0958 -0.5224 -0.0544
 2547TIP3    H229133   1.649   6.540  16.878 -0.0761 -0.9469 -0.4485
 2548TIP3   OH229134   4.135   1.193   4.045  0.1109  0.8647  0.1843
 2548TIP3    H129135   4.044   1.172   4.066  0.7006  0.3225  2.4215
 2548TIP3    H229136   4.137   1.195   3.949 -2.1082  0.2458  0.0672
 2549TIP3   OH229137   0.530   4.915   5.290  0.2217 -0.1676  0.2551
 2549TIP3    H129138   0.529   4.988   5.228  1.2402 -0.1524  0.2444
 2549TIP3    H229139   0.449   4.866   5.271  1.0591 -0.8230 -1.8842
 2550TIP3   OH229140   6.019   4.868  11.744  0.6513 -0.0997  0.1777
 2550TIP3    H129141   5.930   4.876  11.710  0.7624  0.1622 -0.0559
 2550TIP3    H229142   6.063   4.812  11.679  0.8001  0.2071  0.0111
 2551TIP3   OH229143   0.622   3.735   4.152 -0.6050  0.2248 -0.3573
 2551TIP3    H129144   0.603   3.823   4.121 -2.4800 -0.3501 -0.9544
 2551TIP3    H229145   0.675   3.696   4.083 -0.3437  0.6595 -0.4039
 2552TIP3   OH229146   5.042   1.456   0.194  0.3646  0.6934 -1.2961
 2552TIP3    H129147   4.956   1.449   0.153  0.1243 -1.0441 -0.5648
 2552TIP3    H229148   5.058   1.551   0.198 -2.2814  1.1774  0.1156
 2553TIP3   OH229149   2.892   2.926  12.170 -0.2678  0.8487  0.3705
 2553TIP3    H129150   2.987   2.921  12.159 -0.4694 -0.3780 -1.2177
 2553TIP3    H229151   2.866   2.840  12.201 -1.0246  0.5980 -0.8898
 2554TIP3   OH229152   2.958   4.851  16.667  0.3897 -0.3658 -0.1805
 2554TIP3    H129153   2.879   4.893  16.632  0.4595 -0.9952 -1.1269
 2554TIP3    H229154   2.943   4.847  16.761  0.5428  2.1329  0.0195
 2555TIP3   OH229155   3.739   3.768  13.287 -0.0594  0.6170  0.2854
 2555TIP3    H129156   3.655   3.773  13.333 -0.3987 -1.7173  0.0305
 2555TIP3    H229157   3.800   3.817  13.343 -1.1685  0.6655  1.5035
 2556TIP3   OH229158   5.020   0.409  11.343  0.0300  0.1200 -0.1809
 2556TIP3    H129159   4.973   0.464  11.281  0.3111 -0.2800 -0.7585
 2556TIP3    H229160   4.953   0.355  11.384 -0.0679 -0.1901 -0.7349
 2557TIP3   OH229161   6.186   1.718   3.531 -0.0225 -0.2025 -0.6303
 2557TIP3    H129162   6.245   1.782   3.493  1.2222 -0.3876  0.9063
 2557TIP3    H229163   6.215   1.708   3.621 -1.6642 -1.1969 -0.1593
 2558TIP3   OH229164   2.146   2.651  15.112 -0.5094 -0.1881  0.6771
 2558TIP3    H129165   2.151   2.705  15.191  2.6083 -1.4154  1.4817
 2558TIP3    H229166   2.210   2.689  15.052 -0.7483 -0.9731 -0.1065
 2559TIP3   OH229167   3.470   3.292   5.240  0.2043 -0.0988  0.5678
 2559TIP3    H129168   3.467   3.210   5.290 -0.1086 -0.9655 -0.8177
 2559TIP3    H229169   3.558   3.326   5.254  1.7834 -2.7349 -1.9271
 2560TIP3   OH229170   4.826   6.608   2.479 -0.0558  0.4235 -0.1210
 2560TIP3    H129171   4.751   6.606   2.539  0.5991 -0.7588  0.7067
 2560TIP3    H229172   4.790   6.636   2.395 -1.5675 -0.8190  0.0792
 2561TIP3   OH229173   6.507   2.326  16.482  0.0643 -0.0503  0.1546
 2561TIP3    H129174   6.463   2.405  16.514  1.3553  0.0720  1.6896
 2561TIP3    H229175   6.443   2.256  16.495 -0.0805  0.2934  1.4047
 2562TIP3   OH229176   1.953   1.592  11.547  0.1501 -0.3428  0.1972
 2562TIP3    H129177   1.949   1.528  11.476  2.7890 -0.4456  0.0539
 2562TIP3    H229178   1.862   1.607  11.570 -0.6297 -4.3317  0.4046
 2563TIP3   OH229179   1.199   2.958  17.520  0.0251 -0.4653 -0.6644
 2563TIP3    H129180   1.178   3.032  17.462  0.1696  1.1717  1.2654
 2563TIP3    H229181   1.285   2.979  17.556  0.0116 -1.5241  0.0252
 2564TIP3   OH229182   0.955   2.442  11.577 -0.4322 -0.2963  0.0233
 2564TIP3    H129183   0.922   2.388  11.649 -0.6636 -0.0007  0.1431
 2564TIP3    H229184   0.880   2.495  11.550  0.0869  0.8843  0.7654
 2565TIP3   OH229185   0.494   3.603   4.638  0.0787  0.0340  0.2481
 2565TIP3    H129186   0.421   3.566   4.589  0.0871 -2.8711  2.1449
 2565TIP3    H229187   0.560   3.624   4.572 -2.0514  1.9866 -1.4307
 2566TIP3   OH229188   1.897   6.416   2.657 -0.4323 -1.2870 -0.3359
 2566TIP3    H129189   1.813   6.432   2.615 -0.1024  0.4357 -0.4227
 2566TIP3    H229190   1.903   6.320   2.664 -2.8280 -1.4344  0.6099
 2567TIP3   OH229191   4.540   0.610   0.756  0.0651  0.6166 -0.1045
 2567TIP3    H129192   4.444   0.609   0.758  0.0520  1.3560  0.1536
 2567TIP3    H229193   4.565   0.667   0.829  0.7952 -1.4840  1.3831
 2568TIP3   OH229194   0.268   3.896   6.345 -0.2233  0.5719  0.3622
 2568TIP3    H129195   0.339   3.839   6.374 -1.9751 -0.7879  2.2672
 2568TIP3    H229196   0.244   3.946   6.423 -2.1088  0.0880  0.1606
 2569TIP3   OH229197   1.067   5.936   2.145  0.8338  0.5509  0.0317
 2569TIP3    H129198   1.031   6.024   2.159 -1.2418 -0.0617 -1.0885
 2569TIP3    H229199   1.153   5.939   2.187 -0.2056  2.3157  2.2567
 2570TIP3   OH229200   5.066   2.265  11.526  0.1609  0.1957 -0.0669
 2570TIP3    H129201   5.119   2.186  11.519 -0.5895 -0.3971  0.7380
 2570TIP3    H229202   5.089   2.303  11.610 -1.2028 -0.4932  0.6650
 2571TIP3   OH229203   2.508   1.544   3.608  0.0806  0.9297 -0.1088
 2571TIP3    H129204   2.475   1.580   3.526 -0.9704  1.4476  0.5161
 2571TIP3    H229205   2.566   1.612   3.642  0.6762  0.6292 -0.5103
 2572TIP3   OH229206   3.338   5.876  13.573  0.3953  0.3712 -0.9646
 2572TIP3    H129207   3.355   5.936  13.501  0.6788  2.5451  0.8047
 2572TIP3    H229208   3.411   5.889  13.633 -1.3558  0.9462  1.1477
 2573TIP3   OH229209   2.958   6.697  11.645 -0.4847  0.1129 -0.2634
 2573TIP3    H129210   3.042   6.657  11.665  0.0589  1.4031  0.1250
 2573TIP3    H229211   2.896   6.623  11.643  0.9560 -1.1582 -2.6523
 2574TIP3   OH229212   6.588   4.948  16.910  0.7896  0.4624 -0.4370
 2574TIP3    H129213   6.626   5.034  16.928 -0.9579  0.8098  2.2240
 2574TIP3    H229214   6.643   4.887  16.959  0.4593  0.4291 -0.1019
 2575TIP3   OH229215   5.237   3.114   4.711  0.6073 -0.0173  0.2835
 2575TIP3    H129216   5.187   3.195   4.723  0.8968  0.0137  1.3950
 2575TIP3    H229217   5.263   3.088   4.800 -0.6050 -2.0454  0.1269
 2576TIP3   OH229218   1.636   5.155  13.105  0.0502  0.5507 -0.0167
 2576TIP3    H129219   1.669   5.075  13.147  1.2820  1.0197 -0.0353
 2576TIP3    H229220   1.713   5.212  13.099 -0.6317  1.4264 -0.7390
 2577TIP3   OH229221   5.480   0.123   5.204  0.0063  0.0087  0.2317
 2577TIP3    H129222   5.506   0.140   5.295 -1.8383 -0.4838  0.8822
 2577TIP3    H229223   5.530   0.187   5.153 -2.5966  3.9017  2.0375
 2578TIP3   OH229224   4.492   0.132   6.697 -0.0207 -0.2163 -0.1614
 2578TIP3    H129225   4.554   0.183   6.749 -0.8128 -0.4693  1.0676
 2578TIP3    H229226   4.406   0.169   6.719 -0.3855 -0.3126 -1.3230
 2579TIP3   OH229227   4.153   0.528   2.380  0.3717 -1.2362 -0.2691
 2579TIP3    H129228   4.185   0.613   2.353 -0.6574 -1.4074 -2.2049
 2579TIP3    H229229   4.191   0.514   2.467  1.1002  0.8705 -0.1986
 2580TIP3   OH229230   2.925   2.772   1.089  0.2160 -0.2959  0.4663
 2580TIP3    H129231   2.845   2.755   1.138 -1.8096  0.3769 -2.3697
 2580TIP3    H229232   2.932   2.698   1.029  0.4562  0.7122 -0.7979
 2581TIP3   OH229233   6.361   3.482  17.059 -0.0049  0.6530  0.7494
 2581TIP3    H129234   6.324   3.540  16.992  0.2962 -0.3256 -0.2946
 2581TIP3    H229235   6.454   3.475  17.035 -0.2709 -1.1597  0.1629
 2582TIP3   OH229236   1.704   0.072  11.779  0.2649  0.2287  0.3587
 2582TIP3    H129237   1.762   0.065  11.703 -0.7248 -2.6800 -0.2831
 2582TIP3    H229238   1.754   0.031  11.850 -0.2020 -0.4962  0.2853
 2583TIP3   OH229239   2.514   2.125   0.128  0.0584  0.2939  0.1748
 2583TIP3    H129240   2.494   2.203   0.178  0.1478  1.3844 -1.4150
 2583TIP3    H229241   2.589   2.086   0.172 -0.0086  1.0801  0.9988
 2584TIP3   OH229242   2.811   4.147  13.371  0.4049 -0.8126 -0.4907
 2584TIP3    H129243   2.889   4.201  13.384 -0.4128  0.0565  1.1850
 2584TIP3    H229244   2.814   4.084  13.444 -1.3615  0.4170  0.7127
 2585TIP3   OH229245   2.008   1.117  16.784 -0.5688  0.6904  0.5536
 2585TIP3    H129246   2.063   1.194  16.768 -0.1228  0.3732  0.5326
 2585TIP3    H229247   2.058   1.044  16.746 -1.7461  0.6075 -0.9192
 2586TIP3   OH229248   5.204   5.847  16.338  0.8357  0.0181  0.3277
 2586TIP3    H129249   5.115   5.854  16.372  0.7222  0.9248 -0.1452
 2586TIP3    H229250   5.218   5.927  16.288  1.1173 -1.1070 -1.4927
 2587TIP3   OH229251   0.994   2.473   5.039 -0.1827  0.3528 -0.2095
 2587TIP3    H129252   1.038   2.430   4.965 -0.8140 -0.0648 -0.3403
 2587TIP3    H229253   1.041   2.556   5.049 -0.3082  0.5688 -1.3028
 2588TIP3   OH229254   2.900   0.853   0.296 -0.3185  0.0818  0.7406
 2588TIP3    H129255   2.822   0.860   0.351 -0.1597 -2.2010  1.3715
 2588TIP3    H229256   2.876   0.792   0.226  0.3845  0.6526 -0.0166
 2589TIP3   OH229257   2.616   0.051   1.406 -0.5057  0.3464 -0.5933
 2589TIP3    H129258   2.541   0.108   1.389 -1.3761 -0.8624 -0.9362
 2589TIP3    H229259   2.692   0.109   1.401 -1.4745  1.7908  0.7678
 2590TIP3   OH229260   1.222   5.156  12.895  0.0249 -0.0213  0.7726
 2590TIP3    H129261   1.254   5.074  12.857  0.7672  0.1639  0.9841
 2590TIP3    H229262   1.139   5.172  12.851  1.9399  1.4609 -2.6463
 2591TIP3   OH229263   4.077   0.430   4.661  0.3672  0.3205 -0.8414
 2591TIP3    H129264   4.075   0.436   4.757  0.0213 -2.7796 -0.5487
 2591TIP3    H229265   3.985   0.425   4.635  0.4566  1.2601 -1.3646
 2592TIP3   OH229266   4.982   4.158   2.558  0.4243  0.0395 -0.4566
 2592TIP3    H129267   5.042   4.183   2.488  0.8158  1.1604  0.2500
 2592TIP3    H229268   4.897   4.193   2.532  0.3860 -0.2623 -0.7498
 2593TIP3   OH229269   5.697   0.331   1.914  0.5250 -0.6442 -0.0209
 2593TIP3    H129270   5.690   0.411   1.966 -1.1199 -1.0234  0.3875
 2593TIP3    H229271   5.792   0.316   1.907  0.8419  0.7038  0.8473
 2594TIP3   OH229272   6.237   1.039  16.399  0.4987  0.5115 -0.0593
 2594TIP3    H129273   6.173   0.999  16.341  0.7150 -1.1158  0.7511
 2594TIP3    H229274   6.282   1.103  16.345 -1.7691  1.7110 -0.6553
 2595TIP3   OH229275   6.397   0.748   0.593 -0.5415  0.3352  0.2184
 2595TIP3    H129276   6.406   0.701   0.676 -0.0477  0.0835  0.0234
 2595TIP3    H229277   6.443   0.831   0.607  0.7068 -0.2576 -0.2296
 2596TIP3   OH229278   0.860   0.644  15.821  0.0530  0.1042  0.0487
 2596TIP3    H129279   0.905   0.656  15.737  0.1261 -0.5371 -0.0094
 2596TIP3    H229280   0.818   0.559  15.814 -1.7325  0.9707 -0.1443
 2597TIP3   OH229281   1.041   0.846   2.056 -0.0927 -0.3996  0.2270
 2597TIP3    H129282   1.133   0.872   2.063  0.5364 -2.2822 -0.4150
 2597TIP3    H229283   0.993   0.928   2.051  1.6129  0.6252 -0.0961
 2598TIP3   OH229284   6.222   2.708  14.765  0.5368 -0.3380 -0.3592
 2598TIP3    H129285   6.290   2.700  14.698  3.5154  0.5385  2.3407
 2598TIP3    H229286   6.238   2.634  14.824 -2.0279 -1.1046 -0.4917
 2599TIP3   OH229287   4.046   6.698   2.637 -0.0037  0.0474 -0.4434
 2599TIP3    H129288   4.123   6.650   2.606 -0.6611 -0.4466 -1.3467
 2599TIP3    H229289   4.043   6.775   2.581  0.0341  0.2512 -0.1657
 2600TIP3   OH229290   5.492   0.532  13.006  0.3176  0.6358  0.7537
 2600TIP3    H129291   5.488   0.555  12.914 -0.6610  1.1412  0.9138
 2600TIP3    H229292   5.546   0.600  13.046  3.0238 -1.0005  0.1649
 2601TIP3   OH229293   0.162   3.317   4.490  0.0423 -0.5250 -0.2625
 2601TIP3    H129294   0.119   3.310   4.405 -2.8747  0.9411  0.9613
 2601TIP3    H229295   0.205   3.403   4.489  0.6033 -0.8007 -0.4678
 2602TIP3   OH229296   6.694   1.638   2.600  0.0811 -0.0632 -0.2669
 2602TIP3    H129297   6.702   1.703   2.670 -1.0164 -0.7133  0.4831
 2602TIP3    H229298   6.783   1.630   2.566  0.4626  0.9371  0.4372
 2603TIP3   OH229299   3.172   0.202   1.394 -0.0734  0.1238  0.2744
 2603TIP3    H129300   3.174   0.140   1.320  0.5056  1.8952 -1.2656
 2603TIP3    H229301   3.264   0.227   1.406 -0.1711 -0.0745  1.5740
 2604TIP3   OH229302   3.999   1.738  13.202 -0.9503  0.2173  0.0567
 2604TIP3    H129303   4.016   1.787  13.282 -1.5357  3.1570 -1.4621
 2604TIP3    H229304   4.084   1.736  13.157 -0.7395 -0.9733  0.4716
 2605TIP3   OH229305   5.782   4.598  15.422  0.1535 -0.9146 -0.2090
 2605TIP3    H129306   5.859   4.598  15.366  0.5400 -1.7402  0.3111
 2605TIP3    H229307   5.715   4.553  15.370 -0.1292  0.1990 -0.8398
 2606TIP3   OH229308   3.272   6.464  14.265 -0.4331  0.8866 -0.6172
 2606TIP3    H129309   3.196   6.469  14.323 -0.5606  1.8015 -0.8499
 2606TIP3    H229310   3.239   6.421  14.186 -0.0820 -1.0837  0.2283
 2607TIP3   OH229311   0.360   5.712  16.964  0.4096  0.4029  0.8377
 2607TIP3    H129312   0.368   5.796  16.918  0.1288 -0.1589 -0.2661
 2607TIP3    H229313   0.333   5.736  17.053 -1.1152  1.4219  0.1396
 2608TIP3   OH229314   0.005   0.496  14.522  1.2418 -0.5083  0.0953
 2608TIP3    H129315   0.013   0.592  14.517  1.1682 -0.4458  1.0400
 2608TIP3    H229316   0.061   0.464  14.451  0.8368  0.2480 -0.5868
 2609TIP3   OH229317   4.700   6.392  13.922 -0.1190  0.7728  0.2882
 2609TIP3    H129318   4.679   6.423  13.833  0.0134 -2.6254 -1.0900
 2609TIP3    H229319   4.715   6.472  13.972 -2.2121  2.9396 -2.2124
 2610TIP3   OH229320   6.147   2.929  12.754 -0.4430  0.6837 -0.1984
 2610TIP3    H129321   6.086   2.862  12.784  0.2544  0.5902  1.0908
 2610TIP3    H229322   6.093   2.990  12.704 -1.2478 -0.3440 -0.6049
 2611TIP3   OH229323   1.647   2.862  14.418 -0.0191  0.1997 -0.3494
 2611TIP3    H129324   1.735   2.834  14.392 -0.3922  0.1790 -1.6243
 2611TIP3    H229325   1.657   2.888  14.510  1.5095  0.9693 -0.6972
 2612TIP3   OH229326   1.438   4.310   4.695  0.1025 -0.0380 -0.0876
 2612TIP3    H129327   1.360   4.342   4.651  2.4479  1.3699 -3.7461
 2612TIP3    H229328   1.464   4.383   4.752  0.4000  0.8966 -1.3498
 2613TIP3   OH229329   1.687   6.564   5.328  0.2027 -0.4795 -0.5068
 2613TIP3    H129330   1.680   6.542   5.235  0.8675 -2.6546 -0.1075
 2613TIP3    H229331   1.626   6.504   5.372 -0.9392  1.2571  0.4217
 2614TIP3   OH229332   1.226   1.352  15.386 -0.2697  0.3302  0.5354
 2614TIP3    H129333   1.261   1.330  15.472 -0.5296  0.7477  0.7536
 2614TIP3    H229334   1.286   1.312  15.324  1.0963  1.7319  0.8773
 2615TIP3   OH229335   5.655   4.371  12.567  0.1412 -0.3401  0.0061
 2615TIP3    H129336   5.621   4.439  12.509  2.2352  1.7403  1.0139
 2615TIP3    H229337   5.712   4.318  12.511  1.8922  1.4485 -0.0248
 2616TIP3   OH229338   3.240   3.232  14.588  0.3695 -0.1099 -0.6490
 2616TIP3    H129339   3.193   3.310  14.618  0.4798  0.9612 -3.0540
 2616TIP3    H229340   3.331   3.250  14.610  0.1096 -0.8701  1.3093
 2617TIP3   OH229341   5.576   1.913  11.438  0.8204  0.4991  0.0884
 2617TIP3    H129342   5.629   1.838  11.412  1.9371  1.6807 -1.2117
 2617TIP3    H229343   5.636   1.970  11.486 -0.2215  0.2335  1.8020
 2618TIP3   OH229344   3.400   2.763   3.407 -0.1513  0.2175 -0.2400
 2618TIP3    H129345   3.387   2.831   3.473 -0.2282  0.3159 -0.3560
 2618TIP3    H229346   3.312   2.729   3.389 -0.1285  0.1768 -0.2768
 2619TIP3   OH229347   3.266   1.956  17.310 -0.2361 -0.6244 -0.0463
 2619TIP3    H129348   3.280   1.917  17.224 -0.9399  0.8672 -0.8774
 2619TIP3    H229349   3.181   2.000  17.303 -1.1207 -1.8542  1.9522
 2620TIP3   OH229350   0.992   1.513   5.531 -0.4181 -0.0252 -0.1732
 2620TIP3    H129351   1.023   1.483   5.617  1.9109  2.0771 -0.1736
 2620TIP3    H229352   1.019   1.444   5.471  0.5720 -0.1643  0.4133
 2621TIP3   OH229353   2.562   4.188   0.530  0.0248  0.4302 -0.0005
 2621TIP3    H129354   2.548   4.113   0.589  2.3262  0.5208  0.7274
 2621TIP3    H229355   2.478   4.198   0.485 -1.2329 -0.8063  1.9190
 2622TIP3   OH229356   4.286   5.169  13.761 -0.4758 -0.0721  0.3769
 2622TIP3    H129357   4.338   5.244  13.735 -0.1241 -0.7929 -1.1194
 2622TIP3    H229358   4.202   5.206  13.789 -1.1385  0.8023 -2.4608
 2623TIP3   OH229359   2.247   0.659   5.047 -0.1971 -0.0362  0.4151
 2623TIP3    H129360   2.154   0.681   5.039 -0.3469 -0.6280  0.5087
 2623TIP3    H229361   2.253   0.569   5.014  0.7163  0.7532 -1.7510
 2624TIP3   OH229362   6.601   2.524   3.526 -0.5201  0.3183  0.1400
 2624TIP3    H129363   6.530   2.473   3.564 -0.0260  0.8003  1.7524
 2624TIP3    H229364   6.558   2.595   3.479 -1.1105  0.5452  1.0106
 2625TIP3   OH229365   3.250   2.171   3.406 -0.4475 -0.1209 -0.3458
 2625TIP3    H129366   3.337   2.132   3.414 -0.8089 -1.0317 -0.6084
 2625TIP3    H229367   3.256   2.254   3.452 -0.1415 -1.3081  1.9166
 2626TIP3   OH229368   3.279   2.377  16.796 -0.1958 -0.3096  0.1709
 2626TIP3    H129369   3.190   2.352  16.772 -0.2282  0.2909 -0.3838
 2626TIP3    H229370   3.326   2.294  16.807 -1.1657 -0.6702  1.8676
 2627TIP3   OH229371   4.412   2.232  13.930 -0.2368 -0.5050  0.2967
 2627TIP3    H129372   4.456   2.313  13.958  1.2260  0.2035 -3.4493
 2627TIP3    H229373   4.392   2.186  14.012  1.9604  2.0351  2.4676
 2628TIP3   OH229374   3.742   5.037   1.730 -0.1484  1.3290  0.1939
 2628TIP3    H129375   3.769   5.042   1.638  0.3077  1.1359  0.3120
 2628TIP3    H229376   3.687   4.958   1.734  1.3751  0.2180  0.4423
 2629TIP3   OH229377   5.496   6.110  12.703 -0.3989  0.2634  0.0761
 2629TIP3    H129378   5.573   6.134  12.650 -0.6893  0.8054 -0.1137
 2629TIP3    H229379   5.532   6.084  12.787  0.0402 -0.1478 -0.2322
 2630TIP3   OH229380   3.543   1.047  17.199  0.2060 -0.2672 -0.4991
 2630TIP3    H129381   3.459   1.089  17.218 -0.0092  0.1576 -2.2083
 2630TIP3    H229382   3.526   0.994  17.121  1.4277 -0.4843 -0.6322
 2631TIP3   OH229383   5.296   3.461  13.426  0.1293  0.0595  0.0828
 2631TIP3    H129384   5.302   3.489  13.517  1.0220  0.7821 -0.1837
 2631TIP3    H229385   5.205   3.477  13.402 -0.1738 -0.3561  0.9098
 2632TIP3   OH229386   0.212   2.622  16.938 -0.2343  0.0876  0.0586
 2632TIP3    H129387   0.168   2.707  16.936 -1.1745 -0.3994 -2.0965
 2632TIP3    H229388   0.306   2.643  16.935 -0.4664  1.0472 -0.7479
 2633TIP3   OH229389   6.462   4.690   0.492  0.2049 -0.0435 -0.7133
 2633TIP3    H129390   6.422   4.677   0.406 -0.5260  0.4624 -0.4585
 2633TIP3    H229391   6.484   4.783   0.495 -1.1984  0.2912  0.2234
 2634TIP3   OH229392   3.815   4.921  11.040 -0.3086  0.2955  0.1372
 2634TIP3    H129393   3.866   4.847  11.072  1.2197  1.9070  1.5896
 2634TIP3    H229394   3.778   4.891  10.956  0.8326 -1.8273  0.3483
 2635TIP3   OH229395   5.578   1.069   0.898 -0.1043  0.6597  0.1274
 2635TIP3    H129396   5.526   0.990   0.882  2.0001 -0.5615 -1.2966
 2635TIP3    H229397   5.657   1.056   0.845  1.1404  2.9067  1.2844
 2636TIP3   OH229398   2.892   3.099   4.576 -0.3508  0.2842 -0.2650
 2636TIP3    H129399   2.909   3.190   4.601  0.2055  0.2305 -0.4399
 2636TIP3    H229400   2.811   3.076   4.622 -1.0501  1.1784 -1.0203
 2637TIP3   OH229401   6.603   4.628   1.840  0.0391  0.0262  0.4453
 2637TIP3    H129402   6.581   4.717   1.867 -1.2914 -0.1190 -0.1205
 2637TIP3    H229403   6.678   4.605   1.895 -0.6707  0.8621  1.8207
 2638TIP3   OH229404   4.699   1.293  15.046 -0.5330  0.4243 -0.3160
 2638TIP3    H129405   4.730   1.334  14.965  0.8522 -1.0759 -0.5944
 2638TIP3    H229406   4.648   1.362  15.090  0.4531  1.9406 -1.4493
 2639TIP3   OH229407   6.456   4.152   0.252 -0.2787 -0.6006 -0.7458
 2639TIP3    H129408   6.483   4.100   0.177 -0.6215 -0.2343 -1.1311
 2639TIP3    H229409   6.487   4.240   0.233 -1.0641 -0.3342 -0.8436
 2640TIP3   OH229410   6.055   0.045   1.485 -0.0213  0.0825 -0.6810
 2640TIP3    H129411   6.148   0.059   1.502 -0.3436  0.6172  0.7979
 2640TIP3    H229412   6.011   0.118   1.529 -1.2154 -0.8075 -0.3390
 2641TIP3   OH229413   0.703   3.287   3.717 -0.2426  0.8204 -0.2627
 2641TIP3    H129414   0.706   3.320   3.627 -2.7832  1.7272 -0.0771
 2641TIP3    H229415   0.789   3.246   3.729  0.0616  0.3430 -3.2007
 2642TIP3   OH229416   6.761   0.313   3.992 -0.2854  0.0224  0.3602
 2642TIP3    H129417   6.822   0.386   3.998 -0.5626  0.2364  0.6385
 2642TIP3    H229418   6.712   0.316   4.075  0.6135 -1.2972  0.9801
 2643TIP3   OH229419   1.914   3.697  12.802 -0.3963 -0.6453  0.2983
 2643TIP3    H129420   1.850   3.630  12.777 -1.0553  0.7536 -1.9820
 2643TIP3    H229421   1.989   3.681  12.745 -1.1332  1.3743 -1.3552
 2644TIP3   OH229422   2.782   3.418  13.148 -0.9165  0.1991  0.3867
 2644TIP3    H129423   2.837   3.431  13.070 -1.4605 -0.5591 -0.1366
 2644TIP3    H229424   2.708   3.366  13.116 -1.7367  0.8702  1.1666
 2645TIP3   OH229425   4.781   2.911  14.514 -0.5210 -0.4294  0.1912
 2645TIP3    H129426   4.874   2.926  14.534 -0.6524  0.5337  0.1435
 2645TIP3    H229427   4.780   2.890  14.420 -0.2546 -1.5256  0.4191
 2646TIP3   OH229428   1.759   0.333  15.505 -0.3080 -0.4919  0.1647
 2646TIP3    H129429   1.842   0.286  15.512 -0.3111 -0.4098  0.7430
 2646TIP3    H229430   1.702   0.272  15.458 -0.4381 -1.2558  1.2738
 2647TIP3   OH229431   6.108   0.921   5.230  0.3235 -0.2545 -0.6917
 2647TIP3    H129432   6.088   0.829   5.246  0.1742  0.0012  0.6789
 2647TIP3    H229433   6.027   0.967   5.249  0.2194  0.1284 -1.9466
 2648TIP3   OH229434   0.217   2.283   4.216  0.2853 -0.3871  0.9077
 2648TIP3    H129435   0.308   2.257   4.230  0.5437  0.1610  0.3267
 2648TIP3    H229436   0.175   2.272   4.301  1.9281  3.5163  2.4531
 2649TIP3   OH229437   2.747   4.693   2.771 -0.3603  0.0103 -0.4871
 2649TIP3    H129438   2.665   4.696   2.820  1.2493 -1.5445  2.5852
 2649TIP3    H229439   2.759   4.601   2.749  1.0771  0.0009  0.1748
 2650TIP3   OH229440   4.284   5.368  11.396 -0.1284 -0.5028 -0.5625
 2650TIP3    H129441   4.361   5.376  11.340 -0.4495  2.2492 -0.7215
 2650TIP3    H229442   4.313   5.398  11.482 -0.8611  0.0174 -0.4828
 2651TIP3   OH229443   6.385   3.762   3.932  0.3597 -0.5163 -0.2787
 2651TIP3    H129444   6.372   3.743   3.839  0.5784  0.9632 -0.6318
 2651TIP3    H229445   6.296   3.776   3.965  0.2961 -0.8603 -0.2927
 2652TIP3   OH229446   5.867   6.687  16.415 -0.2366 -0.1672 -0.2827
 2652TIP3    H129447   5.862   6.775  16.378 -0.4760 -0.2537 -0.4611
 2652TIP3    H229448   5.776   6.664  16.434 -0.1865 -0.4229 -0.3476
 2653TIP3   OH229449   5.355   1.364   4.706 -0.1943  0.1936 -0.4209
 2653TIP3    H129450   5.342   1.307   4.630  0.9210 -0.9406  0.1846
 2653TIP3    H229451   5.273   1.360   4.754 -0.7843  0.6335 -1.3704
 2654TIP3   OH229452   0.364   0.695  10.743 -0.0687  0.5358 -0.1008
 2654TIP3    H129453   0.282   0.690  10.694  0.2362 -2.1427 -0.4964
 2654TIP3    H229454   0.431   0.711  10.675 -0.0630  1.0139  0.0105
 2655TIP3   OH229455   2.829   3.815  10.656 -0.2065  0.3408  0.1836
 2655TIP3    H129456   2.827   3.899  10.703  0.1087 -0.3959  1.5431
 2655TIP3    H229457   2.793   3.752  10.718  1.2183 -0.8564 -0.1735
 2656TIP3   OH229458   6.426   0.652   6.108  0.1073 -0.3282  0.1463
 2656TIP3    H129459   6.506   0.700   6.091  0.7594 -0.8177  1.6843
 2656TIP3    H229460   6.418   0.592   6.034 -1.2052  2.6010 -2.3018
 2657TIP3   OH229461   1.645   4.738   2.435  0.6219  0.1099  0.3502
 2657TIP3    H129462   1.637   4.825   2.474 -1.1337 -0.1657  0.7207
 2657TIP3    H229463   1.576   4.735   2.369  1.3244 -0.6508 -0.3676
 2658TIP3   OH229464   6.631   5.557  13.007 -0.0677 -0.4337 -0.2054
 2658TIP3    H129465   6.641   5.616  12.932 -1.2008  0.9820  0.6844
 2658TIP3    H229466   6.714   5.562  13.053 -0.0358  0.2142 -0.3261
 2659TIP3   OH229467   4.130   5.424   6.786 -0.0740 -0.1314 -0.1202
 2659TIP3    H129468   4.219   5.429   6.820  0.1571  0.3448 -0.7731
 2659TIP3    H229469   4.104   5.332   6.799  0.6094 -0.3377 -0.1742
 2660TIP3   OH229470   2.537   0.470  15.982 -0.5673 -0.2369 -0.2945
 2660TIP3    H129471   2.562   0.561  15.994  0.3932 -0.3659 -1.2176
 2660TIP3    H229472   2.443   0.473  15.964 -0.6696  0.5052  0.3125
 2661TIP3   OH229473   1.667   0.098   3.013  0.1814 -0.5200 -0.1316
 2661TIP3    H129474   1.616   0.021   3.037  0.9542 -0.5394  1.6785
 2661TIP3    H229475   1.757   0.067   3.008  0.3470  0.0214 -0.6632
 2662TIP3   OH229476   0.014   4.774  12.031 -0.6393  0.1291  0.4140
 2662TIP3    H129477   0.086   4.833  12.057  1.8079 -2.4454  0.0571
 2662TIP3    H229478  -0.013   4.733  12.114 -0.7252  0.1274  0.3837
 2663TIP3   OH229479   6.041   6.566  12.840 -0.3923 -0.1894 -0.6860
 2663TIP3    H129480   6.059   6.621  12.915  0.7355 -0.5607 -0.6635
 2663TIP3    H229481   6.120   6.513  12.830 -1.2357 -1.4196 -1.0273
 2664TIP3   OH229482   6.356   2.622   6.693 -0.2956 -0.2043  0.6037
 2664TIP3    H129483   6.324   2.539   6.728 -0.2540  0.0924  1.3633
 2664TIP3    H229484   6.282   2.656   6.643 -0.8067 -0.0397  1.4532
 2665TIP3   OH229485   2.305   3.262   1.272  0.1032 -0.3142 -0.3413
 2665TIP3    H129486   2.261   3.337   1.231  0.5928  0.6636  0.8370
 2665TIP3    H229487   2.242   3.229   1.336 -0.7355 -1.9562 -1.9210
 2666TIP3   OH229488   3.054   3.193  13.209 -0.3088 -0.0316  0.0355
 2666TIP3    H129489   3.066   3.100  13.188 -0.8318 -0.1713  0.3532
 2666TIP3    H229490   2.989   3.224  13.147  0.3609  0.2982 -0.5201
 2667TIP3   OH229491   1.212   0.207  11.950 -0.0123 -0.2525 -0.1683
 2667TIP3    H129492   1.281   0.146  11.975  0.3177 -0.1001 -0.7006
 2667TIP3    H229493   1.245   0.251  11.872 -1.7910 -2.1001 -2.1169
 2668TIP3   OH229494   0.775   4.791   4.049 -0.1231  0.1618  0.2692
 2668TIP3    H129495   0.722   4.764   4.123  0.3856 -0.1937  0.5112
 2668TIP3    H229496   0.739   4.876   4.022 -0.1893  0.3806  1.0410
 2669TIP3   OH229497   5.357   3.670  14.995  0.1761 -0.2124 -0.1847
 2669TIP3    H129498   5.394   3.728  15.062  0.4490 -2.9752  2.2575
 2669TIP3    H229499   5.428   3.609  14.974  0.3680  0.9850 -3.7357
 2670TIP3   OH229500   1.728   2.681  12.583  0.3057  0.1526  0.0682
 2670TIP3    H129501   1.725   2.585  12.575  0.2329  0.1938 -0.4573
 2670TIP3    H229502   1.819   2.703  12.566  0.1404  0.2453 -0.7737
 2671TIP3   OH229503   3.227   3.217   2.501  0.2530 -0.9709  0.1183
 2671TIP3    H129504   3.146   3.264   2.480  1.2812 -0.1973 -2.5658
 2671TIP3    H229505   3.199   3.130   2.528 -1.4603 -1.1586 -2.0388
 2672TIP3   OH229506   3.736   3.936   0.960 -0.5551  0.3393 -0.4376
 2672TIP3    H129507   3.741   3.942   1.055  1.0425  2.7349 -0.5800
 2672TIP3    H229508   3.710   4.024   0.932  0.4565  0.1194 -2.2493
 2673TIP3   OH229509   6.346   1.218   5.720 -0.7453  0.1426  0.2927
 2673TIP3    H129510   6.397   1.231   5.639  0.9532  0.4812  1.3650
 2673TIP3    H229511   6.402   1.254   5.789 -2.0046 -0.4670  1.6711
 2674TIP3   OH229512   5.522   5.892  17.019  0.0868 -0.8089 -0.0636
 2674TIP3    H129513   5.534   5.879  16.925  0.4135  0.6670 -0.2494
 2674TIP3    H229514   5.427   5.898  17.030  0.0837  0.1912 -0.4955
 2675TIP3   OH229515   0.617   3.716  16.366 -0.2170  0.3950  0.6211
 2675TIP3    H129516   0.559   3.717  16.442  0.6210 -1.4480  1.3391
 2675TIP3    H229517   0.558   3.710  16.291 -0.9960  0.1858  1.2376
 2676TIP3   OH229518   0.379   2.275  16.705  0.4703 -0.5974  0.0722
 2676TIP3    H129519   0.353   2.184  16.714 -1.0862 -0.4977 -2.3720
 2676TIP3    H229520   0.303   2.318  16.665  2.2238  1.0794 -1.6832
 2677TIP3   OH229521   4.632   5.973  11.289  0.4210  0.3861  0.7072
 2677TIP3    H129522   4.603   5.954  11.200 -1.5110 -0.0812  1.3830
 2677TIP3    H229523   4.726   5.992  11.281  1.0839 -2.9403 -0.9538
 2678TIP3   OH229524   4.135   1.872   3.031 -0.1049 -0.4439 -0.0857
 2678TIP3    H129525   4.133   1.839   3.121  1.8013 -2.1528 -0.5821
 2678TIP3    H229526   4.069   1.820   2.985 -0.9244  0.2761  0.2584
 2679TIP3   OH229527   1.503   4.358  17.058 -0.2004  0.0209  0.1889
 2679TIP3    H129528   1.591   4.329  17.032 -0.9783 -0.7148 -1.8814
 2679TIP3    H229529   1.476   4.418  16.988 -2.2629 -1.7202 -0.6468
 2680TIP3   OH229530   0.294   5.105  13.925 -0.8397 -0.3521  0.4596
 2680TIP3    H129531   0.340   5.132  13.845 -2.8519 -1.1588 -1.0914
 2680TIP3    H229532   0.361   5.105  13.993  1.8319 -2.7909 -1.8511
 2681TIP3   OH229533   4.589   6.253  14.680  0.2860 -0.3180  0.2118
 2681TIP3    H129534   4.520   6.211  14.731  0.6394 -1.3280 -0.1063
 2681TIP3    H229535   4.565   6.235  14.589  0.2877  0.4356  0.0617
 2682TIP3   OH229536   2.278   4.403   3.317  0.1994  0.0180  0.0971
 2682TIP3    H129537   2.200   4.420   3.264  0.7966 -0.2838 -0.8882
 2682TIP3    H229538   2.281   4.307   3.324 -0.7224  0.0704  1.9883
 2683TIP3   OH229539   3.625   5.683   0.773 -0.1324 -0.2365  0.6635
 2683TIP3    H129540   3.601   5.687   0.680 -1.5786  0.5407  1.0546
 2683TIP3    H229541   3.685   5.608   0.778 -1.6421 -1.5885 -0.5395
 2684TIP3   OH229542   0.447   3.519  11.528  0.2031 -0.0721 -0.4951
 2684TIP3    H129543   0.505   3.466  11.583  1.2543 -0.3004 -1.7766
 2684TIP3    H229544   0.493   3.526  11.444  0.1047  2.8574 -0.3970
 2685TIP3   OH229545   3.258   4.269   4.086  0.2922 -0.2007 -0.2910
 2685TIP3    H129546   3.178   4.300   4.043 -0.1114  2.1877  1.9220
 2685TIP3    H229547   3.329   4.308   4.036  0.1340 -2.0123 -2.0315
 2686TIP3   OH229548   2.251   1.913   6.576 -0.4247 -0.0387 -0.1797
 2686TIP3    H129549   2.222   1.883   6.490  0.2954  2.3272 -1.3380
 2686TIP3    H229550   2.285   1.835   6.619 -0.9475 -1.3073 -1.9695
 2687TIP3   OH229551   5.193   0.509  12.341  0.8395  0.0049  0.3611
 2687TIP3    H129552   5.180   0.563  12.263 -0.7074 -0.1479  0.4941
 2687TIP3    H229553   5.280   0.469  12.328  0.0525 -1.1372 -1.9793
 2688TIP3   OH229554   6.385   2.470  14.168 -0.5148  0.1790 -0.1210
 2688TIP3    H129555   6.397   2.424  14.251  0.3679  1.4855  0.5119
 2688TIP3    H229556   6.468   2.515  14.153 -0.9833  0.7114 -1.2409
 2689TIP3   OH229557   0.678   4.735   6.002 -0.2978 -0.8467  0.0204
 2689TIP3    H129558   0.753   4.686   6.038  1.1661  2.0594  1.2693
 2689TIP3    H229559   0.613   4.733   6.073 -1.0948 -2.5579 -0.6995
 2690TIP3   OH229560   0.302   1.359  16.615 -0.7697  0.3640  0.4033
 2690TIP3    H129561   0.274   1.405  16.536 -1.0244 -0.1179  0.2046
 2690TIP3    H229562   0.310   1.427  16.681 -2.0643  0.5715  0.3702
 2691TIP3   OH229563   0.316   4.026   5.644  0.6388 -0.6247  0.6392
 2691TIP3    H129564   0.266   4.005   5.723 -0.2981 -0.3664  0.1280
 2691TIP3    H229565   0.403   3.989   5.660  0.3743 -0.8335  1.6657
 2692TIP3   OH229566   0.733   0.269   6.058  0.1108 -0.4233 -0.3785
 2692TIP3    H129567   0.664   0.331   6.084  1.7056  1.4773 -0.4624
 2692TIP3    H229568   0.751   0.219   6.137  0.6871  1.1379  0.5240
 2693TIP3   OH229569   0.356   3.567  14.830 -0.4314 -0.0725 -0.0234
 2693TIP3    H129570   0.355   3.486  14.778  1.1365  0.5709 -1.1393
 2693TIP3    H229571   0.400   3.630  14.774 -1.0389  1.3995  1.0970
 2694TIP3   OH229572   0.296   0.876   1.578 -0.2445 -0.1140  0.4849
 2694TIP3    H129573   0.304   0.969   1.601 -0.2045 -0.2445  1.0217
 2694TIP3    H229574   0.322   0.871   1.486 -2.0623  0.6950 -0.1223
 2695TIP3   OH229575   4.938   0.204  13.777 -0.0366  0.4922  0.4215
 2695TIP3    H129576   4.957   0.297  13.764  0.3273  0.6405  1.7923
 2695TIP3    H229577   5.003   0.158  13.724 -0.4372  1.0077 -0.5357
 2696TIP3   OH229578   0.117   1.133  16.246 -0.1808 -0.0125 -0.2992
 2696TIP3    H129579   0.067   1.066  16.200  0.7298 -1.8198  1.2251
 2696TIP3    H229580   0.128   1.099  16.335 -0.1332  2.4146  0.7075
 2697TIP3   OH229581   1.336   4.563   1.752 -0.1709  0.8720  0.2618
 2697TIP3    H129582   1.340   4.643   1.699  0.5489  0.7592  0.1387
 2697TIP3    H229583   1.384   4.585   1.832 -2.0430  1.3483  1.3026
 2698TIP3   OH229584   5.272   4.901   3.995 -0.2851 -0.0088  0.3307
 2698TIP3    H129585   5.343   4.898   3.930 -0.3519 -0.1029  0.2620
 2698TIP3    H229586   5.316   4.927   4.076 -0.0988 -0.4797  0.3873
 2699TIP3   OH229587   6.182   0.405   3.620  0.0961 -0.7435  0.0103
 2699TIP3    H129588   6.254   0.361   3.575  2.1201  0.0536  2.2961
 2699TIP3    H229589   6.130   0.444   3.550  3.4006  0.9456 -1.7135
 2700TIP3   OH229590   4.125   2.591  16.141  0.0313 -0.1964 -0.6087
 2700TIP3    H129591   4.111   2.498  16.160  1.4954 -0.4829 -0.7935
 2700TIP3    H229592   4.071   2.637  16.205 -1.0774 -1.1638 -0.8092
 2701TIP3   OH229593   0.489   2.455   3.240  0.4434  0.5128 -0.4234
 2701TIP3    H129594   0.584   2.451   3.244  0.4951  0.8494 -1.0513
 2701TIP3    H229595   0.469   2.549   3.243  0.3100  0.6358 -2.9833
 2702TIP3   OH229596   5.869   6.443   2.425  0.3252 -0.1484 -0.1689
 2702TIP3    H129597   5.939   6.439   2.359 -0.8237 -0.6157 -1.3960
 2702TIP3    H229598   5.794   6.402   2.383 -0.9973  1.2246  0.7642
 2703TIP3   OH229599   4.987   2.331   2.315  0.2600  0.2640 -0.1122
 2703TIP3    H129600   4.967   2.312   2.223  1.2644  0.8939 -0.4720
 2703TIP3    H229601   5.044   2.259   2.343 -1.2572 -0.7528  0.4908
 2704TIP3   OH229602   6.063   4.211  15.513  0.5121 -0.2336 -0.1907
 2704TIP3    H129603   5.968   4.214  15.497  0.3282 -3.3242 -0.2503
 2704TIP3    H229604   6.077   4.277  15.581 -1.7657 -0.0178  0.1751
 2705TIP3   OH229605   4.421   6.256  12.180 -0.4086  0.3379 -0.6342
 2705TIP3    H129606   4.467   6.224  12.257 -1.6626 -2.1969 -0.8413
 2705TIP3    H229607   4.478   6.324  12.144  0.6724  0.8801  1.9289
 2706TIP3   OH229608   4.781   6.304   0.958  0.5704 -0.9958  0.0182
 2706TIP3    H129609   4.686   6.315   0.948  0.7686 -0.0875 -0.9748
 2706TIP3    H229610   4.818   6.390   0.941  1.4226 -0.5762  3.3017
 2707TIP3   OH229611   1.704   2.695   3.174  0.4427 -0.3836  0.5023
 2707TIP3    H129612   1.644   2.632   3.213  0.5175 -1.2223 -0.6863
 2707TIP3    H229613   1.682   2.696   3.081  0.3671  1.4462  0.4937
 2708TIP3   OH229614   4.882   0.530   6.412  0.0493 -0.6106 -0.1090
 2708TIP3    H129615   4.913   0.456   6.463 -1.0365 -0.6549  0.5065
 2708TIP3    H229616   4.827   0.580   6.472 -1.8006 -1.0021 -1.3663
 2709TIP3   OH229617   0.766   5.782  16.959 -0.0032  0.2614  0.3209
 2709TIP3    H129618   0.836   5.832  17.001 -0.0146 -0.5348  1.3324
 2709TIP3    H229619   0.775   5.802  16.866  0.8814  1.0235  0.5523
 2710TIP3   OH229620   4.054   4.652   5.139  0.5705 -0.7692  0.4318
 2710TIP3    H129621   3.966   4.677   5.109 -0.2239 -3.3252  0.3603
 2710TIP3    H229622   4.059   4.685   5.229 -0.0490  0.2572  0.1117
 2711TIP3   OH229623   3.330   6.598   0.602 -0.4171 -0.0428  0.0928
 2711TIP3    H129624   3.236   6.598   0.584 -0.4811  0.4818  0.3872
 2711TIP3    H229625   3.338   6.643   0.686  0.1872  0.9698 -0.4784
 2712TIP3   OH229626   5.942   1.197   0.389  0.1352 -0.1414 -0.2634
 2712TIP3    H129627   5.887   1.129   0.429 -3.8056  2.0845 -1.2953
 2712TIP3    H229628   5.937   1.179   0.295  1.9266 -0.2969 -0.3602
 2713TIP3   OH229629   0.715   1.777   4.920  0.0900 -0.3183 -0.1715
 2713TIP3    H129630   0.745   1.784   5.011 -1.1911  0.8056  0.1923
 2713TIP3    H229631   0.666   1.695   4.918 -1.8126  0.7337  0.7837
 2714TIP3   OH229632   2.376   5.690  11.194 -0.3912 -1.1496 -0.4171
 2714TIP3    H129633   2.421   5.653  11.270  0.6077  0.3932 -0.2020
 2714TIP3    H229634   2.404   5.782  11.192 -1.5231 -0.7947 -1.8212
 2715TIP3   OH229635   2.572   5.340  15.201 -0.3198 -0.1490 -0.8436
 2715TIP3    H129636   2.562   5.247  15.225  1.0216 -0.3326 -0.9004
 2715TIP3    H229637   2.576   5.339  15.105  0.0286 -0.0837 -0.8323
 2716TIP3   OH229638   2.554   3.795   1.528  0.2949  0.4934 -0.1936
 2716TIP3    H129639   2.636   3.837   1.553 -0.1391  1.6421 -0.6483
 2716TIP3    H229640   2.528   3.746   1.606  0.3585  1.8117  0.6899
 2717TIP3   OH229641   0.023   2.343   3.658 -0.2093 -0.8386 -0.0037
 2717TIP3    H129642  -0.027   2.390   3.592  2.0507 -2.2674 -2.9783
 2717TIP3    H229643   0.059   2.412   3.714 -0.3885  0.6501 -1.6342
 2718TIP3   OH229644   5.788   3.262  11.480 -0.4973  0.1316  0.3063
 2718TIP3    H129645   5.748   3.323  11.417  1.6092 -0.7138 -2.0077
 2718TIP3    H229646   5.746   3.178  11.461  1.2820 -0.4684 -1.1869
 2719TIP3   OH229647   4.427   4.869  13.245 -0.3031 -0.0060 -0.5710
 2719TIP3    H129648   4.519   4.864  13.274 -0.3520 -0.8118 -0.5292
 2719TIP3    H229649   4.397   4.954  13.277 -0.2091 -0.6543  1.3477
 2720TIP3   OH229650   0.282   3.396   5.551  0.1314  0.3627 -0.2002
 2720TIP3    H129651   0.254   3.351   5.630  0.6048 -0.7413 -0.6397
 2720TIP3    H229652   0.297   3.486   5.578  0.2224  0.0126  0.9470
 2721TIP3   OH229653   2.433   0.924   6.856 -0.0832 -0.1417 -0.2473
 2721TIP3    H129654   2.503   0.975   6.897  0.7051 -1.7091  0.4731
 2721TIP3    H229655   2.369   0.912   6.926 -1.1380  1.3189 -0.9159
 2722TIP3   OH229656   3.098   4.524   0.856 -0.2590  0.3463  0.4755
 2722TIP3    H129657   3.069   4.555   0.942  1.0663  0.2765  0.9742
 2722TIP3    H229658   3.059   4.585   0.794 -1.0309  0.5502  1.1326
 2723TIP3   OH229659   4.459   4.740  13.743  0.0410  0.5682 -0.1374
 2723TIP3    H129660   4.459   4.818  13.799 -1.4815 -0.3876  1.2723
 2723TIP3    H229661   4.538   4.693  13.768 -0.3260  0.4364  0.8428
 2724TIP3   OH229662   4.103   1.056   5.289 -0.1596  0.4422 -0.0061
 2724TIP3    H129663   4.152   1.126   5.246 -0.7515  0.0101 -1.4426
 2724TIP3    H229664   4.013   1.089   5.292 -0.7145 -0.7250 -1.8897
 2725TIP3   OH229665   6.193   5.343   2.188  0.1707 -0.0074  0.1772
 2725TIP3    H129666   6.271   5.367   2.238  1.0546  1.4459 -1.7737
 2725TIP3    H229667   6.215   5.259   2.149  0.6169  0.2050 -0.0371
 2726TIP3   OH229668   6.583   4.183  17.120 -0.5526  0.8542  0.0880
 2726TIP3    H129669   6.565   4.200  17.212 -0.7445 -0.3295  0.2975
 2726TIP3    H229670   6.523   4.111  17.097  1.2075 -0.5927 -0.2535
 2727TIP3   OH229671   6.744   3.698  15.502  0.3041  0.2076  0.1755
 2727TIP3    H129672   6.754   3.720  15.595  0.6711 -0.3100  0.2582
 2727TIP3    H229673   6.801   3.760  15.457  0.5445  0.1035  0.3342
 2728TIP3   OH229674   1.876   3.299  13.255  0.0374 -0.4091 -0.2038
 2728TIP3    H129675   1.890   3.385  13.296 -0.9302  0.3669 -1.4112
 2728TIP3    H229676   1.960   3.279  13.213  0.0052  0.4194 -0.7051
 2729TIP3   OH229677   3.400   4.319   3.395 -0.2764 -0.3238 -0.6667
 2729TIP3    H129678   3.436   4.378   3.329 -1.5631  1.7091  0.3160
 2729TIP3    H229679   3.305   4.324   3.382 -0.6847  1.2303  2.0638
 2730TIP3   OH229680   3.355   2.342   0.475  0.2670 -0.5760  0.0713
 2730TIP3    H129681   3.337   2.267   0.533 -0.4011 -0.3512  0.1608
 2730TIP3    H229682   3.431   2.314   0.424 -1.1146 -2.1030 -1.2578
 2731TIP3   OH229683   4.767   1.032  17.010 -0.2343  0.2966  0.0528
 2731TIP3    H129684   4.734   1.070  16.929  0.0762  0.1441 -0.1481
 2731TIP3    H229685   4.860   1.056  17.012 -0.6385  1.8997  1.2910
 2732TIP3   OH229686   4.817   1.747   3.685  0.3140  0.5843  0.0034
 2732TIP3    H129687   4.865   1.741   3.603 -0.4345 -0.4495 -0.3792
 2732TIP3    H229688   4.884   1.738   3.753  0.6939 -0.8215 -0.5206
 2733TIP3   OH229689   6.250   6.582  13.985  0.1866 -0.0139 -0.3571
 2733TIP3    H129690   6.287   6.540  14.062 -0.8815 -0.2047  0.0704
 2733TIP3    H229691   6.182   6.640  14.019 -0.5633 -0.3822 -1.1638
 2734TIP3   OH229692   2.511   2.022   0.965 -0.3488  0.2491 -0.7829
 2734TIP3    H129693   2.586   1.999   0.911 -0.2907  1.7792 -1.3927
 2734TIP3    H229694   2.440   2.036   0.902 -0.9554 -0.4177 -0.2648
 2735TIP3   OH229695   5.233   2.748  11.619 -0.4947 -0.5573 -0.3225
 2735TIP3    H129696   5.294   2.821  11.607  0.5860 -1.6412 -1.8088
 2735TIP3    H229697   5.158   2.787  11.664  0.7358  1.0973  0.3965
 2736TIP3   OH229698   2.242   5.650   1.982 -0.1128  0.1083 -0.1155
 2736TIP3    H129699   2.254   5.579   2.045  3.2897  1.9743  1.5981
 2736TIP3    H229700   2.300   5.626   1.909 -0.7371  0.0538 -0.6049
 2737TIP3   OH229701   6.432   0.098  16.622 -0.2993  0.1619 -0.0678
 2737TIP3    H129702   6.383   0.016  16.630  0.0063  0.0017  0.1542
 2737TIP3    H229703   6.492   0.098  16.696  0.9197 -0.2412 -1.0245
 2738TIP3   OH229704   0.788   0.369  16.304  0.3037  0.0765 -0.2932
 2738TIP3    H129705   0.851   0.367  16.232 -1.2519  0.9218 -1.7382
 2738TIP3    H229706   0.757   0.459  16.307  2.6285  0.9730  3.5914
 2739TIP3   OH229707   5.772   3.328   5.423 -0.0598  0.1271  0.0740
 2739TIP3    H129708   5.740   3.401   5.370  0.2508  0.8339  0.8299
 2739TIP3    H229709   5.866   3.326   5.408 -0.2515 -1.1346 -1.1524
 2740TIP3   OH229710   5.919   2.212   4.340  0.1995 -0.1117  0.6240
 2740TIP3    H129711   5.878   2.267   4.274  0.9096 -1.5415 -1.0729
 2740TIP3    H229712   5.854   2.144   4.359  0.8922 -1.1072 -0.4464
 2741TIP3   OH229713   2.365   0.644  11.572 -0.2394  0.0119  0.2187
 2741TIP3    H129714   2.407   0.713  11.521  2.1637  0.1037  2.1441
 2741TIP3    H229715   2.421   0.633  11.649 -2.4108 -1.7332  1.6848
 2742TIP3   OH229716   1.739   1.263   1.100 -0.0892  0.4986 -0.3971
 2742TIP3    H129717   1.729   1.275   1.195  0.0705 -0.0616 -0.3063
 2742TIP3    H229718   1.769   1.173   1.091 -0.2274  0.5135 -0.9929
 2743TIP3   OH229719   5.448   3.942   4.617  0.1314  0.0048 -0.1293
 2743TIP3    H129720   5.447   3.846   4.610  0.5088  0.0460 -0.8156
 2743TIP3    H229721   5.473   3.972   4.530 -0.8054  0.7659 -0.1499
 2744TIP3   OH229722   6.376   1.053   4.214 -0.3341  0.2561  0.0902
 2744TIP3    H129723   6.281   1.060   4.205 -0.2727  0.4817 -0.4088
 2744TIP3    H229724   6.408   1.143   4.210  0.0754  0.0897 -1.8991
 2745TIP3   OH229725   1.340   6.098  14.203  0.2063  0.4630 -0.3567
 2745TIP3    H129726   1.333   6.106  14.108  0.6885  1.1949 -0.3410
 2745TIP3    H229727   1.424   6.139  14.225 -0.2685  1.0473  0.4597
 2746TIP3   OH229728   3.593   3.973   3.308 -0.2587  0.0593 -0.3955
 2746TIP3    H129729   3.669   4.018   3.344 -0.3939  0.9419 -1.2128
 2746TIP3    H229730   3.519   4.009   3.357 -0.0767 -1.9621  1.5755
 2747TIP3   OH229731   1.285   4.068  14.640 -0.5110 -0.3240  0.2506
 2747TIP3    H129732   1.237   4.105  14.566 -0.3846  0.0045  0.3319
 2747TIP3    H229733   1.332   4.142  14.678  0.6522 -0.7538 -0.2730
 2748TIP3   OH229734   2.016   0.456   4.342 -0.0448 -0.2935  0.3978
 2748TIP3    H129735   1.999   0.472   4.250  1.0287 -1.2818  0.0061
 2748TIP3    H229736   1.985   0.366   4.357 -1.2018  0.2269  1.2758
 2749TIP3   OH229737   0.873   1.880  11.159 -0.0250 -0.1327 -0.7156
 2749TIP3    H129738   0.915   1.797  11.134  2.0282  0.5197  0.3371
 2749TIP3    H229739   0.909   1.899  11.245 -0.6580  1.7473 -0.8406
 2750TIP3   OH229740   2.684   2.076   0.345  0.4649 -0.4309  0.2198
 2750TIP3    H129741   2.632   2.071   0.426 -0.5578  1.6225 -0.2460
 2750TIP3    H229742   2.775   2.082   0.375  0.4117 -2.8526  1.0803
 2751TIP3   OH229743   2.866   1.729  12.454 -0.2889 -0.1093 -0.0589
 2751TIP3    H129744   2.833   1.736  12.364 -0.5194  1.5609  0.1386
 2751TIP3    H229745   2.945   1.783  12.455  0.2599 -0.9052  0.5085
 2752TIP3   OH229746   2.966   1.598  14.579  0.1966  0.5997 -0.3005
 2752TIP3    H129747   2.930   1.512  14.603  0.8971  0.5128  0.5080
 2752TIP3    H229748   2.982   1.592  14.485  0.6520 -0.3315 -0.1798
 2753TIP3   OH229749   2.243   4.333  13.258  0.1497 -0.1041 -0.1960
 2753TIP3    H129750   2.204   4.399  13.200 -0.0676 -0.5316 -0.5475
 2753TIP3    H229751   2.192   4.339  13.338 -0.3537 -0.3427 -0.4909
 2754TIP3   OH229752   0.434   1.533  12.773  0.0037  0.0668  0.5596
 2754TIP3    H129753   0.514   1.481  12.780  0.4742  0.8064  0.8854
 2754TIP3    H229754   0.372   1.478  12.725  1.6169  0.5237 -2.2585
 2755TIP3   OH229755   5.369   0.232   6.594  0.0302 -0.3816  0.2119
 2755TIP3    H129756   5.302   0.255   6.658  0.0232 -0.6194  0.2927
 2755TIP3    H229757   5.441   0.293   6.611 -0.5625  0.5606 -0.5495
 2756TIP3   OH229758   6.519   4.378   2.382 -0.0671 -0.2740  0.0780
 2756TIP3    H129759   6.551   4.323   2.310  0.4784  0.2397 -0.0802
 2756TIP3    H229760   6.427   4.352   2.393  0.2850 -1.4716  0.2614
 2757TIP3   OH229761   5.239   0.648  16.130 -0.0010 -0.2902 -0.1399
 2757TIP3    H129762   5.145   0.629  16.130  0.2568 -1.7445 -1.5372
 2757TIP3    H229763   5.276   0.588  16.065  2.0344 -0.4221  1.0496
 2758TIP3   OH229764   6.187   0.443   3.951 -0.9311 -0.2373 -0.0094
 2758TIP3    H129765   6.276   0.464   3.979 -0.5425 -1.5498 -0.1985
 2758TIP3    H229766   6.198   0.402   3.865 -1.7795  0.1941 -0.3320
 2759TIP3   OH229767   3.829   5.518  14.758  0.1196 -0.1822  0.3153
 2759TIP3    H129768   3.866   5.591  14.808  0.2992 -0.0909  0.0536
 2759TIP3    H229769   3.894   5.501  14.690  0.6733 -1.4185  1.1233
 2760TIP3   OH229770   6.003   4.922  16.499 -0.3891 -0.5628 -0.2000
 2760TIP3    H129771   6.050   4.857  16.448  0.6301 -0.3526  0.4389
 2760TIP3    H229772   5.962   4.979  16.434  2.3317  0.7785 -0.8712
 2761TIP3   OH229773   0.128   6.664  13.617 -0.0661  0.1887  0.5878
 2761TIP3    H129774   0.125   6.688  13.709 -1.1589  2.0237  0.1199
 2761TIP3    H229775   0.104   6.744  13.570  1.8872 -0.2956 -1.3751
 2762TIP3   OH229776   3.220   4.108   2.500 -0.6158  0.5331  0.2574
 2762TIP3    H129777   3.303   4.149   2.475 -0.6156  0.0336 -0.6106
 2762TIP3    H229778   3.243   4.017   2.519 -0.9755  0.3698 -0.0720
 2763TIP3   OH229779   3.284   1.172   5.079  0.0554  0.0371  0.3775
 2763TIP3    H129780   3.378   1.177   5.061 -0.1195 -0.1839 -0.6995
 2763TIP3    H229781   3.255   1.263   5.086  0.4720  0.0919  1.4261
 2764TIP3   OH229782   0.476   2.231  15.798 -0.0004  0.2502  0.3249
 2764TIP3    H129783   0.381   2.243  15.798  0.0657  0.8761 -0.2542
 2764TIP3    H229784   0.494   2.173  15.872 -0.5943  2.1355  2.0357
 2765TIP3   OH229785   1.367   0.553  12.363 -0.0734 -0.2507 -0.3463
 2765TIP3    H129786   1.293   0.609  12.386  0.2546  0.2077 -0.3684
 2765TIP3    H229787   1.355   0.474  12.414  0.0452  0.2930  0.5439
 2766TIP3   OH229788   1.890   2.651   4.089  0.0854  0.3884 -0.6609
 2766TIP3    H129789   1.877   2.559   4.067 -1.2024  1.0328 -2.7625
 2766TIP3    H229790   1.985   2.661   4.092  0.2912 -0.5358 -2.6862
 2767TIP3   OH229791   5.867   1.872  13.932 -0.1453  0.3835 -0.2074
 2767TIP3    H129792   5.933   1.814  13.970 -1.0375 -0.5043  0.0304
 2767TIP3    H229793   5.872   1.856  13.838  1.5869  2.0758 -0.4785
 2768TIP3   OH229794   5.496   3.401  13.623 -0.1321  0.1920 -0.1739
 2768TIP3    H129795   5.531   3.325  13.576  2.2259  0.6854  0.6853
 2768TIP3    H229796   5.479   3.369  13.712  2.9159  1.0582  0.8356
 2769TIP3   OH229797   4.663   4.460  14.202 -0.3772  0.0475  0.5412
 2769TIP3    H129798   4.648   4.387  14.262 -1.0148 -0.2749  0.0171
 2769TIP3    H229799   4.581   4.509  14.204 -1.1927 -1.0862 -1.5288
 2770TIP3   OH229800   6.682   6.128   1.480  0.1585  0.4443 -0.1110
 2770TIP3    H129801   6.746   6.060   1.461 -1.2979 -0.4245 -2.3666
 2770TIP3    H229802   6.624   6.089   1.546 -0.4183 -0.3994 -1.0834
 2771TIP3   OH229803   1.937   0.549  13.835 -0.6033  0.6448 -0.0857
 2771TIP3    H129804   1.900   0.531  13.921 -0.4706 -0.0644 -0.1744
 2771TIP3    H229805   2.023   0.588  13.853 -0.5031  0.3386  0.1036
 2772TIP3   OH229806   1.122   5.281  14.551  0.4790 -0.7908  0.0517
 2772TIP3    H129807   1.044   5.226  14.554 -0.7164  0.8310  0.2230
 2772TIP3    H229808   1.141   5.300  14.643 -1.3244  1.9580 -0.0420
 2773TIP3   OH229809   0.994   2.278   0.553 -0.3969 -0.4470  0.3012
 2773TIP3    H129810   1.072   2.239   0.513 -0.0027  0.0354  0.5806
 2773TIP3    H229811   0.950   2.205   0.597  0.0573 -0.6684  0.3928
 2774TIP3   OH229812   4.427   6.136   1.193 -0.7798 -0.2726  0.1025
 2774TIP3    H129813   4.367   6.134   1.268 -0.9672 -0.0273 -0.0397
 2774TIP3    H229814   4.503   6.185   1.224 -1.7272  1.6768 -0.5010
 2775TIP3   OH229815   3.248   1.111   1.484  0.2327 -0.4682 -0.2165
 2775TIP3    H129816   3.283   1.026   1.460  0.0335 -0.7530  0.4623
 2775TIP3    H229817   3.308   1.144   1.551  0.5225  0.0990 -0.7440
 2776TIP3   OH229818   0.205   4.204  14.318  0.5049 -0.0034 -0.1750
 2776TIP3    H129819   0.291   4.177  14.285  1.5379 -0.4034  2.6144
 2776TIP3    H229820   0.225   4.265  14.389 -1.5044 -0.2048  0.6184
 2777TIP3   OH229821   1.203   1.917   1.492 -0.5571  0.2583 -0.2632
 2777TIP3    H129822   1.147   1.985   1.456  0.0128  0.8688 -0.0211
 2777TIP3    H229823   1.217   1.943   1.583 -0.1111 -0.0328 -0.2416
 2778TIP3   OH229824   2.094   0.896   2.517  0.7854 -0.3541 -0.2386
 2778TIP3    H129825   2.040   0.889   2.596 -0.6004 -0.1792 -1.1331
 2778TIP3    H229826   2.062   0.827   2.459  0.2620  0.8882 -1.4943
 2779TIP3   OH229827   4.148   1.147  11.993  0.2279  0.3636  0.2258
 2779TIP3    H129828   4.152   1.075  11.930  1.1657  1.0861 -0.5707
 2779TIP3    H229829   4.152   1.226  11.940  0.8374  0.9929  1.1805
 2780TIP3   OH229830   5.356   3.156   4.316 -0.2030  0.7353  0.0035
 2780TIP3    H129831   5.370   3.100   4.240  1.2378 -0.5138  1.1273
 2780TIP3    H229832   5.304   3.103   4.376  0.9159  0.6974  0.9589
 2781TIP3   OH229833   3.838   4.371  17.377 -0.1880 -0.2827  0.0506
 2781TIP3    H129834   3.771   4.308  17.403  0.4596 -1.5712 -1.2114
 2781TIP3    H229835   3.909   4.317  17.342  1.5799  1.0199  1.4181
 2782TIP3   OH229836   1.513   5.226  17.523  0.6515  0.4382 -0.5427
 2782TIP3    H129837   1.498   5.135  17.545 -0.2829 -0.4331 -4.1188
 2782TIP3    H229838   1.592   5.225  17.467 -1.2532  1.1582 -3.4840
 2783TIP3   OH229839   4.349   2.550   6.579 -0.3628 -0.4374  0.5575
 2783TIP3    H129840   4.375   2.461   6.604 -0.0230 -0.3940  0.3686
 2783TIP3    H229841   4.255   2.554   6.597 -0.3576 -0.7990  0.6684
 2784TIP3   OH229842   6.335   4.713   5.963 -0.2428 -0.3299  0.4983
 2784TIP3    H129843   6.426   4.718   5.934 -0.4503  3.0545  0.0316
 2784TIP3    H229844   6.329   4.628   6.007  3.1192 -0.6813  0.5719
 2785TIP3   OH229845   2.665   6.061   4.582  0.1887 -0.5129  0.4023
 2785TIP3    H129846   2.609   6.116   4.526 -0.3819 -1.1265  0.3583
 2785TIP3    H229847   2.754   6.091   4.563 -0.0736  0.0178 -0.0359
 2786TIP3   OH229848   4.262   4.911  16.543 -0.2351 -0.0329  0.0572
 2786TIP3    H129849   4.279   4.985  16.601 -2.1448  1.8896 -1.6770
 2786TIP3    H229850   4.323   4.922  16.470  0.9999 -1.5002  0.7970
 2787TIP3   OH229851   3.633   2.987   4.471 -0.0555  0.3406  0.1559
 2787TIP3    H129852   3.591   3.065   4.437  0.7983  0.8866  0.3236
 2787TIP3    H229853   3.667   2.942   4.393  0.8363  0.9644  0.1691
 2788TIP3   OH229854   1.330   1.800  16.526  0.3656 -0.1404  0.2458
 2788TIP3    H129855   1.417   1.762  16.517  1.2091  1.2265  2.0298
 2788TIP3    H229856   1.318   1.812  16.620 -1.8410 -0.4524  0.0660
 2789TIP3   OH229857   1.566   5.958   0.050  0.0401  0.2437 -0.4915
 2789TIP3    H129858   1.658   5.930   0.050  0.4866  1.5507 -1.5433
 2789TIP3    H229859   1.534   5.933  -0.037 -0.1847  0.9964 -0.6302
 2790TIP3   OH229860   0.214   2.767   3.179  0.1351 -0.3406  0.0247
 2790TIP3    H129861   0.194   2.728   3.264 -1.3871 -0.5481 -0.4032
 2790TIP3    H229862   0.183   2.857   3.185 -0.1219 -0.4004 -0.3617
 2791TIP3   OH229863   0.861   3.807   0.085  0.5010 -0.0792  0.1377
 2791TIP3    H129864   0.857   3.883   0.027 -0.2254  0.2229  0.5778
 2791TIP3    H229865   0.942   3.762   0.059  0.8523  0.7455 -0.2376
 2792TIP3   OH229866   5.385   4.973  14.315 -0.0482 -0.2693  0.5796
 2792TIP3    H129867   5.386   4.980  14.219 -1.1114  2.8008  0.6910
 2792TIP3    H229868   5.466   4.927  14.336 -0.4980 -2.3970 -1.8069
 2793TIP3   OH229869   4.201   5.898  14.752 -0.4874 -0.1330 -0.3730
 2793TIP3    H129870   4.268   5.920  14.816 -1.3598  1.1627  0.1299
 2793TIP3    H229871   4.250   5.871  14.674  0.6658  2.4330 -0.6150
 2794TIP3   OH229872   2.562   6.708  14.041  0.6647 -0.3455  0.5099
 2794TIP3    H129873   2.535   6.707  14.133  1.2974 -0.7752  0.6999
 2794TIP3    H229874   2.522   6.787  14.005 -0.1918 -0.5516  0.9667
 2795TIP3   OH229875   1.692   3.548  14.716  0.4073  0.1304 -0.0672
 2795TIP3    H129876   1.766   3.555  14.776  0.2960  1.1266 -0.0400
 2795TIP3    H229877   1.730   3.565  14.630 -0.0051  1.9891  0.0874
 2796TIP3   OH229878   6.531   3.331  11.002  0.4108  0.0634  0.1508
 2796TIP3    H129879   6.505   3.411  11.047 -0.4754  0.6712 -1.3676
 2796TIP3    H229880   6.626   3.341  10.988  0.3180  0.8182  0.0170
 2797TIP3   OH229881   5.132   4.501  15.614 -0.6298  0.4034  0.0812
 2797TIP3    H129882   5.079   4.423  15.595  2.6395 -2.2582  0.9604
 2797TIP3    H229883   5.214   4.486  15.566  0.9968  2.1421  2.1315
 2798TIP3   OH229884   5.136   4.802  14.485 -0.3822  0.3615 -0.0733
 2798TIP3    H129885   5.136   4.873  14.420  0.0674  1.2491  0.8632
 2798TIP3    H229886   5.101   4.727  14.438 -0.1295  0.9962 -1.3290
 2799TIP3   OH229887   6.293   1.877   2.561  0.3891  0.1972 -0.6631
 2799TIP3    H129888   6.260   1.900   2.474 -0.1100 -1.7893 -1.0488
 2799TIP3    H229889   6.284   1.781   2.565 -3.3604  0.4252  3.0105
 2800TIP3   OH229890   3.055   2.382   3.377  0.3514  0.2263  0.4039
 2800TIP3    H129891   3.091   2.324   3.310  0.2699  0.0677  0.4995
 2800TIP3    H229892   3.024   2.458   3.328 -2.4600 -1.1360 -0.1331
 2801TIP3   OH229893   3.699   6.603   3.084 -0.0885  0.0840  0.8420
 2801TIP3    H129894   3.751   6.585   3.162 -0.6246 -0.6231  1.0488
 2801TIP3    H229895   3.655   6.686   3.103 -0.0194  0.0433  1.1861
 2802TIP3   OH229896   2.607   3.526  14.032 -0.4431  0.2705 -0.6908
 2802TIP3    H129897   2.628   3.618  14.018  2.3934 -0.3110 -1.0270
 2802TIP3    H229898   2.642   3.506  14.119 -2.4128 -0.1618  0.0350
 2803TIP3   OH229899   3.854   2.005   2.958 -0.4801  0.2741 -0.0560
 2803TIP3    H129900   3.833   1.931   2.901  3.5027 -0.2179 -1.1808
 2803TIP3    H229901   3.857   2.080   2.899 -2.0758  0.9624  0.6657
 2804TIP3   OH229902   5.083   3.326   0.517  0.0083 -0.2623  0.1245
 2804TIP3    H129903   5.021   3.358   0.583 -0.6096 -2.4764  0.7055
 2804TIP3    H229904   5.162   3.377   0.532 -0.7469  0.6218  1.2919
 2805TIP3   OH229905   3.265   4.942   0.036 -0.0153 -0.0379 -0.2616
 2805TIP3    H129906   3.170   4.947   0.042  0.0063 -0.1154  0.2022
 2805TIP3    H229907   3.296   4.964   0.124  0.2195 -4.6379  1.0811
 2806TIP3   OH229908   5.854   5.773  11.602 -0.0192  0.7014 -0.7955
 2806TIP3    H129909   5.860   5.739  11.691 -2.2860  1.8363 -0.1483
 2806TIP3    H229910   5.945   5.777  11.573  0.6356 -2.5569  0.2898
 2807TIP3   OH229911   3.209   2.043  16.150  0.0703 -0.0757  0.7761
 2807TIP3    H129912   3.235   2.135  16.158 -0.0382  0.0520 -0.1498
 2807TIP3    H229913   3.249   2.015  16.067 -1.9416 -0.1383 -0.2203
 2808TIP3   OH229914   5.231   1.030  17.496 -0.2962  0.3057 -0.0186
 2808TIP3    H129915   5.189   1.116  17.503  0.7923  1.0052 -1.5276
 2808TIP3    H229916   5.233   0.997  17.586 -3.0411  0.6844  0.2457
 2809TIP3   OH229917   6.057   4.054  11.068 -0.2605 -0.2881  0.6263
 2809TIP3    H129918   6.059   4.094  11.155  0.2514  1.2943 -0.0793
 2809TIP3    H229919   6.042   3.961  11.085 -0.1750 -0.0135  2.4007
 2810TIP3   OH229920   1.406   4.435   2.680  0.0334  0.4032  0.0320
 2810TIP3    H129921   1.354   4.514   2.661  1.9020  1.6258 -0.3392
 2810TIP3    H229922   1.470   4.432   2.609  1.3573 -0.2168  1.2018
 2811TIP3   OH229923   3.390   6.052  14.051 -0.0057  0.2293 -0.0681
 2811TIP3    H129924   3.466   6.062  14.108  2.7227 -1.7150 -2.9900
 2811TIP3    H229925   3.377   6.139  14.013  1.0387  0.5287  0.2128
 2812TIP3   OH229926   2.298   5.656   5.222  0.7494 -0.3321  0.1944
 2812TIP3    H129927   2.346   5.717   5.278  0.3423  1.0710 -0.9411
 2812TIP3    H229928   2.344   5.572   5.233  0.6348 -0.1337  2.6355
 2813TIP3   OH229929   0.044   0.425  12.517 -0.5058 -0.2234  0.1280
 2813TIP3    H129930   0.088   0.372  12.584  1.2612  2.8830  1.6346
 2813TIP3    H229931  -0.035   0.457  12.561  1.1518  2.6305  1.2802
 2814TIP3   OH229932   1.645   6.403   1.876 -0.3473 -0.0824 -0.5980
 2814TIP3    H129933   1.689   6.322   1.901  0.3678  0.6136  0.4973
 2814TIP3    H229934   1.659   6.411   1.782  1.1050 -0.3441 -0.4213
 2815TIP3   OH229935   6.622   2.143   4.301 -0.0626 -0.4411 -1.0458
 2815TIP3    H129936   6.643   2.109   4.214 -0.3661 -1.5532 -0.7005
 2815TIP3    H229937   6.532   2.174   4.294  0.3557  0.7322 -1.4781
 2816TIP3   OH229938   0.851   4.050  15.431 -0.3043  0.5476  0.1168
 2816TIP3    H129939   0.865   4.062  15.337  1.7224 -0.8298  0.2032
 2816TIP3    H229940   0.816   4.134  15.461 -0.7850  1.0768 -1.8036
 2817TIP3   OH229941   4.006   3.132  13.589 -0.6499 -0.2031 -0.0278
 2817TIP3    H129942   3.995   3.042  13.557  0.9968 -0.1528 -0.8235
 2817TIP3    H229943   3.999   3.124  13.684 -0.1476 -1.2443 -0.0562
 2818TIP3   OH229944   5.021   6.678   0.483  0.2643 -0.5420  0.4201
 2818TIP3    H129945   5.010   6.766   0.518  0.9426  0.0636 -0.8416
 2818TIP3    H229946   4.933   6.648   0.464  0.0418 -0.0717  0.7043
 2819TIP3   OH229947   3.554   6.352   2.152 -0.1403 -0.3858  0.2443
 2819TIP3    H129948   3.549   6.378   2.244 -2.0290  0.2467 -0.0023
 2819TIP3    H229949   3.645   6.370   2.127 -0.1194  1.4101  1.4282
 2820TIP3   OH229950   6.212   0.477   0.443  0.2269 -0.0607  0.2911
 2820TIP3    H129951   6.202   0.500   0.536 -1.9283 -0.5291  0.2176
 2820TIP3    H229952   6.192   0.384   0.439  1.0095 -0.2065 -0.5732
 2821TIP3   OH229953   5.968   1.930   4.790 -0.4099 -0.3964 -0.2077
 2821TIP3    H129954   5.909   1.875   4.738  0.0369  0.0947 -1.2771
 2821TIP3    H229955   5.930   2.018   4.783 -1.0576 -0.5141  1.3912
 2822TIP3   OH229956   6.683   2.026  12.675 -0.1325 -0.1193 -0.0563
 2822TIP3    H129957   6.653   1.944  12.634  1.6254 -0.0026 -1.7153
 2822TIP3    H229958   6.618   2.091  12.648  0.6713 -0.1687 -2.2560
 2823TIP3   OH229959   1.452   4.890  16.630 -0.0501  0.3947  0.0401
 2823TIP3    H129960   1.389   4.848  16.570 -0.6697 -1.0496  1.6117
 2823TIP3    H229961   1.397   4.940  16.690  0.4337  0.5204  0.3796
 2824TIP3   OH229962   0.678   3.397   1.957  0.4876 -0.2984 -0.2423
 2824TIP3    H129963   0.687   3.390   2.052  3.7255  1.8719 -0.1966
 2824TIP3    H229964   0.659   3.490   1.942  0.8896 -0.4254 -1.7050
 2825TIP3   OH229965   5.805   5.581   5.177  0.5268 -0.3444  0.1804
 2825TIP3    H129966   5.756   5.656   5.144 -0.7584 -1.9280 -1.7924
 2825TIP3    H229967   5.854   5.615   5.251 -0.4877  2.2706 -0.2337
 2826TIP3   OH229968   0.351   1.407  13.894 -0.3315 -0.2471 -0.8945
 2826TIP3    H129969   0.403   1.365  13.825 -0.2345 -2.8343  0.6319
 2826TIP3    H229970   0.413   1.421  13.965 -1.2681 -1.6183  0.2426
 2827TIP3   OH229971   1.697   6.549  15.300 -0.0650  0.3707 -0.3518
 2827TIP3    H129972   1.773   6.491  15.307 -0.4157 -0.6786 -3.5751
 2827TIP3    H229973   1.722   6.611  15.231 -1.0735  1.8391  0.5690
 2828TIP3   OH229974   3.689   2.590   1.553  0.2714  0.1182 -0.3096
 2828TIP3    H129975   3.649   2.539   1.624 -0.5171 -0.0094 -0.8291
 2828TIP3    H229976   3.631   2.666   1.543  2.3537  2.1184  1.6179
 2829TIP3   OH229977   5.311   1.725   1.764  1.1454 -0.7793  0.6190
 2829TIP3    H129978   5.279   1.671   1.692  1.2861 -2.2250  1.6192
 2829TIP3    H229979   5.337   1.807   1.722 -1.0614 -0.6563 -0.6253
 2830TIP3   OH229980   6.169   4.150  12.789 -0.2948 -0.6430  0.0816
 2830TIP3    H129981   6.195   4.087  12.722  0.8902 -0.0339 -0.0797
 2830TIP3    H229982   6.211   4.119  12.869 -0.7075 -0.7139  0.2710
 2831TIP3   OH229983   4.489   0.920   1.559  0.3747  0.2360 -0.4620
 2831TIP3    H129984   4.474   0.973   1.481 -0.2826 -0.0693 -0.5488
 2831TIP3    H229985   4.486   0.829   1.527 -1.8111  0.0276  0.2030
 2832TIP3   OH229986   5.211   4.514   0.235 -0.3933 -0.3753 -0.0713
 2832TIP3    H129987   5.175   4.496   0.148  0.8672 -0.8747 -0.5182
 2832TIP3    H229988   5.278   4.581   0.220 -0.3065 -0.3200  0.5398
 2833TIP3   OH229989   2.160   3.148  16.438 -0.1784  0.8584 -0.0387
 2833TIP3    H129990   2.189   3.218  16.497  0.9853 -1.2580  2.0400
 2833TIP3    H229991   2.103   3.093  16.492 -0.9862  0.1091 -1.5973
 2834TIP3   OH229992   6.643   4.670   4.693  0.0105 -0.0238  0.5350
 2834TIP3    H129993   6.706   4.609   4.656 -1.5791  0.0746 -2.6604
 2834TIP3    H229994   6.563   4.618   4.705 -0.7482  0.9172 -0.2607
 2835TIP3   OH229995   5.703   3.866   6.077 -0.4454 -0.2741  0.2490
 2835TIP3    H129996   5.610   3.888   6.086 -0.0144  1.2818  1.1399
 2835TIP3    H229997   5.742   3.891   6.161  0.3535 -3.3715  0.9202
 2836TIP3   OH229998   5.513   2.092  11.208  0.7867  0.4873  0.0599
 2836TIP3    H129999   5.574   2.166  11.210  2.5389 -0.7959 -2.2315
 2836TIP3    H230000   5.558   2.022  11.256  0.8363 -0.2475 -1.0282
 2837TIP3   OH230001   1.956   5.475   1.868 -0.4076  0.0941  0.6465
 2837TIP3    H130002   1.914   5.438   1.790 -1.9443  3.3929 -0.2513
 2837TIP3    H230003   1.964   5.568   1.849  0.8441  0.7238  3.7590
 2838TIP3   OH230004   1.820   1.974   0.123 -0.5246 -0.4858 -0.4407
 2838TIP3    H130005   1.817   2.031   0.200  0.2918  0.9961 -1.4546
 2838TIP3    H230006   1.913   1.961   0.106 -0.6521 -3.1507  0.4274
 2839TIP3   OH230007   5.027   3.809   5.930 -0.2711  0.3127 -0.3476
 2839TIP3    H130008   4.986   3.803   5.844 -0.6933 -1.8754 -0.0499
 2839TIP3    H230009   4.953   3.807   5.992  0.1241 -1.1262  0.1175
 2840TIP3   OH230010   4.801   1.573  14.583 -0.1813 -0.0407  0.3739
 2840TIP3    H130011   4.821   1.605  14.495 -2.1436 -0.1365 -0.1467
 2840TIP3    H230012   4.778   1.651  14.633 -0.5052 -0.1430  0.3873
 2841TIP3   OH230013   4.662   1.290   3.790 -0.1962  0.0788 -0.1966
 2841TIP3    H130014   4.694   1.203   3.768  1.5402 -0.0523  2.4078
 2841TIP3    H230015   4.719   1.350   3.742  0.9316 -0.2258  0.7218
 2842TIP3   OH230016   5.839   0.302   3.406  0.0307 -0.1775  0.5326
 2842TIP3    H130017   5.886   0.219   3.411 -2.0479 -1.6039 -1.3262
 2842TIP3    H230018   5.894   0.364   3.453  3.5706 -1.7377 -1.1500
 2843TIP3   OH230019   4.451   6.080   4.224  0.0163  0.0272 -0.5147
 2843TIP3    H130020   4.537   6.092   4.265  0.1104 -0.5391 -0.5349
 2843TIP3    H230021   4.395   6.049   4.296 -0.5615  1.8284 -0.1464
 2844TIP3   OH230022   6.121   3.121  15.277 -0.0865 -0.2069  0.2637
 2844TIP3    H130023   6.115   3.084  15.365 -1.7212  0.3869  0.4213
 2844TIP3    H230024   6.205   3.167  15.277  1.9456 -3.5500  0.1459
 2845TIP3   OH230025   4.408   0.039  13.566 -0.5614  0.0812 -0.0462
 2845TIP3    H130026   4.356   0.102  13.617  2.3154  0.6280  2.5418
 2845TIP3    H230027   4.369  -0.046  13.586 -1.9178  0.6560 -0.1572
 2846TIP3   OH230028   3.074   2.334   4.128 -0.0153 -0.2307 -0.0611
 2846TIP3    H130029   3.101   2.270   4.062  1.3134 -0.3946  0.5982
 2846TIP3    H230030   3.027   2.282   4.194 -1.1017 -0.1092 -0.7147
 2847TIP3   OH230031   1.163   0.383  13.173  0.3163 -0.7739  0.2012
 2847TIP3    H130032   1.123   0.465  13.143  2.3328  0.4267  0.6242
 2847TIP3    H230033   1.127   0.316  13.114 -1.2682  0.4005 -0.2529
 2848TIP3   OH230034   6.189   2.238  16.783 -0.1990 -0.0983  0.2020
 2848TIP3    H130035   6.149   2.277  16.860  0.0014  0.8129 -0.1449
 2848TIP3    H230036   6.167   2.299  16.712  0.9928 -0.0884 -0.1660
 2849TIP3   OH230037   5.375   6.445  17.404 -0.1302  0.8057 -0.3594
 2849TIP3    H130038   5.352   6.533  17.374  0.9414  0.1768 -3.3607
 2849TIP3    H230039   5.470   6.448  17.419 -0.1412  0.2650 -0.1413
 2850TIP3   OH230040   4.924   4.541   5.583  0.3360 -0.1030 -0.0772
 2850TIP3    H130041   4.929   4.458   5.536 -1.2357  0.7505 -1.8603
 2850TIP3    H230042   4.958   4.521   5.670 -1.5838 -3.0862  0.1422
 2851TIP3   OH230043   6.157   2.354   1.252  0.4249  0.1746  0.1854
 2851TIP3    H130044   6.206   2.430   1.222 -0.3908 -0.0350 -1.8400
 2851TIP3    H230045   6.088   2.389   1.307 -1.0819  1.1861 -2.1857
 2852TIP3   OH230046   1.875   4.624   6.053 -0.0597  0.6796  0.1327
 2852TIP3    H130047   1.834   4.710   6.051  0.1405  0.7590 -0.6825
 2852TIP3    H230048   1.920   4.621   6.137 -1.9286  0.4909  1.1898
 2853TIP3   OH230049   0.286   0.187  11.896 -0.6803 -0.3451 -0.4704
 2853TIP3    H130050   0.249   0.100  11.882 -0.1238 -0.4720 -1.2286
 2853TIP3    H230051   0.350   0.197  11.826  0.9116 -0.2458  0.9371
 2854TIP3   OH230052   5.367   5.813  11.371  0.1410  0.0297 -0.4081
 2854TIP3    H130053   5.462   5.830  11.374 -0.2477  2.4555 -0.0456
 2854TIP3    H230054   5.334   5.846  11.454 -0.9700 -1.5222 -0.1897
 2855TIP3   OH230055   6.418   3.654  11.426  0.2168  0.2876 -0.8596
 2855TIP3    H130056   6.384   3.738  11.456  0.6135 -0.1666  0.9511
 2855TIP3    H230057   6.479   3.626  11.494  0.0606 -1.4800 -1.3811
 2856TIP3   OH230058   6.426   3.693   2.548  0.0165 -0.8672  0.1888
 2856TIP3    H130059   6.482   3.743   2.489 -2.3997  1.8190 -0.0337
 2856TIP3    H230060   6.396   3.619   2.496  0.9246 -0.6646 -0.6643
 2857TIP3   OH230061   6.712   2.025  11.368 -0.1698  0.2714 -0.0377
 2857TIP3    H130062   6.743   1.944  11.328 -0.5629 -1.0919  2.2202
 2857TIP3    H230063   6.630   2.045  11.324  0.4026  0.0069 -1.2676
 2858TIP3   OH230064   0.526   0.671   0.717  0.6013  0.0215 -0.7136
 2858TIP3    H130065   0.590   0.668   0.788  1.5768 -1.0081 -1.5980
 2858TIP3    H230066   0.533   0.585   0.676 -0.7148  0.2284 -1.3983
 2859TIP3   OH230067   4.421   4.529   1.311 -0.0861  0.2015 -0.1070
 2859TIP3    H130068   4.491   4.594   1.323  0.5095 -0.8258  2.6404
 2859TIP3    H230069   4.466   4.449   1.285 -0.3263 -0.2079  0.7037
 2860TIP3   OH230070   0.424   2.693   5.860  0.4916 -0.1610  0.1041
 2860TIP3    H130071   0.448   2.609   5.899  2.4274  0.7360  1.0055
 2860TIP3    H230072   0.416   2.753   5.934  0.6577  0.7845 -0.6144
 2861TIP3   OH230073   1.502   2.218  12.694  0.1094 -0.1046  0.3290
 2861TIP3    H130074   1.527   2.265  12.614 -0.8997  0.3666  0.2829
 2861TIP3    H230075   1.581   2.223  12.749  1.2184 -1.4109 -1.0406
 2862TIP3   OH230076   4.152   5.250   3.291  0.1464 -0.6063  0.0253
 2862TIP3    H130077   4.064   5.228   3.322  0.4651  0.6633  2.0480
 2862TIP3    H230078   4.210   5.218   3.360  1.1308  0.1707 -0.4128
 2863TIP3   OH230079   5.053   5.553   2.284 -0.1113  0.5351  0.0321
 2863TIP3    H130080   4.984   5.487   2.271  1.3403 -1.6951  2.6541
 2863TIP3    H230081   5.010   5.622   2.335 -0.5340 -0.7895  1.5650
 2864TIP3   OH230082   0.291   3.235  17.258 -0.1445  0.0500  0.1495
 2864TIP3    H130083   0.384   3.259  17.259  0.9012 -2.9427 -3.3407
 2864TIP3    H230084   0.247   3.312  17.222  1.5144  0.4331 -1.2131
 2865TIP3   OH230085   4.587   4.649  13.380 -0.0070 -0.1064 -0.2451
 2865TIP3    H130086   4.646   4.581  13.411  0.4549  1.0249  1.5106
 2865TIP3    H230087   4.558   4.619  13.293  0.8714 -2.0609  0.0962
 2866TIP3   OH230088   1.285   5.592  15.092  0.1536  0.2903  0.1389
 2866TIP3    H130089   1.192   5.587  15.070  0.4393  3.2288 -2.5823
 2866TIP3    H230090   1.326   5.526  15.035 -0.1627 -0.3379  0.6311
 2867TIP3   OH230091   4.600   3.874  15.541 -0.1768  0.0173  0.0634
 2867TIP3    H130092   4.679   3.869  15.488  0.4841 -0.0851  1.0198
 2867TIP3    H230093   4.589   3.967  15.560 -1.0557  0.1731 -1.1774
 2868TIP3   OH230094   0.443   5.342   1.189  0.0267 -0.0127  0.6584
 2868TIP3    H130095   0.428   5.393   1.268  0.0735  2.0417 -0.6044
 2868TIP3    H230096   0.360   5.345   1.142  0.0028 -1.2090  0.5902
 2869TIP3   OH230097   3.700   0.266  15.315 -0.1056  0.1210 -0.0705
 2869TIP3    H130098   3.728   0.203  15.249 -1.4347 -0.8711  0.2590
 2869TIP3    H230099   3.678   0.345  15.266  1.8841  0.4940 -0.4581
 2870TIP3   OH230100   3.842   0.556  12.183  0.7076  0.8920 -0.3237
 2870TIP3    H130101   3.870   0.517  12.266 -0.9053  0.9460  0.2759
 2870TIP3    H230102   3.923   0.568  12.134  1.4418 -1.6877  0.1239
 2871TIP3   OH230103   0.975   5.286   5.097 -0.3508  0.0677 -0.2807
 2871TIP3    H130104   1.045   5.332   5.051  0.9784 -0.1635  1.4057
 2871TIP3    H230105   1.020   5.235   5.164 -1.9432 -2.0814 -0.7441
 2872TIP3   OH230106   1.857   4.605  16.220  0.3740  0.2737 -0.0849
 2872TIP3    H130107   1.892   4.518  16.201  1.3556  0.1541  1.9410
 2872TIP3    H230108   1.855   4.649  16.135  0.8784 -1.3532 -0.9932
 2873TIP3   OH230109   4.921   0.483  13.542  0.0567 -0.1684 -0.1392
 2873TIP3    H130110   4.837   0.527  13.557 -0.5961 -1.7244  0.9712
 2873TIP3    H230111   4.965   0.485  13.626  1.7828  1.7854 -0.9954
 2874TIP3   OH230112   2.870   1.434  11.990  0.2020  0.1369 -0.1510
 2874TIP3    H130113   2.843   1.456  11.900  1.9368  1.3372 -0.4355
 2874TIP3    H230114   2.962   1.462  11.994  0.0948  0.3102  2.0741
 2875TIP3   OH230115   5.596   4.234  13.223 -0.4661 -0.1153  0.4265
 2875TIP3    H130116   5.619   4.317  13.182 -0.2331  0.5896  1.9461
 2875TIP3    H230117   5.579   4.175  13.149 -1.4555  1.4897 -0.6908
 2876TIP3   OH230118   6.459   5.990  15.005 -0.0801 -0.7349  0.4448
 2876TIP3    H130119   6.404   5.947  15.071 -1.4095 -0.1112 -0.2112
 2876TIP3    H230120   6.398   6.012  14.934  0.9310  0.4392 -0.0975
 2877TIP3   OH230121   5.378   1.426  11.786  0.2092 -0.0461 -0.1909
 2877TIP3    H130122   5.309   1.374  11.745  0.0619 -0.1903  0.2405
 2877TIP3    H230123   5.459   1.394  11.746 -0.0266  0.7299 -1.3636
 2878TIP3   OH230124   5.202   6.629  13.440 -0.3023  0.3857  0.6758
 2878TIP3    H130125   5.271   6.683  13.403  1.1051 -0.3797  2.0345
 2878TIP3    H230126   5.184   6.668  13.525 -0.5306 -0.2426  0.9232
 2879TIP3   OH230127   2.051   2.952   5.713 -0.3069  0.2273  0.0199
 2879TIP3    H130128   1.995   3.003   5.771 -2.2280 -0.6222 -1.0005
 2879TIP3    H230129   2.065   2.870   5.759 -1.8434 -0.4528 -0.6584
 2880TIP3   OH230130   5.696   0.459   0.055  0.0280  0.2749 -0.5312
 2880TIP3    H130131   5.666   0.543   0.088  1.8556  0.8185 -0.1510
 2880TIP3    H230132   5.697   0.469  -0.040 -1.8215 -0.0941 -0.6330
 2881TIP3   OH230133   3.723   0.316  13.686  0.1547 -0.3091 -0.2467
 2881TIP3    H130134   3.764   0.298  13.601 -0.4962  1.0816 -0.8808
 2881TIP3    H230135   3.719   0.411  13.691 -0.6321 -0.3867  0.9626
 2882TIP3   OH230136   3.127   6.153   6.666 -0.0749 -0.0296  0.1583
 2882TIP3    H130137   3.194   6.118   6.725 -1.6224 -0.8911  1.5237
 2882TIP3    H230138   3.157   6.241   6.644  0.8731  0.0941  1.7679
 2883TIP3   OH230139   2.068   5.567   0.916 -0.1509  0.0379 -0.6568
 2883TIP3    H130140   1.982   5.524   0.919  0.8785 -2.1612  1.1981
 2883TIP3    H230141   2.118   5.523   0.985  2.1732  1.9159 -1.0324
 2884TIP3   OH230142   4.875   1.198  13.087 -0.2324  0.7756 -0.0981
 2884TIP3    H130143   4.867   1.167  13.177  1.3333 -0.2364 -0.2821
 2884TIP3    H230144   4.794   1.247  13.072 -0.6568  0.7138  1.7458
 2885TIP3   OH230145   3.649   3.319  16.284 -0.0322 -0.2323  0.4108
 2885TIP3    H130146   3.570   3.361  16.251 -0.2077 -0.2533  0.8005
 2885TIP3    H230147   3.618   3.240  16.328  0.0909  0.3224  1.5325
 2886TIP3   OH230148   3.818   4.322   0.723 -0.0454  0.3336  0.3020
 2886TIP3    H130149   3.908   4.292   0.735 -0.4059 -0.5471  0.9173
 2886TIP3    H230150   3.807   4.393   0.786  0.3114  0.6650 -0.0038
 2887TIP3   OH230151   2.662   0.446  14.904 -0.1387  0.6788 -0.0823
 2887TIP3    H130152   2.718   0.370  14.890  1.0952  1.3368  1.0411
 2887TIP3    H230153   2.653   0.486  14.817  0.2438 -0.0446 -0.4587
 2888TIP3   OH230154   2.119   0.316   0.528 -0.4053 -0.4322  0.0197
 2888TIP3    H130155   2.123   0.352   0.439 -0.7775 -0.6965 -0.1069
 2888TIP3    H230156   2.113   0.221   0.515  0.3401 -0.5364  0.3430
 2889TIP3   OH230157   5.978   1.195  14.880  0.2795  0.3310  0.0222
 2889TIP3    H130158   5.948   1.138  14.951 -0.8077  0.2044 -0.5197
 2889TIP3    H230159   6.071   1.174  14.871 -0.2059 -1.8835 -0.5891
 2890TIP3   OH230160   1.047   3.084  13.910 -0.3825 -0.3270  0.2045
 2890TIP3    H130161   1.102   3.006  13.915 -0.0507 -0.0886  0.2870
 2890TIP3    H230162   1.102   3.155  13.943 -0.3881  0.1003 -0.6686
 2891TIP3   OH230163   2.633   0.338  15.340  0.0860  0.3622  0.2889
 2891TIP3    H130164   2.706   0.397  15.322  0.5392  0.4547  2.1738
 2891TIP3    H230165   2.648   0.263  15.283  0.3029  1.4136 -1.0929
 2892TIP3   OH230166   6.024   4.976  11.141  0.0671  0.6124 -0.0805
 2892TIP3    H130167   5.972   5.040  11.092  0.9910  0.8806 -0.7361
 2892TIP3    H230168   6.114   4.992  11.114  0.4980  0.1057  0.9770
 2893TIP3   OH230169   0.821   1.137   4.385 -0.4887  0.2113  0.0967
 2893TIP3    H130170   0.799   1.062   4.330 -1.4989  0.8219 -0.3532
 2893TIP3    H230171   0.911   1.120   4.414 -0.6987 -1.1703  0.0111
 2894TIP3   OH230172   6.002   0.781   1.235  0.0880  0.5701  0.0509
 2894TIP3    H130173   6.093   0.764   1.212  0.1587  1.7671 -0.6726
 2894TIP3    H230174   5.960   0.695   1.236  1.1422  0.0440  0.0367
 2895TIP3   OH230175   2.884   1.297   4.197  0.6678 -0.1613 -0.5556
 2895TIP3    H130176   2.907   1.386   4.171 -2.1564  1.0526  0.6553
 2895TIP3    H230177   2.893   1.245   4.117 -0.6191  1.8820 -2.1379
 2896TIP3   OH230178   5.432   2.766  13.834  0.4379 -0.4699 -0.2439
 2896TIP3    H130179   5.494   2.742  13.765  1.7963  0.3062  0.6720
 2896TIP3    H230180   5.372   2.691  13.839  0.8345 -0.9143 -1.6534
 2897TIP3   OH230181   4.491   1.800   0.452 -0.4689  0.5395 -0.2520
 2897TIP3    H130182   4.536   1.857   0.515  0.1325 -1.4450  1.2269
 2897TIP3    H230183   4.482   1.853   0.374 -1.4918  3.2374  1.5696
 2898TIP3   OH230184   1.985   4.530   1.166 -0.1297  0.2691 -0.4091
 2898TIP3    H130185   1.907   4.483   1.140  0.6699 -2.2750  1.4176
 2898TIP3    H230186   2.049   4.462   1.186  2.9106  2.1955 -2.5372
 2899TIP3   OH230187   0.364   3.350   3.951 -0.0299  0.0166 -0.0151
 2899TIP3    H130188   0.426   3.313   4.013 -0.9531 -0.6494  0.5514
 2899TIP3    H230189   0.391   3.441   3.939  0.6078 -0.0648  0.7815
 2900TIP3   OH230190   1.659   5.172  14.291 -0.3596  0.4671  0.0119
 2900TIP3    H130191   1.616   5.090  14.316  1.7397 -1.0278 -0.9384
 2900TIP3    H230192   1.658   5.172  14.195  0.7223  0.9230 -0.0175
 2901TIP3   OH230193   1.535   4.071  14.367 -0.4027 -0.0975 -0.5135
 2901TIP3    H130194   1.451   4.031  14.346  0.0827 -1.0072 -0.7882
 2901TIP3    H230195   1.576   4.088  14.282 -0.1382 -0.0287 -0.3767
 2902TIP3   OH230196   6.504   1.353   5.218 -0.1772 -0.5532 -0.0727
 2902TIP3    H130197   6.598   1.365   5.212 -0.0713 -1.7574 -1.1516
 2902TIP3    H230198   6.468   1.407   5.148 -0.0230 -2.4988 -1.7623
 2903TIP3   OH230199   6.133   4.396   4.578  0.2502 -0.1173  0.0166
 2903TIP3    H130200   6.158   4.478   4.622 -1.8725  1.3388 -1.2601
 2903TIP3    H230201   6.105   4.424   4.491  1.7962 -2.5801 -1.3426
 2904TIP3   OH230202   0.783   3.648   3.918  0.0604 -0.3796 -0.2968
 2904TIP3    H130203   0.786   3.638   3.823  0.9399  0.5341 -0.3780
 2904TIP3    H230204   0.875   3.644   3.946 -0.1270  0.1419  0.4280
 2905TIP3   OH230205   5.690   4.113   6.338  0.0109 -0.3264  0.4971
 2905TIP3    H130206   5.677   4.164   6.418  0.0388 -0.6171  0.6875
 2905TIP3    H230207   5.626   4.148   6.276 -0.1020 -0.1913  0.6903
 2906TIP3   OH230208   4.229   2.664   2.482 -0.0205 -0.0865 -0.1844
 2906TIP3    H130209   4.156   2.726   2.476 -0.4268 -0.2376  2.3153
 2906TIP3    H230210   4.217   2.620   2.566  1.3967 -2.1543 -0.9746
 2907TIP3   OH230211   2.068   4.454  14.103  0.4437  0.2647 -0.7318
 2907TIP3    H130212   2.138   4.520  14.108 -0.7911  1.5638  0.0143
 2907TIP3    H230213   2.112   4.371  14.124  1.7202  1.0894 -0.0426
 2908TIP3   OH230214   1.583   1.201   1.851 -0.1816  0.1811 -0.2347
 2908TIP3    H130215   1.659   1.172   1.801 -1.9643 -1.1680 -2.3496
 2908TIP3    H230216   1.548   1.121   1.890 -2.6445  0.0160 -2.5027
 2909TIP3   OH230217   6.120   5.506   4.921 -0.6347 -0.3663 -0.2904
 2909TIP3    H130218   6.115   5.570   4.850  3.2793 -0.3857 -0.7873
 2909TIP3    H230219   6.148   5.425   4.878 -0.1547 -0.9235  1.0420
 2910TIP3   OH230220   2.081   5.120   0.831  0.3284 -0.3198 -0.1019
 2910TIP3    H130221   2.106   5.152   0.745 -0.0040 -0.0902 -0.1146
 2910TIP3    H230222   2.163   5.116   0.880  0.6485 -1.2516 -0.6772
 2911TIP3   OH230223   3.248   5.682   0.138 -0.0390 -0.4574 -0.1030
 2911TIP3    H130224   3.243   5.612   0.074 -1.3658 -1.5488  1.1201
 2911TIP3    H230225   3.170   5.735   0.122  1.1842  1.0795 -1.3186
 2912TIP3   OH230226   5.923   6.235   5.171 -0.4841 -0.0221  0.1166
 2912TIP3    H130227   5.885   6.148   5.166 -1.1977  0.2237  0.9780
 2912TIP3    H230228   5.925   6.266   5.081  0.3098 -1.1407 -0.2633
 2913TIP3   OH230229   6.376   5.381  17.464 -0.2645  0.1662  0.3920
 2913TIP3    H130230   6.365   5.470  17.431 -1.1476  0.2010  0.7575
 2913TIP3    H230231   6.301   5.333  17.428 -1.2714  0.2044  2.3352
 2914TIP3   OH230232   6.500   1.932  14.526  0.1832  0.0330  0.2384
 2914TIP3    H130233   6.470   1.845  14.552 -0.2034 -0.0938 -0.5875
 2914TIP3    H230234   6.576   1.948  14.581  0.6614 -1.1176 -0.0463
 2915TIP3   OH230235   4.657   3.807  13.223  0.6321 -0.2658  0.1310
 2915TIP3    H130236   4.752   3.810  13.237  0.1569  0.8546  4.9688
 2915TIP3    H230237   4.640   3.880  13.164  2.7409 -0.7288 -1.1809
 2916TIP3   OH230238   2.011   5.477  17.150 -0.4123 -0.4623  0.2754
 2916TIP3    H130239   1.944   5.440  17.092 -0.0155  0.8618 -1.0996
 2916TIP3    H230240   1.962   5.519  17.220 -0.9151 -1.8869  0.7962
 2917TIP3   OH230241   2.631   4.964   0.289 -0.0567 -0.4050 -0.1973
 2917TIP3    H130242   2.650   5.057   0.293  0.8947 -0.4140 -2.6054
 2917TIP3    H230243   2.641   4.933   0.379  0.1469  1.7007  0.5507
 2918TIP3   OH230244   3.835   6.552  10.859  0.2285 -0.3524  0.0874
 2918TIP3    H130245   3.841   6.462  10.889  1.8956 -0.1435  0.5118
 2918TIP3    H230246   3.788   6.598  10.929 -2.6536 -1.2582 -1.1400
 2919TIP3   OH230247   3.909   1.540   4.709  0.4141 -0.1649 -0.4042
 2919TIP3    H130248   3.988   1.542   4.764  1.0733  0.4606 -1.3445
 2919TIP3    H230249   3.873   1.628   4.717  1.0411  0.2340 -1.6871
 2920TIP3   OH230250   0.680   1.153  14.046 -0.3157 -0.3710  0.4631
 2920TIP3    H130251   0.643   1.233  14.008 -2.4429 -1.3237  0.3852
 2920TIP3    H230252   0.624   1.135  14.122 -0.0309 -1.9011  0.3374
 2921TIP3   OH230253   2.013   2.703  15.616 -0.6523  0.3504  0.4993
 2921TIP3    H130254   2.038   2.794  15.635  1.8639  0.2261 -1.6119
 2921TIP3    H230255   2.055   2.652  15.685 -1.8156  0.7045  1.5117
 2922TIP3   OH230256   6.017   4.505   0.408 -0.2746 -0.2120  0.6171
 2922TIP3    H130257   6.026   4.563   0.483 -0.5003  0.1085  0.4011
 2922TIP3    H230258   6.056   4.553   0.335 -1.4436  0.1549  0.2019
 2923TIP3   OH230259   0.125   1.797  12.017  0.5559 -0.1878  0.0244
 2923TIP3    H130260   0.079   1.869  12.060  1.6107  2.9037 -3.5309
 2923TIP3    H230261   0.089   1.794  11.928  2.1107 -2.6325 -0.6341
 2924TIP3   OH230262   6.264   3.574   1.892  0.3918  0.2354  0.2777
 2924TIP3    H130263   6.177   3.600   1.924  0.6794 -1.4375  2.6680
 2924TIP3    H230264   6.326   3.621   1.948  0.9583 -1.2152  0.9000
 2925TIP3   OH230265   5.650   6.317   5.969 -0.5697 -0.1227 -0.3461
 2925TIP3    H130266   5.655   6.410   5.944 -0.8035 -0.2797 -0.9912
 2925TIP3    H230267   5.669   6.270   5.888  1.0879 -0.6473  0.3037
 2926TIP3   OH230268   3.378   4.479  12.980  0.0415  0.1957  0.1015
 2926TIP3    H130269   3.399   4.470  12.887 -0.9078 -0.5075 -0.0559
 2926TIP3    H230270   3.462   4.465  13.024  0.8603  2.2152 -0.6819
 2927TIP3   OH230271   2.852   3.640  16.776 -0.4746 -0.0654  0.7191
 2927TIP3    H130272   2.917   3.705  16.753  1.2695 -1.3835  1.6855
 2927TIP3    H230273   2.891   3.591  16.849 -1.1959 -2.8854 -0.6346
 2928TIP3   OH230274   6.759   0.381   6.862 -0.6322  0.4701  0.2155
 2928TIP3    H130275   6.806   0.355   6.942  1.2757  0.8303 -0.7159
 2928TIP3    H230276   6.693   0.442   6.892 -2.0170 -1.6782  1.8680
 2929TIP3   OH230277   0.071   3.055  16.838  0.4893 -0.3799 -0.3696
 2929TIP3    H130278   0.067   3.142  16.877 -0.8870 -0.4850 -0.2217
 2929TIP3    H230279  -0.016   3.042  16.799  1.2255 -1.0278 -1.8486
 2930TIP3   OH230280   2.485   1.104  15.473 -0.5285 -0.0050  0.1151
 2930TIP3    H130281   2.459   1.014  15.457  0.8520 -0.3327 -0.4563
 2930TIP3    H230282   2.472   1.116  15.567 -1.3149 -0.5840  0.0945
 2931TIP3   OH230283   4.190   0.142   3.992 -0.5547 -0.5656 -0.0360
 2931TIP3    H130284   4.172   0.132   3.898  0.8162 -0.4431 -0.3272
 2931TIP3    H230285   4.176   0.235   4.010 -1.2299 -0.6664 -0.0192
 2932TIP3   OH230286   5.634   1.063   4.795 -0.3394  0.4101  0.1050
 2932TIP3    H130287   5.685   1.052   4.875  1.1721 -2.1573 -1.0716
 2932TIP3    H230288   5.697   1.093   4.730 -1.0113  0.2367 -0.6445
 2933TIP3   OH230289   3.167   4.275  17.185  0.5526 -0.3382  0.2516
 2933TIP3    H130290   3.165   4.277  17.281 -1.5524 -1.3775  0.2783
 2933TIP3    H230291   3.101   4.211  17.161  1.3410 -0.4140 -1.9231
 2934TIP3   OH230292   0.623   5.963  15.385 -0.2955 -0.0148  0.0783
 2934TIP3    H130293   0.634   5.956  15.290 -0.6012 -2.3918  0.1652
 2934TIP3    H230294   0.546   5.910  15.405 -0.7109  1.0640  1.6132
 2935TIP3   OH230295   6.765   1.010   0.798 -0.4396  0.4873  0.0262
 2935TIP3    H130296   6.695   1.065   0.764  0.1677  1.8932  0.9713
 2935TIP3    H230297   6.845   1.049   0.764  0.0133  0.2438  0.7885
 2936TIP3   OH230298   3.623   6.614  11.716 -0.4570 -0.2893  0.0281
 2936TIP3    H130299   3.718   6.617  11.702 -0.4299  0.6870  0.3319
 2936TIP3    H230300   3.588   6.680  11.657 -1.0368 -1.1961 -0.6622
 2937TIP3   OH230301   2.148   6.632   4.927  0.5662 -0.1909  0.6384
 2937TIP3    H130302   2.241   6.618   4.946  0.4050 -0.9530  0.9199
 2937TIP3    H230303   2.147   6.698   4.858  1.2556  0.9909  1.7131
 2938TIP3   OH230304   2.956   6.478   5.133  0.6055 -0.2805  0.2337
 2938TIP3    H130305   2.936   6.533   5.056  1.5198 -2.1954 -1.4596
 2938TIP3    H230306   3.044   6.506   5.159  0.3222  0.3267  0.5716
 2939TIP3   OH230307   6.766   0.129   5.426 -0.0836  0.1013 -0.4195
 2939TIP3    H130308   6.793   0.139   5.335  2.7479 -0.9301  0.1965
 2939TIP3    H230309   6.740   0.036   5.434 -0.7811  0.3007 -0.2516
 2940TIP3   OH230310   6.301   1.875  14.333 -0.0331 -0.6427 -0.9459
 2940TIP3    H130311   6.348   1.899  14.412 -2.3659  0.8458  0.1101
 2940TIP3    H230312   6.359   1.902  14.262  1.1043  0.2142  0.2575
 2941TIP3   OH230313   0.739   6.024   6.341 -0.2488  0.4533  0.4070
 2941TIP3    H130314   0.677   5.962   6.377  0.0378 -0.6186 -0.8832
 2941TIP3    H230315   0.814   6.020   6.401  0.3175 -1.4593 -0.3619
 2942TIP3   OH230316   6.325   3.368   1.450 -0.4016  0.1634  0.0636
 2942TIP3    H130317   6.318   3.281   1.489 -0.2207  0.4033  0.6341
 2942TIP3    H230318   6.416   3.393   1.463  0.0194 -0.3089 -1.7071
 2943TIP3   OH230319   5.147   1.988   5.134 -0.1867  0.5174  0.5420
 2943TIP3    H130320   5.202   1.910   5.125  0.2969  1.0114 -1.2182
 2943TIP3    H230321   5.208   2.058   5.158 -0.7254  0.2704  2.9173
 2944TIP3   OH230322   3.767   5.171  16.300 -0.2065 -0.2182  0.2542
 2944TIP3    H130323   3.855   5.144  16.327 -0.1427  0.5281  0.8352
 2944TIP3    H230324   3.746   5.115  16.226  0.2356 -1.2969  0.9220
 2945TIP3   OH230325   5.518   1.438  13.346  0.7635  0.1437  0.1965
 2945TIP3    H130326   5.515   1.343  13.358  1.5425 -0.0690 -1.1546
 2945TIP3    H230327   5.602   1.464  13.384  0.5077  0.3156  0.6533
 2946TIP3   OH230328   1.154   1.365  14.259 -0.3558 -0.2090  0.5990
 2946TIP3    H130329   1.177   1.451  14.224  0.7631 -0.8106 -0.2206
 2946TIP3    H230330   1.085   1.333  14.200 -0.0311 -0.2987  0.2615
 2947TIP3   OH230331   1.056   1.447   1.448  0.3072 -0.0313 -0.0151
 2947TIP3    H130332   1.132   1.485   1.406  0.8504  0.4252  1.3140
 2947TIP3    H230333   1.023   1.383   1.386  1.9344 -0.4292 -0.5126
 2948TIP3   OH230334   3.813   1.179   5.548 -0.1048  0.3628  0.1564
 2948TIP3    H130335   3.767   1.096   5.535 -1.4546  0.9305  1.0717
 2948TIP3    H230336   3.790   1.231   5.472  1.2720 -0.2963 -0.7496
 2949TIP3   OH230337   1.008   1.257   5.393 -0.2474 -0.6423  0.0641
 2949TIP3    H130338   1.069   1.252   5.319 -0.6825 -0.1647 -0.3289
 2949TIP3    H230339   1.064   1.248   5.470  0.2680 -0.6732 -0.3086
 2950TIP3   OH230340   1.865   6.466   4.173  0.4739 -0.4314  0.0585
 2950TIP3    H130341   1.780   6.433   4.201 -1.1173  3.2554  0.1945
 2950TIP3    H230342   1.897   6.400   4.111 -2.2229 -2.2053  0.3769
 2951TIP3   OH230343   3.530   2.739   4.075 -0.3721  0.1521  0.1146
 2951TIP3    H130344   3.563   2.665   4.126  2.1386  1.3901  0.4519
 2951TIP3    H230345   3.498   2.801   4.141 -1.9317 -0.3443 -0.1389
 2952TIP3   OH230346   4.944   5.843   5.623 -0.5508  0.8723 -0.2918
 2952TIP3    H130347   5.006   5.880   5.560 -0.4539 -1.3454 -1.6022
 2952TIP3    H230348   4.932   5.752   5.595 -1.1937  0.0200  2.3876
 2953TIP3   OH230349   4.129   5.114  11.701  0.4353 -0.0719  0.4603
 2953TIP3    H130350   4.053   5.062  11.677 -0.2508  0.2864  1.7509
 2953TIP3    H230351   4.190   5.102  11.628 -0.0664 -1.9034  0.2936
 2954TIP3   OH230352   6.576   6.664   0.865  0.0964 -0.4090  0.2520
 2954TIP3    H130353   6.568   6.634   0.775 -2.0633  2.0483 -0.4913
 2954TIP3    H230354   6.522   6.604   0.916 -0.1500 -0.7143 -0.3642
 2955TIP3   OH230355   3.587   2.624  14.465  0.4467  0.0921  0.0245
 2955TIP3    H130356   3.544   2.652  14.384  0.0454  1.1315  0.5745
 2955TIP3    H230357   3.619   2.705  14.504 -1.8411  0.0137  2.3192
 2956TIP3   OH230358   5.055   3.141   6.249  0.5082  0.2189 -0.0559
 2956TIP3    H130359   4.967   3.103   6.254  0.6573 -0.0636  0.6654
 2956TIP3    H230360   5.046   3.216   6.191 -0.0226 -0.3050 -0.6662
 2957TIP3   OH230361   0.049   2.063  12.249 -0.3378 -0.4148  0.6012
 2957TIP3    H130362   0.012   2.103  12.327 -1.3133  0.0347 -0.0764
 2957TIP3    H230363   0.123   2.011  12.281 -1.2516 -0.9480  1.9242
 2958TIP3   OH230364   6.468   5.869  15.403 -0.5027 -0.0171  0.1317
 2958TIP3    H130365   6.374   5.852  15.413 -0.1807 -2.5394 -0.3902
 2958TIP3    H230366   6.510   5.792  15.441  1.2434 -0.4816 -2.4573
 2959TIP3   OH230367   1.414   3.304   3.343 -0.0062  0.4251  0.3272
 2959TIP3    H130368   1.470   3.234   3.310  0.6606  1.6876 -1.3895
 2959TIP3    H230369   1.472   3.356   3.399  0.2361  1.0116 -0.4404
 2960TIP3   OH230370   5.045   4.746  15.432 -0.8112 -0.2212  0.2995
 2960TIP3    H130371   5.033   4.657  15.465 -0.4111 -0.8325 -1.1691
 2960TIP3    H230372   5.140   4.759  15.432 -0.8939  0.5021  1.2212
 2961TIP3   OH230373   1.593   4.095  10.665  0.3513 -0.3836  0.4057
 2961TIP3    H130374   1.642   4.132  10.739  1.5051 -1.4888  0.2319
 2961TIP3    H230375   1.503   4.090  10.697  0.6825 -0.0762  1.4518
 2962TIP3   OH230376   5.007   5.005   1.147 -0.4668 -0.3343 -0.0545
 2962TIP3    H130377   5.016   4.961   1.232 -0.2838 -0.8949 -0.3588
 2962TIP3    H230378   4.968   5.090   1.168 -1.5285 -0.9275  0.4833
 2963TIP3   OH230379   2.761   4.934   2.171  0.4979 -0.8539  0.2625
 2963TIP3    H130380   2.853   4.961   2.162  0.2517  0.0003  0.2103
 2963TIP3    H230381   2.730   4.981   2.248 -0.1275 -0.4743 -0.2113
 2964TIP3   OH230382   2.013   6.071   5.108 -0.4897  0.3099 -0.4837
 2964TIP3    H130383   2.070   6.100   5.037 -0.1277  0.8521  0.0271
 2964TIP3    H230384   2.073   6.043   5.177 -0.8392  0.8524  0.0467
 2965TIP3   OH230385   0.056   3.294   4.235 -0.1260 -0.1398  0.0891
 2965TIP3    H130386   0.139   3.265   4.197 -0.6337 -0.3946 -0.8409
 2965TIP3    H230387  -0.008   3.230   4.206 -1.3254  1.9253 -2.2011
 2966TIP3   OH230388   3.530   2.917  16.578  0.0164 -0.0656  0.3393
 2966TIP3    H130389   3.444   2.932  16.540  0.2402 -0.7698 -0.4719
 2966TIP3    H230390   3.549   2.825  16.558  1.0003  0.1116  0.4148
 2967TIP3   OH230391   4.200   4.283   3.642  0.1177 -0.4030  0.4445
 2967TIP3    H130392   4.260   4.231   3.695  0.3092  1.7646  2.5068
 2967TIP3    H230393   4.139   4.322   3.705 -1.7148 -0.2805 -1.2992
 2968TIP3   OH230394   0.838   3.826   5.367 -0.3967  0.6929  0.0374
 2968TIP3    H130395   0.849   3.861   5.456 -0.6536 -0.8226  0.6972
 2968TIP3    H230396   0.894   3.749   5.365 -0.8030  0.4155 -0.9465
 2969TIP3   OH230397   5.970   2.538   1.720  0.0488  0.0585 -0.2219
 2969TIP3    H130398   5.882   2.535   1.682  0.1005  0.0594 -0.3398
 2969TIP3    H230399   5.956   2.512   1.812 -0.1694  0.7227 -0.0651
 2970TIP3   OH230400   1.622   0.135  15.367  0.2743 -0.4337  0.4389
 2970TIP3    H130401   1.670   0.054  15.350 -0.0081 -0.7609  1.1513
 2970TIP3    H230402   1.558   0.112  15.434 -0.9297 -0.0166 -0.5246
 2971TIP3   OH230403   2.768   4.211  15.064 -0.1163  0.0566 -0.1157
 2971TIP3    H130404   2.768   4.283  15.000  1.1008  0.1364 -0.0605
 2971TIP3    H230405   2.807   4.138  15.016  2.7971  0.6794  1.0549
 2972TIP3   OH230406   6.638   2.690  12.648 -0.1342  0.1877 -0.5825
 2972TIP3    H130407   6.620   2.597  12.631  0.5712 -0.0581 -0.0310
 2972TIP3    H230408   6.554   2.733  12.633 -0.4376 -0.5133 -0.9999
 2973TIP3   OH230409   5.638   0.445  11.530  0.1884  0.1747 -0.5682
 2973TIP3    H130410   5.596   0.529  11.548  0.5200  0.2238 -0.0212
 2973TIP3    H230411   5.691   0.427  11.607  0.5976 -0.2457 -0.9394
 2974TIP3   OH230412   6.277   0.776   1.129  0.0420  0.0863 -0.7311
 2974TIP3    H130413   6.349   0.839   1.136  0.7981 -0.8268 -0.0242
 2974TIP3    H230414   6.314   0.694   1.162 -1.1704 -0.5336 -0.8690
 2975TIP3   OH230415   2.938   5.257   1.569  0.0305  0.1387  0.2196
 2975TIP3    H130416   2.994   5.226   1.498 -2.1068  0.0227 -1.4879
 2975TIP3    H230417   2.975   5.215   1.648  3.2511  1.2863 -0.5079
 2976TIP3   OH230418   5.936   6.108  14.184 -0.3132 -0.1794 -0.1024
 2976TIP3    H130419   5.952   6.198  14.210 -0.2014 -0.5913  1.3369
 2976TIP3    H230420   5.990   6.056  14.243  0.9418 -1.1390 -1.9974
 2977TIP3   OH230421   6.320   1.592  14.222 -0.0507  0.0646 -0.4470
 2977TIP3    H130422   6.275   1.573  14.305  0.3173  1.1288  0.0158
 2977TIP3    H230423   6.370   1.672  14.240  2.4837 -1.3519 -0.7659
 2978TIP3   OH230424   2.052   5.034  14.086  0.0923  0.0434 -0.8995
 2978TIP3    H130425   2.129   5.029  14.030  0.0792 -0.2095 -0.8931
 2978TIP3    H230426   2.018   5.123  14.072  1.1945  0.6661  0.1632
 2979TIP3   OH230427   2.519   5.312   4.669  0.5691 -0.0016  0.1199
 2979TIP3    H130428   2.500   5.218   4.664 -1.8360  0.4851 -2.9807
 2979TIP3    H230429   2.589   5.325   4.605  1.3799  0.2620  1.0414
 2980TIP3   OH230430   6.581   3.540  13.079 -0.6449 -0.4712 -0.4390
 2980TIP3    H130431   6.509   3.510  13.024  0.4970 -1.8605 -1.2485
 2980TIP3    H230432   6.620   3.612  13.029 -0.2289 -1.0749 -1.0116
 2981TIP3   OH230433   1.363   2.884   0.827 -0.0808 -0.6565  0.0007
 2981TIP3    H130434   1.298   2.947   0.795  0.1405  0.0378  0.9045
 2981TIP3    H230435   1.319   2.799   0.818 -1.0381 -0.2142  0.3954
 2982TIP3   OH230436   6.691   6.263  12.815 -0.0267  0.5069  0.1840
 2982TIP3    H130437   6.784   6.245  12.801 -0.1334  0.3772 -0.3852
 2982TIP3    H230438   6.664   6.313  12.738 -0.4027  0.6581  0.4077
 2983TIP3   OH230439   5.548   6.439   1.462 -0.5744 -0.2540  0.2291
 2983TIP3    H130440   5.556   6.502   1.390  1.2500 -0.5934  0.1002
 2983TIP3    H230441   5.625   6.383   1.455 -0.2675 -0.2303  2.5306
 2984TIP3   OH230442   0.485   2.490   6.020  0.1729 -0.1992  0.5814
 2984TIP3    H130443   0.447   2.471   6.105 -0.8243  1.6336  0.6076
 2984TIP3    H230444   0.509   2.405   5.983  0.7238 -1.0149  2.7146
 2985TIP3   OH230445   4.110   3.446   4.730 -0.4151 -0.4950  0.4556
 2985TIP3    H130446   4.134   3.526   4.684 -1.9396 -0.2419  0.0409
 2985TIP3    H230447   4.108   3.379   4.662  0.0771 -0.7214  0.6607
 2986TIP3   OH230448   6.231   6.411  11.811  0.0334  0.1272  1.1762
 2986TIP3    H130449   6.190   6.414  11.897 -0.2191  1.8895  1.0118
 2986TIP3    H230450   6.158   6.410  11.749  0.2188 -0.6738  0.9553
 2987TIP3   OH230451   4.976   2.039  12.096  0.0361  0.2113  0.7070
 2987TIP3    H130452   5.043   2.007  12.156  0.9195  0.2256 -0.2231
 2987TIP3    H230453   4.979   1.978  12.022 -0.2113  0.8328  0.1731
 2988TIP3   OH230454   4.513   2.577  14.364  0.2326  0.0217 -0.0363
 2988TIP3    H130455   4.583   2.593  14.301  1.6289  1.7596  1.8315
 2988TIP3    H230456   4.540   2.497  14.409  1.3699  0.9932  1.0640
 2989TIP3   OH230457   6.768   1.080   5.632  0.2930 -0.0509  0.3673
 2989TIP3    H130458   6.681   1.079   5.591  0.7220 -1.8740 -0.6007
 2989TIP3    H230459   6.828   1.094   5.559  0.9577 -1.4121  0.6270
 2990TIP3   OH230460   5.162   4.216   4.071 -0.5184 -0.4527  0.4612
 2990TIP3    H130461   5.198   4.150   4.012  1.1641 -0.4617  1.4228
 2990TIP3    H230462   5.128   4.165   4.145 -0.5085 -0.3219  0.5551
 2991TIP3   OH230463   0.545   4.663  15.759 -0.5837 -0.1668  0.2044
 2991TIP3    H130464   0.463   4.655  15.809  0.0271 -1.3032  1.0800
 2991TIP3    H230465   0.564   4.573  15.731  0.4345  0.0669  0.1200
 2992TIP3   OH230466   0.925   5.566  16.764  0.5214 -0.6609 -0.3951
 2992TIP3    H130467   0.876   5.489  16.795 -0.1138 -0.8022 -1.7050
 2992TIP3    H230468   0.994   5.529  16.709  1.3974 -0.3846  0.4831
 2993TIP3   OH230469   0.481   5.005   1.551  0.5253 -0.0726 -0.1303
 2993TIP3    H130470   0.391   5.038   1.548  0.0019 -1.3912  0.3300
 2993TIP3    H230471   0.530   5.073   1.596  0.4444  2.1034 -3.0023
 2994TIP3   OH230472   5.126   3.607   6.384 -0.0089  0.5205 -0.6457
 2994TIP3    H130473   5.058   3.641   6.325 -0.0860  1.5694  0.0366
 2994TIP3    H230474   5.130   3.670   6.455 -1.0808 -1.5451  1.3579
 2995TIP3   OH230475   4.880   6.752   0.922  0.5213 -0.2974  0.1072
 2995TIP3    H130476   4.787   6.745   0.943  0.7115 -0.6993  0.8625
 2995TIP3    H230477   4.892   6.844   0.898  0.1311  0.0238  1.0578
 2996TIP3   OH230478   2.823   5.432  15.296  0.8422  0.0189  0.8434
 2996TIP3    H130479   2.734   5.403  15.275  1.3787 -1.9095  1.0982
 2996TIP3    H230480   2.828   5.429  15.391  1.9066 -2.3241  0.7701
 2997TIP3   OH230481   3.099   3.308  12.431 -0.2847  0.5404  0.3446
 2997TIP3    H130482   3.145   3.331  12.512  0.9464 -0.1640 -0.1275
 2997TIP3    H230483   3.041   3.382  12.415  2.6945  2.8919 -0.5145
 2998TIP3   OH230484   5.241   3.712   6.646 -0.2943  0.4092  0.3729
 2998TIP3    H130485   5.304   3.643   6.626 -0.8490  0.0349 -0.0978
 2998TIP3    H230486   5.292   3.777   6.695  0.6501  0.4835 -0.6796
 2999TIP3   OH230487   1.649   5.977  16.564  0.6513 -0.5466  0.1258
 2999TIP3    H130488   1.618   6.027  16.640  2.0272  0.3201  0.1459
 2999TIP3    H230489   1.612   6.024  16.489 -0.4024 -1.1886  0.2200
 3000TIP3   OH230490   6.055   0.568  17.334  0.3674 -0.0088  0.0185
 3000TIP3    H130491   6.058   0.649  17.284  0.3797 -0.1894 -0.2726
 3000TIP3    H230492   6.127   0.576  17.397 -0.9683  1.1663  1.4761
 3001TIP3   OH230493   2.064   6.089   2.986 -0.2361 -0.0700  0.0493
 3001TIP3    H130494   2.152   6.062   3.012  0.5962  0.1525 -2.2945
 3001TIP3    H230495   2.059   6.181   3.010  0.7673  0.3186 -1.1350
 3002TIP3   OH230496   0.687   0.253   6.491  0.0324  0.4409  0.5254
 3002TIP3    H130497   0.741   0.219   6.419 -1.0558  1.5884 -0.9050
 3002TIP3    H230498   0.619   0.187   6.504  1.0487 -0.4549  1.5382
 3003TIP3   OH230499   5.177   0.398  15.647 -0.5248  0.0935  0.8961
 3003TIP3    H130500   5.132   0.332  15.594 -0.3740 -0.6709  1.6965
 3003TIP3    H230501   5.268   0.395  15.617 -0.4712 -0.2264  1.0910
 3004TIP3   OH230502   3.965   4.940   6.248  0.3778  0.0533  0.5266
 3004TIP3    H130503   4.052   4.925   6.283  0.3825 -1.7658 -0.1487
 3004TIP3    H230504   3.911   4.870   6.286 -0.4497  0.3046 -0.1434
 3005TIP3   OH230505   0.138   4.725  16.186  0.2498 -0.2123  0.1611
 3005TIP3    H130506   0.062   4.741  16.130 -0.6004 -2.4460  0.5647
 3005TIP3    H230507   0.203   4.790  16.158 -1.6154  1.4470 -0.5168
 3006TIP3   OH230508   1.579   5.689  14.763 -0.1986  0.1635  0.6808
 3006TIP3    H130509   1.633   5.754  14.718 -2.1596  2.3890  1.3466
 3006TIP3    H230510   1.628   5.607  14.753  2.1586  1.5941 -0.6356
 3007TIP3   OH230511   3.272   4.919  13.992  0.5138 -0.0121 -0.5463
 3007TIP3    H130512   3.285   4.862  14.068  0.5701  1.3610  0.5016
 3007TIP3    H230513   3.303   5.005  14.020  1.9338  0.2312 -2.6261
 3008TIP3   OH230514   5.841   3.169  16.973 -0.0610 -0.3761  0.7819
 3008TIP3    H130515   5.869   3.234  17.037  1.1588 -0.6561  0.5519
 3008TIP3    H230516   5.912   3.105  16.971  0.9451  0.6705 -2.3215
 3009TIP3   OH230517   2.521   3.864  15.655  0.6559  0.0555 -0.3156
 3009TIP3    H130518   2.427   3.869  15.675  0.4541  2.1707 -1.5816
 3009TIP3    H230519   2.525   3.835  15.564  1.3075 -1.0514  0.0381
 3010TIP3   OH230520   0.896   3.736  14.344 -0.0213 -0.2051  0.1581
 3010TIP3    H130521   0.987   3.721  14.321 -0.4288 -2.2793 -0.3267
 3010TIP3    H230522   0.863   3.794  14.276  1.7496  3.6420  2.2898
 3011TIP3   OH230523   2.956   5.967  10.474 -0.4504  0.1122  0.2923
 3011TIP3    H130524   2.875   5.930  10.438 -1.3838  1.2879  1.1370
 3011TIP3    H230525   2.995   5.894  10.523 -0.2542 -0.8743 -1.2385
 3012TIP3   OH230526   4.259   1.765  16.163 -0.1053  0.0078  0.3645
 3012TIP3    H130527   4.189   1.757  16.228  1.0411 -1.9743  1.4710
 3012TIP3    H230528   4.306   1.845  16.187  0.7718 -1.0894  2.5616
 3013TIP3   OH230529   2.960   2.446  11.183  0.1659 -0.5626 -0.4084
 3013TIP3    H130530   2.893   2.495  11.231  0.5912 -0.6440  0.2869
 3013TIP3    H230531   2.949   2.474  11.092 -1.1700 -0.9906 -0.4037
 3014TIP3   OH230532   2.509   4.741   3.426  0.5049 -0.0771 -0.2323
 3014TIP3    H130533   2.531   4.648   3.432 -0.7181 -0.3086  1.7655
 3014TIP3    H230534   2.427   4.749   3.474  1.8397  2.4181  1.8969
 3015TIP3   OH230535   3.220   4.287   5.975  0.4303  0.2170  0.0399
 3015TIP3    H130536   3.252   4.255   6.060 -0.5239  0.4679  0.5061
 3015TIP3    H230537   3.133   4.321   5.994  1.9253  4.7141 -0.0233
 3016TIP3   OH230538   4.714   1.029  12.805 -0.3228  0.4442  0.0423
 3016TIP3    H130539   4.640   0.973  12.829 -0.1395  0.7534  1.4415
 3016TIP3    H230540   4.680   1.118  12.807 -0.1129  0.5289 -0.0831
 3017TIP3   OH230541   4.629   5.989  11.011 -0.0490  0.1031 -0.4029
 3017TIP3    H130542   4.614   5.953  10.924  2.2307 -1.4933 -0.2508
 3017TIP3    H230543   4.724   5.987  11.021 -0.2855 -1.1025  2.6157
 3018TIP3   OH230544   1.859   3.310  13.604  0.5429 -0.0675  0.4501
 3018TIP3    H130545   1.776   3.335  13.563 -1.3950 -3.3344  1.8988
 3018TIP3    H230546   1.893   3.241  13.547  0.1880 -1.4329  1.8374
 3019TIP3   OH230547   6.045   0.239   0.852 -0.2981 -0.1656 -0.4596
 3019TIP3    H130548   6.139   0.256   0.851 -0.4392  1.1596  1.8184
 3019TIP3    H230549   6.022   0.237   0.945 -2.7823  1.1693 -0.9648
 3020TIP3   OH230550   1.435   0.214  16.541 -0.1510  0.1301  0.1934
 3020TIP3    H130551   1.424   0.122  16.516  0.9031 -0.4938  1.8642
 3020TIP3    H230552   1.347   0.243  16.566 -0.3463 -0.6689  0.4546
 3021TIP3   OH230553   5.725   4.000  13.729  0.0636 -0.3277 -0.0986
 3021TIP3    H130554   5.655   3.984  13.792 -1.1520 -0.5090 -1.4535
 3021TIP3    H230555   5.712   4.091  13.701  0.4683 -0.3113 -0.2436
 3022TIP3   OH230556   1.508   5.877  11.430 -0.1188 -0.5997  0.7774
 3022TIP3    H130557   1.495   5.972  11.436  0.5414 -0.3750 -0.8057
 3022TIP3    H230558   1.505   5.858  11.337  1.5173 -1.8607  0.9309
 3023TIP3   OH230559   2.683   4.243  16.340 -0.2165  0.5163 -0.0546
 3023TIP3    H130560   2.721   4.265  16.254  0.7632 -1.6541 -0.2436
 3023TIP3    H230561   2.648   4.155  16.328  0.5478 -0.0964  1.9734
 3024TIP3   OH230562   0.095   4.578   1.969  0.3881  0.5103  0.5056
 3024TIP3    H130563   0.111   4.623   2.051  2.5092 -0.3114  0.6103
 3024TIP3    H230564   0.169   4.517   1.960 -0.9597 -1.0144 -0.9165
 3025TIP3   OH230565   1.166   3.444  11.929 -0.0735  0.1053  0.1591
 3025TIP3    H130566   1.152   3.397  12.012  0.4366 -0.1686  0.0942
 3025TIP3    H230567   1.089   3.499  11.920 -1.0092 -1.1811 -0.0775
 3026TIP3   OH230568   0.591   1.490   3.626 -0.2545  0.8814  0.2140
 3026TIP3    H130569   0.507   1.536   3.627 -0.5088  0.4924 -1.1268
 3026TIP3    H230570   0.575   1.409   3.673 -0.9385  0.3440 -0.8939
 3027TIP3   OH230571   2.093   4.729   1.908 -0.0232 -0.1925 -0.0248
 3027TIP3    H130572   2.058   4.672   1.839  1.3380 -0.4482 -0.5321
 3027TIP3    H230573   2.054   4.694   1.988 -0.9267 -0.4555 -0.5604
 3028TIP3   OH230574   1.620   5.771  11.663 -0.1177  0.7371 -0.1169
 3028TIP3    H130575   1.633   5.706  11.593  1.7354 -0.0325  0.8725
 3028TIP3    H230576   1.578   5.845  11.619 -0.0287 -0.1658 -1.8023
 3029TIP3   OH230577   2.962   1.939  11.007 -1.0726 -0.0904 -0.1040
 3029TIP3    H130578   3.015   2.019  11.010  0.8216 -1.2721 -0.6867
 3029TIP3    H230579   2.996   1.891  10.931 -1.1364 -2.1408  1.1124
 3030TIP3   OH230580   4.163   4.427  12.719  0.4857  0.0800 -0.5310
 3030TIP3    H130581   4.185   4.352  12.664  1.8397  0.2880 -0.3134
 3030TIP3    H230582   4.203   4.406  12.804  0.4979  0.8452 -0.3425
 3031TIP3   OH230583   2.635   5.251   0.339 -0.0151 -0.1545 -0.3678
 3031TIP3    H130584   2.593   5.323   0.292 -0.4898 -0.0993  0.1326
 3031TIP3    H230585   2.627   5.274   0.431  0.3179 -0.5823 -0.2279
 3032TIP3   OH230586   5.814   3.472   1.704  0.0661 -0.4192  0.2424
 3032TIP3    H130587   5.780   3.441   1.620 -0.6183  0.2065  0.2740
 3032TIP3    H230588   5.899   3.509   1.683 -1.3952  2.7306 -0.8433
 3033TIP3   OH230589   1.551   5.155   4.394  0.9779 -0.4942 -0.0004
 3033TIP3    H130590   1.524   5.243   4.366 -0.2842 -0.9559 -0.2991
 3033TIP3    H230591   1.586   5.168   4.482  0.6509  0.2857  0.0204
 3034TIP3   OH230592   5.659   1.439   2.349  0.7153 -0.7206  0.4906
 3034TIP3    H130593   5.647   1.397   2.435 -0.5188  0.1037  0.7523
 3034TIP3    H230594   5.574   1.480   2.331  1.7243  1.2620  0.0421
 3035TIP3   OH230595   0.650   1.332  13.173  0.5884 -0.6512 -0.4715
 3035TIP3    H130596   0.647   1.257  13.232  1.0127 -0.0378  0.3495
 3035TIP3    H230597   0.740   1.365  13.181  1.5726 -2.1561 -3.5112
 3036TIP3   OH230598   5.254   5.256   3.833  0.2469 -0.1639 -0.0369
 3036TIP3    H130599   5.297   5.205   3.764 -0.6159 -0.1787 -0.5762
 3036TIP3    H230600   5.318   5.323   3.856  0.4860 -0.0532 -0.9746
 3037TIP3   OH230601   5.098   2.204   2.612  0.2710  0.5246 -0.0507
 3037TIP3    H130602   5.119   2.245   2.528 -0.7838  1.0784 -0.0552
 3037TIP3    H230603   5.129   2.114   2.603  0.1488  0.5705 -1.0482
 3038TIP3   OH230604   6.358   3.771  14.541 -0.1323  0.2683  0.8103
 3038TIP3    H130605   6.441   3.730  14.566  0.1065 -1.3234 -2.1401
 3038TIP3    H230606   6.292   3.707  14.567  0.1284 -1.4751 -2.3386
 3039TIP3   OH230607   2.675   0.401  16.765 -0.5552 -0.3262 -0.3115
 3039TIP3    H130608   2.589   0.360  16.771 -1.4883  1.4664 -0.8195
 3039TIP3    H230609   2.698   0.396  16.672 -0.8178  0.5668 -0.4269
 3040TIP3   OH230610   3.390   1.517  14.532  0.3765  0.3116 -0.5261
 3040TIP3    H130611   3.315   1.479  14.486  0.2952  0.1412 -0.2514
 3040TIP3    H230612   3.462   1.457  14.514  0.0996 -0.3413  0.4484
 3041TIP3   OH230613   6.487   1.191   6.090 -0.6154 -0.8725 -0.4382
 3041TIP3    H130614   6.509   1.226   6.176  0.0790 -1.3311 -0.4238
 3041TIP3    H230615   6.532   1.248   6.028 -0.6743 -0.8676 -0.4769
 3042TIP3   OH230616   1.978   3.020   4.369 -0.2945 -0.1992 -0.3361
 3042TIP3    H130617   1.921   2.948   4.342 -1.0340 -0.4524  1.7379
 3042TIP3    H230618   2.027   2.985   4.443  1.0720  0.7024 -0.7729
 3043TIP3   OH230619   3.543   3.667   2.113 -0.2932 -0.0460 -0.3245
 3043TIP3    H130620   3.507   3.653   2.201 -0.0813 -1.5426 -0.4426
 3043TIP3    H230621   3.630   3.628   2.117 -0.1179  0.2580 -1.0890
 3044TIP3   OH230622   5.069   1.579  11.938 -0.3016  0.6021 -0.4149
 3044TIP3    H130623   5.096   1.598  11.848  0.8535 -0.5509 -0.3371
 3044TIP3    H230624   5.082   1.661  11.985  1.0322  0.6685 -0.8697
 3045TIP3   OH230625   5.797   3.873   5.094 -0.3214 -0.6222  0.3379
 3045TIP3    H130626   5.887   3.849   5.073 -0.7137 -2.2106  0.2824
 3045TIP3    H230627   5.792   3.869   5.190 -0.4793 -1.2052  0.3125
 3046TIP3   OH230628   6.049   4.110   0.547 -0.1459 -0.1141 -0.4081
 3046TIP3    H130629   5.968   4.159   0.561  0.3275  0.2716  1.1332
 3046TIP3    H230630   6.051   4.046   0.617  0.3678 -0.8517 -1.0765
 3047TIP3   OH230631   0.838   1.434  13.384  0.7650 -0.1883 -0.5141
 3047TIP3    H130632   0.870   1.354  13.343  0.9894 -0.3842  0.0357
 3047TIP3    H230633   0.917   1.478  13.415  0.6066  0.0153 -0.3993
 3048TIP3   OH230634   6.336   5.864   2.736 -0.4137  0.2852  0.4579
 3048TIP3    H130635   6.393   5.849   2.811 -2.0509  0.3945  1.7852
 3048TIP3    H230636   6.248   5.868   2.773 -1.4557 -1.1675 -1.6482
 3049TIP3   OH230637   0.976   2.365   2.668 -0.0428 -0.1324 -0.6201
 3049TIP3    H130638   0.997   2.271   2.664 -1.9224 -0.5823 -0.6619
 3049TIP3    H230639   0.932   2.376   2.752  0.2645  0.7523 -0.5697
 3050TIP3   OH230640   0.239   5.919  11.587 -0.1409 -0.0411 -0.4618
 3050TIP3    H130641   0.243   5.896  11.680 -0.2731 -0.2758 -0.5138
 3050TIP3    H230642   0.296   5.995  11.579  0.3358 -0.3755 -0.2933
 3051TIP3   OH230643   5.862   5.253   4.352  1.0620 -0.5806 -0.2131
 3051TIP3    H130644   5.801   5.316   4.388  1.0315 -0.1140 -1.0621
 3051TIP3    H230645   5.935   5.305   4.320  0.4799 -0.8128 -2.0723
 3052TIP3   OH230646   3.427   0.259   1.509  0.0360 -0.6039 -0.2421
 3052TIP3    H130647   3.411   0.299   1.595 -0.4093 -2.0799  0.4010
 3052TIP3    H230648   3.496   0.312   1.470 -0.6661  0.8954  0.4638
 3053TIP3   OH230649   2.543   1.665  14.592  0.1736  0.1286  0.1377
 3053TIP3    H130650   2.609   1.735  14.590  0.9209 -0.5778 -0.1360
 3053TIP3    H230651   2.520   1.657  14.685 -0.0738  0.8638  0.1532
 3054TIP3   OH230652   5.087   6.300  11.327 -0.5088 -0.6856 -0.3372
 3054TIP3    H130653   5.150   6.344  11.383  0.0565 -1.6269 -0.2155
 3054TIP3    H230654   5.057   6.368  11.267  1.2293 -0.4016 -0.9326
 3055TIP3   OH230655   2.831   6.118  12.264  0.2325 -0.0972  0.1005
 3055TIP3    H130656   2.918   6.156  12.279  0.6486 -0.1899 -1.8633
 3055TIP3    H230657   2.809   6.142  12.174 -2.3320  0.9510  0.9139
 3056TIP3   OH230658   3.207   2.477   1.935  0.0266 -0.0317 -0.0102
 3056TIP3    H130659   3.162   2.507   1.857  0.3966 -1.5649 -0.8692
 3056TIP3    H230660   3.297   2.461   1.906  0.6806  1.2464  1.2225
 3057TIP3   OH230661   5.292   4.783   2.177 -0.1879  0.4254  0.3365
 3057TIP3    H130662   5.353   4.753   2.244 -1.3837 -0.5454  1.0483
 3057TIP3    H230663   5.235   4.846   2.222  0.3208  1.3838 -0.3353
 3058TIP3   OH230664   4.952   5.775  12.569 -0.2273 -0.2609  0.6893
 3058TIP3    H130665   5.039   5.750  12.538 -0.6361 -1.0977  0.1778
 3058TIP3    H230666   4.957   5.870  12.578  0.8079 -0.3184  0.8931
 3059TIP3   OH230667   0.750   3.183  16.019 -0.1368  0.6001  0.7507
 3059TIP3    H130668   0.821   3.160  16.079  1.7239 -2.1169 -2.1699
 3059TIP3    H230669   0.684   3.115  16.033  0.1553  0.1529  0.0174
 3060TIP3   OH230670   0.329   5.429  14.530  0.2385 -0.1962 -0.1264
 3060TIP3    H130671   0.381   5.355  14.499 -1.0110 -0.4984 -1.6539
 3060TIP3    H230672   0.356   5.442  14.621  1.3753 -1.7233 -0.2198
 3061TIP3   OH230673   5.115   2.459  15.683  0.2727  0.1740 -0.1148
 3061TIP3    H130674   5.093   2.446  15.591 -0.4608 -0.0971  0.0947
 3061TIP3    H230675   5.046   2.413  15.731  0.5304  0.4946  0.5721
 3062TIP3   OH230676   1.587   0.885  16.094 -0.6038  0.4357  0.1427
 3062TIP3    H130677   1.540   0.925  16.021  0.2755  0.0020 -0.6753
 3062TIP3    H230678   1.612   0.798  16.062  0.2431  0.4376  0.7710
 3063TIP3   OH230679   0.607   6.508   3.121 -0.2508 -0.6606  0.7254
 3063TIP3    H130680   0.636   6.465   3.201 -0.9938 -0.9310  0.8545
 3063TIP3    H230681   0.512   6.500   3.122 -0.5587  2.1887  1.4304
 3064TIP3   OH230682   5.911   1.702  17.426  0.2478  0.0054 -0.1582
 3064TIP3    H130683   5.986   1.687  17.368 -0.6865 -0.4175 -1.3029
 3064TIP3    H230684   5.874   1.615  17.441 -0.0710  0.2177  0.3342
 3065TIP3   OH230685   5.961   3.423   3.054 -0.0493  0.1000 -0.6391
 3065TIP3    H130686   6.025   3.376   3.001 -1.7905 -0.1336 -2.6405
 3065TIP3    H230687   5.919   3.484   2.993  0.2531  2.3762  1.2685
 3066TIP3   OH230688   4.462   4.890   4.071 -0.1966 -0.0458  0.0471
 3066TIP3    H130689   4.422   4.888   4.158 -2.8131  1.5258 -1.0007
 3066TIP3    H230690   4.469   4.797   4.047 -3.9192 -0.5100  0.1368
 3067TIP3   OH230691   6.447   6.331  16.341 -0.1966  0.2882  0.4187
 3067TIP3    H130692   6.421   6.341  16.249  2.0359  1.0265 -0.2122
 3067TIP3    H230693   6.395   6.397  16.387 -2.1783 -0.8473 -0.0750
 3068TIP3   OH230694   4.899   5.751   6.296 -0.4971  0.4198  0.5533
 3068TIP3    H130695   4.944   5.681   6.249 -1.4473  0.1016  0.0887
 3068TIP3    H230696   4.969   5.797   6.342  0.4114  0.4896 -0.8355
 3069TIP3   OH230697   2.700   5.535  13.826  0.1243  0.1048  0.6679
 3069TIP3    H130698   2.765   5.574  13.884 -0.1325 -0.2005  1.1636
 3069TIP3    H230699   2.621   5.587  13.839 -0.1038 -0.3255  1.0334
 3070TIP3   OH230700   1.266   4.598   4.203  0.2469  0.1502 -0.4241
 3070TIP3    H130701   1.274   4.690   4.228  0.7319 -0.2098  0.8149
 3070TIP3    H230702   1.172   4.584   4.198  0.1447  0.4946  0.2876
 3071TIP3   OH230703   5.678   5.402   2.995 -0.5008 -0.3724  0.0030
 3071TIP3    H130704   5.732   5.395   3.074 -0.0849  1.6420 -0.0375
 3071TIP3    H230705   5.622   5.477   3.011  0.5368  0.9631 -2.1169
 3072TIP3   OH230706   5.632   4.296  17.026 -0.5463 -0.8375  0.2469
 3072TIP3    H130707   5.583   4.365  16.982 -0.2815 -1.4166 -1.0115
 3072TIP3    H230708   5.575   4.219  17.022 -1.2904 -0.4848  2.5770
 3073TIP3   OH230709   1.111   5.306  13.725  0.0430 -0.2525  0.0440
 3073TIP3    H130710   1.062   5.368  13.670  0.6753 -0.1475 -0.4209
 3073TIP3    H230711   1.198   5.346  13.734 -0.1123 -0.1639  1.3189
 3074TIP3   OH230712   0.038   4.877   6.546  0.0932 -0.4650 -0.0639
 3074TIP3    H130713   0.082   4.815   6.488  0.8209  0.7388 -0.8282
 3074TIP3    H230714   0.087   4.959   6.538 -0.8188  0.2290  0.9451
 3075TIP3   OH230715   3.617   1.502  14.184 -0.3093  0.2481 -0.1326
 3075TIP3    H130716   3.586   1.481  14.272  0.1779  0.6223  0.1315
 3075TIP3    H230717   3.700   1.456  14.175  0.3865  1.3939  0.1666
 3076TIP3   OH230718   6.481   4.882   2.426  0.1409  1.0223  0.0052
 3076TIP3    H130719   6.443   4.797   2.448  0.1689  0.4329 -2.0472
 3076TIP3    H230720   6.559   4.861   2.375  1.9329  2.2662  2.0925
 3077TIP3   OH230721   2.429   3.186  16.319  0.4587  0.2559 -0.1207
 3077TIP3    H130722   2.347   3.195  16.367  0.0241 -0.6028 -0.6707
 3077TIP3    H230723   2.420   3.246  16.245  0.0392 -0.3004 -0.5357
 3078TIP3   OH230724   1.107   5.292   1.458 -0.2057  0.1637 -0.6732
 3078TIP3    H130725   1.126   5.212   1.506 -0.8447 -0.3914 -1.3448
 3078TIP3    H230726   1.193   5.332   1.445  0.1822 -0.7014 -0.8417
 3079TIP3   OH230727   2.874   2.177   6.032 -0.2305  0.0852 -0.6533
 3079TIP3    H130728   2.809   2.199   6.098 -1.0040 -0.1654 -1.3108
 3079TIP3    H230729   2.952   2.151   6.081 -0.2053  1.5881  0.1497
 3080TIP3   OH230730   0.063   6.160  16.799 -0.3776  0.3369 -0.2807
 3080TIP3    H130731   0.013   6.202  16.729  1.4403  1.3272 -1.0379
 3080TIP3    H230732   0.124   6.226  16.829  0.0467 -0.6267  1.0833
 3081TIP3   OH230733   0.965   1.044  15.516  0.4877 -0.3652  0.0315
 3081TIP3    H130734   1.050   1.070  15.552  0.0989 -0.1413  0.8123
 3081TIP3    H230735   0.987   0.988  15.441  1.3231 -0.4749  0.3433
 3082TIP3   OH230736   0.303   3.527  17.443  0.3823  0.0056 -0.8630
 3082TIP3    H130737   0.388   3.569  17.431  0.8413 -1.1248 -1.7802
 3082TIP3    H230738   0.271   3.512  17.354 -0.6963  0.2245 -0.5327
 3083TIP3   OH230739   0.408   1.016  14.451 -0.5776  0.5427  0.2336
 3083TIP3    H130740   0.444   0.997  14.537 -1.2003 -2.4316 -0.0739
 3083TIP3    H230741   0.313   1.020  14.465 -0.8813 -2.2516 -0.6015
 3084TIP3   OH230742   6.528   5.165  12.673  0.2907 -0.6408  0.4010
 3084TIP3    H130743   6.586   5.157  12.750  1.8748 -0.4150 -0.7130
 3084TIP3    H230744   6.498   5.255  12.675 -0.3598 -0.8628  1.2051
 3085TIP3   OH230745   3.651   4.743  17.336 -0.0676 -0.1005 -0.1134
 3085TIP3    H130746   3.584   4.676  17.317  0.9231 -1.4318  0.9051
 3085TIP3    H230747   3.601   4.819  17.364 -1.2731 -0.1445 -1.9669
 3086TIP3   OH230748   1.795   1.267   2.712  0.2813  0.0989  0.7146
 3086TIP3    H130749   1.752   1.349   2.739  1.6124 -0.0886  3.8018
 3086TIP3    H230750   1.867   1.296   2.655  0.5364  1.0553  1.4933
 3087TIP3   OH230751   5.828   5.707  16.941  0.4088  0.0857  0.2805
 3087TIP3    H130752   5.756   5.649  16.968 -0.1977  0.3398 -0.7326
 3087TIP3    H230753   5.809   5.790  16.984 -0.9725  0.7182 -1.4024
 3088TIP3   OH230754   4.336   2.932   2.935  0.0622  0.4629  0.0765
 3088TIP3    H130755   4.389   2.889   2.868 -0.6550  0.8625 -0.7688
 3088TIP3    H230756   4.400   2.969   2.996  0.7361 -2.7851  1.5525
 3089TIP3   OH230757   2.107   5.177   5.680 -0.0098 -0.2653 -0.0831
 3089TIP3    H130758   2.045   5.156   5.609  2.3427 -1.5220 -1.9254
 3089TIP3    H230759   2.140   5.264   5.658 -1.1260  0.4484  0.9545
 3090TIP3   OH230760   3.706   6.063  12.035  0.1143 -0.1050  0.7684
 3090TIP3    H130761   3.767   6.133  12.056  0.4864 -0.3346  0.4716
 3090TIP3    H230762   3.749   6.014  11.965 -1.3746  1.0087 -1.0130
 3091TIP3   OH230763   6.268   4.275   0.631 -0.0557 -0.0926  1.1493
 3091TIP3    H130764   6.337   4.210   0.646  0.8439  0.5301 -0.1254
 3091TIP3    H230765   6.213   4.236   0.562  1.0358  0.8457 -0.3158
 3092TIP3   OH230766   1.634   1.834   4.291 -0.4692 -0.2612  0.4197
 3092TIP3    H130767   1.687   1.755   4.284 -0.5869 -0.3915  0.9496
 3092TIP3    H230768   1.571   1.815   4.361 -1.7243 -0.4046 -0.7111
 3093TIP3   OH230769   3.593   5.971  14.223  0.2528  0.0015  0.3719
 3093TIP3    H130770   3.661   5.914  14.188  0.1774 -0.2297  0.5958
 3093TIP3    H230771   3.591   5.952  14.316 -2.7303 -2.9123 -0.0631
 3094TIP3   OH230772   4.409   6.242  14.452 -0.4264  0.3370  0.0581
 3094TIP3    H130773   4.373   6.165  14.409 -0.2734  0.4935 -0.3520
 3094TIP3    H230774   4.333   6.298  14.471 -0.3726  0.8033 -1.0727
 3095TIP3   OH230775   2.582   2.616   0.196  0.0092 -0.1087 -0.4047
 3095TIP3    H130776   2.512   2.610   0.131 -1.5629 -1.2718  1.2826
 3095TIP3    H230777   2.630   2.535   0.187 -0.2222 -0.2797 -0.1244
 3096TIP3   OH230778   1.569   3.869  16.763 -0.1455  0.4642 -0.6793
 3096TIP3    H130779   1.561   3.776  16.786 -0.5189  0.8553  0.8768
 3096TIP3    H230780   1.651   3.874  16.714 -0.3512 -0.7521 -1.1986
 3097TIP3   OH230781   0.198   5.970  11.879 -0.3571  0.2588  0.1074
 3097TIP3    H130782   0.113   5.988  11.918 -0.9348  0.2085 -1.0734
 3097TIP3    H230783   0.259   6.026  11.927 -1.2084  1.0248  0.3229
 3098TIP3   OH230784   1.777   0.722  16.261  0.0245 -0.3856 -0.1167
 3098TIP3    H130785   1.765   0.784  16.189  0.8682  0.0855  0.1291
 3098TIP3    H230786   1.793   0.639  16.217  2.9008  0.3148 -0.6065
 3099TIP3   OH230787   2.082   6.189   6.450 -0.0554 -0.3750 -0.4100
 3099TIP3    H130788   1.990   6.208   6.465 -0.2566 -2.3204  1.2917
 3099TIP3    H230789   2.122   6.191   6.537  2.0825  2.6765 -1.3006
 3100TIP3   OH230790   2.752   3.725   6.180  0.0538 -1.0387 -0.3180
 3100TIP3    H130791   2.675   3.780   6.170  0.1362 -0.6691  0.9010
 3100TIP3    H230792   2.722   3.652   6.234  1.0863  0.4012  2.4113
 3101TIP3   OH230793   1.166   4.540   2.342 -0.5075 -0.2358  0.1841
 3101TIP3    H130794   1.168   4.635   2.352 -0.4501 -0.1890 -0.2406
 3101TIP3    H230795   1.216   4.523   2.262  1.2146 -0.7926  1.3221
 3102TIP3   OH230796   5.252   0.262   4.960 -0.1362 -0.1148  0.2586
 3102TIP3    H130797   5.292   0.185   4.920 -2.3302 -0.6679 -1.0287
 3102TIP3    H230798   5.204   0.228   5.035 -1.9357 -0.2503 -0.8828
 3103TIP3   OH230799   2.635   4.804  15.490 -0.2874  0.2672 -0.1596
 3103TIP3    H130800   2.577   4.874  15.520 -0.0956  0.6794 -0.7426
 3103TIP3    H230801   2.686   4.780  15.567 -0.9476  0.1809  0.2596
 3104TIP3   OH230802   2.183   0.909  13.369 -0.4933 -0.3902 -1.1411
 3104TIP3    H130803   2.168   1.003  13.368  1.2132 -0.0571 -0.2908
 3104TIP3    H230804   2.181   0.883  13.277 -0.6369  0.5446 -1.4106
 3105TIP3   OH230805   5.780   4.097  15.778  0.0104 -0.2929 -0.5750
 3105TIP3    H130806   5.688   4.076  15.794  0.1401 -0.0673  0.5362
 3105TIP3    H230807   5.817   4.110  15.865 -0.0076  4.3045 -1.0119
 3106TIP3   OH230808   2.346   1.167  15.976 -0.3644  0.0167 -0.2091
 3106TIP3    H130809   2.341   1.211  16.061 -1.0325  0.9319 -0.7084
 3106TIP3    H230810   2.333   1.237  15.912  0.4874 -0.6027 -1.0864
 3107TIP3   OH230811   2.000   3.959   0.937  0.4954  0.3667  0.8122
 3107TIP3    H130812   1.980   3.941   1.029 -1.2827  0.4642  0.4749
 3107TIP3    H230813   1.971   3.882   0.890  0.6846  0.6331  0.2516
 3108TIP3   OH230814   3.161   3.993  16.960 -0.0192  0.6987  0.5306
 3108TIP3    H130815   3.116   4.037  17.032  0.1381  0.7828  0.5775
 3108TIP3    H230816   3.254   3.998  16.983 -0.1047 -2.1292  1.9493
 3109TIP3   OH230817   2.720   2.741   6.158  0.7186  0.0353  0.3130
 3109TIP3    H130818   2.720   2.718   6.251  0.2887 -1.2114  0.0176
 3109TIP3    H230819   2.695   2.661   6.113  2.0587  0.2926 -0.9734
 3110TIP3   OH230820   2.160   6.593   4.059 -0.5261  0.7497  0.6784
 3110TIP3    H130821   2.217   6.579   3.984 -1.5578 -1.8884  0.2851
 3110TIP3    H230822   2.219   6.602   4.134  0.4809  2.5461 -0.2827
 3111TIP3   OH230823   2.867   0.503  10.659  0.3281 -0.0949 -0.2620
 3111TIP3    H130824   2.880   0.532  10.569 -0.2630  2.2471  0.3132
 3111TIP3    H230825   2.781   0.461  10.659 -0.6765  1.8471 -0.4355
 3112TIP3   OH230826   2.967   1.063  13.191 -0.9430  0.6563  0.5022
 3112TIP3    H130827   3.049   1.029  13.154 -2.2599 -2.2958  0.0568
 3112TIP3    H230828   2.991   1.089  13.280  0.5970  0.3546  0.2061
 3113TIP3   OH230829   0.639   4.130  15.642  0.5759 -0.4621 -0.2375
 3113TIP3    H130830   0.705   4.196  15.621  0.3881  0.7159  2.5148
 3113TIP3    H230831   0.685   4.046  15.636  2.5996  0.3491  2.2465
 3114TIP3   OH230832   4.705   0.087   1.518 -0.6647 -0.3503  0.5556
 3114TIP3    H130833   4.750   0.162   1.557 -0.5993 -0.8249  1.4242
 3114TIP3    H230834   4.751   0.011   1.554  1.2170 -0.8639 -2.5727
 3115TIP3   OH230835   3.943   6.329  16.754  0.1504  0.4516  0.4229
 3115TIP3    H130836   3.851   6.355  16.746 -0.3599 -1.2186  0.3800
 3115TIP3    H230837   3.956   6.318  16.848 -0.3962 -1.5107  0.3115
 3116TIP3   OH230838   3.297   4.396   3.657 -0.9771  0.3358 -0.0166
 3116TIP3    H130839   3.298   4.482   3.616  0.2499  0.1648 -0.3850
 3116TIP3    H230840   3.330   4.337   3.590  0.0118 -0.1163  0.8388
 3117TIP3   OH230841   5.725   3.305  10.861 -0.2743  0.3501  0.0341
 3117TIP3    H130842   5.697   3.214  10.853  1.3594 -0.3033  1.1788
 3117TIP3    H230843   5.699   3.331  10.949  0.0221  0.7140  0.0180
 3118TIP3   OH230844   0.107   3.758   2.299  0.4798  0.0067 -0.2893
 3118TIP3    H130845   0.090   3.673   2.340 -0.4965  0.4168  0.1922
 3118TIP3    H230846   0.195   3.750   2.263  0.7406 -0.9189  0.5031
 3119TIP3   OH230847   0.262   1.777   4.982 -0.0197  0.3490 -0.1187
 3119TIP3    H130848   0.258   1.863   5.026 -1.2543  1.5174 -2.3071
 3119TIP3    H230849   0.318   1.792   4.906  1.4176 -1.3999  0.5273
 3120TIP3   OH230850   0.130   6.292   6.190 -0.1434  0.1904  0.0492
 3120TIP3    H130851   0.098   6.253   6.109 -0.3498 -0.2900  0.3558
 3120TIP3    H230852   0.201   6.350   6.162  1.4562 -1.7911 -0.2892
 3121TIP3   OH230853   1.804   1.357   5.848 -0.2191 -0.8127 -0.0412
 3121TIP3    H130854   1.779   1.354   5.756  2.5223 -3.0327 -0.8551
 3121TIP3    H230855   1.883   1.303   5.853 -1.0461 -1.9612  3.8909
 3122TIP3   OH230856   0.148   2.168  15.307 -0.3210 -0.1030 -0.4198
 3122TIP3    H130857   0.211   2.101  15.333 -1.5011 -0.4996  1.6408
 3122TIP3    H230858   0.160   2.239  15.370 -1.9654 -0.2463  0.1094
 3123TIP3   OH230859   1.784   5.164  15.979 -0.3902  0.0905 -0.8069
 3123TIP3    H130860   1.749   5.080  15.949  0.3493 -0.1500 -1.0067
 3123TIP3    H230861   1.785   5.157  16.074  0.0013 -0.2605 -0.8372
 3124TIP3   OH230862   5.042   6.464  11.125  0.0231  0.0411 -0.3467
 3124TIP3    H130863   5.013   6.446  11.035 -0.0241  2.2180 -0.8261
 3124TIP3    H230864   5.006   6.550  11.145  0.5612 -0.1341  1.5513
 3125TIP3   OH230865   3.236   1.731  11.741  0.3341 -0.6956 -0.2611
 3125TIP3    H130866   3.184   1.800  11.701  0.2995 -0.2235  0.5792
 3125TIP3    H230867   3.173   1.662  11.760  0.5021 -1.3370 -1.8704
 3126TIP3   OH230868   0.709   3.439   4.675  0.1086 -0.5699  0.3255
 3126TIP3    H130869   0.658   3.512   4.710  0.2074 -0.2273 -0.2273
 3126TIP3    H230870   0.648   3.390   4.621  0.6902  0.7139 -1.5973
 3127TIP3   OH230871   0.815   2.286  14.627 -0.2595  0.9971 -0.0745
 3127TIP3    H130872   0.721   2.286  14.611 -0.4619 -0.9997  0.8174
 3127TIP3    H230873   0.842   2.195  14.611  0.9489  0.8020  2.5950
 3128TIP3   OH230874   0.654   3.075   2.861  0.3872  0.1960 -0.4562
 3128TIP3    H130875   0.712   3.103   2.791 -0.2149  2.4312 -0.1201
 3128TIP3    H230876   0.574   3.046   2.817  0.2124  1.0830 -0.7356
 3129TIP3   OH230877   0.004   2.756  11.182  0.3003 -0.0750 -0.0501
 3129TIP3    H130878  -0.001   2.672  11.135 -0.2920 -1.3830  2.1819
 3129TIP3    H230879   0.054   2.736  11.261 -1.9112  1.0029  1.7562
 3130TIP3   OH230880   3.320   4.147   4.920 -0.0223 -0.8561  0.1208
 3130TIP3    H130881   3.333   4.088   4.846  0.6381 -0.8295  0.2102
 3130TIP3    H230882   3.228   4.133   4.945 -0.2127 -0.9648 -0.6045
 3131TIP3   OH230883   1.139   3.259   4.179  0.2764  0.3490 -1.3363
 3131TIP3    H130884   1.221   3.217   4.204 -0.0123  0.4542 -0.1629
 3131TIP3    H230885   1.164   3.322   4.111  1.3892  1.2932 -0.1008
 3132TIP3   OH230886   4.729   6.067  15.931 -0.3517 -0.4088 -0.7095
 3132TIP3    H130887   4.656   6.110  15.885 -0.5824 -0.2527 -0.2010
 3132TIP3    H230888   4.787   6.140  15.956 -1.8204 -0.0849  2.1061
 3133TIP3   OH230889   4.771   6.086  12.210  0.5266 -0.0537 -0.5350
 3133TIP3    H130890   4.841   6.034  12.171  1.3799  1.8219 -1.6940
 3133TIP3    H230891   4.813   6.171  12.229 -0.7407  0.1917  1.4221
 3134TIP3   OH230892   6.750   1.634  15.353 -0.0511 -0.0760  0.1951
 3134TIP3    H130893   6.789   1.548  15.370 -0.5601  0.0475  2.3354
 3134TIP3    H230894   6.811   1.695  15.395 -0.4244  0.4763 -0.0619
 3135TIP3   OH230895   0.065   6.204  16.280 -0.6189 -0.5170 -0.2226
 3135TIP3    H130896   0.060   6.142  16.207  1.5372 -1.1292  0.0746
 3135TIP3    H230897  -0.016   6.191  16.328 -1.1578 -1.5917 -1.3514
 3136TIP3   OH230898   0.302   5.695  16.591 -0.2932 -0.1732  0.4096
 3136TIP3    H130899   0.236   5.763  16.589  0.1968  0.3293 -2.7056
 3136TIP3    H230900   0.374   5.733  16.641 -1.7768 -0.2939  2.8158
 3137TIP3   OH230901   6.071   3.642  14.829  0.1326 -0.1724  0.1818
 3137TIP3    H130902   6.138   3.575  14.815 -0.1383 -0.6628  1.1246
 3137TIP3    H230903   6.043   3.629  14.919  0.8403  1.9338  0.7622
 3138TIP3   OH230904   4.460   6.482  12.010  0.0283  0.0852  0.0890
 3138TIP3    H130905   4.445   6.461  11.918  0.7307  1.1347 -0.2898
 3138TIP3    H230906   4.383   6.448  12.056 -0.1144 -0.8570 -0.8147
 3139TIP3   OH230907   5.260   2.984   3.644 -0.1933 -0.1214 -0.2234
 3139TIP3    H130908   5.165   2.986   3.652 -0.1680 -1.8634  1.4693
 3139TIP3    H230909   5.276   2.962   3.552 -1.4262  0.0963 -0.5106
 3140TIP3   OH230910   6.375   4.686   1.195  0.3639  0.3056 -0.1046
 3140TIP3    H130911   6.322   4.647   1.127 -0.6667  1.3741  0.0486
 3140TIP3    H230912   6.404   4.612   1.249 -0.3259 -0.3699 -0.6438
 3141TIP3   OH230913   5.988   2.771   3.901 -0.4666  0.1706 -0.5185
 3141TIP3    H130914   6.080   2.778   3.874 -0.5210 -0.1395 -0.7910
 3141TIP3    H230915   5.980   2.834   3.972  0.2378 -0.5843  0.2568
 3142TIP3   OH230916   3.940   5.861  16.216  0.5532  0.0512  0.4003
 3142TIP3    H130917   3.892   5.846  16.298 -0.1895 -1.2775 -0.2497
 3142TIP3    H230918   3.968   5.953  16.221 -1.4888  0.6879  1.1059
 3143TIP3   OH230919   4.543   0.029  13.344  0.2488  0.2032  0.1284
 3143TIP3    H130920   4.504   0.041  13.430  0.2494 -0.8206  0.2893
 3143TIP3    H230921   4.469   0.009  13.286  0.1559  1.6226 -0.2837
 3144TIP3   OH230922   1.496   3.929   5.000  0.1660  0.4522  0.1885
 3144TIP3    H130923   1.522   4.021   5.005  2.7010 -0.1404 -0.4278
 3144TIP3    H230924   1.482   3.913   4.907 -1.9509  0.5810  0.4484
 3145TIP3   OH230925   3.048   4.277  14.002 -0.6108  0.4894  0.4571
 3145TIP3    H130926   2.974   4.286  13.942 -1.7179  0.2595  1.7433
 3145TIP3    H230927   3.018   4.318  14.083  0.9990  1.1537  0.7553
 3146TIP3   OH230928   1.472   4.625  15.507  0.2697 -0.2007  0.0227
 3146TIP3    H130929   1.403   4.558  15.505 -1.0525  0.9789  2.3654
 3146TIP3    H230930   1.425   4.707  15.491  1.1417  0.6104  1.4682
 3147TIP3   OH230931   4.496   3.834  14.688 -0.2407 -0.2964 -0.1941
 3147TIP3    H130932   4.414   3.816  14.733  0.2399 -2.8488 -0.2135
 3147TIP3    H230933   4.491   3.783  14.607  0.1550  1.8725 -1.6870
 3148TIP3   OH230934   4.920   1.651   2.291 -0.6676 -0.0394 -0.5177
 3148TIP3    H130935   4.937   1.617   2.378 -0.7646 -1.7155 -1.1256
 3148TIP3    H230936   4.888   1.576   2.241 -0.5383  0.8609 -2.0263
 3149TIP3   OH230937   5.598   0.876  14.196  0.7415 -0.1497  0.3460
 3149TIP3    H130938   5.583   0.953  14.250  1.3174  1.8374 -2.1235
 3149TIP3    H230939   5.510   0.841  14.180  0.5616 -0.8255  2.4982
 3150TIP3   OH230940   1.631   2.271   4.820  0.0546  0.3729 -0.1419
 3150TIP3    H130941   1.583   2.286   4.902  1.5532 -1.0978  1.0650
 3150TIP3    H230942   1.717   2.310   4.835  2.3686 -4.4799  1.2834
 3151TIP3   OH230943   4.500   4.182   6.296  0.5140  0.2998 -0.3572
 3151TIP3    H130944   4.412   4.180   6.260 -0.1067  1.7722  0.9588
 3151TIP3    H230945   4.527   4.273   6.289  0.7616  0.4481  1.8498
 3152TIP3   OH230946   6.485   1.724  10.708  0.4860 -0.7521  0.2900
 3152TIP3    H130947   6.405   1.742  10.658 -0.0519 -1.6205  0.8196
 3152TIP3    H230948   6.472   1.637  10.745  0.3722  0.2656  2.8765
 3153TIP3   OH230949   5.362   5.154  15.362 -0.2819 -0.0754 -0.2638
 3153TIP3    H130950   5.301   5.188  15.296  0.9309  0.9412 -0.9141
 3153TIP3    H230951   5.373   5.062  15.339  0.0168  0.2303 -1.4250
 3154TIP3   OH230952   2.860   4.466   5.274  0.8224 -0.0481  0.1598
 3154TIP3    H130953   2.912   4.516   5.336  1.3720 -1.9993  1.3746
 3154TIP3    H230954   2.771   4.501   5.283  1.1208  0.4742  1.1898
 3155TIP3   OH230955   0.379   0.521  11.565  0.2442  0.3673  0.1435
 3155TIP3    H130956   0.338   0.607  11.575 -0.6921 -0.0770  0.2048
 3155TIP3    H230957   0.366   0.478  11.649  0.0112 -0.1260 -0.1411
 3156TIP3   OH230958   3.193   2.738  15.008 -0.8214 -0.0722 -0.2262
 3156TIP3    H130959   3.184   2.791  15.087  2.4852 -0.2313  0.4081
 3156TIP3    H230960   3.176   2.648  15.037  2.3389 -0.4136  0.9500
 3157TIP3   OH230961   5.899   1.083  12.766 -0.0751  0.3098 -0.8772
 3157TIP3    H130962   5.827   1.135  12.729  0.4976 -0.1281 -2.6827
 3157TIP3    H230963   5.903   1.005  12.712  0.8936 -0.3201  0.0622
 3158TIP3   OH230964   0.333   4.847  14.776 -0.1033  0.1702 -0.0911
 3158TIP3    H130965   0.294   4.804  14.700 -1.4162  2.2438 -0.6804
 3158TIP3    H230966   0.344   4.777  14.840 -0.4083 -1.3467 -1.6285
 3159TIP3   OH230967   0.953   0.906  13.148  0.5091  0.0662  0.5283
 3159TIP3    H130968   0.997   0.836  13.197  0.7319 -1.0157 -1.1337
 3159TIP3    H230969   0.975   0.888  13.056 -1.8796  0.5737 -0.2121
 3160TIP3   OH230970   2.118   6.471  13.137  0.0931  0.1132 -0.2278
 3160TIP3    H130971   2.140   6.418  13.060  1.1228 -0.6373  0.5573
 3160TIP3    H230972   2.175   6.548  13.129 -0.4206  0.4546 -0.6560
 3161TIP3   OH230973   5.109   6.674  11.947  0.1713  0.7543 -0.2514
 3161TIP3    H130974   5.136   6.685  11.856 -0.4700  2.0148 -0.3056
 3161TIP3    H230975   5.018   6.643  11.941  0.4013  0.0064 -0.0331
 3162TIP3   OH230976   2.147   4.008   3.143 -0.5529 -0.0086 -0.6538
 3162TIP3    H130977   2.058   3.995   3.110 -0.0396 -0.7289 -1.8273
 3162TIP3    H230978   2.154   3.951   3.219 -0.9349 -0.3207 -0.8513
 3163TIP3   OH230979   2.074   1.419  16.149 -0.2038 -0.1109 -0.0364
 3163TIP3    H130980   1.998   1.464  16.110 -0.0701 -0.5368 -0.8229
 3163TIP3    H230981   2.038   1.336  16.181 -0.1145 -0.2109 -0.1958
 3164TIP3   OH230982   5.957   6.410  12.173 -0.3683 -0.2042  0.0688
 3164TIP3    H130983   5.973   6.317  12.187 -1.8449 -0.6750 -1.0411
 3164TIP3    H230984   5.972   6.423  12.079 -0.9560  0.4880  0.0632
 3165TIP3   OH230985   4.665   0.623   2.808  0.4149  0.1453  0.4548
 3165TIP3    H130986   4.632   0.697   2.859  0.5909  2.3667 -2.3695
 3165TIP3    H230987   4.711   0.569   2.871  1.2666  3.0613  2.5513
 3166TIP3   OH230988   5.420   3.552   5.435 -0.0303 -0.0731 -0.1629
 3166TIP3    H130989   5.381   3.530   5.350 -0.8584  0.9684 -0.0684
 3166TIP3    H230990   5.515   3.556   5.418 -0.2995  1.8571 -1.4669
 3167TIP3   OH230991   6.655   1.922   1.667  0.1665 -0.1627  0.0459
 3167TIP3    H130992   6.633   1.973   1.745 -1.4253 -0.7672  0.0351
 3167TIP3    H230993   6.692   1.840   1.701 -1.2219 -0.7461  0.2459
 3168TIP3   OH230994   5.235   4.614  11.956  0.3423  0.5557  0.1036
 3168TIP3    H130995   5.322   4.653  11.954 -0.0524  1.4748  0.6876
 3168TIP3    H230996   5.220   4.587  11.865  0.5454  1.9342 -0.3658
 3169TIP3   OH230997   1.432   0.850  10.895  0.3035 -0.4004  0.1721
 3169TIP3    H130998   1.349   0.863  10.848  0.8835 -0.5139 -0.9173
 3169TIP3    H230999   1.442   0.930  10.947 -0.9502 -0.7986  1.0563
 3170TIP3   OH231000   4.292   6.756  11.928 -0.2015  0.3917  0.3923
 3170TIP3    H131001   4.199   6.733  11.923 -0.5551  1.4531  1.5843
 3170TIP3    H231002   4.326   6.704  12.001 -0.1683  0.9307  0.7719
 3171TIP3   OH231003   5.221   6.329  15.247  0.0626 -0.2546 -0.0449
 3171TIP3    H131004   5.248   6.419  15.229  0.9746 -0.4724  0.1586
 3171TIP3    H231005   5.301   6.285  15.276 -0.3693 -1.1322 -0.1310
 3172TIP3   OH231006   4.948   6.298  15.199 -0.2613  0.3593 -0.4466
 3172TIP3    H131007   5.033   6.303  15.155 -0.4415 -0.5423 -0.9098
 3172TIP3    H231008   4.968   6.311  15.292  0.5623 -1.2158 -0.3740
 3173TIP3   OH231009   0.684   1.210  13.602  0.1559 -0.2754  0.2192
 3173TIP3    H131010   0.629   1.232  13.677  0.0330 -2.3274  0.7999
 3173TIP3    H231011   0.766   1.257  13.618 -0.3115  0.3056  0.9891
 3174TIP3   OH231012   6.655   0.177  17.106 -0.5181 -0.3188  0.3149
 3174TIP3    H131013   6.626   0.263  17.076 -0.0113 -1.0559 -2.6537
 3174TIP3    H231014   6.693   0.193  17.192  0.0477  2.5353 -0.3510
 3175TIP3   OH231015   6.176   4.147  16.963 -0.0898 -0.7780 -0.1393
 3175TIP3    H131016   6.157   4.235  16.995 -0.7928 -0.5921 -1.0281
 3175TIP3    H231017   6.102   4.094  16.992  0.1403 -1.0019  0.0548
 3176TIP3   OH231018   3.846   1.866  13.873  0.4037 -0.1725  0.1106
 3176TIP3    H131019   3.935   1.869  13.909  0.0087  0.8230  1.0729
 3176TIP3    H231020   3.856   1.821  13.790  1.5523 -1.4850  0.9134
 3177TIP3   OH231021   5.762   5.054  14.842 -0.0317 -0.0913 -0.0004
 3177TIP3    H131022   5.726   4.977  14.886 -2.3312 -0.2512 -1.9679
 3177TIP3    H231023   5.743   5.127  14.902  0.3710 -0.7657  0.9712
 3178TIP3   OH231024   1.145   0.807  11.365  0.0165  0.5745 -0.0704
 3178TIP3    H131025   1.140   0.740  11.432  0.1734 -0.8647 -1.4387
 3178TIP3    H231026   1.054   0.819  11.336  0.1834 -0.4860 -1.1362
 3179TIP3   OH231027   1.894   3.579  11.706  0.0224 -0.1108  0.1566
 3179TIP3    H131028   1.861   3.661  11.671  0.8286 -0.4523 -1.4999
 3179TIP3    H231029   1.990   3.587  11.699  0.2533 -0.1618  2.4362
 3180TIP3   OH231030   0.873   6.440   3.599  0.2925  0.2276  0.1143
 3180TIP3    H131031   0.885   6.523   3.553  1.4768 -0.1356 -0.2906
 3180TIP3    H231032   0.957   6.395   3.587 -0.0608 -0.6869  1.0044
 3181TIP3   OH231033   4.721   1.882   2.492 -0.0551 -0.3962  0.3311
 3181TIP3    H131034   4.784   1.893   2.420  2.0062  0.1801  2.1229
 3181TIP3    H231035   4.747   1.947   2.557 -2.7288  0.0597  1.0860
 3182TIP3   OH231036   1.251   5.278   3.405  0.2897 -0.4012 -0.2929
 3182TIP3    H131037   1.161   5.245   3.408  0.4648 -0.8163  0.6749
 3182TIP3    H231038   1.242   5.368   3.372 -0.5140 -0.3151  0.1262
 3183TIP3   OH231039   5.884   5.635   3.724  0.3537  0.5749  0.0464
 3183TIP3    H131040   5.834   5.715   3.708 -1.5459 -1.0998 -3.4083
 3183TIP3    H231041   5.817   5.567   3.737  1.8753 -0.8349  0.9526
 3184TIP3   OH231042   5.729   0.192  14.367  0.2032 -0.7540 -0.0699
 3184TIP3    H131043   5.760   0.159  14.451  0.3690  1.0872  0.6419
 3184TIP3    H231044   5.808   0.211  14.317  0.1052 -1.8132 -0.6489
 3185TIP3   OH231045   5.755   5.883  16.034  0.0519  0.0675 -0.1154
 3185TIP3    H131046   5.730   5.949  15.970 -0.5558  2.1075  2.0605
 3185TIP3    H231047   5.842   5.854  16.007 -0.3687  0.4974 -2.0577
 3186TIP3   OH231048   3.992   5.543  16.935  0.1307 -0.6186 -0.5328
 3186TIP3    H131049   4.051   5.604  16.891  0.0634 -0.4594 -0.4042
 3186TIP3    H231050   3.991   5.572  17.026 -1.6510  0.5731 -0.8970
 3187TIP3   OH231051   0.799   2.608   4.864 -0.0977  0.1261 -0.1499
 3187TIP3    H131052   0.875   2.618   4.921 -1.2434  1.3297  1.2438
 3187TIP3    H231053   0.742   2.681   4.887 -1.2388 -0.1679 -1.8756
 3188TIP3   OH231054   5.485   5.470   3.368  0.3103 -0.3432 -0.3605
 3188TIP3    H131055   5.534   5.413   3.309  0.1582 -0.3103 -0.5172
 3188TIP3    H231056   5.551   5.500   3.432  0.4995 -0.2849 -0.5815
 3189TIP3   OH231057   6.551   5.107  16.613  0.4549 -0.5695 -0.2634
 3189TIP3    H131058   6.625   5.067  16.568  3.0068  1.4639  1.7409
 3189TIP3    H231059   6.497   5.034  16.641  1.6147 -2.1516 -1.9156
 3190TIP3   OH231060   6.412   5.869   1.772 -0.2997  0.1131 -0.5426
 3190TIP3    H131061   6.478   5.936   1.757 -0.2042 -0.5690 -4.0359
 3190TIP3    H231062   6.329   5.918   1.774 -0.0343  0.5653 -0.3911
 3191TIP3   OH231063   3.028   4.409  15.202  0.2370  0.4646 -0.5942
 3191TIP3    H131064   2.933   4.421  15.200  0.0563 -0.5454  0.9223
 3191TIP3    H231065   3.042   4.322  15.163  0.7030  1.2189 -2.2171
 3192TIP3   OH231066   4.321   4.347  11.053  0.6088  0.2963 -0.3886
 3192TIP3    H131067   4.405   4.391  11.063  0.8550 -0.6197  2.2959
 3192TIP3    H231068   4.262   4.415  11.020  1.8854  1.5317 -0.2013
 3193TIP3   OH231069   3.108   2.842  12.647 -0.1369  0.0554  0.0474
 3193TIP3    H131070   3.128   2.896  12.724 -1.0784  0.7434 -0.1683
 3193TIP3    H231071   3.123   2.900  12.573 -1.0936  0.0104 -0.1944
 3194TIP3   OH231072   5.024   5.528   3.306 -0.4039  0.0627  0.3404
 3194TIP3    H131073   4.965   5.454   3.290  0.3641 -0.8748  1.6268
 3194TIP3    H231074   5.070   5.540   3.223  0.5974 -1.9804  0.5159
 3195TIP3   OH231075   4.389   5.196  14.048  0.6971  0.2898  0.0277
 3195TIP3    H131076   4.393   5.291  14.037  0.3895  0.3286  0.2270
 3195TIP3    H231077   4.355   5.163  13.965 -1.8876  0.6044  0.8573
 3196TIP3   OH231078   2.557   1.966  11.429  0.2432  0.4444 -0.2842
 3196TIP3    H131079   2.593   2.030  11.367 -1.5460  1.0598 -0.7654
 3196TIP3    H231080   2.628   1.904  11.444  1.4560  1.5502 -1.2010
 3197TIP3   OH231081   4.755   5.787   6.549 -0.3059 -0.1881 -0.5471
 3197TIP3    H131082   4.709   5.871   6.546  2.1358  1.4966  2.4158
 3197TIP3    H231083   4.807   5.785   6.469 -0.5979  1.0380 -0.7902
 3198TIP3   OH231084   3.377   3.720  12.955  0.9464  0.2384  0.0906
 3198TIP3    H131085   3.469   3.737  12.933  1.4854 -1.0245  1.2677
 3198TIP3    H231086   3.362   3.768  13.036  1.0983 -0.9953  0.8609
 3199TIP3   OH231087   4.039   3.785   5.231 -0.2706  0.5038 -0.3931
 3199TIP3    H131088   3.957   3.796   5.183 -0.7198  2.5973  0.7074
 3199TIP3    H231089   4.055   3.871   5.271  1.0007 -0.5952  1.6763
 3200TIP3   OH231090   5.288   0.201   3.969  0.5046 -0.0808  0.6656
 3200TIP3    H131091   5.381   0.224   3.963  0.5689  0.1186  2.0478
 3200TIP3    H231092   5.287   0.106   3.968  0.5207 -0.1135 -1.5177
 3201TIP3   OH231093   0.621   1.740  12.373  0.0410 -0.9221  0.2764
 3201TIP3    H131094   0.629   1.710  12.463 -1.0387 -1.4542  0.2077
 3201TIP3    H231095   0.593   1.663  12.324 -1.7426 -0.1098 -0.0834
 3202TIP3   OH231096   6.474   0.951   1.123 -0.0856 -0.2900  0.0518
 3202TIP3    H131097   6.555   0.900   1.120  0.9006  1.2430 -0.8661
 3202TIP3    H231098   6.439   0.947   1.034 -0.7497 -0.5069  0.3144
 3203TIP3   OH231099   0.903   2.515  13.298 -0.3041 -0.4954  0.1820
 3203TIP3    H131100   0.874   2.607  13.302  0.4651 -0.1693 -1.0925
 3203TIP3    H231101   0.834   2.466  13.342 -2.3786  0.3359 -1.9518
 3204TIP3   OH231102   5.130   0.143  16.520 -0.5126  0.2542  0.1090
 3204TIP3    H131103   5.047   0.130  16.474 -1.2875 -0.0618  1.5645
 3204TIP3    H231104   5.122   0.230  16.559  0.4117  0.7968 -0.8499
 3205TIP3   OH231105   5.724   6.356   0.137  0.2574 -0.0086 -0.2309
 3205TIP3    H131106   5.769   6.311   0.065  0.1934 -0.2713 -0.1067
 3205TIP3    H231107   5.718   6.447   0.107 -1.0415 -0.3785 -1.1978
 3206TIP3   OH231108   5.678   6.407   6.258  0.3309 -0.1290  0.3916
 3206TIP3    H131109   5.735   6.342   6.298  2.7827  2.0309  0.6983
 3206TIP3    H231110   5.666   6.377   6.168  1.7166 -0.8345  0.4264
 3207TIP3   OH231111   3.770   1.560   0.825  0.1600 -0.2889 -0.7056
 3207TIP3    H131112   3.692   1.505   0.825 -1.2069  1.5658 -1.3509
 3207TIP3    H231113   3.843   1.498   0.818 -1.1855 -2.0998  0.4643
 3208TIP3   OH231114   6.278   5.725  12.259 -0.6518  0.2842 -0.2757
 3208TIP3    H131115   6.296   5.731  12.166  1.5308 -0.6205  0.0273
 3208TIP3    H231116   6.192   5.766  12.270 -1.5598 -0.7453 -2.8446
 3209TIP3   OH231117   3.963   4.496  11.633  0.3717 -0.1584 -0.2086
 3209TIP3    H131118   3.940   4.509  11.541 -0.9157 -0.7884  0.0000
 3209TIP3    H231119   3.916   4.566  11.679  0.6580 -0.1167  0.0242
 3210TIP3   OH231120   0.243   4.953  17.507  0.3281  0.5374 -0.0849
 3210TIP3    H131121   0.254   4.888  17.576 -1.6389  0.7414  0.4827
 3210TIP3    H231122   0.309   5.020  17.526  2.4938 -1.2787 -0.7611
 3211TIP3   OH231123   4.425   3.709  12.062  0.9605  0.0774 -0.2044
 3211TIP3    H131124   4.367   3.645  12.021  0.1377 -0.3742  1.5952
 3211TIP3    H231125   4.448   3.769  11.990 -0.5088 -0.5978 -1.3004
 3212TIP3   OH231126   2.177   5.107  11.707  0.6426  0.5871 -0.0919
 3212TIP3    H131127   2.194   5.021  11.745 -1.1976  0.2516  0.0449
 3212TIP3    H231128   2.225   5.168  11.764  0.4830 -0.1919  0.9027
 3213TIP3   OH231129   3.583   3.245   1.040  0.5204  0.8142  0.1338
 3213TIP3    H131130   3.496   3.235   1.001  0.6629  0.4594 -0.0950
 3213TIP3    H231131   3.569   3.226   1.133  0.2888  1.0967  0.1598
 3214TIP3   OH231132   3.268   0.241  11.226 -0.1356  0.4016  0.2559
 3214TIP3    H131133   3.358   0.209  11.227  0.1078  1.0865  1.2117
 3214TIP3    H231134   3.276   0.335  11.214 -0.5762  0.8424  2.7882
 3215TIP3   OH231135   3.070   4.559  16.144  0.5559 -0.2512  0.8276
 3215TIP3    H131136   3.068   4.526  16.234  0.9851  0.1012  0.9733
 3215TIP3    H231137   3.063   4.481  16.090  0.1670 -0.4570  1.1671
 3216TIP3   OH231138   6.300   5.338   0.892  0.4972 -0.6155  0.1666
 3216TIP3    H131139   6.351   5.414   0.918  0.3518 -1.1006  2.0477
 3216TIP3    H231140   6.355   5.263   0.915  0.2310 -1.1022 -0.7324
 3217TIP3   OH231141   0.106   3.632  14.602 -0.2384  0.0276  0.4101
 3217TIP3    H131142   0.061   3.575  14.665 -1.2214 -0.0619 -0.3532
 3217TIP3    H231143   0.168   3.575  14.558 -1.5126 -0.5967 -0.6485
 3218TIP3   OH231144   4.202   3.002   6.482  0.4118  0.0428  0.0939
 3218TIP3    H131145   4.182   3.060   6.556 -1.0698  0.8143 -0.8659
 3218TIP3    H231146   4.278   2.952   6.511 -0.1068  0.3392  2.1334
 3219TIP3   OH231147   1.978   3.311   5.630 -0.1351 -0.6086 -0.1837
 3219TIP3    H131148   1.952   3.308   5.538 -0.9789 -0.9653  0.0576
 3219TIP3    H231149   2.059   3.261   5.633  1.1496  1.2876 -1.1017
 3220TIP3   OH231150   5.450   3.189  16.843 -0.2391  0.1536  0.1659
 3220TIP3    H131151   5.487   3.109  16.807 -1.6194 -0.3880 -0.1293
 3220TIP3    H231152   5.435   3.170  16.935 -0.9016 -0.0768  0.0195
 3221TIP3   OH231153   4.532   1.500  17.218  0.1826 -0.4611  0.2729
 3221TIP3    H131154   4.465   1.435  17.196  1.4011 -0.5617 -3.8569
 3221TIP3    H231155   4.615   1.453  17.214  0.9354  0.8838 -0.7400
 3222TIP3   OH231156   0.053   0.653   0.626  0.3803 -0.4100 -0.5871
 3222TIP3    H131157   0.043   0.701   0.709  2.3569  0.2016 -0.6464
 3222TIP3    H231158   0.023   0.565   0.646  0.9432 -0.3078  0.8576
 3223TIP3   OH231159   4.407   4.380   4.241  0.0915 -0.0200 -0.1903
 3223TIP3    H131160   4.484   4.323   4.238 -0.9550 -1.5475  0.5812
 3223TIP3    H231161   4.335   4.322   4.266 -1.2089  1.4872 -0.2560
 3224TIP3   OH231162   5.150   3.341   2.282  0.1286  0.1632 -0.2635
 3224TIP3    H131163   5.196   3.423   2.295 -0.7477  0.4099  1.6262
 3224TIP3    H231164   5.119   3.344   2.191  1.8187  0.9769 -0.8542
 3225TIP3   OH231165   4.673   6.284   0.621 -0.0993  0.3200  0.5773
 3225TIP3    H131166   4.666   6.361   0.678  2.3527  0.3233  0.9977
 3225TIP3    H231167   4.662   6.210   0.680  1.4133  0.3437  0.9477
 3226TIP3   OH231168   3.948   2.529  11.320 -0.7719  0.2107 -0.3740
 3226TIP3    H131169   3.959   2.451  11.267  1.0358  0.4501 -0.4137
 3226TIP3    H231170   3.984   2.600  11.267 -0.4327  0.7153  0.5013
 3227TIP3   OH231171   5.871   6.107   4.504 -0.2370 -0.0659  0.2815
 3227TIP3    H131172   5.822   6.187   4.483  0.5564  0.1168 -1.0100
 3227TIP3    H231173   5.928   6.131   4.576  1.3022  1.1106 -1.2432
 3228TIP3   OH231174   4.684   1.978  11.254 -0.5292 -0.3969 -0.6673
 3228TIP3    H131175   4.735   1.930  11.189 -1.3022 -0.8788 -0.9275
 3228TIP3    H231176   4.627   2.035  11.203  1.1805  1.7327 -0.3719
 3229TIP3   OH231177   3.683   5.207  12.683 -0.1384 -0.1808 -0.0169
 3229TIP3    H131178   3.642   5.237  12.602 -0.0638  0.5428  0.2066
 3229TIP3    H231179   3.770   5.247  12.681 -0.4117  0.4712  0.7854
 3230TIP3   OH231180   1.023   6.696   4.127  0.0251 -0.1624  0.4928
 3230TIP3    H131181   0.998   6.764   4.190 -0.5029 -0.0939  0.2090
 3230TIP3    H231182   0.956   6.700   4.058  1.2100  0.5687 -0.6849
 3231TIP3   OH231183   3.014   1.331  14.068  0.3219  0.1142  0.1572
 3231TIP3    H131184   3.053   1.393  14.007 -0.4241 -0.3937 -0.8590
 3231TIP3    H231185   2.933   1.303  14.026  0.0673 -0.6720  1.1286
 3232TIP3   OH231186   4.053   4.892  17.515 -0.4904  0.6378  0.0331
 3232TIP3    H131187   4.131   4.903  17.570 -0.5007  4.6420 -0.4883
 3232TIP3    H231188   4.087   4.852  17.434  1.0075  2.0175 -0.0682
 3233TIP3   OH231189   2.472   0.274   0.104  0.2261  0.2827  0.0235
 3233TIP3    H131190   2.461   0.313   0.191  0.4191  2.0451 -0.7088
 3233TIP3    H231191   2.515   0.342   0.052  1.8989 -1.4440 -0.9554
 3234TIP3   OH231192   4.688   2.620   1.203 -0.0128  0.3117 -0.3919
 3234TIP3    H131193   4.642   2.537   1.212  0.2138  0.3053  0.9194
 3234TIP3    H231194   4.751   2.606   1.133  0.5391 -0.8605  0.3231
 3235TIP3   OH231195   0.396   4.066   2.731 -0.1772 -0.0365 -0.2846
 3235TIP3    H131196   0.469   4.103   2.682  0.8577  0.9126  1.8459
 3235TIP3    H231197   0.398   4.111   2.815 -2.3201 -1.0568  0.3859
 3236TIP3   OH231198   1.700   3.333   5.293  0.1199  0.2195 -0.0479
 3236TIP3    H131199   1.739   3.329   5.206  1.2660  0.7379  0.4196
 3236TIP3    H231200   1.749   3.270   5.345 -1.5404 -1.2032 -0.1096
 3237TIP3   OH231201   4.852   1.187   5.986  0.1102 -0.5842  0.0288
 3237TIP3    H131202   4.935   1.144   5.968  0.7219 -0.4302  2.2226
 3237TIP3    H231203   4.873   1.253   6.052 -1.8711 -1.0053  1.1436
 3238TIP3   OH231204   2.125   2.311   1.317 -0.0986 -0.1193 -0.0522
 3238TIP3    H131205   2.178   2.303   1.397  1.1000 -1.2413 -0.9214
 3238TIP3    H231206   2.170   2.378   1.265 -1.7164  1.7261  0.7890
 3239TIP3   OH231207   2.132   4.744  13.862 -0.4661  0.2976  0.1028
 3239TIP3    H131208   2.074   4.770  13.934  2.3548 -0.4607  2.9275
 3239TIP3    H231209   2.198   4.813  13.859 -0.5390  0.3127 -1.8425
 3240TIP3   OH231210   0.997   2.349   0.985  0.1801  0.7884 -0.0231
 3240TIP3    H131211   1.022   2.286   1.053 -0.1671 -0.8510 -1.3407
 3240TIP3    H231212   0.908   2.322   0.960  0.3174  1.3522 -1.1414
 3241TIP3   OH231213   0.069   6.259   0.182  0.4354 -0.5204  0.3409
 3241TIP3    H131214   0.057   6.196   0.253 -1.3014 -0.4872  0.1198
 3241TIP3    H231215   0.050   6.210   0.102 -1.6022  0.3574  0.2069
 3242TIP3   OH231216   0.211   4.384  13.195  0.4451  0.8395  0.8740
 3242TIP3    H131217   0.190   4.308  13.250 -0.6328 -0.4229 -1.1578
 3242TIP3    H231218   0.139   4.446  13.213 -1.0483 -0.3995 -0.5111
 3243TIP3   OH231219   3.952   1.345   0.787  0.0940  0.0630 -0.0166
 3243TIP3    H131220   3.888   1.313   0.850  0.1628  1.6461  0.8858
 3243TIP3    H231221   4.037   1.326   0.827  0.1723 -0.3263 -0.3551
 3244TIP3   OH231222   2.946   3.221   4.208  0.3362 -0.3160 -0.0420
 3244TIP3    H131223   3.001   3.284   4.255  0.0364 -0.5339  0.6156
 3244TIP3    H231224   2.992   3.138   4.216  1.7348  0.1115 -2.5668
 3245TIP3   OH231225   3.412   3.692  14.275  0.5097 -0.1199  0.1692
 3245TIP3    H131226   3.494   3.713  14.320  0.3807  0.1924  0.2653
 3245TIP3    H231227   3.395   3.769  14.219  0.2037 -0.1147  0.2664
 3246TIP3   OH231228   4.356   4.636   6.465  0.3379  0.1787 -0.1303
 3246TIP3    H131229   4.390   4.723   6.446 -0.8507  0.7905  0.4579
 3246TIP3    H231230   4.261   4.645   6.457  0.1943 -1.0255  0.0858
 3247TIP3   OH231231   2.187   4.609   6.137  0.0987 -0.1835  0.1718
 3247TIP3    H131232   2.274   4.625   6.174  0.3465 -0.5620 -0.2302
 3247TIP3    H231233   2.190   4.518   6.108  0.0379  0.1881 -1.0763
 3248TIP3   OH231234   3.385   1.640   4.264 -0.1475 -0.1218  0.4032
 3248TIP3    H131235   3.446   1.578   4.305  0.1482  0.3213  0.6409
 3248TIP3    H231236   3.424   1.726   4.280 -0.7535  0.1556  0.4168
 3249TIP3   OH231237   4.262   2.907   2.238 -0.3938  0.1461 -0.3157
 3249TIP3    H131238   4.240   2.823   2.278  0.4212  0.1951  0.2682
 3249TIP3    H231239   4.354   2.921   2.261 -0.9778  2.0413  1.1743
 3250TIP3   OH231240   3.498   1.806   5.606  0.0237 -0.0339  0.2889
 3250TIP3    H131241   3.468   1.738   5.666  0.2904  0.9069  1.5378
 3250TIP3    H231242   3.541   1.870   5.663  0.0978  0.9949 -0.8928
 3251TIP3   OH231243   3.160   5.412   4.065 -0.0909 -0.4866  0.1889
 3251TIP3    H131244   3.226   5.477   4.087 -0.8817  0.3375  0.1792
 3251TIP3    H231245   3.128   5.380   4.150 -0.1488 -0.3953  0.2020
 3252TIP3   OH231246   4.817   6.541  10.315  0.3690  0.1905 -0.3279
 3252TIP3    H131247   4.775   6.627  10.319 -1.1493 -0.5592  1.3947
 3252TIP3    H231248   4.860   6.531  10.400 -0.8545 -1.3765  0.1442
 3253TIP3   OH231249   3.377   1.466  11.459  0.6658  0.4762 -0.5332
 3253TIP3    H131250   3.377   1.433  11.548 -2.5086  1.2886 -0.1097
 3253TIP3    H231251   3.450   1.421  11.416  0.0140 -2.7845  1.4501
 3254TIP3   OH231252   4.052   4.936  15.813 -0.1324 -0.6689  0.2809
 3254TIP3    H131253   4.022   4.893  15.733 -1.8409 -2.1216  1.6151
 3254TIP3    H231254   4.090   5.019  15.783 -0.6056 -1.2201 -2.0177
 3255TIP3   OH231255   1.282   1.628  16.324  0.9684 -0.1856 -0.5606
 3255TIP3    H131256   1.278   1.692  16.395  0.8744  1.9922 -2.4156
 3255TIP3    H231257   1.237   1.551  16.359  0.6429  0.9054  1.6138
 3256TIP3   OH231258   4.087   6.187  16.238 -0.2644  0.0491 -0.3572
 3256TIP3    H131259   4.121   6.269  16.276  2.5331  0.4479 -3.2405
 3256TIP3    H231260   4.113   6.120  16.301 -0.8104  1.1279  1.0974
 3257TIP3   OH231261   4.203   1.849   0.481 -0.3719 -0.5555 -0.5522
 3257TIP3    H131262   4.148   1.773   0.465  2.2061 -2.3914 -1.2282
 3257TIP3    H231263   4.292   1.820   0.461  0.6888  2.8165 -1.4930
 3258TIP3   OH231264   0.501   0.245   2.797 -0.1813 -0.3148 -0.0525
 3258TIP3    H131265   0.500   0.156   2.762  1.2774 -0.5929  0.5479
 3258TIP3    H231266   0.516   0.234   2.891 -0.1016  0.5515  0.0419
 3259TIP3   OH231267   1.173   1.646   2.524  1.0266 -0.0136 -0.0266
 3259TIP3    H131268   1.234   1.661   2.596  0.6771  1.7997 -0.0505
 3259TIP3    H231269   1.229   1.638   2.447  1.3022  1.1402  0.0279
 3260TIP3   OH231270   0.078   2.183  13.181 -0.3925  0.2299  0.3583
 3260TIP3    H131271   0.167   2.167  13.150 -0.5968 -1.1893  0.4036
 3260TIP3    H231272   0.089   2.208  13.273 -0.0864 -1.3286  0.7771
 3261TIP3   OH231273   4.069   0.968   6.392  0.2381 -0.3290 -0.5123
 3261TIP3    H131274   4.007   0.956   6.464  3.5291  0.1461  2.6950
 3261TIP3    H231275   4.073   0.883   6.348 -3.6010  0.0145 -1.8498
 3262TIP3   OH231276   2.618   1.326   5.725  0.7730 -0.1732  0.2781
 3262TIP3    H131277   2.584   1.330   5.814 -0.4960 -0.7322 -0.1490
 3262TIP3    H231278   2.541   1.308   5.671  1.5523 -0.0708 -0.9077
 3263TIP3   OH231279   1.243   3.819  16.071 -0.1577  0.4617  0.1973
 3263TIP3    H131280   1.321   3.874  16.071  0.9751 -1.0650  1.1091
 3263TIP3    H231281   1.192   3.848  16.147 -0.8758  1.9044 -0.7724
 3264TIP3   OH231282   4.123   3.472   6.191  0.2841 -0.4417 -0.2465
 3264TIP3    H131283   4.059   3.404   6.213  1.4632 -2.1197 -1.7577
 3264TIP3    H231284   4.154   3.504   6.275 -1.9445 -0.1005  0.5307
 3265TIP3   OH231285   5.678   1.257  12.112 -0.0243 -0.1600 -0.1246
 3265TIP3    H131286   5.680   1.288  12.202  0.2361 -2.5209  0.7477
 3265TIP3    H231287   5.732   1.178  12.112  0.6723  0.2287 -2.5587
 3266TIP3   OH231288   5.026   3.652  11.790 -0.1789 -0.0807  0.3412
 3266TIP3    H131289   5.069   3.697  11.863  1.1468 -1.2671  0.3455
 3266TIP3    H231290   4.948   3.704  11.773  0.2567  1.0803  1.6186
 3267TIP3   OH231291   4.449   6.102  13.289 -0.0238 -0.2934  0.5213
 3267TIP3    H131292   4.449   6.142  13.202 -1.5044 -1.7698 -0.2136
 3267TIP3    H231293   4.505   6.159  13.342  1.4614  0.2725 -1.5545
 3268TIP3   OH231294   2.219   6.584   1.743  0.2786 -0.4184  0.0248
 3268TIP3    H131295   2.213   6.491   1.721 -1.0759 -0.2889 -0.2456
 3268TIP3    H231296   2.220   6.585   1.839 -0.1907 -0.7062  0.0413
 3269TIP3   OH231297   5.413   3.705  17.231  0.2780 -0.0048 -0.0252
 3269TIP3    H131298   5.463   3.662  17.300  1.6046  0.2456 -0.8000
 3269TIP3    H231299   5.450   3.670  17.149 -1.8626 -0.9858 -0.6422
 3270TIP3   OH231300   1.215   1.413   0.572 -0.5974  0.1542 -0.0613
 3270TIP3    H131301   1.270   1.396   0.649  2.5464  2.3531 -1.6227
 3270TIP3    H231302   1.238   1.343   0.511 -0.3032  0.5029 -0.3499
 3271TIP3   OH231303   6.623   2.277  15.949  0.5518  0.1622 -0.0320
 3271TIP3    H131304   6.668   2.277  16.033  0.8368  1.0409 -0.1706
 3271TIP3    H231305   6.533   2.303  15.969 -0.0793 -2.1346  0.3177
 3272TIP3   OH231306   1.230   5.323   0.412  0.4661  0.1748  0.2855
 3272TIP3    H131307   1.174   5.349   0.485  0.4100 -0.9861  0.6810
 3272TIP3    H231308   1.298   5.391   0.409 -1.1667  1.8570 -0.5023
 3273TIP3   OH231309   4.922   5.144   0.630  0.3007  0.4174 -0.4604
 3273TIP3    H131310   4.875   5.126   0.548 -0.8058  0.0131  0.2447
 3273TIP3    H231311   4.988   5.075   0.635 -1.2135 -1.0597  0.1618
 3274TIP3   OH231312   2.627   2.016   5.473 -0.5367 -1.1972  0.7319
 3274TIP3    H131313   2.678   1.985   5.548  0.2183 -1.0284  0.3003
 3274TIP3    H231314   2.544   1.968   5.479 -0.1515 -1.8204  1.1916
 3275TIP3   OH231315   5.516   0.023  15.592 -0.3361 -0.0863  0.4182
 3275TIP3    H131316   5.547  -0.065  15.614 -0.8402 -0.3825 -0.0228
 3275TIP3    H231317   5.593   0.067  15.556 -0.2929 -0.6441 -0.1897
 3276TIP3   OH231318   6.323   1.494  17.033 -0.1384  0.1427 -0.1763
 3276TIP3    H131319   6.347   1.572  17.083  1.3889 -0.4904  0.1462
 3276TIP3    H231320   6.233   1.510  17.005 -1.4345  0.1675  3.4578
 3277TIP3   OH231321   6.469   4.207  15.897 -0.7640 -0.0373 -0.2727
 3277TIP3    H131322   6.396   4.222  15.836 -0.9250 -2.3704 -0.7331
 3277TIP3    H231323   6.471   4.112  15.909  1.0781  0.1389  1.1634
 3278TIP3   OH231324   4.293   5.535  17.025 -0.2155 -0.0800  0.0848
 3278TIP3    H131325   4.271   5.532  16.932 -0.5275  0.8068  0.1133
 3278TIP3    H231326   4.224   5.484  17.068 -0.0521 -0.5199 -0.1680
 3279TIP3   OH231327   0.512   6.618  17.024 -0.6179 -0.0199  0.0259
 3279TIP3    H131328   0.547   6.571  16.948 -0.0952  0.0881  0.1933
 3279TIP3    H231329   0.583   6.614  17.088 -1.3648 -0.8490  0.8216
 3280TIP3   OH231330   2.863   5.861   4.710  0.1935  0.0737  0.4977
 3280TIP3    H131331   2.811   5.795   4.755  1.4133 -0.5280  1.0810
 3280TIP3    H231332   2.800   5.910   4.657 -1.5921  1.6779  3.7890
 3281TIP3   OH231333   3.527   0.263   3.961 -0.1896  0.1108 -0.3961
 3281TIP3    H131334   3.520   0.170   3.938  0.1281 -0.1873  0.6683
 3281TIP3    H231335   3.513   0.265   4.055 -1.9178  1.3450 -0.6386
 3282TIP3   OH231336   4.285   1.592   4.611 -0.1891 -0.0058  0.4290
 3282TIP3    H131337   4.290   1.658   4.542 -0.7162 -0.0024  0.3911
 3282TIP3    H231338   4.229   1.523   4.574  1.0369 -0.8886  0.1257
 3283TIP3   OH231339   4.148   0.381   4.113 -0.7254  0.3581  0.5905
 3283TIP3    H131340   4.182   0.469   4.130 -0.0015  0.0603  0.7422
 3283TIP3    H231341   4.061   0.395   4.078  0.4674  1.2738 -2.3300
 3284TIP3   OH231342   6.666   5.824  13.300 -0.2622  0.2057 -0.1356
 3284TIP3    H131343   6.719   5.800  13.224 -0.1051  1.6808 -0.5209
 3284TIP3    H231344   6.703   5.908  13.329 -0.9820  0.1630  0.9371
 3285TIP3   OH231345   0.794   2.715   2.072  0.5017 -0.3939 -0.2095
 3285TIP3    H131346   0.883   2.716   2.106  0.0934 -0.4123  0.9383
 3285TIP3    H231347   0.802   2.742   1.981  1.7207 -0.8016 -0.2433
 3286TIP3   OH231348   2.682   5.489  14.596 -0.5792  0.4304  0.4437
 3286TIP3    H131349   2.736   5.506  14.674  1.6504  2.9608 -1.4621
 3286TIP3    H231350   2.627   5.567  14.587  0.6145  1.1216 -1.5138
 3287TIP3   OH231351   2.677   1.910   0.787  0.0109 -0.0467 -0.1300
 3287TIP3    H131352   2.693   1.852   0.713 -0.0660 -0.9935  0.5854
 3287TIP3    H231353   2.687   1.855   0.864  3.1581  1.5078  0.7677
 3288TIP3   OH231354   0.230   5.427  13.968  0.6572 -0.0317 -0.5494
 3288TIP3    H131355   0.208   5.377  13.889 -0.6303 -0.3284 -0.0317
 3288TIP3    H231356   0.237   5.360  14.037 -1.8692  0.4718  0.3205
 3289TIP3   OH231357   1.249   3.413   3.993 -0.2737  0.1747  0.3166
 3289TIP3    H131358   1.207   3.498   3.980 -0.7748 -0.0193  0.6720
 3289TIP3    H231359   1.326   3.416   3.936 -0.3686  0.8087  0.2148
 3290TIP3   OH231360   6.533   3.707   3.051 -0.1260  0.2310 -0.5642
 3290TIP3    H131361   6.458   3.652   3.074  0.1660  0.5715  1.3148
 3290TIP3    H231362   6.510   3.743   2.965 -1.2064 -1.2363 -0.9349
 3291TIP3   OH231363   2.314   4.863   0.566 -0.1364 -0.3896  0.1502
 3291TIP3    H131364   2.402   4.836   0.589  1.6552  3.6450 -1.0177
 3291TIP3    H231365   2.311   4.956   0.590 -5.1141 -0.8718  2.8077
 3292TIP3   OH231366   4.086   0.264  12.119  0.2447 -0.6190 -0.5506
 3292TIP3    H131367   4.090   0.195  12.053  2.0698 -0.7157 -0.3824
 3292TIP3    H231368   4.107   0.344  12.071  1.1157 -0.6214 -0.1843
 3293TIP3   OH231369   3.285   3.358  14.341 -0.2597 -0.1901 -0.4045
 3293TIP3    H131370   3.253   3.302  14.411 -0.5362  0.4206 -0.0279
 3293TIP3    H231371   3.232   3.438  14.349  1.4394  0.9110  0.3340
 3294TIP3   OH231372   3.446   6.399  14.698  0.1051 -0.5007  0.3184
 3294TIP3    H131373   3.478   6.459  14.764  0.2702  0.7312 -0.8414
 3294TIP3    H231374   3.504   6.323  14.704  2.1715  0.9253 -0.5182
 3295TIP3   OH231375   6.627   6.352   2.848 -0.8111  0.0136  0.6910
 3295TIP3    H131376   6.648   6.411   2.920 -1.8185 -0.0486  1.0580
 3295TIP3    H231377   6.555   6.298   2.882 -0.3630 -0.9692  0.1285
 3296TIP3   OH231378   5.320   3.930  16.872  0.0000 -0.0180 -0.5069
 3296TIP3    H131379   5.244   3.921  16.930  0.8851  2.2285  1.1382
 3296TIP3    H231380   5.284   3.921  16.784 -2.0204  0.0473  0.2592
 3297TIP3   OH231381   0.669   3.106  16.977 -0.1623 -0.4388 -0.6415
 3297TIP3    H131382   0.578   3.081  16.993  0.2256 -1.8004 -0.4323
 3297TIP3    H231383   0.720   3.054  17.040  0.7804  0.0692 -0.9667
 3298TIP3   OH231384   4.620   5.715   2.059 -0.7380  0.1253  0.9224
 3298TIP3    H131385   4.606   5.636   2.112 -1.6625  0.0323  0.5604
 3298TIP3    H231386   4.643   5.783   2.123  1.7350 -0.7921  1.0865
 3299TIP3   OH231387   0.295   5.484   0.144  0.1031  0.3053  0.4489
 3299TIP3    H131388   0.277   5.556   0.083  0.2186  0.5443  0.6964
 3299TIP3    H231389   0.284   5.522   0.231  1.1633  0.2903  0.6010
 3300TIP3   OH231390   1.550   1.418  15.944  0.2923 -0.3508  0.3038
 3300TIP3    H131391   1.619   1.427  15.878  0.0397 -2.7068 -0.3660
 3300TIP3    H231392   1.479   1.474  15.911  1.4774  1.3829  0.5375
 3301TIP3   OH231393   4.750   1.442   1.230  0.5442 -0.5593 -0.0786
 3301TIP3    H131394   4.804   1.402   1.161  2.6895  0.2191  1.0349
 3301TIP3    H231395   4.814   1.479   1.292 -1.2742  2.0010  0.4562
 3302TIP3   OH231396   3.053   4.152  15.423  0.5253  0.5555  0.5722
 3302TIP3    H131397   3.046   4.165  15.329  0.6197  1.1958  0.6458
 3302TIP3    H231398   2.985   4.088  15.444  0.5658  0.3473  0.0574
 3303TIP3   OH231399   1.263   6.524   2.962  0.1609  0.5517  0.3208
 3303TIP3    H131400   1.190   6.578   2.933  1.1101  1.5305 -0.3182
 3303TIP3    H231401   1.255   6.443   2.912 -0.3691  0.7168  0.1272
 3304TIP3   OH231402   0.149   5.147  14.501  0.3129 -0.3100  0.0209
 3304TIP3    H131403   0.060   5.110  14.496 -0.4307  1.5013 -2.1291
 3304TIP3    H231404   0.142   5.216  14.567 -0.3411  0.7530 -1.0962
 3305TIP3   OH231405   3.757   4.170  15.396 -0.0515  0.1089 -0.2217
 3305TIP3    H131406   3.685   4.228  15.422 -1.4559 -1.1017 -1.2308
 3305TIP3    H231407   3.807   4.221  15.333 -1.0529  0.3685 -0.8322
 3306TIP3   OH231408   5.916   2.981   6.291  0.5557  0.4024 -0.3119
 3306TIP3    H131409   5.971   3.040   6.341 -0.1827  0.8527 -0.0081
 3306TIP3    H231410   5.973   2.908   6.269  1.5588  1.3549 -0.9488
 3307TIP3   OH231411   1.850   4.648   3.362  1.2159 -0.2386 -0.6786
 3307TIP3    H131412   1.909   4.582   3.398 -0.4272 -1.4582 -0.0685
 3307TIP3    H231413   1.876   4.657   3.270  1.0530 -2.2934 -0.9719
 3308TIP3   OH231414   5.752   0.458   5.179 -0.1281  0.2583  0.7639
 3308TIP3    H131415   5.697   0.399   5.128  0.4574  0.3502  0.0059
 3308TIP3    H231416   5.744   0.542   5.134  2.6730 -0.3016 -0.9770
 3309TIP3   OH231417   1.058   5.278  13.996  0.3684 -0.0304 -0.0422
 3309TIP3    H131418   1.084   5.368  14.013  1.3093 -0.0578 -1.2223
 3309TIP3    H231419   1.047   5.274  13.901 -2.7075 -0.3726  0.2173
 3310TIP3   OH231420   3.893   4.296   4.027 -0.3498 -0.0396  0.2326
 3310TIP3    H131421   3.841   4.277   4.106  0.2031 -0.6093  0.4733
 3310TIP3    H231422   3.981   4.310   4.060  0.2248 -1.8311 -0.4051
 3311TIP3   OH231423   1.726   6.336   1.603  0.2065  0.5785  0.6016
 3311TIP3    H131424   1.755   6.428   1.595  0.6758  0.3618 -0.4333
 3311TIP3    H231425   1.805   6.285   1.585 -0.1260 -0.0353  0.8605
 3312TIP3   OH231426   6.675   3.670  16.085 -0.3810  0.3582 -0.2423
 3312TIP3    H131427   6.768   3.664  16.061  0.0452  0.8712  1.2185
 3312TIP3    H231428   6.652   3.580  16.110 -0.5035  0.0714 -1.3138
 3313TIP3   OH231429   5.161   5.318  11.052 -0.2186  0.2623  0.6111
 3313TIP3    H131430   5.175   5.255  10.982  1.4212  0.3866  0.7866
 3313TIP3    H231431   5.245   5.363  11.060 -0.8172  1.2238  1.7036
 3314TIP3   OH231432   1.243   1.621   0.868 -0.1437  0.3099  0.4290
 3314TIP3    H131433   1.164   1.573   0.842  1.4297 -2.6936  0.7667
 3314TIP3    H231434   1.284   1.566   0.934  3.0329  0.9126 -0.8473
 3315TIP3   OH231435   3.617   1.340  16.882 -0.1206 -0.2599 -0.0321
 3315TIP3    H131436   3.683   1.283  16.921 -1.3498 -1.0927  0.8978
 3315TIP3    H231437   3.627   1.326  16.787  1.7023  0.4412  0.0098
 3316TIP3   OH231438   0.743   0.152  12.807  0.3633  0.6162  0.1287
 3316TIP3    H131439   0.757   0.236  12.851  1.6968 -0.3274  1.6264
 3316TIP3    H231440   0.777   0.165  12.719 -0.6343  2.0091 -0.0794
 3317TIP3   OH231441   5.943   2.717   6.370 -0.1163  0.1572 -0.1022
 3317TIP3    H131442   5.913   2.639   6.324  1.2983 -0.0809 -0.6822
 3317TIP3    H231443   5.864   2.756   6.405 -1.1398 -0.2342 -1.8466
 3318TIP3   OH231444   0.805   6.678  13.445  0.7634  0.0833  0.2344
 3318TIP3    H131445   0.729   6.711  13.493  1.0935 -0.6103  1.2781
 3318TIP3    H231446   0.840   6.754  13.399  0.5622  0.8258  1.2806
 3319TIP3   OH231447   4.757   2.493   1.730 -0.3454  0.3929 -0.1038
 3319TIP3    H131448   4.815   2.543   1.673  0.1148  2.4934  2.0211
 3319TIP3    H231449   4.676   2.544   1.731 -1.5877 -1.4326 -1.4453
 3320TIP3   OH231450   5.809   1.562   3.110 -0.0441 -0.2118 -0.0435
 3320TIP3    H131451   5.799   1.468   3.095  0.8429 -0.2832 -0.2651
 3320TIP3    H231452   5.901   1.579   3.092 -0.1974  0.7061 -0.0032
 3321TIP3   OH231453   1.797   0.189   4.101 -0.0618 -0.1124  0.5902
 3321TIP3    H131454   1.732   0.183   4.172 -0.3653 -0.7421  0.2653
 3321TIP3    H231455   1.829   0.099   4.091 -1.9354 -0.6155 -1.8460
 3322TIP3   OH231456   6.031   0.456  16.173  0.1376  0.4233 -0.1328
 3322TIP3    H131457   5.960   0.393  16.163  0.3074  0.2922 -0.5291
 3322TIP3    H231458   6.111   0.403  16.172  0.2137  0.4888  1.0784
 3323TIP3   OH231459   0.782   0.780   4.649  0.0366  0.2218  0.8200
 3323TIP3    H131460   0.688   0.767   4.640  0.1601  0.0976 -0.5664
 3323TIP3    H231461   0.791   0.872   4.674 -0.3947  1.0752 -1.8261
 3324TIP3   OH231462   4.389   2.398   5.450  0.1574  0.2906 -0.1352
 3324TIP3    H131463   4.418   2.364   5.534 -0.1861  1.6313  0.5518
 3324TIP3    H231464   4.297   2.372   5.443 -0.0454  0.8732  0.2909
 3325TIP3   OH231465   3.366   5.517  17.094 -0.0575  0.2927 -0.2058
 3325TIP3    H131466   3.355   5.422  17.089 -0.4869  0.3083  0.3116
 3325TIP3    H231467   3.354   5.548  17.004  1.6179 -0.2933 -0.6547
 3326TIP3   OH231468   6.379   3.107  16.190 -0.0803  0.1708 -0.2764
 3326TIP3    H131469   6.377   3.151  16.275 -0.4520 -0.0880 -0.1525
 3326TIP3    H231470   6.400   3.016  16.210 -0.3738  0.0647 -0.4429
 3327TIP3   OH231471   6.071   6.546   4.358 -0.1764  0.2565 -1.0443
 3327TIP3    H131472   6.126   6.608   4.310 -0.5744 -0.4594 -2.4896
 3327TIP3    H231473   6.124   6.518   4.432  1.3342 -0.2431 -2.2669
 3328TIP3   OH231474   4.676   3.450  16.771  0.9065 -0.0711  0.0049
 3328TIP3    H131475   4.588   3.440  16.735  0.2781  1.1503  1.1296
 3328TIP3    H231476   4.714   3.523  16.721  1.4275 -0.8037 -0.7018
 3329TIP3   OH231477   5.936   3.187   2.321 -0.3154  0.3966  0.5205
 3329TIP3    H131478   5.960   3.151   2.236  0.8544  0.0848  0.9651
 3329TIP3    H231479   5.868   3.128   2.354 -0.1848  0.0464  0.1679
 3330TIP3   OH231480   3.787   2.668  13.048 -0.2122  0.0823  0.6257
 3330TIP3    H131481   3.874   2.704  13.031  0.3756 -1.0546  1.0965
 3330TIP3    H231482   3.803   2.576  13.072 -1.5057 -0.0528  1.0749
 3331TIP3   OH231483   0.058   3.290   3.244  0.2273  0.6302  0.3830
 3331TIP3    H131484   0.010   3.269   3.324  0.1692  2.1801  0.7959
 3331TIP3    H231485  -0.008   3.285   3.175 -0.7292  3.1607  1.0019
 3332TIP3   OH231486   5.467   4.344  14.605 -0.0690  0.0454 -0.2908
 3332TIP3    H131487   5.436   4.315  14.519 -0.5248  1.4441 -0.6222
 3332TIP3    H231488   5.422   4.427  14.620 -0.1645 -0.2821  1.4153
 3333TIP3   OH231489   5.776   4.740  12.290  0.0882  0.4706 -0.7913
 3333TIP3    H131490   5.791   4.738  12.384 -0.4825  0.6019 -0.6970
 3333TIP3    H231491   5.689   4.778  12.280 -0.2280 -0.3725 -1.3283
 3334TIP3   OH231492   6.092   0.156   4.763  0.0880  0.4831 -0.1436
 3334TIP3    H131493   6.098   0.229   4.702  1.0154  1.0423  0.5777
 3334TIP3    H231494   6.182   0.127   4.774 -0.2346 -0.5605 -0.1578
 3335TIP3   OH231495   6.132   4.787  12.722 -0.2913  0.0475  0.1822
 3335TIP3    H131496   6.065   4.795  12.654 -1.2005  1.4350  1.1722
 3335TIP3    H231497   6.109   4.854  12.786  1.1351 -0.5232  1.3594
 3336TIP3   OH231498   4.676   4.343  11.171  0.5972  0.0345 -0.1340
 3336TIP3    H131499   4.673   4.291  11.091  0.9540  0.5302 -0.4746
 3336TIP3    H231500   4.736   4.415  11.151  1.0711 -0.1034  0.7425
 3337TIP3   OH231501   1.219   0.872   3.042  0.3044  0.6661  0.1265
 3337TIP3    H131502   1.202   0.832   3.127  0.2276  0.1812 -0.1168
 3337TIP3    H231503   1.180   0.959   3.049  2.7501  1.7512  1.5808
 3338TIP3   OH231504   0.202   1.648   4.632 -0.4232 -0.3093  0.5648
 3338TIP3    H131505   0.285   1.624   4.672  1.3209  2.4747 -1.0501
 3338TIP3    H231506   0.202   1.743   4.631 -2.6989 -0.2334 -1.3468
 3339TIP3   OH231507   1.115   6.259   2.558  0.4473 -0.0333 -0.1457
 3339TIP3    H131508   1.167   6.180   2.541  0.8906 -0.1249  1.4641
 3339TIP3    H231509   1.025   6.227   2.562  0.5794 -0.3901  0.0442
 3340TIP3   OH231510   0.270   2.176   3.716 -0.7526  0.9566 -0.4235
 3340TIP3    H131511   0.185   2.190   3.675 -1.4440 -0.9824  0.2419
 3340TIP3    H231512   0.263   2.218   3.802 -0.8473  1.2458 -0.5735
 3341TIP3   OH231513   3.035   6.587  10.561  0.0331 -0.1470 -0.3807
 3341TIP3    H131514   2.989   6.531  10.499 -1.7169  1.2722 -0.4699
 3341TIP3    H231515   3.098   6.635  10.509  0.8030 -1.2384 -0.4794
 3342TIP3   OH231516   1.448   0.759   5.503  0.2955 -0.4361 -0.4555
 3342TIP3    H131517   1.401   0.684   5.466  0.9199  0.0670 -2.3986
 3342TIP3    H231518   1.383   0.805   5.556 -0.9525 -0.6648 -1.7445
 3343TIP3   OH231519   1.022   1.032  10.200  0.2357 -0.2485  0.2760
 3343TIP3    H131520   1.066   0.980  10.267 -1.1534 -0.7236  0.8664
 3343TIP3    H231521   1.081   1.104  10.181  1.8315 -1.5525  0.0828
 3344TIP3   OH231522   1.791   1.508  12.530 -0.4051 -0.0257  0.0385
 3344TIP3    H131523   1.796   1.598  12.497  2.0303 -0.9550 -2.6894
 3344TIP3    H231524   1.870   1.498  12.584  0.7256 -1.0752 -1.6792
 3345TIP3   OH231525   3.367   3.365  11.092  0.1680  0.1780 -0.0937
 3345TIP3    H131526   3.304   3.310  11.045 -0.6303  0.2365  0.8786
 3345TIP3    H231527   3.391   3.314  11.169 -1.1523  1.4646  1.2203
 3346TIP3   OH231528   6.229   5.435  16.943  0.7539  0.0622  0.5300
 3346TIP3    H131529   6.203   5.469  17.028  2.3434  0.6901  0.7925
 3346TIP3    H231530   6.197   5.500  16.880 -0.3331 -0.3527  0.6388
 3347TIP3   OH231531   1.654   5.197   6.258  0.0610 -0.0473  0.9348
 3347TIP3    H131532   1.696   5.133   6.315  0.8600  1.1408  1.7233
 3347TIP3    H231533   1.567   5.209   6.297 -1.4269 -3.0332 -1.1036
 3348TIP3   OH231534   4.080   3.218   6.678 -0.5319  0.5054  0.6232
 3348TIP3    H131535   4.044   3.155   6.740 -1.0684 -2.4177 -2.3625
 3348TIP3    H231536   4.004   3.254   6.633 -0.0851  0.2685 -0.3623
 3349TIP3   OH231537   2.680   1.860   2.015  0.0632  0.4139 -0.6393
 3349TIP3    H131538   2.731   1.832   2.092 -2.0504  0.9349  1.0583
 3349TIP3    H231539   2.744   1.898   1.956  1.9726 -1.2076  0.2596
 3350TIP3   OH231540   3.089   0.849   4.091 -0.0693  0.3565  0.0058
 3350TIP3    H131541   3.067   0.918   4.154 -2.9371 -0.5574  0.1798
 3350TIP3    H231542   3.154   0.796   4.135  1.1724  2.1231  0.4168
 3351TIP3   OH231543   4.929   0.780   1.662  0.0992 -0.0307 -0.5390
 3351TIP3    H131544   4.935   0.772   1.567  2.5745  1.5090 -0.5872
 3351TIP3    H231545   4.959   0.696   1.696  1.8907  0.3224 -1.1493
 3352TIP3   OH231546   5.763   0.766   2.897  0.3608 -0.8567 -0.5151
 3352TIP3    H131547   5.850   0.726   2.902  0.2323 -1.1930 -0.9124
 3352TIP3    H231548   5.718   0.733   2.975  1.5132  1.6316  1.3615
 3353TIP3   OH231549   0.316   4.718  10.865 -0.2880  0.1983  0.4612
 3353TIP3    H131550   0.350   4.645  10.917  2.1570  1.1663  0.3082
 3353TIP3    H231551   0.262   4.675  10.798 -0.3568 -1.3136  1.4152
 3354TIP3   OH231552   2.815   2.570  12.528 -0.1950 -0.1711 -0.4847
 3354TIP3    H131553   2.874   2.537  12.596  0.5668  0.8397 -0.6355
 3354TIP3    H231554   2.813   2.665  12.541 -1.0286 -0.0903 -1.0947
 3355TIP3   OH231555   2.095   1.862   2.334  0.2603  0.4434  0.0632
 3355TIP3    H131556   2.162   1.858   2.266  1.7941 -3.4611  1.5188
 3355TIP3    H231557   2.144   1.869   2.416 -1.2745  0.0890  1.0479
 3356TIP3   OH231558   4.655   4.384  15.557  0.4227 -0.3379 -0.2637
 3356TIP3    H131559   4.662   4.300  15.602 -0.3905 -2.1323 -3.2056
 3356TIP3    H231560   4.595   4.367  15.484  1.1425  2.5145 -1.6555
 3357TIP3   OH231561   2.149   4.648   2.833  0.3745  0.0821  0.1922
 3357TIP3    H131562   2.237   4.644   2.796 -0.5705  0.6331 -2.2972
 3357TIP3    H231563   2.114   4.559   2.820  0.8293 -0.3861  1.9845
 3358TIP3   OH231564   1.218   5.394   2.636  0.4710 -0.2033 -0.0622
 3358TIP3    H131565   1.246   5.482   2.610 -2.6059  0.7781 -0.5390
 3358TIP3    H231566   1.210   5.346   2.554 -0.1799 -0.1198 -0.0556
 3359TIP3   OH231567   3.496   1.756  12.252  0.4432 -0.2974 -0.0764
 3359TIP3    H131568   3.503   1.670  12.293  1.7101  0.2618  0.9423
 3359TIP3    H231569   3.496   1.739  12.158 -0.4423 -1.4637  0.1121
 3360TIP3   OH231570   4.891   0.967   3.334 -0.1423 -0.3519  0.7666
 3360TIP3    H131571   4.903   1.018   3.254  0.3497  1.9571  2.2269
 3360TIP3    H231572   4.976   0.926   3.350 -0.4477 -1.4296 -0.2417
 3361TIP3   OH231573   3.248   1.711  11.395  0.8697 -0.2892 -0.2911
 3361TIP3    H131574   3.184   1.740  11.460  1.0271  1.1997 -0.7453
 3361TIP3    H231575   3.256   1.617  11.409 -0.3390 -0.2693  0.7219
 3362TIP3   OH231576   3.604   4.301  13.111  0.0166 -0.3702 -0.3431
 3362TIP3    H131577   3.695   4.330  13.108 -0.3057  1.1017  1.6881
 3362TIP3    H231578   3.607   4.208  13.089  1.6514  0.2002 -2.9061
 3363TIP3   OH231579   4.496   0.969  13.459 -0.5492 -0.4875 -0.1776
 3363TIP3    H131580   4.477   0.876  13.446 -1.9841 -0.1892 -0.3934
 3363TIP3    H231581   4.567   0.988  13.398 -1.5736 -1.0097 -1.5968
 3364TIP3   OH231582   2.419   6.562  12.560 -0.1518  0.1139  0.3691
 3364TIP3    H131583   2.468   6.642  12.539 -0.7432  0.2997 -0.3470
 3364TIP3    H231584   2.442   6.543  12.651 -1.1114  1.9365  1.0509
 3365TIP3   OH231585   4.279   4.636   2.705 -0.1820 -0.2317 -0.4105
 3365TIP3    H131586   4.294   4.546   2.675  0.6479  0.4339 -2.0610
 3365TIP3    H231587   4.361   4.661   2.746 -1.0615 -0.8706  1.9641
 3366TIP3   OH231588   0.267   4.755  12.454 -0.5763 -0.0160  0.4656
 3366TIP3    H131589   0.203   4.715  12.512 -1.2181  1.1676  0.5891
 3366TIP3    H231590   0.220   4.825  12.410  1.0013  1.9498  1.7274
 3367TIP3   OH231591   0.735   6.625  13.054 -0.3488 -0.5635  0.0160
 3367TIP3    H131592   0.778   6.604  13.137 -0.2886 -0.9805 -0.1156
 3367TIP3    H231593   0.720   6.539  13.013  1.2580 -0.3181 -1.2184
 3368TIP3   OH231594   0.867   2.121  13.076  0.2716 -0.1227  0.2652
 3368TIP3    H131595   0.850   2.027  13.083 -1.6132  0.0362 -1.2747
 3368TIP3    H231596   0.783   2.159  13.052  0.6583  2.1689  2.1564
 3369TIP3   OH231597   2.408   0.740   4.695 -0.2050 -0.2936  0.0280
 3369TIP3    H131598   2.382   0.809   4.756  1.0990  0.0237  0.2482
 3369TIP3    H231599   2.415   0.784   4.611 -0.0541 -0.3161  0.0300
 3370TIP3   OH231600   3.766   5.501   4.229 -0.1810  0.3786  0.8775
 3370TIP3    H131601   3.714   5.454   4.295  0.1867  0.0536  0.9335
 3370TIP3    H231602   3.716   5.491   4.148  0.5161 -1.1982  0.6089
 3371TIP3   OH231603   1.450   4.152  13.118 -0.3295  0.1914  0.0808
 3371TIP3    H131604   1.534   4.108  13.107  0.0596  0.5068  1.6298
 3371TIP3    H231605   1.434   4.152  13.212 -1.9354  0.3987 -0.1594
 3372TIP3   OH231606   1.736   6.025   1.212 -0.7747  0.2158  0.1422
 3372TIP3    H131607   1.702   6.106   1.250 -0.0960  1.3044 -1.4665
 3372TIP3    H231608   1.802   5.995   1.274 -0.4115  1.3763  0.3344
 3373TIP3   OH231609   4.918   5.390  12.482  0.3228  0.1578 -0.3668
 3373TIP3    H131610   4.848   5.445  12.515  1.1062  3.4609 -3.4949
 3373TIP3    H231611   4.877   5.306  12.465 -1.9849  0.9049  1.0675
 3374TIP3   OH231612   2.488   4.019  10.984 -0.2731  0.4591 -0.5536
 3374TIP3    H131613   2.532   4.104  10.992  2.8985 -1.1565  1.1708
 3374TIP3    H231614   2.549   3.965  10.934 -1.3242 -1.3593  0.0292
 3375TIP3   OH231615   2.564   6.077   4.131 -0.5393 -0.3212 -0.2457
 3375TIP3    H131616   2.475   6.069   4.165 -0.7156  0.9904 -0.3540
 3375TIP3    H231617   2.592   5.987   4.115 -2.5753 -0.6867 -2.1259
 3376TIP3   OH231618   3.259   4.755  17.227  0.8856 -0.9721  0.4395
 3376TIP3    H131619   3.198   4.681  17.229 -1.2382  0.6972  2.4246
 3376TIP3    H231620   3.231   4.807  17.151  0.2661 -0.5759  0.9296
 3377TIP3   OH231621   5.729   1.322   3.111  0.5085  0.3995 -0.7476
 3377TIP3    H131622   5.674   1.246   3.092  2.3971 -1.0520 -0.7284
 3377TIP3    H231623   5.738   1.322   3.207 -1.7396  2.3925 -0.4371
 3378TIP3   OH231624   1.264   5.943  12.477  0.3484 -0.4378  0.0266
 3378TIP3    H131625   1.319   5.914  12.550 -1.7923  0.1969  2.0060
 3378TIP3    H231626   1.258   5.866  12.420  1.8686 -1.0411  0.6238
 3379TIP3   OH231627   6.481   0.633   6.434 -0.5691  0.3817  0.8355
 3379TIP3    H131628   6.445   0.544   6.435 -1.7476  0.8338  0.3457
 3379TIP3    H231629   6.487   0.655   6.341  0.6917  0.4522  0.9126
 3380TIP3   OH231630   1.933   0.292  14.939  0.0635  0.1413  0.2451
 3380TIP3    H131631   1.875   0.276  15.013  0.8677 -3.2167  0.2987
 3380TIP3    H231632   2.019   0.309  14.980  0.4460 -1.4301  0.1542
 3381TIP3   OH231633   6.396   3.226   5.565 -0.0585  0.0181 -0.0636
 3381TIP3    H131634   6.391   3.159   5.496  2.9580 -0.9131  0.5065
 3381TIP3    H231635   6.370   3.180   5.645 -1.4406  0.5427 -0.1701
 3382TIP3   OH231636   2.563   1.358  15.783  0.2378 -0.1652  0.0215
 3382TIP3    H131637   2.586   1.414  15.708  0.4529 -0.7792 -0.3823
 3382TIP3    H231638   2.645   1.312  15.804  0.4216  0.6609  1.2178
 3383TIP3   OH231639   1.009   0.321   3.275 -0.4682 -0.1502 -0.3671
 3383TIP3    H131640   0.957   0.348   3.350  0.8387  0.1277  0.4784
 3383TIP3    H231641   1.100   0.338   3.301  0.0623 -0.6688 -1.7546
 3384TIP3   OH231642   1.502   3.641   2.165 -0.6247 -0.0436  0.0629
 3384TIP3    H131643   1.530   3.561   2.120 -2.2331 -2.4674  2.9742
 3384TIP3    H231644   1.421   3.666   2.119  0.5803  0.8094 -1.7152
 3385TIP3   OH231645   3.734   6.260   6.618  0.1280 -0.3861  0.2072
 3385TIP3    H131646   3.642   6.284   6.631 -0.0266 -1.4415  1.2145
 3385TIP3    H231647   3.745   6.178   6.666  1.1685 -1.2096 -1.3700
 3386TIP3   OH231648   2.272   1.223   0.533 -0.5306 -0.8483 -0.1857
 3386TIP3    H131649   2.270   1.260   0.444 -0.2306 -0.7493 -0.1523
 3386TIP3    H231650   2.338   1.154   0.529 -1.0422 -1.3476 -0.2291
 3387TIP3   OH231651   6.485   1.023   0.627  0.0448  1.0833 -0.0651
 3387TIP3    H131652   6.431   1.034   0.548 -1.3323  2.3349  0.9930
 3387TIP3    H231653   6.563   1.076   0.609 -0.4795  1.7657 -0.4090
 3388TIP3   OH231654   2.006   3.127   3.880 -0.2455  0.0796  0.2269
 3388TIP3    H131655   2.092   3.164   3.900 -0.6641  0.6290  1.0862
 3388TIP3    H231656   2.025   3.041   3.842  0.6883  0.2725  0.2391
 3389TIP3   OH231657   4.602   5.288  11.908  0.2594 -0.3158  0.0741
 3389TIP3    H131658   4.530   5.309  11.967  1.0818  0.8973  0.6955
 3389TIP3    H231659   4.668   5.248  11.963 -0.1521 -2.0126 -0.6094
 3390TIP3   OH231660   3.355   2.024   2.053  0.4229 -0.5713 -0.7520
 3390TIP3    H131661   3.285   2.059   2.107  0.3791  0.8195 -1.6751
 3390TIP3    H231662   3.342   1.929   2.055  0.3145 -0.5596  1.4940
 3391TIP3   OH231663   0.340   2.710   1.037  0.0470  0.1500 -0.0486
 3391TIP3    H131664   0.382   2.709   0.951  1.3687  1.3288  0.5409
 3391TIP3    H231665   0.382   2.638   1.084 -0.1305 -0.0192 -0.1498
 3392TIP3   OH231666   4.227   1.485   4.060 -0.1014 -0.7536  0.6163
 3392TIP3    H131667   4.278   1.522   3.989 -0.4753  1.0712  1.2337
 3392TIP3    H231668   4.243   1.391   4.056  1.2206 -0.4935 -0.7935
 3393TIP3   OH231669   4.046   5.636   2.824 -0.1904 -0.2862 -0.1324
 3393TIP3    H131670   3.985   5.586   2.878  1.5653 -2.7384 -0.2488
 3393TIP3    H231671   4.040   5.726   2.858 -1.2821 -1.1467  2.1791
 3394TIP3   OH231672   4.479   0.986  16.083 -0.3685 -0.0300 -0.2740
 3394TIP3    H131673   4.565   0.950  16.059  0.6258  2.3547 -0.5119
 3394TIP3    H231674   4.496   1.039  16.160 -1.5976  0.6811 -0.4664
 3395TIP3   OH231675   4.551   2.988   2.077  0.1949  0.0904 -0.2221
 3395TIP3    H131676   4.548   2.965   2.169 -1.0824  0.0452 -0.2561
 3395TIP3    H231677   4.616   2.929   2.039  0.8535  0.2303  0.6710
 3396TIP3   OH231678   6.464   1.768   1.564  0.4402 -0.0291  0.0228
 3396TIP3    H131679   6.534   1.807   1.617  0.5856 -0.1234 -0.0963
 3396TIP3    H231680   6.423   1.842   1.519  0.3025  0.0542  0.2832
 3397TIP3   OH231681   2.056   5.002  16.267  0.4834  0.2516  0.1800
 3397TIP3    H131682   2.077   5.068  16.334  0.1653  1.5157 -0.9095
 3397TIP3    H231683   2.077   5.045  16.184 -0.1141 -0.8848 -0.5912
 3398TIP3   OH231684   0.939   4.694  14.447 -0.2999  0.1903 -0.8305
 3398TIP3    H131685   0.896   4.757  14.389 -0.8148 -0.7641 -1.5130
 3398TIP3    H231686   1.031   4.721  14.448 -0.0730 -0.3251 -2.9040
 3399TIP3   OH231687   6.072   4.051   4.612  0.1405 -0.0059  0.0331
 3399TIP3    H131688   6.026   4.064   4.529  0.4255  0.0301 -0.1205
 3399TIP3    H231689   6.005   4.067   4.679 -0.0877 -0.0226 -0.1885
 3400TIP3   OH231690   4.342   4.320   2.108 -0.2370  0.3670  0.0123
 3400TIP3    H131691   4.340   4.341   2.015 -2.4401 -0.4629 -0.1808
 3400TIP3    H231692   4.419   4.264   2.118 -0.3514 -0.0913 -1.4432
 3401TIP3   OH231693   2.701   5.669   1.680  0.1083 -0.1133 -0.2710
 3401TIP3    H131694   2.606   5.663   1.676  0.0775  0.3341 -0.3182
 3401TIP3    H231695   2.733   5.583   1.655 -0.2911 -0.3319 -0.0321
 3402TIP3   OH231696   2.162   5.409  13.154  0.2460 -0.1776  0.1374
 3402TIP3    H131697   2.170   5.495  13.196 -0.9959 -0.0435  0.1455
 3402TIP3    H231698   2.231   5.356  13.194 -0.5641  0.0838  2.0260
 3403TIP3   OH231699   5.985   4.042   1.594 -0.2735 -0.1881  0.0162
 3403TIP3    H131700   6.009   4.033   1.502  1.0461  0.9113  0.2133
 3403TIP3    H231701   5.947   3.958   1.618  1.1752 -1.1767 -1.0124
 3404TIP3   OH231702   0.993   4.467   5.498  0.0231 -0.3935  0.0069
 3404TIP3    H131703   0.993   4.511   5.413 -0.5095  0.1220  0.2596
 3404TIP3    H231704   1.051   4.392   5.487  1.2975  0.6094 -0.3205
 3405TIP3   OH231705   4.357   1.646  16.729 -0.0494  0.8104  0.0958
 3405TIP3    H131706   4.412   1.677  16.657 -0.0533  1.5314  0.3872
 3405TIP3    H231707   4.296   1.585  16.688  0.6440  0.3829 -0.3159
 3406TIP3   OH231708   2.855   1.443  12.627  0.0973  0.2771  0.4126
 3406TIP3    H131709   2.815   1.507  12.568  2.5775 -0.5939 -2.4860
 3406TIP3    H231710   2.949   1.454  12.615  0.6961 -0.8747  3.3356
 3407TIP3   OH231711   0.194   3.010  12.532  0.5068 -0.3879 -0.6575
 3407TIP3    H131712   0.134   2.984  12.601  1.5366 -1.0392  0.0277
 3407TIP3    H231713   0.274   3.037  12.577  0.7157  0.5476 -1.5349
 3408TIP3   OH231714   0.544   1.088  15.211  0.0189  0.1453  0.4724
 3408TIP3    H131715   0.615   1.144  15.241  0.5600 -1.7049  2.8586
 3408TIP3    H231716   0.475   1.098  15.277  0.0271 -1.7504  0.8312
 3409TIP3   OH231717   2.131   0.296  16.866  0.1746 -0.0193  0.6755
 3409TIP3    H131718   2.092   0.367  16.815  0.4662 -0.3323  0.0036
 3409TIP3    H231719   2.158   0.337  16.948  0.8484  0.7717  0.0732
 3410TIP3   OH231720   0.549   0.669   4.101 -0.0126  0.4253  0.0153
 3410TIP3    H131721   0.585   0.670   4.189 -1.1751 -2.1339  0.6030
 3410TIP3    H231722   0.516   0.580   4.089 -2.4606  1.4588 -1.9374
 3411TIP3   OH231723   0.152   0.348  13.836 -0.2340 -0.4353  0.1462
 3411TIP3    H131724   0.102   0.375  13.759 -0.8207 -0.4297  0.5281
 3411TIP3    H231725   0.130   0.412  13.903  1.7527  0.7092 -0.2140
 3412TIP3   OH231726   5.836   2.774   2.272  0.3648 -0.3583  0.8030
 3412TIP3    H131727   5.864   2.744   2.185  0.6765  1.9890  0.0373
 3412TIP3    H231728   5.904   2.741   2.331  1.3568 -0.1037 -0.1585
 3413TIP3   OH231729   4.723   1.215   4.738  0.4543 -0.5465  0.2809
 3413TIP3    H131730   4.718   1.177   4.650 -1.0759  0.6798 -0.2155
 3413TIP3    H231731   4.715   1.310   4.723  2.0342 -0.1572  1.6194
 3414TIP3   OH231732   2.364   0.151  12.000 -0.6647  0.0774 -0.0748
 3414TIP3    H131733   2.352   0.245  12.012 -0.6029 -0.0160  0.7936
 3414TIP3    H231734   2.341   0.134  11.909  1.7928  1.3631 -1.0425
 3415TIP3   OH231735   2.257   4.230  16.330  0.6495  0.4480 -0.0145
 3415TIP3    H131736   2.304   4.314  16.335  1.2319  0.1881 -0.9063
 3415TIP3    H231737   2.250   4.212  16.237  3.5751 -2.1538  0.0917
 3416TIP3   OH231738   3.176   6.063  13.750 -0.5607  0.5745  0.1200
 3416TIP3    H131739   3.170   6.022  13.836 -0.7065 -1.2804 -0.7188
 3416TIP3    H231740   3.206   5.992  13.692  1.3735  2.2266 -1.0336
 3417TIP3   OH231741   6.438   2.643  12.882  0.4322 -0.1722 -0.0542
 3417TIP3    H131742   6.442   2.738  12.892  0.7462 -0.2564  0.6306
 3417TIP3    H231743   6.345   2.624  12.871  0.3403  0.1840  0.0956
 3418TIP3   OH231744   3.085   2.002   2.461  0.1194  0.1045  0.5366
 3418TIP3    H131745   3.127   1.924   2.496  1.5891  0.4425 -0.3803
 3418TIP3    H231746   3.145   2.074   2.483 -0.1667  0.6677 -0.4247
 3419TIP3   OH231747   0.009   1.494   0.364  0.2322  0.0448 -0.0318
 3419TIP3    H131748  -0.056   1.521   0.429 -0.9832  0.3006 -1.3068
 3419TIP3    H231749  -0.026   1.526   0.281  1.9551  0.1012 -0.7744
 3420TIP3   OH231750   2.009   1.193   5.847  0.2466  0.1935  0.2769
 3420TIP3    H131751   2.009   1.114   5.793 -1.2932  0.4421 -0.1487
 3420TIP3    H231752   2.020   1.161   5.937 -3.2874 -0.9250  0.4995
 3421TIP3   OH231753   5.679   2.973   4.475  0.0331  0.0847  0.4358
 3421TIP3    H131754   5.622   2.982   4.552  0.3463 -0.4291  0.7411
 3421TIP3    H231755   5.768   2.972   4.512  0.2296  0.6746 -0.0147
 3422TIP3   OH231756   1.219   5.853  13.969  0.0532 -0.1771 -0.2350
 3422TIP3    H131757   1.301   5.901  13.984 -0.2230 -0.1092  1.2235
 3422TIP3    H231758   1.150   5.915  13.993 -0.4833 -0.0519 -1.9675
 3423TIP3   OH231759   6.674   2.846  16.418  0.2373  0.9130  0.0120
 3423TIP3    H131760   6.674   2.940  16.434  0.3686  0.9357 -0.1214
 3423TIP3    H231761   6.606   2.831  16.353 -1.4807  0.6133  1.7769
 3424TIP3   OH231762   2.113   4.728  14.179  0.1890  0.2731 -0.2060
 3424TIP3    H131763   2.028   4.724  14.222 -0.4088 -1.1629 -1.4319
 3424TIP3    H231764   2.173   4.758  14.247 -0.8472 -1.1656  1.4198
 3425TIP3   OH231765   2.132   0.357   1.004  0.0560  0.0119  0.1143
 3425TIP3    H131766   2.099   0.440   1.039 -1.1971 -0.1088 -0.7442
 3425TIP3    H231767   2.111   0.360   0.911  1.6309 -0.5067 -0.2908
 3426TIP3   OH231768   1.780   5.566   0.383 -0.1524 -0.0533 -0.2439
 3426TIP3    H131769   1.780   5.482   0.337  0.6031 -0.2772  0.1506
 3426TIP3    H231770   1.742   5.547   0.469 -1.2385  0.2928 -0.6343
 3427TIP3   OH231771   4.112   3.721   4.307 -0.0833 -0.1819  0.2729
 3427TIP3    H131772   4.022   3.689   4.300 -0.2160 -0.2937  2.1444
 3427TIP3    H231773   4.141   3.695   4.394  1.7940 -0.1730 -0.2998
 3428TIP3   OH231774   5.247   5.412   5.344 -0.6717 -0.6142  0.8877
 3428TIP3    H131775   5.192   5.387   5.269  0.3884  1.0987 -0.5245
 3428TIP3    H231776   5.325   5.357   5.336  0.1723  0.6925 -0.2751
 3429TIP3   OH231777   5.726   3.324   0.880  0.1939  0.0310 -0.4732
 3429TIP3    H131778   5.699   3.248   0.932  0.3941 -0.0276 -0.4550
 3429TIP3    H231779   5.762   3.287   0.800  0.5085  0.0967 -0.3642
 3430TIP3   OH231780   4.522   4.207   3.441  0.8192 -0.6274 -0.0941
 3430TIP3    H131781   4.454   4.213   3.374 -0.4681 -3.0834  0.8068
 3430TIP3    H231782   4.582   4.139   3.409  1.0244 -0.7520  0.5290
 3431TIP3   OH231783   1.824   2.230  14.003  0.0026 -0.0853 -0.5387
 3431TIP3    H131784   1.831   2.136  14.016  1.9291  0.1106  0.2577
 3431TIP3    H231785   1.731   2.246  13.989 -0.7529 -1.8088  1.8487
 3432TIP3   OH231786   3.806   1.739   1.736  0.0922  1.0851  0.0280
 3432TIP3    H131787   3.879   1.718   1.795  0.5325  0.7486 -0.6266
 3432TIP3    H231788   3.848   1.764   1.654 -0.5299  1.0489 -0.3074
 3433TIP3   OH231789   4.560   4.007  12.534 -0.2967  0.0561  0.4312
 3433TIP3    H131790   4.654   4.014  12.517 -0.2864 -1.7587 -0.4271
 3433TIP3    H231791   4.526   4.093  12.510  0.5751 -0.5028 -3.4028
 3434TIP3   OH231792   3.478   2.775   6.629  0.4755  0.3397 -0.7278
 3434TIP3    H131793   3.552   2.724   6.662 -0.3011 -0.3373  0.0271
 3434TIP3    H231794   3.468   2.847   6.691  0.3465  0.2743 -0.6697
 3435TIP3   OH231795   5.263   5.581  16.070  0.3150 -0.0214 -0.0697
 3435TIP3    H131796   5.177   5.624  16.074  0.4016  0.0844  0.9390
 3435TIP3    H231797   5.243   5.487  16.077  0.2965  0.0244  0.5508
 3436TIP3   OH231798   1.772   5.081  12.444  0.1054  0.1602 -0.2935
 3436TIP3    H131799   1.721   5.030  12.381 -3.3608  0.0972  2.2895
 3436TIP3    H231800   1.766   5.171  12.412 -2.0000  0.1940  0.0263
 3437TIP3   OH231801   5.229   5.820  15.016 -0.3082 -0.1666 -0.3619
 3437TIP3    H131802   5.138   5.849  15.025 -0.2611  0.2386 -1.1263
 3437TIP3    H231803   5.236   5.791  14.925  0.9214  1.9066 -0.9784
 3438TIP3   OH231804   6.032   4.198  11.290  0.0748 -0.1087  0.3009
 3438TIP3    H131805   6.009   4.288  11.266  1.7429 -0.1109 -1.5841
 3438TIP3    H231806   6.033   4.199  11.386 -0.3386  1.7581  0.3365
 3439TIP3   OH231807   0.870   1.252   3.202 -0.2350  0.2775  0.0963
 3439TIP3    H131808   0.792   1.244   3.258 -0.1255 -0.5975  0.1455
 3439TIP3    H231809   0.943   1.253   3.264 -0.0554 -1.6328 -0.0382
 3440TIP3   OH231810   3.256   2.551   4.190 -0.5183 -0.2878 -0.0993
 3440TIP3    H131811   3.351   2.553   4.202 -0.6835 -0.3455  1.4983
 3440TIP3    H231812   3.233   2.458   4.195 -0.7188 -0.2260  0.1658
 3441TIP3   OH231813   3.079   5.003   5.653 -0.7598 -0.0025 -0.2184
 3441TIP3    H131814   3.087   5.014   5.558  0.1048  0.8089 -0.0716
 3441TIP3    H231815   3.136   5.071   5.690 -1.6773  0.1906  0.8971
 3442TIP3   OH231816   1.244   2.663  15.913 -0.4205 -0.2135  0.7352
 3442TIP3    H131817   1.276   2.585  15.960 -0.8703 -1.1866 -0.5115
 3442TIP3    H231818   1.158   2.637  15.879  0.1751  0.1963 -1.1908
 3443TIP3   OH231819   1.132   5.520   5.808 -0.5395 -0.2908 -0.2863
 3443TIP3    H131820   1.194   5.449   5.828 -2.0005 -1.3706  0.5688
 3443TIP3    H231821   1.172   5.566   5.734  1.9716 -0.0825  1.0666
 3444TIP3   OH231822   4.105   5.585  15.923  0.1020  0.0391  0.1339
 3444TIP3    H131823   4.063   5.566  15.839  1.1113 -0.6698 -0.2284
 3444TIP3    H231824   4.160   5.509  15.940 -0.1297  0.1541  1.4803
 3445TIP3   OH231825   1.404   6.178  12.979  0.0411 -0.5826  0.0425
 3445TIP3    H131826   1.420   6.136  13.063 -1.4168 -0.6015  0.3492
 3445TIP3    H231827   1.394   6.271  13.000  0.0431 -0.5352 -0.1635
 3446TIP3   OH231828   0.189   3.005  15.130 -0.2460 -0.1114 -0.0573
 3446TIP3    H131829   0.143   2.997  15.214 -0.5928 -3.1456 -0.4267
 3446TIP3    H231830   0.277   2.972  15.149  0.2448  0.9185 -0.5013
 3447TIP3   OH231831   3.790   4.991  15.488  0.0232  0.2067  0.0892
 3447TIP3    H131832   3.804   5.057  15.555  0.2864  1.1375 -0.8564
 3447TIP3    H231833   3.825   5.030  15.408  1.6395 -1.6795 -0.2213
 3448TIP3   OH231834   5.091   1.253  17.490  1.0398  0.4800  0.7397
 3448TIP3    H131835   5.017   1.211  17.447  2.3548 -3.3912  1.8037
 3448TIP3    H231836   5.051   1.310  17.556 -0.9792 -0.0836  0.0677
 3449TIP3   OH231837   4.780   6.672   2.214  0.1420 -0.1189  0.5421
 3449TIP3    H131838   4.751   6.729   2.144  0.6170  0.9066  1.1571
 3449TIP3    H231839   4.868   6.644   2.189  0.3177  0.2606  0.7313
 3450TIP3   OH231840   3.628   3.603  16.776 -0.3344  0.1731  0.3783
 3450TIP3    H131841   3.588   3.619  16.861  0.4397  0.6736  0.6538
 3450TIP3    H231842   3.704   3.548  16.794 -1.1544 -1.2164 -0.2049
 3451TIP3   OH231843   2.238   2.515  16.839 -1.0686  0.3716 -0.0141
 3451TIP3    H131844   2.267   2.456  16.909 -1.6869 -1.7869 -1.4709
 3451TIP3    H231845   2.143   2.517  16.847 -1.0293  1.4941  0.2352
 3452TIP3   OH231846   3.788   6.450   5.473  0.0563  0.3847 -0.6436
 3452TIP3    H131847   3.879   6.459   5.442  0.7962 -0.3083  1.2039
 3452TIP3    H231848   3.768   6.535   5.511  1.4415 -0.5412  2.5472
 3453TIP3   OH231849   2.103   6.152   3.762  0.2146  0.0215  0.0906
 3453TIP3    H131850   2.188   6.121   3.730  0.3209  1.8223 -1.5058
 3453TIP3    H231851   2.108   6.247   3.758 -1.1060  0.2562  2.1549
 3454TIP3   OH231852   4.735   6.054   4.295  0.3110  0.3706 -0.5673
 3454TIP3    H131853   4.793   6.055   4.371 -0.6544 -0.3419  0.1955
 3454TIP3    H231854   4.778   5.995   4.233  0.8390  0.5419 -0.3709
 3455TIP3   OH231855   6.097   3.322   5.374 -0.4215  0.0840 -0.1146
 3455TIP3    H131856   6.136   3.239   5.348  0.0718  0.6628 -1.3111
 3455TIP3    H231857   6.142   3.387   5.320  0.1803  1.2975  1.7732
 3456TIP3   OH231858   6.262   1.767   1.081 -0.6164 -0.3648 -0.2194
 3456TIP3    H131859   6.278   1.673   1.075  1.0345 -0.0432 -1.3854
 3456TIP3    H231860   6.260   1.797   0.990 -1.4610  0.6844  0.1285
 3457TIP3   OH231861   6.678   6.266  12.268 -0.2782 -1.1692 -0.0177
 3457TIP3    H131862   6.672   6.246  12.361  3.9403  1.4168  1.0479
 3457TIP3    H231863   6.743   6.204  12.234 -1.1469 -1.5133 -1.1242
 3458TIP3   OH231864   6.070   2.081   2.554  0.3928  0.5945 -0.1001
 3458TIP3    H131865   6.073   2.127   2.638 -1.0261  0.3347  0.1221
 3458TIP3    H231866   6.129   2.007   2.566 -0.0265  0.3884  0.7809
 3459TIP3   OH231867   5.345   0.181   2.345  0.0445 -0.3746  0.6124
 3459TIP3    H131868   5.334   0.224   2.431  1.3134  0.3121  0.4630
 3459TIP3    H231869   5.378   0.251   2.289 -3.3223 -0.0543 -1.2260
 3460TIP3   OH231870   5.024   3.224   5.122 -0.1471  0.1661 -0.0582
 3460TIP3    H131871   4.980   3.165   5.061 -0.3002 -0.1819  0.3807
 3460TIP3    H231872   4.972   3.218   5.202 -0.4833  1.3198 -0.1787
 3461TIP3   OH231873   3.228   4.328   1.124  0.4596  0.2704 -0.0033
 3461TIP3    H131874   3.197   4.244   1.157 -0.1561  0.0132 -1.2048
 3461TIP3    H231875   3.286   4.306   1.051 -0.4367  0.8925 -0.9337
 3462TIP3   OH231876   2.958   1.883  14.706  0.3500  0.0649  0.0808
 3462TIP3    H131877   2.978   1.796  14.671 -3.4540 -1.0448  0.2842
 3462TIP3    H231878   2.996   1.882  14.794  0.3407 -1.4224  0.1015
 3463TIP3   OH231879   3.172   4.722   5.611  0.4670  0.4630 -0.0173
 3463TIP3    H131880   3.226   4.696   5.537  0.3690 -1.3709  0.5132
 3463TIP3    H231881   3.114   4.790   5.575  1.0588  0.2982 -1.3607
 3464TIP3   OH231882   4.843   1.814  12.218 -0.3521  0.2159  0.6053
 3464TIP3    H131883   4.859   1.901  12.182 -3.3394  1.2963  1.6252
 3464TIP3    H231884   4.910   1.803  12.285 -0.7832  2.3677  1.4521
 3465TIP3   OH231885   5.333   1.038  16.515 -0.2219  0.2785  0.4613
 3465TIP3    H131886   5.418   1.070  16.489  0.5294 -0.5804  1.7347
 3465TIP3    H231887   5.346   1.002  16.603 -1.7045 -0.5900  0.3749
 3466TIP3   OH231888   4.550   1.215   2.379 -0.3811  0.3596  0.1319
 3466TIP3    H131889   4.546   1.167   2.297  0.3793  0.9016 -0.2371
 3466TIP3    H231890   4.615   1.168   2.431  0.3526  0.9576 -0.2240
 3467TIP3   OH231891   5.866   3.808  11.780  0.2647  0.4137  0.6009
 3467TIP3    H131892   5.931   3.742  11.802 -0.8496 -1.6237 -1.7212
 3467TIP3    H231893   5.807   3.810  11.856  0.2266 -1.4506  0.6715
 3468TIP3   OH231894   6.620   5.600   3.067  0.3352  0.3810  0.3285
 3468TIP3    H131895   6.549   5.646   3.022 -0.2817 -1.3195 -0.5199
 3468TIP3    H231896   6.693   5.663   3.067 -1.0069  2.0194  0.8725
 3469TIP3   OH231897   4.899   4.432  11.340 -0.3947 -0.1935  0.4547
 3469TIP3    H131898   4.842   4.497  11.380 -0.8652  0.1242 -0.6917
 3469TIP3    H231899   4.908   4.461  11.249 -0.6235 -1.7366 -0.0791
 3470TIP3   OH231900   0.182   1.850  13.221  0.0380  0.3759  0.2838
 3470TIP3    H131901   0.254   1.795  13.190  0.2417  0.4651  0.5892
 3470TIP3    H231902   0.144   1.886  13.141  0.9005  1.0270  0.1469
 3471TIP3   OH231903   5.957   4.331   3.385  0.1679  0.1159 -0.0524
 3471TIP3    H131904   5.985   4.395   3.319  0.1424 -0.5586 -0.7285
 3471TIP3    H231905   5.869   4.305   3.357  0.8045 -1.4265 -0.7182
 3472TIP3   OH231906   1.628   2.934  11.411  0.0571 -0.3282  0.0897
 3472TIP3    H131907   1.697   2.877  11.447  0.4321 -0.5803 -0.9694
 3472TIP3    H231908   1.632   2.918  11.316 -1.9715 -0.9308  0.0540
 3473TIP3   OH231909   2.052   2.308   5.211 -0.4661 -0.1489 -0.3032
 3473TIP3    H131910   2.104   2.259   5.147  0.1774 -1.3373  1.0801
 3473TIP3    H231911   2.086   2.281   5.296 -1.8679  0.7439  0.5905
 3474TIP3   OH231912   0.925   4.864  11.713  0.2233  0.4752 -0.3677
 3474TIP3    H131913   0.993   4.840  11.776 -0.1787 -0.0310 -0.1253
 3474TIP3    H231914   0.967   4.856  11.628  0.6150  0.6547 -0.1949
 3475TIP3   OH231915   5.539   0.853  11.198  0.4292 -0.1049  0.1333
 3475TIP3    H131916   5.591   0.883  11.124 -0.1506 -0.5300 -0.4560
 3475TIP3    H231917   5.540   0.758  11.192 -0.4885 -0.1152  0.0588
 3476TIP3   OH231918   3.271   4.774  14.218 -0.4846 -0.4956  0.1496
 3476TIP3    H131919   3.267   4.834  14.293  1.9261 -0.3820  0.2609
 3476TIP3    H231920   3.257   4.688  14.256 -0.2388 -0.3447  0.6000
 3477TIP3   OH231921   3.609   4.564  11.538 -0.5293  0.2212  0.3816
 3477TIP3    H131922   3.577   4.653  11.548  0.2323  0.5565 -0.1221
 3477TIP3    H231923   3.694   4.573  11.496 -0.6877 -0.7776 -0.1943
 3478TIP3   OH231924   2.515   2.700  11.135  0.1691  0.3724 -0.1194
 3478TIP3    H131925   2.485   2.616  11.100 -1.3274  1.0034 -0.4339
 3478TIP3    H231926   2.473   2.706  11.221  0.3072  0.7743 -0.0795
 3479TIP3   OH231927   5.931   3.829  17.345 -0.3879 -0.8920 -0.9318
 3479TIP3    H131928   5.863   3.778  17.388 -0.7905 -0.3967 -0.9635
 3479TIP3    H231929   5.905   3.832  17.253 -1.6805  1.3303 -0.5717
 3480TIP3   OH231930   0.271   1.810  11.570  0.1217 -0.1800 -0.0025
 3480TIP3    H131931   0.351   1.763  11.594 -0.2732 -1.3963 -0.9482
 3480TIP3    H231932   0.280   1.896  11.610  1.7498 -0.4149  0.1769
 3481TIP3   OH231933   0.788   4.345  15.510 -0.3324 -0.0945  0.3544
 3481TIP3    H131934   0.861   4.379  15.457 -0.0094 -2.6719 -1.0085
 3481TIP3    H231935   0.755   4.422  15.556  1.8889  1.5652 -0.6021
 3482TIP3   OH231936   1.074   2.282  11.201 -0.1831 -0.3647  0.3213
 3482TIP3    H131937   1.112   2.370  11.197  1.0090 -0.7866  1.5246
 3482TIP3    H231938   1.147   2.225  11.177 -0.2695 -1.1549  1.8456
 3483TIP3   OH231939   0.582   6.717  11.467  0.2763  0.3619  0.0590
 3483TIP3    H131940   0.648   6.659  11.430  0.8865 -0.2248  1.9555
 3483TIP3    H231941   0.586   6.796  11.413  1.7065 -0.1093 -0.5673
 3484TIP3   OH231942   0.517   0.136  14.504 -0.0356 -0.2551  0.0175
 3484TIP3    H131943   0.581   0.109  14.438 -1.5183  0.7033 -1.9614
 3484TIP3    H231944   0.525   0.231  14.508 -2.0374  0.0504 -1.2123
 3485TIP3   OH231945   4.866   1.364   6.191  0.2365  0.4063 -0.6172
 3485TIP3    H131946   4.854   1.458   6.210  0.4223  1.0067 -3.1357
 3485TIP3    H231947   4.929   1.335   6.257  0.3885  2.1028  0.0590
 3486TIP3   OH231948   0.076   0.267  11.426  0.1190  0.1457 -0.2375
 3486TIP3    H131949   0.153   0.229  11.382  0.7180  0.5018  0.4718
 3486TIP3    H231950   0.002   0.216  11.393  0.2244  1.7352 -3.2920
 3487TIP3   OH231951   4.260   2.839  16.044  0.3704  0.0231  0.4420
 3487TIP3    H131952   4.208   2.860  15.966  2.3123  0.9458 -0.6832
 3487TIP3    H231953   4.231   2.752  16.069 -0.7064 -0.0725 -1.0080
 3488TIP3   OH231954   5.518   3.303  12.681  0.3114  0.1229 -0.0297
 3488TIP3    H131955   5.585   3.238  12.662 -0.2940 -0.1460 -1.3622
 3488TIP3    H231956   5.443   3.251  12.711  0.1476  0.2873 -0.1583
 3489TIP3   OH231957   3.872   3.830  15.423 -0.1393 -0.5578  0.0008
 3489TIP3    H131958   3.940   3.772  15.389 -0.6412 -1.6823  0.8897
 3489TIP3    H231959   3.920   3.908  15.451  0.8409 -1.4512  0.8955
 3490TIP3   OH231960   4.275   4.882   5.121 -0.0713  0.3664 -0.4832
 3490TIP3    H131961   4.352   4.833   5.093  1.0679  1.5312  0.4710
 3490TIP3    H231962   4.223   4.819   5.170  2.7029  0.5894  3.1840
 3491TIP3   OH231963   5.865   4.075  16.049  0.6003 -0.1001 -0.7807
 3491TIP3    H131964   5.828   3.993  16.082  0.8292  0.7017  1.6842
 3491TIP3    H231965   5.960   4.064  16.058  0.5806  1.0084  1.1900
 3492TIP3   OH231966   5.425   3.743  16.302  0.1849 -0.3517  0.2656
 3492TIP3    H131967   5.365   3.733  16.376 -0.3517 -3.0462 -0.4310
 3492TIP3    H231968   5.503   3.782  16.340 -0.2401 -1.2450  2.1976
 3493TIP3   OH231969   0.278   2.679  11.651 -0.4282 -0.0041 -0.1382
 3493TIP3    H131970   0.275   2.586  11.625  2.4081 -0.5369  1.1154
 3493TIP3    H231971   0.258   2.678  11.744  0.2131  0.5932  0.0025
 3494TIP3   OH231972   5.477   0.896   0.298 -0.0633 -0.2293 -0.4027
 3494TIP3    H131973   5.484   0.861   0.387 -0.7212  0.5115 -0.0421
 3494TIP3    H231974   5.388   0.933   0.294  0.5902  1.4170 -0.7330
 3495TIP3   OH231975   2.138   5.240  13.425 -0.1709 -0.5404 -0.7876
 3495TIP3    H131976   2.140   5.189  13.506 -1.2508 -0.2164 -0.5434
 3495TIP3    H231977   2.166   5.327  13.451  0.7662 -0.7549 -1.0297
 3496TIP3   OH231978   4.144   2.593   4.905 -0.4345  0.3873 -0.2476
 3496TIP3    H131979   4.142   2.517   4.847  2.6610 -1.1540  1.3965
 3496TIP3    H231980   4.069   2.582   4.963 -0.1734 -1.3615 -0.1885
 3497TIP3   OH231981   0.196   3.956  13.840  0.8684 -0.8435 -0.7621
 3497TIP3    H131982   0.289   3.966  13.818  0.4948 -1.6444 -3.0760
 3497TIP3    H231983   0.165   4.045  13.856  1.9396 -0.5271 -0.3529
 3498TIP3   OH231984   4.430   6.309  12.518 -0.9220  0.2495  0.5767
 3498TIP3    H131985   4.365   6.260  12.568 -1.8518  0.9837  0.1264
 3498TIP3    H231986   4.473   6.243  12.463 -0.6465 -0.3840  1.5328
 3499TIP3   OH231987   6.056   3.592  16.922  0.1277 -0.0962 -0.2752
 3499TIP3    H131988   6.096   3.524  16.867 -0.2651 -0.6362  0.0877
 3499TIP3    H231989   6.093   3.674  16.890 -0.0181 -0.4002 -1.2806
 3500TIP3   OH231990   5.845   0.864  12.588  0.3341  0.0468 -0.0916
 3500TIP3    H131991   5.807   0.891  12.505  0.3144 -0.9044 -0.4039
 3500TIP3    H231992   5.828   0.770  12.593  1.9980 -0.2756  0.0971
 3501TIP3   OH231993   3.671   3.137  16.882 -0.1476  0.4356 -0.0585
 3501TIP3    H131994   3.733   3.205  16.855 -0.1774  0.6743  0.4811
 3501TIP3    H231995   3.726   3.060  16.899  0.0191  0.7009  0.6019
 3502TIP3   OH231996   5.133   3.590   3.348  0.1913 -0.0315 -0.3631
 3502TIP3    H131997   5.199   3.521   3.344  0.2327  0.0432 -1.2029
 3502TIP3    H231998   5.068   3.558   3.411  0.0245 -1.0005 -1.0062
 3503TIP3   OH231999   4.677   0.718   2.397  0.2277 -0.5826 -0.3645
 3503TIP3    H132000   4.619   0.642   2.390 -0.8789  0.1887  0.2402
 3503TIP3    H232001   4.620   0.789   2.425  1.0045  0.7871 -2.1010
 3504TIP3   OH232002   0.250   4.715  17.295 -0.5600  0.3714 -0.1175
 3504TIP3    H132003   0.204   4.632  17.283 -1.5662  0.6847  1.2618
 3504TIP3    H232004   0.184   4.773  17.334  0.4999  1.3962  0.2128
 3505TIP3   OH232005   1.313   6.199  12.737 -0.1798 -0.2171  0.3639
 3505TIP3    H132006   1.348   6.175  12.822  0.0812 -1.8200 -0.1662
 3505TIP3    H232007   1.299   6.116  12.692  0.2661  0.6045 -1.3807
 3506TIP3   OH232008   0.676   0.133   3.268  0.1268  0.8214  0.1788
 3506TIP3    H132009   0.642   0.148   3.180 -0.0261 -0.5588 -0.0225
 3506TIP3    H232010   0.766   0.106   3.254  0.0579  0.4588  0.4310
 3507TIP3   OH232011   5.517   0.682  11.589 -0.6524  0.1448  0.1786
 3507TIP3    H132012   5.489   0.708  11.677 -0.9015  1.0379 -0.1581
 3507TIP3    H232013   5.504   0.760  11.535 -0.4028 -0.3620 -0.6345
 3508TIP3   OH232014   0.886   3.390   6.004 -0.6143  0.2820  0.7129
 3508TIP3    H132015   0.794   3.387   5.980 -0.3539 -0.3403 -0.2866
 3508TIP3    H232016   0.892   3.460   6.069 -1.6358  0.9155  0.1528
 3509TIP3   OH232017   5.664   5.286   4.871 -0.0805  0.1044 -0.0123
 3509TIP3    H132018   5.658   5.244   4.956 -0.9420 -0.8301 -0.5108
 3509TIP3    H232019   5.748   5.332   4.872 -0.0769  0.0807  1.3192
 3510TIP3   OH232020   0.238   0.655  12.302  0.6032 -0.2353 -0.2415
 3510TIP3    H132021   0.179   0.723  12.270 -1.6448 -1.0790  1.7303
 3510TIP3    H232022   0.254   0.678  12.394  2.5083 -0.6364 -0.4297
 3511TIP3   OH232023   6.242   0.597  17.521  0.5919 -0.5797  0.3440
 3511TIP3    H132024   6.303   0.530  17.550  0.5403 -1.0116 -0.5210
 3511TIP3    H232025   6.236   0.658  17.595  1.3960 -0.9938  0.7584
 3512TIP3   OH232026   0.633   6.179  16.380  0.4908  0.1855 -0.1384
 3512TIP3    H132027   0.647   6.239  16.454 -1.3745  0.9151 -0.3238
 3512TIP3    H232028   0.667   6.226  16.305 -1.2222  1.2087 -0.3283
 3513TIP3   OH232029   6.595   2.942  16.807 -0.1719 -0.1015  0.0798
 3513TIP3    H132030   6.577   2.874  16.872 -0.7900 -0.1755 -0.1555
 3513TIP3    H232031   6.559   2.906  16.725  0.4529  0.0533 -0.2722
 3514TIP3   OH232032   1.381   3.276  13.497  0.2305  0.1685 -0.3203
 3514TIP3    H132033   1.402   3.226  13.575  0.4702  1.9144  0.8017
 3514TIP3    H232034   1.446   3.249  13.432  2.9507  1.7996  1.4991
 3515TIP3   OH232035   1.590   3.601  16.827  0.0496  0.1501 -0.0350
 3515TIP3    H132036   1.620   3.567  16.911  0.5120  0.6462  0.0071
 3515TIP3    H232037   1.551   3.525  16.783 -2.3024  0.3416  1.5286
 3516TIP3   OH232038   3.843   3.278   3.074  0.3712  0.1173 -0.4487
 3516TIP3    H132039   3.838   3.341   3.146 -1.6402 -0.1494 -0.3116
 3516TIP3    H232040   3.919   3.224   3.095  1.4805  1.7647  0.0020
 3517TIP3   OH232041   0.954   4.464  11.279 -0.2267 -0.4245  0.2245
 3517TIP3    H132042   0.982   4.452  11.188 -0.8162  1.4402 -0.2434
 3517TIP3    H232043   1.036   4.464  11.329  0.2851  0.5804 -0.5731
 3518TIP3   OH232044   3.327   5.060   4.074  0.4409  0.1334 -0.0824
 3518TIP3    H132045   3.233   5.044   4.084  0.3805  1.1211  1.1906
 3518TIP3    H232046   3.333   5.118   3.998  0.2373 -1.5503 -1.4576
 3519TIP3   OH232047   2.346   2.464   2.255 -0.1807 -0.4963 -0.0930
 3519TIP3    H132048   2.418   2.490   2.198  0.5553 -1.3633  0.4070
 3519TIP3    H232049   2.386   2.455   2.341 -1.8417  3.9130  1.4134
 3520TIP3   OH232050   2.346   1.442   0.085 -0.6893  0.7670 -0.6483
 3520TIP3    H132051   2.419   1.399   0.129  0.4800  0.8122 -2.4356
 3520TIP3    H232052   2.289   1.370   0.058 -2.3907  0.8083  2.3439
 3521TIP3   OH232053   0.360   2.122   5.494 -0.3347  0.1576  0.7591
 3521TIP3    H132054   0.439   2.069   5.496 -0.5386 -0.1703  0.3760
 3521TIP3    H232055   0.390   2.212   5.511  0.1384  0.0625  0.4468
 3522TIP3   OH232056   1.564   3.065   3.297 -0.2923 -0.4721  0.3152
 3522TIP3    H132057   1.624   3.050   3.370  0.3947  0.3027 -0.0707
 3522TIP3    H232058   1.485   3.018   3.321  0.0098 -0.4306  1.4447
 3523TIP3   OH232059   1.286   4.217  12.770  0.2173  0.5113  0.4907
 3523TIP3    H132060   1.354   4.168  12.722 -0.5855 -1.1971  1.0026
 3523TIP3    H232061   1.311   4.309  12.760  1.5252  0.0522 -0.9704
 3524TIP3   OH232062   1.941   2.445  12.620  0.2791  0.1065  0.2508
 3524TIP3    H132063   1.917   2.400  12.539  0.4009 -0.1559  0.3596
 3524TIP3    H232064   1.966   2.375  12.680  1.5666  0.3822  0.0658
 3525TIP3   OH232065   4.173   5.260   5.344  0.0530  0.2263  0.4618
 3525TIP3    H132066   4.236   5.204   5.388 -0.5333  0.9553  2.3374
 3525TIP3    H232067   4.197   5.349   5.370 -1.5104  0.5394  0.9998
 3526TIP3   OH232068   6.345   3.134   0.111  0.5302 -0.7919  0.2480
 3526TIP3    H132069   6.346   3.115   0.018  1.5178  2.4857 -0.5580
 3526TIP3    H232070   6.431   3.108   0.143  0.3111 -1.6007  0.1926
 3527TIP3   OH232071   4.323   0.818   5.757  0.3978 -0.5308 -0.0469
 3527TIP3    H132072   4.245   0.812   5.702 -1.6604  0.6493  2.5165
 3527TIP3    H232073   4.363   0.901   5.732  0.4239 -0.7756 -0.8535
 3528TIP3   OH232074   0.008   6.704   5.845 -0.2101 -0.1204 -0.5083
 3528TIP3    H132075   0.009   6.799   5.839  1.3430 -0.2081 -3.6196
 3528TIP3    H232076   0.065   6.684   5.920 -0.6845  1.3800  0.2692
 3529TIP3   OH232077   6.034   6.712  14.098 -0.3627 -0.4683 -0.2257
 3529TIP3    H132078   5.955   6.658  14.103 -1.2655  0.6544 -1.6308
 3529TIP3    H232079   6.016   6.774  14.027  0.6910  1.5940  1.2284
 3530TIP3   OH232080   4.035   5.386   5.068  0.0424 -0.3362 -0.7000
 3530TIP3    H132081   4.106   5.323   5.059 -0.1370 -0.6344 -0.1311
 3530TIP3    H232082   4.065   5.463   5.020  0.6229 -0.5617 -0.7139
 3531TIP3   OH232083   5.486   2.899   2.326  0.6255  0.2997  0.5702
 3531TIP3    H132084   5.409   2.843   2.316 -0.1937  1.7806 -2.6241
 3531TIP3    H232085   5.450   2.986   2.345  1.3097  1.2564 -2.0678
 3532TIP3   OH232086   0.242   5.888   0.615 -0.0269  0.6412  0.0383
 3532TIP3    H132087   0.182   5.950   0.657  1.6203  1.8354  0.7211
 3532TIP3    H232088   0.205   5.875   0.528 -2.1511  0.0524  0.9633
 3533TIP3   OH232089   6.262   4.538  13.791  0.3477  0.8641 -0.4394
 3533TIP3    H132090   6.284   4.544  13.884 -0.2346 -1.1702 -0.1218
 3533TIP3    H232091   6.338   4.576  13.747  0.3660  2.4387  0.8482
 3534TIP3   OH232092   2.052   5.013  14.375 -0.1198 -0.2355  0.0425
 3534TIP3    H132093   2.048   5.010  14.279 -5.2267  0.0942 -0.0474
 3534TIP3    H232094   2.035   5.105  14.396  1.8789 -0.1141  1.3862
 3535TIP3   OH232095   2.001   6.383  16.788  0.2220 -0.2188 -0.2206
 3535TIP3    H132096   1.951   6.331  16.726 -1.7714 -0.1811  1.2551
 3535TIP3    H232097   2.092   6.361  16.771 -0.4758 -3.2792 -0.4473
 3536TIP3   OH232098   5.763   6.047  12.612  0.1505 -0.6693  0.6091
 3536TIP3    H132099   5.814   6.092  12.680  0.9424 -0.9639  0.2167
 3536TIP3    H232100   5.783   5.954  12.624  0.1209 -0.7434  0.1172
 3537TIP3   OH232101   1.598   5.914   5.691 -0.5778  0.2833  0.4320
 3537TIP3    H132102   1.530   5.959   5.642 -0.5992 -0.3268 -0.1050
 3537TIP3    H232103   1.621   5.975   5.761  0.2542  1.6712 -0.9836
 3538TIP3   OH232104   6.249   2.888   5.769  0.0825  0.1204  0.3400
 3538TIP3    H132105   6.301   2.847   5.701  0.1894  0.8966 -0.0466
 3538TIP3    H232106   6.311   2.905   5.840 -0.0116 -0.5972  0.6138
 3539TIP3   OH232107   6.140   2.951  15.073  0.0167 -0.4323  0.0703
 3539TIP3    H132108   6.077   2.958  15.002  0.1857  2.0211  0.0721
 3539TIP3    H232109   6.103   3.004  15.144  0.4091 -1.8597  1.4029
 3540TIP3   OH232110   1.476   5.369  13.502  0.4522 -0.6590 -0.0674
 3540TIP3    H132111   1.441   5.418  13.576 -1.4050 -0.1080 -1.2394
 3540TIP3    H232112   1.407   5.306  13.481  1.5921 -1.8397 -0.4003
 3541TIP3   OH232113   0.338   1.805  12.768 -0.4901 -0.5288 -0.1295
 3541TIP3    H132114   0.378   1.718  12.759  0.3735 -0.2834  1.0045
 3541TIP3    H232115   0.411   1.866  12.756 -1.2807  0.1088 -1.9739
 3542TIP3   OH232116   3.778   2.353   4.259 -0.2231  0.4817  0.0413
 3542TIP3    H132117   3.781   2.428   4.199  1.7044 -0.3579 -1.0190
 3542TIP3    H232118   3.818   2.281   4.209 -0.3869 -0.7846  1.6572
 3543TIP3   OH232119   2.611   5.976  12.354 -0.1628 -0.4191 -0.0102
 3543TIP3    H132120   2.648   5.918  12.421  2.7075  0.4389 -0.7438
 3543TIP3    H232121   2.680   6.040  12.336 -2.2478  1.6795 -1.1086
 3544TIP3   OH232122   1.931   3.049  14.299 -0.1890 -0.2759 -0.4441
 3544TIP3    H132123   1.859   3.103  14.331  0.1120  0.3710 -0.8306
 3544TIP3    H232124   1.916   2.963  14.338 -1.1492 -0.1435 -0.4889
 3545TIP3   OH232125   0.609   0.248  16.034 -0.4814 -0.3124 -0.2310
 3545TIP3    H132126   0.670   0.195  15.983  0.3158 -1.1990  1.5547
 3545TIP3    H232127   0.661   0.277  16.110 -2.0048 -0.2620  0.8216
 3546TIP3   OH232128   0.215   5.959   4.031  0.6897 -0.1077 -0.1074
 3546TIP3    H132129   0.235   5.870   4.002  0.3470 -0.8870  1.8834
 3546TIP3    H232130   0.163   5.947   4.111  2.9867  1.8290  1.8233
 3547TIP3   OH232131   1.667   0.509   5.467  0.4236  0.6778  0.5353
 3547TIP3    H132132   1.720   0.431   5.479  1.4996  1.2713 -0.1369
 3547TIP3    H232133   1.584   0.490   5.510  0.4471 -1.0560 -0.1344
 3548TIP3   OH232134   0.894   2.207  16.786  0.2076 -0.0766  0.4622
 3548TIP3    H132135   0.966   2.209  16.723  0.7237 -0.6210  1.0205
 3548TIP3    H232136   0.874   2.299  16.803  1.0895  0.0858  0.6508
 3549TIP3   OH232137   2.042   1.746  16.489 -0.2916 -0.1566  0.0587
 3549TIP3    H132138   1.986   1.802  16.543  0.4751 -0.0666  0.7867
 3549TIP3    H232139   1.987   1.670  16.469 -0.8040  0.1030  0.4404
 3550TIP3   OH232140   0.442   6.508  16.490  0.1609  0.1918  0.1257
 3550TIP3    H132141   0.497   6.430  16.483  2.4542  1.7323  0.0517
 3550TIP3    H232142   0.467   6.548  16.573 -0.2354  1.3765 -0.3088
 3551TIP3   OH232143   2.494   5.044  16.948 -0.2178  0.0526 -0.2716
 3551TIP3    H132144   2.531   5.127  16.917  0.4867 -0.8316 -1.9476
 3551TIP3    H232145   2.518   5.041  17.041  1.5843  0.7919 -0.6545
 3552TIP3   OH232146   6.540   3.471  11.984 -0.5117  0.4413  0.2115
 3552TIP3    H132147   6.633   3.487  11.963 -0.2539 -1.8465 -0.7091
 3552TIP3    H232148   6.533   3.376  11.990 -2.6581  0.6029  1.1175
 3553TIP3   OH232149   4.909   4.599   2.568  0.1742 -0.4241  0.5332
 3553TIP3    H132150   4.891   4.615   2.661 -0.9983  1.8098 -0.0027
 3553TIP3    H232151   4.980   4.660   2.547  0.1738 -0.6391 -0.1140
 3554TIP3   OH232152   5.271   2.064  16.951 -0.1522 -0.0950 -0.3554
 3554TIP3    H132153   5.206   2.093  16.886 -0.4472  1.6888  0.6668
 3554TIP3    H232154   5.264   1.969  16.951 -1.0247 -0.0785 -2.0249
 3555TIP3   OH232155   4.289   6.444  13.970 -0.2514  0.2277 -0.3920
 3555TIP3    H132156   4.242   6.521  13.940  0.7133  0.4131 -1.5283
 3555TIP3    H232157   4.331   6.471  14.052 -0.2407  0.7884 -0.5785
 3556TIP3   OH232158   3.779   1.329  14.953 -0.3240  0.7764  0.3772
 3556TIP3    H132159   3.747   1.387  14.884 -0.6306 -0.1881 -0.3162
 3556TIP3    H232160   3.700   1.288  14.989 -0.1975  1.5054  1.5397
 3557TIP3   OH232161   0.122   6.471  14.826  0.4967  0.3490  0.1367
 3557TIP3    H132162   0.194   6.423  14.785 -0.3547  0.4913 -1.5833
 3557TIP3    H232163   0.109   6.548  14.770 -0.6389  0.6135  0.7312
 3558TIP3   OH232164   5.693   4.851   6.529  0.5122 -0.2397  0.4046
 3558TIP3    H132165   5.714   4.764   6.561  0.6013 -0.1369  0.6264
 3558TIP3    H232166   5.633   4.887   6.593 -0.4782 -0.5882 -0.3081
 3559TIP3   OH232167   5.935   6.110   5.649  0.0515 -0.5155  0.0487
 3559TIP3    H132168   5.958   6.018   5.639 -0.2878 -0.5358 -0.5878
 3559TIP3    H232169   5.957   6.150   5.564  0.3655  0.0247  0.3776
 3560TIP3   OH232170   1.535   6.022  11.837 -0.0431 -0.2650  0.1419
 3560TIP3    H132171   1.522   6.115  11.815 -1.8862  0.3011  3.0695
 3560TIP3    H232172   1.628   6.016  11.862  0.6553  0.2386 -2.1264
 3561TIP3   OH232173   4.597   2.878  12.471  0.1078 -0.2012 -0.7530
 3561TIP3    H132174   4.601   2.965  12.430  0.7892 -0.7342 -1.8372
 3561TIP3    H232175   4.547   2.825  12.409 -2.2652 -0.0747  0.9058
 3562TIP3   OH232176   0.356   6.755   2.405  0.4404 -0.5360 -0.1522
 3562TIP3    H132177   0.426   6.815   2.383  0.6568 -0.1640  1.4318
 3562TIP3    H232178   0.276   6.807   2.398  0.2190 -1.0828 -2.4219
 3563TIP3   OH232179   4.035   6.596   5.572  0.0614 -0.3313 -0.1311
 3563TIP3    H132180   4.086   6.516   5.554 -0.2453 -0.2275 -1.5829
 3563TIP3    H232181   4.069   6.627   5.656  1.9870 -0.5932 -0.7619
 3564TIP3   OH232182   4.267   4.259   3.951 -0.5991  0.0289 -0.4706
 3564TIP3    H132183   4.267   4.186   4.013 -0.6294  0.4227  0.0053
 3564TIP3    H232184   4.219   4.329   3.997 -0.1063  0.5231 -0.7024
 3565TIP3   OH232185   1.635   1.275  15.032  0.0225 -0.6708  0.7055
 3565TIP3    H132186   1.663   1.281  14.941  0.0431 -2.7232  0.5208
 3565TIP3    H232187   1.637   1.365  15.064  0.6395  0.0140 -1.1257
 3566TIP3   OH232188   1.463   6.474  17.106 -0.0550  0.2230  0.2538
 3566TIP3    H132189   1.502   6.406  17.162  0.8122  1.5310  1.2984
 3566TIP3    H232190   1.389   6.431  17.064  0.7003 -1.4781  0.5809
 3567TIP3   OH232191   6.372   6.070   0.850 -0.6202  0.0126  0.2801
 3567TIP3    H132192   6.412   6.081   0.764 -0.1456 -0.6089  0.4150
 3567TIP3    H232193   6.386   5.978   0.872 -0.5845  0.2061  1.0986
 3568TIP3   OH232194   1.029   4.129   5.621 -0.5165 -0.3267 -0.0201
 3568TIP3    H132195   1.048   4.101   5.532 -2.0112  1.0718 -0.8343
 3568TIP3    H232196   1.089   4.202   5.637  3.2075 -3.4493  2.0139
 3569TIP3   OH232197   6.714   5.002  11.651 -0.1311 -0.0246 -0.4933
 3569TIP3    H132198   6.630   5.042  11.674 -0.4647 -1.4325  0.8915
 3569TIP3    H232199   6.767   5.075  11.618 -0.8474  1.5061  1.5322
 3570TIP3   OH232200   2.920   0.099   6.108  0.4273 -0.0900 -0.2588
 3570TIP3    H132201   2.906   0.111   6.014 -0.0659  1.1989 -0.0520
 3570TIP3    H232202   2.999   0.149   6.128 -0.6367  1.4550  0.3342
 3571TIP3   OH232203   0.410   4.539  11.925  0.5091 -0.0600 -0.2824
 3571TIP3    H132204   0.382   4.627  11.951 -1.5083  0.0103 -2.3683
 3571TIP3    H232205   0.352   4.480  11.973  1.8251 -0.3002  1.0743
 3572TIP3   OH232206   3.769   3.456   6.074 -0.4513  0.0337  0.3465
 3572TIP3    H132207   3.711   3.514   6.025 -0.2933 -1.3126 -1.5537
 3572TIP3    H232208   3.846   3.510   6.093 -2.0927  1.7767  2.7023
 3573TIP3   OH232209   5.702   4.675   1.672 -0.4585 -0.1206 -0.0463
 3573TIP3    H132210   5.709   4.630   1.587 -3.0183 -0.3140 -0.2243
 3573TIP3    H232211   5.700   4.604   1.736 -0.1236 -0.0382  0.0599
 3574TIP3   OH232212   2.687   1.110  16.308 -0.2970  0.4919  0.1968
 3574TIP3    H132213   2.610   1.062  16.278 -0.6983  2.2261 -1.8160
 3574TIP3    H232214   2.695   1.183  16.247  3.2785  0.1110  0.0050
 3575TIP3   OH232215   2.750   0.930   6.082  0.2076  0.1699  0.2950
 3575TIP3    H132216   2.809   0.873   6.034  2.4631  0.8629  2.0860
 3575TIP3    H232217   2.696   0.870   6.135  1.4079 -0.3917  0.9097
 3576TIP3   OH232218   1.121   3.393   1.863  0.2050  0.1779  0.0006
 3576TIP3    H132219   1.047   3.333   1.865 -0.5526  1.0876 -0.2079
 3576TIP3    H232220   1.146   3.403   1.955 -1.5259  1.7716  0.3532
 3577TIP3   OH232221   5.877   2.311  17.234  0.5431  0.4343 -0.8978
 3577TIP3    H132222   5.896   2.230  17.282 -0.0569  0.8842  0.1453
 3577TIP3    H232223   5.950   2.369  17.256  0.6332  0.3976 -1.1044
 3578TIP3   OH232224   5.463   2.065   3.671 -0.5408 -0.1945  0.5618
 3578TIP3    H132225   5.490   1.982   3.711 -1.5494 -0.5131  0.6048
 3578TIP3    H232226   5.387   2.042   3.617  0.0460  0.4547 -0.5732
 3579TIP3   OH232227   1.956   3.906   0.637 -0.1271 -0.0490 -0.3352
 3579TIP3    H132228   2.018   3.978   0.623 -0.2937  0.3482  0.8859
 3579TIP3    H232229   2.009   3.834   0.671 -0.4082  0.5756  1.5698
 3580TIP3   OH232230   1.979   6.739  11.908  0.0612 -0.4059  0.0447
 3580TIP3    H132231   2.062   6.758  11.865  0.4858  0.2500  1.1044
 3580TIP3    H232232   1.971   6.806  11.976 -0.6787 -1.2815  0.8512
 3581TIP3   OH232233   5.065   0.009  12.769  0.1806 -0.5282  0.7746
 3581TIP3    H132234   5.060   0.001  12.864 -0.8492 -1.2174  0.6798
 3581TIP3    H232235   5.077  -0.081  12.739  3.8956 -0.0405  0.3845
 3582TIP3   OH232236   6.585   1.042  13.092 -0.0567 -0.0574  0.2437
 3582TIP3    H132237   6.605   1.020  13.183  1.1569  2.5660  0.7104
 3582TIP3    H232238   6.495   1.011  13.079 -0.4843  0.0374  2.5517
 3583TIP3   OH232239   1.710   2.304  12.882 -0.2172  0.1884 -0.6461
 3583TIP3    H132240   1.783   2.258  12.922 -0.7384 -0.5294 -0.5116
 3583TIP3    H232241   1.700   2.384  12.934  2.9386  2.3325 -2.9285
 3584TIP3   OH232242   4.137   6.171   1.254 -0.1654 -0.4727  0.2853
 3584TIP3    H132243   4.143   6.100   1.318 -0.3585 -0.3702  0.4166
 3584TIP3    H232244   4.168   6.248   1.302 -0.9424 -0.2668  0.4583
 3585TIP3   OH232245   2.970   6.191   2.613 -0.4407  0.1769 -0.0214
 3585TIP3    H132246   3.022   6.134   2.670 -0.5392  0.1924  0.0842
 3585TIP3    H232247   3.018   6.193   2.530  0.3594  1.1286  0.4444
 3586TIP3   OH232248   2.476   3.120   4.183 -0.2300 -0.1953  0.4753
 3586TIP3    H132249   2.509   3.192   4.237 -0.1385  0.2976 -0.2263
 3586TIP3    H232250   2.553   3.088   4.136 -0.6665  0.8341 -1.0222
 3587TIP3   OH232251   1.727   4.777   4.506 -0.3584  0.1832  0.5191
 3587TIP3    H132252   1.731   4.863   4.464  0.1950 -0.1184 -0.0651
 3587TIP3    H232253   1.760   4.791   4.594 -1.1623  0.7473  0.7437
 3588TIP3   OH232254   2.700   0.498   5.195  0.2092  0.0745  0.0098
 3588TIP3    H132255   2.636   0.467   5.131 -2.3459  3.1905  0.7760
 3588TIP3    H232256   2.784   0.496   5.149 -1.0624 -0.4845 -2.4351
 3589TIP3   OH232257   5.377   2.617  12.387 -0.5858 -0.0551 -0.0234
 3589TIP3    H132258   5.372   2.524  12.367 -0.8618 -0.0262 -0.0922
 3589TIP3    H232259   5.300   2.655  12.345  0.2318  0.4170 -1.1292
 3590TIP3   OH232260   4.345   0.684  17.321 -0.0259 -0.1051  0.0107
 3590TIP3    H132261   4.287   0.703  17.247 -1.4151 -1.5490  0.6750
 3590TIP3    H232262   4.432   0.679  17.281 -0.3110  2.0578 -1.0152
 3591TIP3   OH232263   3.907   5.909  17.003  0.0661  0.3878  0.5272
 3591TIP3    H132264   3.982   5.850  16.996 -0.3503 -0.2930  1.5741
 3591TIP3    H232265   3.942   5.987  17.046 -0.0743 -0.4469  2.2214
 3592TIP3   OH232266   5.046   6.181   4.242  0.3111 -0.4895 -0.0642
 3592TIP3    H132267   5.120   6.130   4.210  0.9746 -0.4745  1.3433
 3592TIP3    H232268   5.048   6.167   4.337 -1.6910 -0.7438 -0.0195
 3593TIP3   OH232269   6.080   1.829  16.007  0.4007  0.0565  0.2851
 3593TIP3    H132270   6.052   1.861  16.093  0.3913 -0.8521  0.6345
 3593TIP3    H232271   6.061   1.735  16.010 -1.7603  0.3567 -1.5545
 3594TIP3   OH232272   1.595   2.097   3.839 -0.1734  0.4107  0.1461
 3594TIP3    H132273   1.558   2.160   3.901  1.0730  1.4470 -0.1150
 3594TIP3    H232274   1.527   2.085   3.773 -0.5828  1.1851  0.4124
 3595TIP3   OH232275   6.201   0.651  12.076  0.0209 -0.0611  0.4917
 3595TIP3    H132276   6.217   0.722  12.013  0.6406 -0.5853  0.0421
 3595TIP3    H232277   6.201   0.571  12.022 -0.7966 -0.3954  0.9748
 3596TIP3   OH232278   6.555   6.694   5.320 -0.6275  0.0914  0.1302
 3596TIP3    H132279   6.488   6.760   5.336 -0.3689 -0.1430  2.5482
 3596TIP3    H232280   6.512   6.611   5.340 -0.4952 -0.3628 -1.3656
 3597TIP3   OH232281   5.699   1.063  11.466  0.3669 -0.3820 -0.0624
 3597TIP3    H132282   5.760   0.996  11.435  1.3258  1.6735 -3.1518
 3597TIP3    H232283   5.736   1.145  11.434 -3.6096  1.0836 -1.5472
 3598TIP3   OH232284   1.018   2.751  12.168 -0.2774  0.7157 -0.0112
 3598TIP3    H132285   1.066   2.825  12.205  0.3681 -0.8645  2.6367
 3598TIP3    H232286   1.085   2.686  12.149 -0.8812  0.5736 -1.7682
 3599TIP3   OH232287   3.199   4.116  14.869  0.0481 -0.2135 -0.1548
 3599TIP3    H132288   3.283   4.070  14.864  0.8467  1.0530  0.8671
 3599TIP3    H232289   3.208   4.189  14.808 -0.2047  0.0642  0.1340
 3600TIP3   OH232290   0.968   4.712  15.345 -0.9151  0.4018  0.2336
 3600TIP3    H132291   1.018   4.785  15.308  0.2993  0.0273  1.0555
 3600TIP3    H232292   0.894   4.700  15.285  2.1073 -1.7139 -3.6338
 3601TIP3   OH232293   0.739   1.790  13.670  0.2034  0.1191 -0.5567
 3601TIP3    H132294   0.725   1.695  13.668  0.2842  0.0657  0.5409
 3601TIP3    H232295   0.653   1.828  13.654  0.1057 -0.1420 -0.6516
 3602TIP3   OH232296   0.551   5.325   0.243 -0.2260 -0.4643 -0.1134
 3602TIP3    H132297   0.491   5.399   0.247 -0.1270 -0.2290 -2.0217
 3602TIP3    H232298   0.636   5.361   0.269 -0.6259 -0.5240  1.4019
 3603TIP3   OH232299   0.564   0.547   3.643  0.1736 -0.1046 -0.3541
 3603TIP3    H132300   0.609   0.539   3.559  0.7748  0.1494 -0.0684
 3603TIP3    H232301   0.515   0.629   3.637 -1.2296 -0.9743 -1.1079
 3604TIP3   OH232302   0.333   1.327   6.105  0.1155 -0.2279 -0.1208
 3604TIP3    H132303   0.344   1.232   6.114  0.6725 -0.3846 -1.9016
 3604TIP3    H232304   0.411   1.364   6.145  0.4237 -0.6018 -0.3603
 3605TIP3   OH232305   6.442   6.533   6.692  0.2369 -0.0937 -0.1407
 3605TIP3    H132306   6.350   6.522   6.667  0.7217 -0.0331 -2.1154
 3605TIP3    H232307   6.464   6.452   6.738 -0.5652 -0.4817 -0.4232
 3606TIP3   OH232308   3.425   5.969   3.757 -0.0060  0.5313 -0.0113
 3606TIP3    H132309   3.365   5.988   3.829 -1.9522  0.3179 -1.5184
 3606TIP3    H232310   3.512   5.980   3.796 -0.9793  0.8167  2.2519
 3607TIP3   OH232311   1.429   3.763  13.642  0.3701  0.4071  0.2969
 3607TIP3    H132312   1.438   3.682  13.691  1.3424  0.1249 -0.3342
 3607TIP3    H232313   1.481   3.827  13.692 -2.4920  1.3820  2.2901
 3608TIP3   OH232314   2.157   6.420   0.449 -0.6637  0.4480  0.3850
 3608TIP3    H132315   2.079   6.469   0.423 -1.4267 -0.6356  0.5410
 3608TIP3    H232316   2.217   6.430   0.375 -0.6807  1.8196  0.5322
 3609TIP3   OH232317   5.380   0.990   6.049  0.3081 -0.2164 -0.5684
 3609TIP3    H132318   5.346   1.028   6.130  2.0913 -0.8423  0.5269
 3609TIP3    H232319   5.393   1.064   5.991 -0.3158  0.3286 -0.0219
 3610TIP3   OH232320   1.932   2.818   0.166 -0.2991  0.1296  0.3459
 3610TIP3    H132321   1.957   2.781   0.251 -1.1847 -0.9980  0.1300
 3610TIP3    H232322   1.872   2.890   0.188 -0.4369 -0.0858  0.6789
 3611TIP3   OH232323   5.417   3.202   6.821  0.1369 -0.5160  0.0137
 3611TIP3    H132324   5.366   3.137   6.774 -2.8698  0.4668  1.6350
 3611TIP3    H232325   5.352   3.257   6.865  2.5418  2.5021  0.1942
 3612TIP3   OH232326   0.974   4.919   2.363  0.4732 -0.5098  0.0990
 3612TIP3    H132327   0.949   4.839   2.317 -0.1785 -2.0224  2.8142
 3612TIP3    H232328   0.910   4.984   2.336 -2.2389 -2.3792  1.5493
 3613TIP3   OH232329   4.874   3.992  14.445  0.0032  0.6865  0.0981
 3613TIP3    H132330   4.887   4.039  14.527  1.2447 -0.2875  0.4848
 3613TIP3    H232331   4.859   4.061  14.380 -0.5601  1.4868  1.0558
 3614TIP3   OH232332   3.847   0.103  10.835 -0.0725  0.3252 -0.0086
 3614TIP3    H132333   3.816   0.109  10.926  1.5441  0.5392  0.5578
 3614TIP3    H232334   3.932   0.147  10.835  1.7395 -2.8271 -0.7455
 3615TIP3   OH232335   0.691   1.868  13.362  0.4105  0.5509  0.2567
 3615TIP3    H132336   0.711   1.880  13.455  0.2766 -1.9851  0.6802
 3615TIP3    H232337   0.630   1.939  13.341 -0.0725  0.7940  2.2705
 3616TIP3   OH232338   5.500   0.594  11.139 -0.3528 -0.1223 -0.2873
 3616TIP3    H132339   5.472   0.632  11.056  1.0521  0.2876 -0.6120
 3616TIP3    H232340   5.456   0.509  11.143 -0.3637 -0.1893 -1.4979
 3617TIP3   OH232341   4.942   3.427   3.882 -0.5282 -0.1978  0.3883
 3617TIP3    H132342   4.994   3.500   3.847  0.3202 -1.1700 -0.4716
 3617TIP3    H232343   5.007   3.366   3.917 -0.9915 -1.7259 -1.2600
 3618TIP3   OH232344   4.033   4.661   0.821  0.1789  0.1723 -0.4375
 3618TIP3    H132345   3.959   4.602   0.837 -0.3732  0.4139 -1.9247
 3618TIP3    H232346   4.080   4.664   0.904 -1.7351  0.3884  0.6915
 3619TIP3   OH232347   4.296   0.823  13.656  0.3212  0.0716  1.0135
 3619TIP3    H132348   4.379   0.854  13.692  2.5331 -1.2776 -2.3819
 3619TIP3    H232349   4.283   0.876  13.577 -0.6184 -1.5383  0.0302
 3620TIP3   OH232350   3.204   4.303  14.673  0.3871  0.5000 -0.5965
 3620TIP3    H132351   3.233   4.273  14.587 -0.0958  1.6044 -1.1677
 3620TIP3    H232352   3.254   4.384  14.688 -1.0954  1.5046 -0.8450
 3621TIP3   OH232353   5.759   2.116   3.612 -0.0097  0.2804 -0.0415
 3621TIP3    H132354   5.785   2.041   3.558 -1.9001 -0.8944  0.5917
 3621TIP3    H232355   5.666   2.103   3.628  0.2402  1.1389  2.6126
 3622TIP3   OH232356   6.115   0.690  14.244  0.1829  0.8328 -0.3005
 3622TIP3    H132357   6.035   0.713  14.289  0.0023 -1.1351  0.4626
 3622TIP3    H232358   6.184   0.701  14.309 -0.0659 -1.9079  0.5416
 3623TIP3   OH232359   0.645   2.803   4.556  0.4025  0.7285  0.4037
 3623TIP3    H132360   0.593   2.821   4.634  0.4048 -0.6678  0.7556
 3623TIP3    H232361   0.599   2.848   4.485 -0.5622  0.5809  0.9234
 3624TIP3   OH232362   1.120   3.520   5.668  0.1681  0.4303 -0.2501
 3624TIP3    H132363   1.176   3.597   5.680 -0.6064  0.8020  1.2624
 3624TIP3    H232364   1.033   3.556   5.654 -0.1063 -0.1681 -0.0997
 3625TIP3   OH232365   3.309   3.374  14.867  0.2571  0.7226 -0.0003
 3625TIP3    H132366   3.384   3.324  14.901 -1.0503 -1.7425 -0.5708
 3625TIP3    H232367   3.342   3.414  14.786  1.4191  1.1117  0.6342
 3626TIP3   OH232368   6.740   4.707   6.773  0.0522 -0.3468 -0.1913
 3626TIP3    H132369   6.750   4.761   6.695 -0.2034  0.4679  0.3376
 3626TIP3    H232370   6.823   4.716   6.819 -0.7978  1.5005  1.0830
 3627TIP3   OH232371   3.353   6.433   6.410  0.1064  0.0498  0.0584
 3627TIP3    H132372   3.355   6.460   6.502  0.7842  0.8886 -0.1871
 3627TIP3    H232373   3.364   6.338   6.413  2.9579  0.2945  0.7794
 3628TIP3   OH232374   3.354   1.174   0.852 -0.1626 -0.1280 -0.1349
 3628TIP3    H132375   3.282   1.236   0.839 -0.3888 -0.6323 -1.3950
 3628TIP3    H232376   3.380   1.187   0.943 -2.8544 -0.9846  0.8595
 3629TIP3   OH232377   4.205   4.185  12.267  0.0126  0.3971 -0.2109
 3629TIP3    H132378   4.190   4.095  12.238 -1.5569  1.0807 -1.6932
 3629TIP3    H232379   4.172   4.239  12.196  0.9974  2.1718  0.6150
 3630TIP3   OH232380   3.419   3.487   3.852 -0.2731  0.2359 -0.0331
 3630TIP3    H132381   3.361   3.458   3.781 -0.6959  1.2818 -0.1243
 3630TIP3    H232382   3.505   3.495   3.811  0.0585 -1.6823  0.1837
 3631TIP3   OH232383   1.836   2.721   3.678  0.3056 -0.8419 -0.1526
 3631TIP3    H132384   1.790   2.731   3.762 -0.0844 -0.6742 -0.3894
 3631TIP3    H232385   1.913   2.668   3.700 -0.5201 -1.9856  0.0633
 3632TIP3   OH232386   0.073   2.238   4.463  0.3625  0.5784  0.2612
 3632TIP3    H132387   0.013   2.304   4.498  0.5270  1.3366 -0.8480
 3632TIP3    H232388   0.018   2.182   4.408  0.4290  0.4411  0.3325
 3633TIP3   OH232389   5.881   1.556  10.781 -0.0255  0.0788  0.6956
 3633TIP3    H132390   5.960   1.509  10.752 -1.2825 -1.1330 -1.0098
 3633TIP3    H232391   5.913   1.619  10.845  2.2744 -0.6105  0.3370
 3634TIP3   OH232392   3.893   3.901   5.834  0.3462  0.6243 -0.0344
 3634TIP3    H132393   3.879   3.982   5.785 -0.0381  0.9447  0.5900
 3634TIP3    H232394   3.884   3.831   5.769  0.4833  1.0715 -0.5368
 3635TIP3   OH232395   0.528   0.734   2.456  0.1020 -0.0290  0.1852
 3635TIP3    H132396   0.615   0.736   2.498 -0.7576 -0.2684  2.0830
 3635TIP3    H232397   0.545   0.760   2.365  2.2456 -0.6457  0.3324
 3636TIP3   OH232398   2.735   0.390  13.428  0.4906  0.1498  0.0465
 3636TIP3    H132399   2.759   0.473  13.389  0.8296 -1.0138 -2.4047
 3636TIP3    H232400   2.726   0.330  13.354 -3.1622 -1.2012  1.3622
 3637TIP3   OH232401   2.323   2.816   0.604  0.2769 -0.4947  0.0384
 3637TIP3    H132402   2.252   2.759   0.632 -1.2291  2.1766  2.1084
 3637TIP3    H232403   2.388   2.809   0.674 -0.5772  1.2765  1.0954
 3638TIP3   OH232404   4.837   5.403   1.826 -0.2067 -0.3988 -0.1487
 3638TIP3    H132405   4.812   5.349   1.902 -0.0801 -0.9288 -0.4761
 3638TIP3    H232406   4.829   5.344   1.751 -1.7938  0.5337 -0.7593
 3639TIP3   OH232407   0.147   6.753  16.262 -0.3782 -0.7693 -0.3415
 3639TIP3    H132408   0.230   6.762  16.215 -0.2454 -1.5587 -0.2777
 3639TIP3    H232409   0.092   6.701  16.203 -0.8119 -0.3123 -0.3526
 3640TIP3   OH232410   2.266   5.053  13.914 -0.3143 -0.6598  0.6175
 3640TIP3    H132411   2.299   5.115  13.978  2.8188 -0.4779 -0.9603
 3640TIP3    H232412   2.324   4.977  13.922 -1.6337 -1.7917 -0.0976
 3641TIP3   OH232413   1.761   4.065   5.524  0.4594  0.0021  0.0613
 3641TIP3    H132414   1.856   4.061   5.513  0.7447  1.9170  1.2987
 3641TIP3    H232415   1.743   4.008   5.598  0.7827  0.4094  0.4563
 3642TIP3   OH232416   0.736   1.357   1.593  0.3811 -0.3067 -0.1177
 3642TIP3    H132417   0.695   1.426   1.646 -0.7698 -1.4488  0.5687
 3642TIP3    H232418   0.706   1.374   1.504 -1.9816 -1.2778  0.4076
 3643TIP3   OH232419   5.015   3.532   0.248 -0.5805  0.3159  0.2914
 3643TIP3    H132420   4.935   3.481   0.261  0.7783 -2.0804 -0.0749
 3643TIP3    H232421   5.076   3.471   0.207  1.4016  2.1068  0.3790
 3644TIP3   OH232422   1.214   2.701   0.619  0.4102  0.5126  0.6651
 3644TIP3    H132423   1.125   2.676   0.643 -0.3257  3.0002  0.8692
 3644TIP3    H232424   1.267   2.623   0.636 -1.6681 -0.9529  0.7894
 3645TIP3   OH232425   5.000   4.601  13.165  0.2982  0.4288  0.4097
 3645TIP3    H132426   5.006   4.689  13.128 -1.3384  0.7912  0.9460
 3645TIP3    H232427   5.059   4.602  13.240 -0.6052  1.4764  1.1418
 3646TIP3   OH232428   4.702   6.506   4.797 -0.1008 -0.3313 -0.3497
 3646TIP3    H132429   4.786   6.544   4.772  0.1136  0.4471  1.4088
 3646TIP3    H232430   4.717   6.412   4.795  0.6984 -0.2127 -0.4060
 3647TIP3   OH232431   6.401   0.888   5.580 -0.8319  0.1083 -0.2478
 3647TIP3    H132432   6.408   0.911   5.672 -0.2980 -1.1347  0.0389
 3647TIP3    H232433   6.381   0.795   5.580  1.2782 -0.3944 -1.4174
 3648TIP3   OH232434   2.985   0.628   4.591  0.1394  0.1412 -0.2491
 3648TIP3    H132435   2.907   0.583   4.556  0.0248  0.6971 -0.7335
 3648TIP3    H232436   2.973   0.625   4.686 -1.4063  1.7646 -0.3283
 3649TIP3   OH232437   6.411   3.554  15.590  0.2382  0.0251  0.2378
 3649TIP3    H132438   6.487   3.577  15.643 -0.3406  0.0044  1.1039
 3649TIP3    H232439   6.374   3.638  15.563 -0.8322  0.1339  1.8881
 3650TIP3   OH232440   4.274   6.008   0.989  0.8336  0.1827 -0.1272
 3650TIP3    H132441   4.298   6.015   1.082  1.5378  3.1650 -0.4470
 3650TIP3    H232442   4.342   5.952   0.951  0.3645 -1.3344  1.1575
 3651TIP3   OH232443   0.832   3.593   3.152  1.3767  0.2379  0.2954
 3651TIP3    H132444   0.774   3.568   3.080  1.4302 -0.4575  0.4920
 3651TIP3    H232445   0.894   3.520   3.161  2.5685  1.1474 -0.1920
 3652TIP3   OH232446   0.087   6.624   6.099 -0.3707 -0.4235  0.7049
 3652TIP3    H132447   0.124   6.694   6.154 -0.9362  1.4646 -1.1879
 3652TIP3    H232448   0.161   6.566   6.081  1.2796  2.0556 -1.1618
 3653TIP3   OH232449   6.318   4.263  11.914  0.5002 -0.0423 -0.9564
 3653TIP3    H132450   6.276   4.328  11.969 -0.0239  0.1609 -1.5810
 3653TIP3    H232451   6.261   4.186  11.919  0.7092 -0.1921 -0.8309
 3654TIP3   OH232452   3.174   1.082   4.375 -0.2659 -0.4053 -0.0265
 3654TIP3    H132453   3.176   1.000   4.424  0.9263  0.5109  1.5574
 3654TIP3    H232454   3.264   1.093   4.342 -0.2918  0.4502  0.1535
 3655TIP3   OH232455   1.156   6.346   3.520 -0.1439  0.3122 -0.2112
 3655TIP3    H132456   1.171   6.418   3.459  0.1155 -1.4181 -2.3434
 3655TIP3    H232457   1.235   6.345   3.575  0.4899  0.8224 -1.0752
 3656TIP3   OH232458   3.961   4.279  11.271 -0.5474 -0.5541 -0.4104
 3656TIP3    H132459   4.020   4.321  11.334  0.5040 -0.1075 -1.6363
 3656TIP3    H232460   3.874   4.286  11.311  0.0110  0.1237  0.7644
 3657TIP3   OH232461   1.705   4.521   1.429  0.2066  0.4763 -0.0647
 3657TIP3    H132462   1.667   4.570   1.356  1.3356  0.3989 -0.7262
 3657TIP3    H232463   1.753   4.586   1.480  0.2178  0.3637  0.0716
 3658TIP3   OH232464   0.809   2.370   1.937 -0.1037 -0.1171  0.2709
 3658TIP3    H132465   0.876   2.396   2.000 -0.1542 -0.3587  0.4269
 3658TIP3    H232466   0.838   2.284   1.906 -0.7125 -0.5431  0.8698
 3659TIP3   OH232467   5.299   1.707   5.953  1.1288  0.3380  0.1305
 3659TIP3    H132468   5.250   1.630   5.924  1.2301  0.4168 -0.2632
 3659TIP3    H232469   5.231   1.770   5.979  0.9487  0.9238 -1.6188
 3660TIP3   OH232470   3.852   6.174   0.050  0.1456 -0.1202 -0.1578
 3660TIP3    H132471   3.842   6.110   0.120  1.1108  0.5386  0.6075
 3660TIP3    H232472   3.811   6.254   0.083  0.6217  0.2027 -0.3336
 3661TIP3   OH232473   6.592   6.111   2.015 -0.0331  0.2070  0.4089
 3661TIP3    H132474   6.515   6.071   2.055  1.0025 -1.0968  1.2042
 3661TIP3    H232475   6.597   6.198   2.053  0.7706 -0.8859  3.0429
 3662TIP3   OH232476   5.598   4.568  13.278 -0.2192  0.4867 -0.2982
 3662TIP3    H132477   5.516   4.545  13.235  0.3300 -0.9323 -0.6214
 3662TIP3    H232478   5.662   4.572  13.208 -0.0583  1.9897 -0.1001
 3663TIP3   OH232479   0.095   0.608  13.082 -0.4347 -0.0577  0.0783
 3663TIP3    H132480   0.097   0.523  13.127 -1.7025 -0.5508 -0.7479
 3663TIP3    H232481   0.102   0.672  13.153 -0.9149 -0.8255  0.8442
 3664TIP3   OH232482   3.299   3.314  15.292 -0.6058 -0.0474 -0.1050
 3664TIP3    H132483   3.298   3.352  15.380  0.7827 -0.5615  0.1671
 3664TIP3    H232484   3.279   3.222  15.305 -0.8171 -0.0400 -0.3779
 3665TIP3   OH232485   2.534   2.980  13.124 -0.3524  0.0020  0.4373
 3665TIP3    H132486   2.541   2.907  13.186  1.1125  0.1167  0.4335
 3665TIP3    H232487   2.560   2.943  13.040 -1.3081  0.1152  0.0727
 3666TIP3   OH232488   0.241   2.408  11.605 -0.1380 -0.1113  0.1841
 3666TIP3    H132489   0.313   2.399  11.543  0.8767 -0.1515  1.3184
 3666TIP3    H232490   0.198   2.323  11.605 -0.0883 -0.1395 -0.3822
 3667TIP3   OH232491   4.127   2.957   4.458 -0.0369  0.2628  0.2567
 3667TIP3    H132492   4.168   3.020   4.398 -1.3119 -0.0710 -1.0200
 3667TIP3    H232493   4.192   2.887   4.467 -0.3568 -0.3896 -1.9267
 3668TIP3   OH232494   3.911   2.713   1.762  0.7334 -0.2823  0.4250
 3668TIP3    H132495   3.875   2.651   1.699  0.1962 -0.2485  0.6943
 3668TIP3    H232496   4.002   2.685   1.774  0.8108 -0.3372 -0.2949
 3669TIP3   OH232497   5.694   4.228  12.242 -0.4753 -0.1932  0.3032
 3669TIP3    H132498   5.636   4.177  12.299 -0.7419  1.2410  1.3844
 3669TIP3    H232499   5.778   4.229  12.288 -0.3122 -0.1044  0.0096
 3670TIP3   OH232500   2.454   1.181   6.695  0.0281 -0.3826  0.6782
 3670TIP3    H132501   2.378   1.201   6.641  0.8497 -0.4570 -0.5547
 3670TIP3    H232502   2.433   1.096   6.735 -0.5465 -0.3897  0.3686
 3671TIP3   OH232503   4.078   2.351   3.560  0.7392 -0.4610 -0.4351
 3671TIP3    H132504   4.003   2.302   3.525 -0.3653  0.2001  0.9187
 3671TIP3    H232505   4.045   2.392   3.640  3.0119 -1.5109  1.1488
 3672TIP3   OH232506   4.712   4.388  15.878  0.8335  0.2040  0.1634
 3672TIP3    H132507   4.786   4.351  15.830 -0.0865 -2.3098  0.5434
 3672TIP3    H232508   4.744   4.396  15.968  0.7334 -0.7023  0.2913
 3673TIP3   OH232509   6.714   0.346  15.522  0.7312 -0.1276 -0.0313
 3673TIP3    H132510   6.695   0.415  15.458  1.4715 -0.1732 -0.3065
 3673TIP3    H232511   6.694   0.264  15.476  0.2045 -0.1151  0.1717
 3674TIP3   OH232512   6.187   5.538   6.217 -0.6601 -0.1089 -0.4347
 3674TIP3    H132513   6.228   5.486   6.286  1.8810  3.3171  0.9030
 3674TIP3    H232514   6.100   5.560   6.251 -0.0552  0.1908  0.9853
 3675TIP3   OH232515   2.206   4.757  10.516  0.0773 -0.1007  0.3573
 3675TIP3    H132516   2.159   4.822  10.462 -0.7852 -0.6298  0.4425
 3675TIP3    H232517   2.137   4.714  10.566  0.6410 -1.0414  0.3489
 3676TIP3   OH232518   2.815   0.975  17.193  0.4266  0.2690  0.4627
 3676TIP3    H132519   2.781   1.038  17.129  0.0515 -0.8885 -0.5312
 3676TIP3    H232520   2.910   0.979  17.182  0.3241 -0.9660 -1.2824
 3677TIP3   OH232521   6.386   3.004   5.005 -0.5177  0.2430 -0.0261
 3677TIP3    H132522   6.328   3.077   5.024  0.7575  1.0515  0.9369
 3677TIP3    H232523   6.462   3.018   5.062  0.8406 -0.5162 -1.5616
 3678TIP3   OH232524   2.875   0.867  15.188 -0.3388  0.3858  0.5101
 3678TIP3    H132525   2.947   0.825  15.234  1.2973  0.5426 -1.7190
 3678TIP3    H232526   2.826   0.913  15.256  0.1569 -1.8034  2.4453
 3679TIP3   OH232527   5.940   6.290   3.958 -0.1114 -0.1595  0.1474
 3679TIP3    H132528   5.885   6.368   3.959 -1.0087 -0.7365 -1.5490
 3679TIP3    H232529   5.969   6.281   4.049 -2.7899  0.1849  1.1416
 3680TIP3   OH232530   6.075   6.526   6.268  0.6699  0.2941  0.2481
 3680TIP3    H132531   5.985   6.524   6.299  0.4042 -0.0496 -0.5250
 3680TIP3    H232532   6.077   6.597   6.205  0.8342  0.0349 -0.0406
 3681TIP3   OH232533   1.681   4.909  15.854 -0.2698 -0.2288 -0.1134
 3681TIP3    H132534   1.683   4.903  15.759 -0.9672 -1.8755 -0.0574
 3681TIP3    H232535   1.633   4.831  15.882 -1.1543  0.8486  1.5346
 3682TIP3   OH232536   1.202   4.159  16.793 -0.7351  0.1183  0.6999
 3682TIP3    H132537   1.164   4.164  16.881 -2.7274  0.6518 -0.1190
 3682TIP3    H232538   1.128   4.132  16.738  0.2283  0.7523 -0.9477
 3683TIP3   OH232539   1.963   3.786   6.319  0.6697 -0.2528  0.5639
 3683TIP3    H132540   1.905   3.853   6.283 -0.2908 -1.0446  0.5988
 3683TIP3    H232541   2.007   3.830   6.392 -0.3733  0.1819  0.9500
 3684TIP3   OH232542   0.929   1.641   2.827 -0.4595 -0.2772 -0.5501
 3684TIP3    H132543   0.958   1.580   2.895  1.0290 -0.7432 -1.5622
 3684TIP3    H232544   0.949   1.598   2.745  0.7271  1.5904 -1.3103
 3685TIP3   OH232545   6.243   2.845  11.261 -0.1270  0.4508 -0.5328
 3685TIP3    H132546   6.297   2.861  11.338 -0.2134 -0.3401 -0.2982
 3685TIP3    H232547   6.303   2.854  11.187 -0.0476  1.2377 -0.3857
 3686TIP3   OH232548   1.656   3.457  13.504  0.0966  0.2094  0.6612
 3686TIP3    H132549   1.597   3.462  13.579 -3.6188  1.4060 -1.9879
 3686TIP3    H232550   1.619   3.520  13.441  3.0094 -0.6013 -2.1385
 3687TIP3   OH232551   3.905   2.590  15.443 -0.0931  0.1165  0.0013
 3687TIP3    H132552   3.826   2.555  15.485  0.0194  2.4694  2.4728
 3687TIP3    H232553   3.874   2.667  15.397  0.5861  0.4075  0.0340
 3688TIP3   OH232554   2.197   0.094   2.634  0.4396  0.0316 -0.8077
 3688TIP3    H132555   2.234   0.085   2.546 -1.7865 -0.1041 -1.7826
 3688TIP3    H232556   2.171   0.005   2.658  2.3630 -0.1956  0.6668
 3689TIP3   OH232557   0.141   5.210   0.168 -0.2182  0.4435 -0.1553
 3689TIP3    H132558   0.156   5.296   0.130 -0.6310  0.5412 -0.0986
 3689TIP3    H232559   0.176   5.149   0.102 -0.8486  0.6171 -0.6671
 3690TIP3   OH232560   4.257   6.467   0.306 -0.0778 -0.0818 -0.2680
 3690TIP3    H132561   4.283   6.552   0.268  0.2831 -0.3483 -0.6310
 3690TIP3    H232562   4.191   6.489   0.371 -0.2098  0.4546 -0.5760
 3691TIP3   OH232563   4.668   6.229  17.005  0.5333 -0.2536  0.4644
 3691TIP3    H132564   4.637   6.144  17.036  1.2068 -0.1980  1.3283
 3691TIP3    H232565   4.669   6.221  16.909 -1.2897 -0.5374  0.4460
 3692TIP3   OH232566   4.180   4.246   2.323 -0.2394  0.1571 -0.4108
 3692TIP3    H132567   4.244   4.310   2.292 -1.7504  1.3185 -1.2852
 3692TIP3    H232568   4.113   4.246   2.256 -2.0378  0.3304  1.2955
 3693TIP3   OH232569   0.873   3.775   1.146 -0.0035  0.0553 -0.3234
 3693TIP3    H132570   0.855   3.834   1.073 -1.0484  2.1124  1.4559
 3693TIP3    H232571   0.934   3.823   1.202  1.1317 -1.6433 -0.0019
 3694TIP3   OH232572   1.791   5.910   5.243 -0.2042  0.3617 -0.1202
 3694TIP3    H132573   1.810   5.898   5.336 -0.2317 -1.4949 -0.3114
 3694TIP3    H232574   1.862   5.965   5.211  1.4210 -1.3228  0.4451
 3695TIP3   OH232575   2.809   6.356  11.223  0.2430  0.1184 -0.2327
 3695TIP3    H132576   2.715   6.373  11.216  0.0807  0.6120  2.3087
 3695TIP3    H232577   2.850   6.441  11.211  0.5753 -0.3503 -3.1262
 3696TIP3   OH232578   1.833   3.993   0.418  0.0570 -0.1041  0.3198
 3696TIP3    H132579   1.778   3.922   0.384 -1.3979  0.2404  1.8274
 3696TIP3    H232580   1.882   3.953   0.491  0.2444  0.1102  0.3139
 3697TIP3   OH232581   1.643   3.752  17.254 -0.4112  0.1133 -0.2656
 3697TIP3    H132582   1.685   3.669  17.230  3.0396  1.8283 -0.6969
 3697TIP3    H232583   1.621   3.741  17.347  2.2645 -0.5040  0.3759
 3698TIP3   OH232584   2.676   4.347  13.568  0.1179  0.3101  0.3094
 3698TIP3    H132585   2.620   4.275  13.598 -1.5892  1.9768  1.3807
 3698TIP3    H232586   2.726   4.311  13.495 -0.4242 -2.0325  1.0204
 3699TIP3   OH232587   5.240   4.524   6.087  0.5887 -0.2546 -0.4983
 3699TIP3    H132588   5.175   4.455   6.101 -0.4244  0.5478 -1.0843
 3699TIP3    H232589   5.290   4.527   6.169 -0.3772 -0.6172  0.1182
 3700TIP3   OH232590   6.728   3.225   0.275 -0.0409 -0.4022 -0.1140
 3700TIP3    H132591   6.756   3.314   0.295 -2.1308  0.3853 -0.4677
 3700TIP3    H232592   6.725   3.222   0.179 -2.2744 -0.0112 -0.1146
 3701TIP3   OH232593   1.007   4.624  12.228 -0.1082  0.5678 -0.0938
 3701TIP3    H132594   1.072   4.578  12.282 -1.4452 -0.9409  0.2853
 3701TIP3    H232595   1.051   4.706  12.203  1.5006  0.1226  1.1045
 3702TIP3   OH232596   6.209   4.473  17.328 -0.3895  0.5359 -0.3603
 3702TIP3    H132597   6.166   4.557  17.347 -2.4051 -0.5125  0.0074
 3702TIP3    H232598   6.170   4.445  17.245 -1.4403 -1.0477  0.6254
 3703TIP3   OH232599   2.322   0.953  12.429 -0.2005  0.4004  0.5723
 3703TIP3    H132600   2.413   0.941  12.457  0.0062  0.5328 -0.0367
 3703TIP3    H232601   2.327   1.003  12.348 -0.7244 -0.8587 -0.2730
 3704TIP3   OH232602   5.443   4.328  12.726  0.1954 -0.1794  0.1015
 3704TIP3    H132603   5.497   4.335  12.648  0.6971 -1.1532  0.3400
 3704TIP3    H232604   5.448   4.415  12.767  1.5583 -0.2273  0.0910
 3705TIP3   OH232605   6.440   0.916   4.558 -0.2518 -0.3781  0.0290
 3705TIP3    H132606   6.457   0.938   4.650  0.1471 -0.3407 -0.0568
 3705TIP3    H232607   6.526   0.907   4.518 -0.4263 -0.2350 -0.3849
 3706TIP3   OH232608   0.359   4.066  16.001 -0.3507  0.0599 -0.2054
 3706TIP3    H132609   0.428   4.090  16.063 -1.4963 -0.6653  1.4314
 3706TIP3    H232610   0.333   4.149  15.962  0.9407  0.4324 -0.3132
 3707TIP3   OH232611   5.691   4.413   1.800  0.2501 -0.1116 -0.3036
 3707TIP3    H132612   5.617   4.360   1.829  1.3394 -2.0321 -0.9213
 3707TIP3    H232613   5.768   4.363   1.826  1.3179  0.9774 -1.2666
 3708TIP3   OH232614   3.562   1.506   3.156 -0.1934  0.0910  0.0925
 3708TIP3    H132615   3.611   1.554   3.223 -1.1452  1.7303 -0.3306
 3708TIP3    H232616   3.590   1.545   3.073 -0.1422 -0.8919 -0.3680
 3709TIP3   OH232617   1.802   6.638  14.675 -0.2386 -0.1233 -0.3004
 3709TIP3    H132618   1.877   6.586  14.704  0.3745  0.9669  0.1333
 3709TIP3    H232619   1.726   6.593  14.711  0.2228 -1.0777 -0.4885
 3710TIP3   OH232620   2.252   2.011  14.583  0.1578  0.1752 -0.2677
 3710TIP3    H132621   2.243   1.954  14.660 -0.0267  0.9032  0.2652
 3710TIP3    H232622   2.174   2.066  14.585  2.1866  3.3423  1.6854
 3711TIP3   OH232623   4.764   5.547  16.564  0.0838 -0.3559 -0.0595
 3711TIP3    H132624   4.735   5.578  16.650  0.9517  0.5883 -0.0928
 3711TIP3    H232625   4.827   5.478  16.583 -0.7153 -1.0817  0.0321
 3712TIP3   OH232626   1.005   4.519   2.051  0.7185 -0.5687  0.6201
 3712TIP3    H132627   0.966   4.579   2.115 -0.7925 -0.1145 -0.6473
 3712TIP3    H232628   1.100   4.532   2.061  0.4671  1.1071  1.2587
 3713TIP3   OH232629   2.736   2.859   1.535 -0.0842 -0.5317  0.4525
 3713TIP3    H132630   2.782   2.800   1.476  0.1040 -0.1940  0.2546
 3713TIP3    H232631   2.648   2.867   1.497  0.2818  0.3199 -0.2498
 3714TIP3   OH232632   5.507   5.923  14.181  0.0162  0.3559 -0.6341
 3714TIP3    H132633   5.440   5.857  14.200  1.2386 -0.6926  0.2024
 3714TIP3    H232634   5.463   6.007  14.196 -1.7593 -0.1995 -2.3328
 3715TIP3   OH232635   4.194   1.547   6.333 -0.0633  0.1495  0.4338
 3715TIP3    H132636   4.202   1.512   6.422  1.6826 -0.3822  0.0904
 3715TIP3    H232637   4.216   1.639   6.341  2.2227 -0.3183  0.2756
 3716TIP3   OH232638   1.924   6.602  14.363  0.4030  0.5412  0.2724
 3716TIP3    H132639   1.996   6.652  14.324 -1.0864  1.2159 -1.7828
 3716TIP3    H232640   1.851   6.664  14.366 -0.4437 -0.4676  1.2110
 3717TIP3   OH232641   2.470   5.689  13.836 -0.1383  0.1517 -0.0506
 3717TIP3    H132642   2.414   5.762  13.809 -0.6136  0.2566  1.1324
 3717TIP3    H232643   2.409   5.618  13.856  0.2931 -0.4078 -0.6846
 3718TIP3   OH232644   2.266   6.036   1.949 -0.0653 -0.4123 -0.4077
 3718TIP3    H132645   2.343   5.991   1.911  0.6218  1.2381 -1.0520
 3718TIP3    H232646   2.277   6.127   1.924 -1.7664  0.0284  0.3324
 3719TIP3   OH232647   4.642   0.078  15.406 -0.0130 -0.4085 -0.0521
 3719TIP3    H132648   4.665   0.057  15.497 -1.0437 -0.1078  0.2944
 3719TIP3    H232649   4.621   0.171  15.408  0.8542 -0.1831 -0.8070
 3720TIP3   OH232650   4.291   6.638   0.959 -0.3336  0.4805 -0.2730
 3720TIP3    H132651   4.201   6.608   0.971 -0.5997  0.9027 -1.1156
 3720TIP3    H232652   4.339   6.600   1.032 -1.3574  0.9417  0.6620
 3721TIP3   OH232653   4.593   1.592   3.626 -0.4288  0.1946  0.0689
 3721TIP3    H132654   4.679   1.618   3.660 -1.0140  0.7151  1.1832
 3721TIP3    H232655   4.611   1.511   3.577  0.9466  1.1232 -1.0547
 3722TIP3   OH232656   5.740   4.857  12.958 -0.6163 -0.1766  0.2028
 3722TIP3    H132657   5.748   4.840  13.052  0.6343 -0.0854  0.1283
 3722TIP3    H232658   5.830   4.860  12.927 -1.0284 -0.9111 -1.1377
 3723TIP3   OH232659   1.760   5.955  14.664  0.0403  0.1040 -0.5845
 3723TIP3    H132660   1.783   6.004  14.744  0.2607 -2.2041  0.8739
 3723TIP3    H232661   1.845   5.928  14.628 -0.0035 -3.0811  1.2990
 3724TIP3   OH232662   4.582   3.245  14.919 -0.0041 -0.0420  0.3699
 3724TIP3    H132663   4.658   3.293  14.885  1.2107 -1.8679  0.3866
 3724TIP3    H232664   4.619   3.165  14.957 -2.1535 -2.3731 -2.0777
 3725TIP3   OH232665   5.035   5.016   4.714 -0.1675  0.6329  0.0657
 3725TIP3    H132666   5.041   4.926   4.682 -1.0728  0.0228  1.5050
 3725TIP3    H232667   5.029   5.007   4.809 -0.9298  2.1813  0.1880
 3726TIP3   OH232668   3.247   5.706   2.521  0.2117 -0.0991  0.1092
 3726TIP3    H132669   3.180   5.758   2.564 -1.8329 -2.6092  0.2075
 3726TIP3    H232670   3.285   5.653   2.592 -1.5107 -2.5126 -0.6252
 3727TIP3   OH232671   0.336   1.044  14.122 -0.3777 -0.3731  0.1477
 3727TIP3    H132672   0.391   1.016  14.049 -0.5744 -1.4018  0.3770
 3727TIP3    H232673   0.394   1.098  14.176 -0.1413  0.1250 -0.5870
 3728TIP3   OH232674   2.308   6.749   3.521 -0.0129  0.3090  0.5963
 3728TIP3    H132675   2.254   6.697   3.581  1.7175 -0.2290  1.7399
 3728TIP3    H232676   2.381   6.692   3.499  0.7682  1.4738  0.0968
 3729TIP3   OH232677   1.348   4.520  12.603 -0.1944  0.3009  0.6097
 3729TIP3    H132678   1.409   4.456  12.566 -0.6610 -0.2022  0.7005
 3729TIP3    H232679   1.397   4.602  12.604 -0.5406  0.6556 -2.3136
 3730TIP3   OH232680   5.280   6.250  11.885 -0.1137  0.1560  0.4449
 3730TIP3    H132681   5.227   6.295  11.820 -0.5585 -1.9138 -0.7116
 3730TIP3    H232682   5.246   6.281  11.969 -1.0851  1.1720 -0.2921
 3731TIP3   OH232683   5.832   0.853   5.825  0.0297 -0.1657 -0.2250
 3731TIP3    H132684   5.797   0.831   5.739 -0.7827  0.2708 -0.0204
 3731TIP3    H232685   5.799   0.783   5.882 -0.5503  0.2563 -0.0285
 3732TIP3   OH232686   0.292   6.744  15.599 -0.1305 -0.4407 -0.3763
 3732TIP3    H132687   0.327   6.706  15.518  0.0960  1.2043 -1.0952
 3732TIP3    H232688   0.368   6.750  15.657 -0.0165 -0.4145 -0.5252
 3733TIP3   OH232689   2.206   0.398   5.457  0.5582  0.5627 -0.2448
 3733TIP3    H132690   2.285   0.451   5.449  0.2981  1.2678  1.4145
 3733TIP3    H232691   2.227   0.333   5.523  0.1065  0.0555 -0.5904
 3734TIP3   OH232692   1.546   2.454   3.062 -0.2919 -0.1401 -0.3558
 3734TIP3    H132693   1.590   2.369   3.059  1.7475  0.8209  0.2152
 3734TIP3    H232694   1.574   2.498   2.981  1.7762  1.3446  1.0677
 3735TIP3   OH232695   3.564   4.772  10.898  0.4716  0.2586  0.3605
 3735TIP3    H132696   3.548   4.825  10.976  3.6231 -0.6498  1.7546
 3735TIP3    H232697   3.512   4.692  10.913  0.7814  0.2333  1.3716
 3736TIP3   OH232698   0.059   4.983  15.041 -0.4927 -0.7886 -1.0211
 3736TIP3    H132699   0.046   5.053  14.976 -0.4460  0.1064 -0.0963
 3736TIP3    H232700   0.047   4.902  14.992 -2.5100 -0.1223 -1.7236
 3737TIP3   OH232701   5.513   2.175  14.884 -0.1151 -0.0134  0.5651
 3737TIP3    H132702   5.485   2.233  14.955 -0.2643 -0.7687  1.1334
 3737TIP3    H232703   5.443   2.110  14.876  0.5885 -0.8146  0.7348
 3738TIP3   OH232704   4.658   0.140   4.371 -0.1934 -0.0285 -0.0835
 3738TIP3    H132705   4.642   0.150   4.277  1.0082  0.2407 -0.2821
 3738TIP3    H232706   4.736   0.085   4.376 -1.6456 -2.1170  0.8392
 3739TIP3   OH232707   3.324   0.528   0.737 -0.3262  0.9667 -1.0091
 3739TIP3    H132708   3.239   0.497   0.707  0.2562  0.1470 -1.8857
 3739TIP3    H232709   3.341   0.607   0.686 -0.7839  1.4414 -0.4439
 3740TIP3   OH232710   6.586   5.975  14.563  0.1058 -0.8654 -0.6625
 3740TIP3    H132711   6.674   6.009  14.575  0.2050 -1.1270 -0.6342
 3740TIP3    H232712   6.577   5.962  14.468 -0.6432  1.1144 -0.9002
 3741TIP3   OH232713   4.679   5.225   5.078  0.5370 -0.2795 -0.1969
 3741TIP3    H132714   4.765   5.232   5.038  0.3526 -0.0778 -0.5670
 3741TIP3    H232715   4.646   5.139   5.051 -0.4050  0.6348 -2.1660
 3742TIP3   OH232716   4.649   1.713   2.839 -0.0150  0.2545  0.0028
 3742TIP3    H132717   4.611   1.799   2.856 -0.1272  0.1477  0.3014
 3742TIP3    H232718   4.605   1.683   2.759  0.4149  0.7012 -0.4002
 3743TIP3   OH232719   1.772   3.060   0.222 -0.5055  0.1963 -0.2959
 3743TIP3    H132720   1.820   3.128   0.175 -2.0491 -0.1166 -2.4912
 3743TIP3    H232721   1.734   3.105   0.297  0.4444  1.1977 -0.3888
 3744TIP3   OH232722   3.605   0.768   0.275 -0.2802 -0.7391 -0.0329
 3744TIP3    H132723   3.673   0.831   0.251  1.0585 -1.9972  0.3472
 3744TIP3    H232724   3.526   0.802   0.233  0.9834 -0.2970 -2.2272
 3745TIP3   OH232725   6.058   6.416   1.110 -0.0622  0.1448  0.0356
 3745TIP3    H132726   6.132   6.356   1.104  0.1746  0.2410  1.7479
 3745TIP3    H232727   6.081   6.477   1.180 -0.3972  2.1276 -1.4843
 3746TIP3   OH232728   1.651   2.427  14.180 -0.8157 -0.7883  0.1676
 3746TIP3    H132729   1.577   2.488  14.179 -0.9097 -0.9002  0.3787
 3746TIP3    H232730   1.707   2.457  14.108 -1.0635 -0.7007  0.0099
 3747TIP3   OH232731   5.762   4.054   2.587  0.3042 -0.4741  0.3822
 3747TIP3    H132732   5.761   4.005   2.505  0.8715 -1.0052  0.6890
 3747TIP3    H232733   5.850   4.092   2.592 -0.0319  0.3588  0.2883
 3748TIP3   OH232734   3.827   2.875  14.149 -0.2540 -0.2063 -0.2969
 3748TIP3    H132735   3.866   2.855  14.064  1.0372 -0.2539  0.2731
 3748TIP3    H232736   3.897   2.858  14.212 -0.0734  2.9419  0.5314
 3749TIP3   OH232737   5.462   5.740  13.185 -0.5906 -0.4642  0.2615
 3749TIP3    H132738   5.383   5.770  13.140  0.1687 -0.2125 -0.9698
 3749TIP3    H232739   5.493   5.815  13.235 -0.6666 -0.2922  0.0501
 3750TIP3   OH232740   1.308   3.615   0.983  0.1172 -0.6893 -0.4109
 3750TIP3    H132741   1.370   3.548   0.953  0.1247 -0.9558  0.1909
 3750TIP3    H232742   1.223   3.584   0.953  0.2891 -0.2001 -1.4568
 3751TIP3   OH232743   3.603   4.673   2.326 -0.2975  0.4839 -0.4415
 3751TIP3    H132744   3.537   4.658   2.393  0.2596 -0.6659 -0.1273
 3751TIP3    H232745   3.656   4.746   2.360 -0.4657  0.3931  0.0197
 3752TIP3   OH232746   6.584   1.916   6.111 -0.2720 -0.0295 -0.4664
 3752TIP3    H132747   6.672   1.950   6.126 -0.3473 -0.4315  1.0309
 3752TIP3    H232748   6.581   1.834   6.160 -1.9453  0.7272  0.8031
 3753TIP3   OH232749   5.567   5.177  12.324  0.3206 -0.1094  0.0111
 3753TIP3    H132750   5.504   5.216  12.384 -1.1914  0.5136 -1.8556
 3753TIP3    H232751   5.546   5.083  12.325  0.5561 -0.1604  0.7026
 3754TIP3   OH232752   2.207   1.945  15.591  0.0631 -0.1355 -0.2307
 3754TIP3    H132753   2.143   1.874  15.597  0.0464 -0.0301  0.9765
 3754TIP3    H232754   2.157   2.019  15.558 -0.4908 -0.0037  0.8762
 3755TIP3   OH232755   4.225   0.379  14.797 -0.1889 -0.2657 -0.5600
 3755TIP3    H132756   4.173   0.431  14.736  0.3215  1.1498  0.1715
 3755TIP3    H232757   4.270   0.444  14.852  1.7773 -1.4374 -0.6850
 3756TIP3   OH232758   4.547   1.705   2.256 -0.5091 -0.7146 -0.1691
 3756TIP3    H132759   4.511   1.665   2.335 -1.5129  1.3111  0.4596
 3756TIP3    H232760   4.642   1.705   2.271 -0.2996 -3.9791 -0.8173
 3757TIP3   OH232761   5.577   5.103   5.870  0.0548  0.1038 -0.0381
 3757TIP3    H132762   5.616   5.130   5.953  1.3582  0.7317 -0.8327
 3757TIP3    H232763   5.627   5.025   5.845 -0.8850 -0.5784  0.1541
 3758TIP3   OH232764   6.488   6.484   1.549 -0.2783 -0.3774 -0.3919
 3758TIP3    H132765   6.547   6.558   1.543 -0.0991 -0.4519  0.3821
 3758TIP3    H232766   6.545   6.407   1.553 -0.4168 -0.4618  0.1453
 3759TIP3   OH232767   2.345   0.961  12.918  0.0547 -0.0852  0.1311
 3759TIP3    H132768   2.304   0.984  12.835 -0.1478  0.5260  0.3963
 3759TIP3    H232769   2.272   0.957  12.980  0.4042  1.2489  0.6606
 3760TIP3   OH232770   5.221   6.511   2.160 -0.3700 -0.1128 -0.4840
 3760TIP3    H132771   5.209   6.574   2.232 -0.4615  0.2143 -0.7836
 3760TIP3    H232772   5.292   6.548   2.108  0.2246 -0.7429 -0.1409
 3761TIP3   OH232773   6.089   6.361  12.476  0.3049  0.0269  0.8204
 3761TIP3    H132774   6.042   6.434  12.515 -1.5557 -0.5200 -0.3094
 3761TIP3    H232775   6.060   6.358  12.386  1.4732 -1.2161  0.4383
 3762TIP3   OH232776   6.421   5.803  11.274 -0.6178  0.0928 -0.6940
 3762TIP3    H132777   6.422   5.710  11.296  0.3097  0.1350 -0.5170
 3762TIP3    H232778   6.334   5.818  11.237 -1.4451 -0.4476  0.9240
 3763TIP3   OH232779   4.719   0.636  13.575 -0.0638 -0.1348  0.0125
 3763TIP3    H132780   4.640   0.621  13.626  0.4435 -2.2093  0.2788
 3763TIP3    H232781   4.763   0.709  13.619 -2.9532  2.8619 -1.6049
 3764TIP3   OH232782   4.328   1.412   6.069 -0.7096  0.8162 -0.1348
 3764TIP3    H132783   4.376   1.485   6.029  1.8982 -0.8237 -0.2777
 3764TIP3    H232784   4.390   1.339   6.066 -3.7940 -2.0284 -1.8037
 3765TIP3   OH232785   6.125   3.469   2.669 -0.2881 -0.2645 -0.2933
 3765TIP3    H132786   6.090   3.432   2.750 -0.5948 -0.0033 -0.3050
 3765TIP3    H232787   6.099   3.406   2.601 -1.6552  0.4183 -0.4583
 3766TIP3   OH232788   5.621   6.017   1.347 -0.1601 -0.0340 -0.1916
 3766TIP3    H132789   5.533   6.052   1.329 -1.0049 -0.4662  2.5880
 3766TIP3    H232790   5.678   6.094   1.346 -1.0872  0.6977  0.6644
 3767TIP3   OH232791   5.149   6.315  17.478 -0.1144 -0.4604  0.0310
 3767TIP3    H132792   5.193   6.248  17.529  1.0330 -1.0081 -1.5886
 3767TIP3    H232793   5.219   6.365  17.436 -0.9815  0.7221 -0.0831
 3768TIP3   OH232794   2.608   6.364  13.720  0.2592  0.0961 -0.4033
 3768TIP3    H132795   2.634   6.390  13.808 -0.2023 -0.4461 -0.1040
 3768TIP3    H232796   2.537   6.301  13.733  0.4063 -0.2376 -1.1528
 3769TIP3   OH232797   0.333   0.971  11.376 -0.4381 -0.7184  0.1958
 3769TIP3    H132798   0.251   0.960  11.329 -1.8891  1.3212  2.0192
 3769TIP3    H232799   0.372   1.050  11.338 -1.2708  0.5281  1.7867
 3770TIP3   OH232800   1.092   5.473  15.532  0.7443 -0.1962 -0.0609
 3770TIP3    H132801   1.049   5.448  15.450 -0.9886  3.5888 -0.5241
 3770TIP3    H232802   1.025   5.457  15.599  0.7113  0.3891  0.0458
 3771TIP3   OH232803   3.067   6.068   3.208 -0.3789 -0.1662 -0.1414
 3771TIP3    H132804   3.136   6.092   3.270  0.4121 -3.0324  0.2473
 3771TIP3    H232805   3.112   6.013   3.143 -1.9991 -0.7970 -0.7679
 3772TIP3   OH232806   5.248   1.737   5.125  0.2347 -0.2078 -0.1184
 3772TIP3    H132807   5.325   1.681   5.116  0.8069  0.5768 -0.2096
 3772TIP3    H232808   5.174   1.680   5.106  0.8062 -0.9190 -0.2415
 3773TIP3   OH232809   0.549   2.567  11.687 -0.5489 -0.0769  0.4974
 3773TIP3    H132810   0.541   2.484  11.640 -0.9075 -0.3195  0.9862
 3773TIP3    H232811   0.462   2.606  11.685 -0.4103  0.2399  0.3725
 3774TIP3   OH232812   5.170   4.419  12.597  0.0577 -0.0887 -0.0013
 3774TIP3    H132813   5.126   4.493  12.555 -0.0210 -0.9744 -1.5390
 3774TIP3    H232814   5.112   4.394  12.668 -0.8278  0.1751 -0.6167
 3775TIP3   OH232815   4.047   6.365   6.391  0.4729 -0.1191  0.3289
 3775TIP3    H132816   3.995   6.409   6.458  1.7945  2.5989 -0.2939
 3775TIP3    H232817   4.138   6.375   6.421  0.8900 -1.3542 -0.4860
 3776TIP3   OH232818   5.244   5.533  16.505 -0.5948  0.5764  0.2373
 3776TIP3    H132819   5.217   5.473  16.574 -2.2871  1.3804  0.3254
 3776TIP3    H232820   5.162   5.562  16.464  0.3480 -0.6244 -2.8017
 3777TIP3   OH232821   5.257   2.008  14.910 -0.8537  0.2200  0.6554
 3777TIP3    H132822   5.190   2.076  14.918 -0.8391  0.3361 -0.1427
 3777TIP3    H232823   5.228   1.939  14.970 -2.3618 -0.2664 -0.5410
 3778TIP3   OH232824   2.179   4.155   2.913  0.6428  0.2838 -0.5569
 3778TIP3    H132825   2.138   4.135   2.997 -0.7877 -1.5135 -1.6123
 3778TIP3    H232826   2.224   4.075   2.889  1.7442  1.0627 -1.1359
 3779TIP3   OH232827   2.592   1.040  16.015  0.1518  0.9950 -0.6263
 3779TIP3    H132828   2.503   1.059  15.986 -0.2503  0.7625  0.4168
 3779TIP3    H232829   2.631   1.126  16.031 -0.4351  1.0731  0.4806
 3780TIP3   OH232830   2.472   4.460   3.502  0.1112  0.2963  0.0814
 3780TIP3    H132831   2.383   4.457   3.467  0.8379 -0.4345 -1.8277
 3780TIP3    H232832   2.482   4.377   3.549 -0.8134  1.2135  2.0228
 3781TIP3   OH232833   2.238   2.765   4.847  0.0268 -0.3778  0.3083
 3781TIP3    H132834   2.274   2.824   4.781  0.0319 -0.9566 -0.2170
 3781TIP3    H232835   2.297   2.773   4.922 -0.0981  0.4401  0.3257
 3782TIP3   OH232836   0.043   2.209  11.668  0.2664 -0.0669  0.2048
 3782TIP3    H132837  -0.035   2.254  11.637 -0.2669 -1.0995 -0.0203
 3782TIP3    H232838   0.017   2.117  11.672  1.6330 -0.4952 -0.3716
 3783TIP3   OH232839   1.667   1.343   0.727  0.3078  0.0333  0.0117
 3783TIP3    H132840   1.688   1.430   0.694 -1.9098  0.7132  0.2290
 3783TIP3    H232841   1.750   1.296   0.725  0.9248  0.9641 -3.6406
 3784TIP3   OH232842   5.341   6.117   1.340  0.2767 -0.5003  0.2515
 3784TIP3    H132843   5.370   6.174   1.411  1.7613 -2.2134  1.0839
 3784TIP3    H232844   5.280   6.056   1.381 -1.1625  0.3146 -0.5955
 3785TIP3   OH232845   3.614   5.994   1.198  0.5201 -0.5678 -0.3287
 3785TIP3    H132846   3.708   5.978   1.209  0.5629  0.5857  1.3701
 3785TIP3    H232847   3.610   6.077   1.149  0.4088 -0.4123 -0.0609
 3786TIP3   OH232848   3.163   6.386   2.951 -1.1020 -0.0301  0.2750
 3786TIP3    H132849   3.099   6.401   2.882  0.1212  0.4890 -0.7661
 3786TIP3    H232850   3.203   6.301   2.929 -3.2027 -1.7235  2.3788
 3787TIP3   OH232851   1.596   2.350  12.498  0.0930  0.1442 -0.1027
 3787TIP3    H132852   1.567   2.328  12.409 -0.3379 -0.7437  0.2472
 3787TIP3    H232853   1.692   2.351  12.492  0.1547 -1.9453 -0.1515
 3788TIP3   OH232854   4.677   3.761  16.972  0.6230 -0.1877  0.0005
 3788TIP3    H132855   4.665   3.700  17.045 -0.8162 -0.9934 -0.8524
 3788TIP3    H232856   4.595   3.812  16.970  0.8461  0.1605 -0.7399
 3789TIP3   OH232857   3.079   0.730  10.668 -0.0732  0.1281 -0.6695
 3789TIP3    H132858   3.160   0.682  10.688  0.6308  1.1277 -1.0240
 3789TIP3    H232859   3.109   0.806  10.617 -1.3486 -0.0352 -1.7052
 3790TIP3   OH232860   3.483   4.375  17.469 -0.6464 -0.2189  0.0702
 3790TIP3    H132861   3.489   4.312  17.397  2.5003  1.3769 -1.2718
 3790TIP3    H232862   3.454   4.456  17.427  2.2989  1.0341  0.2442
 3791TIP3   OH232863   6.424   3.227   6.111  0.3291 -0.9539  0.5661
 3791TIP3    H132864   6.420   3.294   6.180 -1.3193 -0.5454  0.1145
 3791TIP3    H232865   6.405   3.145   6.157 -0.9530 -0.6588  0.5877
 3792TIP3   OH232866   5.750   5.684   4.733  0.1409 -0.5548  0.3071
 3792TIP3    H132867   5.736   5.762   4.679 -0.4542 -0.6991  0.2418
 3792TIP3    H232868   5.841   5.660   4.718 -0.3537 -1.4062 -1.7345
 3793TIP3   OH232869   3.436   1.503  12.340  0.5632 -0.4384 -0.5470
 3793TIP3    H132870   3.359   1.456  12.308  0.7053 -0.3991 -0.9511
 3793TIP3    H232871   3.427   1.500  12.435 -0.7617  0.9314 -0.5944
 3794TIP3   OH232872   1.124   5.330   2.204 -0.3766 -0.0674  0.0649
 3794TIP3    H132873   1.190   5.300   2.141 -0.5819  0.2256 -0.2940
 3794TIP3    H232874   1.043   5.337   2.153 -0.2500  1.5015  0.0220
 3795TIP3   OH232875   0.039   5.773   5.155 -0.3060  0.2731 -0.1015
 3795TIP3    H132876  -0.018   5.728   5.217  0.9820 -0.6110  0.4781
 3795TIP3    H232877   0.003   5.861   5.149 -2.7568 -0.7259 -1.0904
 3796TIP3   OH232878   3.997   5.014  16.092 -0.3089 -0.4246 -0.2651
 3796TIP3    H132879   3.956   5.096  16.065 -1.1699 -0.3794  1.0894
 3796TIP3    H232880   4.030   4.976  16.010 -2.2598 -0.0354 -1.2861
 3797TIP3   OH232881   5.109   0.259  13.506  0.2568 -0.0197  0.0830
 3797TIP3    H132882   5.040   0.325  13.497  1.6769  1.4828 -0.3147
 3797TIP3    H232883   5.131   0.235  13.416  0.2606 -0.4855  0.2057
 3798TIP3   OH232884   3.784   5.815   5.382  0.5471 -0.5748 -0.4345
 3798TIP3    H132885   3.765   5.879   5.313 -2.5220 -2.1977 -1.2863
 3798TIP3    H232886   3.738   5.849   5.459 -2.4357 -2.3138 -1.2946
 3799TIP3   OH232887   5.145   2.390   5.992 -0.0194 -0.3425  0.2002
 3799TIP3    H132888   5.220   2.351   5.948 -0.6773 -1.8585  0.3735
 3799TIP3    H232889   5.182   2.431   6.070  0.9307  1.0024 -0.8959
 3800TIP3   OH232890   2.097   2.736   5.838 -0.2003 -0.0726 -0.7957
 3800TIP3    H132891   2.101   2.645   5.807 -0.7585  0.1875 -1.6426
 3800TIP3    H232892   2.128   2.731   5.929  1.8503 -0.7855 -1.4752
 3801TIP3   OH232893   5.092   6.018  16.692  0.0419  0.1584 -0.4803
 3801TIP3    H132894   5.122   6.083  16.755  0.8402  0.7315 -1.4136
 3801TIP3    H232895   5.024   6.063  16.641 -0.9634 -0.4653  0.2818
 3802TIP3   OH232896   0.315   1.236   0.950  0.1217  0.1159 -0.1746
 3802TIP3    H132897   0.227   1.259   0.980  0.1191 -1.4548  1.2013
 3802TIP3    H232898   0.301   1.169   0.882  0.2329 -1.1764  1.0284
 3803TIP3   OH232899   3.450   6.172   6.353  0.3309 -0.0874  0.1519
 3803TIP3    H132900   3.492   6.188   6.438  1.1412 -0.3561 -0.1810
 3803TIP3    H232901   3.509   6.110   6.309 -0.2591 -0.2187 -0.4697
 3804TIP3   OH232902   6.363   4.420   1.733  0.7197 -0.0003 -0.1039
 3804TIP3    H132903   6.435   4.483   1.728  1.4815 -0.8048  0.4516
 3804TIP3    H232904   6.309   4.450   1.806  1.2661 -0.1796  0.3746
 3805TIP3   OH232905   0.110   0.797   3.243 -0.7202  0.6088  0.1728
 3805TIP3    H132906   0.025   0.782   3.202 -1.2562  0.4197  1.3136
 3805TIP3    H232907   0.089   0.836   3.328  0.2721 -0.2766  0.8537
 3806TIP3   OH232908   5.635   5.461   0.996  0.5419  0.0452  0.0634
 3806TIP3    H132909   5.681   5.438   1.077 -0.7167 -0.0591  0.7916
 3806TIP3    H232910   5.685   5.418   0.927  1.6740  0.1722  0.7772
 3807TIP3   OH232911   5.721   2.467   4.864  0.0583  0.1280  0.0686
 3807TIP3    H132912   5.689   2.495   4.950 -1.2437 -0.9079 -0.0519
 3807TIP3    H232913   5.652   2.492   4.803 -0.4750 -1.9019 -0.2377
 3808TIP3   OH232914   2.599   3.115   0.263  0.2678  0.2078  0.1821
 3808TIP3    H132915   2.570   3.026   0.282 -0.2384  0.2825 -0.2201
 3808TIP3    H232916   2.624   3.113   0.170 -0.4557  0.6566 -0.0352
 3809TIP3   OH232917   3.667   5.002  13.184  0.3983 -0.3069 -0.0258
 3809TIP3    H132918   3.707   4.990  13.098  1.3123 -0.4349  0.4061
 3809TIP3    H232919   3.574   5.015  13.166  0.5058 -0.8417 -0.9919
 3810TIP3   OH232920   4.032   0.685  11.477 -0.3717  0.8392 -0.0708
 3810TIP3    H132921   3.961   0.680  11.413 -1.2403  4.8141  0.3584
 3810TIP3    H232922   4.003   0.748  11.542  1.3099 -1.5688  3.3345
 3811TIP3   OH232923   5.472   1.752   3.881  0.2080 -0.1789 -0.4038
 3811TIP3    H132924   5.523   1.803   3.944  0.6989 -1.3649  0.1710
 3811TIP3    H232925   5.515   1.768   3.797 -1.8346  3.3676 -1.0227
 3812TIP3   OH232926   3.340   6.212   1.839 -0.2364  0.1724  0.2737
 3812TIP3    H132927   3.258   6.229   1.887  0.5091 -0.9633  2.0424
 3812TIP3    H232928   3.401   6.277   1.872 -0.1817  0.5029 -0.4580
 3813TIP3   OH232929   0.483   0.782  14.906 -0.3375  0.3017  0.1390
 3813TIP3    H132930   0.564   0.757  14.861 -0.8572  1.1467 -1.3699
 3813TIP3    H232931   0.511   0.807  14.994  0.9715  0.1082 -0.1961
 3814TIP3   OH232932   2.632   5.172   1.356  0.1201  0.4904  0.1108
 3814TIP3    H132933   2.711   5.122   1.378 -0.2808  0.5744  1.9143
 3814TIP3    H232934   2.568   5.106   1.330  0.5004  0.3478 -0.4875
 3815TIP3   OH232935   3.620   1.421  16.243 -0.1674  0.1669 -0.3407
 3815TIP3    H132936   3.572   1.339  16.257 -2.2555  1.1509 -1.2760
 3815TIP3    H232937   3.712   1.397  16.252 -0.7511 -2.0921  0.2627
 3816TIP3   OH232938   1.238   6.720  16.991 -0.1929 -0.0130  0.6867
 3816TIP3    H132939   1.227   6.630  16.959 -0.0921 -0.3151  1.4872
 3816TIP3    H232940   1.207   6.717  17.081 -0.2163  0.7704  0.7091
 3817TIP3   OH232941   4.321   4.050  14.389 -0.3633 -0.2394 -0.0272
 3817TIP3    H132942   4.326   4.100  14.307  1.1642 -0.7851 -0.2833
 3817TIP3    H232943   4.411   4.024  14.407 -0.8746 -1.2748  1.1300
 3818TIP3   OH232944   2.562   6.342   5.658  0.1074  0.5361  0.0429
 3818TIP3    H132945   2.634   6.382   5.609 -0.8376  0.8423 -1.1509
 3818TIP3    H232946   2.522   6.415   5.705 -1.3480  1.0115 -1.7955
 3819TIP3   OH232947   5.114   0.847  13.513  0.0491 -0.3097 -0.0989
 3819TIP3    H132948   5.208   0.841  13.498  0.4812  0.5092  1.9576
 3819TIP3    H232949   5.105   0.907  13.588 -1.9463 -2.0187  1.1552
 3820TIP3   OH232950   1.137   0.972  11.690  0.1898  0.0856 -0.0454
 3820TIP3    H132951   1.215   0.935  11.730  0.4567  1.8616  1.2086
 3820TIP3    H232952   1.168   1.049  11.643 -0.6783  0.2727 -0.3367
 3821TIP3   OH232953   4.485   6.590  15.492 -0.3599 -0.2704 -0.2270
 3821TIP3    H132954   4.514   6.552  15.575  0.4790 -0.6072 -0.6590
 3821TIP3    H232955   4.506   6.683  15.499 -0.1676 -0.3217 -0.1135
 3822TIP3   OH232956   1.033   0.410   4.835  0.6904 -0.4420  0.0208
 3822TIP3    H132957   0.975   0.475   4.875  1.2139 -0.3062  0.5667
 3822TIP3    H232958   1.006   0.327   4.875 -0.2073 -0.6313 -0.9273
 3823TIP3   OH232959   1.794   4.481   4.058 -0.0420  0.1221  0.5860
 3823TIP3    H132960   1.765   4.571   4.042  0.2792  0.2373  0.6477
 3823TIP3    H232961   1.714   4.433   4.078  0.0348  0.8945  3.0061
 3824TIP3   OH232962   6.638   0.649   2.407  0.0338  0.4735  0.6519
 3824TIP3    H132963   6.717   0.702   2.398  0.4187 -0.1455  0.2969
 3824TIP3    H232964   6.657   0.569   2.359  0.4942 -1.1362  3.3068
 3825TIP3   OH232965   6.029   6.198   2.102  0.0138 -0.2818 -0.4232
 3825TIP3    H132966   6.080   6.118   2.091 -1.7907 -1.6507  0.4588
 3825TIP3    H232967   6.049   6.226   2.191 -0.9055 -0.9893  0.0336
 3826TIP3   OH232968   1.607   3.090   0.465 -0.3125 -0.2209  0.0159
 3826TIP3    H132969   1.607   3.003   0.503  2.1829  0.2250  1.2125
 3826TIP3    H232970   1.533   3.089   0.404 -0.7678 -2.9195  0.4769
 3827TIP3   OH232971   4.435   3.856  11.817 -0.2053 -0.0845 -0.2226
 3827TIP3    H132972   4.374   3.859  11.743  0.8656 -2.1433 -1.2701
 3827TIP3    H232973   4.507   3.913  11.790 -0.7229  0.7918  0.1728
 3828TIP3   OH232974   2.291   0.688   1.098 -0.1635  0.2713 -0.2741
 3828TIP3    H132975   2.299   0.784   1.103 -0.9795  0.2699  1.8075
 3828TIP3    H232976   2.197   0.671   1.106 -0.1233 -0.7073 -1.5031
 3829TIP3   OH232977   2.539   0.318   1.295 -0.1245 -0.0285  0.1199
 3829TIP3    H132978   2.602   0.377   1.336 -1.7994  0.6872  1.7948
 3829TIP3    H232979   2.467   0.376   1.269 -0.5282 -0.9623 -0.9272
 3830TIP3   OH232980   6.144   3.275   2.463  0.1631 -0.1254 -0.5129
 3830TIP3    H132981   6.060   3.240   2.434 -0.9830  3.1626 -1.5815
 3830TIP3    H232982   6.177   3.325   2.388  1.9370  0.6137  0.6872
 3831TIP3   OH232983   2.821   5.951  11.586 -0.2222  0.2733 -0.2651
 3831TIP3    H132984   2.768   5.961  11.507  3.1590  1.1124 -2.6341
 3831TIP3    H232985   2.894   5.895  11.559  0.6033 -0.1774  2.5645
 3832TIP3   OH232986   3.420   6.462   1.572  0.2665 -0.0229 -0.2150
 3832TIP3    H132987   3.500   6.414   1.554  0.7457  0.2029  1.2050
 3832TIP3    H232988   3.440   6.552   1.547  0.4944  0.0515  0.2266
 3833TIP3   OH232989   2.955   3.033  11.221  0.2869  0.0190 -0.5701
 3833TIP3    H132990   2.931   3.107  11.166  0.8263  0.0182 -0.8145
 3833TIP3    H232991   2.899   2.961  11.191  0.9091 -0.1139 -1.4675
 3834TIP3   OH232992   1.876   1.180   0.801  0.0719  0.4535  0.1178
 3834TIP3    H132993   1.835   1.124   0.867  2.5290 -0.5119  0.9366
 3834TIP3    H232994   1.901   1.259   0.849 -1.5710  1.4577 -0.5896
 3835TIP3   OH232995   5.880   0.659  15.235  0.5739  0.1707 -0.2934
 3835TIP3    H132996   5.971   0.683  15.254  0.2206  1.3293  0.0495
 3835TIP3    H232997   5.830   0.738  15.255 -0.4559 -0.2852 -0.9684
 3836TIP3   OH232998   0.314   2.904  16.842 -0.5037  0.2824 -0.0627
 3836TIP3    H132999   0.383   2.955  16.885 -0.7985  1.6463 -1.1438
 3836TIP3    H233000   0.232   2.937  16.880 -0.6774  0.2450 -0.4029
 3837TIP3   OH233001   6.301   1.154  13.785  0.5664 -0.5239  0.7882
 3837TIP3    H133002   6.238   1.153  13.857 -1.6023  1.8255 -0.8519
 3837TIP3    H233003   6.366   1.219  13.810 -0.5880  0.8304  0.4275
 3838TIP3   OH233004   3.488   3.484   6.378 -0.3497 -0.2625  0.0032
 3838TIP3    H133005   3.430   3.413   6.354 -1.4345  0.1269  1.3245
 3838TIP3    H233006   3.571   3.441   6.399 -0.7437 -1.0412 -0.0012
 3839TIP3   OH233007   1.575   1.996   5.240 -0.2328  0.3207 -0.5104
 3839TIP3    H133008   1.645   2.055   5.267  1.2086 -1.0212 -1.1195
 3839TIP3    H233009   1.546   2.030   5.155  1.9167 -0.8338 -1.7944
 3840TIP3   OH233010   3.016   0.490  11.260 -0.7943 -0.2018 -0.1430
 3840TIP3    H133011   2.970   0.486  11.175 -1.6765 -0.6681  0.3387
 3840TIP3    H233012   3.023   0.399  11.287  0.3098 -0.1234 -0.1263
 3841TIP3   OH233013   0.731   6.370   3.828 -0.3259  0.8786  0.1706
 3841TIP3    H133014   0.678   6.445   3.855 -1.4541  0.6683 -1.3641
 3841TIP3    H233015   0.778   6.401   3.750 -0.7039  0.0480 -0.3969
 3842TIP3   OH233016   1.733   4.159   1.544  0.2767 -0.2568  0.1880
 3842TIP3    H133017   1.668   4.149   1.474 -0.1296 -0.5716  0.6027
 3842TIP3    H233018   1.701   4.102   1.614  1.0523 -0.4800  0.3646
 3843TIP3   OH233019   1.776   5.525   4.541  0.1710 -0.0641 -0.7351
 3843TIP3    H133020   1.792   5.430   4.545 -0.0704 -0.0915 -0.3887
 3843TIP3    H233021   1.748   5.548   4.629 -0.6177  0.1804 -1.0405
 3844TIP3   OH233022   6.065   6.417   2.882 -0.6460  0.1877 -0.9924
 3844TIP3    H133023   6.152   6.425   2.921 -0.9380 -0.0150 -0.2659
 3844TIP3    H233024   6.081   6.399   2.790  0.1235 -1.2033 -0.6300
 3845TIP3   OH233025   2.100   4.078  16.705  0.1972  0.2795 -0.7971
 3845TIP3    H133026   2.057   4.125  16.777 -2.1306 -0.9848 -1.2491
 3845TIP3    H233027   2.106   4.143  16.635  0.2508  0.8586 -0.2683
 3846TIP3   OH233028   3.724   2.914  14.948 -0.1064  0.2352  0.1983
 3846TIP3    H133029   3.815   2.942  14.964  0.6458 -2.4926  1.2339
 3846TIP3    H233030   3.672   2.967  15.009  0.8966  1.1904  0.2577
 3847TIP3   OH233031   2.608   1.851  14.119  0.1408 -0.1368 -0.0474
 3847TIP3    H133032   2.624   1.862  14.213  1.7802  0.1560 -0.3379
 3847TIP3    H233033   2.605   1.940  14.085 -0.0429 -0.2570 -0.3449
 3848TIP3   OH233034   5.445   2.486  16.382 -0.4644  0.1963  0.0432
 3848TIP3    H133035   5.473   2.451  16.297 -0.0424  1.4367 -0.3407
 3848TIP3    H233036   5.519   2.469  16.440 -1.1483 -1.5927  0.4588
 3849TIP3   OH233037   5.567   3.622  12.633 -0.1332 -0.4931  0.1509
 3849TIP3    H133038   5.541   3.530  12.632 -1.1349 -0.2290 -1.5005
 3849TIP3    H233039   5.646   3.626  12.579  0.0860 -0.4136  0.4713
 3850TIP3   OH233040   5.059   6.035   0.849  0.1542 -0.1348 -0.1887
 3850TIP3    H133041   5.083   5.964   0.789 -1.6002  1.2352 -2.7177
 3850TIP3    H233042   5.140   6.082   0.864  1.1102 -1.9187  0.5497
 3851TIP3   OH233043   3.630   2.643   5.150  0.4480  0.1196 -0.2649
 3851TIP3    H133044   3.656   2.735   5.138  0.4021  0.0053 -1.3796
 3851TIP3    H233045   3.693   2.608   5.212  0.0157  1.0948  0.7697
 3852TIP3   OH233046   5.126   6.739   2.767  0.1825  0.2691  0.6537
 3852TIP3    H133047   5.047   6.783   2.799 -0.4777 -0.5492  0.1812
 3852TIP3    H233048   5.101   6.706   2.680  0.4931 -1.4405  1.1750
 3853TIP3   OH233049   2.452   4.131  16.806  0.0050 -0.2690 -0.7215
 3853TIP3    H133050   2.400   4.084  16.871 -2.3066  0.6406 -1.8000
 3853TIP3    H233051   2.489   4.063  16.750 -1.9255 -0.9137 -1.2799
 3854TIP3   OH233052   3.962   2.811  13.916  0.2630 -0.2503  0.7294
 3854TIP3    H133053   3.913   2.762  13.850  1.5019  0.9525 -1.1969
 3854TIP3    H233054   4.046   2.765  13.923  1.1043  1.0267 -0.4629
 3855TIP3   OH233055   6.131   2.105  14.775  0.0127  0.7122  0.3803
 3855TIP3    H133056   6.201   2.159  14.739 -0.5399  1.6361  0.6759
 3855TIP3    H233057   6.144   2.107  14.870  1.1866 -1.3424  0.3229
 3856TIP3   OH233058   4.863   6.508  16.972  0.4556  0.2228 -0.3657
 3856TIP3    H133059   4.772   6.522  16.946 -0.2632 -1.6615  0.9204
 3856TIP3    H233060   4.911   6.499  16.890 -0.4048  1.6622 -1.0665
 3857TIP3   OH233061   2.665   3.479  11.615 -0.0823  0.1721 -0.0121
 3857TIP3    H133062   2.638   3.452  11.703 -0.2245 -0.7960 -0.3370
 3857TIP3    H233063   2.731   3.415  11.589 -0.4250  0.1274 -0.8120
 3858TIP3   OH233064   1.657   1.996   1.936 -0.0163  0.2962 -0.7378
 3858TIP3    H133065   1.694   2.031   2.016  0.7141 -0.4146 -0.7485
 3858TIP3    H233066   1.699   1.910   1.925 -1.3677 -0.3767 -0.9657
 3859TIP3   OH233067   4.598   2.576   4.765  0.4410  0.0807 -0.1365
 3859TIP3    H133068   4.642   2.510   4.818 -0.2194  0.6228  1.1413
 3859TIP3    H233069   4.596   2.539   4.677  2.8515 -0.2175 -0.1209
 3860TIP3   OH233070   3.350   5.462  13.925 -0.3053 -0.5710  0.2552
 3860TIP3    H133071   3.262   5.425  13.933 -0.7117  0.2088 -0.4745
 3860TIP3    H233072   3.388   5.453  14.012 -1.7917  0.7637  1.0736
 3861TIP3   OH233073   6.489   3.943  13.503  0.1828  0.2620  0.1446
 3861TIP3    H133074   6.401   3.972  13.478  1.0381  2.4147 -0.5822
 3861TIP3    H233075   6.499   3.858  13.459 -1.6270 -0.2013  0.5283
 3862TIP3   OH233076   2.828   2.903  16.362 -0.0675  0.0428 -0.6536
 3862TIP3    H133077   2.756   2.954  16.398  0.2315 -0.1643  0.2804
 3862TIP3    H233078   2.856   2.847  16.435  0.8727 -0.0476 -1.0707
 3863TIP3   OH233079   1.107   4.664  15.577  0.7003  0.3470 -0.2831
 3863TIP3    H133080   1.142   4.581  15.543  3.8287  1.2640  0.3903
 3863TIP3    H233081   1.056   4.700  15.504 -2.3450 -2.8359 -0.0529
 3864TIP3   OH233082   4.872   3.851  13.663  0.1876 -0.2076  0.5194
 3864TIP3    H133083   4.925   3.775  13.685  0.7577 -0.6646 -2.1479
 3864TIP3    H233084   4.934   3.925  13.666  0.5309 -0.4385 -0.6055
 3865TIP3   OH233085   5.065   2.927  13.953 -0.3277 -0.0583  0.1520
 3865TIP3    H133086   4.982   2.879  13.957 -0.0690 -0.4481  1.1240
 3865TIP3    H233087   5.079   2.942  13.860 -2.9470  2.5795  0.0436
 3866TIP3   OH233088   4.178   0.681  12.610 -0.6079  0.1849 -0.5825
 3866TIP3    H133089   4.131   0.755  12.571  1.2359  1.4363 -0.5535
 3866TIP3    H233090   4.186   0.703  12.702 -1.6526 -0.9806 -0.1805
 3867TIP3   OH233091   5.249   3.878  12.599 -0.1797  0.1799  0.7237
 3867TIP3    H133092   5.196   3.811  12.556  0.5412 -2.3294  3.3763
 3867TIP3    H233093   5.185   3.941  12.633 -1.0589 -0.1719 -0.2352
 3868TIP3   OH233094   2.035   3.569   4.812 -0.3484 -0.2645  0.2594
 3868TIP3    H133095   2.072   3.497   4.863 -1.3972 -1.1445 -0.1673
 3868TIP3    H233096   2.037   3.538   4.721  0.0056  0.6212 -0.0467
 3869TIP3   OH233097   2.143   2.459   5.850 -0.1175 -0.0164 -0.6110
 3869TIP3    H133098   2.117   2.388   5.908 -0.9871 -0.3100 -1.3539
 3869TIP3    H233099   2.140   2.422   5.762 -0.4547  0.8985 -1.0021
 3870TIP3   OH233100   3.772   1.891   1.464  0.2783 -0.2430 -0.0174
 3870TIP3    H133101   3.842   1.933   1.515  0.7734 -0.4359 -0.5237
 3870TIP3    H233102   3.729   1.963   1.418  1.0863 -0.2711 -0.8359
 3871TIP3   OH233103   1.086   1.089  12.656 -0.0590 -0.4374 -0.6166
 3871TIP3    H133104   1.033   1.093  12.576  0.9115 -0.0229 -1.2493
 3871TIP3    H233105   1.064   1.169  12.703  0.1219 -0.1820 -0.9593
 3872TIP3   OH233106   0.903   4.651   0.314 -0.1655  0.6243  0.5263
 3872TIP3    H133107   0.819   4.669   0.355 -1.6916 -3.3321 -0.4550
 3872TIP3    H233108   0.956   4.611   0.383 -0.4400 -0.2182  0.2583
 3873TIP3   OH233109   2.001   2.224   1.789  0.2453  0.7514  0.3401
 3873TIP3    H133110   1.929   2.270   1.746  1.1619  0.6644 -1.3773
 3873TIP3    H233111   2.056   2.293   1.826  0.6417  0.9763 -0.6301
 3874TIP3   OH233112   1.740   5.205  13.997  0.1181 -0.0800  0.0845
 3874TIP3    H133113   1.828   5.238  13.983  0.2848 -0.8727 -0.8913
 3874TIP3    H233114   1.686   5.253  13.935  0.0573 -0.3851 -0.1003
 3875TIP3   OH233115   2.565   4.606  12.541 -1.0561  0.2036  0.1391
 3875TIP3    H133116   2.588   4.540  12.477  1.6709  1.6591 -0.5011
 3875TIP3    H233117   2.604   4.575  12.623  0.3440  1.0251 -0.1912
 3876TIP3   OH233118   3.707   4.278  11.388  0.2751 -0.0580 -0.3494
 3876TIP3    H133119   3.685   4.328  11.466 -0.3439 -0.2117 -0.4236
 3876TIP3    H233120   3.623   4.252  11.351  0.5815 -0.9236 -0.4612
 3877TIP3   OH233121   6.576   0.782  12.440 -0.1221 -0.1366 -0.6312
 3877TIP3    H133122   6.650   0.802  12.383  0.8736 -0.6847  0.4295
 3877TIP3    H233123   6.587   0.840  12.516 -1.2255  0.3310 -0.8046
 3878TIP3   OH233124   1.792   3.697  14.119  0.8222 -0.0211  0.2141
 3878TIP3    H133125   1.698   3.697  14.134  1.0928 -0.2845  2.1244
 3878TIP3    H233126   1.820   3.786  14.143  0.9168  0.5202 -1.6895
 3879TIP3   OH233127   6.076   5.011  12.159  0.6066 -0.3139  0.0311
 3879TIP3    H133128   5.981   5.022  12.162  0.6355  0.7554 -1.6735
 3879TIP3    H233129   6.108   5.061  12.234 -0.1012  0.6459 -0.2768
 3880TIP3   OH233130   5.954   4.231   2.650 -0.4707  0.4281  0.9679
 3880TIP3    H133131   5.950   4.290   2.725 -0.7112 -0.0814  1.3651
 3880TIP3    H233132   6.024   4.266   2.596 -1.1353  1.5525  0.7797
 3881TIP3   OH233133   0.617   6.424  14.910 -0.3263 -0.4334  0.2980
 3881TIP3    H133134   0.693   6.412  14.853 -1.3701 -0.0375 -1.2242
 3881TIP3    H233135   0.543   6.390  14.860 -1.4448  0.9072  0.9676
 3882TIP3   OH233136   2.119   0.738   4.420  0.2528 -0.5102 -0.0585
 3882TIP3    H133137   2.079   0.653   4.441  0.9871 -0.7001  0.6129
 3882TIP3    H233138   2.181   0.718   4.350  0.4139 -0.5279  0.0884
 3883TIP3   OH233139   3.247   5.122  15.268 -0.5561  0.0690  0.3850
 3883TIP3    H133140   3.231   5.058  15.199 -1.1679  0.5734  0.0472
 3883TIP3    H233141   3.185   5.100  15.337  0.6356 -0.9723  1.1750
 3884TIP3   OH233142   4.634   0.384  17.179 -0.5362 -0.0215  0.4554
 3884TIP3    H133143   4.659   0.295  17.202 -0.6958 -0.0835  0.3871
 3884TIP3    H233144   4.639   0.432  17.262  0.3896  0.1049  0.3331
 3885TIP3   OH233145   4.259   6.358  11.532 -0.5447 -0.2370 -0.7534
 3885TIP3    H133146   4.210   6.424  11.482 -0.5896 -1.2005 -2.0379
 3885TIP3    H233147   4.268   6.284  11.471  2.6779 -0.0449 -0.6476
 3886TIP3   OH233148   5.803   3.307  15.475  0.7595  1.0756 -0.0550
 3886TIP3    H133149   5.863   3.381  15.483 -0.8755  2.3901  0.4848
 3886TIP3    H233150   5.821   3.253  15.552  0.5501  1.9946  0.6552
 3887TIP3   OH233151   4.266   2.980  13.722 -0.7955 -0.1215  0.0370
 3887TIP3    H133152   4.192   3.039  13.737 -0.8370 -0.0450 -0.4550
 3887TIP3    H233153   4.299   3.004  13.636 -0.0453  0.0056  0.3493
 3888TIP3   OH233154   1.346   6.745  15.445 -0.6229  0.5149 -0.5497
 3888TIP3    H133155   1.386   6.774  15.527 -0.7574 -0.0261 -0.2921
 3888TIP3    H233156   1.255   6.774  15.452 -0.2564  1.9068 -1.2126
 3889TIP3   OH233157   0.495   2.225   0.657  0.1453  0.7511  0.7214
 3889TIP3    H133158   0.422   2.212   0.596 -0.2416  0.6657  1.1997
 3889TIP3    H233159   0.547   2.295   0.617  1.9930 -1.7173 -1.6494
 3890TIP3   OH233160   4.342   0.207   2.371  1.0123 -0.7600  0.2990
 3890TIP3    H133161   4.398   0.136   2.339  0.1237 -1.1629 -0.3869
 3890TIP3    H233162   4.354   0.205   2.466  1.5285 -1.3691  0.2309
 3891TIP3   OH233163   0.141   2.655  14.630 -0.1919 -0.5136  0.2276
 3891TIP3    H133164   0.234   2.654  14.608 -0.4124  1.4062 -1.0251
 3891TIP3    H233165   0.133   2.593  14.703  1.8596 -1.5337 -0.3343
 3892TIP3   OH233166   1.125   6.453   0.199  0.3718  0.4478  0.5860
 3892TIP3    H133167   1.035   6.422   0.211  0.7086 -0.0806  2.0233
 3892TIP3    H233168   1.122   6.545   0.228  0.3278  0.3724  0.8281
 3893TIP3   OH233169   3.637   6.539  15.119  0.7031 -0.6300  0.5178
 3893TIP3    H133170   3.731   6.551  15.115  0.7972 -1.5080 -0.0131
 3893TIP3    H233171   3.624   6.444  15.123 -0.1671 -0.5331  0.3046
 3894TIP3   OH233172   3.658   2.461  11.627 -0.3846  0.5147  0.4327
 3894TIP3    H133173   3.648   2.510  11.709  0.8063  0.2930  0.7379
 3894TIP3    H233174   3.748   2.479  11.600 -0.7293  0.5008 -0.7884
 3895TIP3   OH233175   3.214   2.689  14.586 -0.4184  0.1038  0.5529
 3895TIP3    H133176   3.167   2.670  14.667 -1.4405 -0.7570 -0.2124
 3895TIP3    H233177   3.197   2.614  14.529 -0.1840  0.9193 -0.6543
 3896TIP3   OH233178   1.805   4.762  11.325  0.2873  0.4198 -0.4308
 3896TIP3    H133179   1.801   4.671  11.296 -0.4679  1.0380 -2.3801
 3896TIP3    H233180   1.840   4.811  11.251 -0.4112  1.8843  0.1473
 3897TIP3   OH233181   1.383   3.132   2.940  0.2964 -0.3041  0.1340
 3897TIP3    H133182   1.438   3.054   2.952 -0.5880 -1.2239 -1.4485
 3897TIP3    H233183   1.299   3.097   2.910 -0.5198  1.2081  0.5721
 3898TIP3   OH233184   2.255   0.894   0.251 -0.1816  0.3462  0.5620
 3898TIP3    H133185   2.288   0.983   0.243 -0.0276  0.3776  1.4278
 3898TIP3    H233186   2.306   0.856   0.323 -0.1134 -0.5027  0.0767
 3899TIP3   OH233187   2.893   3.192  12.036 -0.6095  0.1214 -0.6814
 3899TIP3    H133188   2.946   3.268  12.059  0.7793 -0.7458 -0.8443
 3899TIP3    H233189   2.920   3.125  12.099 -0.3935 -0.7871 -1.7132
 3900TIP3   OH233190   3.298   0.152   4.162  0.8480 -0.3507  0.0955
 3900TIP3    H133191   3.222   0.136   4.218  0.8129 -0.3172  0.0576
 3900TIP3    H233192   3.265   0.210   4.093  1.0350  0.0779  0.3632
 3901TIP3   OH233193   1.097   6.358  12.706 -0.6654 -0.1572 -0.1024
 3901TIP3    H133194   1.166   6.293  12.693 -1.5254 -0.6396 -3.3437
 3901TIP3    H233195   1.137   6.441  12.681  0.2710  0.6303  3.5132
 3902TIP3   OH233196   2.775   2.226  13.809  0.7093  0.1877 -0.3628
 3902TIP3    H133197   2.812   2.312  13.832  1.8693 -0.5459  0.6647
 3902TIP3    H233198   2.680   2.238  13.818  0.7904  1.5789 -1.0565
 3903TIP3   OH233199   3.233   4.615   4.375 -0.5562  0.2292  0.1789
 3903TIP3    H133200   3.240   4.645   4.284  0.0395  0.5978  0.3343
 3903TIP3    H233201   3.199   4.526   4.369 -1.4907  0.6140 -0.3488
 3904TIP3   OH233202   3.949   2.686   6.851 -0.0847  0.4850  0.0325
 3904TIP3    H133203   3.986   2.638   6.925 -0.7183  0.9809  0.6799
 3904TIP3    H233204   3.855   2.688   6.868 -0.3301 -0.0423 -1.1715
 3905TIP3   OH233205   5.027   4.002  11.740 -0.0818 -0.0298 -0.8379
 3905TIP3    H133206   4.980   4.079  11.708 -2.3730 -1.1979 -0.4687
 3905TIP3    H233207   5.002   3.932  11.680  2.2815 -0.4775 -1.4097
 3906TIP3   OH233208   6.023   4.820   2.511 -0.1459 -0.1856  0.2526
 3906TIP3    H133209   6.051   4.874   2.437  0.5970  0.0668  0.7146
 3906TIP3    H233210   5.942   4.861   2.541 -0.5272 -0.3668 -0.4951
 3907TIP3   OH233211   1.924   4.394  13.837 -0.4416 -0.5777 -0.2896
 3907TIP3    H133212   1.960   4.378  13.924 -1.9158  0.9323  0.6618
 3907TIP3    H233213   1.878   4.313  13.815 -0.2341 -0.8965  0.4320
 3908TIP3   OH233214   6.620   3.453   1.432  0.0961 -0.1710  0.1925
 3908TIP3    H133215   6.657   3.392   1.495 -2.2306 -1.6158  0.2792
 3908TIP3    H233216   6.619   3.404   1.349 -0.2497  0.3556 -0.1225
 3909TIP3   OH233217   1.946   2.478  15.431  0.1345 -0.4455 -0.6489
 3909TIP3    H133218   1.933   2.439  15.518  0.8865 -0.0311 -0.3465
 3909TIP3    H233219   2.040   2.494  15.426 -0.0628  0.6852 -1.0423
 3910TIP3   OH233220   2.382   1.101   2.232  0.3901 -0.0612  0.3035
 3910TIP3    H133221   2.362   1.194   2.223  1.2022  0.1669  0.8114
 3910TIP3    H233222   2.344   1.076   2.316  1.3759  0.1494  0.8237
 3911TIP3   OH233223   0.593   1.044  14.661  0.2616  0.0045  0.5263
 3911TIP3    H133224   0.536   1.089  14.724 -0.8586  0.2004 -0.5786
 3911TIP3    H233225   0.674   1.095  14.661 -0.4307  1.1408  0.4273
 3912TIP3   OH233226   1.953   1.002   5.652 -0.0600  0.3503 -0.1881
 3912TIP3    H133227   1.959   0.907   5.664  2.0760  0.4019 -0.3400
 3912TIP3    H233228   1.860   1.020   5.650 -0.5468 -1.5527  1.3818
 3913TIP3   OH233229   6.585   2.402   4.585 -0.5223  0.3529 -0.1283
 3913TIP3    H133230   6.570   2.341   4.657  1.4625  0.1115  0.1364
 3913TIP3    H233231   6.568   2.488   4.623 -0.8889  0.1318  0.2160
 3914TIP3   OH233232   5.188   3.050  17.515 -0.1892  0.2643  0.2872
 3914TIP3    H133233   5.284   3.054  17.509 -0.0944  1.7092  1.9365
 3914TIP3    H233234   5.170   3.004  17.597 -0.9644 -0.9643 -0.5362
 3915TIP3   OH233235   3.136   3.355  13.626  0.2529  0.6206  0.2471
 3915TIP3    H133236   3.051   3.357  13.670  0.1205 -0.7505  0.0928
 3915TIP3    H233237   3.192   3.305  13.684  0.8063  1.0468  0.0869
 3916TIP3   OH233238   6.509   1.090   1.556 -0.3877  0.2688  0.2762
 3916TIP3    H133239   6.441   1.141   1.600  0.0535  0.3940  0.8091
 3916TIP3    H233240   6.535   1.145   1.481  0.5538  1.1460  1.2144
 3917TIP3   OH233241   1.354   1.100   4.800  0.4819  0.3960  0.4933
 3917TIP3    H133242   1.415   1.165   4.835  1.0797  0.1521 -0.0543
 3917TIP3    H233243   1.317   1.057   4.877 -0.0446  1.4803  0.8684
 3918TIP3   OH233244   5.163   4.247  15.806  0.6778 -0.4122 -0.4857
 3918TIP3    H133245   5.206   4.327  15.837  2.0649 -1.0796 -0.6074
 3918TIP3    H233246   5.172   4.250  15.711 -0.9804  0.1991 -0.6537
 3919TIP3   OH233247   3.879   3.744  16.027 -0.3750  0.9068  0.4006
 3919TIP3    H133248   3.846   3.664  16.067 -0.4298 -0.1956 -1.6858
 3919TIP3    H233249   3.962   3.761  16.071 -0.0452 -0.7013  0.4310
 3920TIP3   OH233250   6.087   0.774   5.794 -0.6256 -0.7434  0.6541
 3920TIP3    H133251   6.003   0.818   5.807 -1.1455 -1.3905 -0.3557
 3920TIP3    H233252   6.064   0.681   5.789  0.5718 -1.3356  3.9385
 3921TIP3   OH233253   4.898   6.764   4.260 -0.3142  0.3259 -0.0405
 3921TIP3    H133254   4.898   6.681   4.212  0.9825  0.4432 -0.2740
 3921TIP3    H233255   4.920   6.829   4.194 -1.4359  0.8906  0.1208
 3922TIP3   OH233256   6.607   4.266  13.114 -0.5793  0.1592  0.3773
 3922TIP3    H133257   6.562   4.192  13.072  0.0501  0.7871 -1.5187
 3922TIP3    H233258   6.630   4.234  13.201  0.9915 -2.4431 -0.8915
 3923TIP3   OH233259   3.549   2.836   1.637 -0.0662 -0.1839  0.4146
 3923TIP3    H133260   3.477   2.897   1.655  1.5944  1.4070  2.1531
 3923TIP3    H233261   3.584   2.813   1.723  0.5089 -2.2033 -0.3065
 3924TIP3   OH233262   0.713   1.539   5.508  0.4178  0.4470  0.0601
 3924TIP3    H133263   0.802   1.535   5.473  0.8482  1.7614  0.9302
 3924TIP3    H233264   0.678   1.450   5.497  1.7837 -0.0483 -0.4023
 3925TIP3   OH233265   1.830   6.685   6.091 -0.0148  0.5430  0.5167
 3925TIP3    H133266   1.774   6.651   6.161  2.2344  1.8639  3.1676
 3925TIP3    H233267   1.816   6.779   6.092  0.7561  0.6782 -0.1493
 3926TIP3   OH233268   3.433   5.766   5.134  0.3618 -0.0061  0.2941
 3926TIP3    H133269   3.400   5.701   5.196 -1.6230  1.8294  1.3131
 3926TIP3    H233270   3.382   5.751   5.054  1.1577 -0.8027 -0.0682
 3927TIP3   OH233271   6.536   6.004   5.855 -0.3148 -0.5837  0.7086
 3927TIP3    H133272   6.582   6.023   5.773  1.0684 -1.0760  1.3260
 3927TIP3    H233273   6.448   5.979   5.828 -0.0636 -0.1545 -0.5840
 3928TIP3   OH233274   4.472   5.581  14.440  0.1175  0.0650  0.7617
 3928TIP3    H133275   4.469   5.629  14.357 -0.4531 -0.7980  0.2799
 3928TIP3    H233276   4.400   5.618  14.492 -0.1555 -0.0840  0.4912
 3929TIP3   OH233277   6.353   4.115   1.009 -0.6319  0.0008 -0.1027
 3929TIP3    H133278   6.360   4.083   0.919 -2.5603 -0.9817  0.0496
 3929TIP3    H233279   6.312   4.043   1.057 -1.5355  1.2714  1.1068
 3930TIP3   OH233280   5.200   4.317  17.334  0.6332 -0.0215  0.5724
 3930TIP3    H133281   5.277   4.284  17.379  1.6092 -1.2908 -1.8111
 3930TIP3    H233282   5.230   4.333  17.244 -1.5579  0.7366 -0.0956
 3931TIP3   OH233283   0.738   4.571   5.549 -0.2496  0.4579 -0.1015
 3931TIP3    H133284   0.827   4.536   5.552 -0.7039 -0.7060  0.5294
 3931TIP3    H233285   0.690   4.508   5.494 -0.7649  0.8614 -0.1184
 3932TIP3   OH233286   0.294   0.997   1.306 -0.1952  0.2202  0.3628
 3932TIP3    H133287   0.347   1.074   1.326  0.1160  1.5819 -4.5192
 3932TIP3    H233288   0.205   1.031   1.296 -0.3709 -0.3607 -0.1179
 3933TIP3   OH233289   0.868   1.446   5.234  0.1081  0.3637  0.0379
 3933TIP3    H133290   0.831   1.360   5.217  1.3386 -0.3367  0.7503
 3933TIP3    H233291   0.958   1.441   5.201  0.3899  1.1581  0.6458
 3934TIP3   OH233292   2.635   0.483   0.998 -0.3931  0.3294  0.2813
 3934TIP3    H133293   2.555   0.448   0.959  0.0432  1.7770 -2.1400
 3934TIP3    H233294   2.635   0.576   0.973  3.1844 -0.0890 -2.0579
 3935TIP3   OH233295   5.412   2.392  10.919  0.2053 -0.5204  0.5936
 3935TIP3    H133296   5.495   2.441  10.921  0.5391 -1.0282 -0.3024
 3935TIP3    H233297   5.356   2.442  10.859  0.7013 -1.4348 -0.6840
 3936TIP3   OH233298   2.774   6.551  12.625  0.1933  0.4951 -0.1744
 3936TIP3    H133299   2.682   6.557  12.650 -0.1556 -0.2027 -1.2316
 3936TIP3    H233300   2.820   6.534  12.707 -0.7108 -0.0433  0.2379
 3937TIP3   OH233301   3.176   5.082  13.324 -0.2557 -0.1863 -0.0320
 3937TIP3    H133302   3.170   4.992  13.358 -0.7597  0.1904  0.9082
 3937TIP3    H233303   3.253   5.118  13.367 -1.4418  0.6049  1.5131
 3938TIP3   OH233304   6.329   3.076   1.184  0.0698  0.4020 -0.0841
 3938TIP3    H133305   6.288   3.047   1.266  0.5661  1.5111  0.5786
 3938TIP3    H233306   6.273   3.148   1.154 -0.2734 -0.1865 -0.8909
 3939TIP3   OH233307   4.798   2.040  16.052 -0.0432 -0.4049  0.5370
 3939TIP3    H133308   4.764   1.955  16.025 -2.8910  0.4451  1.1393
 3939TIP3    H233309   4.856   2.066  15.981  0.1507 -2.3885 -0.1110
 3940TIP3   OH233310   6.060   3.184  13.258 -0.4435  0.1479  0.1190
 3940TIP3    H133311   6.050   3.255  13.321  0.5326  0.1780  0.2645
 3940TIP3    H233312   5.977   3.181  13.211 -0.4140  1.5573 -0.0692
 3941TIP3   OH233313   2.341   0.663   0.713  0.2143 -0.2525 -0.2645
 3941TIP3    H133314   2.436   0.668   0.719  0.3248  0.6819 -2.1886
 3941TIP3    H233315   2.324   0.616   0.632 -0.9372  1.2421 -0.9425
 3942TIP3   OH233316   4.437   0.996   5.049  0.3086  0.1441  0.5059
 3942TIP3    H133317   4.345   1.012   5.028  0.7560 -0.2537 -2.2066
 3942TIP3    H233318   4.438   0.979   5.143 -2.5963 -1.2862  0.3995
 3943TIP3   OH233319   1.302   2.730  12.375 -0.0738  0.2050  0.3613
 3943TIP3    H133320   1.233   2.790  12.347 -1.1826 -0.4422  1.5671
 3943TIP3    H233321   1.379   2.785  12.388 -1.1224  1.4260  1.6741
 3944TIP3   OH233322   3.022   3.854   6.237  0.3485  0.2431 -0.3527
 3944TIP3    H133323   3.059   3.912   6.171  0.2877 -1.0862 -1.6122
 3944TIP3    H233324   2.942   3.820   6.196 -0.0724 -0.0689  0.6931
 3945TIP3   OH233325   2.245   0.620  16.338 -0.0261  0.1194  0.5447
 3945TIP3    H133326   2.211   0.679  16.406  1.0180  0.7526  0.5394
 3945TIP3    H233327   2.188   0.636  16.263 -0.0159  0.8241  0.6789
 3946TIP3   OH233328   2.649   3.521   5.071 -0.2318  0.0989  0.1940
 3946TIP3    H133329   2.638   3.435   5.031 -1.7867 -0.1663  1.0849
 3946TIP3    H233330   2.563   3.563   5.060 -0.0322  0.8457  1.2958
 3947TIP3   OH233331   0.873   3.168  11.283 -0.3899 -0.3936 -0.0416
 3947TIP3    H133332   0.909   3.116  11.212 -1.3193  2.0333 -2.4367
 3947TIP3    H233333   0.949   3.200  11.331  0.2796 -1.3363 -0.4493
 3948TIP3   OH233334   6.596   0.402  14.735  0.2343  0.2567 -0.0342
 3948TIP3    H133335   6.599   0.439  14.646 -1.7138  0.9775  0.1375
 3948TIP3    H233336   6.665   0.337  14.736  1.1041  1.0690 -1.6986
 3949TIP3   OH233337   1.154   0.885  17.406 -0.1070  0.5042  0.3999
 3949TIP3    H133338   1.162   0.948  17.477  0.5744  2.0118 -0.9438
 3949TIP3    H233339   1.231   0.829  17.415  0.2683  1.0330  0.5473
 3950TIP3   OH233340   4.953   2.934   5.409 -0.8623 -1.0742 -0.7802
 3950TIP3    H133341   4.918   2.863   5.463  0.1613 -1.2994 -0.3977
 3950TIP3    H233342   4.887   2.946   5.341 -2.5803 -0.2517  0.9202
 3951TIP3   OH233343   3.513   2.515   4.308 -0.0750 -0.1089  0.3096
 3951TIP3    H133344   3.513   2.548   4.398  0.2901  1.0317 -0.0873
 3951TIP3    H233345   3.586   2.452   4.305  0.0663  0.0316  0.7525
 3952TIP3   OH233346   5.638   4.108   0.644  0.3908 -0.2079  0.0300
 3952TIP3    H133347   5.648   4.015   0.621  1.4838 -0.3178  0.8236
 3952TIP3    H233348   5.723   4.131   0.682 -0.4966  0.5930  1.6333
 3953TIP3   OH233349   5.986   0.765  11.924  0.4840 -0.2411  0.0622
 3953TIP3    H133350   5.899   0.748  11.886 -0.1727  0.3938  1.2163
 3953TIP3    H233351   6.046   0.758  11.850 -0.4287 -1.6624 -0.5929
 3954TIP3   OH233352   6.587   1.895  12.085 -0.2096  0.2426  0.3136
 3954TIP3    H133353   6.502   1.900  12.041  0.0881 -0.2915 -0.3482
 3954TIP3    H233354   6.595   1.978  12.132 -1.0084  0.3790  0.2224
 3955TIP3   OH233355   3.448   4.706  11.900 -0.2668 -0.1668 -0.3337
 3955TIP3    H133356   3.359   4.681  11.924  0.6521 -2.3408  1.1505
 3955TIP3    H233357   3.489   4.730  11.983  0.3999  1.4416 -1.0861
 3956TIP3   OH233358   1.000   2.253  16.242  0.2938 -0.5434 -0.0479
 3956TIP3    H133359   1.008   2.205  16.160 -0.0972 -0.2566 -0.2578
 3956TIP3    H233360   0.980   2.343  16.215 -0.1779 -0.5198  0.3699
 3957TIP3   OH233361   0.922   4.292   4.891  0.1223 -0.0738 -0.8492
 3957TIP3    H133362   0.930   4.206   4.851  3.5932  1.3781 -3.8059
 3957TIP3    H233363   0.846   4.332   4.849 -1.2046 -1.4080  0.1848
 3958TIP3   OH233364   2.327   2.828  14.926  0.1579  0.5100  0.0249
 3958TIP3    H133365   2.339   2.782  14.843  1.5773 -2.1710  1.5957
 3958TIP3    H233366   2.416   2.852  14.953 -0.2860  1.3898  0.7873
 3959TIP3   OH233367   6.422   2.518  16.897 -0.1267  1.1177 -0.1284
 3959TIP3    H133368   6.446   2.432  16.931 -1.5140 -0.0176 -1.9062
 3959TIP3    H233369   6.345   2.544  16.948 -0.4409  0.7527 -0.4184
 3960TIP3   OH233370   2.044   0.434   2.535 -0.3326 -0.0768 -0.1504
 3960TIP3    H133371   1.971   0.494   2.517 -1.3855 -1.6014 -1.1762
 3960TIP3    H233372   2.013   0.378   2.605  0.4798  0.2514  0.4913
 3961TIP3   OH233373   6.643   4.962   5.953 -0.2146 -0.1845 -0.2813
 3961TIP3    H133374   6.725   5.011   5.951 -0.4418  0.3081  1.3113
 3961TIP3    H233375   6.580   5.018   5.908  0.2672 -0.5081 -1.3930
 3962TIP3   OH233376   1.216   1.695  13.898 -0.1363 -0.2991 -0.1161
 3962TIP3    H133377   1.280   1.754  13.937  1.0627 -0.7164 -1.3685
 3962TIP3    H233378   1.182   1.742  13.823 -1.1825 -0.1622  0.4228
 3963TIP3   OH233379   2.842   5.679   0.194  0.4577  0.4434 -0.3783
 3963TIP3    H133380   2.885   5.605   0.153 -0.2644 -0.5983  0.6752
 3963TIP3    H233381   2.904   5.709   0.261 -0.0964 -0.5982  0.6452
 3964TIP3   OH233382   1.040   5.044   1.275  0.2289  0.6190 -0.0302
 3964TIP3    H133383   1.040   5.140   1.281  0.7878  0.7418 -1.6921
 3964TIP3    H233384   1.035   5.025   1.182 -1.3922 -1.0101  0.3231
 3965TIP3   OH233385   1.639   2.270   4.385  0.0948 -0.2467  0.1140
 3965TIP3    H133386   1.583   2.236   4.455 -1.3142  0.2710 -0.7096
 3965TIP3    H233387   1.683   2.192   4.350  0.0851 -0.6380  0.9378
 3966TIP3   OH233388   4.206   6.056  12.199  0.1359  0.1613  0.1681
 3966TIP3    H133389   4.193   6.014  12.284  2.2975 -0.3641  0.3202
 3966TIP3    H233390   4.260   6.132  12.218 -1.3308  1.4136 -0.4877
 3967TIP3   OH233391   3.942   6.366   2.688  0.1844 -0.4716 -0.8872
 3967TIP3    H133392   3.937   6.388   2.595  0.2183  1.6854 -0.4328
 3967TIP3    H233393   3.941   6.451   2.733  0.7194 -1.4333  1.0598
 3968TIP3   OH233394   5.169   6.690   1.759  0.3136  0.3356  0.1847
 3968TIP3    H133395   5.246   6.740   1.786 -0.1600  1.7164 -0.9018
 3968TIP3    H233396   5.111   6.693   1.835  1.8871 -2.0237  1.5869
 3969TIP3   OH233397   0.725   4.983   5.876 -0.0481 -0.2064 -0.0319
 3969TIP3    H133398   0.742   4.907   5.932  0.2650  0.5507  0.9383
 3969TIP3    H233399   0.705   4.946   5.791 -3.5577 -1.5990  1.2213
 3970TIP3   OH233400   5.351   3.430  15.519  0.4549 -0.6915  0.1534
 3970TIP3    H133401   5.415   3.501  15.522 -0.9228  0.5896  1.4240
 3970TIP3    H233402   5.307   3.441  15.435  2.1888 -1.9242 -0.9844
 3971TIP3   OH233403   0.146   2.686  12.621 -0.3332 -0.5212  0.4014
 3971TIP3    H133404   0.064   2.725  12.593  0.0358  0.2593  0.3842
 3971TIP3    H233405   0.212   2.752  12.601  0.7885 -2.3819 -2.6519
 3972TIP3   OH233406   2.290   0.816   4.138  0.6389 -0.0442 -0.5133
 3972TIP3    H133407   2.205   0.838   4.100 -1.7794 -2.0320  3.0926
 3972TIP3    H233408   2.297   0.721   4.129  2.0565 -0.0254  0.0861
 3973TIP3   OH233409   3.163   1.467   4.750  0.0581  0.2588 -0.3561
 3973TIP3    H133410   3.236   1.482   4.810 -0.4877  1.7502 -0.0223
 3973TIP3    H233411   3.156   1.548   4.700 -0.8041 -0.1997 -0.9997
 3974TIP3   OH233412   6.614   4.823  12.856 -0.4422 -0.0094  0.6986
 3974TIP3    H133413   6.531   4.865  12.876 -1.0025 -1.0113  0.5289
 3974TIP3    H233414   6.592   4.753  12.794  0.7718  0.8940 -0.8610
 3975TIP3   OH233415   4.970   0.783   4.132  0.1134  0.3924 -0.6933
 3975TIP3    H133416   5.051   0.734   4.120  0.0064 -0.1363  0.5381
 3975TIP3    H233417   4.953   0.824   4.047  1.5951  0.4122 -1.0073
 3976TIP3   OH233418   4.670   4.770  16.567  0.3641 -0.0895  0.8582
 3976TIP3    H133419   4.651   4.677  16.557  1.0091 -0.4990  2.9691
 3976TIP3    H233420   4.625   4.795  16.647 -1.4513  1.9655 -0.6596
 3977TIP3   OH233421   2.373   6.273   1.919  0.1954  0.2972 -0.3125
 3977TIP3    H133422   2.371   6.327   1.998 -1.0181 -0.9132  0.5343
 3977TIP3    H233423   2.448   6.214   1.932  0.2842  0.4148 -0.2917
 3978TIP3   OH233424   2.570   2.612  15.268  0.1465  0.6746 -0.2817
 3978TIP3    H133425   2.515   2.683  15.301  1.5307  2.2749 -1.2781
 3978TIP3    H233426   2.658   2.648  15.269  1.2304 -1.8227  1.2720
 3979TIP3   OH233427   5.807   0.543  11.085  0.0732  0.0012 -0.3544
 3979TIP3    H133428   5.792   0.518  10.994 -1.3962  0.3879 -0.2467
 3979TIP3    H233429   5.724   0.525  11.129  1.4188 -2.3132  1.4361
 3980TIP3   OH233430   4.229   1.583   1.953 -0.1628  0.5920 -0.4151
 3980TIP3    H133431   4.314   1.538   1.958  0.0951  1.0509 -0.6610
 3980TIP3    H233432   4.169   1.524   1.999  0.5105  0.8044  0.7851
 3981TIP3   OH233433   6.359   5.394  14.845  0.2054 -0.0442 -0.7930
 3981TIP3    H133434   6.264   5.396  14.836 -0.0232 -0.9298  0.9977
 3981TIP3    H233435   6.383   5.483  14.869 -0.3162 -0.0631 -0.1827
 3982TIP3   OH233436   0.543   4.402  15.659 -0.1097  0.1613 -0.4759
 3982TIP3    H133437   0.492   4.406  15.578 -0.0240  0.0473 -0.5363
 3982TIP3    H233438   0.540   4.310  15.685 -1.1390  0.3995  0.2987
 3983TIP3   OH233439   6.634   5.204   4.571 -0.3385 -0.4870  0.4860
 3983TIP3    H133440   6.587   5.186   4.652 -1.6726  1.5734  0.2503
 3983TIP3    H233441   6.692   5.277   4.593 -0.8601  0.2251 -0.4425
 3984TIP3   OH233442   1.248   3.489  13.440 -1.0355  0.0729 -0.2851
 3984TIP3    H133443   1.309   3.423  13.472 -1.5417  0.4786  1.6175
 3984TIP3    H233444   1.250   3.479  13.345 -1.5916 -3.0841 -0.0663
 3985TIP3   OH233445   6.058   5.857  12.024  0.8123  0.3154  0.1289
 3985TIP3    H133446   5.994   5.819  11.964  3.2705 -0.8477 -1.9631
 3985TIP3    H233447   6.117   5.906  11.967  1.0148  2.5764  2.1409
 3986TIP3   OH233448   0.616   2.633  12.689 -0.0825 -0.0792  0.1625
 3986TIP3    H133449   0.587   2.542  12.691 -0.0999 -0.1975 -2.1968
 3986TIP3    H233450   0.567   2.672  12.616 -0.5677  2.0319  1.5158
 3987TIP3   OH233451   3.241   1.040   5.872  0.7418  0.2273 -0.3705
 3987TIP3    H133452   3.176   1.073   5.811  0.5533  1.1401  0.3041
 3987TIP3    H233453   3.306   0.996   5.817 -0.3699 -0.5970 -1.0574
 3988TIP3   OH233454   3.257   2.765  11.863 -0.0354 -0.5559  0.0890
 3988TIP3    H133455   3.222   2.759  11.774  0.3271  0.6129 -0.1478
 3988TIP3    H233456   3.351   2.750  11.852 -0.1405 -1.5794  0.4469
 3989TIP3   OH233457   3.278   4.908  11.350  0.2204  0.2111  0.1065
 3989TIP3    H133458   3.240   4.839  11.297  0.8000 -0.0724  0.0480
 3989TIP3    H233459   3.258   4.884  11.440 -0.1457  0.3169  0.0548
 3990TIP3   OH233460   3.861   1.298  11.164 -0.3231 -0.3558  0.9563
 3990TIP3    H133461   3.810   1.243  11.224 -4.8152  3.1259  0.8228
 3990TIP3    H233462   3.822   1.281  11.078  1.3687 -0.2714  0.1436
 3991TIP3   OH233463   5.639   4.571   6.380  0.1517  1.1004  0.0599
 3991TIP3    H133464   5.717   4.517   6.378 -1.1811 -0.9172 -0.4808
 3991TIP3    H233465   5.605   4.563   6.469 -1.5033 -1.3164 -0.6694
 3992TIP3   OH233466   2.667   2.279  14.337 -0.8645  0.2027  0.0939
 3992TIP3    H133467   2.632   2.226  14.409 -1.5762  0.8567  0.2337
 3992TIP3    H233468   2.722   2.344  14.381  0.1040 -0.4732 -0.0859
 3993TIP3   OH233469   6.366   1.971   0.723  0.6060  0.3830  0.1245
 3993TIP3    H133470   6.275   1.980   0.752  0.7863  1.3451  0.4377
 3993TIP3    H233471   6.369   2.019   0.640  0.8672  0.5115  0.2072
 3994TIP3   OH233472   3.325   5.195   0.821 -0.2408  0.3468 -0.8597
 3994TIP3    H133473   3.230   5.191   0.833  0.0392 -1.1257  1.2223
 3994TIP3    H233474   3.347   5.288   0.830 -1.1298  0.3477  2.1619
 3995TIP3   OH233475   3.173   3.982  13.243 -0.4861  0.2482  0.6044
 3995TIP3    H133476   3.230   4.053  13.212 -0.9671  0.4589  0.1854
 3995TIP3    H233477   3.133   4.016  13.322  0.5847 -0.2104  1.3650
 3996TIP3   OH233478   5.355   6.133  16.471 -0.0131  0.5087 -0.3487
 3996TIP3    H133479   5.398   6.063  16.519 -1.0852  1.0809  1.5547
 3996TIP3    H233480   5.270   6.097  16.446 -0.3053  0.8976  0.0632
 3997TIP3   OH233481   6.611   1.018  13.368  0.1329  0.2166 -0.5453
 3997TIP3    H133482   6.556   0.970  13.429  1.5122  1.6332  2.0150
 3997TIP3    H233483   6.700   1.004  13.401  0.9279  1.2330 -2.1386
 3998TIP3   OH233484   0.091   3.766   2.773 -0.4774  0.3133 -0.1807
 3998TIP3    H133485   0.153   3.694   2.766 -1.3534 -0.3723 -1.5713
 3998TIP3    H233486   0.108   3.820   2.696 -0.1212  1.3677  0.6195
 3999TIP3   OH233487   2.727   4.780  12.379 -0.4025 -0.1269 -0.6373
 3999TIP3    H133488   2.661   4.738  12.435 -0.0202  1.6039  1.2142
 3999TIP3    H233489   2.692   4.867  12.361 -0.4319 -0.5752 -3.0563
 4000TIP3   OH233490   5.055   4.877  11.936  0.1392  0.2698 -0.2226
 4000TIP3    H133491   4.975   4.833  11.908  1.2118 -0.9494 -1.4957
 4000TIP3    H233492   5.116   4.806  11.957  0.5218  1.1461  2.0221
 4001TIP3   OH233493   6.035   3.346  11.640 -0.3930 -0.1506  0.1334
 4001TIP3    H133494   6.042   3.269  11.698 -0.1806 -0.9021 -0.8711
 4001TIP3    H233495   5.972   3.319  11.573 -0.0536  0.4330 -0.4205
 4002TIP3   OH233496   0.193   2.640   3.419 -0.3920  0.5731  0.1120
 4002TIP3    H133497   0.215   2.551   3.392 -1.3103 -0.0876  1.4243
 4002TIP3    H233498   0.267   2.668   3.473 -0.9155 -0.1023  1.1972
 4003TIP3   OH233499   3.535   1.191  14.989  0.1036  0.0960  0.1345
 4003TIP3    H133500   3.555   1.106  14.950  1.8905  0.1594  0.7859
 4003TIP3    H233501   3.461   1.224  14.938 -0.1318 -1.4939 -0.6374
 4004TIP3   OH233502   5.850   2.139  10.666  0.0692 -0.1368 -0.2297
 4004TIP3    H133503   5.834   2.046  10.684  0.8175 -0.2605 -0.1679
 4004TIP3    H233504   5.837   2.182  10.750 -3.4191  0.2900 -0.8679
 4005TIP3   OH233505   0.889   6.047   6.568 -0.1366 -0.0986  0.2862
 4005TIP3    H133506   0.821   6.027   6.632 -1.4985  2.1490 -0.3380
 4005TIP3    H233507   0.958   6.090   6.619  0.5956 -1.8097  0.8145
 4006TIP3   OH233508   0.709   3.338   3.442 -0.0187 -0.4341 -0.1815
 4006TIP3    H133509   0.802   3.346   3.422 -0.2536 -0.3079 -1.3073
 4006TIP3    H233510   0.668   3.411   3.395 -0.9533 -1.8729 -1.7174
 4007TIP3   OH233511   6.127   3.618  13.832  0.2138 -0.5396  0.4734
 4007TIP3    H133512   6.083   3.542  13.795 -1.8727  0.3523  1.0057
 4007TIP3    H233513   6.059   3.684  13.842  1.4463  0.5579  2.3460
 4008TIP3   OH233514   6.458   0.742  15.576  0.2295 -0.3439  0.1859
 4008TIP3    H133515   6.364   0.752  15.590  0.5421  1.7601  1.2241
 4008TIP3    H233516   6.490   0.705  15.659  0.4617  0.1541  0.3232
 4009TIP3   OH233517   4.457   3.293   4.975 -0.6776 -0.4719 -0.0062
 4009TIP3    H133518   4.490   3.298   5.064  1.1120  3.6250 -0.6664
 4009TIP3    H233519   4.534   3.301   4.919 -2.0374  2.0828 -1.7505
 4010TIP3   OH233520   4.074   2.045  15.710 -0.0581  0.0812  0.1961
 4010TIP3    H133521   3.981   2.029  15.728  0.2238 -1.1179  0.6443
 4010TIP3    H233522   4.100   1.973  15.652  0.7429  0.0498  0.5829
 4011TIP3   OH233523   1.572   0.496  17.070 -0.1236  0.4939 -0.3401
 4011TIP3    H133524   1.490   0.450  17.090  0.0744 -0.4843 -1.6136
 4011TIP3    H233525   1.581   0.489  16.975  1.4124  0.6290 -0.2387
 4012TIP3   OH233526   4.998   4.389   0.715 -0.6457 -0.5940 -0.0047
 4012TIP3    H133527   5.049   4.430   0.645  2.5527 -2.0075  1.3061
 4012TIP3    H233528   5.003   4.295   0.697 -4.7930 -0.8397 -0.9582
 4013TIP3   OH233529   2.094   0.536  17.095 -0.4337  0.0810 -0.2271
 4013TIP3    H133530   2.114   0.445  17.115 -1.7937 -0.2311 -0.2147
 4013TIP3    H233531   2.000   0.545  17.113 -0.2820  1.5364 -0.0247
 4014TIP3   OH233532   2.241   0.535   6.504 -0.3405  0.7023  0.1912
 4014TIP3    H133533   2.306   0.476   6.465 -1.1166 -0.8487  1.1334
 4014TIP3    H233534   2.242   0.612   6.448  2.3153  0.7559  0.1726
 4015TIP3   OH233535   3.095   1.498  14.818  0.4512  0.2309 -0.0459
 4015TIP3    H133536   3.063   1.562  14.754  0.6543 -1.5774 -2.0791
 4015TIP3    H233537   3.044   1.418  14.799  1.2461 -0.6581  1.3889
 4016TIP3   OH233538   1.174   6.264   6.460 -0.2979  0.5901  0.6012
 4016TIP3    H133539   1.153   6.220   6.542  1.8797 -0.3547  0.7161
 4016TIP3    H233540   1.162   6.357   6.479 -0.8935  0.3203  1.6350
 4017TIP3   OH233541   0.310   0.929  17.105 -0.4894  0.4697 -0.0860
 4017TIP3    H133542   0.277   0.938  17.015 -0.3854  0.2239 -0.1503
 4017TIP3    H233543   0.399   0.964  17.101 -1.5137  3.4974  0.6229
 4018TIP3   OH233544   2.850   5.300   3.348  0.5431 -0.2980 -0.2337
 4018TIP3    H133545   2.794   5.274   3.421 -0.0475 -1.3617 -1.0492
 4018TIP3    H233546   2.937   5.268   3.373  0.6325  0.5718  0.6266
 4019TIP3   OH233547   0.664   5.956   0.430  0.0211  0.3761 -0.0052
 4019TIP3    H133548   0.686   6.000   0.348 -0.6563 -0.4487 -0.6529
 4019TIP3    H233549   0.670   5.863   0.409 -0.2733  0.1579  0.8504
 4020TIP3   OH233550   6.217   5.025   5.210  0.1434  0.0248 -0.7289
 4020TIP3    H133551   6.184   5.099   5.260  1.0149 -0.3967  0.5318
 4020TIP3    H233552   6.217   5.056   5.119 -0.9358  1.0144 -0.4213
 4021TIP3   OH233553   1.853   5.379   6.311 -0.1349 -0.6126 -0.3728
 4021TIP3    H133554   1.797   5.336   6.247  1.3221  0.9074 -2.8528
 4021TIP3    H233555   1.794   5.409   6.380 -2.0080 -1.0651 -1.7247
 4022TIP3   OH233556   3.002   0.056  14.700 -0.2259 -0.4105  0.4172
 4022TIP3    H133557   2.921   0.034  14.652  0.5130 -0.9954 -0.5985
 4022TIP3    H233558   3.054  -0.024  14.697  0.6193  0.1246  0.6053
 4023TIP3   OH233559   3.687   6.459  12.709 -0.0204 -1.0510 -0.2037
 4023TIP3    H133560   3.750   6.438  12.776  0.4906 -2.0415 -0.9751
 4023TIP3    H233561   3.681   6.380  12.655 -0.2383 -0.2211 -1.4460
 4024TIP3   OH233562   2.751   4.945  15.993 -0.0519  0.2087  0.4974
 4024TIP3    H133563   2.805   4.888  16.048  0.1684 -0.5752 -0.5042
 4024TIP3    H233564   2.814   4.988  15.935 -0.4690 -0.7581 -0.7228
 4025TIP3   OH233565   5.291   5.976   4.831 -0.4447 -0.2338 -0.8397
 4025TIP3    H133566   5.202   5.940   4.839 -1.2092  1.8756  1.1863
 4025TIP3    H233567   5.278   6.069   4.814  1.4076  0.0250 -1.0249
 4026TIP3   OH233568   0.038   0.176   5.035 -0.5952  0.5943 -0.1619
 4026TIP3    H133569   0.102   0.131   4.981 -0.1573 -1.4459  1.8632
 4026TIP3    H233570   0.090   0.221   5.102 -1.1116 -1.7723  2.0195
 4027TIP3   OH233571   5.722   0.323  16.546 -0.2432  0.0589 -0.3345
 4027TIP3    H133572   5.631   0.353  16.537 -0.8660 -2.0221 -1.5697
 4027TIP3    H233573   5.717   0.245  16.601  0.6634 -0.5923 -1.1427
 4028TIP3   OH233574   4.242   6.030   4.391  0.1400 -0.1326  0.1600
 4028TIP3    H133575   4.162   6.082   4.405 -0.0703  0.6884 -3.2584
 4028TIP3    H233576   4.214   5.940   4.407 -1.0737  0.2621  0.4209
 4029TIP3   OH233577   3.059   6.695   6.273  0.3184  0.2068 -0.6227
 4029TIP3    H133578   3.120   6.647   6.217  0.5171 -0.0536 -0.1917
 4029TIP3    H233579   2.989   6.722   6.214  0.7641  0.3589 -1.0871
 4030TIP3   OH233580   4.711   2.410  15.470  1.1885 -0.2576  0.3487
 4030TIP3    H133581   4.804   2.407  15.445  0.9570 -1.2035 -0.4936
 4030TIP3    H233582   4.701   2.493  15.516  1.9998  0.9353 -1.4872
 4031TIP3   OH233583   1.402   6.740   3.054  0.2824 -0.1689  0.4606
 4031TIP3    H133584   1.325   6.793   3.033  0.2987  0.3600  1.6412
 4031TIP3    H233585   1.378   6.652   3.026  0.0083  0.3404 -0.9550
 4032TIP3   OH233586   5.306   2.606  16.639 -0.5293 -0.0773  0.5426
 4032TIP3    H133587   5.274   2.662  16.710  2.2067  3.4069 -0.7071
 4032TIP3    H233588   5.267   2.643  16.560  2.4301  1.1401 -0.4641
 4033TIP3   OH233589   3.539   0.384  14.339  0.6163 -0.0996 -0.3317
 4033TIP3    H133590   3.451   0.389  14.376  0.9933  0.0768  0.5602
 4033TIP3    H233591   3.526   0.353  14.249 -0.4030  0.5617 -0.4170
 4034TIP3   OH233592   2.693   5.709   5.567 -0.0986  0.0868  0.2429
 4034TIP3    H133593   2.781   5.724   5.602 -0.3323  1.2152  0.3666
 4034TIP3    H233594   2.641   5.688   5.644 -0.4031  1.6214  0.4877
 4035TIP3   OH233595   4.295   6.730  14.841  0.2407 -0.4068  0.5398
 4035TIP3    H133596   4.369   6.675  14.817  0.5641  0.6378 -1.0317
 4035TIP3    H233597   4.272   6.775  14.760  0.6230  2.5044  1.9367
 4036TIP3   OH233598   2.773   3.593   3.463  0.0464  0.3573 -0.4001
 4036TIP3    H133599   2.780   3.498   3.473 -1.6778  0.0301 -1.8232
 4036TIP3    H233600   2.857   3.627   3.495  2.2783 -1.8986 -3.2913
 4037TIP3   OH233601   2.895   0.017  13.516 -0.5725 -0.5282  0.1358
 4037TIP3    H133602   2.931   0.021  13.427  0.1436 -1.9657  0.3436
 4037TIP3    H233603   2.931  -0.063  13.553 -1.6037 -0.4214  1.4187
 4038TIP3   OH233604   1.860   5.611   2.835 -0.3233  0.2647 -0.2964
 4038TIP3    H133605   1.915   5.592   2.911 -1.5038  0.5481  0.6761
 4038TIP3    H233606   1.869   5.535   2.779  2.4271  1.0406 -1.0588
 4039TIP3   OH233607   4.114   3.329   5.707  0.1120 -0.0867  0.5546
 4039TIP3    H133608   4.103   3.316   5.613  0.3827  2.2745  0.1386
 4039TIP3    H233609   4.124   3.241   5.743  0.3608 -1.0129 -1.6675
 4040TIP3   OH233610   6.190   1.629   1.997 -0.5144  0.0310  0.0184
 4040TIP3    H133611   6.126   1.622   2.067 -0.6962  0.0213 -0.1480
 4040TIP3    H233612   6.226   1.541   1.988 -0.1220  0.1429  0.4436
 4041TIP3   OH233613   5.538   1.707   1.593 -0.1895  0.0112  0.1943
 4041TIP3    H133614   5.569   1.737   1.507  0.7976  2.4781  1.3040
 4041TIP3    H233615   5.564   1.615   1.597  0.1560 -0.0442 -1.9485
 4042TIP3   OH233616   2.871   2.732   2.039 -0.3572 -0.4744 -0.3571
 4042TIP3    H133617   2.780   2.749   2.063  0.0927 -0.4766  1.5166
 4042TIP3    H233618   2.880   2.768   1.951 -1.8762  0.5178 -0.1434
 4043TIP3   OH233619   5.585   3.228  13.049  0.0017  0.5003  0.1526
 4043TIP3    H133620   5.523   3.190  13.111  0.5814  0.5314  0.7637
 4043TIP3    H233621   5.556   3.319  13.040 -1.2539  0.0068 -1.1445
 4044TIP3   OH233622   0.429   4.339   5.471 -0.0980 -0.1821  0.0400
 4044TIP3    H133623   0.416   4.421   5.424 -0.9033 -0.6815 -0.6453
 4044TIP3    H233624   0.348   4.290   5.456 -0.1981 -0.5398  1.6058
 4045TIP3   OH233625   3.433   3.923  13.624 -0.7912  0.1968  0.6849
 4045TIP3    H133626   3.387   3.850  13.582  0.0547  0.1909 -0.2949
 4045TIP3    H233627   3.486   3.961  13.553  2.0164 -0.8569  2.0362
 4046TIP3   OH233628   2.112   3.590  16.070 -0.2120 -0.1217 -0.2608
 4046TIP3    H133629   2.023   3.581  16.035  0.1780 -2.2054 -0.8274
 4046TIP3    H233630   2.105   3.661  16.134 -2.5308 -0.8953  0.4465
 4047TIP3   OH233631   4.720   1.649   1.567  0.0876  0.0273 -0.4363
 4047TIP3    H133632   4.743   1.740   1.584 -0.4182 -0.1214  1.1524
 4047TIP3    H233633   4.624   1.649   1.566  0.0797 -0.5465 -0.0565
 4048TIP3   OH233634   4.021   5.190  17.257 -0.2919 -0.1687 -0.2824
 4048TIP3    H133635   4.104   5.170  17.301 -0.5321 -0.8377 -0.1219
 4048TIP3    H233636   3.967   5.112  17.271 -0.7401  0.0264 -0.8897
 4049TIP3   OH233637   6.711   6.698  14.904 -0.1481  0.0623 -0.2224
 4049TIP3    H133638   6.777   6.694  14.834  2.9104  0.8948  2.3481
 4049TIP3    H233639   6.743   6.637  14.970 -1.8542  0.7280  1.2811
 4050TIP3   OH233640   1.185   3.745  16.692  0.2039  0.0247 -0.2990
 4050TIP3    H133641   1.161   3.699  16.612 -0.5118  0.5802 -0.4185
 4050TIP3    H233642   1.248   3.688  16.736  0.9839 -0.0718 -1.4931
 4051TIP3   OH233643   6.433   3.016   4.387 -0.5133  0.8390  0.1954
 4051TIP3    H133644   6.402   2.937   4.432  0.7650  0.3692  0.2768
 4051TIP3    H233645   6.512   3.042   4.434  0.3726  0.8408 -1.2354
 4052TIP3   OH233646   2.242   1.621  12.717 -0.2081  0.0332  0.3666
 4052TIP3    H133647   2.285   1.670  12.647 -0.0501  0.0064  0.4437
 4052TIP3    H233648   2.313   1.571  12.758 -0.3461 -0.1586  0.3715
 4053TIP3   OH233649   0.279   4.242  16.879  0.4750  0.0854 -0.3299
 4053TIP3    H133650   0.374   4.241  16.893  0.5008 -2.0491 -0.3485
 4053TIP3    H233651   0.257   4.335  16.871  2.5023  0.6455  0.0189
 4054TIP3   OH233652   1.775   2.657   2.445 -0.0025 -0.5025 -0.1429
 4054TIP3    H133653   1.701   2.597   2.445 -0.9594  0.6420 -0.2846
 4054TIP3    H233654   1.793   2.673   2.353  1.6844 -2.2293 -0.1762
 4055TIP3   OH233655   4.942   1.426   5.354 -0.0456  0.9190  0.3779
 4055TIP3    H133656   4.880   1.443   5.283  1.0671  1.4711 -0.4957
 4055TIP3    H233657   5.008   1.494   5.344  0.7319  0.3121  1.2561
 4056TIP3   OH233658   0.862   1.738   1.970 -0.1200 -0.1381  0.3338
 4056TIP3    H133659   0.867   1.645   1.951  0.3152 -0.0562  0.0222
 4056TIP3    H233660   0.947   1.773   1.942  0.2113  0.1383  1.5815
 4057TIP3   OH233661   2.542   3.659  16.601  0.3132 -0.3241 -0.2201
 4057TIP3    H133662   2.617   3.682  16.547  0.4416  0.6416  0.3456
 4057TIP3    H233663   2.558   3.568  16.627  0.9808 -0.3170 -0.5871
 4058TIP3   OH233664   3.544   0.057   0.202 -0.5794 -0.2396  0.1742
 4058TIP3    H133665   3.637   0.080   0.206 -0.9870  1.3642  1.4003
 4058TIP3    H233666   3.534  -0.013   0.266 -0.5488  1.0007  1.5897
 4059TIP3   OH233667   3.435   3.989   1.014  0.2780 -0.3206  0.1009
 4059TIP3    H133668   3.462   3.904   0.980 -0.4098 -1.1752  1.6178
 4059TIP3    H233669   3.349   3.974   1.054  1.6838  0.1481  3.6988
 4060TIP3   OH233670   1.113   0.428  17.361  0.0850 -0.1371  0.0172
 4060TIP3    H133671   1.178   0.432  17.431  1.8548 -1.6624 -1.4506
 4060TIP3    H233672   1.150   0.481  17.290 -1.6355  1.3017  0.1100
 4061TIP3   OH233673   4.277   4.669  12.583 -0.5365  0.1567  0.2098
 4061TIP3    H133674   4.221   4.741  12.613 -0.7667  0.2996 -0.5392
 4061TIP3    H233675   4.226   4.590  12.601 -2.3352  0.3903 -3.0645
 4062TIP3   OH233676   5.001   3.825   3.598  0.2042  0.0004 -0.1576
 4062TIP3    H133677   4.973   3.769   3.670  1.1400 -1.0526 -0.6010
 4062TIP3    H233678   4.968   3.912   3.622 -0.9078 -0.6412  0.7338
 4063TIP3   OH233679   2.242   5.923   0.656  0.4173  0.1566 -0.1317
 4063TIP3    H133680   2.202   5.870   0.726  0.7727 -0.4851 -0.4083
 4063TIP3    H233681   2.334   5.932   0.682  1.3069 -2.5454 -1.8889
 4064TIP3   OH233682   2.882   0.486  14.675  0.3985 -0.4943 -0.0862
 4064TIP3    H133683   2.793   0.517  14.688  0.4429 -0.2372 -0.3736
 4064TIP3    H233684   2.872   0.398  14.639  0.2520 -0.2520 -0.6498
 4065TIP3   OH233685   6.636   3.345   5.683 -0.3171 -0.3883 -0.0527
 4065TIP3    H133686   6.709   3.286   5.701 -1.0584 -1.1857  0.3910
 4065TIP3    H233687   6.566   3.289   5.650 -0.8302  0.3252 -0.2178
 4066TIP3   OH233688   1.573   3.252   2.451 -0.3123  0.1869  0.2589
 4066TIP3    H133689   1.559   3.232   2.543 -0.7110  0.6290  0.2990
 4066TIP3    H233690   1.499   3.212   2.406  0.7565 -1.5277 -0.0930
 4067TIP3   OH233691   5.897   5.777  17.338  0.3452  1.2475  0.4895
 4067TIP3    H133692   5.842   5.699  17.334 -1.9238  2.4410  3.9222
 4067TIP3    H233693   5.839   5.848  17.310  1.1955  2.1432  0.9587
 4068TIP3   OH233694   3.755   1.787  15.010 -0.3512 -0.2328 -0.1819
 4068TIP3    H133695   3.731   1.727  14.939  0.5985 -0.6268 -0.1789
 4068TIP3    H233696   3.747   1.735  15.089 -1.9780  0.3707  0.0789
 4069TIP3   OH233697   6.363   5.218  14.239  0.1700 -0.1617 -0.3090
 4069TIP3    H133698   6.295   5.248  14.179 -1.7946 -3.4829 -0.0188
 4069TIP3    H233699   6.376   5.126  14.215  3.2578 -0.1710  0.9331
 4070TIP3   OH233700   6.611   2.573  11.051  0.6450  0.1807 -0.3696
 4070TIP3    H133701   6.584   2.598  10.963  0.9495 -1.6938 -1.0383
 4070TIP3    H233702   6.545   2.612  11.108 -0.0410  0.7138 -1.4853
 4071TIP3   OH233703   3.308   3.780   0.018 -0.2403  0.3135 -0.0035
 4071TIP3    H133704   3.352   3.743  -0.059 -3.6419 -2.2188 -0.9646
 4071TIP3    H233705   3.340   3.729   0.092  1.0820  0.9954 -0.0785
 4072TIP3   OH233706   2.664   3.894   5.883  0.8333 -0.5033  0.2684
 4072TIP3    H133707   2.631   3.903   5.972  1.0397  3.0531  0.1185
 4072TIP3    H233708   2.726   3.965   5.872 -2.5065  2.3109 -4.0262
 4073TIP3   OH233709   3.921   3.300   3.624 -0.8291 -0.3536  0.1001
 4073TIP3    H133710   3.948   3.283   3.714 -0.6736 -1.5750 -0.1582
 4073TIP3    H233711   3.873   3.221   3.598 -0.4525 -0.2308 -1.0421
 4074TIP3   OH233712   4.926   3.932   4.710  0.5902  0.3192 -0.3782
 4074TIP3    H133713   4.889   3.878   4.640  2.1150  1.3646 -2.0843
 4074TIP3    H233714   4.868   3.917   4.785  0.3288 -2.7976 -1.0607
 4075TIP3   OH233715   0.384   1.385  11.529  0.1523  0.0912 -0.3327
 4075TIP3    H133716   0.315   1.324  11.504  0.9982 -1.7341  1.4072
 4075TIP3    H233717   0.444   1.386  11.455 -0.5972 -0.0836 -0.9477
 4076TIP3   OH233718   2.411   6.238  10.974 -0.0677  0.2274  0.1830
 4076TIP3    H133719   2.345   6.173  10.947 -0.0063  0.1030  0.3274
 4076TIP3    H233720   2.398   6.311  10.915 -0.7720  0.4726  0.6215
 4077TIP3   OH233721   3.920   4.977   5.815 -0.6856  0.0816 -0.1344
 4077TIP3    H133722   3.968   5.048   5.857 -1.4238  0.4607  0.0840
 4077TIP3    H233723   3.951   4.898   5.860 -2.3022  0.5680  2.0127
 4078TIP3   OH233724   2.868   5.835   4.260  0.2172  0.1103  0.7323
 4078TIP3    H133725   2.871   5.929   4.279  1.5251  0.7624 -2.1595
 4078TIP3    H233726   2.780   5.821   4.223  0.3746  0.4072  0.2434
 4079TIP3   OH233727   4.403   0.350   5.720 -0.3646 -0.0166 -0.1332
 4079TIP3    H133728   4.471   0.299   5.765 -0.9722  0.7605  1.7728
 4079TIP3    H233729   4.413   0.327   5.628  0.6092 -2.1227  0.4310
 4080TIP3   OH233730   4.728   0.063   1.984 -0.2978  0.7492 -0.2325
 4080TIP3    H133731   4.718  -0.003   1.914 -0.6240  1.3085 -0.7235
 4080TIP3    H233732   4.672   0.136   1.956 -0.2669  1.0636  0.5171
 4081TIP3   OH233733   5.352   1.276   2.281  0.0338 -0.2733  0.3790
 4081TIP3    H133734   5.348   1.362   2.241 -1.5882 -0.2624  0.4801
 4081TIP3    H233735   5.264   1.239   2.268  0.1256 -1.1625  1.9236
 4082TIP3   OH233736   4.253   5.168   4.817 -0.7697 -0.3634 -0.5318
 4082TIP3    H133737   4.257   5.208   4.904  0.0079  0.2288 -0.8284
 4082TIP3    H233738   4.160   5.154   4.801 -0.8293 -2.3750  1.2313
 4083TIP3   OH233739   3.782   4.219  15.789  0.3159 -0.3034 -0.1967
 4083TIP3    H133740   3.867   4.188  15.823  0.5185 -1.1738 -1.4118
 4083TIP3    H233741   3.805   4.267  15.710 -0.3011 -0.2319 -0.3334
 4084TIP3   OH233742   1.920   0.375   1.860 -0.6107  0.4472 -0.3646
 4084TIP3    H133743   1.975   0.315   1.911 -0.0089  0.7405 -0.6528
 4084TIP3    H233744   1.928   0.459   1.906  0.7802  0.9781 -1.4896
 4085TIP3   OH233745   2.914   0.555  16.813 -0.2188 -0.1334  0.0702
 4085TIP3    H133746   2.831   0.507  16.815  0.6382 -1.6476  0.6968
 4085TIP3    H233747   2.909   0.606  16.732 -2.5619  1.3696  1.0382
 4086TIP3   OH233748   0.137   4.218  15.338 -0.4555  0.0793  0.0970
 4086TIP3    H133749   0.224   4.241  15.304  0.5496  0.1754  2.5682
 4086TIP3    H233750   0.086   4.298  15.330  0.2143  0.5235  0.1744
 4087TIP3   OH233751   6.670   6.116  17.259 -0.2356 -0.3544  0.4357
 4087TIP3    H133752   6.691   6.208  17.244  0.0429 -0.4033  0.5209
 4087TIP3    H233753   6.686   6.074  17.174  1.4243 -0.6461  0.8589
 4088TIP3   OH233754   5.677   0.680   0.352 -0.0490 -0.2090  0.0307
 4088TIP3    H133755   5.772   0.666   0.359  0.0205  0.6334  0.9958
 4088TIP3    H233756   5.666   0.731   0.272  0.3502 -0.0192  0.0945
 4089TIP3   OH233757   5.201   4.264  16.827 -0.2228 -0.4705  0.0180
 4089TIP3    H133758   5.173   4.181  16.865 -0.7824 -0.5414 -0.5277
 4089TIP3    H233759   5.124   4.320  16.830 -0.2498 -0.4412 -0.8790
 4090TIP3   OH233760   3.377   0.176  16.154 -0.2696 -0.2999 -0.1845
 4090TIP3    H133761   3.458   0.145  16.114  0.0291  0.8857 -0.5546
 4090TIP3    H233762   3.403   0.253  16.205 -1.2807  0.7543 -1.1704
 4091TIP3   OH233763   1.740   4.641   5.115  0.8513  0.6422  0.5805
 4091TIP3    H133764   1.745   4.579   5.187  0.1726  1.5012  1.3958
 4091TIP3    H233765   1.830   4.666   5.097  0.9718  1.0859  1.7416
 4092TIP3   OH233766   5.556   4.952   1.529  0.6102 -0.3092  0.1232
 4092TIP3    H133767   5.519   5.015   1.591  2.0150 -1.1067  1.8998
 4092TIP3    H233768   5.482   4.922   1.477 -0.2879  1.9096  0.0166
 4093TIP3   OH233769   5.034   1.686  16.760  0.8084  0.2228  0.6692
 4093TIP3    H133770   5.118   1.655  16.794  0.0687 -0.4495  1.9564
 4093TIP3    H233771   5.010   1.759  16.817 -1.0436 -1.7024  2.5342
 4094TIP3   OH233772   3.959   0.940  11.152  0.2396  0.2500  0.5112
 4094TIP3    H133773   3.894   1.010  11.142 -0.4502 -0.5794 -1.1247
 4094TIP3    H233774   3.915   0.872  11.203  0.8677  0.8832  1.9854
 4095TIP3   OH233775   2.893   0.956  16.420  0.2387  0.4875 -0.0339
 4095TIP3    H133776   2.824   1.006  16.377 -0.5326 -0.1599  0.4378
 4095TIP3    H233777   2.961   1.021  16.439 -1.5514  1.8173  2.3135
 4096TIP3   OH233778   5.695   0.630   4.767  0.1577 -0.0093  0.2385
 4096TIP3    H133779   5.752   0.706   4.777  0.1118  0.3368 -1.7446
 4096TIP3    H233780   5.607   0.666   4.767  0.0997 -0.1516  0.0015
 4097TIP3   OH233781   1.438   2.519   0.576 -0.1378  0.0773  0.6520
 4097TIP3    H133782   1.488   2.566   0.643 -0.6750 -0.6491  1.5917
 4097TIP3    H233783   1.467   2.428   0.583  0.7391  0.1964 -1.0100
 4098TIP3   OH233784   3.623   0.630  16.081 -0.2711 -0.4879 -0.2160
 4098TIP3    H133785   3.675   0.655  16.005 -1.1719 -0.1350 -0.7312
 4098TIP3    H233786   3.593   0.712  16.119  1.9154 -0.5279  1.8355
 4099TIP3   OH233787   2.944   3.824  12.239  0.0556 -0.6911 -0.1098
 4099TIP3    H133788   2.922   3.877  12.316 -1.7725  0.1826 -1.1637
 4099TIP3    H233789   2.983   3.886  12.177 -1.1316 -0.7468 -0.9510
 4100TIP3   OH233790   0.087   1.439  12.952  0.0409 -0.2452  0.8130
 4100TIP3    H133791  -0.005   1.418  12.936 -0.1295  1.4433 -0.7831
 4100TIP3    H233792   0.128   1.436  12.866  0.4113  3.4999  0.6700
 4101TIP3   OH233793   4.155   6.253   0.147  0.3536  0.0062  0.0109
 4101TIP3    H133794   4.098   6.303   0.089 -1.0412 -1.4941  0.0229
 4101TIP3    H233795   4.190   6.318   0.208 -1.7200  0.9431  0.2906
 4102TIP3   OH233796   4.425   6.325  15.438  0.0192  0.0935  0.1541
 4102TIP3    H133797   4.444   6.403  15.489 -0.3935 -0.1292  0.6494
 4102TIP3    H233798   4.349   6.348  15.385  0.5164  0.3638 -0.4643
 4103TIP3   OH233799   5.479   3.788   2.129 -0.3418  0.7060  0.5152
 4103TIP3    H133800   5.436   3.788   2.214 -0.6818  1.9346  0.3674
 4103TIP3    H233801   5.407   3.795   2.065 -0.1136 -0.4979  0.0970
 4104TIP3   OH233802   4.511   3.669   1.211  0.1944 -0.1559  0.5861
 4104TIP3    H133803   4.458   3.738   1.172 -0.6805 -0.3961  1.3392
 4104TIP3    H233804   4.584   3.715   1.252  0.2453  0.2226  0.0842
 4105TIP3   OH233805   2.596   0.317   4.980  0.1671 -0.4021 -0.3702
 4105TIP3    H133806   2.509   0.357   4.986  0.4341  0.4371 -1.6167
 4105TIP3    H233807   2.615   0.315   4.886  0.1549 -3.5853 -0.4137
 4106TIP3   OH233808   0.218   3.161  11.440  0.1692 -0.2186 -0.4835
 4106TIP3    H133809   0.264   3.233  11.397  0.5375  0.9910  1.7878
 4106TIP3    H233810   0.271   3.140  11.516  0.1183 -3.0410 -1.1116
 4107TIP3   OH233811   0.153   4.595   4.840  0.1958  0.0968  0.5936
 4107TIP3    H133812   0.078   4.617   4.896 -2.2578 -2.5822 -1.3693
 4107TIP3    H233813   0.179   4.507   4.867  0.0879 -0.5414 -1.2654
 4108TIP3   OH233814   2.170   0.098   6.735  0.1884  0.0975  0.2343
 4108TIP3    H133815   2.205   0.186   6.751  1.5956 -0.2535 -0.6843
 4108TIP3    H233816   2.087   0.113   6.690 -0.1462  0.9548  1.0871
 4109TIP3   OH233817   4.392   1.209  14.393  0.0608  0.3412  0.4726
 4109TIP3    H133818   4.356   1.297  14.378 -1.5314 -0.5510 -1.3621
 4109TIP3    H233819   4.319   1.159  14.428  0.2454 -0.8175 -0.7079
 4110TIP3   OH233820   6.450   2.789   5.273 -0.2478  0.1034  0.5327
 4110TIP3    H133821   6.498   2.796   5.356  1.2870 -0.7665 -0.2419
 4110TIP3    H233822   6.501   2.843   5.212 -0.5810 -0.3794 -0.1728
 4111TIP3   OH233823   0.918   0.750  15.385  0.5232 -0.0039  0.5291
 4111TIP3    H133824   0.933   0.726  15.476  0.1328  1.5940  1.0521
 4111TIP3    H233825   0.825   0.771  15.380  0.0589 -2.1531 -0.7845
 4112TIP3   OH233826   3.493   6.401   3.379  0.4804  0.4087 -0.4230
 4112TIP3    H133827   3.415   6.389   3.325  0.9023  2.2761 -1.5437
 4112TIP3    H233828   3.556   6.338   3.344  0.0649  0.1532 -0.7160
 4113TIP3   OH233829   2.319   4.232   2.303  0.5358 -0.1655  0.3467
 4113TIP3    H133830   2.293   4.191   2.220 -0.0052  2.6189 -1.0069
 4113TIP3    H233831   2.274   4.181   2.370  1.6325 -3.0138 -0.9506
 4114TIP3   OH233832   5.115   1.729  13.591 -0.1554  0.2521  0.4297
 4114TIP3    H133833   5.110   1.823  13.571  0.1057  0.2633  0.4026
 4114TIP3    H233834   5.174   1.694  13.523 -1.2571 -0.1627 -0.3381
 4115TIP3   OH233835   2.144   3.231  13.171 -0.1509 -0.3705  0.4079
 4115TIP3    H133836   2.124   3.195  13.085  1.3933 -2.3237  0.7768
 4115TIP3    H233837   2.142   3.326  13.159  0.1275 -0.5966 -1.8073
 4116TIP3   OH233838   3.763   3.954  12.701 -1.1748 -0.5819 -0.1443
 4116TIP3    H133839   3.690   3.967  12.641 -0.2170 -0.3954 -1.3044
 4116TIP3    H233840   3.819   4.029  12.687  0.6345 -2.0698 -1.3654
 4117TIP3   OH233841   1.585   2.520  15.257  0.4161 -0.4662  0.0466
 4117TIP3    H133842   1.551   2.531  15.168  0.6911  0.1788  0.0142
 4117TIP3    H233843   1.663   2.575  15.260 -0.4425  0.7586  1.1469
 4118TIP3   OH233844   0.094   2.929   0.840  0.3896 -0.0145 -0.5838
 4118TIP3    H133845   0.029   2.896   0.777 -2.7420 -0.1552  2.3961
 4118TIP3    H233846   0.047   2.932   0.923  3.8102  1.5788  1.5215
 4119TIP3   OH233847   6.002   2.155   0.157  0.7488  0.1354  0.7930
 4119TIP3    H133848   5.944   2.126   0.228  0.3874  1.2625  0.9826
 4119TIP3    H233849   6.026   2.245   0.181  0.1013  0.7812 -0.8304
 4120TIP3   OH233850   4.112   2.203  11.404 -0.1578  0.0574  0.2404
 4120TIP3    H133851   4.165   2.126  11.425 -0.6044 -0.1791  0.5205
 4120TIP3    H233852   4.088   2.193  11.312  0.5996  0.3638 -0.0031
 4121TIP3   OH233853   5.314   2.751   1.156 -0.2660  0.1414 -0.3024
 4121TIP3    H133854   5.349   2.792   1.077  1.3971 -0.5118  0.0460
 4121TIP3    H233855   5.282   2.666   1.128  0.2569 -0.0604 -0.2922
 4122TIP3   OH233856   5.610   2.098   1.649 -0.1087  0.2965  0.1265
 4122TIP3    H133857   5.607   2.186   1.687  1.1038 -0.9300  3.4069
 4122TIP3    H233858   5.703   2.080   1.638 -0.3504 -0.5717 -0.6246
 4123TIP3   OH233859   1.519   6.610   0.374 -0.8182  0.4162 -0.1383
 4123TIP3    H133860   1.537   6.538   0.313 -0.5700  1.2227 -1.0404
 4123TIP3    H233861   1.448   6.660   0.331 -0.8430  0.8284  0.3732
 4124TIP3   OH233862   2.796   2.805  11.191  0.3818  0.9829 -0.2019
 4124TIP3    H133863   2.783   2.750  11.268 -0.1717  0.4203 -0.6749
 4124TIP3    H233864   2.709   2.808  11.150  0.5381  1.7496 -0.4939
 4125TIP3   OH233865   4.326   0.718   4.880  0.3561 -0.4583  0.5086
 4125TIP3    H133866   4.247   0.728   4.827  1.3525 -0.5984 -1.0635
 4125TIP3    H233867   4.370   0.802   4.873  0.4735 -0.4659  1.1563
 4126TIP3   OH233868   0.738   1.422  17.318 -0.2456 -0.0806 -0.6419
 4126TIP3    H133869   0.658   1.460  17.280 -0.4219 -0.4594 -0.6659
 4126TIP3    H233870   0.717   1.329  17.327  0.1215 -0.1453 -0.4492
 4127TIP3   OH233871   3.242   2.346  12.287 -0.5416 -0.7182  0.1401
 4127TIP3    H133872   3.207   2.342  12.198 -1.4178 -0.5797  0.4727
 4127TIP3    H233873   3.225   2.436  12.316 -2.2721 -1.3494  1.2313
 4128TIP3   OH233874   4.158   5.760  16.647  0.2745 -0.1029  0.3330
 4128TIP3    H133875   4.212   5.703  16.592 -2.8971 -1.7880 -1.3569
 4128TIP3    H233876   4.113   5.818  16.586 -3.3987 -2.0394  0.9036
 4129TIP3   OH233877   0.722   0.482   0.479  0.0227  0.7088  0.3728
 4129TIP3    H133878   0.808   0.456   0.513  0.2551  0.1195 -0.6376
 4129TIP3    H233879   0.682   0.400   0.449 -0.6406  1.0624  0.2800
 4130TIP3   OH233880   0.033   0.544   1.206 -0.4988  0.0184 -0.2023
 4130TIP3    H133881   0.086   0.560   1.284 -0.1463  0.9903 -0.6239
 4130TIP3    H233882   0.057   0.615   1.146 -2.9946  1.0719 -0.0469
 4131TIP3   OH233883   6.040   0.668   3.782 -0.3207  0.4949  0.1534
 4131TIP3    H133884   6.087   0.591   3.814 -0.9088 -0.0142 -0.1941
 4131TIP3    H233885   6.096   0.702   3.713  0.9791  1.6256  1.6871
 4132TIP3   OH233886   0.730   5.296   3.646  0.6477  0.3777 -0.1270
 4132TIP3    H133887   0.695   5.333   3.727  0.8129  0.6855 -0.1939
 4132TIP3    H233888   0.653   5.265   3.599  0.3631  1.8195 -0.6634
 4133TIP3   OH233889   2.490   4.054   1.366 -0.0459 -0.0828 -0.1847
 4133TIP3    H133890   2.533   3.975   1.333  3.7885  1.8025 -0.2037
 4133TIP3    H233891   2.436   4.023   1.439  1.8970 -2.6375  0.3097
 4134TIP3   OH233892   4.357   4.252   3.224 -0.2562 -0.2076 -0.3350
 4134TIP3    H133893   4.359   4.251   3.128 -0.0936  1.6369 -0.3712
 4134TIP3    H233894   4.274   4.209   3.247 -0.0677 -1.1113 -1.2638
 4135TIP3   OH233895   5.833   2.491  13.146 -0.2706  0.0988 -0.0492
 4135TIP3    H133896   5.920   2.496  13.106 -0.0524 -1.5819  0.1374
 4135TIP3    H233897   5.810   2.398  13.142 -1.6422  0.3713  0.7957
 4136TIP3   OH233898   5.710   3.967   5.593 -0.3488 -0.2152  0.0179
 4136TIP3    H133899   5.652   3.973   5.669  1.0070  1.1587  1.0083
 4136TIP3    H233900   5.786   3.918   5.624 -0.4739 -1.0586 -0.9469
 4137TIP3   OH233901   1.989   0.987  11.876 -0.1857  0.3119  0.1787
 4137TIP3    H133902   2.058   0.966  11.813 -0.9983  0.5406 -0.8210
 4137TIP3    H233903   1.970   0.903  11.919  0.2619  0.1177  0.0140
 4138TIP3   OH233904   5.698   1.641  16.469  0.5937  0.2197  0.6754
 4138TIP3    H133905   5.751   1.569  16.435 -1.4892 -1.0763 -0.0013
 4138TIP3    H233906   5.690   1.702  16.396  2.5804  1.3539  1.3290
 4139TIP3   OH233907   3.191   4.404   0.584 -0.5886  0.3895  0.2560
 4139TIP3    H133908   3.224   4.473   0.641 -2.4560 -0.0895  2.0217
 4139TIP3    H233909   3.114   4.442   0.541 -0.5389  0.0019 -0.1827
 4140TIP3   OH233910   1.370   5.069   0.383  0.2520  0.0888  0.1069
 4140TIP3    H133911   1.313   5.139   0.414 -0.2421 -0.0249 -0.5263
 4140TIP3    H233912   1.320   4.989   0.397 -0.6517  0.1495 -2.3859
 4141TIP3   OH233913   5.062   2.038  15.579 -0.3097 -0.1322  0.3521
 4141TIP3    H133914   4.989   1.981  15.604 -0.5097 -0.6337 -1.2697
 4141TIP3    H233915   5.076   2.095  15.655 -0.2267 -2.2029  1.9560
 4142TIP3   OH233916   5.013   4.041  16.545  0.1387 -0.2097 -0.1281
 4142TIP3    H133917   4.945   3.978  16.568 -0.3060  0.6022  0.8537
 4142TIP3    H233918   5.044   4.013  16.459 -0.8789 -1.0659 -0.2304
 4143TIP3   OH233919   1.650   1.220   1.431 -0.0334 -0.4151 -0.1199
 4143TIP3    H133920   1.689   1.265   1.506  0.3878  0.2549 -0.7379
 4143TIP3    H233921   1.660   1.127   1.451  0.8205 -0.2448  0.2737
 4144TIP3   OH233922   5.104   6.117   5.605  0.2888  0.6264 -0.1712
 4144TIP3    H133923   5.178   6.176   5.593 -1.1140  2.2806 -1.2021
 4144TIP3    H233924   5.123   6.042   5.547  1.6715  0.4525  0.4769
 4145TIP3   OH233925   3.750   3.450  13.530  0.5175 -0.3281  0.0147
 4145TIP3    H133926   3.733   3.427  13.439 -0.5453 -2.9865  0.7915
 4145TIP3    H233927   3.731   3.370  13.579  1.0167  1.0230  2.5950
 4146TIP3   OH233928   2.349   2.231  15.354  0.0425  0.4270  0.1099
 4146TIP3    H133929   2.263   2.217  15.394  0.0562  1.8652  0.6810
 4146TIP3    H233930   2.341   2.194  15.266 -0.8502 -0.3087  0.4845
 4147TIP3   OH233931   4.933   5.886  11.911  0.1828  0.8648 -0.0325
 4147TIP3    H133932   4.956   5.971  11.873  2.3740  0.1114 -0.5654
 4147TIP3    H233933   5.014   5.856  11.952 -1.5018  0.6797  3.5840
 4148TIP3   OH233934   1.340   5.089   2.183  0.1601  0.0541 -0.0249
 4148TIP3    H133935   1.380   5.169   2.148 -2.5480  1.6626  0.3077
 4148TIP3    H233936   1.306   5.044   2.106 -0.4679  0.4892 -0.0051
 4149TIP3   OH233937   0.726   2.039  14.332 -0.1175  0.1739 -0.1069
 4149TIP3    H133938   0.648   1.986  14.351 -0.9808  1.3773 -0.1252
 4149TIP3    H233939   0.697   2.100  14.264  0.9331  0.4492 -0.3212
 4150TIP3   OH233940   3.473   0.672   3.839 -0.2876  0.3885 -0.0731
 4150TIP3    H133941   3.393   0.680   3.891 -0.7456  1.4209 -0.8930
 4150TIP3    H233942   3.449   0.616   3.766 -0.1981  0.5159 -0.2001
 4151TIP3   OH233943   5.288   0.487  12.060 -0.4531 -0.2479 -0.4200
 4151TIP3    H133944   5.212   0.432  12.078  0.0001 -0.4416  1.0735
 4151TIP3    H233945   5.350   0.465  12.129  0.2353  1.2500 -0.5107
 4152TIP3   OH233946   1.650   1.765   3.679 -0.3064 -0.0596 -0.4985
 4152TIP3    H133947   1.687   1.763   3.591  0.2516 -0.6561 -0.2669
 4152TIP3    H233948   1.558   1.786   3.667  0.0089  1.0283 -1.1327
 4153TIP3   OH233949   1.324   0.753   4.322 -0.0141 -0.3100  0.3206
 4153TIP3    H133950   1.236   0.777   4.353  0.1325  0.1759  0.3617
 4153TIP3    H233951   1.307   0.704   4.241 -0.3052  0.2661  0.0225
 4154TIP3   OH233952   0.496   0.447  14.408 -1.1178  0.5242  0.4270
 4154TIP3    H133953   0.560   0.495  14.460 -1.4247  1.5150 -0.0779
 4154TIP3    H233954   0.539   0.434  14.323 -0.8743 -0.4843  0.6989
 4155TIP3   OH233955   6.520   0.779  16.457 -0.0480 -0.0377  0.0704
 4155TIP3    H133956   6.540   0.861  16.502 -2.1457  0.1269  0.8010
 4155TIP3    H233957   6.427   0.764  16.474 -0.6116 -0.7515 -2.9947
 4156TIP3   OH233958   2.894   5.679   1.933  0.3148 -0.4575  0.0584
 4156TIP3    H133959   2.814   5.724   1.961  0.2616 -0.3729 -0.2300
 4156TIP3    H233960   2.875   5.650   1.844  0.2553 -1.2670  0.3245
 4157TIP3   OH233961   6.352   2.023   5.115 -0.7292  0.2657  0.0485
 4157TIP3    H133962   6.437   2.052   5.083 -0.5577 -0.3206 -0.0402
 4157TIP3    H233963   6.289   2.075   5.065 -0.4316  0.5173 -0.0704
 4158TIP3   OH233964   0.266   6.393   3.665 -0.2032 -0.3339 -0.3975
 4158TIP3    H133965   0.262   6.354   3.578  0.1348 -1.3507  0.0192
 4158TIP3    H233966   0.258   6.318   3.725 -0.4428  0.3464  0.4448
 4159TIP3   OH233967   1.927   0.441  11.967 -0.3665 -0.1345 -0.2220
 4159TIP3    H133968   1.996   0.415  12.028 -0.3752 -0.3242 -0.2915
 4159TIP3    H233969   1.846   0.420  12.013 -0.3809  0.2256 -0.0807
 4160TIP3   OH233970   3.960   0.144  14.404  0.7934  0.3403  0.1591
 4160TIP3    H133971   4.024   0.213  14.425 -0.3445  1.2404  0.8300
 4160TIP3    H233972   4.002   0.093  14.335  2.1859  0.9674  0.4887
 4161TIP3   OH233973   4.566   2.147   3.252  0.1322 -0.5365 -0.1350
 4161TIP3    H133974   4.548   2.194   3.170 -1.4240  0.1457  0.5429
 4161TIP3    H233975   4.655   2.114   3.242  0.1009 -0.1751 -1.9574
 4162TIP3   OH233976   1.739   4.005  16.097 -0.1112 -0.0668  0.7583
 4162TIP3    H133977   1.831   4.014  16.074 -0.5284  1.6371 -0.4607
 4162TIP3    H233978   1.692   4.049  16.026 -1.9030 -1.2246  1.1360
 4163TIP3   OH233979   6.376   3.221  12.730  0.7036  0.2052  0.2116
 4163TIP3    H133980   6.320   3.216  12.653  0.2807  3.1421  0.2037
 4163TIP3    H233981   6.326   3.180  12.800  0.5278 -1.2850 -0.7581
 4164TIP3   OH233982   5.062   0.822  14.065 -0.6547 -0.1328 -0.3127
 4164TIP3    H133983   5.005   0.861  13.999 -3.4518 -0.6361  1.6122
 4164TIP3    H233984   5.069   0.889  14.133  2.7947  0.6777 -1.2992
 4165TIP3   OH233985   3.469   1.643  10.638  0.1076  0.3041 -0.5783
 4165TIP3    H133986   3.409   1.595  10.694  1.5949  1.0963  1.8517
 4165TIP3    H233987   3.414   1.706  10.591 -1.2695 -0.7739 -0.4573
 4166TIP3   OH233988   3.166   4.038  11.779 -0.0042  0.1502 -0.3849
 4166TIP3    H133989   3.164   4.131  11.756  0.8649  0.4288  0.5967
 4166TIP3    H233990   3.117   3.995  11.708  0.3778  1.2449 -1.3509
 4167TIP3   OH233991   3.770   2.768   4.304 -0.0102 -0.2023 -0.0930
 4167TIP3    H133992   3.773   2.726   4.217 -0.9152  0.3059 -0.3807
 4167TIP3    H233993   3.839   2.724   4.354 -0.0792 -1.1345 -0.7876
 4168TIP3   OH233994   0.576   2.425   2.956 -0.4230  0.1232  0.5554
 4168TIP3    H133995   0.553   2.390   3.042 -0.4005 -0.6914  0.2415
 4168TIP3    H233996   0.543   2.359   2.894  0.6973  0.0679 -0.0077
 4169TIP3   OH233997   0.287   6.226  15.893  0.3910 -0.6399 -0.2945
 4169TIP3    H133998   0.284   6.151  15.953 -1.2987 -0.2187  0.2063
 4169TIP3    H233999   0.202   6.226  15.850 -0.1078  1.5935  0.5228
 4170TIP3   OH234000   0.188   0.793  17.302 -0.1674  0.0404  0.3369
 4170TIP3    H134001   0.194   0.847  17.223  0.8510 -1.2634 -0.5199
 4170TIP3    H234002   0.100   0.810  17.336 -0.7172  0.4575 -1.2025
 4171TIP3   OH234003   5.736   1.271  14.098  0.4128 -0.5469 -0.6785
 4171TIP3    H134004   5.750   1.267  14.193  0.1313 -1.8227 -0.6711
 4171TIP3    H234005   5.777   1.353  14.071  0.0922  0.0702  0.6141
 4172TIP3   OH234006   4.422   2.811   4.499 -0.4087 -0.5698  0.2256
 4172TIP3    H134007   4.414   2.741   4.563 -0.7209 -0.9969 -0.2661
 4172TIP3    H234008   4.481   2.776   4.432 -0.8702 -0.5200 -0.2150
 4173TIP3   OH234009   5.528   1.052  10.655 -0.2485 -0.4606 -0.4300
 4173TIP3    H134010   5.466   1.011  10.715 -1.4285 -1.7307 -2.3758
 4173TIP3    H234011   5.578   0.978  10.618  1.6773  0.4333  0.2435
 4174TIP3   OH234012   3.459   6.114   2.293  0.4324  0.1022  0.3076
 4174TIP3    H134013   3.466   6.205   2.262 -0.9646 -0.0408 -0.4998
 4174TIP3    H234014   3.416   6.068   2.221  0.1074 -0.9617  1.1631
 4175TIP3   OH234015   3.356   2.772   1.036  0.4415  0.3803  0.0154
 4175TIP3    H134016   3.450   2.760   1.044  0.6942  1.6115 -0.7681
 4175TIP3    H234017   3.345   2.866   1.021 -0.7284 -0.0013 -1.9277
 4176TIP3   OH234018   2.598   6.275   2.465 -0.3698  0.7179  0.0733
 4176TIP3    H134019   2.508   6.248   2.442 -0.6755  1.7652 -0.0186
 4176TIP3    H234020   2.603   6.366   2.437  0.6317  0.7625  0.3721
 4177TIP3   OH234021   0.748   6.581   0.655 -0.0206  0.3175  0.2921
 4177TIP3    H134022   0.671   6.531   0.680  1.0115  0.0178  3.3079
 4177TIP3    H234023   0.739   6.665   0.701  1.1175  0.5468  0.1427
 4178TIP3   OH234024   3.568   4.592   4.783  0.0924  0.3364 -0.7618
 4178TIP3    H134025   3.540   4.682   4.770  0.9170  0.4966 -1.5131
 4178TIP3    H234026   3.589   4.587   4.877 -1.1988  0.5442 -0.4424
 4179TIP3   OH234027   0.272   0.164  14.678  0.0247  0.3461  0.0732
 4179TIP3    H134028   0.272   0.201  14.766 -2.0089  0.8754 -0.0763
 4179TIP3    H234029   0.363   0.143  14.660  0.7276  1.7988  1.6423
 4180TIP3   OH234030   5.459   1.739   6.755 -0.0709 -0.5451  0.3887
 4180TIP3    H134031   5.430   1.672   6.692 -0.0403 -0.7366  0.5753
 4180TIP3    H234032   5.550   1.717   6.773 -0.0135 -0.3561  0.3280
 4181TIP3   OH234033   4.996   6.677  14.284 -0.0701 -0.6331 -0.1703
 4181TIP3    H134034   4.950   6.681  14.368  1.3201 -0.1827  0.5945
 4181TIP3    H234035   5.082   6.642  14.305  0.9517  1.1994 -1.0893
 4182TIP3   OH234036   4.889   1.015   5.602  0.0292 -0.3911  0.1343
 4182TIP3    H134037   4.957   0.986   5.663 -0.3285  0.2057  0.8221
 4182TIP3    H234038   4.833   0.938   5.591 -1.0719  0.0571  2.1572
 4183TIP3   OH234039   5.186   2.150  13.896  0.4475 -0.2904  0.6063
 4183TIP3    H134040   5.236   2.140  13.976  0.6005  1.8389  0.8249
 4183TIP3    H234041   5.249   2.132  13.826  0.5976 -1.0641  0.9338
 4184TIP3   OH234042   5.808   4.690  15.867  0.1870 -0.0925  0.1956
 4184TIP3    H134043   5.737   4.654  15.921 -0.6788 -1.4198 -1.7068
 4184TIP3    H234044   5.799   4.785  15.875 -1.3811 -0.2436  0.5386
 4185TIP3   OH234045   4.836   1.261  12.453  0.1206 -0.3856  0.7432
 4185TIP3    H134046   4.822   1.275  12.547 -0.8188  1.2054  0.3981
 4185TIP3    H234047   4.847   1.167  12.444 -0.6086 -0.6490  2.3432
 4186TIP3   OH234048   4.045   3.495  13.403 -0.1466 -0.4990  0.1896
 4186TIP3    H134049   4.034   3.419  13.346  2.1151 -0.8669  0.1408
 4186TIP3    H234050   3.998   3.472  13.483 -2.1743 -0.5627 -0.9765
 4187TIP3   OH234051   5.240   0.674  15.733  0.9322  0.3885 -0.0596
 4187TIP3    H134052   5.211   0.583  15.731  0.4744  0.5256  0.0895
 4187TIP3    H234053   5.324   0.674  15.688  0.1560  0.1752 -1.5564
 4188TIP3   OH234054   3.394   1.249   2.768 -0.1933 -0.3362  0.1211
 4188TIP3    H134055   3.322   1.311   2.754 -0.6495 -0.6115  1.1295
 4188TIP3    H234056   3.416   1.260   2.860  0.3596 -1.0037  0.0710
 4189TIP3   OH234057   1.106   0.545  11.793 -0.2436  0.3063 -0.3386
 4189TIP3    H134058   1.103   0.623  11.737  1.2207 -1.0793 -2.5008
 4189TIP3    H234059   1.198   0.521  11.794 -0.5452 -0.8622  1.1020
 4190TIP3   OH234060   3.732   4.559  14.371 -0.4302 -0.9487  0.4519
 4190TIP3    H134061   3.653   4.565  14.425 -1.5529 -1.9435 -0.9717
 4190TIP3    H234062   3.704   4.591  14.285  0.5299 -1.9712 -0.2652
 4191TIP3   OH234063   6.719   6.506  11.919 -0.1706  0.6963  0.3113
 4191TIP3    H134064   6.629   6.498  11.889  0.5666  0.3300 -2.0833
 4191TIP3    H234065   6.761   6.423  11.893  0.6007  0.3389  2.4874
 4192TIP3   OH234066   6.725   0.309   4.646 -0.6259  0.2837  0.2688
 4192TIP3    H134067   6.748   0.221   4.677 -0.5370  0.0301 -0.4830
 4192TIP3    H234068   6.751   0.309   4.554  0.3340  1.4463  0.5128
 4193TIP3   OH234069   4.909   3.408   1.221 -0.1315  0.4463 -0.7564
 4193TIP3    H134070   4.866   3.463   1.286  2.1430 -0.4310  1.6802
 4193TIP3    H234071   4.966   3.467   1.173  0.3799  0.6725  0.0993
 4194TIP3   OH234072   0.517   0.925   3.726 -0.2199 -0.2237 -0.5336
 4194TIP3    H134073   0.440   0.963   3.767  1.7635  3.4020  0.2701
 4194TIP3    H234074   0.563   0.880   3.797 -0.1861  0.1160 -0.3385
 4195TIP3   OH234075   3.204   1.808   0.139  0.4942 -0.8074  0.2126
 4195TIP3    H134076   3.226   1.735   0.198 -0.6119 -0.8829  0.5479
 4195TIP3    H234077   3.237   1.885   0.185  0.8618 -0.9965  0.2771
 4196TIP3   OH234078   2.917   5.281   1.962  0.5489  0.2273  0.4778
 4196TIP3    H134079   2.932   5.363   1.914 -2.3880  0.6897  0.1607
 4196TIP3    H234080   2.936   5.212   1.899 -1.4655  0.8024 -0.8497
 4197TIP3   OH234081   4.847   0.199  11.418 -0.4913  0.2001  0.4140
 4197TIP3    H134082   4.769   0.151  11.390 -1.0118  0.6276  1.0947
 4197TIP3    H234083   4.880   0.149  11.493 -0.6519  0.5262  0.7067
 4198TIP3   OH234084   6.260   1.903  17.345  0.4329 -0.0818  0.4380
 4198TIP3    H134085   6.244   1.920  17.438 -2.3449  1.4485 -0.2163
 4198TIP3    H234086   6.333   1.960  17.322 -0.3331  1.2455  1.2083
 4199TIP3   OH234087   2.269   3.196   2.152 -0.0614  0.2447  0.5092
 4199TIP3    H134088   2.206   3.166   2.218 -1.4627  0.0355 -0.8513
 4199TIP3    H234089   2.236   3.281   2.125 -0.8191 -0.6359 -1.4915
 4200TIP3   OH234090   2.628   5.313  14.372 -0.3106 -0.1290  0.3490
 4200TIP3    H134091   2.633   5.344  14.462 -1.9986  1.4018 -0.0364
 4200TIP3    H234092   2.648   5.389  14.319  2.4480 -1.4060 -0.6560
 4201TIP3   OH234093   3.931   1.893   5.221  0.2882  0.3370  0.4329
 4201TIP3    H134094   3.994   1.856   5.283 -0.4717 -0.8210  0.5413
 4201TIP3    H234095   3.861   1.828   5.217 -1.2511  1.9109  0.8456
 4202TIP3   OH234096   3.401   0.320  15.753 -0.2554 -0.4081 -0.7165
 4202TIP3    H134097   3.483   0.303  15.707  0.6044  1.8571 -0.1436
 4202TIP3    H234098   3.399   0.254  15.823  1.9891  0.5187  0.3159
 4203TIP3   OH234099   2.950   0.615   3.724 -0.3940  0.6284 -0.0233
 4203TIP3    H134100   2.918   0.646   3.809  0.4104 -0.2406  0.6240
 4203TIP3    H234101   2.880   0.635   3.663  0.4039  4.6300  0.0960
 4204TIP3   OH234102   5.189   5.750   0.872 -0.1494  0.4638 -0.4526
 4204TIP3    H134103   5.174   5.802   0.793  0.7730  1.6471  0.1189
 4204TIP3    H234104   5.273   5.706   0.856 -0.4501 -0.0865 -0.5329
 4205TIP3   OH234105   2.390   0.711  13.131 -0.8030  0.1373 -0.0018
 4205TIP3    H134106   2.351   0.675  13.052  1.9430 -0.8903 -0.9818
 4205TIP3    H234107   2.392   0.638  13.193 -2.3221  0.7602  0.8417
 4206TIP3   OH234108   3.492   2.763   2.346 -0.1223  0.3260  0.4953
 4206TIP3    H134109   3.448   2.821   2.408 -0.8931 -0.0262  0.2836
 4206TIP3    H234110   3.424   2.738   2.284  0.4553  0.0333 -0.0325
 4207TIP3   OH234111   3.751   2.089  14.350 -0.4074 -0.3977  0.1693
 4207TIP3    H134112   3.718   2.037  14.277 -0.1505 -0.5286  0.1429
 4207TIP3    H234113   3.676   2.140  14.380  0.0938  1.8780 -2.0710
 4208TIP3   OH234114   5.618   4.470  15.203 -0.8018 -0.3207  1.0544
 4208TIP3    H134115   5.569   4.397  15.165 -3.8867  1.4233  1.3203
 4208TIP3    H234116   5.710   4.448  15.189 -1.5076 -1.0346 -5.2224
 4209TIP3   OH234117   0.043   2.639   2.985 -0.1462  0.2171 -1.0072
 4209TIP3    H134118   0.104   2.605   2.919 -0.4044 -1.2293 -0.5141
 4209TIP3    H234119   0.099   2.684   3.048  0.6541 -2.3953  0.2672
 4210TIP3   OH234120   6.585   3.281   1.247  0.1415  0.6708 -0.4741
 4210TIP3    H134121   6.499   3.242   1.262  0.5735  0.4678  1.8255
 4210TIP3    H234122   6.643   3.206   1.231  0.4002  0.5613  0.8773
 4211TIP3   OH234123   3.401   1.217  17.000  0.1269  0.4421  0.9820
 4211TIP3    H134124   3.489   1.254  16.998  0.8059 -1.1260  0.8036
 4211TIP3    H234125   3.346   1.287  16.963  1.7955  0.2271 -2.3408
 4212TIP3   OH234126   6.181   1.149   2.633  0.3502 -0.2839 -0.1528
 4212TIP3    H134127   6.266   1.145   2.678  0.3432 -0.9405 -0.1811
 4212TIP3    H234128   6.129   1.209   2.685  0.5368 -0.5867  0.3901
 4213TIP3   OH234129   2.124   5.909  13.499  0.3633 -0.0037 -0.4211
 4213TIP3    H134130   2.048   5.892  13.444 -0.3948  1.3836  0.1702
 4213TIP3    H234131   2.137   6.003  13.495  0.6803  0.0556  1.2686
 4214TIP3   OH234132   3.311   0.543   2.910  0.0952  0.3299 -0.0511
 4214TIP3    H134133   3.300   0.506   2.998  1.0207 -0.0587 -0.0902
 4214TIP3    H234134   3.238   0.507   2.860 -0.0306 -0.0173  0.3726
 4215TIP3   OH234135   1.234   3.263  15.249  0.3829 -0.3250 -0.1389
 4215TIP3    H134136   1.140   3.253  15.231  0.4246 -1.3421  0.1484
 4215TIP3    H234137   1.241   3.253  15.344  0.8510 -0.9298 -0.2295
 4216TIP3   OH234138   5.000   0.885  16.703 -0.5381  0.4261 -0.6095
 4216TIP3    H134139   4.926   0.913  16.757 -0.0010 -1.3714  1.1901
 4216TIP3    H234140   4.964   0.880  16.614 -2.3191  0.4784  0.0670
 4217TIP3   OH234141   6.573   6.515  12.222  0.0285  0.1429 -0.0771
 4217TIP3    H134142   6.619   6.431  12.233 -1.8320 -0.7877  0.9667
 4217TIP3    H234143   6.602   6.568  12.297 -0.1387 -0.2040  0.2316
 4218TIP3   OH234144   6.032   1.179  16.659  0.1710  0.4500 -0.1990
 4218TIP3    H134145   5.988   1.164  16.743  0.2347  1.0242 -0.0609
 4218TIP3    H234146   5.991   1.116  16.600  0.3346 -0.1754  0.3276
 4219TIP3   OH234147   5.276   6.335  12.916 -0.3905  0.5902 -0.2215
 4219TIP3    H134148   5.335   6.411  12.908  0.2718  0.1933  0.6820
 4219TIP3    H234149   5.219   6.357  12.991  1.6964 -0.9605  1.9827
 4220TIP3   OH234150   5.171   1.586   1.556 -0.0107  0.2456 -0.0668
 4220TIP3    H134151   5.136   1.517   1.499  0.7657 -1.5146  1.4818
 4220TIP3    H234152   5.106   1.656   1.553 -0.6985 -0.4234 -1.9025
 4221TIP3   OH234153   0.915   4.670   2.862  0.2105  0.2061  0.0029
 4221TIP3    H134154   0.957   4.649   2.945  0.5772  1.4381  0.1534
 4221TIP3    H234155   0.987   4.692   2.803 -0.1038  0.2509 -0.3701
 4222TIP3   OH234156   3.887   5.374  11.700 -0.4937 -0.4112  1.1275
 4222TIP3    H134157   3.890   5.284  11.669  0.2622 -0.9322  2.6638
 4222TIP3    H234158   3.832   5.371  11.778  1.0568  0.0843  2.2899
 4223TIP3   OH234159   4.883   0.081  17.006 -0.2362 -0.3084 -0.2161
 4223TIP3    H134160   4.888   0.012  17.072 -0.4950  1.0692  1.3233
 4223TIP3    H234161   4.972   0.086  16.971  0.2839 -0.1193  1.0764
 4224TIP3   OH234162   1.821   4.302   0.428  0.5338  0.1186  0.1865
 4224TIP3    H134163   1.824   4.327   0.520  0.0514  1.1560 -0.0590
 4224TIP3    H234164   1.807   4.207   0.429 -0.0387  0.1999  1.1818
 4225TIP3   OH234165   5.249   3.237   0.319  0.4751  0.5129 -0.3207
 4225TIP3    H134166   5.196   3.243   0.239  0.4899 -0.9641 -0.4709
 4225TIP3    H234167   5.191   3.267   0.389  0.0554  0.6635 -0.7275
 4226TIP3   OH234168   1.158   3.101  11.900  0.2674 -0.0594 -0.0165
 4226TIP3    H134169   1.086   3.066  11.847  0.9684 -1.0373 -0.3576
 4226TIP3    H234170   1.115   3.156  11.966 -0.7030  0.2813 -0.9034
 4227TIP3   OH234171   6.028   3.201   7.077  0.0358 -0.0489  0.3091
 4227TIP3    H134172   6.003   3.223   7.166  1.6284 -0.9705  1.0213
 4227TIP3    H234173   5.958   3.145   7.045 -1.0647  1.1233  0.5811
 4228TIP3   OH234174   2.935   5.760   1.384 -0.0865  1.0552 -0.0043
 4228TIP3    H134175   2.927   5.843   1.431  0.7073  1.3720 -0.4017
 4228TIP3    H234176   3.018   5.768   1.337  0.1911 -0.1274  0.2619
 4229TIP3   OH234177   2.003   5.178  15.555 -0.1469 -0.2946  0.0954
 4229TIP3    H134178   1.927   5.193  15.612  0.6473  0.2601  1.0498
 4229TIP3    H234179   1.968   5.131  15.480 -0.9559 -2.8606  1.9306
 4230TIP3   OH234180   0.195   1.327   2.192  0.4310  0.3377  0.2717
 4230TIP3    H134181   0.285   1.350   2.212  0.2055  1.6516 -0.0915
 4230TIP3    H234182   0.189   1.334   2.097 -0.0841  0.3898  0.3037
 4231TIP3   OH234183   2.831   3.972   4.791 -0.6179  0.4382 -0.2042
 4231TIP3    H134184   2.767   3.902   4.805  0.3276 -0.6487 -1.0780
 4231TIP3    H234185   2.820   3.995   4.699  0.0495  0.4235 -0.2916
 4232TIP3   OH234186   3.979   5.839   1.823 -0.2612  0.0188 -0.1584
 4232TIP3    H134187   4.022   5.916   1.861 -0.4147 -0.1701  0.4151
 4232TIP3    H234188   3.911   5.875   1.766  0.4689  0.3184 -0.8586
 4233TIP3   OH234189   0.069   2.399  11.103 -0.4335 -0.4411  0.2855
 4233TIP3    H134190   0.002   2.449  11.056  1.4596  1.3728 -0.6689
 4233TIP3    H234191   0.027   2.375  11.185 -1.7787  1.9971  0.4133
 4234TIP3   OH234192   1.011   6.100  13.740 -0.1292 -0.4641  0.2944
 4234TIP3    H134193   1.020   6.005  13.751 -0.1877 -0.6623 -1.2271
 4234TIP3    H234194   0.964   6.129  13.818 -0.7259 -1.7855  0.4430
 4235TIP3   OH234195   5.233   3.882   1.620 -0.3695 -0.7785 -0.1136
 4235TIP3    H134196   5.297   3.837   1.566 -0.3188  0.8204 -1.4468
 4235TIP3    H234197   5.150   3.839   1.599 -0.1787 -0.9261 -0.5752
 4236TIP3   OH234198   2.678   5.625   2.916  0.4424  0.0187 -0.4216
 4236TIP3    H134199   2.699   5.716   2.893 -1.0278  0.5590  0.2474
 4236TIP3    H234200   2.726   5.610   2.997 -2.2342  1.5523  1.6056
 4237TIP3   OH234201   4.586   1.911  16.744 -0.9361  0.6921 -0.4717
 4237TIP3    H134202   4.603   1.937  16.835 -1.9230 -0.1732 -0.0126
 4237TIP3    H234203   4.662   1.860  16.719 -0.9162  0.4391  0.0842
 4238TIP3   OH234204   5.977   1.061   1.843  0.2023  0.3413 -0.2001
 4238TIP3    H134205   5.908   1.062   1.909 -1.3580 -1.5945 -1.6847
 4238TIP3    H234206   5.932   1.075   1.760  2.0578  2.2880 -0.9979
 4239TIP3   OH234207   1.114   3.326   5.371  0.1235 -0.1858  0.1423
 4239TIP3    H134208   1.143   3.317   5.280 -0.7863 -0.0519 -0.1750
 4239TIP3    H234209   1.194   3.319   5.422  0.9530  1.6550 -0.7755
 4240TIP3   OH234210   6.468   1.896  15.216  0.1804  0.2330  0.1024
 4240TIP3    H134211   6.533   1.966  15.220  1.6473 -0.9423 -1.5651
 4240TIP3    H234212   6.507   1.824  15.265 -1.2128  0.4520  1.6130
 4241TIP3   OH234213   1.394   1.589   1.469 -0.5610  0.3413 -0.8337
 4241TIP3    H134214   1.344   1.633   1.400 -1.3203 -0.2294 -0.6641
 4241TIP3    H234215   1.479   1.633   1.469 -0.6312  0.5164 -1.9667
 4242TIP3   OH234216   4.825   5.492   6.492  0.5704 -0.0985 -0.3094
 4242TIP3    H134217   4.915   5.520   6.482  0.5307  0.5423  0.9439
 4242TIP3    H234218   4.783   5.562   6.544 -0.0272 -1.4797  1.1718
 4243TIP3   OH234219   6.049   4.346   0.775 -0.1861  0.0087 -0.0344
 4243TIP3    H134220   5.983   4.347   0.706  0.7326  0.4984 -0.9368
 4243TIP3    H234221   6.126   4.308   0.734  0.6893  1.2268  0.4124
 4244TIP3   OH234222   4.140   0.829   0.637  0.3787 -0.4604  0.0483
 4244TIP3    H134223   4.072   0.882   0.594  0.6994  0.5282  0.7273
 4244TIP3    H234224   4.096   0.794   0.715  0.7206  0.4481  0.6648
 4245TIP3   OH234225   4.045   0.629  13.323 -0.2651 -0.4556  0.0218
 4245TIP3    H134226   3.952   0.615  13.341  0.1011 -2.1777  0.7719
 4245TIP3    H234227   4.085   0.542  13.334  1.6884  0.5342  1.3307
 4246TIP3   OH234228   0.446   2.414   2.423 -0.1807  0.0775 -0.6045
 4246TIP3    H134229   0.374   2.432   2.362  0.0081 -2.2425 -1.6251
 4246TIP3    H234230   0.402   2.375   2.499 -0.0882 -0.7296 -0.9545
 4247TIP3   OH234231   2.667   0.574  13.123  0.4485 -0.6302  0.4459
 4247TIP3    H134232   2.706   0.514  13.059  0.0333 -0.1048 -0.3159
 4247TIP3    H234233   2.579   0.592  13.089  1.3510  2.2840 -0.6616
 4248TIP3   OH234234   4.688   4.708   1.818 -0.6218  0.3183  0.1721
 4248TIP3    H134235   4.767   4.710   1.764 -2.4844  1.0612 -2.8365
 4248TIP3    H234236   4.649   4.623   1.800 -1.0115  0.3666  0.7774
 4249TIP3   OH234237   5.444   3.018  13.989 -0.2685 -0.0168 -0.2545
 4249TIP3    H134238   5.438   2.931  14.030  0.7949 -0.9339 -1.9271
 4249TIP3    H234239   5.405   3.006  13.903 -0.5964  1.3452 -0.3152
 4250TIP3   OH234240   4.527   5.849   5.940 -0.1761  0.3987  0.2395
 4250TIP3    H134241   4.487   5.781   5.886  0.6953  0.3115 -0.3088
 4250TIP3    H234242   4.459   5.917   5.947 -1.3823 -0.8575  1.5174
 4251TIP3   OH234243   4.965   5.826   1.679  0.0950  0.1021 -0.4577
 4251TIP3    H134244   4.993   5.802   1.591  1.1899  0.8951 -0.3530
 4251TIP3    H234245   4.991   5.752   1.734  2.1422  0.8129 -0.3607
 4252TIP3   OH234246   2.522   1.157   1.572 -0.4047  0.8210  0.1770
 4252TIP3    H134247   2.528   1.248   1.544  1.3260  0.5856 -0.2975
 4252TIP3    H234248   2.509   1.162   1.667 -2.0499  1.5548 -0.0547
 4253TIP3   OH234249   2.496   2.158  13.383 -0.0904 -0.5240  0.2546
 4253TIP3    H134250   2.466   2.106  13.456 -0.0235  2.2131  2.4085
 4253TIP3    H234251   2.421   2.214  13.360  0.7191  0.5398  0.0883
 4254TIP3   OH234252   6.202   2.883   2.252  0.2073 -0.5232 -0.2930
 4254TIP3    H134253   6.248   2.831   2.186  3.5117  2.3280 -0.5239
 4254TIP3    H234254   6.249   2.862   2.334  0.4648  0.7636 -0.0980
 4255TIP3   OH234255   1.712   1.972  11.570 -0.4645  0.2909 -0.4716
 4255TIP3    H134256   1.759   1.983  11.652 -0.2512 -1.3822 -0.3355
 4255TIP3    H234257   1.768   2.012  11.504  1.0895 -1.4547 -0.2762
 4256TIP3   OH234258   6.356   5.995   2.112  0.0561  0.2200 -0.5274
 4256TIP3    H134259   6.263   5.990   2.135  0.6935 -1.9262  2.0515
 4256TIP3    H234260   6.397   6.040   2.185  1.5314 -2.4931  0.4809
 4257TIP3   OH234261   0.067   3.681   6.683  0.2894  0.3319  0.2661
 4257TIP3    H134262   0.146   3.649   6.639 -1.4342 -3.3339 -0.5179
 4257TIP3    H234263   0.017   3.724   6.615 -1.0081 -2.7309 -0.9167
 4258TIP3   OH234264   5.574   5.194   3.243 -0.3074 -0.3429 -0.1390
 4258TIP3    H134265   5.608   5.136   3.175 -0.1089  0.4277 -0.7114
 4258TIP3    H234266   5.604   5.156   3.325 -0.4411 -1.2173 -0.4914
 4259TIP3   OH234267   4.923   5.413   6.140 -0.5323  0.6411 -0.0673
 4259TIP3    H134268   4.899   5.483   6.079  0.8046  1.2312  0.0370
 4259TIP3    H234269   5.009   5.439   6.173 -0.2120 -0.8294  0.3226
 4260TIP3   OH234270   2.013   5.807  17.372 -0.3181  0.0569 -0.4369
 4260TIP3    H134271   1.936   5.764  17.336  0.7519 -1.3617 -1.1393
 4260TIP3    H234272   2.050   5.744  17.434 -0.4094  1.2297  0.8555
 4261TIP3   OH234273   2.532   6.219  11.210 -0.0238  0.2532  0.3971
 4261TIP3    H134274   2.496   6.232  11.122 -1.6073  0.3105  1.0225
 4261TIP3    H234275   2.532   6.306  11.250 -0.3327  0.0634  0.8204
 4262TIP3   OH234276   2.167   1.277  14.724 -0.3001  0.6527 -0.3964
 4262TIP3    H134277   2.114   1.273  14.804  0.8885 -4.4272  0.4872
 4262TIP3    H234278   2.116   1.228  14.659  1.5408 -1.0987 -0.6246
 4263TIP3   OH234279   0.714   2.008  12.269  0.0137 -0.0872  0.3264
 4263TIP3    H134280   0.696   1.955  12.346 -1.1065  1.2151  0.9897
 4263TIP3    H234281   0.807   1.993  12.251 -0.5925 -3.5467 -0.5434
 4264TIP3   OH234282   6.490   4.359  16.401  0.2998  0.1239 -0.4797
 4264TIP3    H134283   6.548   4.400  16.336  2.0613  1.5864  1.8567
 4264TIP3    H234284   6.441   4.432  16.439  0.8828 -0.3443  1.2841
 4265TIP3   OH234285   5.116   0.700  16.408  0.4988  0.2012  0.3239
 4265TIP3    H134286   5.038   0.695  16.463  1.4188  1.2210  1.8049
 4265TIP3    H234287   5.084   0.688  16.319 -1.0023 -1.9399  1.0764
 4266TIP3   OH234288   6.638   1.276  13.391  0.7782 -0.8396 -0.1455
 4266TIP3    H134289   6.704   1.257  13.325  0.8899 -0.7383 -0.0615
 4266TIP3    H234290   6.603   1.190  13.415  0.8363 -0.8872 -0.2330
 4267TIP3   OH234291   1.419   2.596  16.451  0.5215 -0.1394 -0.0964
 4267TIP3    H134292   1.467   2.613  16.533  0.7797  0.7762 -0.4247
 4267TIP3    H234293   1.382   2.508  16.463  0.2744  0.1047  1.1421
 4268TIP3   OH234294   2.243   4.650  12.556  0.2563 -0.0170 -0.3802
 4268TIP3    H134295   2.320   4.605  12.590 -1.3491 -1.8629  1.0886
 4268TIP3    H234296   2.174   4.584  12.556 -1.5858  1.7744 -0.7109
 4269TIP3   OH234297   5.003   1.155   0.848  0.5920  0.2763 -0.1549
 4269TIP3    H134298   4.933   1.090   0.846  2.2236 -1.6665  1.4094
 4269TIP3    H234299   5.081   1.109   0.816  1.2756  2.3144 -1.6847
 4270TIP3   OH234300   3.761   4.635   1.227 -0.0429 -0.3452 -0.1281
 4270TIP3    H134301   3.792   4.725   1.225 -0.5889 -0.1581 -1.8333
 4270TIP3    H234302   3.685   4.634   1.169  0.3828 -2.0573 -0.7273
 4271TIP3   OH234303   4.864   0.698   2.601 -0.5296 -0.6110  0.4627
 4271TIP3    H134304   4.805   0.679   2.674 -2.0966  0.2125 -0.5338
 4271TIP3    H234305   4.808   0.700   2.524  1.1742 -2.0917 -0.9086
 4272TIP3   OH234306   1.453   0.275  16.864  0.7446  0.1420 -0.6871
 4272TIP3    H134307   1.431   0.234  16.780  1.4121  0.9787 -1.2876
 4272TIP3    H234308   1.386   0.343  16.875 -0.7855 -1.5059  0.6480
 4273TIP3   OH234309   5.142   3.472  12.592 -0.0004 -0.0156  0.6569
 4273TIP3    H134310   5.221   3.426  12.562  0.1290  0.4447  0.2772
 4273TIP3    H234311   5.091   3.405  12.637 -0.5108 -0.9133 -1.1429
 4274TIP3   OH234312   0.134   6.478   1.508 -0.3430 -0.3193  0.6756
 4274TIP3    H134313   0.116   6.389   1.537 -1.5375  0.0880  1.2456
 4274TIP3    H234314   0.062   6.499   1.448  1.3148 -0.6331 -1.5485
 4275TIP3   OH234315   0.817   4.405   3.947 -0.0241 -0.1328 -0.5188
 4275TIP3    H134316   0.875   4.335   3.978  0.6932  1.1100  1.0648
 4275TIP3    H234317   0.876   4.477   3.925 -0.9046  1.1769  1.1562
 4276TIP3   OH234318   6.438   3.210  12.068  1.0681  0.1781  0.6710
 4276TIP3    H134319   6.402   3.172  11.988  2.9414 -1.0075  0.3263
 4276TIP3    H234320   6.377   3.281  12.091 -2.0041 -2.2362  0.7122
 4277TIP3   OH234321   5.812   4.691  15.096 -0.3714 -0.2465 -0.7300
 4277TIP3    H134322   5.733   4.682  15.043  0.1160 -0.7126 -1.3838
 4277TIP3    H234323   5.836   4.602  15.120  0.8297 -0.2522 -1.8368
 4278TIP3   OH234324   1.785   5.009  16.538 -0.1912 -0.3539 -0.6303
 4278TIP3    H134325   1.861   5.067  16.535 -0.0225 -0.2751  2.4282
 4278TIP3    H234326   1.712   5.067  16.559 -0.4830 -0.8776 -0.1829
 4279TIP3   OH234327   0.523   5.403  12.740  0.2975 -0.2135 -0.2144
 4279TIP3    H134328   0.521   5.478  12.680  0.6081  0.0158  0.0564
 4279TIP3    H234329   0.450   5.348  12.712 -0.1785  0.3810 -0.1770
 4280TIP3   OH234330   2.658   5.045   1.931 -0.0331  0.1989  0.0506
 4280TIP3    H134331   2.602   5.120   1.954  1.9637  1.0578  2.6237
 4280TIP3    H234332   2.692   5.014   2.015  0.2966 -2.7930 -1.0671
 4281TIP3   OH234333   3.524   2.283  11.968  0.2198  0.1699 -0.0355
 4281TIP3    H134334   3.554   2.275  11.878  1.7619  0.7701  0.3981
 4281TIP3    H234335   3.539   2.197  12.006  0.8525  0.2918  0.0057
 4282TIP3   OH234336   0.631   1.812  17.388 -0.0711  0.0279  0.2309
 4282TIP3    H134337   0.663   1.735  17.437 -1.8462 -0.4097  0.7694
 4282TIP3    H234338   0.645   1.789  17.296  0.4932 -0.4440  0.4245
 4283TIP3   OH234339   0.310   4.612   5.608 -0.0643 -0.4873  0.2846
 4283TIP3    H134340   0.384   4.624   5.667  0.6596 -1.0574 -0.4855
 4283TIP3    H234341   0.349   4.591   5.524 -1.1182 -1.4544  0.0101
 4284TIP3   OH234342   5.391   0.829  13.334  0.0926 -0.0961  0.3861
 4284TIP3    H134343   5.437   0.806  13.414 -0.9822 -0.0062  1.0528
 4284TIP3    H234344   5.449   0.891  13.289  1.3709 -1.2815  0.3445
 4285TIP3   OH234345   4.234   0.793   2.345 -0.4581  0.0098 -0.0194
 4285TIP3    H134346   4.307   0.767   2.289  0.8800  1.1473  1.1252
 4285TIP3    H234347   4.234   0.889   2.344 -2.1706  0.0475 -0.2571
 4286TIP3   OH234348   0.974   4.235   0.020 -0.6661  0.2235 -0.1886
 4286TIP3    H134349   0.938   4.244   0.108  1.4479 -0.0690  0.7717
 4286TIP3    H234350   0.956   4.319  -0.023 -0.9877  0.6743  0.8071
 4287TIP3   OH234351   6.280   0.132   4.194  0.6925  0.3099  0.4584
 4287TIP3    H134352   6.266   0.216   4.237 -0.9713  0.6174 -0.5731
 4287TIP3    H234353   6.284   0.068   4.265 -0.4331  0.9781  1.1482
 4288TIP3   OH234354   5.507   1.690  13.202 -0.0910  0.2440  0.3399
 4288TIP3    H134355   5.602   1.680  13.189 -0.2929  0.2778 -1.2987
 4288TIP3    H234356   5.489   1.641  13.282  1.1437 -0.6438  0.1012
 4289TIP3   OH234357   2.290   0.625  12.859  0.0073 -0.3854  0.0965
 4289TIP3    H134358   2.272   0.536  12.888 -1.4357  0.0822  0.7483
 4289TIP3    H234359   2.289   0.619  12.763  1.2906 -1.2922  0.1112
 4290TIP3   OH234360   2.005   0.487  15.421 -0.0653 -0.1874  0.2249
 4290TIP3    H134361   2.021   0.470  15.514 -2.2142 -1.3702  0.4516
 4290TIP3    H234362   1.980   0.580  15.418 -2.0978 -0.6307  1.2366
 4291TIP3   OH234363   5.164   0.570   4.188  0.8258  0.1789  0.1712
 4291TIP3    H134364   5.212   0.560   4.105  2.2026  0.7255  0.8777
 4291TIP3    H234365   5.093   0.506   4.182  2.4724 -1.6910 -0.3482
 4292TIP3   OH234366   3.705   3.669  14.764 -0.0529 -0.7378  0.4514
 4292TIP3    H134367   3.701   3.762  14.786  0.6671 -0.5860 -0.0173
 4292TIP3    H234368   3.687   3.623  14.846 -1.9938 -0.2050  0.3773
 4293TIP3   OH234369   6.598   3.623   5.659  0.5934 -0.3105 -0.1192
 4293TIP3    H134370   6.623   3.538   5.696  1.8141  0.6235  1.3469
 4293TIP3    H234371   6.681   3.660   5.627  0.7673  1.6820  2.2792
 4294TIP3   OH234372   0.378   3.751   3.762  0.7449 -0.0543  0.4082
 4294TIP3    H134373   0.422   3.668   3.781  0.4602 -0.1525  0.6607
 4294TIP3    H234374   0.408   3.775   3.674  1.3110 -0.1066  0.5811
 4295TIP3   OH234375   4.987   3.610   0.556  0.1724  0.5863 -0.2774
 4295TIP3    H134376   5.022   3.598   0.644 -0.9539 -0.6498  0.0231
 4295TIP3    H234377   4.981   3.522   0.520 -1.7360  0.8264 -0.6595
 4296TIP3   OH234378   0.949   4.213   6.906  0.0367 -0.6121 -0.1663
 4296TIP3    H134379   0.977   4.141   6.962  1.3214 -0.9458 -1.1914
 4296TIP3    H234380   1.011   4.284   6.924 -0.3325 -0.2685 -0.2228
 4297TIP3   OH234381   6.354   4.037   0.739  0.0832 -0.2053 -0.0624
 4297TIP3    H134382   6.318   3.955   0.773  0.4600 -0.3394  0.0141
 4297TIP3    H234383   6.407   4.011   0.664  2.4008 -0.3614  1.5318
 4298TIP3   OH234384   0.307   6.206   1.679 -0.4180 -0.0831  0.2361
 4298TIP3    H134385   0.393   6.235   1.648 -0.3077 -0.4525  0.1954
 4298TIP3    H234386   0.325   6.130   1.734 -0.8344 -1.1966 -1.0890
 4299TIP3   OH234387   3.587   1.451   4.311 -0.3143 -0.2351 -0.3478
 4299TIP3    H134388   3.641   1.419   4.239  2.3473  2.5467  0.2022
 4299TIP3    H234389   3.634   1.424   4.390  1.8261  4.1110  0.1428
 4300TIP3   OH234390   0.983   5.622  12.712  0.3177 -0.7238  0.3561
 4300TIP3    H134391   1.044   5.562  12.753  1.7272  0.0179 -0.5643
 4300TIP3    H234392   0.974   5.590  12.622  1.2690  0.5125 -0.2161
 4301TIP3   OH234393   1.839   4.944  13.033 -0.2158  0.2227  0.4482
 4301TIP3    H134394   1.846   5.017  12.971  0.2748 -0.4508 -0.3003
 4301TIP3    H234395   1.765   4.893  13.001 -1.0543  0.7872  1.4158
 4302TIP3   OH234396   0.886   1.946  16.037 -0.1762  0.2709 -0.0943
 4302TIP3    H134397   0.900   1.917  16.128 -0.4505  0.6500  0.0693
 4302TIP3    H234398   0.959   1.907  15.989  0.0274  0.1468  0.3061
 4303TIP3   OH234399   1.615   5.487  11.505 -0.4923  0.3202 -0.0047
 4303TIP3    H134400   1.586   5.539  11.430 -5.9124 -0.0336  1.4172
 4303TIP3    H234401   1.646   5.405  11.467 -0.6253  1.1136 -1.9333
 4304TIP3   OH234402   1.784   6.760  16.717  0.2559 -0.3429 -0.1853
 4304TIP3    H134403   1.842   6.710  16.775 -0.3931 -0.0270  0.7719
 4304TIP3    H234404   1.791   6.850  16.749 -1.8520 -0.5108  0.9407
 4305TIP3   OH234405   4.955   4.479   2.286  0.5207 -1.1680 -0.5798
 4305TIP3    H134406   5.022   4.480   2.355  0.8783  0.2639 -0.9297
 4305TIP3    H234407   4.880   4.436   2.327  0.6864 -0.2306  0.7764
 4306TIP3   OH234408   2.139   0.670  13.522 -0.4379  0.5438 -0.2889
 4306TIP3    H134409   2.106   0.696  13.607  1.8319  1.6174  0.3461
 4306TIP3    H234410   2.146   0.752  13.473 -1.2890 -0.0037 -1.3783
 4307TIP3   OH234411   5.055   3.383   6.106  0.4259 -0.1087 -0.4745
 4307TIP3    H134412   4.991   3.452   6.125  1.5183  1.3221 -1.6841
 4307TIP3    H234413   5.139   3.429   6.101  0.9967 -1.2319 -2.8246
 4308TIP3   OH234414   3.179   0.069  13.405  0.1409  0.0565  0.1077
 4308TIP3    H134415   3.252   0.090  13.347  0.2775  0.3964  0.3980
 4308TIP3    H234416   3.214   0.004  13.465  0.9230  1.8576  1.6988
 4309TIP3   OH234417   3.610   2.072  15.070  0.2165  0.9864  0.1687
 4309TIP3    H134418   3.676   2.031  15.126  1.1048  0.5310 -1.1504
 4309TIP3    H234419   3.657   2.094  14.990 -1.5789 -0.9949 -1.5640
 4310TIP3   OH234420   2.187   3.763   4.335  0.6353  0.4035 -0.1666
 4310TIP3    H134421   2.117   3.727   4.281  0.0685  0.3778  0.5600
 4310TIP3    H234422   2.147   3.838   4.379  1.5515  1.3993 -0.9990
 4311TIP3   OH234423   0.627   1.157  17.286  0.3286  0.4101 -0.3996
 4311TIP3    H134424   0.535   1.140  17.265  0.8120 -0.5465 -1.8488
 4311TIP3    H234425   0.644   1.106  17.365 -0.0444 -0.4548 -0.8684
 4312TIP3   OH234426   4.513   0.638  11.333 -0.0833 -0.1989  0.4716
 4312TIP3    H134427   4.479   0.563  11.284  0.9377 -0.3081 -0.0899
 4312TIP3    H234428   4.436   0.675  11.375 -1.0547  0.0104 -1.3667
 4313TIP3   OH234429   1.027   2.317   5.301 -0.3986 -0.2129  0.1638
 4313TIP3    H134430   1.046   2.367   5.221 -1.0887 -1.4393 -0.8037
 4313TIP3    H234431   1.056   2.374   5.372  0.3857  0.8496 -0.9597
 4314TIP3   OH234432   0.394   5.654  13.897 -0.4974 -0.0708  0.0066
 4314TIP3    H134433   0.348   5.570  13.901  1.9014 -1.4573  0.6962
 4314TIP3    H234434   0.339   5.709  13.841 -3.5375 -1.1484  1.6747
 4315TIP3   OH234435   5.393   3.159   2.345  0.0734  0.1929  0.0320
 4315TIP3    H134436   5.464   3.151   2.282  1.1812  0.7435  1.1657
 4315TIP3    H234437   5.342   3.234   2.315  0.2698  0.1130 -0.5031
 4316TIP3   OH234438   2.371   2.351  11.859 -0.1203 -0.1134  0.4569
 4316TIP3    H134439   2.291   2.298  11.847 -0.9601  1.1672  0.2380
 4316TIP3    H234440   2.383   2.355  11.954  0.3464 -1.2563  0.4585
 4317TIP3   OH234441   4.895   4.218  15.787  0.1994  0.7672 -0.2712
 4317TIP3    H134442   4.873   4.138  15.738 -0.3694 -0.1845  1.4595
 4317TIP3    H234443   4.987   4.207  15.810 -0.0928  0.1900  0.6735
 4318TIP3   OH234444   4.950   3.604   4.972 -0.4190 -0.2084 -0.0580
 4318TIP3    H134445   4.865   3.610   4.928 -0.1691 -1.4072 -0.7625
 4318TIP3    H234446   4.931   3.560   5.055 -0.7944  1.4856  0.7981
 4319TIP3   OH234447   5.559   0.699  16.939 -0.2211  0.8278  0.1593
 4319TIP3    H134448   5.583   0.747  16.860 -1.9228  1.0443 -0.2677
 4319TIP3    H234449   5.472   0.732  16.961 -0.9149 -1.1673  0.5710
 4320TIP3   OH234450   2.860   3.317   6.113  0.4257 -0.5543  0.2997
 4320TIP3    H134451   2.944   3.289   6.150  0.3012 -1.8108 -0.3383
 4320TIP3    H234452   2.852   3.408   6.141  1.6021 -0.6608  1.0835
 4321TIP3   OH234453   1.763   5.238  10.747 -0.1207  0.0889  0.2797
 4321TIP3    H134454   1.706   5.304  10.785  2.0757  2.2139  0.1556
 4321TIP3    H234455   1.805   5.283  10.673  1.8130 -1.2506  0.4781
 4322TIP3   OH234456   1.240   5.724   4.205 -0.1033  0.1484  0.1890
 4322TIP3    H134457   1.281   5.681   4.280  1.1578 -0.2669 -0.7093
 4322TIP3    H234458   1.159   5.676   4.191  0.5297 -0.9481  0.1744
 4323TIP3   OH234459   5.043   5.027   5.232  0.2630 -0.6434  0.2156
 4323TIP3    H134460   4.998   5.107   5.204 -1.1819 -1.7234 -0.7386
 4323TIP3    H234461   4.996   5.001   5.311 -0.6617 -1.6074 -0.6110
 4324TIP3   OH234462   2.237   3.444   1.040  0.5074 -0.0646 -0.2335
 4324TIP3    H134463   2.161   3.406   0.996  0.0304  0.9373 -0.3083
 4324TIP3    H234464   2.267   3.513   0.981  0.1434  0.9836  0.7627
 4325TIP3   OH234465   0.382   2.683  12.233 -0.1746 -0.3195  0.5799
 4325TIP3    H134466   0.409   2.710  12.145 -0.8414 -0.0639  0.4479
 4325TIP3    H234467   0.321   2.751  12.262  0.8765  0.1788  1.6930
 4326TIP3   OH234468   4.259   2.724  13.415 -0.3469  0.2000 -0.3668
 4326TIP3    H134469   4.177   2.679  13.393  0.4279  0.0272 -3.3838
 4326TIP3    H234470   4.237   2.817  13.411 -0.7430  0.1514  0.4964
 4327TIP3   OH234471   5.945   2.729  16.725  0.1340 -0.3187 -0.1699
 4327TIP3    H134472   5.870   2.717  16.783  0.3222 -0.7406 -0.0039
 4327TIP3    H234473   5.971   2.640  16.701  1.3611 -0.2505  0.7941
 4328TIP3   OH234474   1.256   0.445  14.620 -0.4525 -0.0226  0.1541
 4328TIP3    H134475   1.220   0.388  14.552  0.9892 -1.6899  0.7118
 4328TIP3    H234476   1.285   0.523  14.572 -0.1613 -0.8348 -1.0425
 4329TIP3   OH234477   5.727   0.129   0.938 -0.0235  0.0305  0.5107
 4329TIP3    H134478   5.665   0.081   0.883  0.4789 -0.4318  0.3319
 4329TIP3    H234479   5.763   0.062   0.997 -0.3679  0.4729  1.2310
 4330TIP3   OH234480   5.066   2.279  16.421  0.2171 -0.2611 -0.4914
 4330TIP3    H134481   5.136   2.252  16.363 -1.0345  1.6659 -3.0728
 4330TIP3    H234482   5.030   2.358  16.381 -2.5083 -0.3604  1.4707
 4331TIP3   OH234483   5.865   3.036   3.280  0.2860  0.0036  0.8304
 4331TIP3    H134484   5.898   2.956   3.239 -1.6677  0.4726 -1.8563
 4331TIP3    H234485   5.932   3.102   3.262  2.8649 -1.2019  4.6831
 4332TIP3   OH234486   4.812   5.578   4.030 -0.2350  0.0950  0.2255
 4332TIP3    H134487   4.736   5.523   4.012  0.3631  0.0864 -2.7198
 4332TIP3    H234488   4.887   5.520   4.018  0.3317  0.9478 -0.4592
 4333TIP3   OH234489   1.253   1.427  11.859 -0.7896  0.1337 -0.0633
 4333TIP3    H134490   1.183   1.364  11.843  0.2105 -0.9507 -0.3360
 4333TIP3    H234491   1.269   1.422  11.953  0.3318 -1.2192 -0.2874
 4334TIP3   OH234492   4.431   3.346  16.586 -0.0614 -0.1647 -0.0164
 4334TIP3    H134493   4.452   3.257  16.612 -0.1247 -0.4730 -0.9726
 4334TIP3    H234494   4.350   3.367  16.633 -0.3042 -0.7901 -0.1462
 4335TIP3   OH234495   2.122   4.061  13.060 -0.5303 -0.0232 -0.0316
 4335TIP3    H134496   2.214   4.082  13.045 -0.8768  1.8167  0.1997
 4335TIP3    H234497   2.079   4.146  13.069 -2.2113 -0.8519  0.1573
 4336TIP3   OH234498   5.241   2.587   3.419  0.0995 -0.8041  0.4350
 4336TIP3    H134499   5.186   2.606   3.343  0.0238  1.1008  0.9057
 4336TIP3    H234500   5.183   2.600   3.494  1.7373  4.9488  1.2153
 4337TIP3   OH234501   3.737   1.759  14.595  0.5138  0.1188 -0.3487
 4337TIP3    H134502   3.698   1.836  14.636 -0.1746 -0.6157  0.4285
 4337TIP3    H234503   3.740   1.780  14.502 -3.4520 -0.3869 -0.7695
 4338TIP3   OH234504   2.533   3.184   5.290  0.4176 -0.0553  0.1130
 4338TIP3    H134505   2.461   3.124   5.310  1.7266 -1.6377  0.2758
 4338TIP3    H234506   2.598   3.167   5.358  2.1337 -0.7062 -1.6046
 4339TIP3   OH234507   6.264   6.768   2.123 -0.0046 -0.2946  0.0456
 4339TIP3    H134508   6.271   6.701   2.054  0.7365  0.3561 -0.5345
 4339TIP3    H234509   6.186   6.743   2.173 -0.7751 -0.5711 -1.2494
 4340TIP3   OH234510   2.636   1.947   4.147  0.1507 -1.0069  0.7236
 4340TIP3    H134511   2.722   1.914   4.119  0.5424  0.2352  0.4093
 4340TIP3    H234512   2.652   1.987   4.232  0.8843  3.0029 -1.0799
 4341TIP3   OH234513   4.445   1.184   5.741  0.2418  0.9393  0.0094
 4341TIP3    H134514   4.433   1.141   5.826 -0.9094 -0.5415 -0.8470
 4341TIP3    H234515   4.479   1.115   5.684 -2.6400  0.7643 -1.6925
 4342TIP3   OH234516   3.208   2.120  14.394 -0.0222 -0.4408  0.2073
 4342TIP3    H134517   3.122   2.161  14.399  0.6053  0.8924  0.5644
 4342TIP3    H234518   3.191   2.030  14.367 -1.4978 -0.1157  0.0095
 4343TIP3   OH234519   5.673   0.038  13.792  0.2731 -0.1970  0.7371
 4343TIP3    H134520   5.649  -0.012  13.870 -1.2816  0.0335  0.4377
 4343TIP3    H234521   5.595   0.036  13.738 -0.7015  4.3410  1.6301
 4344TIP3   OH234522   5.724   3.601   5.059 -0.3591  0.1619 -0.4910
 4344TIP3    H134523   5.735   3.606   4.964  1.2614 -0.1002 -0.3552
 4344TIP3    H234524   5.757   3.685   5.092 -0.9609  0.2731 -0.1580
 4345TIP3   OH234525   1.193   0.739  12.437 -0.1761 -0.0034  0.0235
 4345TIP3    H134526   1.108   0.766  12.404 -0.6532  0.0124  1.2254
 4345TIP3    H234527   1.253   0.807  12.407 -0.3428 -0.6677 -1.9089
 4346TIP3   OH234528   5.117   5.023  15.568 -0.4016 -0.5082  0.5502
 4346TIP3    H134529   5.085   5.110  15.547 -0.2294 -0.6761 -0.4645
 4346TIP3    H234530   5.038   4.969  15.576 -0.4316 -0.6748 -0.7918
 4347TIP3   OH234531   1.534   3.703  11.301 -0.0062  0.1168 -0.2040
 4347TIP3    H134532   1.439   3.700  11.312 -0.3276  1.3503 -2.1070
 4347TIP3    H234533   1.547   3.752  11.220  2.1624 -2.2170 -1.4432
 4348TIP3   OH234534   4.435   4.411  14.871 -0.0511 -0.6838 -0.4294
 4348TIP3    H134535   4.434   4.316  14.858 -1.1050 -0.7189 -0.1480
 4348TIP3    H234536   4.347   4.439  14.847  0.3438  0.2702 -0.7999
 4349TIP3   OH234537   1.377   1.836   3.083 -0.3067 -0.0773 -0.4286
 4349TIP3    H134538   1.469   1.821   3.106 -0.2950 -0.0702 -0.4710
 4349TIP3    H234539   1.341   1.748   3.068 -0.1737 -0.0437 -0.9252
 4350TIP3   OH234540   2.630   6.389   4.883 -0.4501  0.0166  0.0034
 4350TIP3    H134541   2.566   6.407   4.951 -0.9203 -0.2565 -0.3595
 4350TIP3    H234542   2.593   6.315   4.834  0.5201 -0.6920  0.2933
 4351TIP3   OH234543   5.484   0.058   5.647 -0.2449 -0.1192 -0.0287
 4351TIP3    H134544   5.457  -0.026   5.686 -2.1486  0.6456  0.4143
 4351TIP3    H234545   5.517   0.109   5.720 -1.2007  0.3070  0.1210
 4352TIP3   OH234546   5.234   5.922  16.948  0.1168  0.3261  0.5814
 4352TIP3    H134547   5.231   5.957  16.858 -1.9528 -0.0990  0.4184
 4352TIP3    H234548   5.182   5.985  16.999 -3.4366 -2.1235  0.3434
 4353TIP3   OH234549   5.814   2.730   3.041  0.2407 -0.4228  0.3522
 4353TIP3    H134550   5.887   2.708   2.983 -0.1745 -0.5444 -0.1312
 4353TIP3    H234551   5.765   2.797   2.994  0.8146  0.7009  1.2946
 4354TIP3   OH234552   3.340   1.068  12.798  0.1792  0.5417  0.5171
 4354TIP3    H134553   3.261   1.015  12.783  1.0488 -0.3924 -1.0497
 4354TIP3    H234554   3.412   1.012  12.768  1.0372  3.1450 -2.8381
 4355TIP3   OH234555   1.859   2.938   0.899 -0.5061  0.1057 -0.1038
 4355TIP3    H134556   1.916   3.013   0.911 -1.0205  0.3498  0.8825
 4355TIP3    H234557   1.860   2.923   0.804  0.4098  0.7064 -0.2005
 4356TIP3   OH234558   0.980   5.747  16.388 -0.1931  0.5945 -0.2363
 4356TIP3    H134559   0.899   5.796  16.398  1.1906  2.8118  0.8413
 4356TIP3    H234560   1.025   5.757  16.471 -0.1557 -3.3614  0.4108
 4357TIP3   OH234561   3.577   0.587   1.762 -0.2008  0.0105 -0.0577
 4357TIP3    H134562   3.531   0.651   1.707 -1.0334 -0.3094  0.2448
 4357TIP3    H234563   3.648   0.555   1.707 -1.4584 -0.8617 -1.2393
 4358TIP3   OH234564   0.919   6.459   5.937  0.1080 -0.2070  0.5147
 4358TIP3    H134565   0.914   6.539   5.989  1.8255 -0.5329  1.2402
 4358TIP3    H234566   0.927   6.388   6.001 -2.0195 -1.1018 -0.0852
 4359TIP3   OH234567   2.797   6.317  16.073  0.6727  0.2850 -0.2466
 4359TIP3    H134568   2.796   6.321  15.978 -1.4533 -0.7109 -0.3222
 4359TIP3    H234569   2.806   6.224  16.094 -1.3293  0.1772  0.4200
 4360TIP3   OH234570   3.509   6.133  15.759 -0.4747 -0.4594  0.0516
 4360TIP3    H134571   3.585   6.135  15.818 -1.2957  1.8557  1.1559
 4360TIP3    H234572   3.546   6.111  15.674  1.6271  1.4176  0.3732
 4361TIP3   OH234573   3.341   0.617   6.100  0.1218  0.0850  0.4593
 4361TIP3    H134574   3.327   0.637   6.193 -0.7797  1.4453  0.0569
 4361TIP3    H234575   3.423   0.568   6.098  0.2457  0.1940  1.9569
 4362TIP3   OH234576   2.874   3.530  13.410  0.4752  0.4596  0.7081
 4362TIP3    H134577   2.864   3.495  13.322  1.6937  1.2537  0.2251
 4362TIP3    H234578   2.807   3.599  13.416  1.6845  1.8024 -0.3772
 4363TIP3   OH234579   5.027   0.263   3.031  0.3142 -0.0691 -0.5406
 4363TIP3    H134580   4.956   0.294   3.088  0.4277 -0.5078 -0.1608
 4363TIP3    H234581   4.982   0.221   2.957  0.1494  1.1110 -1.1453
 4364TIP3   OH234582   0.364   1.845   1.602 -0.1765 -0.5746  0.1840
 4364TIP3    H134583   0.347   1.938   1.586 -1.1048 -0.8024 -0.1979
 4364TIP3    H234584   0.432   1.844   1.669 -1.1597  0.3765  1.2201
 4365TIP3   OH234585   3.884   0.126   1.928 -0.0726  0.5541  0.1512
 4365TIP3    H134586   3.973   0.090   1.929  0.2379  1.1568 -2.0892
 4365TIP3    H234587   3.827   0.049   1.933  0.5846 -0.0069 -0.7491
 4366TIP3   OH234588   6.374   1.760  16.526 -0.6725  0.4999 -0.5878
 4366TIP3    H134589   6.461   1.730  16.503 -0.4776  0.0339  0.6678
 4366TIP3    H234590   6.334   1.786  16.443  0.4252  0.1124 -1.2495
 4367TIP3   OH234591   4.294   5.994   6.011 -0.4460  0.4152 -0.3901
 4367TIP3    H134592   4.298   5.912   6.061 -0.6364  0.2589 -0.6315
 4367TIP3    H234593   4.303   6.062   6.078  1.6837  0.1869 -0.3909
 4368TIP3   OH234594   5.595   2.749   3.195  0.0718  0.2014 -0.2993
 4368TIP3    H134595   5.675   2.740   3.144 -0.5972  0.3466 -1.3914
 4368TIP3    H234596   5.610   2.694   3.272 -0.4110 -3.2563 -2.4885
 4369TIP3   OH234597   6.560   1.512  16.514 -0.1931  0.2240 -0.0279
 4369TIP3    H134598   6.568   1.425  16.554 -0.2703  0.1325 -0.2126
 4369TIP3    H234599   6.479   1.509  16.464 -2.3011  1.6130  2.9858
 4370TIP3   OH234600   5.818   6.568   3.920 -0.2004 -0.2007  0.7356
 4370TIP3    H134601   5.801   6.630   3.849 -1.0599 -0.5834  0.5872
 4370TIP3    H234602   5.731   6.547   3.954  0.1350 -0.7582  1.2630
 4371TIP3   OH234603   6.156   0.553   0.976 -0.6024  0.0294 -0.2985
 4371TIP3    H134604   6.204   0.634   0.993 -0.2314 -0.0142 -1.0824
 4371TIP3    H234605   6.099   0.543   1.052  0.7792 -0.0510  0.7701
 4372TIP3   OH234606   4.127   5.590   2.569 -0.3026 -0.6569  0.0594
 4372TIP3    H134607   4.165   5.581   2.656  0.3044 -1.9645 -0.3257
 4372TIP3    H234608   4.037   5.617   2.585 -0.3542 -1.4103  1.1080
 4373TIP3   OH234609   5.138   5.526   6.276 -0.6523  0.3737 -0.4002
 4373TIP3    H134610   5.143   5.520   6.372  1.2677 -0.7565 -0.5322
 4373TIP3    H234611   5.185   5.607   6.255 -2.6239  1.6210 -0.3471
 4374TIP3   OH234612   1.102   0.837   3.580  0.3876  0.6185  0.7867
 4374TIP3    H134613   1.102   0.757   3.632 -0.6361  0.3691  0.4373
 4374TIP3    H234614   1.038   0.894   3.625  0.1261  0.7223  0.2882
 4375TIP3   OH234615   3.474   3.437  16.078  0.6243  0.5875 -0.2300
 4375TIP3    H134616   3.495   3.515  16.027 -1.3980  1.2157 -0.2216
 4375TIP3    H234617   3.492   3.364  16.019  1.7679  1.0929 -0.5266
 4376TIP3   OH234618   2.032   6.063  15.281 -0.2441 -0.1718 -0.0057
 4376TIP3    H134619   1.972   6.020  15.342 -0.2305 -1.5449 -0.9240
 4376TIP3    H234620   2.048   6.149  15.320 -2.4596  0.0878  0.4926
 4377TIP3   OH234621   0.486   1.564   0.635  0.2091 -0.1437  0.3399
 4377TIP3    H134622   0.565   1.570   0.688  1.0197  0.4412 -0.8685
 4377TIP3    H234623   0.474   1.653   0.600 -0.1580 -0.5576 -0.6223
 4378TIP3   OH234624   1.910   0.892  15.972 -0.4212  0.1813 -0.1068
 4378TIP3    H134625   1.850   0.964  15.955 -0.9444 -0.8249 -3.2631
 4378TIP3    H234626   1.902   0.836  15.895  1.7033 -2.0345  1.1459
 4379TIP3   OH234627   1.646   6.707   0.586 -0.1870 -0.0921 -0.4018
 4379TIP3    H134628   1.595   6.667   0.515 -0.6070  0.4455 -0.4033
 4379TIP3    H234629   1.659   6.798   0.558  1.9036 -0.5219 -1.0321
 4380TIP3   OH234630   3.919   2.733   5.568  0.3414  0.0130  0.3192
 4380TIP3    H134631   3.998   2.761   5.615  0.7690 -1.5106  0.5752
 4380TIP3    H234632   3.952   2.683   5.494 -0.3505 -2.0180  1.3188
 4381TIP3   OH234633   0.369   2.500   1.968 -0.3811  0.3666 -0.5983
 4381TIP3    H134634   0.437   2.566   1.954 -1.0942  0.8240 -2.1330
 4381TIP3    H234635   0.352   2.502   2.063 -0.1588  2.1674 -0.5715
 4382TIP3   OH234636   5.504   0.003   0.776 -0.4509 -0.9483  0.4016
 4382TIP3    H134637   5.493   0.084   0.725  0.1801 -0.6964  0.6613
 4382TIP3    H234638   5.420  -0.042   0.767 -0.1322 -1.2616 -1.4516
 4383TIP3   OH234639   4.795   3.414   5.853 -0.3837 -0.0368 -0.4787
 4383TIP3    H134640   4.788   3.351   5.925 -0.3850  1.6687  1.0848
 4383TIP3    H234641   4.887   3.441   5.854 -0.0069 -1.1465 -2.1810
 4384TIP3   OH234642   6.613   1.277  12.940  0.3560 -0.2883  0.2122
 4384TIP3    H134643   6.592   1.196  12.987 -0.1630  0.2632  0.9705
 4384TIP3    H234644   6.547   1.282  12.871  1.0735 -1.0641 -0.5556
 4385TIP3   OH234645   4.142   1.123  15.429 -0.0111 -0.1875 -0.8268
 4385TIP3    H134646   4.226   1.085  15.405 -0.5499 -2.4522  0.5825
 4385TIP3    H234647   4.081   1.093  15.362 -0.1683 -0.6445 -0.4822
 4386TIP3   OH234648   5.335   2.483  15.396  0.0225  0.0411 -0.2102
 4386TIP3    H134649   5.392   2.459  15.469 -0.0814  2.5359  0.7848
 4386TIP3    H234650   5.389   2.472  15.318  1.0853  0.0334  0.5052
 4387TIP3   OH234651   1.410   3.224  12.878 -0.6052 -0.1446 -0.2742
 4387TIP3    H134652   1.500   3.196  12.890 -0.8651 -0.6340  0.5908
 4387TIP3    H234653   1.384   3.185  12.794 -0.4261 -1.0991  0.1011
 4388TIP3   OH234654   6.649   4.718   3.146 -0.5035  0.0886  0.1903
 4388TIP3    H134655   6.695   4.728   3.062 -0.4094 -0.7045  0.1387
 4388TIP3    H234656   6.702   4.769   3.208  0.0048 -0.1609 -0.0309
 4389TIP3   OH234657   4.547   6.004   6.230 -0.1332  0.2350  0.6120
 4389TIP3    H134658   4.490   5.936   6.264  1.6916 -0.5931  2.2422
 4389TIP3    H234659   4.612   6.018   6.300  0.6765  2.2885 -0.4489
 4390TIP3   OH234660   6.026   0.946  15.757 -0.3535 -0.3802  0.0217
 4390TIP3    H134661   6.030   1.017  15.692 -0.4601  0.1464  0.5760
 4390TIP3    H234662   5.948   0.897  15.734  0.4632 -1.1628 -1.2076
 4391TIP3   OH234663   1.308   0.128  13.069  0.5908 -0.4770  0.0682
 4391TIP3    H134664   1.401   0.144  13.087  0.4430  1.8451 -0.8420
 4391TIP3    H234665   1.271   0.106  13.154  1.2632  2.6765  1.3022
 4392TIP3   OH234666   5.634   2.688   2.452 -0.7102 -0.2844 -0.2015
 4392TIP3    H134667   5.698   2.696   2.382  0.1657 -0.4811  0.5640
 4392TIP3    H234668   5.585   2.770   2.450  0.3136  0.3357 -0.0603
 4393TIP3   OH234669   6.524   6.332   6.457 -0.6966 -0.9353  0.4154
 4393TIP3    H134670   6.438   6.374   6.446 -0.3255 -0.2363  0.1357
 4393TIP3    H234671   6.580   6.376   6.394  0.0596 -0.8469  1.1355
 4394TIP3   OH234672   1.008   2.136   2.332  0.2930 -0.3326 -0.0376
 4394TIP3    H134673   0.935   2.076   2.353 -0.3706  0.4237 -0.1379
 4394TIP3    H234674   1.051   2.150   2.416 -1.1280  1.0767  0.5040
 4395TIP3   OH234675   1.470   6.540   2.485 -0.5492  0.3778  0.2964
 4395TIP3    H134676   1.563   6.539   2.460 -0.4092  2.6169  0.4965
 4395TIP3    H234677   1.470   6.515   2.577 -0.5299 -2.6441 -0.4057
 4396TIP3   OH234678   1.288   1.565   3.066 -0.0990  0.0876  0.0020
 4396TIP3    H134679   1.255   1.511   2.995 -1.3497  2.2153 -1.1212
 4396TIP3    H234680   1.239   1.536   3.143 -0.0392 -0.9902 -0.3425
 4397TIP3   OH234681   1.309   2.203   3.849 -0.7153  0.3359  0.0962
 4397TIP3    H134682   1.308   2.166   3.761 -0.9834  1.5835 -0.4461
 4397TIP3    H234683   1.217   2.204   3.876 -0.8944  1.9817 -0.5089
 4398TIP3   OH234684   1.787   6.248  12.136  0.0037  0.0386 -0.4530
 4398TIP3    H134685   1.774   6.286  12.049 -1.1518  0.1936 -0.2199
 4398TIP3    H234686   1.701   6.216  12.162  0.6006 -1.1940  0.0926
 4399TIP3   OH234687   4.324   4.950  11.893 -0.0903  0.1068  0.3514
 4399TIP3    H134688   4.280   4.999  11.962  0.8331  1.4324  0.0166
 4399TIP3    H234689   4.255   4.895  11.856 -1.3462  1.6712  0.2579
 4400TIP3   OH234690   4.582   2.901   5.380  0.3112 -0.3320 -0.0726
 4400TIP3    H134691   4.550   2.840   5.447  2.9167 -0.3309  1.3155
 4400TIP3    H234692   4.604   2.980   5.428  1.0010  0.1613 -1.1552
 4401TIP3   OH234693   4.880   3.144  15.888  0.2849 -0.3426  0.1004
 4401TIP3    H134694   4.925   3.060  15.880  0.6980 -0.2433  1.1772
 4401TIP3    H234695   4.805   3.125  15.945  0.8567  0.1766  1.0582
 4402TIP3   OH234696   0.250   2.786   0.321  0.8501  0.3634 -0.0903
 4402TIP3    H134697   0.269   2.875   0.351  1.5012  0.2171 -0.0464
 4402TIP3    H234698   0.155   2.781   0.317  0.8232  1.4008 -1.1073
 4403TIP3   OH234699   6.734   3.029  11.131 -0.1622 -0.2009  0.2412
 4403TIP3    H134700   6.750   2.935  11.142 -1.3235 -0.6052 -1.2370
 4403TIP3    H234701   6.753   3.047  11.039 -0.9391  0.7956  0.2519
 4404TIP3   OH234702   4.590   5.142   4.159 -0.5327 -0.2393 -0.0619
 4404TIP3    H134703   4.681   5.158   4.133  0.5651  0.1373  3.4910
 4404TIP3    H234704   4.573   5.052   4.131  1.6929 -1.0395  0.9560
 4405TIP3   OH234705   3.197   4.247   1.957  0.1881 -0.0906 -0.0401
 4405TIP3    H134706   3.243   4.252   2.041 -0.8045 -1.5395  0.6441
 4405TIP3    H234707   3.125   4.309   1.965  0.0171 -0.3209  0.2526
 4406TIP3   OH234708   1.624   0.869   3.362 -0.2440  0.5451 -0.2477
 4406TIP3    H134709   1.552   0.823   3.318 -1.4719 -0.1887  2.3439
 4406TIP3    H234710   1.588   0.955   3.384 -0.7896 -0.1794  1.9653
 4407TIP3   OH234711   5.885   4.787  12.574 -0.1970 -0.2548  0.3043
 4407TIP3    H134712   5.889   4.865  12.629 -2.0014  0.7675 -0.8861
 4407TIP3    H234713   5.840   4.722  12.628 -0.4483  0.1882  0.6389
 4408TIP3   OH234714   6.159   1.396   5.268 -0.7929  0.6144  0.2525
 4408TIP3    H134715   6.120   1.340   5.334 -0.9870  0.3018 -0.1222
 4408TIP3    H234716   6.254   1.382   5.276 -0.8813 -0.4581 -0.4373
 4409TIP3   OH234717   0.135   4.527   2.969  0.0699  0.2558 -0.2535
 4409TIP3    H134718   0.093   4.480   3.041  0.2569 -1.5556 -1.2738
 4409TIP3    H234719   0.212   4.475   2.947 -1.0312 -0.3598 -3.0174
 4410TIP3   OH234720   1.377   1.227  15.155  0.2469  0.0834  0.1599
 4410TIP3    H134721   1.331   1.264  15.080  0.9549 -0.7727 -0.7165
 4410TIP3    H234722   1.469   1.236  15.134  0.4540 -0.4535  0.7966
 4411TIP3   OH234723   0.465   0.424   4.050 -0.1995 -0.2098  0.5017
 4411TIP3    H134724   0.514   0.372   3.986  1.3084  0.9500  0.6658
 4411TIP3    H234725   0.467   0.371   4.130 -1.0560 -1.1146 -0.0484
 4412TIP3   OH234726   5.268   2.106   5.897  0.1893 -0.0120  0.5240
 4412TIP3    H134727   5.195   2.117   5.957 -0.3037  1.5398 -0.3155
 4412TIP3    H234728   5.346   2.124   5.950 -0.2462  1.5456  0.6672
 4413TIP3   OH234729   3.953   5.342  12.705 -0.4057 -0.0161 -0.4754
 4413TIP3    H134730   4.019   5.324  12.638  0.9937 -1.3782  1.1822
 4413TIP3    H234731   3.999   5.330  12.788 -2.1042  1.5557  0.7649
 4414TIP3   OH234732   3.507   1.462   0.519 -0.5374  0.0549  0.4131
 4414TIP3    H134733   3.543   1.402   0.585  0.2767 -0.2890 -0.3221
 4414TIP3    H234734   3.576   1.527   0.506 -0.5577 -0.0600 -0.3149
 4415TIP3   OH234735   1.101   0.382  15.127 -0.0019 -0.3771  0.2784
 4415TIP3    H134736   1.185   0.424  15.112 -0.9632  1.1071 -1.3375
 4415TIP3    H234737   1.073   0.352  15.040 -0.7542 -1.6712  0.9254
 4416TIP3   OH234738   5.519   4.005  15.839 -0.2709  0.2140  0.1984
 4416TIP3    H134739   5.457   3.996  15.766 -0.3585  0.9376  0.1762
 4416TIP3    H234740   5.540   3.915  15.864 -1.7480 -0.0488  0.5587
 4417TIP3   OH234741   3.746   1.254  14.144 -0.3535  0.3654  0.0921
 4417TIP3    H134742   3.679   1.186  14.148 -0.7073  0.6399 -0.8729
 4417TIP3    H234743   3.784   1.245  14.056  0.0604  0.9771  0.2028
 4418TIP3   OH234744   2.356   5.301  16.734 -0.0282  0.2501 -0.0714
 4418TIP3    H134745   2.296   5.311  16.807  0.5209  0.1114  0.3985
 4418TIP3    H234746   2.350   5.385  16.687  0.1858  0.6257  0.5611
 4419TIP3   OH234747   0.127   0.464  16.526  0.6174 -0.0105 -0.3549
 4419TIP3    H134748   0.127   0.380  16.479  0.2904 -0.5060  0.5051
 4419TIP3    H234749   0.068   0.520  16.476  0.0574 -0.6140 -0.3827
 4420TIP3   OH234750   4.388   5.668  13.895  0.4297  0.0891  0.3747
 4420TIP3    H134751   4.418   5.716  13.818  1.2873  0.2642  0.7996
 4420TIP3    H234752   4.292   5.676  13.893  0.5628  2.8434  1.0475
 4421TIP3   OH234753   0.161   0.355  16.981  0.2157  0.6490  0.1638
 4421TIP3    H134754   0.254   0.346  17.002 -0.1005 -0.9414  1.0633
 4421TIP3    H234755   0.116   0.343  17.065 -0.8007  1.4117 -0.2573
 4422TIP3   OH234756   2.039   5.408  12.908 -0.0931  0.3842 -0.1206
 4422TIP3    H134757   2.107   5.431  12.844  0.5066 -0.0992  0.3285
 4422TIP3    H234758   2.086   5.404  12.992 -0.5078 -0.7181  0.0760
 4423TIP3   OH234759   4.106   3.169   4.642  0.0151 -0.1336  0.3720
 4423TIP3    H134760   4.190   3.183   4.687 -0.3359  0.3702  0.8772
 4423TIP3    H234761   4.120   3.089   4.591  0.4826 -0.6194  1.2347
 4424TIP3   OH234762   4.807   1.182  16.060  0.0457 -0.1576  0.2008
 4424TIP3    H134763   4.788   1.099  16.103 -1.4704  1.2657  2.4730
 4424TIP3    H234764   4.721   1.222  16.046  0.6465  0.4905 -2.1037
 4425TIP3   OH234765   4.305   1.166   1.371 -0.3631  0.1851  0.5265
 4425TIP3    H134766   4.345   1.112   1.303  0.2153  0.5475  0.5720
 4425TIP3    H234767   4.260   1.236   1.323 -0.0014  0.4097  0.5141
 4426TIP3   OH234768   5.572   2.803  16.146  0.3875  0.1409 -0.2859
 4426TIP3    H134769   5.478   2.786  16.137  0.4384 -1.9277  2.0062
 4426TIP3    H234770   5.577   2.895  16.170 -1.0490  0.2773 -0.3944
 4427TIP3   OH234771   4.111   1.887  16.671 -0.3688  0.5541  0.2069
 4427TIP3    H134772   4.166   1.811  16.687 -1.3890 -0.1931  0.2601
 4427TIP3    H234773   4.170   1.962  16.679  1.1383 -0.3102 -1.9602
 4428TIP3   OH234774   0.404   5.132   5.116  0.6913  0.2501  0.0719
 4428TIP3    H134775   0.347   5.134   5.039  0.2497  1.1984  0.3989
 4428TIP3    H234776   0.356   5.081   5.181 -0.5390  2.2696  0.8623
 4429TIP3   OH234777   5.804   0.042   5.315 -0.4913 -0.4485 -0.6726
 4429TIP3    H134778   5.730   0.066   5.370  0.8148  0.1260  0.9227
 4429TIP3    H234779   5.777   0.063   5.226 -1.9065  0.5390 -0.0315
 4430TIP3   OH234780   0.333   6.381  14.696  0.5860 -0.0247 -0.0505
 4430TIP3    H134781   0.325   6.445  14.624  2.0299 -0.0421 -0.2600
 4430TIP3    H234782   0.329   6.296  14.653 -0.7794 -0.0853  0.1657
 4431TIP3   OH234783   2.001   6.480  11.222 -0.3917  0.3456 -0.0685
 4431TIP3    H134784   2.079   6.512  11.267 -1.3085  1.8940  0.4829
 4431TIP3    H234785   1.944   6.556  11.216 -1.5432 -0.5689 -1.1737
 4432TIP3   OH234786   5.188   1.738   2.827  0.4667 -0.4228 -0.2524
 4432TIP3    H134787   5.247   1.761   2.898 -0.2131 -1.0593  0.5420
 4432TIP3    H234788   5.101   1.759   2.860  0.0141 -2.0336 -0.3335
 4433TIP3   OH234789   2.024   4.948   5.897 -0.9918  0.0204 -0.4568
 4433TIP3    H134790   1.964   4.901   5.955 -0.2354 -1.7615 -1.0346
 4433TIP3    H234791   1.993   4.929   5.808 -0.5749  0.5053 -0.7167
 4434TIP3   OH234792   0.062   6.378   6.847  0.1694 -0.3564 -0.3877
 4434TIP3    H134793  -0.025   6.354   6.817  0.7831 -1.6282 -1.2524
 4434TIP3    H234794   0.098   6.297   6.883  1.3808 -0.1232 -1.0114
 4435TIP3   OH234795   3.941   3.264   5.980  0.2533  0.1051  0.1552
 4435TIP3    H134796   3.897   3.347   5.962  0.0121  0.2605  1.3800
 4435TIP3    H234797   3.912   3.206   5.910 -0.5553  0.6962 -0.0201
 4436TIP3   OH234798   5.815   2.979   5.547 -0.1526  0.3098 -0.6605
 4436TIP3    H134799   5.797   2.892   5.512 -0.3407 -0.2187  0.6747
 4436TIP3    H234800   5.910   2.989   5.540 -0.0834 -0.1765 -0.4391
 4437TIP3   OH234801   4.267   1.533  14.143 -0.4123 -0.0890  0.2427
 4437TIP3    H134802   4.297   1.573  14.225  1.0619 -1.3594  0.3809
 4437TIP3    H234803   4.315   1.579  14.075 -0.5538  0.0036  0.2052
 4438TIP3   OH234804   2.623   4.546  11.810 -0.1486 -0.0612 -0.0121
 4438TIP3    H134805   2.707   4.588  11.792 -0.9447  0.4189 -3.0313
 4438TIP3    H234806   2.647   4.457  11.836  1.3275  0.6125  1.0977
 4439TIP3   OH234807   6.001   1.875  12.360  0.3425 -0.2440 -0.7297
 4439TIP3    H134808   6.067   1.851  12.295  1.7666  0.3165  0.4515
 4439TIP3    H234809   6.050   1.920  12.428 -1.6054  2.4901 -0.9668
 4440TIP3   OH234810   1.241   6.413   1.648  0.3522 -0.0494  0.4068
 4440TIP3    H134811   1.203   6.389   1.564 -0.2593 -0.3849  0.7673
 4440TIP3    H234812   1.293   6.491   1.630  0.2764 -0.1567 -0.2925
 4441TIP3   OH234813   3.218   1.273  12.930 -0.0434 -0.1815 -0.1949
 4441TIP3    H134814   3.133   1.280  12.888  0.9190  1.8721 -1.9834
 4441TIP3    H234815   3.259   1.196  12.890 -0.0698  0.3492 -1.2633
 4442TIP3   OH234816   0.024   4.704  14.882 -0.4843  0.4436 -0.0890
 4442TIP3    H134817   0.088   4.649  14.837 -0.7661  0.2021 -0.1896
 4442TIP3    H234818  -0.051   4.709  14.823 -0.1600  1.5769 -0.4437
 4443TIP3   OH234819   6.560   2.553   2.991  0.0054  0.6048  0.4420
 4443TIP3    H134820   6.527   2.619   3.051  0.5347  0.0632  1.3576
 4443TIP3    H234821   6.655   2.555   3.003 -0.0070 -0.7408  0.9821
 4444TIP3   OH234822   6.204   1.623  15.714  0.5137 -1.2427  0.1325
 4444TIP3    H134823   6.207   1.701  15.658  0.4304 -0.3673  1.3206
 4444TIP3    H234824   6.291   1.618  15.753 -0.2379 -0.1829  2.0944
 4445TIP3   OH234825   2.179   4.917  12.715 -0.0081  0.2934 -0.2301
 4445TIP3    H134826   2.233   4.985  12.755  0.7300 -1.5511  2.1956
 4445TIP3    H234827   2.238   4.872  12.655 -0.7613  2.2714 -2.5886
 4446TIP3   OH234828   0.291   1.508   1.223 -0.1785  0.1753 -0.8301
 4446TIP3    H134829   0.239   1.515   1.143 -1.7251  2.2928  0.2663
 4446TIP3    H234830   0.338   1.592   1.229 -0.5944  0.3375  0.7711
 4447TIP3   OH234831   4.367   1.816  11.788  0.2808  0.3099 -0.1074
 4447TIP3    H134832   4.293   1.851  11.837 -0.2614  0.8240 -1.2625
 4447TIP3    H234833   4.328   1.758  11.723  1.0069 -0.5758  0.2266
 4448TIP3   OH234834   2.257   1.844   2.097  0.1471  0.0036  0.0290
 4448TIP3    H134835   2.188   1.877   2.039 -1.2544 -3.4825 -0.5521
 4448TIP3    H234836   2.237   1.751   2.107  3.6413 -0.7399  1.5675
 4449TIP3   OH234837   2.053   5.038   2.759 -0.4836 -0.1272  0.3637
 4449TIP3    H134838   2.000   5.054   2.681  0.2056 -0.5230 -0.2038
 4449TIP3    H234839   2.125   5.101   2.753  1.4411 -2.2767 -1.1283
 4450TIP3   OH234840   2.113   3.823  16.812 -0.2272  0.2260 -0.1160
 4450TIP3    H134841   2.019   3.812  16.827  0.0428 -2.2202  0.1223
 4450TIP3    H234842   2.119   3.904  16.761 -2.4269  0.6031  0.1139
 4451TIP3   OH234843   1.133   3.652   1.790 -0.2003 -0.5278 -0.0414
 4451TIP3    H134844   1.112   3.560   1.808  0.6626 -0.5521  1.0080
 4451TIP3    H234845   1.067   3.702   1.839 -0.6248 -0.5889 -0.5521
 4452TIP3   OH234846   1.614   0.952  12.410  0.3936 -0.4169 -0.2333
 4452TIP3    H134847   1.676   0.917  12.346 -1.6942 -2.2375 -1.4196
 4452TIP3    H234848   1.605   0.883  12.475  1.0101  0.6192  0.9920
 4453TIP3   OH234849   4.266   0.482   2.622  0.1917 -0.0823 -0.6659
 4453TIP3    H134850   4.294   0.439   2.703 -0.0900  0.6663 -0.1525
 4453TIP3    H234851   4.334   0.547   2.605 -1.2956  2.0145  0.8018
 4454TIP3   OH234852   4.323   0.928  14.798  0.0454  0.2359 -0.4517
 4454TIP3    H134853   4.330   1.011  14.845  1.4654  0.7461 -1.4991
 4454TIP3    H234854   4.412   0.893  14.799 -0.5687 -1.3859  0.1181
 4455TIP3   OH234855   6.266   5.606  10.900  0.8869 -0.0629  0.1207
 4455TIP3    H134856   6.213   5.553  10.840 -0.7474 -0.2380  1.6226
 4455TIP3    H234857   6.314   5.542  10.952 -0.2639 -0.0864  1.2068
 4456TIP3   OH234858   2.741   6.021   1.000 -0.3973  0.1328 -0.1499
 4456TIP3    H134859   2.704   5.936   0.977 -0.7749  0.4593 -0.7710
 4456TIP3    H234860   2.696   6.083   0.943  0.5120  0.6378 -0.3363
 4457TIP3   OH234861   4.834   2.177  15.163  0.8140  0.0980  0.0223
 4457TIP3    H134862   4.755   2.131  15.191  2.4062 -3.1145 -0.3210
 4457TIP3    H234863   4.901   2.152  15.227  1.7798  2.1336 -0.1142
 4458TIP3   OH234864   6.416   5.392  16.126 -0.2499 -0.0427  0.4828
 4458TIP3    H134865   6.416   5.418  16.035 -0.0223 -1.3294  0.0878
 4458TIP3    H234866   6.501   5.419  16.160  2.0814 -4.2789 -1.2070
 4459TIP3   OH234867   4.353   0.478  16.264 -0.4905  0.0685 -0.0307
 4459TIP3    H134868   4.403   0.433  16.195  0.0775  1.3888 -0.5280
 4459TIP3    H234869   4.279   0.518  16.217 -0.9890 -0.3320  0.4018
 4460TIP3   OH234870   4.812   4.141   1.480 -0.7274 -0.1444  0.5358
 4460TIP3    H134871   4.732   4.147   1.532  0.0303 -1.4414  1.9321
 4460TIP3    H234872   4.804   4.058   1.434 -0.3582 -0.1062  0.4021
 4461TIP3   OH234873   4.378   0.169   2.624 -0.5993 -0.8984 -0.3780
 4461TIP3    H134874   4.448   0.187   2.687 -0.3944  0.8093 -1.0271
 4461TIP3    H234875   4.302   0.150   2.678 -0.2422 -0.2387  0.3878
 4462TIP3   OH234876   2.527   5.670   3.312  0.5656 -0.1695  0.2837
 4462TIP3    H134877   2.554   5.669   3.404 -0.7603 -1.6413  0.7056
 4462TIP3    H234878   2.433   5.653   3.314 -0.1739  2.9934 -1.2240
 4463TIP3   OH234879   1.530   5.857   3.641 -0.0018 -0.5235  0.8294
 4463TIP3    H134880   1.599   5.806   3.598  0.4719 -0.6656  1.7443
 4463TIP3    H234881   1.462   5.793   3.661 -0.9848 -0.1954 -1.1541
 4464TIP3   OH234882   1.337   4.350  14.647 -0.5234 -0.1699 -0.1256
 4464TIP3    H134883   1.360   4.369  14.556  1.2587  1.1621  0.5413
 4464TIP3    H234884   1.250   4.388  14.659 -0.5219  0.1617 -1.1088
 4465TIP3   OH234885   4.134   0.463  17.086  0.2976 -0.2096  0.0406
 4465TIP3    H134886   4.079   0.463  17.165  0.1998 -3.1892  0.1081
 4465TIP3    H234887   4.072   0.449  17.014  0.5916  0.3082 -0.3159
 4466TIP3   OH234888   4.383   3.533   4.821 -0.0400 -0.4495 -0.0356
 4466TIP3    H134889   4.409   3.482   4.897  2.1183  0.9010  0.2419
 4466TIP3    H234890   4.337   3.471   4.765  0.9197 -2.2436  1.0441
 4467TIP3   OH234891   1.982   3.100  15.453 -0.4352  0.7835  0.4196
 4467TIP3    H134892   1.947   3.069  15.369  0.9998 -0.5426  0.2765
 4467TIP3    H234893   2.068   3.136  15.431  0.1650 -0.0196  1.3790
 4468TIP3   OH234894   0.633   1.023  10.858  0.0628 -0.1717 -0.0141
 4468TIP3    H134895   0.559   1.084  10.856  0.9873  1.0760  1.4723
 4468TIP3    H234896   0.601   0.947  10.906 -0.2840  0.3402  0.5761
 4469TIP3   OH234897   5.213   6.612  16.463  0.6966  0.4863  0.6881
 4469TIP3    H134898   5.199   6.629  16.369  1.6974  0.9859  0.6213
 4469TIP3    H234899   5.270   6.683  16.492  3.1544 -1.4495  0.9148
 4470TIP3   OH234900   4.068   0.007  14.207 -0.4069  0.0257  0.1763
 4470TIP3    H134901   4.004   0.009  14.136 -0.8924 -2.1070  0.4947
 4470TIP3    H234902   4.151  -0.012  14.163 -0.6949 -1.2164  0.1336
 4471TIP3   OH234903   6.005   6.388  11.643 -0.2189  0.3086 -0.1006
 4471TIP3    H134904   5.923   6.428  11.614 -0.2115 -0.3773 -1.1032
 4471TIP3    H234905   6.070   6.414  11.578 -0.0623 -0.7321 -0.3824
 4472TIP3   OH234906   4.620   3.125   5.881 -0.4233  0.0446  0.4804
 4472TIP3    H134907   4.696   3.092   5.833 -0.2573  1.6248 -0.3929
 4472TIP3    H234908   4.657   3.164   5.960 -0.2469  1.3613 -0.2385
 4473TIP3   OH234909   0.572   5.325   3.863 -0.0183 -0.6101 -0.7762
 4473TIP3    H134910   0.484   5.300   3.891 -0.0142 -0.2007 -0.4007
 4473TIP3    H234911   0.586   5.411   3.900  0.6572 -0.7941 -0.5878
 4474TIP3   OH234912   4.835   4.719  11.877  0.3658  0.6227 -0.3211
 4474TIP3    H134913   4.821   4.653  11.945 -1.3863 -1.0414 -2.1403
 4474TIP3    H234914   4.747   4.752  11.858  0.6443  0.2531 -2.4611
 4475TIP3   OH234915   1.743   0.458  11.731  0.4110 -0.0547  0.0813
 4475TIP3    H134916   1.812   0.456  11.798  0.3192 -0.4035  0.1655
 4475TIP3    H234917   1.668   0.417  11.774 -0.3157  1.6172  0.5119
 4476TIP3   OH234918   3.064   2.310  15.458 -0.3278 -0.2710 -0.2977
 4476TIP3    H134919   3.159   2.317  15.447 -0.4483 -0.4682 -1.6393
 4476TIP3    H234920   3.052   2.235  15.517  0.4150  1.7004  2.6012
 4477TIP3   OH234921   3.744   4.856  10.709 -0.1262  0.3045  0.0999
 4477TIP3    H134922   3.673   4.832  10.769 -0.2669 -0.1988 -0.2658
 4477TIP3    H234923   3.733   4.950  10.695 -0.9024  0.1674 -0.1985
 4478TIP3   OH234924   1.544   2.405   2.174 -0.0095  0.0989  0.2905
 4478TIP3    H134925   1.635   2.429   2.156  0.4882 -0.7006  1.5677
 4478TIP3    H234926   1.538   2.312   2.150 -0.7000  0.3348 -0.4855
 4479TIP3   OH234927   3.375   0.086  13.206 -0.3038  0.0442 -0.4559
 4479TIP3    H134928   3.434   0.038  13.148 -1.2709 -0.1859 -1.2835
 4479TIP3    H234929   3.432   0.145  13.255  0.7042 -0.7654 -0.6195
 4480TIP3   OH234930   1.729   1.217  17.077  0.7236  0.1419 -0.2338
 4480TIP3    H134931   1.644   1.260  17.072  0.5848 -0.1558 -0.4976
 4480TIP3    H234932   1.722   1.157  17.151  0.6414 -0.0160 -0.3694
 4481TIP3   OH234933   2.176   1.950   2.554  0.4611  0.2244  0.4415
 4481TIP3    H134934   2.215   1.947   2.642  0.8966 -0.3146  0.2370
 4481TIP3    H234935   2.185   2.042   2.528  1.2782  0.1852  0.5505
 4482TIP3   OH234936   4.234   2.967  13.274  0.9964 -0.2240 -0.0481
 4482TIP3    H134937   4.243   2.975  13.179 -0.8658  1.3398 -0.1473
 4482TIP3    H234938   4.162   3.026  13.296  1.9150  0.0562  2.4524
 4483TIP3   OH234939   1.389   3.396   2.012 -0.1397 -0.1170  0.4524
 4483TIP3    H134940   1.425   3.368   1.928 -2.1727 -2.1692  0.1844
 4483TIP3    H234941   1.417   3.329   2.074 -0.9488 -0.1092  0.8332
 4484TIP3   OH234942   4.233   4.709  13.356  0.5546  0.2461  0.3120
 4484TIP3    H134943   4.303   4.773  13.343  0.1625  0.5434 -0.4485
 4484TIP3    H234944   4.268   4.627  13.321  0.0071  0.7347 -1.5326
 4485TIP3   OH234945   2.410   3.214  12.180 -0.1972  0.0289 -0.1974
 4485TIP3    H134946   2.490   3.180  12.140 -0.8357  0.7864 -2.2391
 4485TIP3    H234947   2.441   3.277  12.245  0.9042 -2.0956  1.4766
 4486TIP3   OH234948   3.871   1.669   1.355  0.4342  0.1065  0.4324
 4486TIP3    H134949   3.832   1.741   1.404  0.4202 -0.1677  0.8238
 4486TIP3    H234950   3.920   1.712   1.285  1.3392  0.5585  1.3134
 4487TIP3   OH234951   6.287   0.426  15.454  0.2269 -0.0795 -0.2307
 4487TIP3    H134952   6.314   0.410  15.544 -0.3637  3.7436  0.8220
 4487TIP3    H234953   6.203   0.381  15.446  0.2670 -0.4385  1.1607
 4488TIP3   OH234954   5.235   2.204  14.485  0.4370  0.4713  0.2280
 4488TIP3    H134955   5.318   2.162  14.506 -0.8111 -1.6810  1.1675
 4488TIP3    H234956   5.173   2.132  14.474 -1.2156  1.9772 -1.0135
 4489TIP3   OH234957   2.860   6.019   5.324 -0.2130 -0.0957  0.4184
 4489TIP3    H134958   2.784   6.067   5.356  0.8409  2.0707 -0.1352
 4489TIP3    H234959   2.907   6.082   5.269  1.1399 -1.8641 -0.5809
 4490TIP3   OH234960   3.456   6.260   6.656 -0.3977  0.2726 -0.4912
 4490TIP3    H134961   3.427   6.200   6.725  0.1317 -0.7213 -1.0881
 4490TIP3    H234962   3.411   6.342   6.674 -1.4032 -0.4003  0.1791
 4491TIP3   OH234963   0.200   0.755   6.126  0.0145  0.5463 -0.4748
 4491TIP3    H134964   0.215   0.709   6.044  0.9324  0.7497 -0.4416
 4491TIP3    H234965   0.194   0.848   6.102 -0.1179  0.5685 -0.3599
 4492TIP3   OH234966   2.192   5.802   5.514 -0.2894 -0.7247  0.1188
 4492TIP3    H134967   2.212   5.854   5.592 -0.5248 -0.3696 -0.0570
 4492TIP3    H234968   2.170   5.866   5.447 -2.6864 -1.0842  0.4616
 4493TIP3   OH234969   6.576   4.730   6.483 -0.3186 -0.1458 -0.5866
 4493TIP3    H134970   6.642   4.725   6.415  0.5260  1.6669  0.0356
 4493TIP3    H234971   6.585   4.818   6.519 -2.5915 -0.1016  0.0245
 4494TIP3   OH234972   6.116   5.508   1.167  0.0534  0.1395  0.2782
 4494TIP3    H134973   6.145   5.438   1.225 -0.4177  0.8103  1.3591
 4494TIP3    H234974   6.158   5.586   1.201 -1.7731  0.8828  0.9986
 4495TIP3   OH234975   2.817   4.063  12.927  0.3724 -0.2034 -0.1375
 4495TIP3    H134976   2.754   4.122  12.968 -1.5972 -1.4265 -1.2314
 4495TIP3    H234977   2.896   4.115  12.916 -0.2998  1.2942  1.6294
 4496TIP3   OH234978   5.721   0.621   4.424 -0.1360 -0.2502  0.9286
 4496TIP3    H134979   5.766   0.537   4.428 -1.7461 -1.2292 -0.4115
 4496TIP3    H234980   5.629   0.599   4.410 -0.5667  1.7367  0.2649
 4497TIP3   OH234981   0.731   5.928  15.665  0.4660  0.8271  0.2671
 4497TIP3    H134982   0.819   5.898  15.643  0.5411  1.0397  0.2763
 4497TIP3    H234983   0.699   5.967  15.583  0.7168  1.5527  0.5093
 4498TIP3   OH234984   1.639   3.857  10.908  0.2609  0.0586 -0.6473
 4498TIP3    H134985   1.589   3.782  10.942  0.9495 -0.4937 -0.8227
 4498TIP3    H234986   1.585   3.933  10.930  1.2021 -0.0939  2.8973
 4499TIP3   OH234987   1.664   2.486  13.094  0.8319 -0.4303  0.0184
 4499TIP3    H134988   1.718   2.563  13.080 -0.3614  0.2128 -1.2343
 4499TIP3    H234989   1.634   2.494  13.185 -0.6980  1.5511 -0.5926
 4500TIP3   OH234990   6.320   5.863  10.805  0.1911 -0.1231 -0.4571
 4500TIP3    H134991   6.299   5.771  10.821 -0.2295  0.1494  0.6612
 4500TIP3    H234992   6.408   5.874  10.841  0.1332 -0.0266 -0.3446
 4501TIP3   OH234993   3.593   6.120  13.268  0.1175  0.4169  0.2407
 4501TIP3    H134994   3.577   6.146  13.177  1.0339 -0.2587 -0.1282
 4501TIP3    H234995   3.536   6.044  13.281  0.4983  0.0900  0.0080
 4502TIP3   OH234996   4.751   2.503  13.858 -0.1895  0.8857  0.2250
 4502TIP3    H134997   4.776   2.528  13.769  2.3079 -0.1080  0.5758
 4502TIP3    H234998   4.829   2.459  13.894 -2.3519 -2.2515  1.5743
 4503TIP3   OH234999   3.555   2.562   2.527 -0.5887 -0.3963 -0.7722
 4503TIP3    H135000   3.569   2.630   2.461 -0.5016  0.3496  0.0002
 4503TIP3    H235001   3.476   2.517   2.498 -1.3584  0.8352 -0.6367
 4504TIP3   OH235002   5.919   6.653  14.533  0.8617  0.0560  0.1650
 4504TIP3    H135003   5.912   6.749  14.535 -1.6808  0.1380 -3.1880
 4504TIP3    H235004   5.862   6.623  14.604 -0.1747  1.0826 -0.1964
 4505TIP3   OH235005   5.174   5.484   6.534  0.1093 -0.2796  0.1220
 4505TIP3    H135006   5.267   5.465   6.524 -0.1186 -1.1933 -0.2822
 4505TIP3    H235007   5.157   5.472   6.628  0.5330  0.5528  0.3174
 4506TIP3   OH235008   6.172   1.641  16.670 -0.3024  0.1018  0.4653
 4506TIP3    H135009   6.204   1.552  16.660  1.1692  0.6832 -0.2311
 4506TIP3    H235010   6.236   1.696  16.625 -1.5181  1.4653  0.3031
 4507TIP3   OH235011   6.212   4.632  13.027 -0.6297  0.3042 -0.4775
 4507TIP3    H135012   6.126   4.596  13.049 -0.5151 -0.5701 -1.4118
 4507TIP3    H235013   6.271   4.557  13.033  0.0082  0.8149 -0.2471
 4508TIP3   OH235014   0.733   4.184  11.956  0.3514 -0.4022 -0.2806
 4508TIP3    H135015   0.787   4.260  11.937  1.7666 -1.1460  0.5651
 4508TIP3    H235016   0.649   4.220  11.984  0.8030  0.8241 -0.4492
 4509TIP3   OH235017   2.336   3.969  11.293  0.4315 -0.2892  0.0636
 4509TIP3    H135018   2.380   4.054  11.286  1.4744 -0.8510 -0.3826
 4509TIP3    H235019   2.310   3.948  11.203  1.2781 -1.0052 -0.0256
 4510TIP3   OH235020   3.632   2.143   3.169  0.4012  0.3296  0.1156
 4510TIP3    H135021   3.595   2.176   3.086 -2.3254 -3.0113 -0.1856
 4510TIP3    H235022   3.727   2.155   3.158  0.2311 -0.4046 -3.7522
 4511TIP3   OH235023   1.336   5.620   2.605 -0.5433  0.0901  0.1140
 4511TIP3    H135024   1.431   5.624   2.591 -0.5760 -2.6584 -1.6952
 4511TIP3    H235025   1.299   5.624   2.517 -1.6941 -4.0589  0.2254
 4512TIP3   OH235026   0.728   5.008   0.182  0.4180 -0.3826 -0.6446
 4512TIP3    H135027   0.673   4.945   0.136  1.8211 -1.6026 -0.7013
 4512TIP3    H235028   0.675   5.037   0.256  0.3184 -2.8635  0.3418
 4513TIP3   OH235029   2.876   2.306  14.902  0.1952 -0.1486  0.3893
 4513TIP3    H135030   2.823   2.227  14.913  2.1545 -1.8226 -1.3371
 4513TIP3    H235031   2.914   2.322  14.989 -0.1278 -1.1678  0.7313
 4514TIP3   OH235032   6.279   1.451  14.476  0.1769  0.4111  0.3605
 4514TIP3    H135033   6.346   1.394  14.438  0.8858 -0.3776  2.6068
 4514TIP3    H235034   6.211   1.390  14.506 -1.0276  1.1178 -0.8441
 4515TIP3   OH235035   5.784   4.620  14.083 -0.4315 -0.0280 -0.2274
 4515TIP3    H135036   5.820   4.534  14.059 -0.7361 -0.1261 -0.3334
 4515TIP3    H235037   5.838   4.648  14.157 -0.1568 -0.1911 -0.3639
 4516TIP3   OH235038   2.028   1.699   4.110 -0.1547 -0.3865  0.3511
 4516TIP3    H135039   2.038   1.685   4.016 -1.1744  1.5400 -0.0972
 4516TIP3    H235040   1.936   1.720   4.122 -0.0153 -0.4409  1.7849
 4517TIP3   OH235041   5.899   6.162   3.509 -0.1363  0.2221  0.6044
 4517TIP3    H135042   5.955   6.231   3.543 -0.5900  0.1517  1.5459
 4517TIP3    H235043   5.850   6.203   3.438 -2.6952  1.8990  3.0869
 4518TIP3   OH235044   0.624   4.128  11.629 -0.3502 -0.3308 -0.0047
 4518TIP3    H135045   0.558   4.100  11.693  0.1949 -1.4394  0.0983
 4518TIP3    H235046   0.608   4.072  11.553 -0.0415 -0.0461 -0.2800
 4519TIP3   OH235047   5.821   1.408  15.939  0.0314  0.3585 -0.5520
 4519TIP3    H135048   5.761   1.360  15.881 -1.0662 -0.3643  1.1255
 4519TIP3    H235049   5.901   1.418  15.887 -0.8011 -0.5279 -2.0817
 4520TIP3   OH235050   3.995   6.006  11.406  0.2152  0.1866 -0.0064
 4520TIP3    H135051   3.995   5.910  11.410  0.2582  0.1831 -0.0852
 4520TIP3    H235052   4.056   6.033  11.475 -1.5556  0.2372  1.6376
 4521TIP3   OH235053   5.511   0.766   5.367  0.3858  0.1262 -0.8239
 4521TIP3    H135054   5.483   0.812   5.288  2.0706  2.6908 -0.0608
 4521TIP3    H235055   5.434   0.770   5.424 -0.2201 -0.0128 -1.6123
 4522TIP3   OH235056   3.147   5.587   5.488 -0.7539  0.5801  0.6542
 4522TIP3    H135057   3.210   5.536   5.438 -2.6117 -0.5980 -0.6236
 4522TIP3    H235058   3.120   5.657   5.428  0.2002  1.8122  1.6255
 4523TIP3   OH235059   3.754   6.027   2.328  0.1122 -0.3288  0.0916
 4523TIP3    H135060   3.668   5.994   2.302  0.4228 -1.0665 -0.0361
 4523TIP3    H235061   3.747   6.122   2.320 -0.5311 -0.4124 -0.4088
 4524TIP3   OH235062   2.026   6.120   0.968 -0.1360  0.1068  0.6606
 4524TIP3    H135063   2.113   6.129   0.929 -0.1695 -0.2229  0.5058
 4524TIP3    H235064   2.012   6.025   0.973 -0.2169  0.1476  1.2829
 4525TIP3   OH235065   2.514   0.735   0.394  0.3461  0.3668  0.5477
 4525TIP3    H135066   2.539   0.735   0.301  0.9351  2.6085  0.6479
 4525TIP3    H235067   2.475   0.649   0.408  4.3137 -1.9187 -0.6763
 4526TIP3   OH235068   0.327   2.203  13.032 -0.5653  0.4101 -0.3053
 4526TIP3    H135069   0.414   2.176  13.002  0.1025 -2.6109  3.5824
 4526TIP3    H235070   0.338   2.294  13.060  1.5386 -0.0362  0.5291
 4527TIP3   OH235071   3.528   1.013   0.450  0.6509  0.1318 -0.2891
 4527TIP3    H135072   3.457   0.989   0.510  1.4577  2.5388  1.7863
 4527TIP3    H235073   3.593   0.944   0.463 -0.6713 -1.3921 -1.2570
 4528TIP3   OH235074   0.660   0.386   2.055 -0.2779 -0.1920 -0.1863
 4528TIP3    H135075   0.634   0.471   2.092  0.6977 -0.4970  1.2907
 4528TIP3    H235076   0.592   0.366   1.990 -0.9243  1.3634 -0.0269
 4529TIP3   OH235077   2.728   2.971   4.366 -0.3433 -0.0141 -0.2879
 4529TIP3    H135078   2.810   2.977   4.416 -0.7840  1.8685  0.3081
 4529TIP3    H235079   2.683   2.895   4.403 -0.3920  0.9743  1.8287
 4530TIP3   OH235080   1.523   3.417  14.448 -0.1575  0.8596  0.3251
 4530TIP3    H135081   1.466   3.494  14.458 -0.5179  0.7553 -0.8509
 4530TIP3    H235082   1.501   3.362  14.523 -1.0498  1.1779  0.3141
 4531TIP3   OH235083   2.206   3.810  17.487  0.0700  1.1347  0.2417
 4531TIP3    H135084   2.125   3.821  17.536 -0.4484  1.4489 -0.6493
 4531TIP3    H235085   2.198   3.724  17.447  0.1716  1.1697  0.1455
 4532TIP3   OH235086   4.721   0.731  12.139 -0.4902 -0.8919 -0.1694
 4532TIP3    H135087   4.647   0.771  12.095 -0.2416  1.4475  1.3661
 4532TIP3    H235088   4.695   0.727  12.231  0.5226 -1.9507  0.1004
 4533TIP3   OH235089   4.719   1.267  12.037 -0.0576  0.6142 -0.5454
 4533TIP3    H135090   4.761   1.187  12.003 -1.4315 -0.3791  0.0151
 4533TIP3    H235091   4.628   1.261  12.007 -0.3254  1.6754  0.0190
 4534TIP3   OH235092   0.193   1.911   0.775  0.1606  0.0845 -0.2649
 4534TIP3    H135093   0.139   1.960   0.713  1.4075  0.8253 -0.8060
 4534TIP3    H235094   0.199   1.968   0.852 -1.9078 -1.0983  0.8720
 4535TIP3   OH235095   0.926   0.534  11.433  0.2817 -0.3137  0.1515
 4535TIP3    H135096   0.846   0.578  11.404  0.8358  0.1600 -0.7220
 4535TIP3    H235097   0.937   0.560  11.524 -0.8082 -0.7657  0.4232
 4536TIP3   OH235098   3.525   6.209   4.701  0.5503 -0.3872  0.3165
 4536TIP3    H135099   3.575   6.245   4.628 -1.0038  0.5067 -0.3418
 4536TIP3    H235100   3.438   6.193   4.665  0.4055 -2.2184  1.3511
 4537TIP3   OH235101   6.274   2.253   2.438 -0.3299 -0.3728  0.5663
 4537TIP3    H135102   6.192   2.215   2.469 -0.4545 -0.3763  0.2394
 4537TIP3    H235103   6.342   2.197   2.476 -0.4835 -0.4375  0.7470
 4538TIP3   OH235104   4.638   0.709  17.311  0.1237  0.5056  0.1598
 4538TIP3    H135105   4.716   0.690  17.363  0.1043 -0.7616 -0.2455
 4538TIP3    H235106   4.668   0.703  17.220 -0.0332  1.8483  0.0042
 4539TIP3   OH235107   6.101   2.492   5.748  0.0193  0.7777  0.2184
 4539TIP3    H135108   6.078   2.447   5.667 -0.1229  0.1484  0.6018
 4539TIP3    H235109   6.111   2.422   5.813 -1.2889  1.3749  1.0982
 4540TIP3   OH235110   4.807   5.293  13.400  0.1472  0.2223 -0.6288
 4540TIP3    H135111   4.788   5.221  13.461 -0.5982  0.1020 -0.9851
 4540TIP3    H235112   4.860   5.354  13.450  0.2070 -0.2519 -0.1043
 4541TIP3   OH235113   4.621   2.895   1.715  0.3280  0.4317  0.2299
 4541TIP3    H135114   4.562   2.820   1.712  2.1874 -1.0532 -1.7790
 4541TIP3    H235115   4.593   2.951   1.642  0.3928  0.5204  0.2721
 4542TIP3   OH235116   6.449   3.431  14.378 -0.3467 -0.0303 -0.1198
 4542TIP3    H135117   6.464   3.342  14.409 -0.5275  0.1849  0.5968
 4542TIP3    H235118   6.446   3.484  14.457 -0.8631  0.5266 -0.5042
 4543TIP3   OH235119   5.164   0.771  12.202  0.0939  0.3439  0.1584
 4543TIP3    H135120   5.196   0.828  12.132  1.3835  0.0202  0.4510
 4543TIP3    H235121   5.076   0.745  12.174 -0.5989  2.5650  0.0820
 4544TIP3   OH235122   5.471   4.734   1.976  0.0392 -0.0870  0.3541
 4544TIP3    H135123   5.416   4.690   1.911 -0.9169 -1.3595  1.9502
 4544TIP3    H235124   5.410   4.762   2.044  1.1386  0.2900  1.2107
 4545TIP3   OH235125   2.939   4.272   6.115  0.5431 -0.2542 -0.3610
 4545TIP3    H135126   3.011   4.234   6.164  0.6204  0.8440  0.4119
 4545TIP3    H235127   2.866   4.211   6.128  1.7202 -2.2895 -2.5622
 4546TIP3   OH235128   0.853   2.027   5.607 -0.3319  0.0320 -0.7359
 4546TIP3    H135129   0.898   1.944   5.593 -0.4515  0.1750 -2.0500
 4546TIP3    H235130   0.922   2.088   5.634 -0.1691 -0.3628 -0.2369
 4547TIP3   OH235131   2.969   5.722  13.908  0.4367  0.0458  0.2197
 4547TIP3    H135132   2.918   5.727  13.988 -0.5763  0.8551 -0.4481
 4547TIP3    H235133   3.043   5.781  13.922 -0.0203  0.5934  0.3754
 4548TIP3   OH235134   2.383   4.196   3.712  0.2677  0.4134  0.3545
 4548TIP3    H135135   2.384   4.119   3.654 -0.5099  0.5443  0.1512
 4548TIP3    H235136   2.300   4.189   3.760  1.5095 -0.4311  2.5015
 4549TIP3   OH235137   0.716   0.644  12.987  0.2414  0.1110  0.4760
 4549TIP3    H135138   0.668   0.709  13.037 -0.4760  0.4284 -0.5836
 4549TIP3    H235139   0.785   0.693  12.943  1.3012 -0.2721  1.6328
 4550TIP3   OH235140   3.204   1.373  12.366  0.5470 -0.1453  0.7605
 4550TIP3    H135141   3.168   1.307  12.425  1.9099 -2.0011 -0.3760
 4550TIP3    H235142   3.198   1.333  12.279  0.9612  1.4593 -0.0432
 4551TIP3   OH235143   2.521   4.181  16.090 -0.2108 -0.1679  0.1673
 4551TIP3    H135144   2.585   4.252  16.090 -0.8709  0.4587 -1.0236
 4551TIP3    H235145   2.440   4.221  16.057 -0.6097 -1.4511 -0.4798
 4552TIP3   OH235146   6.483   5.833  14.332 -0.4308  0.0448 -0.0572
 4552TIP3    H135147   6.421   5.856  14.262  0.2931 -0.9987 -1.0700
 4552TIP3    H235148   6.457   5.745  14.360  1.8900 -1.3989 -2.0702
 4553TIP3   OH235149   5.987   1.404   3.566  0.2203  0.0494 -0.2420
 4553TIP3    H135150   5.898   1.378   3.544  0.1004  1.2050 -1.2716
 4553TIP3    H235151   5.982   1.438   3.655 -0.4086  0.2532 -0.3544
 4554TIP3   OH235152   4.790   2.071   5.463  0.2319 -0.2495 -0.4075
 4554TIP3    H135153   4.779   1.989   5.511 -1.8818 -0.1722 -0.6773
 4554TIP3    H235154   4.872   2.107   5.496  0.9410 -2.2104  0.0857
 4555TIP3   OH235155   6.222   0.442   2.593  0.0001  0.0661 -0.5125
 4555TIP3    H135156   6.287   0.493   2.545  1.1976 -1.4731 -0.5824
 4555TIP3    H235157   6.232   0.353   2.562  0.6807 -0.9767  2.3507
 4556TIP3   OH235158   2.418   3.469  15.796  0.1427 -0.6209 -0.3738
 4556TIP3    H135159   2.511   3.489  15.795  0.2890 -1.2520 -1.8111
 4556TIP3    H235160   2.378   3.536  15.740 -0.3292 -0.1387  0.5161
 4557TIP3   OH235161   1.683   4.510   2.898 -0.1701 -0.5842 -0.2854
 4557TIP3    H135162   1.615   4.573   2.921 -2.2875 -2.3737 -1.2631
 4557TIP3    H235163   1.682   4.506   2.802  1.6667 -0.3371 -0.3579
 4558TIP3   OH235164   0.431   4.191   0.218  0.0477  0.4264  0.4310
 4558TIP3    H135165   0.526   4.184   0.208  0.1110 -2.2966  1.8450
 4558TIP3    H235166   0.402   4.236   0.138  2.2051 -1.8552 -1.8435
 4559TIP3   OH235167   4.148   5.363   5.848 -0.1863  0.4587  0.0100
 4559TIP3    H135168   4.234   5.384   5.813 -0.2147  2.0353  0.7999
 4559TIP3    H235169   4.090   5.364   5.772  0.3098  0.4249 -0.3762
 4560TIP3   OH235170   2.852   3.690   2.660 -0.3752 -0.1298  0.3370
 4560TIP3    H135171   2.900   3.756   2.610  2.2342 -1.9754  0.2203
 4560TIP3    H235172   2.761   3.701   2.632  0.2187  2.2174 -0.9638
 4561TIP3   OH235173   2.979   1.032   3.203  0.3442 -0.0633  0.4147
 4561TIP3    H135174   3.021   1.010   3.287  2.9429  3.7408  0.3703
 4561TIP3    H235175   2.899   1.079   3.228  0.1992 -0.4505  0.6917
 4562TIP3   OH235176   5.993   0.180  11.403  0.1593 -0.0216  0.0770
 4562TIP3    H135177   6.055   0.108  11.415 -0.1078 -0.1369  0.7978
 4562TIP3    H235178   5.907   0.139  11.410 -0.0006  0.2252 -0.3994
 4563TIP3   OH235179   4.819   1.337   0.427 -0.2868 -0.6223 -0.5116
 4563TIP3    H135180   4.909   1.330   0.396 -0.1396 -1.7260  0.1134
 4563TIP3    H235181   4.801   1.431   0.428  0.7183 -0.4155 -1.0174
 4564TIP3   OH235182   2.967   6.393  16.844 -0.0386  0.4334  0.1474
 4564TIP3    H135183   2.916   6.473  16.859 -0.8910 -0.4499  2.3546
 4564TIP3    H235184   3.045   6.404  16.899  0.0420 -0.0564  0.1359
 4565TIP3   OH235185   1.275   2.911   3.691  0.7168 -0.0288  0.3687
 4565TIP3    H135186   1.215   2.982   3.713  0.2185 -0.2054 -0.3518
 4565TIP3    H235187   1.266   2.848   3.763 -0.0836 -0.1196  0.2031
 4566TIP3   OH235188   1.588   2.598  12.230 -0.5432  0.1113 -0.4905
 4566TIP3    H135189   1.540   2.613  12.149 -0.3603 -1.2101 -0.8644
 4566TIP3    H235190   1.601   2.503  12.234 -0.0169  0.2078  0.7813
 4567TIP3   OH235191   3.738   6.394  11.453 -0.7449 -0.0470 -0.9293
 4567TIP3    H135192   3.672   6.325  11.454 -0.8927  0.0816 -1.5399
 4567TIP3    H235193   3.688   6.476  11.450 -0.5841  0.0206 -3.2008
 4568TIP3   OH235194   6.678   4.538  13.518  0.0070  0.0092  0.5016
 4568TIP3    H135195   6.710   4.524  13.429 -0.8475  0.7229  0.0664
 4568TIP3    H235196   6.757   4.560  13.568  0.5739 -0.9493  0.0588
 4569TIP3   OH235197   0.673   6.025   6.732  0.4076  0.1210  0.3540
 4569TIP3    H135198   0.706   6.108   6.767  0.5994  0.0714  0.2909
 4569TIP3    H235199   0.604   5.999   6.794  1.5489 -0.5730  1.3810
 4570TIP3   OH235200   5.280   3.123  15.149  0.3837  0.5541 -0.6664
 4570TIP3    H135201   5.349   3.132  15.084  1.3408 -1.5534 -0.0319
 4570TIP3    H235202   5.319   3.156  15.230  0.2850  0.2892 -0.5111
 4571TIP3   OH235203   3.297   0.358  12.031  0.9263 -0.0415 -0.2567
 4571TIP3    H135204   3.256   0.271  12.030  0.3939  0.1844  1.1852
 4571TIP3    H235205   3.378   0.345  12.081  0.5948  0.3974  0.3992
 4572TIP3   OH235206   6.134   4.018  11.914 -0.1197  0.2485  0.1672
 4572TIP3    H135207   6.081   4.020  11.994 -2.1464 -1.0079 -1.0433
 4572TIP3    H235208   6.072   4.036  11.843  1.4055  0.3103 -1.2222
 4573TIP3   OH235209   0.213   1.753  15.395 -0.2969 -0.2345  0.0217
 4573TIP3    H135210   0.283   1.802  15.353 -0.6350 -1.4844 -2.1299
 4573TIP3    H235211   0.246   1.663  15.398 -0.4383 -0.2752  2.2110
 4574TIP3   OH235212   1.993   2.320   1.014 -0.1035  0.6817 -0.6005
 4574TIP3    H135213   1.930   2.248   1.019 -0.0318  0.6874  1.1226
 4574TIP3    H235214   1.971   2.376   1.089  1.5722  0.9816 -0.2931
 4575TIP3   OH235215   3.251   1.458   2.320  0.1096  0.2677  0.2383
 4575TIP3    H135216   3.259   1.367   2.291 -1.7430 -0.9187  3.0852
 4575TIP3    H235217   3.339   1.481   2.350  1.1176  0.2390 -2.4535
 4576TIP3   OH235218   5.455   1.494  16.262  0.5699  0.6359 -0.7615
 4576TIP3    H135219   5.392   1.428  16.230 -0.1886  2.3301 -3.0745
 4576TIP3    H235220   5.536   1.474  16.215  1.0532 -0.0091  0.3078
 4577TIP3   OH235221   4.577   3.886   0.947  0.2772 -0.4807 -0.1406
 4577TIP3    H135222   4.633   3.964   0.947 -1.3387  0.8362 -2.9950
 4577TIP3    H235223   4.638   3.813   0.938  1.6938  0.8093 -1.7853
 4578TIP3   OH235224   6.224   5.224  16.511 -0.3058 -0.1011  0.2326
 4578TIP3    H135225   6.262   5.140  16.485 -0.4684 -0.2802  0.5704
 4578TIP3    H235226   6.296   5.287  16.503 -0.0276 -0.3783  0.5628
 4579TIP3   OH235227   5.654   5.814   3.497 -0.1251  0.7071  0.5762
 4579TIP3    H135228   5.561   5.798   3.508 -0.2792  0.1306 -1.2816
 4579TIP3    H235229   5.683   5.848   3.582 -2.2583  2.0883  0.8166
 4580TIP3   OH235230   3.308   0.464  11.081 -0.8998 -0.2845  0.4994
 4580TIP3    H135231   3.261   0.544  11.058 -2.3056 -0.9127  1.1301
 4580TIP3    H235232   3.304   0.410  11.002 -1.2060 -0.3318  0.5492
 4581TIP3   OH235233   3.315   5.871  14.315  0.0938  0.1838  1.1020
 4581TIP3    H135234   3.223   5.863  14.289  0.6380 -0.1188 -0.9298
 4581TIP3    H235235   3.324   5.961  14.344 -0.4846  0.7591 -0.3976
 4582TIP3   OH235236   6.149   3.460  15.660 -0.6073  0.3601  0.5096
 4582TIP3    H135237   6.243   3.451  15.674 -0.3326  0.6583 -1.0230
 4582TIP3    H235238   6.138   3.546  15.619 -1.2173 -0.7075 -1.7461
 4583TIP3   OH235239   5.114   5.794  12.102 -0.3383  0.3609  0.4576
 4583TIP3    H135240   5.042   5.793  12.165  0.3511  0.2534  1.2749
 4583TIP3    H235241   5.190   5.821  12.154  0.2354  0.3354 -0.3530
 4584TIP3   OH235242   3.909   6.514  11.236 -0.1811 -0.2681  0.3401
 4584TIP3    H135243   3.855   6.540  11.161  0.2273  1.3490  0.5659
 4584TIP3    H235244   3.848   6.518  11.311 -0.2941 -0.6652  0.2684
 4585TIP3   OH235245   0.628   1.652   1.494  0.4207  0.0904 -0.5031
 4585TIP3    H135246   0.626   1.687   1.583  1.4094  3.0022 -1.5290
 4585TIP3    H235247   0.722   1.643   1.474  0.2210 -0.0234 -1.4430
 4586TIP3   OH235248   6.746   0.508   2.890  0.2918 -0.5393  0.0319
 4586TIP3    H135249   6.833   0.468   2.892 -0.4976 -2.3244  0.2747
 4586TIP3    H235250   6.751   0.579   2.954  2.1396  0.6762 -1.3903
 4587TIP3   OH235251   2.418   5.234   5.390  0.5468 -0.1323 -0.5046
 4587TIP3    H135252   2.432   5.253   5.482 -0.4900 -0.6624 -0.2193
 4587TIP3    H235253   2.426   5.139   5.383 -2.7697 -0.5703 -0.2462
 4588TIP3   OH235254   4.705   0.086   3.585  0.0234 -0.4494  0.0839
 4588TIP3    H135255   4.792   0.047   3.574  0.3773 -0.9054  3.4965
 4588TIP3    H235256   4.722   0.179   3.600 -0.0573 -0.5173  0.6257
 4589TIP3   OH235257   6.143   4.801   5.337  0.4921  0.5764  0.6583
 4589TIP3    H135258   6.238   4.794   5.326  0.2345 -0.4785 -1.2754
 4589TIP3    H235259   6.115   4.862   5.270 -0.4597 -1.1046 -0.5526
 4590TIP3   OH235260   1.280   3.596   3.315 -0.3295  0.0336 -0.2548
 4590TIP3    H135261   1.313   3.534   3.249  0.6108  0.8601 -0.5774
 4590TIP3    H235262   1.358   3.636   3.351 -0.9151  0.6773  0.3103
 4591TIP3   OH235263   5.653   0.560  15.748  0.4198  0.2675  0.2420
 4591TIP3    H135264   5.703   0.641  15.761 -1.4632  1.4265  0.6649
 4591TIP3    H235265   5.617   0.567  15.660  0.8748 -0.4875 -0.0112
 4592TIP3   OH235266   0.044   2.753   4.613  0.0000 -0.5437  0.0903
 4592TIP3    H135267   0.096   2.833   4.608  0.3685 -0.8033 -0.2839
 4592TIP3    H235268   0.088   2.699   4.679 -0.2440 -0.4456  0.3368
 4593TIP3   OH235269   0.045   2.112   0.207  0.2225 -0.7449  0.0527
 4593TIP3    H135270   0.085   2.040   0.257  0.0740  0.2623  1.7254
 4593TIP3    H235271  -0.043   2.081   0.188  0.1891 -1.0485  0.6684
 4594TIP3   OH235272   4.142   1.222   3.383 -0.0400 -0.3056 -0.2499
 4594TIP3    H135273   4.184   1.255   3.304 -0.4934  0.2009 -0.2868
 4594TIP3    H235274   4.090   1.148   3.354  1.0161 -1.1077 -0.1631
 4595TIP3   OH235275   3.171   3.536  14.638  0.1139  0.2672 -0.2365
 4595TIP3    H135276   3.118   3.585  14.575 -1.5266 -0.3978  0.5371
 4595TIP3    H235277   3.242   3.595  14.662 -2.2371  2.6799  1.3040
 4596TIP3   OH235278   5.629   1.470   3.980  0.4386 -0.3845 -0.7500
 4596TIP3    H135279   5.583   1.386   3.975  0.4912 -0.4682 -0.0095
 4596TIP3    H235280   5.590   1.514   4.055  1.3503 -0.3367 -0.2873
 4597TIP3   OH235281   0.117   3.401   1.804  0.0215 -0.4420  0.0032
 4597TIP3    H135282   0.171   3.473   1.772 -2.1397  1.5941  0.5763
 4597TIP3    H235283   0.093   3.427   1.893 -1.9316 -1.1553 -0.2499
 4598TIP3   OH235284   6.100   2.328   6.252 -0.0557 -0.3494 -0.6261
 4598TIP3    H135285   6.065   2.254   6.203 -0.8870  0.5422 -1.4392
 4598TIP3    H235286   6.058   2.405   6.213  3.6024  0.9695 -2.4631
 4599TIP3   OH235287   1.280   3.140  14.646 -0.2396 -0.2813  0.1662
 4599TIP3    H135288   1.296   3.096  14.563 -1.4280 -0.4776  0.0316
 4599TIP3    H235289   1.215   3.207  14.625  0.3527  0.4847  0.6992
 4600TIP3   OH235290   0.798   5.000  12.879  0.2803 -0.0057  0.0280
 4600TIP3    H135291   0.704   5.010  12.865 -0.2311 -0.4848  2.7496
 4600TIP3    H235292   0.830   5.090  12.889  0.3124  0.2162 -1.7418
 4601TIP3   OH235293   0.582   1.839   1.756  0.0475  0.4319  0.5524
 4601TIP3    H135294   0.546   1.853   1.844 -1.1163 -0.5556  0.2636
 4601TIP3    H235295   0.642   1.912   1.742 -1.5118  1.9017  1.2544
 4602TIP3   OH235296   2.077   0.677   3.818 -0.5764 -0.2521 -0.2125
 4602TIP3    H135297   2.031   0.761   3.813 -1.3254 -0.6200  0.3767
 4602TIP3    H235298   2.052   0.632   3.737 -1.2898 -0.4618  0.1184
 4603TIP3   OH235299   3.874   2.514  12.131 -0.0185  0.1615 -0.2225
 4603TIP3    H135300   3.966   2.500  12.106 -0.1774 -1.5315  0.0014
 4603TIP3    H235301   3.851   2.435  12.179 -1.1128  1.2964  1.1938
 4604TIP3   OH235302   0.578   4.960  14.593 -0.6968 -0.1904 -0.6719
 4604TIP3    H135303   0.565   4.897  14.665  3.0452 -0.7935 -0.3497
 4604TIP3    H235304   0.597   4.906  14.517  2.0142  0.4156 -0.5151
 4605TIP3   OH235305   5.727   5.741  16.270  0.1296 -0.1779  0.3227
 4605TIP3    H135306   5.718   5.796  16.192 -0.1479  1.4041  1.4247
 4605TIP3    H235307   5.821   5.726  16.278  0.0851 -1.3571 -0.9437
 4606TIP3   OH235308   0.967   1.447   0.679 -0.0865 -0.2825 -0.0073
 4606TIP3    H135309   0.913   1.439   0.601  1.0120  1.4999 -1.0165
 4606TIP3    H235310   1.050   1.405   0.655  0.0388 -0.2926  0.4358
 4607TIP3   OH235311   2.041   1.005   3.200  0.5053  0.1107 -0.3553
 4607TIP3    H135312   2.080   1.089   3.176  1.5033 -0.5001 -0.9287
 4607TIP3    H235313   2.112   0.942   3.192  0.2535 -0.5360  1.7815
 4608TIP3   OH235314   3.263   4.270  14.148 -0.4017 -0.0974  0.0622
 4608TIP3    H135315   3.291   4.231  14.065 -1.1997 -0.0816 -0.2309
 4608TIP3    H235316   3.196   4.334  14.122  1.7431  2.4704  0.3712
 4609TIP3   OH235317   3.467   2.451  12.814 -0.0398  0.7796 -0.0633
 4609TIP3    H135318   3.471   2.449  12.909  0.6230 -2.7975 -0.0365
 4609TIP3    H235319   3.555   2.476  12.786  0.6854 -1.2136  0.3233
 4610TIP3   OH235320   3.737   6.653  15.867 -0.3641  0.7355 -0.2367
 4610TIP3    H135321   3.793   6.682  15.795  0.9929  0.2368  0.5854
 4610TIP3    H235322   3.764   6.563  15.884 -1.4615  0.4627  0.1586
 4611TIP3   OH235323   6.539   2.908  15.612 -0.1179  0.4086  0.9490
 4611TIP3    H135324   6.501   2.908  15.700  1.2984  0.6641  1.5966
 4611TIP3    H235325   6.632   2.892  15.627  0.1830  0.7162 -0.4980
 4612TIP3   OH235326   5.286   2.309   4.155 -0.4095  0.0277  0.4300
 4612TIP3    H135327   5.355   2.350   4.104  2.1059 -1.3718  2.5032
 4612TIP3    H235328   5.273   2.368   4.229  0.8454 -1.1654  1.6592
 4613TIP3   OH235329   6.608   2.627  13.581  0.1731 -0.6737  0.1091
 4613TIP3    H135330   6.610   2.697  13.515 -0.9019 -0.0235  0.7473
 4613TIP3    H235331   6.550   2.560  13.543  0.2750 -0.7072  0.0104
 4614TIP3   OH235332   4.767   1.300  13.858  0.0380 -0.1343  0.4149
 4614TIP3    H135333   4.831   1.371  13.862 -0.5907  0.4963 -0.3956
 4614TIP3    H235334   4.818   1.224  13.831 -0.1020  1.3186 -5.5475
 4615TIP3   OH235335   0.629   1.830  14.120 -0.8896 -0.2056  0.1862
 4615TIP3    H135336   0.632   1.918  14.083  4.4066  0.4122  1.3176
 4615TIP3    H235337   0.688   1.778  14.064 -0.5940 -1.8814  1.9360
 4616TIP3   OH235338   5.988   6.584  12.572  0.3128 -0.6362  0.1742
 4616TIP3    H135339   6.019   6.602  12.660  2.5014  1.4761 -0.9108
 4616TIP3    H235340   5.919   6.649  12.557 -1.7141 -2.4512  1.0070
 4617TIP3   OH235341   1.848   0.143  14.578  0.0483  0.0282 -0.6492
 4617TIP3    H135342   1.864   0.195  14.656 -0.5578  0.0995 -0.5646
 4617TIP3    H235343   1.819   0.058  14.611 -0.6003  0.1877 -0.7909
 4618TIP3   OH235344   0.801   0.398  12.883 -0.0695 -0.1235 -0.3773
 4618TIP3    H135345   0.870   0.431  12.826 -1.1820 -0.3405 -1.9123
 4618TIP3    H235346   0.763   0.476  12.923 -0.3547  0.2003 -1.2461
 4619TIP3   OH235347   0.597   0.330  11.844 -0.4730 -0.0205 -0.2454
 4619TIP3    H135348   0.515   0.373  11.868  0.2101  1.2261 -0.1057
 4619TIP3    H235349   0.611   0.265  11.914 -2.3942 -1.7775 -1.3629
 4620TIP3   OH235350   5.763   0.380  13.712 -0.0608  0.2976  0.1297
 4620TIP3    H135351   5.826   0.409  13.777  0.8158  0.0442 -0.5783
 4620TIP3    H235352   5.705   0.319  13.759  0.9188 -0.3406  0.5314
 4621TIP3   OH235353   0.086   6.197  15.347  0.3810  0.2412 -0.1114
 4621TIP3    H135354   0.004   6.147  15.344 -0.4111  1.5228 -0.8798
 4621TIP3    H235355   0.116   6.189  15.437 -0.6752 -0.1322  0.2258
 4622TIP3   OH235356   6.453   3.179  11.579  0.0299 -0.4537 -0.1896
 4622TIP3    H135357   6.544   3.179  11.608 -0.3808 -0.1984  1.1915
 4622TIP3    H235358   6.449   3.247  11.511  0.1688  2.2526  2.2975
 4623TIP3   OH235359   1.086   0.164  17.379  0.0664 -0.0392 -0.1899
 4623TIP3    H135360   1.095   0.258  17.363  0.0172  0.3493  1.8501
 4623TIP3    H235361   1.021   0.157  17.449  2.1391 -1.3835  1.7240
 4624TIP3   OH235362   3.509   4.783  12.179 -0.6042 -0.7510 -0.2983
 4624TIP3    H135363   3.432   4.840  12.172 -0.0030 -0.1073 -2.9715
 4624TIP3    H235364   3.509   4.754  12.270 -2.0504  1.9685  0.7068
 4625TIP3   OH235365   3.987   6.351   3.020  0.0256  0.2398  0.1261
 4625TIP3    H135366   3.895   6.333   2.997 -0.2370  1.4238  0.1730
 4625TIP3    H235367   4.013   6.420   2.960  0.5097  0.7590  0.9234
 4626TIP3   OH235368   5.463   5.752   2.299  0.0029 -0.3832  0.3171
 4626TIP3    H135369   5.558   5.753   2.306  0.3019  1.2630 -2.3452
 4626TIP3    H235370   5.446   5.745   2.205 -2.4509  1.0290  0.5596
 4627TIP3   OH235371   2.602   3.810   2.576 -0.0781  0.2589  0.6814
 4627TIP3    H135372   2.584   3.822   2.669 -0.1922 -0.1745  0.7172
 4627TIP3    H235373   2.554   3.881   2.533  1.4356  1.5672  1.0725
 4628TIP3   OH235374   4.731   1.288  11.418  0.5979  0.1585  0.0148
 4628TIP3    H135375   4.719   1.212  11.360  0.5275  1.0236 -1.1408
 4628TIP3    H235376   4.772   1.354  11.363  2.6589  0.2773  1.5623
 4629TIP3   OH235377   3.050   4.306  16.016 -0.5992 -0.2996 -0.8504
 4629TIP3    H135378   3.002   4.251  16.077 -0.7005 -0.5931 -1.1906
 4629TIP3    H235379   3.129   4.256  15.995 -0.2268  0.1027 -0.4306
 4630TIP3   OH235380   2.871   6.694   4.977 -0.2975  0.0007 -0.1095
 4630TIP3    H135381   2.834   6.771   5.020 -0.0941  0.8318 -1.3752
 4630TIP3    H235382   2.960   6.720   4.952 -0.0665 -0.7930 -0.1550
 4631TIP3   OH235383   4.088   5.086   2.517 -0.5230  0.0783 -0.0714
 4631TIP3    H135384   4.102   4.999   2.555  1.4866  0.6651  0.6268
 4631TIP3    H235385   4.170   5.106   2.474 -0.2749  2.4220  1.3708
 4632TIP3   OH235386   0.072   0.200   3.042  0.3400 -0.6079 -0.3413
 4632TIP3    H135387   0.115   0.264   2.986  0.5743 -2.0278 -1.8665
 4632TIP3    H235388   0.104   0.116   3.011 -0.6031 -1.5175  1.0435
 4633TIP3   OH235389   2.390   4.393  16.780  0.6891 -0.1938  0.1497
 4633TIP3    H135390   2.416   4.368  16.691 -3.1351 -2.0382 -0.6432
 4633TIP3    H235391   2.411   4.316  16.833  0.8543  0.0318  0.4161
 4634TIP3   OH235392   5.442   4.935  15.214  0.4181 -0.4909  0.1682
 4634TIP3    H135393   5.489   4.893  15.286 -1.6021  0.5531  2.2169
 4634TIP3    H235394   5.364   4.882  15.202 -0.2061  0.4141  0.0979
 4635TIP3   OH235395   0.121   4.080  16.235 -0.0167 -0.1799  0.0397
 4635TIP3    H135396   0.058   4.040  16.174 -0.0463  0.5752 -0.4430
 4635TIP3    H235397   0.074   4.084  16.318 -0.5575  0.2092 -0.2740
 4636TIP3   OH235398   5.123   6.193   4.761  0.0718 -0.2824  0.0481
 4636TIP3    H135399   5.094   6.199   4.852  1.5227  0.7079  0.4828
 4636TIP3    H235400   5.162   6.278   4.743 -0.9503 -0.1435 -1.8078
 4637TIP3   OH235401   4.075   5.875   0.362  0.6779  1.0074 -0.3775
 4637TIP3    H135402   4.158   5.914   0.387  1.4758  0.8120 -2.5563
 4637TIP3    H235403   4.095   5.783   0.346 -0.3328  0.5747  0.6341
 4638TIP3   OH235404   1.763   1.353   6.795 -0.5430  0.2728 -0.1849
 4638TIP3    H135405   1.747   1.381   6.705 -1.7553 -2.1779 -0.8340
 4638TIP3    H235406   1.713   1.415   6.849 -2.5842 -0.1692 -1.4574
 4639TIP3   OH235407   1.894   2.789   5.164  0.5811  0.0727 -0.0201
 4639TIP3    H135408   1.835   2.774   5.238 -0.6587 -0.6454 -1.0996
 4639TIP3    H235409   1.912   2.701   5.129 -0.5248  0.4901 -1.7770
 4640TIP3   OH235410   6.546   2.251  12.935  0.0043  0.4718  0.2503
 4640TIP3    H135411   6.558   2.167  12.980 -0.0262  0.8400  0.9430
 4640TIP3    H235412   6.634   2.275  12.906 -0.0227  0.0836 -0.1628
 4641TIP3   OH235413   5.735   4.755   6.205  0.4683 -0.0446  0.4196
 4641TIP3    H135414   5.699   4.694   6.269  0.5211 -2.4411 -1.6861
 4641TIP3    H235415   5.724   4.841   6.246 -2.5155 -1.1285  2.2327
 4642TIP3   OH235416   5.160   0.126  17.005 -0.0545  0.1577 -0.3444
 4642TIP3    H135417   5.168   0.211  16.962 -0.4313  0.2432 -0.2509
 4642TIP3    H235418   5.211   0.067  16.951  1.5394  0.7453  0.4535
 4643TIP3   OH235419   3.828   5.757   2.485 -0.5202 -0.5151  0.3630
 4643TIP3    H135420   3.798   5.810   2.410  0.5991  1.5688  1.3090
 4643TIP3    H235421   3.757   5.763   2.548  0.3130  1.4563  1.1856
 4644TIP3   OH235422   5.782   3.054   3.554 -0.1320  0.4545 -0.1645
 4644TIP3    H135423   5.687   3.055   3.555 -0.1954 -1.6356  1.1347
 4644TIP3    H235424   5.805   3.068   3.462 -1.6368  1.4836 -0.4219
 4645TIP3   OH235425   5.585   0.399   6.655  0.2982  0.5444  0.0080
 4645TIP3    H135426   5.568   0.483   6.697 -0.1845  0.3635  0.1806
 4645TIP3    H235427   5.662   0.365   6.700  0.8895  1.1793 -0.4950
 4646TIP3   OH235428   4.658   0.257  13.835 -0.1049 -0.1997 -0.5898
 4646TIP3    H135429   4.751   0.249  13.818 -0.0178 -1.8032  0.4425
 4646TIP3    H235430   4.625   0.313  13.764  1.6760  0.7219 -0.7404
 4647TIP3   OH235431   1.426   2.756  13.718 -0.4126 -0.4522 -0.3357
 4647TIP3    H135432   1.364   2.739  13.789 -2.2900  1.3794 -1.4306
 4647TIP3    H235433   1.373   2.749  13.638  1.1407 -0.2881 -1.4138
 4648TIP3   OH235434   5.055   4.298   5.218 -0.2960 -0.1142 -0.2717
 4648TIP3    H135435   5.042   4.221   5.163 -1.8691  1.4664 -2.3283
 4648TIP3    H235436   5.088   4.365   5.157  1.6943  0.7168  1.5711
 4649TIP3   OH235437   4.351   3.353   0.090  0.2922  0.0878  0.1827
 4649TIP3    H135438   4.422   3.406   0.125 -0.6094  0.8594  0.8827
 4649TIP3    H235439   4.337   3.386   0.001  0.9734 -0.2519 -0.0574
 4650TIP3   OH235440   6.430   1.403   2.324  0.1693 -0.2022 -0.3544
 4650TIP3    H135441   6.435   1.321   2.374 -4.1606 -0.9435 -0.6982
 4650TIP3    H235442   6.456   1.470   2.387 -0.3508 -1.5200  1.3565
 4651TIP3   OH235443   5.132   4.024  13.479  0.0647  0.0104 -0.3515
 4651TIP3    H135444   5.148   3.930  13.474  0.8286  0.1874 -1.7918
 4651TIP3    H235445   5.177   4.052  13.559  0.8878 -0.6527 -0.5735
 4652TIP3   OH235446   1.953   4.376   5.044  0.7816 -0.6197 -0.1666
 4652TIP3    H135447   2.036   4.411   5.011 -0.0380  0.1851 -1.4946
 4652TIP3    H235448   1.889   4.402   4.977 -0.4803 -1.4970  0.6757
 4653TIP3   OH235449   5.526   0.910   5.102  0.0776  0.1706 -0.5573
 4653TIP3    H135450   5.436   0.900   5.073 -0.3816 -0.0524  0.8731
 4653TIP3    H235451   5.545   1.003   5.093 -0.8848  0.5095  0.7545
 4654TIP3   OH235452   3.341   4.575  11.008 -0.3822 -0.3133 -0.2178
 4654TIP3    H135453   3.401   4.504  10.984  0.4999  0.8952 -1.7819
 4654TIP3    H235454   3.267   4.564  10.948  0.1993  0.6066 -1.1502
 4655TIP3   OH235455   3.274   6.398   3.200 -0.1858 -0.4603  0.0509
 4655TIP3    H135456   3.190   6.380   3.243  0.2589  1.0206  1.6736
 4655TIP3    H235457   3.251   6.416   3.109 -1.6178 -0.1765  0.4403
 4656TIP3   OH235458   3.139   2.689  13.264 -0.0844  0.1876  0.1113
 4656TIP3    H135459   3.160   2.604  13.225 -0.4772  0.3048 -0.3562
 4656TIP3    H235460   3.104   2.666  13.351 -2.4320 -0.3067 -0.8944
 4657TIP3   OH235461   1.872   3.990  14.133 -0.3195  0.1585 -0.3571
 4657TIP3    H135462   1.803   4.056  14.131 -0.2165  0.3141  0.5555
 4657TIP3    H235463   1.938   4.026  14.193 -0.0094 -0.5299 -0.2692
 4658TIP3   OH235464   4.098   0.818  14.681  0.3107 -0.0622  0.2487
 4658TIP3    H135465   4.177   0.868  14.701  0.3398 -0.4735  1.2138
 4658TIP3    H235466   4.102   0.743  14.739 -0.6399 -0.2464  0.0869
 4659TIP3   OH235467   5.458   6.064  14.448  0.1050  0.2386  0.0709
 4659TIP3    H135468   5.455   6.087  14.541 -0.7828 -0.3333  0.1986
 4659TIP3    H235469   5.424   6.141  14.402  1.8786  1.0754  0.0868
 4660TIP3   OH235470   1.397   0.167   3.584 -0.4046 -0.4169 -0.7488
 4660TIP3    H135471   1.384   0.078   3.549  2.7000 -0.8526 -1.0640
 4660TIP3    H235472   1.318   0.184   3.636 -2.4563 -2.1453 -3.0188
 4661TIP3   OH235473   2.221   0.252   1.655 -0.1932 -0.2721  0.1406
 4661TIP3    H135474   2.187   0.222   1.571  0.0891 -1.2053  0.3427
 4661TIP3    H235475   2.156   0.222   1.719  0.6261 -1.4644  0.4574
 4662TIP3   OH235476   3.518   1.093  14.170 -0.0022 -0.5359 -0.7508
 4662TIP3    H135477   3.449   1.088  14.235  0.0187  1.6578 -0.4910
 4662TIP3    H235478   3.480   1.055  14.091 -0.4689 -2.0138  0.1365
 4663TIP3   OH235479   6.111   0.115  13.110  0.3102  0.1937  0.4213
 4663TIP3    H135480   6.195   0.073  13.096 -0.1356 -0.2742 -0.9648
 4663TIP3    H235481   6.106   0.183  13.042  0.1270  1.1211  1.3307
 4664TIP3   OH235482   4.987   0.595  16.129  0.2098  0.6236  0.6345
 4664TIP3    H135483   4.896   0.599  16.157  0.1512  0.3635  0.4881
 4664TIP3    H235484   4.990   0.521  16.067  0.7605 -0.1160  1.5156
 4665TIP3   OH235485   5.217   5.112  10.844 -0.5197  0.4423 -0.1971
 4665TIP3    H135486   5.170   5.031  10.824  1.2878 -0.6892 -0.0754
 4665TIP3    H235487   5.289   5.085  10.900 -0.4881  2.3205  0.7410
 4666TIP3   OH235488   0.247   0.122   4.418  0.0117  0.2331 -0.4148
 4666TIP3    H135489   0.279   0.045   4.465  0.0071 -0.7154 -1.8841
 4666TIP3    H235490   0.208   0.087   4.338 -1.3392  1.6694 -0.4292
 4667TIP3   OH235491   6.134   0.460  14.074  0.1596  0.4682  0.0286
 4667TIP3    H135492   6.094   0.518  14.139  1.5599  1.0258  0.4231
 4667TIP3    H235493   6.212   0.425  14.117 -0.3316 -1.2958 -0.4058
 4668TIP3   OH235494   4.416   3.540  11.466 -0.3099  0.0643 -0.1448
 4668TIP3    H135495   4.328   3.526  11.499 -0.9131 -1.9160 -2.2940
 4668TIP3    H235496   4.417   3.631  11.436 -0.8297  0.7972  1.9275
 4669TIP3   OH235497   6.182   4.125  16.698 -0.9437  0.7143  0.2777
 4669TIP3    H135498   6.204   4.134  16.791  0.2939  2.2841 -0.1210
 4669TIP3    H235499   6.252   4.071  16.662 -0.7767  1.0818  0.0452
 4670TIP3   OH235500   1.438   4.580   3.785 -0.3318  0.2705  0.1192
 4670TIP3    H135501   1.487   4.606   3.707 -3.4277  0.8666 -1.7874
 4670TIP3    H235502   1.421   4.663   3.831 -0.0748  0.1439  0.4427
 4671TIP3   OH235503   0.370   2.545   5.146 -0.3961 -0.3143 -0.1202
 4671TIP3    H135504   0.412   2.630   5.160 -0.7676  0.2212 -1.9517
 4671TIP3    H235505   0.442   2.483   5.139 -0.0488  0.0828 -0.0959
 4672TIP3   OH235506   2.359   0.116   4.550 -0.0332  0.1962  0.6069
 4672TIP3    H135507   2.272   0.080   4.534  0.0587  0.4596 -0.5944
 4672TIP3    H235508   2.344   0.210   4.561 -0.0715  0.0479  2.0095
 4673TIP3   OH235509   3.163   5.737  16.973  0.0474 -0.0351 -0.3816
 4673TIP3    H135510   3.097   5.791  17.018  0.0791  1.1396 -1.6671
 4673TIP3    H235511   3.246   5.770  17.006  0.0701 -1.7451  1.4981
 4674TIP3   OH235512   6.654   2.338  16.253 -0.1854  0.4223 -0.7296
 4674TIP3    H135513   6.588   2.344  16.323 -0.4943 -0.3187 -0.9407
 4674TIP3    H235514   6.729   2.295  16.294 -0.1620  0.4835 -0.7095
 4675TIP3   OH235515   3.055   5.162   3.728  0.3512  0.2003  0.0227
 4675TIP3    H135516   3.059   5.257   3.728  0.3186  0.2027  0.1403
 4675TIP3    H235517   2.961   5.142   3.734  0.4239  0.1709  1.5998
 4676TIP3   OH235518   4.082   2.176  12.650  0.2905 -0.0980  0.3118
 4676TIP3    H135519   4.103   2.120  12.725  1.9930 -0.6853 -0.5598
 4676TIP3    H235520   4.126   2.135  12.576  0.7784  1.8689 -0.5541
 4677TIP3   OH235521   6.667   6.316  11.126 -0.5495  0.0855  0.0763
 4677TIP3    H135522   6.572   6.323  11.126 -0.6246  0.1483  2.9715
 4677TIP3    H235523   6.699   6.405  11.112 -0.8910  0.1008 -0.6434
 4678TIP3   OH235524   5.022   5.015   2.692  0.2467  0.7803 -0.1574
 4678TIP3    H135525   5.062   4.980   2.612 -0.7114 -0.2509 -0.2059
 4678TIP3    H235526   5.066   4.969   2.763  1.9195  2.5195  0.0242
 4679TIP3   OH235527   4.318   3.345   1.162 -0.6328 -0.1957  0.4852
 4679TIP3    H135528   4.387   3.383   1.216 -1.0386  2.8299 -0.9319
 4679TIP3    H235529   4.349   3.357   1.072 -1.2028 -2.6241 -0.1114
 4680TIP3   OH235530   1.870   1.186   3.004  0.0778  0.0436 -0.7161
 4680TIP3    H135531   1.961   1.154   3.004  0.2590  0.5591 -0.5303
 4680TIP3    H235532   1.844   1.185   2.912  0.3189  0.0331 -0.7843
 4681TIP3   OH235533   1.997   0.469   4.060  1.4596  0.0461  0.4514
 4681TIP3    H135534   2.090   0.486   4.048  1.2269  0.4741 -0.9651
 4681TIP3    H235535   1.954   0.550   4.034  0.6691 -0.3348  0.5334
 4682TIP3   OH235536   5.445   0.231  10.956  0.0111  0.2531  0.0477
 4682TIP3    H135537   5.510   0.214  11.025 -0.6328 -0.9382  0.3856
 4682TIP3    H235538   5.468   0.170  10.886 -0.1730  0.5028 -0.2325
 4683TIP3   OH235539   2.881   3.434   1.278  0.4766 -0.2588  1.1473
 4683TIP3    H135540   2.924   3.364   1.328  0.6801 -1.1391 -0.2140
 4683TIP3    H235541   2.953   3.484   1.240  0.3870 -1.4465 -0.7409
 4684TIP3   OH235542   0.446   5.842   5.924  0.1042 -0.0636  0.1338
 4684TIP3    H135543   0.438   5.900   5.849  0.7433 -1.5458 -1.1195
 4684TIP3    H235544   0.528   5.868   5.967 -1.4305  2.4094  1.8362
 4685TIP3   OH235545   6.298   5.720  16.314  0.0623 -0.2766 -0.4943
 4685TIP3    H135546   6.257   5.788  16.368 -0.9556 -1.1403 -0.1404
 4685TIP3    H235547   6.391   5.726  16.334 -0.2230 -0.1430  0.8748
 4686TIP3   OH235548   4.949   1.760   3.190  0.4318 -0.0722  0.2816
 4686TIP3    H135549   4.907   1.755   3.105 -0.0093  0.8346  0.4278
 4686TIP3    H235550   4.988   1.848   3.192  1.8402 -0.6707  0.3793
 4687TIP3   OH235551   5.713   1.157  17.369  0.2928  0.4481 -0.1581
 4687TIP3    H135552   5.728   1.237  17.420 -0.4901 -0.9615  2.4495
 4687TIP3    H235553   5.620   1.140  17.379  0.4963 -0.9269 -0.4369
 4688TIP3   OH235554   1.073   1.852  13.165 -0.4372  0.1434 -0.5092
 4688TIP3    H135555   1.105   1.912  13.233  0.7288 -0.7616 -0.2344
 4688TIP3    H235556   1.152   1.813  13.128 -1.0933  0.0633 -1.8932
 4689TIP3   OH235557   1.130   3.150   2.788 -0.1602  0.4391  0.1557
 4689TIP3    H135558   1.084   3.119   2.866 -0.7159  1.0148  0.0623
 4689TIP3    H235559   1.062   3.158   2.721  0.4157 -0.7056 -0.6096
 4690TIP3   OH235560   6.655   1.951  15.685 -0.2258  0.0888  0.1066
 4690TIP3    H135561   6.681   2.043  15.680 -1.5674  0.5183  0.5752
 4690TIP3    H235562   6.715   1.912  15.748  1.8592  0.0529 -1.7473
 4691TIP3   OH235563   1.758   3.463   3.279 -0.7098 -0.0607 -0.1867
 4691TIP3    H135564   1.689   3.488   3.217  0.7120  0.2512 -1.7063
 4691TIP3    H235565   1.806   3.393   3.234  1.3889  1.3101 -0.2221
 4692TIP3   OH235566   4.578   4.311  17.205  0.3032  0.5832 -0.0818
 4692TIP3    H135567   4.547   4.221  17.200  2.1883 -0.0506 -3.6114
 4692TIP3    H235568   4.619   4.318  17.291 -3.7832 -0.3567  2.1999
 4693TIP3   OH235569   4.707   2.776  16.105 -0.0815  0.3550  0.2518
 4693TIP3    H135570   4.755   2.760  16.186  2.1708  2.2572 -0.5960
 4693TIP3    H235571   4.665   2.861  16.118  0.4690  0.7779 -0.6110
 4694TIP3   OH235572   3.095   6.221  14.182 -0.2754  0.8395 -0.7279
 4694TIP3    H135573   3.155   6.232  14.107 -2.9881  1.4354 -2.9753
 4694TIP3    H235574   3.077   6.310  14.211  0.0031  0.6512  0.0439
 4695TIP3   OH235575   4.109   2.288   4.089 -0.0030 -0.0847 -0.5463
 4695TIP3    H135576   4.136   2.373   4.123 -1.0295  0.7220 -1.6393
 4695TIP3    H235577   4.185   2.231   4.100  0.5986  0.8978  0.4663
 4696TIP3   OH235578   6.098   5.571   3.086 -0.1674  0.2329  0.2581
 4696TIP3    H135579   6.098   5.498   3.024  1.6302 -1.8030  2.4887
 4696TIP3    H235580   6.030   5.548   3.149 -0.2886  1.0357  0.4287
 4697TIP3   OH235581   6.410   1.627  15.038 -0.2699  0.3188 -0.3290
 4697TIP3    H135582   6.421   1.646  15.131 -0.4295 -0.7360 -0.0761
 4697TIP3    H235583   6.338   1.563  15.035  0.2729 -0.2677 -1.1046
 4698TIP3   OH235584   2.145   0.436   0.282 -0.1489  0.1047 -0.0933
 4698TIP3    H135585   2.106   0.375   0.220  0.6604  0.2291 -0.7391
 4698TIP3    H235586   2.139   0.521   0.238 -2.3849  0.7332  1.3013
 4699TIP3   OH235587   3.810   2.135  16.803  0.2159 -0.0235  0.1034
 4699TIP3    H135588   3.744   2.068  16.790  0.1330  0.1244 -0.2396
 4699TIP3    H235589   3.880   2.113  16.742 -0.3476  0.8945 -0.9076
 4700TIP3   OH235590   5.994   0.477  15.768  0.6140  0.1356  0.5972
 4700TIP3    H135591   5.950   0.493  15.684  3.0169 -0.6148 -0.9387
 4700TIP3    H235592   5.983   0.384  15.784 -0.1700  0.3469  1.3603
 4701TIP3   OH235593   0.861   1.490   4.304 -0.4435  0.3688 -0.4565
 4701TIP3    H135594   0.900   1.546   4.370 -2.8509 -0.3401  1.7446
 4701TIP3    H235595   0.916   1.412   4.302 -1.3993 -0.5073  2.3785
 4702TIP3   OH235596   3.813   4.038  13.715  0.3194 -0.2517  0.7377
 4702TIP3    H135597   3.833   3.981  13.641  0.7320 -0.0443  0.6854
 4702TIP3    H235598   3.732   4.003  13.752 -0.2692  0.0541 -0.2338
 4703TIP3   OH235599   2.160   1.709  14.516  0.4380 -0.4641  0.4527
 4703TIP3    H135600   2.194   1.748  14.597 -0.6405  0.9534  0.2676
 4703TIP3    H235601   2.238   1.693  14.463  0.9931  0.7967  0.8402
 4704TIP3   OH235602   1.505   4.862   6.234  0.6650 -0.1737 -0.4286
 4704TIP3    H135603   1.532   4.934   6.291  0.3744  0.0427 -0.5617
 4704TIP3    H235604   1.475   4.794   6.294  0.1713  0.1283 -0.3244
 4705TIP3   OH235605   5.590   0.628   1.122 -0.0615 -0.4507 -0.0176
 4705TIP3    H135606   5.597   0.722   1.138  1.2904 -0.4667 -0.3165
 4705TIP3    H235607   5.643   0.588   1.191  0.3586 -0.8988 -0.5850
 4706TIP3   OH235608   4.403   6.526   4.130 -0.3980  0.5098 -0.2025
 4706TIP3    H135609   4.389   6.613   4.169  1.2903  0.0617  1.5347
 4706TIP3    H235610   4.456   6.544   4.052 -1.6494  1.1903 -0.9240
 4707TIP3   OH235611   1.334   4.571   4.997 -1.1106  0.1973 -0.0292
 4707TIP3    H135612   1.273   4.551   4.926  0.2441 -0.8497 -0.9444
 4707TIP3    H235613   1.379   4.651   4.969  1.1013 -1.4717 -1.5758
 4708TIP3   OH235614   2.525   3.770   1.192 -0.0276  0.5072  0.2897
 4708TIP3    H135615   2.442   3.723   1.188 -0.4650  1.2738  0.0314
 4708TIP3    H235616   2.548   3.785   1.100 -0.1389  1.2062  0.3720
 4709TIP3   OH235617   3.810   4.133   1.324 -0.0954 -0.4884  0.2008
 4709TIP3    H135618   3.885   4.109   1.378 -0.7246 -1.4054  0.6895
 4709TIP3    H235619   3.823   4.225   1.304  0.9650 -0.5428  0.5954
 4710TIP3   OH235620   1.133   3.027   4.743  0.4924 -0.1058 -0.1854
 4710TIP3    H135621   1.046   3.064   4.736 -0.0657 -0.8991  1.8799
 4710TIP3    H235622   1.185   3.076   4.679 -1.6589 -0.3927 -2.3157
 4711TIP3   OH235623   4.280   5.048   6.132 -0.3490 -0.1467 -0.1954
 4711TIP3    H135624   4.245   5.026   6.218 -0.7650 -0.1344 -0.3593
 4711TIP3    H235625   4.370   5.017   6.134 -0.3460 -0.1115  0.2584
 4712TIP3   OH235626   3.808   4.086   0.061  0.3582 -0.1633 -0.3882
 4712TIP3    H135627   3.718   4.057   0.048  0.2081  0.8750 -2.0056
 4712TIP3    H235628   3.861   4.020   0.017  0.1150  1.0794 -2.6798
 4713TIP3   OH235629   4.212   3.061  14.641  0.0628  0.5827  0.5261
 4713TIP3    H135630   4.268   3.132  14.675  1.8293 -0.8943  0.8500
 4713TIP3    H235631   4.222   3.066  14.546  0.2607  0.7092  0.5533
 4714TIP3   OH235632   1.342   4.966  16.901 -0.5600 -0.2135 -0.2422
 4714TIP3    H135633   1.325   4.897  16.965 -1.6938  0.4017  0.1591
 4714TIP3    H235634   1.283   5.037  16.927 -0.0543  0.5663 -1.1688
 4715TIP3   OH235635   1.009   6.520   5.702 -1.2842  0.4787  0.0051
 4715TIP3    H135636   0.938   6.504   5.640 -1.2189 -1.2232  0.3139
 4715TIP3    H235637   0.973   6.497   5.787 -0.3657 -0.4432  0.1633
 4716TIP3   OH235638   2.836   4.036   4.519 -0.1627  0.4558  0.1329
 4716TIP3    H135639   2.932   4.035   4.518 -0.1445  0.4484  0.7984
 4716TIP3    H235640   2.810   3.990   4.440  0.4159 -1.4180  0.9650
 4717TIP3   OH235641   6.556   1.380  11.795  0.1248  0.0108 -0.1202
 4717TIP3    H135642   6.523   1.436  11.725 -0.6357 -1.9553 -1.4201
 4717TIP3    H235643   6.481   1.368  11.853 -0.0050 -0.4363 -0.3757
 4718TIP3   OH235644   2.020   5.383  13.641 -0.1448 -0.4058 -0.1658
 4718TIP3    H135645   2.040   5.475  13.628 -0.8657 -0.0189  1.2509
 4718TIP3    H235646   1.951   5.364  13.577 -0.3293  0.1634 -0.1387
 4719TIP3   OH235647   1.897   5.522   4.105  0.4262  0.0570  0.7102
 4719TIP3    H135648   1.803   5.538   4.100  0.4741  0.1708  0.0811
 4719TIP3    H235649   1.917   5.520   4.199 -0.1075  0.6036  0.8371
 4720TIP3   OH235650   4.982   3.959   5.351 -0.3731 -0.0211  0.2366
 4720TIP3    H135651   5.059   3.974   5.406 -0.3512 -2.3216  0.9465
 4720TIP3    H235652   4.969   3.864   5.354 -2.3573  0.1550 -1.0841
 4721TIP3   OH235653   4.829   0.351  15.761  0.7598 -0.0586 -0.2607
 4721TIP3    H135654   4.833   0.428  15.817 -0.3831 -0.8269  0.9285
 4721TIP3    H235655   4.760   0.370  15.699  0.8302  0.0776 -0.2987
 4722TIP3   OH235656   5.461   0.831   0.572 -0.1394  0.2186 -0.1528
 4722TIP3    H135657   5.511   0.805   0.649 -0.5620  1.2503  0.5042
 4722TIP3    H235658   5.422   0.915   0.596 -2.1314 -0.4978 -0.6526
 4723TIP3   OH235659   1.920   4.188  13.489 -0.7434 -0.0689 -0.4467
 4723TIP3    H135660   1.964   4.104  13.480  1.1506  0.9601 -1.4968
 4723TIP3    H235661   1.888   4.208  13.401 -1.1947  0.2968 -0.2037
 4724TIP3   OH235662   4.517   5.468   4.981  0.3758 -0.4362  0.4530
 4724TIP3    H135663   4.590   5.406   4.982 -1.4169 -2.8669  4.4088
 4724TIP3    H235664   4.468   5.447   4.902  2.7312 -0.1243 -1.1994
 4725TIP3   OH235665   1.771   4.459  17.439 -0.1029  0.5115  0.3600
 4725TIP3    H135666   1.681   4.431  17.455 -0.3044  0.9813  0.0725
 4725TIP3    H235667   1.794   4.419  17.356 -0.7802  2.0649 -0.6153
 4726TIP3   OH235668   6.283   3.537   4.239 -0.4214  0.0431  0.1325
 4726TIP3    H135669   6.339   3.553   4.315 -0.6389 -1.1142  0.5610
 4726TIP3    H235670   6.344   3.519   4.168 -0.2069 -1.6176  0.6879
 4727TIP3   OH235671   0.201   5.207  11.327 -0.3236  0.0051  0.5379
 4727TIP3    H135672   0.139   5.261  11.375 -1.2281 -0.9734  0.4881
 4727TIP3    H235673   0.207   5.126  11.376  1.4443  0.3166  0.9101
 4728TIP3   OH235674   0.112   0.219   3.331  0.2465  0.3025  0.0735
 4728TIP3    H135675   0.080   0.240   3.244  1.3207  0.2551 -0.3489
 4728TIP3    H235676   0.111   0.302   3.378  1.2268  0.6588 -0.5118
 4729TIP3   OH235677   0.923   3.407  14.201  0.0863  0.3972 -0.3014
 4729TIP3    H135678   0.984   3.442  14.137  0.0770  0.3758 -0.3214
 4729TIP3    H235679   0.848   3.467  14.197 -0.4033 -0.2602 -1.1245
 4730TIP3   OH235680   5.771   5.704   0.896 -0.2573 -0.0357 -0.3016
 4730TIP3    H135681   5.811   5.725   0.981 -1.9999 -0.3822  0.6566
 4730TIP3    H235682   5.705   5.638   0.917 -0.4355 -0.4435 -2.0167
 4731TIP3   OH235683   3.585   4.225  11.856 -0.0230 -0.1075  0.3599
 4731TIP3    H135684   3.509   4.205  11.801  0.3999 -0.7993  0.0216
 4731TIP3    H235685   3.617   4.309  11.821  0.1478 -0.4610 -0.3652
 4732TIP3   OH235686   0.962   0.849   3.300  0.0864 -0.7084 -0.2147
 4732TIP3    H135687   0.992   0.767   3.260 -0.2347 -0.7708 -0.3315
 4732TIP3    H235688   1.030   0.870   3.364 -0.5950 -1.9070  0.9594
 4733TIP3   OH235689   6.509   4.124   3.564 -0.0714  0.1283  0.8246
 4733TIP3    H135690   6.567   4.186   3.519 -0.9801  0.9713  0.7852
 4733TIP3    H235691   6.545   4.118   3.653  1.7050 -1.5017  0.0726
 4734TIP3   OH235692   0.643   5.196   1.630 -0.3671 -0.1249  0.2178
 4734TIP3    H135693   0.687   5.265   1.679 -0.3440 -1.6406  2.5398
 4734TIP3    H235694   0.712   5.133   1.609 -0.7359 -0.5520  0.2553
 4735TIP3   OH235695   1.814   3.294   3.738 -0.5112 -0.1400  0.2337
 4735TIP3    H135696   1.846   3.230   3.802  0.9640  0.5000  0.1913
 4735TIP3    H235697   1.838   3.257   3.653  0.2311  0.3843  0.2034
 4736TIP3   OH235698   4.584   2.652  15.544  0.1620 -0.5438 -0.0668
 4736TIP3    H135699   4.612   2.651  15.635 -0.7556 -0.5210  0.2256
 4736TIP3    H235700   4.588   2.744  15.518 -2.0687 -0.1473  0.7733
 4737TIP3   OH235701   0.217   3.836  16.035 -0.5699 -0.2312  0.0614
 4737TIP3    H135702   0.200   3.789  15.953  0.8678  0.1223 -0.4721
 4737TIP3    H235703   0.262   3.916  16.008 -0.7787  0.2672  1.1437
 4738TIP3   OH235704   0.999   4.058  11.890 -0.0838 -0.2006  0.0819
 4738TIP3    H135705   0.961   4.131  11.938  1.6792  0.2240  0.9267
 4738TIP3    H235706   0.967   4.069  11.800  0.6105  1.9882  0.0344
 4739TIP3   OH235707   5.463   6.129  11.565  0.2446 -0.3922  0.3283
 4739TIP3    H135708   5.501   6.214  11.544  0.7951 -0.5876  0.5397
 4739TIP3    H235709   5.477   6.119  11.659  0.3663 -0.8092  0.2661
 4740TIP3   OH235710   1.923   2.902  12.346  0.3897  0.3334 -0.5848
 4740TIP3    H135711   1.998   2.873  12.398 -1.0698  0.6251  1.8751
 4740TIP3    H235712   1.892   2.823  12.301 -1.0684 -1.2263  2.7719
 4741TIP3   OH235713   0.193   0.179   0.707  0.1847  0.1768  0.0686
 4741TIP3    H135714   0.267   0.161   0.764  0.9293  0.1947 -0.8634
 4741TIP3    H235715   0.116   0.159   0.760  0.8369  0.5505  1.1912
 4742TIP3   OH235716   5.218   2.712  13.561 -0.4582  0.0438  0.3541
 4742TIP3    H135717   5.189   2.723  13.471  0.0905  2.7609  0.4422
 4742TIP3    H235718   5.313   2.721  13.556 -0.3940 -0.1318  1.1810
 4743TIP3   OH235719   1.220   4.174   4.081  0.1017  0.0507  0.2907
 4743TIP3    H135720   1.269   4.199   4.002 -0.2250  0.5038  0.2294
 4743TIP3    H235721   1.284   4.125   4.134  0.2684 -0.4283 -0.3374
 4744TIP3   OH235722   4.580   6.410  16.421 -0.1436  0.1070  0.6174
 4744TIP3    H135723   4.631   6.414  16.339  0.6251  0.3639  1.1014
 4744TIP3    H235724   4.507   6.471  16.407  1.7331  2.7073  1.2846
 4745TIP3   OH235725   4.908   2.073   5.856  0.0589  0.0720 -0.1201
 4745TIP3    H135726   4.985   2.015   5.855  0.0309  0.0340 -1.2001
 4745TIP3    H235727   4.833   2.013   5.864  0.0122 -0.0874 -1.5349
 4746TIP3   OH235728   1.593   6.097   5.341  0.1727  0.5192  0.2703
 4746TIP3    H135729   1.635   6.016   5.370 -0.5598  1.0988  3.2092
 4746TIP3    H235730   1.564   6.077   5.252 -0.5039 -2.6962  1.0741
 4747TIP3   OH235731   5.434   2.999  13.695 -0.1031 -0.1866  0.0996
 4747TIP3    H135732   5.466   2.968  13.610 -1.1292 -0.0758 -0.3441
 4747TIP3    H235733   5.407   2.919  13.741 -2.1803 -0.0599 -0.8061
 4748TIP3   OH235734   6.709   1.930   4.473 -0.3602  0.8910 -0.1014
 4748TIP3    H135735   6.662   1.851   4.447  0.8668 -0.0928  0.5679
 4748TIP3    H235736   6.659   2.002   4.435 -2.1044 -0.1364  0.1648
 4749TIP3   OH235737   4.199   1.915  14.657  0.4529  0.1431 -0.3318
 4749TIP3    H135738   4.122   1.936  14.604  0.5340  0.1758 -0.4379
 4749TIP3    H235739   4.272   1.953  14.609  0.9401 -2.4738 -1.8791
 4750TIP3   OH235740   2.955   2.269   5.659  0.3747  0.3654  0.1792
 4750TIP3    H135741   2.863   2.244   5.668  0.0760  1.7250  1.3962
 4750TIP3    H235742   2.995   2.199   5.608 -0.8933 -1.2735  1.3326
 4751TIP3   OH235743   0.799   4.861  14.134  0.6320 -0.6439 -0.2679
 4751TIP3    H135744   0.749   4.806  14.194  0.3805  0.9531  1.0542
 4751TIP3    H235745   0.732   4.902  14.079  0.7202 -0.7544 -0.4571
 4752TIP3   OH235746   1.678   4.847  11.836 -0.1767 -0.0188  0.1912
 4752TIP3    H135747   1.748   4.830  11.774 -1.1596 -3.2349 -0.2359
 4752TIP3    H235748   1.706   4.804  11.917 -2.0898 -2.6902 -0.4015
 4753TIP3   OH235749   4.939   3.084   3.083  0.3191 -0.5116 -0.2761
 4753TIP3    H135750   4.892   3.166   3.068 -1.7018 -1.4784  0.4223
 4753TIP3    H235751   4.921   3.031   3.006 -0.1492 -1.0576  0.1940
 4754TIP3   OH235752   2.062   1.707  15.498  0.1767 -0.6916 -0.0912
 4754TIP3    H135753   2.051   1.729  15.406 -1.2438 -1.6123 -0.1733
 4754TIP3    H235754   2.133   1.643  15.500  1.7051  0.9313 -0.2683
 4755TIP3   OH235755   6.224   6.496  13.053 -0.0820 -0.2404 -0.0495
 4755TIP3    H135756   6.296   6.477  12.992  0.8502  0.1639  0.9074
 4755TIP3    H235757   6.253   6.460  13.137  0.6330  3.0503  1.2346
 4756TIP3   OH235758   5.800   0.427   2.853  0.6519  0.1081 -0.5127
 4756TIP3    H135759   5.841   0.498   2.903  0.2306  0.6286 -0.8932
 4756TIP3    H235760   5.712   0.420   2.890  1.4777 -1.9354  1.2433
 4757TIP3   OH235761   5.740   3.028   2.368 -0.3248  0.3839  0.4056
 4757TIP3    H135762   5.799   2.952   2.366 -1.2841 -0.6447  3.6681
 4757TIP3    H235763   5.657   2.995   2.334  0.0545  0.8905 -1.0625
 4758TIP3   OH235764   2.157   5.725   6.126 -0.3980 -0.0047 -0.8810
 4758TIP3    H135765   2.089   5.775   6.081 -2.1185  1.9956  3.3524
 4758TIP3    H235766   2.126   5.635   6.125 -1.9204  0.4959 -1.1047
 4759TIP3   OH235767   0.592   0.398  12.243  0.4018 -0.4120  0.0514
 4759TIP3    H135768   0.511   0.347  12.248  0.3431 -0.3072  0.1717
 4759TIP3    H235769   0.648   0.361  12.311  0.0465  0.2331  0.6996
 4760TIP3   OH235770   2.035   5.660   5.122  0.3681  0.2454 -0.1450
 4760TIP3    H135771   2.119   5.673   5.166  0.0104  1.6457  0.1568
 4760TIP3    H235772   1.973   5.642   5.193  0.4108 -0.9028 -0.3754
 4761TIP3   OH235773   6.530   3.077   0.984  0.1581 -0.5667 -0.1780
 4761TIP3    H135774   6.467   3.085   1.056  1.5114  0.1365  0.9894
 4761TIP3    H235775   6.507   2.995   0.940 -0.2900 -1.3791  1.4933
 4762TIP3   OH235776   6.442   2.932  15.853 -0.6130  0.0838 -0.0563
 4762TIP3    H135777   6.351   2.949  15.878 -0.0994  0.9809  1.3543
 4762TIP3    H235778   6.493   2.993  15.907  0.9463 -1.6244  0.4866
 4763TIP3   OH235779   1.407   5.331   2.060 -0.5291  0.0646 -0.3378
 4763TIP3    H135780   1.499   5.358   2.056  0.1121 -1.9421 -0.3308
 4763TIP3    H235781   1.367   5.373   1.984  0.2334  1.4095 -0.0397
 4764TIP3   OH235782   6.341   4.917  12.882 -0.0247 -0.1762  0.2431
 4764TIP3    H135783   6.290   4.836  12.884 -0.2172 -0.0428  0.9329
 4764TIP3    H235784   6.307   4.965  12.807  0.2987 -0.8634 -0.3566
 4765TIP3   OH235785   1.926   6.744   3.271  0.0932 -0.0550 -0.0328
 4765TIP3    H135786   1.920   6.650   3.253 -1.2784 -0.1948  0.9788
 4765TIP3    H235787   1.837   6.770   3.292  0.5732  1.3260  0.4177
 4766TIP3   OH235788   1.872   4.114  12.309  0.0343 -0.2511  0.5519
 4766TIP3    H135789   1.856   4.036  12.362  0.7332 -0.4072  0.5498
 4766TIP3    H235790   1.833   4.095  12.224 -0.1214 -0.4496  0.6686
 4767TIP3   OH235791   4.879   6.177  14.129  0.1947  0.6745  0.0469
 4767TIP3    H135792   4.787   6.153  14.133  0.2338  0.7452  1.8538
 4767TIP3    H235793   4.879   6.273  14.129  0.2751  0.6780  0.6425
 4768TIP3   OH235794   2.382   0.113   5.902  0.6559  0.4847 -0.8733
 4768TIP3    H135795   2.465   0.126   5.948 -0.0166  1.9752 -0.0498
 4768TIP3    H235796   2.319   0.166   5.949 -1.4918 -2.7736  0.3156
 4769TIP3   OH235797   4.143   4.377  14.224 -0.0176  0.4469  0.1951
 4769TIP3    H135798   4.148   4.468  14.253 -1.2752  0.4840  0.3585
 4769TIP3    H235799   4.094   4.381  14.142  1.0770  0.0399 -0.5068
 4770TIP3   OH235800   3.395   3.859   1.288  0.7652 -0.9359  0.0898
 4770TIP3    H135801   3.330   3.885   1.223  1.2371 -1.2302 -0.5032
 4770TIP3    H235802   3.475   3.905   1.262  1.3325 -2.1660 -0.3746
 4771TIP3   OH235803   5.098   2.476  11.333  0.0338 -0.0044 -0.3864
 4771TIP3    H135804   5.179   2.517  11.365  0.4614 -1.0438 -0.1058
 4771TIP3    H235805   5.093   2.392  11.379 -0.6178 -0.4544 -1.2394
 4772TIP3   OH235806   0.820   1.993   1.043 -0.1777 -0.1462  0.3803
 4772TIP3    H135807   0.749   2.026   1.099  0.9477  1.3508  0.9772
 4772TIP3    H235808   0.827   2.058   0.973  0.3579 -0.4918  0.1102
 4773TIP3   OH235809   0.996   6.743  13.247  0.0267 -0.3464  0.4562
 4773TIP3    H135810   0.966   6.814  13.191 -0.3171 -0.7807  0.0817
 4773TIP3    H235811   1.051   6.689  13.190 -1.2114 -1.4019  0.2169
 4774TIP3   OH235812   6.090   0.397  13.330  0.1895 -0.1221 -0.3039
 4774TIP3    H135813   6.168   0.401  13.275  0.3013  1.5805 -0.0696
 4774TIP3    H235814   6.017   0.396  13.268  0.3559 -1.4059 -0.5140
 4775TIP3   OH235815   0.168   5.925   5.835  0.3996 -0.2994 -0.5178
 4775TIP3    H135816   0.167   5.841   5.790  0.3971 -0.2297 -0.6481
 4775TIP3    H235817   0.258   5.955   5.827  0.5298 -0.5442  0.0026
 4776TIP3   OH235818   0.545   4.286   2.580 -0.1059 -0.3897 -0.0004
 4776TIP3    H135819   0.598   4.254   2.653 -2.8546 -0.9794  1.9100
 4776TIP3    H235820   0.524   4.376   2.604 -0.1557 -0.2345 -0.6214
 4777TIP3   OH235821   1.975   2.309  15.630 -0.6148  0.1364  0.0400
 4777TIP3    H135822   1.978   2.219  15.664  0.4648 -1.0600 -2.9141
 4777TIP3    H235823   2.053   2.351  15.666 -0.7734 -0.2911  0.9184
 4778TIP3   OH235824   2.381   2.904   4.365  0.2644  0.0672 -0.3537
 4778TIP3    H135825   2.376   2.809   4.361 -0.6303  0.0787  0.2270
 4778TIP3    H235826   2.421   2.930   4.282 -0.8115 -0.7347 -1.1416
 4779TIP3   OH235827   3.391   0.986  15.937 -0.1386  0.2276 -0.0723
 4779TIP3    H135828   3.397   1.047  16.011  0.0155  0.4784 -0.2918
 4779TIP3    H235829   3.333   0.917  15.968 -0.6421  0.6921  0.0355
 4780TIP3   OH235830   3.186   6.659   4.433  0.5542 -0.0585 -0.3934
 4780TIP3    H135831   3.271   6.640   4.471  0.8371  1.9368  0.1001
 4780TIP3    H235832   3.168   6.585   4.375  1.4196 -1.7792  1.4193
 4781TIP3   OH235833   0.909   5.825  15.188  0.1243 -0.3240 -0.0280
 4781TIP3    H135834   0.813   5.830  15.194  0.1134 -0.7618  0.2226
 4781TIP3    H235835   0.940   5.890  15.251 -0.0065 -0.2256 -0.0634
 4782TIP3   OH235836   0.501   5.561  14.151  0.0250  0.5350 -0.2413
 4782TIP3    H135837   0.498   5.469  14.124 -2.5482  0.3633  0.3967
 4782TIP3    H235838   0.472   5.610  14.074 -2.1509  0.4622  0.4667
 4783TIP3   OH235839   4.059   0.137   3.247  0.0315  0.3264 -0.1472
 4783TIP3    H135840   3.990   0.202   3.228 -0.7262 -0.2215  0.6324
 4783TIP3    H235841   4.136   0.189   3.269  0.6158  0.9922 -3.3495
 4784TIP3   OH235842   6.330   6.613  17.066 -0.5908 -0.2564 -0.1783
 4784TIP3    H135843   6.330   6.699  17.024  0.5586  0.3274  0.9489
 4784TIP3    H235844   6.389   6.560  17.012 -3.2454 -1.1923 -2.3824
 4785TIP3   OH235845   6.142   5.809  12.571 -0.5275  0.4205 -0.0469
 4785TIP3    H135846   6.098   5.804  12.486 -0.1715  0.2002 -0.2200
 4785TIP3    H235847   6.158   5.903  12.584 -0.1526  0.4132 -0.4453
 4786TIP3   OH235848   1.943   6.365  14.552  0.3852 -0.3382  0.8794
 4786TIP3    H135849   1.975   6.445  14.511 -0.7438 -0.1901  0.2327
 4786TIP3    H235850   1.934   6.303  14.479 -1.5791 -0.1016  0.8497
 4787TIP3   OH235851   0.151   6.075   2.416  0.0417 -0.0749  0.3813
 4787TIP3    H135852   0.135   5.986   2.449 -0.7799  0.6426  2.0360
 4787TIP3    H235853   0.072   6.124   2.441  0.7329  1.2546  0.0170
 4788TIP3   OH235854   1.939   6.160   2.723  0.6696  0.0148  0.0442
 4788TIP3    H135855   1.941   6.095   2.794  0.2926  1.4402  1.4163
 4788TIP3    H235856   1.991   6.121   2.653 -0.3512 -2.1911  0.4236
 4789TIP3   OH235857   4.865   1.127  13.372  0.2609 -0.5037 -0.0286
 4789TIP3    H135858   4.876   1.033  13.382 -2.5870 -1.0045 -0.6734
 4789TIP3    H235859   4.808   1.152  13.445 -0.2994  0.4157 -0.7653
 4790TIP3   OH235860   0.706   5.171   5.339  0.2458  0.0615  0.1439
 4790TIP3    H135861   0.726   5.078   5.322  0.2719 -0.5195  2.9138
 4790TIP3    H235862   0.791   5.213   5.342  0.2663  0.0850 -0.4966
 4791TIP3   OH235863   4.728   0.791   1.253 -0.1209 -0.4919  0.9153
 4791TIP3    H135864   4.696   0.878   1.277 -1.9963 -0.6194 -0.8549
 4791TIP3    H235865   4.807   0.779   1.306  1.2806  3.0425 -0.1297
 4792TIP3   OH235866   5.109   5.654  13.815  0.0331 -0.1312  0.1723
 4792TIP3    H135867   5.040   5.636  13.879  1.4435  0.5851  2.0125
 4792TIP3    H235868   5.169   5.579  13.822 -0.3568 -0.5899 -1.1621
 4793TIP3   OH235869   2.425   6.432  12.329  0.4071 -0.4200 -0.1352
 4793TIP3    H135870   2.516   6.424  12.299  0.4691  1.3493 -0.5274
 4793TIP3    H235871   2.430   6.488  12.406 -0.1512 -2.0946  1.1822
 4794TIP3   OH235872   2.460   4.398   3.868  0.7826 -0.7657  0.3771
 4794TIP3    H135873   2.524   4.367   3.932 -0.3307 -1.1844  1.3143
 4794TIP3    H235874   2.449   4.325   3.808 -0.8589 -1.7960  1.8303
 4795TIP3   OH235875   1.198   1.033  16.363  0.1490 -0.1213  0.2775
 4795TIP3    H135876   1.175   1.059  16.274  0.5999  0.8010  0.4210
 4795TIP3    H235877   1.129   1.069  16.418 -0.2174 -0.8305  0.2942
 4796TIP3   OH235878   3.650   0.362   2.498  0.0128  0.5058 -0.3119
 4796TIP3    H135879   3.557   0.371   2.477 -0.4001 -2.4065 -0.2097
 4796TIP3    H235880   3.667   0.429   2.564 -1.8873  1.3771 -0.6505
 4797TIP3   OH235881   1.168   5.696  14.339  0.4800 -0.0262 -0.8006
 4797TIP3    H135882   1.232   5.634  14.374  0.0517  0.5549  1.1405
 4797TIP3    H235883   1.198   5.781  14.371 -1.6151  0.1842  0.7909
 4798TIP3   OH235884   1.633   4.600  13.208 -0.2562  0.1097 -0.1925
 4798TIP3    H135885   1.614   4.605  13.114  0.0704  1.2163 -0.2177
 4798TIP3    H235886   1.587   4.675  13.245  0.4576  0.2797  0.3721
 4799TIP3   OH235887   6.298   5.825  15.141  0.1731 -0.9212  0.3335
 4799TIP3    H135888   6.234   5.897  15.138  1.8407  0.6247 -0.3499
 4799TIP3    H235889   6.294   5.793  15.231  2.0264  2.6649  1.8926
 4800TIP3   OH235890   4.580   5.255  16.113 -0.5193 -0.5165  0.0600
 4800TIP3    H135891   4.646   5.319  16.088  0.0988 -1.0646  0.2584
 4800TIP3    H235892   4.547   5.286  16.198 -0.6542 -0.1398 -0.1295
 4801TIP3   OH235893   1.277   5.856  16.262 -0.2530  0.3293  0.4987
 4801TIP3    H135894   1.201   5.856  16.204 -1.3963  1.3811  1.9007
 4801TIP3    H235895   1.317   5.770  16.250 -0.1952  0.6475 -2.0927
 4802TIP3   OH235896   5.297   5.496  14.982 -0.6137  0.5182 -0.7456
 4802TIP3    H135897   5.371   5.522  14.926 -0.8996 -0.6117 -1.6809
 4802TIP3    H235898   5.222   5.545  14.947 -0.4906  1.0054 -0.3419
 4803TIP3   OH235899   0.987   2.035  11.673  0.2605  0.0119 -0.3794
 4803TIP3    H135900   0.937   2.116  11.687 -1.6558 -1.1469 -0.1602
 4803TIP3    H235901   1.070   2.064  11.636 -1.0232  1.9642 -1.8940
 4804TIP3   OH235902   3.614   6.289   3.910 -0.3516 -0.9788 -0.5045
 4804TIP3    H135903   3.631   6.288   4.004  1.9410  0.0752 -0.8394
 4804TIP3    H235904   3.547   6.356   3.898  0.3546 -0.1141  0.2592
 4805TIP3   OH235905   4.168   4.681  14.288 -0.3861 -0.0523  0.1215
 4805TIP3    H135906   4.078   4.715  14.290 -0.5538 -0.3417 -1.4765
 4805TIP3    H235907   4.206   4.719  14.208  1.2030  0.7280  1.1868
 4806TIP3   OH235908   0.050   6.538   3.063 -0.5287  0.4632 -0.0950
 4806TIP3    H135909  -0.017   6.606   3.059 -0.4825  0.4604 -1.1093
 4806TIP3    H235910   0.123   6.573   3.011 -0.5229 -0.3717 -0.6656
 4807TIP3   OH235911   4.976   6.419  10.870 -0.3973  0.5785 -0.0325
 4807TIP3    H135912   4.942   6.330  10.875  0.5722  0.2471  1.3708
 4807TIP3    H235913   4.901   6.472  10.845 -1.0608 -0.5842 -0.5953
 4808TIP3   OH235914   3.483   5.062   4.980  0.2083  0.3662 -0.0968
 4808TIP3    H135915   3.412   5.001   4.961 -0.4264  1.9596 -3.4835
 4808TIP3    H235916   3.460   5.098   5.066 -0.6917 -2.2234  0.8777
 4809TIP3   OH235917   3.779   5.040  13.880 -0.0200 -1.1997 -0.0035
 4809TIP3    H135918   3.770   4.951  13.846  0.2180 -0.9059 -0.8811
 4809TIP3    H235919   3.822   5.088  13.809 -1.6745  0.0193 -0.2336
 4810TIP3   OH235920   2.628   3.911   0.357  0.1507  0.4454  0.3073
 4810TIP3    H135921   2.581   3.988   0.326 -0.4402  0.0220  0.1339
 4810TIP3    H235922   2.651   3.863   0.278 -2.7399 -1.4556  0.4533
 4811TIP3   OH235923   0.640   2.639  16.658  0.0314 -0.0225  0.3396
 4811TIP3    H135924   0.694   2.715  16.636 -1.2142  0.8232  0.1089
 4811TIP3    H235925   0.560   2.675  16.694 -0.4792 -1.2444  0.4964
 4812TIP3   OH235926   0.646   1.917   3.325  0.5165 -0.3469 -0.1802
 4812TIP3    H135927   0.715   1.911   3.391  1.5468  0.3221 -1.1586
 4812TIP3    H235928   0.674   1.988   3.267 -1.9744  1.3767  0.5167
 4813TIP3   OH235929   5.133   2.255   3.069  0.3496 -0.6791  0.3802
 4813TIP3    H135930   5.204   2.239   3.007  1.1500 -0.4200  1.2160
 4813TIP3    H235931   5.126   2.350   3.073  0.5581 -0.6842  0.9666
 4814TIP3   OH235932   3.067   1.910  11.585  0.7128 -0.9894 -0.3099
 4814TIP3    H135933   2.972   1.913  11.573  0.9427 -1.5405 -2.8309
 4814TIP3    H235934   3.095   2.001  11.574  0.4074 -0.5837  1.8269
 4815TIP3   OH235935   4.157   2.723   1.012 -0.1980 -0.0498  0.1422
 4815TIP3    H135936   4.127   2.678   0.933  0.8010 -2.0396  0.8216
 4815TIP3    H235937   4.245   2.687   1.028 -0.1261  0.7613  1.8168
 4816TIP3   OH235938   4.046   3.336  15.407 -0.5820 -0.0190 -0.2147
 4816TIP3    H135939   4.045   3.380  15.492  0.0205  0.1876 -0.3101
 4816TIP3    H235940   4.096   3.394  15.350 -1.4219  0.0999 -0.8566
 4817TIP3   OH235941   5.780   2.738   1.951  0.0878  0.7339 -0.5367
 4817TIP3    H135942   5.691   2.703   1.947  0.1969  0.4859 -0.7926
 4817TIP3    H235943   5.770   2.831   1.932 -0.1927  0.8385  0.0772
 4818TIP3   OH235944   2.647   2.767   4.502  1.0076  0.3607  0.0320
 4818TIP3    H135945   2.733   2.727   4.508  0.6698 -0.2304  1.5723
 4818TIP3    H235946   2.626   2.792   4.592  0.3249  2.1568 -0.5763
 4819TIP3   OH235947   6.417   0.896  13.562  0.2064  0.1486 -0.3918
 4819TIP3    H135948   6.435   0.867  13.651  2.7588  2.4244 -0.0486
 4819TIP3    H235949   6.430   0.818  13.508 -1.1693 -1.2156  1.1162
 4820TIP3   OH235950   4.234   4.135  15.680  0.0061 -0.2568 -0.2115
 4820TIP3    H135951   4.269   4.078  15.748 -0.6929 -0.3981  0.0416
 4820TIP3    H235952   4.161   4.085  15.642  1.2484 -0.8033 -2.0539
 4821TIP3   OH235953   3.708   1.056   6.503  0.0764  0.5912  0.0316
 4821TIP3    H135954   3.686   1.058   6.409 -2.4004 -0.6013  0.5093
 4821TIP3    H235955   3.675   1.139   6.536 -0.0995  0.5205  0.0365
 4822TIP3   OH235956   4.942   2.576   1.042  0.4758 -0.7776 -0.0078
 4822TIP3    H135957   4.943   2.519   0.965  0.1110 -1.0924  0.2123
 4822TIP3    H235958   5.027   2.619   1.042  1.0560 -1.8911  0.2308
 4823TIP3   OH235959   1.673   1.105  13.271  0.3759  0.6867 -0.0623
 4823TIP3    H135960   1.706   1.032  13.323 -0.9538  0.0033 -0.1365
 4823TIP3    H235961   1.724   1.102  13.190  0.6931  0.1606  0.1537
 4824TIP3   OH235962   0.827   1.924   2.378  0.5619 -0.2835  0.0156
 4824TIP3    H135963   0.907   1.881   2.347  1.9345  1.7331  0.5668
 4824TIP3    H235964   0.812   1.888   2.465 -1.0752 -3.0517 -1.2493
 4825TIP3   OH235965   2.345   1.369   2.752 -0.2543 -0.3776  0.0739
 4825TIP3    H135966   2.431   1.331   2.732 -0.3917 -2.9417  3.5299
 4825TIP3    H235967   2.364   1.459   2.777  1.4570 -0.8470  0.6282
 4826TIP3   OH235968   6.254   1.486  13.987 -0.6919  0.6545 -0.0897
 4826TIP3    H135969   6.299   1.550  13.934  0.6961  0.4681  0.8127
 4826TIP3    H235970   6.270   1.513  14.077 -0.6176 -0.5975  0.2930
 4827TIP3   OH235971   6.369   3.670   6.345  0.3602 -0.0355 -0.0337
 4827TIP3    H135972   6.447   3.713   6.380 -0.2478  0.9592  0.1247
 4827TIP3    H235973   6.296   3.724   6.373 -0.5151 -1.5849  0.8251
 4828TIP3   OH235974   6.646   3.867  11.565  0.0485  0.7184 -0.8363
 4828TIP3    H135975   6.572   3.846  11.622  0.0386  1.9483 -0.3675
 4828TIP3    H235976   6.700   3.787  11.565 -0.4797  0.3473  0.0716
 4829TIP3   OH235977   6.583   4.830   1.072  0.5596 -0.3179  0.0878
 4829TIP3    H135978   6.510   4.782   1.110 -1.6551  3.0260  0.4463
 4829TIP3    H235979   6.564   4.833   0.979  2.2036 -2.3715 -0.3937
 4830TIP3   OH235980   1.710   0.206   0.524  0.0261  0.3810 -0.3096
 4830TIP3    H135981   1.663   0.289   0.513  1.2503  1.0449 -0.7215
 4830TIP3    H235982   1.784   0.212   0.464  1.5962  0.0912  1.5094
 4831TIP3   OH235983   2.674   1.562   2.279 -0.1669  0.1530  0.0052
 4831TIP3    H135984   2.663   1.544   2.186  0.9930  0.0031 -0.1262
 4831TIP3    H235985   2.766   1.542   2.296 -0.0507  1.3598  0.9167
 4832TIP3   OH235986   6.476   0.510   5.053  0.1804  0.1077  0.7229
 4832TIP3    H135987   6.514   0.598   5.043  1.6863 -0.2309  2.9419
 4832TIP3    H235988   6.535   0.464   5.112 -1.8238 -1.6524  1.4950
 4833TIP3   OH235989   4.246   4.486  17.063 -0.1110 -0.8553 -0.4810
 4833TIP3    H135990   4.285   4.523  17.143 -0.0001 -0.5508 -0.6722
 4833TIP3    H235991   4.320   4.480  17.002 -0.1648 -1.2335 -0.5103
 4834TIP3   OH235992   3.900   2.125  16.445 -0.1183  0.2281 -0.2206
 4834TIP3    H135993   3.824   2.134  16.388 -1.1906 -0.5858  1.0258
 4834TIP3    H235994   3.958   2.065  16.399 -1.4164 -1.2264 -0.0359
 4835TIP3   OH235995   6.519   1.438   6.756 -0.1662  0.2509 -0.4924
 4835TIP3    H135996   6.474   1.493   6.691  2.6320  0.4560 -2.4316
 4835TIP3    H235997   6.604   1.418   6.716  0.7285 -1.7343  2.1072
 4836TIP3   OH235998   0.381   2.396  17.278 -0.0473  0.0442  0.4983
 4836TIP3    H135999   0.447   2.354  17.223  1.9188  1.6397  1.4814
 4836TIP3    H236000   0.351   2.471  17.226 -1.6649 -1.0515 -0.2219
 4837TIP3   OH236001   2.028   1.987   0.667 -0.2471 -0.2432  1.0670
 4837TIP3    H136002   1.936   1.966   0.677  0.0393 -1.1572  2.0252
 4837TIP3    H236003   2.033   2.082   0.676 -1.4265  0.2014 -1.9861
 4838TIP3   OH236004   0.653   4.127   5.451 -0.0793 -0.0463  0.2570
 4838TIP3    H136005   0.600   4.207   5.454  0.7550  0.5821 -1.0129
 4838TIP3    H236006   0.617   4.072   5.521 -3.2734 -0.2216 -1.3359
 4839TIP3   OH236007   4.773   0.822   3.582 -0.6003  0.1199 -0.5626
 4839TIP3    H136008   4.721   0.892   3.620 -1.4567 -0.2834 -0.9687
 4839TIP3    H236009   4.824   0.865   3.513  1.3545  0.9536  1.3102
 4840TIP3   OH236010   5.955   0.697  13.732  0.4007  0.0236  0.2090
 4840TIP3    H136011   6.024   0.759  13.755  0.7817 -0.1924 -0.3338
 4840TIP3    H236012   5.936   0.651  13.814 -2.0350  2.8801  1.4027
 4841TIP3   OH236013   6.264   3.050   0.751  0.4631  0.7156  0.3633
 4841TIP3    H136014   6.295   2.963   0.725  0.6728  1.2011 -1.1115
 4841TIP3    H236015   6.189   3.033   0.807 -0.1241 -0.4300 -0.7175
 4842TIP3   OH236016   5.281   5.956   0.379 -0.0971  0.4363 -0.2196
 4842TIP3    H136017   5.280   6.012   0.301 -0.5938  0.9229  0.1225
 4842TIP3    H236018   5.373   5.949   0.403  0.2136 -0.8662 -1.6491
 4843TIP3   OH236019   3.947   2.053  14.588 -0.2430 -0.1078  0.7783
 4843TIP3    H136020   3.874   2.031  14.531 -0.0395  1.7144 -0.2604
 4843TIP3    H236021   3.974   2.140  14.560  2.9325 -1.0688  0.4852
 4844TIP3   OH236022   0.385   2.642  11.283 -0.6506 -0.2211 -0.0524
 4844TIP3    H136023   0.410   2.672  11.195  3.0788  0.2932  0.9946
 4844TIP3    H236024   0.398   2.547  11.279 -1.5686 -0.3447 -0.3209
 4845TIP3   OH236025   1.084   6.116  14.729 -0.3758  0.7164 -0.1694
 4845TIP3    H136026   1.091   6.209  14.750  0.7194  0.3352  1.2891
 4845TIP3    H236027   1.079   6.113  14.633  3.1766  2.1109 -0.5452
 4846TIP3   OH236028   4.025   6.710  11.895 -0.2871  0.2415 -0.1627
 4846TIP3    H136029   3.977   6.790  11.917 -3.4920 -1.0510 -1.8106
 4846TIP3    H236030   4.008   6.697  11.802  3.4171 -0.4001 -0.9301
 4847TIP3   OH236031   6.667   0.002   3.088  0.5852 -0.0367  0.6354
 4847TIP3    H136032   6.624   0.009   3.003  3.4443 -2.1826 -1.1538
 4847TIP3    H236033   6.732   0.072   3.088 -0.6214  1.1525  1.9514
 4848TIP3   OH236034   2.742   1.888  16.730  0.4597  0.4526 -0.4210
 4848TIP3    H136035   2.836   1.903  16.743  0.3863  0.2913  0.3012
 4848TIP3    H236036   2.739   1.814  16.669  0.8081 -0.1294  0.2505
 4849TIP3   OH236037   1.914   2.191  12.996 -0.3096  0.0591  0.0244
 4849TIP3    H136038   1.948   2.203  12.908  0.3570 -0.6702  0.1737
 4849TIP3    H236039   1.851   2.119  12.988 -1.4385  1.0427 -0.1481
 4850TIP3   OH236040   5.164   5.691  17.061  0.5732  0.5054 -0.5471
 4850TIP3    H136041   5.188   5.776  17.026 -0.8548  0.7705 -0.9237
 4850TIP3    H236042   5.071   5.681  17.041  0.5767 -0.9036 -0.0224
 4851TIP3   OH236043   5.502   3.732  10.984  0.5608  0.1491 -0.3257
 4851TIP3    H136044   5.472   3.823  10.983 -0.8450 -0.1659 -4.2999
 4851TIP3    H236045   5.584   3.733  10.935  1.7305 -0.4838  1.5323
 4852TIP3   OH236046   0.412   4.755  15.279  0.3850 -0.1849  0.3234
 4852TIP3    H136047   0.411   4.737  15.373  0.7196 -0.4270  0.2817
 4852TIP3    H236048   0.335   4.708  15.245  1.3942 -1.8254  0.1791
 4853TIP3   OH236049   0.345   4.347  11.728  0.8562  0.4376 -0.0575
 4853TIP3    H136050   0.381   4.259  11.741 -1.0128 -0.3185  0.4144
 4853TIP3    H236051   0.380   4.399  11.800 -0.4952 -0.7770  1.5299
 4854TIP3   OH236052   3.213   0.559   3.953  0.0116 -0.1871 -0.4673
 4854TIP3    H136053   3.139   0.607   3.916 -1.6247 -1.7931  0.6139
 4854TIP3    H236054   3.192   0.549   4.046  2.3363  0.6301  0.2291
 4855TIP3   OH236055   4.120   0.773  17.130  0.8052  0.2264 -0.5688
 4855TIP3    H136056   4.150   0.689  17.097 -0.1733  0.2903 -1.6619
 4855TIP3    H236057   4.030   0.781  17.099  0.6252  1.3348  0.1716
 4856TIP3   OH236058   5.048   6.201   2.292 -0.5659  0.3391 -0.4416
 4856TIP3    H136059   4.984   6.271   2.305  0.6801  1.3319  0.7589
 4856TIP3    H236060   5.121   6.225   2.349 -0.1427 -2.0344  0.1248
 4857TIP3   OH236061   1.943   1.500   0.583 -0.0401  0.0078  0.1028
 4857TIP3    H136062   1.930   1.564   0.513  0.2067  1.3853  1.2758
 4857TIP3    H236063   1.935   1.415   0.539  0.3437  0.8210 -1.6386
 4858TIP3   OH236064   0.503   6.703  15.784  0.0341 -0.0608 -0.2613
 4858TIP3    H136065   0.579   6.668  15.831 -0.1996  1.5492  1.4227
 4858TIP3    H236066   0.428   6.662  15.826 -0.1552  1.0601  0.5444
 4859TIP3   OH236067   3.223   2.644  12.818 -0.1542 -0.7331  0.1160
 4859TIP3    H136068   3.296   2.611  12.766 -0.9309  1.1319 -2.3259
 4859TIP3    H236069   3.168   2.690  12.755 -2.6200 -0.6865  2.1593
 4860TIP3   OH236070   6.010   1.560  14.627  0.0005  0.5158 -0.0235
 4860TIP3    H136071   6.038   1.649  14.644  2.5646 -0.5346  1.8464
 4860TIP3    H236072   5.996   1.522  14.714 -3.5266 -0.3026 -0.7632
 4861TIP3   OH236073   1.468   0.295  10.997  0.1577  0.6947  0.0191
 4861TIP3    H136074   1.517   0.234  11.053  2.0383  2.7084  0.6894
 4861TIP3    H236075   1.517   0.298  10.915 -0.6336  0.4034 -0.4840
 4862TIP3   OH236076   3.718   3.413   1.452  0.1252  0.2159 -0.2978
 4862TIP3    H136077   3.624   3.398   1.459  0.1019  0.0659 -0.9334
 4862TIP3    H236078   3.753   3.333   1.413  0.4601  0.4332 -0.4515
 4863TIP3   OH236079   4.730   6.190  17.343  0.2172 -0.7384 -0.0778
 4863TIP3    H136080   4.783   6.242  17.282 -0.3389  1.8527  1.5136
 4863TIP3    H236081   4.782   6.187  17.423 -1.9623  2.1385  1.6288
 4864TIP3   OH236082   6.469   2.991   5.936  0.5613 -0.1486  0.1335
 4864TIP3    H136083   6.443   3.077   5.967  0.5099 -0.3166  0.5648
 4864TIP3    H236084   6.564   2.988   5.948  0.4461 -0.5069  1.0383
 4865TIP3   OH236085   2.607   6.547  15.718 -0.6235  0.3412 -0.4475
 4865TIP3    H136086   2.654   6.629  15.730  2.0964 -1.0611 -0.8331
 4865TIP3    H236087   2.665   6.493  15.665 -2.2425 -1.9021 -0.0968
 4866TIP3   OH236088   0.680   6.381  17.163 -0.3399 -0.7236  0.5001
 4866TIP3    H136089   0.612   6.393  17.230 -0.3088  1.6702  0.1875
 4866TIP3    H236090   0.723   6.467  17.157 -0.5493 -0.7327 -2.7919
 4867TIP3   OH236091   5.145   3.216  16.781  0.1942 -0.2646  0.1829
 4867TIP3    H136092   5.234   3.236  16.810  1.3362  0.5645 -3.3911
 4867TIP3    H236093   5.089   3.267  16.839  2.1822  1.1009  1.0210
 4868TIP3   OH236094   5.909   5.036   2.827 -0.0326 -0.7723 -0.2613
 4868TIP3    H136095   5.933   5.062   2.738  1.4205 -3.4635 -0.7446
 4868TIP3    H236096   5.981   5.066   2.881 -0.1846 -0.4765 -0.2213
 4869TIP3   OH236097   4.013   0.471   3.720  0.1203 -0.1613  0.6453
 4869TIP3    H136098   4.016   0.549   3.775 -1.3732  1.9712 -2.0467
 4869TIP3    H236099   4.071   0.492   3.646 -0.2301 -1.6720 -0.1027
 4870TIP3   OH236100   4.309   6.681   5.275  0.8394 -0.4423  0.2929
 4870TIP3    H136101   4.240   6.615   5.272  0.8874 -0.4656 -0.4048
 4870TIP3    H236102   4.355   6.672   5.192  3.4344 -2.3188  1.7658
 4871TIP3   OH236103   4.942   3.960  15.652  0.3730 -0.1469 -0.1910
 4871TIP3    H136104   5.036   3.945  15.665 -0.2768 -3.1257  2.2799
 4871TIP3    H236105   4.921   3.912  15.572  1.1854  2.4864 -2.1623
 4872TIP3   OH236106   5.330   4.334   0.681 -0.0114  0.3384  0.4532
 4872TIP3    H136107   5.313   4.254   0.731 -1.9905  0.0077 -0.6030
 4872TIP3    H236108   5.360   4.302   0.596  2.1426  0.8613  0.9621
 4873TIP3   OH236109   2.164   0.464   2.828 -0.0470 -0.2224 -0.5128
 4873TIP3    H136110   2.146   0.422   2.912  0.1922 -0.2034 -0.4520
 4873TIP3    H236111   2.230   0.408   2.787  1.0523  0.6445  0.0135
 4874TIP3   OH236112   2.772   5.685  11.976 -0.1668 -0.3655 -0.0576
 4874TIP3    H136113   2.845   5.740  11.950  0.0634 -0.8080 -0.3572
 4874TIP3    H236114   2.813   5.605  12.011 -0.5037 -0.7398 -0.5002
 4875TIP3   OH236115   2.376   4.216  14.610  0.1890  0.0198 -0.2758
 4875TIP3    H136116   2.289   4.244  14.583  0.6903  0.0765 -1.9229
 4875TIP3    H236117   2.423   4.198  14.528  1.8649  0.4213  0.5451
 4876TIP3   OH236118   5.965   0.445  14.463 -0.2292  0.5820  0.4639
 4876TIP3    H136119   6.053   0.465  14.492  0.1741  0.1106 -0.3925
 4876TIP3    H236120   5.930   0.528  14.431 -0.9411  1.2699  2.8470
 4877TIP3   OH236121   5.400   4.503  16.304 -0.1982  0.2129 -0.0638
 4877TIP3    H136122   5.444   4.587  16.293 -0.5920  0.5152  0.6160
 4877TIP3    H236123   5.414   4.480  16.396  0.2138 -0.6423 -0.3298
 4878TIP3   OH236124   4.582   4.201   4.863  0.2158 -0.0534 -0.2901
 4878TIP3    H136125   4.660   4.200   4.919  0.0150 -2.4235  0.0593
 4878TIP3    H236126   4.524   4.265   4.902  0.2196 -1.4012  2.1091
 4879TIP3   OH236127   5.317   3.036  15.580  0.0970 -0.0484 -0.3289
 4879TIP3    H136128   5.285   2.948  15.557  1.1334 -1.1106  1.9566
 4879TIP3    H236129   5.241   3.080  15.618 -0.8820  0.7320 -2.9812
 4880TIP3   OH236130   0.950   2.793   5.623  0.4044 -0.1268  0.2971
 4880TIP3    H136131   0.915   2.753   5.702 -0.1896 -0.1988 -0.0051
 4880TIP3    H236132   0.927   2.734   5.552  2.2332 -0.8418  0.2285
 4881TIP3   OH236133   2.714   4.936   4.257  0.5110  0.0891 -0.0883
 4881TIP3    H136134   2.621   4.958   4.250  0.5079 -0.2914 -1.4279
 4881TIP3    H236135   2.756   4.989   4.190  1.0454 -0.9402 -0.5864
 4882TIP3   OH236136   1.691   5.307  11.297  0.0063  0.3104  0.2704
 4882TIP3    H136137   1.650   5.374  11.242 -0.3425 -0.1720 -0.0748
 4882TIP3    H236138   1.701   5.231  11.238  0.3514  0.0449  0.6639
 4883TIP3   OH236139   1.227   4.260   0.711 -0.3438 -0.1903  0.0940
 4883TIP3    H136140   1.146   4.312   0.718 -0.4962 -0.2571 -1.0133
 4883TIP3    H236141   1.217   4.212   0.629 -0.3949 -2.3234  1.2828
 4884TIP3   OH236142   6.625   1.419  11.015  0.0236  0.5463  0.4562
 4884TIP3    H136143   6.563   1.396  11.085  1.3734 -1.6530  1.0275
 4884TIP3    H236144   6.598   1.506  10.988 -2.2789  0.3653  1.8183
 4885TIP3   OH236145   3.901   5.444  12.125 -0.3851 -0.3455  0.3858
 4885TIP3    H136146   3.975   5.384  12.113 -0.2555 -0.1195  0.0138
 4885TIP3    H236147   3.923   5.493  12.204 -0.6157 -0.9657  0.8322
 4886TIP3   OH236148   3.578   5.153   5.228  0.1655  0.0678 -0.2996
 4886TIP3    H136149   3.637   5.089   5.268  0.3356 -0.5154 -1.4537
 4886TIP3    H236150   3.530   5.190   5.302 -0.9930 -2.4360  0.2985
 4887TIP3   OH236151   3.574   1.535   2.739 -0.2566  0.0798  0.1224
 4887TIP3    H136152   3.589   1.460   2.681 -0.8296  0.9015 -1.1091
 4887TIP3    H236153   3.660   1.575   2.750 -0.2328  0.2485 -0.6332
 4888TIP3   OH236154   2.860   3.807   1.547 -0.3335  0.1031 -0.6950
 4888TIP3    H136155   2.849   3.843   1.459 -0.8832  1.6510 -0.0287
 4888TIP3    H236156   2.954   3.792   1.556 -0.2442  0.1860 -1.4497
 4889TIP3   OH236157   5.494   1.014   4.346 -0.1071  0.1193  0.1632
 4889TIP3    H136158   5.513   0.983   4.258  1.3196  0.2964  0.3739
 4889TIP3    H236159   5.555   0.965   4.402 -0.4017  0.6195  0.9375
 4890TIP3   OH236160   2.015   1.931   3.483 -0.2415 -0.0161 -0.0795
 4890TIP3    H136161   2.070   1.881   3.423  0.5184  0.1071  0.5035
 4890TIP3    H236162   2.029   1.890   3.569 -2.2286 -0.9634 -0.1474
 4891TIP3   OH236163   6.744   0.511  15.213  0.6247  0.6018 -0.6990
 4891TIP3    H136164   6.670   0.502  15.273  1.4990 -1.2668  0.1762
 4891TIP3    H236165   6.706   0.502  15.126 -0.2228 -0.0983 -0.2655
 4892TIP3   OH236166   1.527   6.621  12.461 -0.4789  0.2189 -0.0695
 4892TIP3    H136167   1.564   6.654  12.543 -1.6746 -0.1013  0.6212
 4892TIP3    H236168   1.481   6.541  12.485  0.0553 -0.4719 -1.2567
 4893TIP3   OH236169   3.723   6.671   3.720  0.0666 -0.0331  0.0606
 4893TIP3    H136170   3.802   6.718   3.693 -0.8220  1.5281  0.0759
 4893TIP3    H236171   3.673   6.659   3.640  0.3232 -1.0905  0.0391
 4894TIP3   OH236172   2.833   0.503   0.114  0.1541  0.1496  0.3656
 4894TIP3    H136173   2.755   0.509   0.060  0.0073  1.3073  0.6875
 4894TIP3    H236174   2.872   0.590   0.111  1.3660 -0.3633  0.3281
 4895TIP3   OH236175   0.939   0.047  14.204  0.5162  0.3313 -0.1566
 4895TIP3    H136176   0.893   0.024  14.123  1.2956 -2.4964  0.0977
 4895TIP3    H236177   1.023   0.002  14.198  0.4751 -0.2428  2.3092
 4896TIP3   OH236178   3.201   4.901   0.488 -0.0420 -0.4063  0.2315
 4896TIP3    H136179   3.240   4.988   0.501  0.4358 -0.8963  2.3629
 4896TIP3    H236180   3.229   4.876   0.399 -0.9049  1.9325 -0.7915
 4897TIP3   OH236181   2.999   4.736  13.781 -0.4791 -0.7486 -0.1284
 4897TIP3    H136182   3.026   4.827  13.764 -2.3093 -0.6988 -3.6845
 4897TIP3    H236183   2.946   4.741  13.860 -0.2628  1.2143 -0.0530
 4898TIP3   OH236184   6.204   2.754   0.725 -0.1767 -0.5270 -0.0742
 4898TIP3    H136185   6.195   2.659   0.715  1.9063 -0.6010 -1.9951
 4898TIP3    H236186   6.125   2.790   0.684 -0.3430 -1.4112 -0.5585
 4899TIP3   OH236187   0.117   6.691   0.582 -0.4063  0.2338  0.3999
 4899TIP3    H136188   0.052   6.700   0.513 -0.8701 -0.4780  0.7407
 4899TIP3    H236189   0.148   6.781   0.597 -1.8866  0.6970  0.8009
 4900TIP3   OH236190   2.221   3.995  15.440 -0.1669 -0.1434  0.3120
 4900TIP3    H136191   2.129   4.014  15.423 -0.0877 -0.5792 -0.6645
 4900TIP3    H236192   2.231   3.902  15.422  0.6788  0.1047 -0.6748
 4901TIP3   OH236193   6.242   0.671   1.430  0.0726 -0.0398  0.3441
 4901TIP3    H136194   6.303   0.612   1.385 -1.2933 -1.1655 -0.1133
 4901TIP3    H236195   6.298   0.739   1.467  1.3631  0.5145 -2.3394
 4902TIP3   OH236196   1.488   4.161  11.585 -0.6341 -0.7685 -0.0687
 4902TIP3    H136197   1.452   4.076  11.609 -1.6981  0.0654  1.4018
 4902TIP3    H236198   1.578   4.142  11.557 -0.6420 -2.2836  0.8446
 4903TIP3   OH236199   0.173   3.257  12.830  0.3658 -0.0773 -0.2152
 4903TIP3    H136200   0.145   3.192  12.894 -0.2427 -0.2782 -0.6761
 4903TIP3    H236201   0.092   3.301  12.803  0.7620  0.8182  0.0299
 4904TIP3   OH236202   0.798   4.438  16.134  0.1999 -0.3861 -0.4179
 4904TIP3    H136203   0.866   4.472  16.192  2.6124 -1.6749 -2.3041
 4904TIP3    H236204   0.814   4.344  16.130 -1.4138 -0.6670 -1.3542
 4905TIP3   OH236205   0.408   1.003  13.292 -0.1629  0.2143 -0.3459
 4905TIP3    H136206   0.401   0.959  13.208 -3.4965  0.6968 -0.4349
 4905TIP3    H236207   0.501   1.025  13.299  0.5936 -1.6461 -2.9068
 4906TIP3   OH236208   3.877   2.623   2.376 -0.0295 -0.7405 -0.4838
 4906TIP3    H136209   3.927   2.697   2.410 -0.4871 -0.7707  0.2770
 4906TIP3    H236210   3.888   2.629   2.281 -1.4912  1.3551 -0.5926
 4907TIP3   OH236211   0.063   3.966  14.347  0.4162 -0.1738 -0.0289
 4907TIP3    H136212   0.105   4.051  14.332 -0.8445  0.3959 -0.5286
 4907TIP3    H236213   0.076   3.950  14.441  0.5839  0.6300  0.0992
 4908TIP3   OH236214   0.234   5.926   4.679 -0.2589  0.9005  0.2181
 4908TIP3    H136215   0.209   5.839   4.710  1.8180  0.6359  1.3627
 4908TIP3    H236216   0.280   5.965   4.753  1.4294  1.8171 -1.2378
 4909TIP3   OH236217   1.044   3.867  12.489 -0.1072  0.1514 -0.0816
 4909TIP3    H136218   0.958   3.874  12.447  0.6661  0.9100 -1.6299
 4909TIP3    H236219   1.095   3.811  12.430  0.8982  0.9229  0.0279
 4910TIP3   OH236220   5.886   2.740  12.067 -0.5669 -0.6207  0.2305
 4910TIP3    H136221   5.855   2.814  12.119 -1.2711  0.0548 -1.1305
 4910TIP3    H236222   5.980   2.758  12.055 -0.9410  0.6563 -1.0283
 4911TIP3   OH236223   0.553   5.795  16.226 -0.3506 -0.7665 -0.6006
 4911TIP3    H136224   0.646   5.817  16.223 -0.3937 -0.6038 -3.0703
 4911TIP3    H236225   0.510   5.875  16.255  0.2941 -1.0363  1.1933
 4912TIP3   OH236226   6.766   6.085  17.517 -0.3426 -0.0690  0.7708
 4912TIP3    H136227   6.854   6.049  17.529 -0.1325  0.1533 -0.0326
 4912TIP3    H236228   6.735   6.044  17.436 -0.8990  0.0117  0.9425
 4913TIP3   OH236229   4.106   1.430  12.071 -0.0283  0.0866  0.1088
 4913TIP3    H136230   4.025   1.400  12.030  0.9506 -1.8276 -0.5408
 4913TIP3    H236231   4.126   1.364  12.136  0.2392  1.3389  1.3415
 4914TIP3   OH236232   4.879   0.049  14.831  0.4248 -0.4434  0.0048
 4914TIP3    H136233   4.940  -0.005  14.881  0.9657  1.4109  1.4796
 4914TIP3    H236234   4.927   0.076  14.753  0.0347 -2.2671 -0.9260
 4915TIP3   OH236235   6.323   0.074   5.010 -0.3019 -0.0177 -0.4756
 4915TIP3    H136236   6.406   0.027   5.015  0.4856  1.0295 -2.6204
 4915TIP3    H236237   6.259   0.008   4.985  0.0203 -0.6705  0.3752
 4916TIP3   OH236238   4.668   2.795  15.238  0.0628 -0.6113  0.2939
 4916TIP3    H136239   4.735   2.787  15.306  0.9159  1.4206 -0.2367
 4916TIP3    H236240   4.586   2.781  15.285  0.6489  0.3403  1.7060
 4917TIP3   OH236241   4.641   4.997  11.564  0.0938 -0.0109 -0.0122
 4917TIP3    H136242   4.624   5.042  11.482 -0.8734 -0.7535 -0.2360
 4917TIP3    H236243   4.606   5.055  11.632 -0.1381  0.0771 -0.2091
 4918TIP3   OH236244   3.295   0.175  12.602 -0.7860  0.0121 -0.3663
 4918TIP3    H136245   3.266   0.163  12.692 -0.1465 -2.8756 -0.4585
 4918TIP3    H236246   3.383   0.212  12.609 -0.7368 -0.2137  0.2040
 4919TIP3   OH236247   0.052   1.961  16.301  0.4606  0.7319  0.3632
 4919TIP3    H136248   0.029   1.869  16.316 -0.0350  0.8780  0.5277
 4919TIP3    H236249   0.114   1.982  16.370  3.3320 -0.4551 -1.6707
 4920TIP3   OH236250   4.582   3.152  12.314 -0.1199  0.3759 -0.0325
 4920TIP3    H136251   4.518   3.217  12.285 -0.4921  0.1853  0.3430
 4920TIP3    H236252   4.614   3.185  12.398 -0.3401  0.0550  0.1778
 4921TIP3   OH236253   3.478   5.680  14.110  0.9576  1.2846  0.2688
 4921TIP3    H136254   3.431   5.757  14.140  1.3663  2.1999 -1.2827
 4921TIP3    H236255   3.525   5.648  14.187  1.0225  2.7750  0.8841
 4922TIP3   OH236256   2.670   3.233  16.022  0.4088 -0.6058 -0.4221
 4922TIP3    H136257   2.725   3.286  16.081 -1.8253 -1.0735  2.2899
 4922TIP3    H236258   2.591   3.216  16.072 -1.7380 -1.0522 -3.6713
 4923TIP3   OH236259   4.206   6.283  16.648 -0.4252 -0.8901 -0.1981
 4923TIP3    H136260   4.131   6.286  16.708 -0.7136  2.4159 -0.5417
 4923TIP3    H236261   4.278   6.322  16.699 -0.2392  0.3710 -1.3676
 4924TIP3   OH236262   6.656   2.774   4.363  0.0170 -0.0761 -0.0597
 4924TIP3    H136263   6.713   2.777   4.440 -0.5399 -0.4037  0.3769
 4924TIP3    H236264   6.623   2.684   4.362 -0.0271 -0.0577 -0.6526
 4925TIP3   OH236265   4.443   3.584  16.429 -0.0186 -0.0165 -0.1151
 4925TIP3    H136266   4.499   3.545  16.361  0.3155  1.2987 -0.6162
 4925TIP3    H236267   4.421   3.510  16.486  2.0249 -0.6331 -0.0458
 4926TIP3   OH236268   4.281   0.332   1.438 -0.0560 -0.5566  0.7432
 4926TIP3    H136269   4.294   0.365   1.527  0.9377 -0.8345  0.7206
 4926TIP3    H236270   4.353   0.270   1.426 -0.4671 -0.8817 -0.0859
 4927TIP3   OH236271   6.025   3.478   4.247  0.1403  0.7584 -0.3032
 4927TIP3    H136272   6.115   3.502   4.270 -0.5721  2.4567  0.9088
 4927TIP3    H236273   6.031   3.386   4.220  2.2601  0.8886 -0.4762
 4928TIP3   OH236274   3.496   5.783   1.018  0.3740  0.1411  0.2052
 4928TIP3    H136275   3.531   5.743   0.939  0.9816  1.2279 -0.1004
 4928TIP3    H236276   3.572   5.823   1.061 -0.3796  2.3160 -0.3248
 4929TIP3   OH236277   0.069   1.063  11.812  0.2651  0.9359 -0.1518
 4929TIP3    H136278   0.017   1.062  11.892  1.3847  1.1051  0.6030
 4929TIP3    H236279   0.008   1.089  11.743 -1.5592 -2.4026  0.0164
 4930TIP3   OH236280   3.307   3.146  13.977 -0.0475 -0.5212 -0.0527
 4930TIP3    H136281   3.246   3.103  13.917 -1.9325  0.3574  1.1526
 4930TIP3    H236282   3.299   3.097  14.058 -0.3618  0.5545  0.5891
 4931TIP3   OH236283   1.033   2.487  14.671 -0.2646 -0.3219  0.2504
 4931TIP3    H136284   1.105   2.440  14.714 -1.3497 -0.5273  1.9519
 4931TIP3    H236285   0.977   2.418  14.636  0.2968 -0.1626 -1.0373
 4932TIP3   OH236286   6.481   4.252   6.577  0.1495 -0.1952 -0.1052
 4932TIP3    H136287   6.481   4.337   6.621  1.1078  1.2512 -2.6882
 4932TIP3    H236288   6.560   4.209   6.608  0.2234  0.2993  0.4162
 4933TIP3   OH236289   6.411   6.261  15.179  0.2926 -0.3823  0.0863
 4933TIP3    H136290   6.438   6.309  15.101  0.4632  0.1687  0.4773
 4933TIP3    H236291   6.324   6.228  15.159  0.4532 -0.4832 -0.4420
 4934TIP3   OH236292   4.841   2.855   4.564 -0.5868 -0.2656 -0.0947
 4934TIP3    H136293   4.796   2.853   4.649  0.5732  0.1667  0.5471
 4934TIP3    H236294   4.911   2.790   4.572 -1.9371 -2.0291 -1.6167
 4935TIP3   OH236295   3.121   4.123   4.610 -0.4611  0.3461  0.2591
 4935TIP3    H136296   3.190   4.158   4.554  1.7989  0.5449  2.9820
 4935TIP3    H236297   3.110   4.188   4.679 -3.7713  0.5307 -0.2476
 4936TIP3   OH236298   5.403   4.756   4.592  0.0758  0.4860 -0.2217
 4936TIP3    H136299   5.361   4.833   4.630 -3.3622 -0.3482 -1.9610
 4936TIP3    H236300   5.472   4.791   4.537 -0.3291  2.1951  0.3033
 4937TIP3   OH236301   5.610   4.807  14.389 -0.1534  0.0069 -0.5213
 4937TIP3    H136302   5.660   4.744  14.441 -0.7633 -0.9228 -1.0192
 4937TIP3    H236303   5.669   4.832  14.318 -0.1536 -0.5944 -0.7456
 4938TIP3   OH236304   3.112   3.033  12.453 -0.0001 -0.8108  0.4573
 4938TIP3    H136305   3.204   3.018  12.432 -0.3199 -0.5893 -1.2421
 4938TIP3    H236306   3.098   3.127  12.436 -0.3718 -0.6789  1.4241
 4939TIP3   OH236307   3.358   3.981   3.507  0.0315  0.1427  0.0107
 4939TIP3    H136308   3.281   3.959   3.454 -0.2345 -0.9752  0.8207
 4939TIP3    H236309   3.322   4.000   3.594  0.7470 -1.4897  0.6909
 4940TIP3   OH236310   0.921   1.355  13.706 -0.2617 -0.7477 -0.0788
 4940TIP3    H136311   0.946   1.265  13.686 -1.4470 -0.7000 -2.0601
 4940TIP3    H236312   0.991   1.408  13.667 -1.6723 -0.7258 -2.7942
 4941TIP3   OH236313   3.951   1.617   4.447  0.0658  0.2528 -0.3870
 4941TIP3    H136314   3.878   1.620   4.385 -0.6204 -0.8181  0.3227
 4941TIP3    H236315   3.910   1.597   4.531  1.2961 -2.1167 -0.2569
 4942TIP3   OH236316   4.088   2.358   2.224 -0.1457  0.0497 -0.3775
 4942TIP3    H136317   4.166   2.357   2.168 -1.0596  1.0504 -1.7223
 4942TIP3    H236318   4.041   2.278   2.201  0.2046 -0.2921  0.0635
 4943TIP3   OH236319   5.037   4.203  11.388  0.5756 -0.0180  0.5371
 4943TIP3    H136320   4.989   4.281  11.359 -0.2269  0.2755  2.5242
 4943TIP3    H236321   5.129   4.224  11.372  0.2001 -0.2706 -2.5775
 4944TIP3   OH236322   0.968   3.327   4.927 -0.2391  0.9964 -0.0371
 4944TIP3    H136323   1.014   3.399   4.971  0.8748 -0.2316  0.8521
 4944TIP3    H236324   0.983   3.344   4.834  3.1643  0.0049  0.2015
 4945TIP3   OH236325   1.980   2.373  14.162 -0.5602  0.0501 -0.7186
 4945TIP3    H136326   1.946   2.457  14.131 -0.4926 -0.1934 -1.4579
 4945TIP3    H236327   1.919   2.308  14.128 -0.8180 -0.1809  0.1579
 4946TIP3   OH236328   0.102   1.311   4.455  0.1833  0.3093 -0.5566
 4946TIP3    H136329   0.181   1.354   4.488  1.1171 -1.3280 -0.5661
 4946TIP3    H236330   0.134   1.235   4.407 -1.4016 -0.2757 -0.7550
 4947TIP3   OH236331   4.663   3.978  13.555 -0.3598  0.3314  0.0380
 4947TIP3    H136332   4.672   4.067  13.590  2.2272  1.7429 -3.6467
 4947TIP3    H236333   4.751   3.941  13.559 -0.2016  0.0630 -3.2633
 4948TIP3   OH236334   1.213   5.872   3.024  0.0361 -1.1796 -0.1438
 4948TIP3    H136335   1.281   5.933   2.995 -0.3509 -1.1776 -1.0732
 4948TIP3    H236336   1.161   5.922   3.087  2.2395 -1.8830  2.4144
 4949TIP3   OH236337   3.063   5.573   2.118  0.0427  0.2623  0.2842
 4949TIP3    H136338   3.125   5.585   2.047  0.4567  1.0321  0.7555
 4949TIP3    H236339   2.982   5.614   2.087 -0.2176 -0.6691 -0.2978
 4950TIP3   OH236340   0.233   3.282   2.948  0.2244 -0.3798  0.1846
 4950TIP3    H136341   0.180   3.347   2.995 -0.6863 -1.8470  1.2944
 4950TIP3    H236342   0.209   3.293   2.856 -1.8914 -0.8147  0.6205
 4951TIP3   OH236343   4.866   3.304  16.321  0.2762 -0.0441 -0.2629
 4951TIP3    H136344   4.869   3.362  16.245  0.3502  1.0274  0.5333
 4951TIP3    H236345   4.896   3.359  16.394  2.3955 -1.6553  0.1748
 4952TIP3   OH236346   1.904   1.068   5.326 -0.1338 -0.0120 -0.1274
 4952TIP3    H136347   1.857   1.051   5.408  1.5450 -0.7327  0.7435
 4952TIP3    H236348   1.961   0.992   5.315 -1.1808 -0.5039 -2.6423
 4953TIP3   OH236349   4.842   0.697  17.486 -0.1294  0.8875 -0.0461
 4953TIP3    H136350   4.810   0.710  17.576 -1.1026  0.9027 -0.3813
 4953TIP3    H236351   4.937   0.704  17.493 -0.0905 -0.4950  1.2104
 4954TIP3   OH236352   2.408   0.678   3.003 -0.3398 -0.3377 -0.3770
 4954TIP3    H136353   2.458   0.598   3.017  1.2355  0.5164 -0.9085
 4954TIP3    H236354   2.414   0.695   2.909 -1.5795 -0.1638 -0.4430
 4955TIP3   OH236355   0.718   0.886   3.419  0.1356  0.5336  0.0488
 4955TIP3    H136356   0.637   0.854   3.381  1.0173 -0.0359 -1.4300
 4955TIP3    H236357   0.786   0.830   3.382  1.2405  1.1910  1.0153
 4956TIP3   OH236358   3.395   0.236  13.569 -0.5336 -0.4926  0.0914
 4956TIP3    H136359   3.393   0.292  13.647  0.6634 -0.4923  0.1463
 4956TIP3    H236360   3.309   0.193  13.568 -0.9014  0.1893  0.8998
 4957TIP3   OH236361   2.897   5.511  12.128  0.1941 -0.0516 -0.2437
 4957TIP3    H136362   2.987   5.542  12.118  1.0534 -2.4971 -0.7982
 4957TIP3    H236363   2.860   5.566  12.197  1.5502  2.0946 -1.1295
 4958TIP3   OH236364   4.231   0.879  16.834 -0.0740 -0.1966  0.3114
 4958TIP3    H136365   4.179   0.866  16.755 -1.0797 -1.4707  1.1510
 4958TIP3    H236366   4.187   0.950  16.880 -1.3176 -1.4631  1.1616
 4959TIP3   OH236367   6.245   6.046  15.921 -0.1050 -0.1760 -0.1912
 4959TIP3    H136368   6.173   6.097  15.958 -0.5043 -0.9631  0.1546
 4959TIP3    H236369   6.303   6.029  15.996  0.4246  0.4191 -0.4595
 4960TIP3   OH236370   0.870   0.242  11.349  0.4703  0.2120 -0.2111
 4960TIP3    H136371   0.775   0.245  11.364  0.4514 -0.7519 -0.0893
 4960TIP3    H236372   0.907   0.297  11.418 -0.1144  2.4871 -1.5912
 4961TIP3   OH236373   2.367   1.138   1.886 -0.1534  0.2561  0.2525
 4961TIP3    H136374   2.395   1.230   1.879  0.9604 -0.0864  0.1377
 4961TIP3    H236375   2.289   1.142   1.942 -0.1303  1.2774  0.2355
 4962TIP3   OH236376   4.782   0.262  12.948 -0.1606 -0.2054 -0.0859
 4962TIP3    H136377   4.851   0.261  13.015  1.0039 -0.6492 -1.2389
 4962TIP3    H236378   4.763   0.355  12.935 -0.1315 -0.0980  0.5888
 4963TIP3   OH236379   4.497   2.615   2.538 -0.1951  0.7744 -0.5117
 4963TIP3    H136380   4.516   2.646   2.627 -1.0922 -1.1744  0.4242
 4963TIP3    H236381   4.403   2.628   2.527  0.0936  2.0354 -1.6303
 4964TIP3   OH236382   5.522   2.756   0.562 -0.0305  0.1148  0.1226
 4964TIP3    H136383   5.500   2.841   0.524 -0.5868  0.2199  0.6644
 4964TIP3    H236384   5.596   2.774   0.620  1.3184 -0.1748 -1.4202
 4965TIP3   OH236385   5.742   3.999  10.573 -0.2226  0.7496  0.1252
 4965TIP3    H136386   5.773   3.915  10.607 -0.3423  0.8697  0.5420
 4965TIP3    H236387   5.734   4.055  10.651  0.9842  1.5164 -0.2701
 4966TIP3   OH236388   2.563   3.238   1.806 -0.3227 -0.0049 -0.3994
 4966TIP3    H136389   2.569   3.150   1.842  2.3856  0.6010  0.8630
 4966TIP3    H236390   2.605   3.294   1.872 -2.8958  2.4410 -0.6420
 4967TIP3   OH236391   5.240   3.764  13.436 -0.0988  0.0964  0.1244
 4967TIP3    H136392   5.308   3.793  13.497 -0.4372 -1.6154  1.3844
 4967TIP3    H236393   5.277   3.686  13.395  0.5907  1.8008 -2.8114
 4968TIP3   OH236394   1.154   3.412   2.415 -1.0106 -0.6553 -0.4251
 4968TIP3    H136395   1.208   3.453   2.483  0.6578 -1.4259 -1.2156
 4968TIP3    H236396   1.074   3.463   2.414 -0.4096  0.3907  0.9931
 4969TIP3   OH236397   5.884   5.234  15.816 -0.1787  0.6997 -0.8462
 4969TIP3    H136398   5.863   5.326  15.832 -0.8339  0.6637 -1.4332
 4969TIP3    H236399   5.800   5.193  15.796  0.0037 -0.1770  0.0500
 4970TIP3   OH236400   1.281   1.303  17.155 -0.7036 -0.0491 -0.2048
 4970TIP3    H136401   1.353   1.349  17.199 -0.2327 -1.6223  0.7491
 4970TIP3    H236402   1.201   1.343  17.192 -0.3161 -1.1356  1.9453
 4971TIP3   OH236403   6.342   4.704   2.783  0.8036 -0.1836 -0.0828
 4971TIP3    H136404   6.408   4.648   2.824  1.6878  1.1790  0.4325
 4971TIP3    H236405   6.358   4.791   2.820  0.9814  0.9242 -2.5465
 4972TIP3   OH236406   2.877   4.612  11.747 -0.1264 -0.0630 -0.4440
 4972TIP3    H136407   2.901   4.567  11.667  0.9064 -1.0197  0.3715
 4972TIP3    H236408   2.938   4.686  11.754  0.1192 -0.2802 -0.2845
 4973TIP3   OH236409   1.011   5.824  13.702  0.0669 -0.2426 -0.1251
 4973TIP3    H136410   1.055   5.863  13.627  2.0973  1.3716  1.7397
 4973TIP3    H236411   0.920   5.811  13.674  0.2866  2.1034 -2.2022
 4974TIP3   OH236412   3.503   4.409   6.226  0.0654  1.0514  0.3179
 4974TIP3    H136413   3.429   4.349   6.216 -0.5098  1.6927  0.6811
 4974TIP3    H236414   3.526   4.403   6.318  3.6560 -2.8345 -0.5289
 4975TIP3   OH236415   0.459   3.482   5.237 -0.0067  0.1500 -0.3141
 4975TIP3    H136416   0.390   3.539   5.204  0.7376  1.5679  0.4682
 4975TIP3    H236417   0.417   3.397   5.250 -1.3931  0.7811 -0.5773
 4976TIP3   OH236418   5.886   2.178  14.621  0.5248 -0.1097  0.2391
 4976TIP3    H136419   5.956   2.242  14.617 -0.0983  0.5852  0.2956
 4976TIP3    H236420   5.806   2.229  14.628  0.0855 -0.9082  1.3054
 4977TIP3   OH236421   6.403   0.515   4.112 -0.1191 -0.6578  0.0981
 4977TIP3    H136422   6.484   0.463   4.113 -0.6239 -1.5032 -0.6609
 4977TIP3    H236423   6.358   0.491   4.193  0.0107 -0.8357  0.1197
 4978TIP3   OH236424   3.891   1.955  11.493  0.4500 -0.0864  0.0000
 4978TIP3    H136425   3.963   1.977  11.435  0.0972  0.0094 -0.4028
 4978TIP3    H236426   3.814   1.991  11.450  0.3250  0.9931  1.0742
 4979TIP3   OH236427   5.927   2.498   2.043  0.5454 -0.3445 -0.2322
 4979TIP3    H136428   5.866   2.565   2.011 -0.5075 -0.5633  1.2187
 4979TIP3    H236429   5.874   2.418   2.048  1.6392 -1.1734 -1.3905
 4980TIP3   OH236430   4.618   1.751   5.149  0.6031 -0.0424  0.5542
 4980TIP3    H136431   4.596   1.685   5.084  1.5917 -1.2797  1.4246
 4980TIP3    H236432   4.692   1.799   5.111  2.1692 -1.7206  1.2798
 4981TIP3   OH236433   3.771   2.435   0.825 -0.1610 -0.3745  0.5424
 4981TIP3    H136434   3.697   2.495   0.829  2.5994  3.3713  2.2059
 4981TIP3    H236435   3.812   2.454   0.740 -0.7584 -2.0646 -0.1587
 4982TIP3   OH236436   5.407   3.269   3.870 -0.2815 -0.3251 -0.0011
 4982TIP3    H136437   5.467   3.324   3.919  0.4310 -1.1157  0.0442
 4982TIP3    H236438   5.360   3.329   3.813  1.6844  0.1699 -1.2159
 4983TIP3   OH236439   1.383   5.493  15.739  0.4819  0.0025 -0.1924
 4983TIP3    H136440   1.333   5.452  15.810 -1.8557  1.8112 -0.6311
 4983TIP3    H236441   1.425   5.421  15.693 -1.8239 -1.7218  0.2177
 4984TIP3   OH236442   2.952   5.613   2.652  0.4510 -0.3497 -0.2074
 4984TIP3    H136443   2.995   5.538   2.610 -0.7904 -0.8321 -0.6480
 4984TIP3    H236444   2.867   5.580   2.680  0.5137  0.4736  1.0502
 4985TIP3   OH236445   1.654   4.676   3.624 -0.1243  0.0772 -0.4751
 4985TIP3    H136446   1.599   4.754   3.613 -1.0963 -0.3249  1.2133
 4985TIP3    H236447   1.737   4.710   3.657 -0.8648  0.3748  1.1902
 4986TIP3   OH236448   2.790   2.826   3.439 -0.4303 -0.0258 -0.0068
 4986TIP3    H136449   2.749   2.761   3.495 -1.2975  1.0236  0.5925
 4986TIP3    H236450   2.842   2.774   3.377 -0.0651 -1.2323  1.2557
 4987TIP3   OH236451   6.019   2.380  16.976  0.5001 -0.3678 -0.0190
 4987TIP3    H136452   5.975   2.449  17.026  1.3846 -0.0331  0.3348
 4987TIP3    H236453   5.953   2.312  16.964 -0.2201  0.2878  0.1325
 4988TIP3   OH236454   3.321   6.683  16.217  0.4113  0.4929 -0.5617
 4988TIP3    H136455   3.325   6.627  16.140  0.5072 -0.0142 -0.1910
 4988TIP3    H236456   3.364   6.765  16.191  0.5586  0.2733 -0.9992
 4989TIP3   OH236457   5.439   4.034  12.459 -0.1891 -0.5743  0.2547
 4989TIP3    H136458   5.383   3.983  12.518 -0.7228  0.3648  0.5747
 4989TIP3    H236459   5.400   4.121  12.458  0.7740 -0.1337 -0.1972
 4990TIP3   OH236460   0.487   4.547  16.384 -0.5483  0.6034  0.1301
 4990TIP3    H136461   0.399   4.579  16.403 -0.4354  0.8793  0.1900
 4990TIP3    H236462   0.544   4.596  16.443 -0.3615  0.3761  0.1406
 4991TIP3   OH236463   6.031   5.102   1.097  0.1833  0.3433  0.0083
 4991TIP3    H136464   6.021   5.017   1.140  0.3628 -0.4978 -1.5430
 4991TIP3    H236465   6.115   5.134   1.128 -0.3333  0.4318  1.3786
 4992TIP3   OH236466   5.927   0.537   0.436 -0.1348 -0.4768  0.0883
 4992TIP3    H136467   5.956   0.542   0.345  0.0975 -0.7075  0.1497
 4992TIP3    H236468   6.008   0.538   0.487 -0.2280  3.9093  0.5357
 4993TIP3   OH236469   1.003   3.900   0.791  0.2783  0.0142  0.4909
 4993TIP3    H136470   0.942   3.826   0.792 -0.4861  0.6382  0.5880
 4993TIP3    H236471   1.089   3.859   0.782 -0.2430 -0.8107 -1.2068
 4994TIP3   OH236472   6.406   4.745   2.051 -0.2364  0.4352 -0.0592
 4994TIP3    H136473   6.344   4.725   2.121  0.3789 -0.8464  0.1488
 4994TIP3    H236474   6.488   4.764   2.096  0.5429 -1.7505 -0.3913
 4995TIP3   OH236475   5.496   2.373  16.127  0.6481 -0.2520 -0.3401
 4995TIP3    H136476   5.566   2.370  16.062  0.4111  1.3350 -0.6979
 4995TIP3    H236477   5.418   2.398  16.078  0.6567  1.9010  0.6489
 4996TIP3   OH236478   1.624   0.142   5.968  0.0304  0.4954  0.0284
 4996TIP3    H136479   1.584   0.057   5.986  0.6700 -0.0608 -1.0433
 4996TIP3    H236480   1.564   0.206   6.005 -1.3257 -0.3512 -0.6584
 4997TIP3   OH236481   3.617   2.399  16.728 -0.0801 -0.0370  0.0799
 4997TIP3    H136482   3.671   2.435  16.798 -1.5536 -0.5910  1.5751
 4997TIP3    H236483   3.679   2.353  16.672  1.8403  4.0653 -1.5903
 4998TIP3   OH236484   4.317   0.293   0.195 -0.3155  0.5473 -0.0173
 4998TIP3    H136485   4.326   0.334   0.109 -0.1320  0.0010 -0.2609
 4998TIP3    H236486   4.240   0.336   0.234  0.9300  2.4350  0.4923
 4999TIP3   OH236487   4.207   1.737  15.281  0.0712  0.2646 -0.2086
 4999TIP3    H136488   4.150   1.769  15.211  0.1694 -1.4283 -1.1216
 4999TIP3    H236489   4.163   1.763  15.362 -0.2579  1.8965 -0.8914
 5000TIP3   OH236490   0.089   2.382  17.211  0.2424  0.1545 -0.0388
 5000TIP3    H136491   0.043   2.312  17.164  0.1183 -0.0942  0.4460
 5000TIP3    H236492   0.176   2.346  17.228 -1.1718 -1.9088  4.4252
 5001TIP3   OH236493   3.463   2.777  12.156  0.1451  0.0227 -0.2940
 5001TIP3    H136494   3.419   2.760  12.239  0.5386  2.2249  0.4211
 5001TIP3    H236495   3.466   2.692  12.112 -0.3211 -1.1324  1.8132
 5002TIP3   OH236496   5.312   2.617  12.969 -0.2934  0.4379  0.2586
 5002TIP3    H136497   5.330   2.653  12.882  0.1535 -0.7665 -0.1621
 5002TIP3    H236498   5.307   2.523  12.956  2.6085 -0.0780  1.9754
 5003TIP3   OH236499   1.281   3.970  14.311 -0.4179 -0.1500  0.3284
 5003TIP3    H136500   1.226   4.021  14.370 -1.2934  0.6506 -1.1398
 5003TIP3    H236501   1.254   3.996  14.223  2.0300 -0.0080 -0.4728
 5004TIP3   OH236502   3.828   2.486   2.672  0.2101 -0.2008  0.0080
 5004TIP3    H136503   3.749   2.539   2.662 -1.0243 -1.6673  1.5143
 5004TIP3    H236504   3.884   2.513   2.599 -1.8845  0.4865 -1.4330
 5005TIP3   OH236505   6.065   1.795   5.617 -0.2189 -0.3409 -0.3921
 5005TIP3    H136506   6.100   1.879   5.648 -0.4870  0.8618 -3.0719
 5005TIP3    H236507   5.971   1.800   5.637 -0.3327  0.2784 -1.0253
 5006TIP3   OH236508   5.302   6.598  15.214  0.2885  0.4409 -1.1170
 5006TIP3    H136509   5.388   6.637  15.234  0.7876 -0.7705 -0.8252
 5006TIP3    H236510   5.239   6.660  15.250  1.0830  0.5948  0.0663
 5007TIP3   OH236511   6.570   1.712  12.278  0.4546 -0.4388  0.3803
 5007TIP3    H136512   6.577   1.770  12.203 -0.2907 -0.9327 -0.0883
 5007TIP3    H236513   6.656   1.716  12.320  0.3900  1.0584  0.4194
 5008TIP3   OH236514   2.104   0.168  13.057  0.3237  0.1133 -0.1514
 5008TIP3    H136515   2.010   0.151  13.059  0.6709 -2.2744  1.4572
 5008TIP3    H236516   2.132   0.154  13.148  2.3891 -0.5104 -0.8282
 5009TIP3   OH236517   4.073   3.791  16.204  0.1693 -0.6400  0.6171
 5009TIP3    H136518   4.011   3.768  16.274 -0.6709  1.6106  0.6743
 5009TIP3    H236519   4.140   3.842  16.248 -0.5984  1.1764 -0.2488
 5010TIP3   OH236520   5.400   6.751  16.092  0.0762  0.6300 -0.1076
 5010TIP3    H136521   5.314   6.742  16.134  0.0403  0.9916 -0.1042
 5010TIP3    H236522   5.404   6.842  16.065 -0.3761  0.1610 -1.8859
 5011TIP3   OH236523   3.585   5.480  17.419  0.4587  0.2613 -0.2204
 5011TIP3    H136524   3.636   5.455  17.342  1.4561  0.9353  0.1874
 5011TIP3    H236525   3.530   5.405  17.438  0.9955 -0.3276 -0.9545
 5012TIP3   OH236526   4.758   3.434   2.476 -0.2786  0.0286  0.0295
 5012TIP3    H136527   4.724   3.514   2.436 -0.8411 -0.4591 -0.5111
 5012TIP3    H236528   4.706   3.423   2.556 -0.1472  0.2498  0.1437
 5013TIP3   OH236529   4.904   3.327  14.854  0.4496 -0.2915 -0.1574
 5013TIP3    H136530   4.928   3.243  14.892  1.3390 -0.4174 -0.9704
 5013TIP3    H236531   4.858   3.305  14.773 -0.3322 -0.0069  0.1985
 5014TIP3   OH236532   0.470   4.816  11.915 -0.3797 -0.2598  0.0728
 5014TIP3    H136533   0.433   4.786  11.833 -0.9273 -1.9123  0.8818
 5014TIP3    H236534   0.564   4.824  11.898 -0.5637  0.0120 -0.8659
 5015TIP3   OH236535   3.561   3.006  13.772  0.0771  1.0035  0.5879
 5015TIP3    H136536   3.502   2.943  13.813  0.5518  0.9202  1.1569
 5015TIP3    H236537   3.595   2.961  13.695 -0.9466  1.2195 -0.0037
 5016TIP3   OH236538   2.031   0.565   4.691  0.4178  0.0205 -0.5550
 5016TIP3    H136539   2.027   0.659   4.710 -0.6906  0.0034 -0.6395
 5016TIP3    H236540   1.939   0.537   4.687  0.7341 -1.1238 -0.2551
 5017TIP3   OH236541   1.724   1.619   4.079 -1.0407 -0.0424  0.5166
 5017TIP3    H136542   1.662   1.551   4.103 -0.5565  0.3567  3.2106
 5017TIP3    H236543   1.673   1.700   4.079 -1.6851 -0.2661 -2.9694
 5018TIP3   OH236544   4.972   5.802   5.231 -0.2005 -0.0286  0.2013
 5018TIP3    H136545   4.988   5.890   5.265  0.7496  0.7359 -2.0476
 5018TIP3    H236546   4.885   5.807   5.192 -1.0269 -0.7334  1.8292
 5019TIP3   OH236547   2.862   2.111  12.706 -0.4958  0.1874  0.2692
 5019TIP3    H136548   2.892   2.201  12.717 -0.7591  0.2802  0.2123
 5019TIP3    H236549   2.935   2.067  12.661 -0.8789  0.6833 -0.8828
 5020TIP3   OH236550   2.543   4.077  11.885 -0.2607 -0.1598 -0.1859
 5020TIP3    H136551   2.585   4.145  11.938 -1.8161  0.2809  0.5166
 5020TIP3    H236552   2.611   4.050  11.823  1.1384  0.3312  1.0861
 5021TIP3   OH236553   0.608   4.445   5.035  0.1974 -0.4110 -0.3313
 5021TIP3    H136554   0.526   4.403   5.060 -0.1949  0.2315 -0.5196
 5021TIP3    H236555   0.663   4.437   5.113 -0.2317 -0.3830 -0.0184
 5022TIP3   OH236556   1.783   3.723  16.459  0.1799  0.4012  0.3683
 5022TIP3    H136557   1.705   3.757  16.415  1.4860  0.0033 -2.5082
 5022TIP3    H236558   1.812   3.795  16.515 -0.7293  1.5727 -0.6025
 5023TIP3   OH236559   3.963   6.531   5.211  0.4487 -0.3422 -0.0365
 5023TIP3    H136560   4.000   6.461   5.157 -3.0453 -1.5445 -1.1320
 5023TIP3    H236561   3.917   6.587   5.149 -0.9224  0.1334  1.3588
 5024TIP3   OH236562   5.736   3.413   1.313 -0.4280  0.3215 -0.7617
 5024TIP3    H136563   5.820   3.434   1.354 -0.8316 -0.2888  0.4318
 5024TIP3    H236564   5.681   3.382   1.385 -1.3880 -0.1662 -1.6723
 5025TIP3   OH236565   5.894   2.529   3.699  0.3990 -0.0056  0.0897
 5025TIP3    H136566   5.982   2.562   3.681  0.2179  0.1072 -0.6179
 5025TIP3    H236567   5.836   2.589   3.652 -0.0129 -0.5137 -0.0599
 5026TIP3   OH236568   1.632   5.598   5.487  0.8917 -0.4039  0.3442
 5026TIP3    H136569   1.687   5.565   5.558  2.2371  1.4920  0.2595
 5026TIP3    H236570   1.565   5.649   5.530  2.0133  1.1803  0.2914
 5027TIP3   OH236571   1.229   3.332  11.503  0.0500 -0.3334  0.4269
 5027TIP3    H136572   1.216   3.239  11.485 -2.9808 -0.7210  3.5770
 5027TIP3    H236573   1.295   3.334  11.573  0.0330 -0.1324  0.4387
 5028TIP3   OH236574   2.146   0.258  17.164 -0.0050  0.5933  0.6164
 5028TIP3    H136575   2.221   0.203  17.186  1.1040  0.4013 -3.0289
 5028TIP3    H236576   2.080   0.197  17.132 -2.4976  0.6010  4.9699
 5029TIP3   OH236577   4.493   0.443   4.325 -0.0685  0.0646 -0.3110
 5029TIP3    H136578   4.481   0.376   4.258  0.2791  0.1725 -0.4791
 5029TIP3    H236579   4.587   0.443   4.344  0.3073  1.9245 -1.8055
 5030TIP3   OH236580   0.033   2.961   2.383 -0.2705 -0.5079  0.3743
 5030TIP3    H136581   0.039   2.912   2.465 -0.5295  0.0573  0.7365
 5030TIP3    H236582   0.064   2.900   2.317  0.1150 -0.9122  0.9157
 5031TIP3   OH236583   5.594   3.896   3.436 -0.3157  0.7605 -0.5691
 5031TIP3    H136584   5.636   3.831   3.379 -0.4516  0.4343 -0.3016
 5031TIP3    H236585   5.656   3.968   3.441 -0.3875  0.8780 -1.2928
 5032TIP3   OH236586   6.606   6.744   1.739 -0.2718  0.2222  0.2667
 5032TIP3    H136587   6.568   6.814   1.791  1.2509  1.7383 -0.5502
 5032TIP3    H236588   6.636   6.679   1.803  0.1533  1.2979  1.1839
 5033TIP3   OH236589   0.414   4.050  13.273 -0.2955  0.0055 -0.0167
 5033TIP3    H136590   0.501   4.052  13.313  0.1642 -0.7820 -0.9165
 5033TIP3    H236591   0.366   3.986  13.324 -0.8354  1.4664  1.3768
 5034TIP3   OH236592   4.747   1.355   5.751 -0.0780  0.4788  0.5742
 5034TIP3    H136593   4.709   1.328   5.835 -0.6233 -0.9798 -0.1213
 5034TIP3    H236594   4.840   1.335   5.760 -0.1390  0.2967  0.8131
 5035TIP3   OH236595   3.248   6.293   0.170 -0.0842 -0.1467  0.4424
 5035TIP3    H136596   3.310   6.232   0.208 -0.4502  0.5554  2.2511
 5035TIP3    H236597   3.248   6.272   0.076  2.2362 -0.7172  0.5027
 5036TIP3   OH236598   5.822   5.258   2.511  0.5109 -0.4271 -0.0505
 5036TIP3    H136599   5.915   5.251   2.490  0.4717  1.3658 -1.0845
 5036TIP3    H236600   5.785   5.310   2.440 -0.8119  0.9434  1.5219
 5037TIP3   OH236601   1.603   1.189  12.743 -0.4782  0.2266  0.2237
 5037TIP3    H136602   1.690   1.163  12.715  0.2428  1.6564  1.0244
 5037TIP3    H236603   1.576   1.122  12.805  0.5678  0.3972  0.8822
 5038TIP3   OH236604   0.393   3.610  15.407 -0.2703  0.0847  0.0211
 5038TIP3    H136605   0.433   3.681  15.458 -1.4641  1.2054 -0.5616
 5038TIP3    H236606   0.462   3.543  15.403  0.8491  1.1405  0.6852
 5039TIP3   OH236607   4.539   5.115   3.081  0.0064  0.1040  0.0432
 5039TIP3    H136608   4.459   5.069   3.057  1.5685 -2.2242 -1.0897
 5039TIP3    H236609   4.590   5.050   3.131  1.3595  1.3672  0.3953
 5040TIP3   OH236610   3.907   0.581   0.348  0.6484  0.0199 -0.6602
 5040TIP3    H136611   3.924   0.521   0.421 -1.5773 -1.7092 -1.4531
 5040TIP3    H236612   3.994   0.611   0.322  1.5644  0.3393  2.3490
 5041TIP3   OH236613   6.056   1.446   4.442  0.8916  0.0424 -0.1126
 5041TIP3    H136614   6.098   1.361   4.429  0.9235  0.1705 -0.9505
 5041TIP3    H236615   6.001   1.457   4.364 -0.6911 -0.1111  0.9498
 5042TIP3   OH236616   0.417   5.363   4.751 -0.3931 -0.0423 -0.4614
 5042TIP3    H136617   0.483   5.319   4.806 -0.0051  0.1794 -0.7427
 5042TIP3    H236618   0.333   5.338   4.789 -0.1271  0.0777  0.2024
 5043TIP3   OH236619   6.208   1.681  15.296 -0.2994  0.0046  0.3775
 5043TIP3    H136620   6.193   1.772  15.323  1.2365  0.4006  0.0347
 5043TIP3    H236621   6.303   1.673  15.294 -0.3413 -0.7557 -2.3152
 5044TIP3   OH236622   2.146   4.787   1.557  0.3355 -0.6241  0.1762
 5044TIP3    H136623   2.213   4.812   1.621 -0.5440  2.7185 -0.0053
 5044TIP3    H236624   2.193   4.788   1.473  0.4401  0.0159  0.2357
 5045TIP3   OH236625   3.393   3.344   3.615 -0.1335  0.1113  0.1361
 5045TIP3    H136626   3.457   3.315   3.550 -1.8414 -1.3701 -0.9754
 5045TIP3    H236627   3.310   3.346   3.567 -1.0885  1.1296  1.7477
 5046TIP3   OH236628   0.872   3.113  15.663  0.2810  0.9097  0.0895
 5046TIP3    H136629   0.847   3.024  15.638  0.8040  0.9064 -0.4440
 5046TIP3    H236630   0.790   3.162  15.662 -0.0533  0.3725  0.6597
 5047TIP3   OH236631   4.086   1.259   3.737  0.4726  0.0516 -0.0906
 5047TIP3    H136632   4.001   1.278   3.775  0.5321 -0.0266  0.0802
 5047TIP3    H236633   4.117   1.343   3.703  0.8285  0.3091  0.8461
 5048TIP3   OH236634   6.236   4.160  17.344  0.4661  0.2847  0.0515
 5048TIP3    H136635   6.218   4.244  17.303 -2.1999  0.0514  0.5963
 5048TIP3    H236636   6.167   4.149  17.410  1.9538 -1.4025  1.4481
 5049TIP3   OH236637   3.907   4.071  12.280  0.2234  0.2552 -0.0349
 5049TIP3    H136638   3.829   4.049  12.229  1.2084 -1.7234 -0.7933
 5049TIP3    H236639   3.924   4.163  12.260 -0.4829  0.0295 -1.8609
 5050TIP3   OH236640   3.249   3.399   0.982 -0.3578  0.3883 -0.3157
 5050TIP3    H136641   3.187   3.330   1.004 -1.3584  0.9659 -1.1995
 5050TIP3    H236642   3.261   3.448   1.063 -0.3087 -0.2883  0.0973
 5051TIP3   OH236643   2.120   2.799  17.328  0.4093 -0.2634 -0.2524
 5051TIP3    H136644   2.115   2.873  17.388  0.2159  3.0045 -3.8768
 5051TIP3    H236645   2.214   2.783  17.318  0.4635 -0.3749  0.4006
 5052TIP3   OH236646   5.688   5.933   0.056 -0.1891 -0.2245 -0.1833
 5052TIP3    H136647   5.736   5.996   0.002  0.3382 -0.1702  0.3384
 5052TIP3    H236648   5.755   5.873   0.087 -0.9329 -2.2942 -2.3097
 5053TIP3   OH236649   4.151   5.432  14.517  0.4869  0.0579  0.1273
 5053TIP3    H136650   4.084   5.396  14.459 -0.4040 -0.8527  1.6607
 5053TIP3    H236651   4.232   5.388  14.491 -0.5510 -3.2591  1.9418
 5054TIP3   OH236652   0.631   1.516   2.536 -0.2487  0.2578 -0.2610
 5054TIP3    H136653   0.610   1.433   2.493 -0.7373  0.7711 -1.0443
 5054TIP3    H236654   0.726   1.522   2.529 -0.1598 -0.4613  0.2335
 5055TIP3   OH236655   6.540   0.316   0.424 -0.1752  0.3018  0.4427
 5055TIP3    H136656   6.502   0.243   0.376  0.8160  0.3544 -0.4538
 5055TIP3    H236657   6.529   0.293   0.516 -3.8431  1.0550  0.3439
 5056TIP3   OH236658   4.306   3.464   1.700 -0.0343  0.0571 -0.4076
 5056TIP3    H136659   4.347   3.381   1.674  2.2246  1.3291 -1.1539
 5056TIP3    H236660   4.279   3.450   1.791 -1.3502 -2.0527 -1.0596
 5057TIP3   OH236661   0.547   4.690   2.433 -0.2135  0.1176 -0.0102
 5057TIP3    H136662   0.549   4.602   2.397  1.7070 -0.2749  0.9149
 5057TIP3    H236663   0.547   4.748   2.356 -0.3412 -0.6786 -0.6162
 5058TIP3   OH236664   0.340   6.191   4.150 -0.0115  0.5818  0.7985
 5058TIP3    H136665   0.287   6.229   4.219 -0.2662 -0.8033  1.3966
 5058TIP3    H236666   0.308   6.101   4.142  0.2219  0.6153 -0.9082
 5059TIP3   OH236667   2.271   3.565  14.343 -0.1687  0.2696 -0.3918
 5059TIP3    H136668   2.209   3.625  14.301 -0.7208 -1.1363 -1.6984
 5059TIP3    H236669   2.354   3.613  14.344 -1.3407  2.4150  1.9437
 5060TIP3   OH236670   3.739   1.027   3.687 -0.3329 -0.1997 -0.8794
 5060TIP3    H136671   3.742   0.933   3.704 -0.9888  0.0654  0.9542
 5060TIP3    H236672   3.767   1.037   3.597  0.9719 -2.0455 -0.7111
 5061TIP3   OH236673   6.003   0.060   3.538 -0.4863 -0.3021  0.2710
 5061TIP3    H136674   6.073   0.083   3.477 -0.1099  0.5248  0.9882
 5061TIP3    H236675   5.926   0.046   3.483  0.1844 -0.9994 -0.5033
 5062TIP3   OH236676   2.228   3.105  12.354 -0.3216 -0.2288  0.1157
 5062TIP3    H136677   2.286   3.141  12.287  0.7757 -1.4016  0.4145
 5062TIP3    H236678   2.286   3.078  12.425 -0.9106 -3.5901 -0.5061
 5063TIP3   OH236679   4.479   2.206  11.958 -1.2595 -0.7447 -0.4498
 5063TIP3    H136680   4.481   2.269  12.030 -0.4445  0.8331 -1.7977
 5063TIP3    H236681   4.393   2.166  11.964 -1.4965 -0.1064  0.9317
 5064TIP3   OH236682   5.669   1.369   2.615 -0.2647 -0.2763 -0.0779
 5064TIP3    H136683   5.654   1.449   2.666 -0.5648 -1.8949  2.5516
 5064TIP3    H236684   5.714   1.310   2.675  1.1486 -1.6820 -2.3597
 5065TIP3   OH236685   1.730   1.722   5.414  0.1127  0.3955 -0.1767
 5065TIP3    H136686   1.721   1.773   5.333 -1.3129  0.7895  0.2115
 5065TIP3    H236687   1.824   1.711   5.424  0.3251  0.1110 -2.0399
 5066TIP3   OH236688   4.169   0.465  15.390 -0.3325  0.0710 -0.4063
 5066TIP3    H136689   4.201   0.388  15.343 -0.6766  0.0983 -0.6830
 5066TIP3    H236690   4.143   0.431  15.476 -0.1455 -0.0591 -0.3997
 5067TIP3   OH236691   4.060   4.889   1.507 -0.2066  0.3016 -0.5631
 5067TIP3    H136692   4.151   4.881   1.476 -0.1618 -0.2958 -0.2929
 5067TIP3    H236693   4.026   4.800   1.502 -1.7195  0.9107 -3.4829
 5068TIP3   OH236694   2.990   3.373   2.453 -1.0442 -0.1988 -0.1605
 5068TIP3    H136695   2.970   3.349   2.363 -0.6499  0.5099 -0.4356
 5068TIP3    H236696   2.938   3.312   2.506 -0.9809 -0.8660 -0.8588
 5069TIP3   OH236697   5.657   2.559   5.109 -0.1686  0.0380 -0.4013
 5069TIP3    H136698   5.614   2.526   5.187  0.4277 -0.1139 -0.1280
 5069TIP3    H236699   5.594   2.620   5.070 -0.8926 -0.6849 -0.3858
 5070TIP3   OH236700   0.800   3.610  12.089  0.4490 -0.8605  0.5012
 5070TIP3    H136701   0.739   3.536  12.091 -0.3562 -0.2635 -0.7669
 5070TIP3    H236702   0.773   3.662  12.013  1.9301 -0.0492  0.4823
 5071TIP3   OH236703   3.437   5.186  14.737  0.4274  0.3436 -0.0975
 5071TIP3    H136704   3.405   5.234  14.660 -0.9424 -0.6853 -0.2072
 5071TIP3    H236705   3.495   5.248  14.781  0.1631  1.4362 -1.2277
 5072TIP3   OH236706   3.342   4.313   0.830  0.2623  0.5641  0.1932
 5072TIP3    H136707   3.374   4.402   0.844  1.6147  0.5379 -2.1038
 5072TIP3    H236708   3.297   4.316   0.746 -0.1026 -0.8205  0.3013
 5073TIP3   OH236709   1.505   6.213   4.444 -0.3396  0.3444 -0.6740
 5073TIP3    H136710   1.497   6.173   4.531 -1.6643  0.9375 -0.4978
 5073TIP3    H236711   1.462   6.150   4.385  0.3158  0.0726 -0.8781
 5074TIP3   OH236712   5.695   5.900   3.754  0.3042  0.2351 -0.2650
 5074TIP3    H136713   5.650   5.967   3.806 -0.8915 -0.5768 -0.1903
 5074TIP3    H236714   5.769   5.945   3.715 -0.3304  1.5438 -0.0225
 5075TIP3   OH236715   0.209   2.017  14.718  0.4639 -0.7995  0.1239
 5075TIP3    H136716   0.298   2.023  14.752  0.3373 -0.5365  0.4114
 5075TIP3    H236717   0.154   2.001  14.795  0.1268  0.2510  0.1257
 5076TIP3   OH236718   2.511   5.452   6.219 -0.4039  0.1781  0.1571
 5076TIP3    H136719   2.549   5.522   6.271 -1.7421  1.5638 -0.6582
 5076TIP3    H236720   2.434   5.424   6.269 -0.6813  0.2915 -0.1980
 5077TIP3   OH236721   6.540   4.549  13.029  0.2883 -0.8484 -0.5458
 5077TIP3    H136722   6.628   4.581  13.012 -0.2104  0.8627 -0.1431
 5077TIP3    H236723   6.495   4.623  13.069 -0.8528 -2.2125  0.8270
 5078TIP3   OH236724   1.346   5.397  14.119 -0.0065  0.7929 -0.2660
 5078TIP3    H136725   1.340   5.405  14.214 -1.0770 -1.6703 -0.0514
 5078TIP3    H236726   1.272   5.447  14.086 -0.6320  0.2777  0.3183
 5079TIP3   OH236727   2.731   6.614   0.106  0.2320  0.4247 -0.2533
 5079TIP3    H136728   2.746   6.707   0.088  2.4448  0.1033 -0.3201
 5079TIP3    H236729   2.817   6.574   0.098 -0.8438 -1.8332 -1.2576
 5080TIP3   OH236730   0.003   4.640   0.821 -0.0052  0.0903  0.1272
 5080TIP3    H136731  -0.092   4.636   0.824 -0.1759  2.8750  2.3234
 5080TIP3    H236732   0.031   4.622   0.911  1.5193  0.1504 -0.2950
 5081TIP3   OH236733   1.378   5.456   0.124 -0.3428 -0.3418 -0.1249
 5081TIP3    H136734   1.405   5.366   0.106  1.2207 -0.1797  1.1973
 5081TIP3    H236735   1.311   5.474   0.058 -0.0293 -2.1477 -1.0133
 5082TIP3   OH236736   3.503   0.306   4.243 -0.3379 -0.1877 -0.1896
 5082TIP3    H136737   3.509   0.390   4.287  0.3733  0.1390 -0.8862
 5082TIP3    H236738   3.411   0.282   4.249 -0.4298  0.3336  0.5663
 5083TIP3   OH236739   6.511   2.337  10.652  0.7384  0.1291  0.6901
 5083TIP3    H136740   6.449   2.329  10.579 -0.0659 -1.4123  1.4820
 5083TIP3    H236741   6.565   2.258  10.647  2.1118  1.0511  0.5120
 5084TIP3   OH236742   6.461   2.321  11.407  0.5968 -0.3791  0.1555
 5084TIP3    H136743   6.446   2.337  11.501 -0.0192  0.8088 -0.1240
 5084TIP3    H236744   6.397   2.253  11.384  1.9955 -2.0651  0.9665
 5085TIP3   OH236745   3.132   6.729   3.835 -0.0326  0.1516  0.3698
 5085TIP3    H136746   3.161   6.820   3.829  0.1070  0.1476  0.9210
 5085TIP3    H236747   3.126   6.712   3.929  1.1735 -0.7946  0.2976
 5086TIP3   OH236748   6.221   6.076  12.560 -0.4544 -0.1434 -0.0235
 5086TIP3    H136749   6.271   6.080  12.479 -0.3914  0.7016  0.0464
 5086TIP3    H236750   6.175   6.160  12.565 -0.0789  0.0202  1.0524
 5087TIP3   OH236751   0.182   1.280  12.099  0.3311 -0.3544  0.3502
 5087TIP3    H136752   0.243   1.207  12.087 -0.3190 -0.7774 -0.4487
 5087TIP3    H236753   0.185   1.328  12.016 -2.9417 -2.3361 -1.1138
 5088TIP3   OH236754   4.904   4.344   4.091 -0.1069 -0.3260  0.1928
 5088TIP3    H136755   4.937   4.377   4.175 -1.4109 -0.5774  0.8383
 5088TIP3    H236756   4.968   4.279   4.064  0.0298 -0.6902  1.3204
 5089TIP3   OH236757   4.880   3.696   5.419 -0.5821 -0.2092 -0.3818
 5089TIP3    H136758   4.786   3.704   5.435 -0.0657  3.9638  1.9440
 5089TIP3    H236759   4.904   3.615   5.463 -2.8853 -0.8164 -0.0741
 5090TIP3   OH236760   5.214   1.280   0.300  0.4637 -0.3260 -0.1413
 5090TIP3    H136761   5.200   1.291   0.394  0.6759 -1.6459  0.0663
 5090TIP3    H236762   5.166   1.353   0.260 -0.5179 -0.3490  0.9340
 5091TIP3   OH236763   1.262   3.642   1.326  0.4938 -0.3751  0.3252
 5091TIP3    H136764   1.188   3.644   1.266 -0.0702 -0.7514  0.9840
 5091TIP3    H236765   1.227   3.677   1.408  1.3307  0.4318  0.3470
 5092TIP3   OH236766   4.517   1.986   5.383 -0.0664  0.5913 -0.1023
 5092TIP3    H136767   4.578   2.041   5.333 -1.6397  1.8853 -0.6963
 5092TIP3    H236768   4.550   1.897   5.372  2.2111  1.3113  0.3607
 5093TIP3   OH236769   6.212   1.985  16.665  0.0027  0.0842 -0.4033
 5093TIP3    H136770   6.234   2.064  16.713 -1.0859 -0.4428  1.0182
 5093TIP3    H236771   6.181   1.924  16.731  0.2455 -1.3384 -1.5440
 5094TIP3   OH236772   0.915   0.619  17.340  0.2164 -0.2590  0.0234
 5094TIP3    H136773   0.997   0.569  17.339 -0.3123 -1.3031  2.3428
 5094TIP3    H236774   0.846   0.553  17.346 -0.8708  0.6008 -1.9275
 5095TIP3   OH236775   2.687   0.087  17.200 -0.8351 -0.7627 -0.0578
 5095TIP3    H136776   2.655   0.156  17.142 -1.8764 -1.2629 -0.1137
 5095TIP3    H236777   2.723   0.134  17.275 -0.9395 -0.1474 -0.3822
 5096TIP3   OH236778   6.421   5.137   0.241  0.6446 -0.0251  0.5046
 5096TIP3    H136779   6.349   5.200   0.238 -0.0791 -0.6537  2.8549
 5096TIP3    H236780   6.463   5.151   0.326  1.5597 -1.5292  0.3411
 5097TIP3   OH236781   0.763   1.186   1.826  0.2686 -0.4429  0.3670
 5097TIP3    H136782   0.760   1.246   1.751  2.3058 -1.2455 -0.4351
 5097TIP3    H236783   0.715   1.109   1.797 -1.0195  0.1682  0.8195
 5098TIP3   OH236784   6.181   0.086  13.680  0.3730 -0.2033 -0.0314
 5098TIP3    H136785   6.233   0.159  13.712 -0.9760  0.0352  1.8233
 5098TIP3    H236786   6.142   0.117  13.599  1.8177  0.1628 -0.6198
 5099TIP3   OH236787   1.156   6.150   0.196  0.1626 -0.2801  0.3500
 5099TIP3    H136788   1.116   6.231   0.166  0.5133  0.0193  0.6789
 5099TIP3    H236789   1.156   6.093   0.119 -1.0055 -0.3376  0.3796
 5100TIP3   OH236790   5.871   1.024  14.637 -0.0255 -0.3011  0.1452
 5100TIP3    H136791   5.875   1.103  14.690 -1.0838 -0.0442 -0.1436
 5100TIP3    H236792   5.781   1.020  14.604  0.6506 -0.2943 -1.8707
 5101TIP3   OH236793   5.867   3.691   4.058 -0.0260  0.0077  0.1360
 5101TIP3    H136794   5.849   3.599   4.077  2.9183 -1.1374 -1.9354
 5101TIP3    H236795   5.868   3.696   3.963  0.2085  2.1365  0.2155
 5102TIP3   OH236796   3.244   5.766  15.047  0.4957  0.6643 -0.6742
 5102TIP3    H136797   3.189   5.769  15.125  0.8774  1.0418 -0.4168
 5102TIP3    H236798   3.325   5.810  15.072  0.4099  1.3021 -1.4414
 5103TIP3   OH236799   5.525   1.886  12.229 -0.0108 -0.1627 -0.3087
 5103TIP3    H136800   5.617   1.889  12.205 -0.2952 -0.6254 -1.5515
 5103TIP3    H236801   5.503   1.976  12.253  0.3957  0.2720 -1.4973
 5104TIP3   OH236802   2.721   5.887   2.798  0.0351 -0.5704 -0.4325
 5104TIP3    H136803   2.709   5.944   2.722 -0.7587 -0.6483 -0.3756
 5104TIP3    H236804   2.814   5.897   2.821  0.6929 -1.7921 -2.3860
 5105TIP3   OH236805   6.517   5.615  11.843  0.0092  0.1425 -0.5195
 5105TIP3    H136806   6.472   5.579  11.767 -0.1757 -1.4917  0.3260
 5105TIP3    H236807   6.600   5.647  11.809 -0.6953  0.8815 -1.6577
 5106TIP3   OH236808   4.645   5.665   6.252 -0.1178  0.3721  0.0618
 5106TIP3    H136809   4.579   5.707   6.307  1.7598 -0.8984  3.6635
 5106TIP3    H236810   4.721   5.723   6.258  0.8651 -0.9456  0.8105
 5107TIP3   OH236811   2.765   0.279   5.355 -0.1876 -0.1558  0.7316
 5107TIP3    H136812   2.686   0.225   5.360 -0.1859 -0.2038  0.2632
 5107TIP3    H236813   2.738   0.358   5.308 -0.0037 -0.0878  0.7376
 5108TIP3   OH236814   0.908   6.664  14.882 -0.4217 -0.4961  0.3062
 5108TIP3    H136815   0.965   6.613  14.940 -1.7514 -0.8590  1.3464
 5108TIP3    H236816   0.963   6.684  14.806  1.6713  0.7948  2.0624
 5109TIP3   OH236817   1.200   2.945  15.975  0.0493 -0.7861 -0.0962
 5109TIP3    H136818   1.132   2.968  15.912  1.9232  0.5005 -1.7894
 5109TIP3    H236819   1.211   2.851  15.966 -0.9243 -0.8780 -0.3958
 5110TIP3   OH236820   3.856   1.895  15.804 -0.1380 -0.3990  0.8579
 5110TIP3    H136821   3.908   1.925  15.878  1.0808 -0.2212 -0.0414
 5110TIP3    H236822   3.841   1.802  15.821  1.4314 -0.7181  0.6043
 5111TIP3   OH236823   1.703   1.671  11.602 -0.1139 -0.2175 -0.3416
 5111TIP3    H136824   1.656   1.682  11.684  1.7397 -0.6963  0.8586
 5111TIP3    H236825   1.702   1.758  11.562 -1.7814 -0.1731 -0.2719
 5112TIP3   OH236826   3.829   3.713  11.694 -0.5608 -0.1360  0.1369
 5112TIP3    H136827   3.882   3.786  11.725 -0.2482  0.1330 -0.9818
 5112TIP3    H236828   3.893   3.651  11.658 -0.9058 -0.4319  0.0306
 5113TIP3   OH236829   6.341   4.183  13.384  0.5427  0.0530  0.3467
 5113TIP3    H136830   6.296   4.134  13.453 -2.7657 -1.0552 -2.3352
 5113TIP3    H236831   6.314   4.274  13.398  1.0956  0.0877  1.3009
 5114TIP3   OH236832   5.728   3.740  14.713  0.7498  0.1455  0.2072
 5114TIP3    H136833   5.669   3.667  14.695 -0.1676  0.6447  1.1212
 5114TIP3    H236834   5.810   3.715  14.670 -0.7051  0.4485 -3.0273
 5115TIP3   OH236835   2.768   5.864  15.364  0.4918  0.0104 -0.5607
 5115TIP3    H136836   2.687   5.884  15.316  1.4182  0.2502 -2.0942
 5115TIP3    H236837   2.786   5.943  15.414 -0.4279 -0.1920  0.1161
 5116TIP3   OH236838   6.325   6.349  15.598  0.0828 -0.1087  0.1534
 5116TIP3    H136839   6.377   6.395  15.533  1.0866  0.1159  1.0758
 5116TIP3    H236840   6.315   6.261  15.564 -0.7623  0.4254 -1.0296
 5117TIP3   OH236841   6.502   1.362  15.206 -0.1265 -0.3124  0.0354
 5117TIP3    H136842   6.435   1.293  15.209 -1.9855  1.1496 -2.9180
 5117TIP3    H236843   6.536   1.358  15.117  1.5687  0.9940  0.5783
 5118TIP3   OH236844   2.547   0.773  16.745  0.7210 -0.2105 -0.3115
 5118TIP3    H136845   2.586   0.712  16.682  1.8492 -1.3829  1.4045
 5118TIP3    H236846   2.486   0.719  16.795 -0.2124  0.7135 -0.4216
 5119TIP3   OH236847   3.922   2.713   5.046 -0.5213 -0.1414 -0.3466
 5119TIP3    H136848   3.954   2.798   5.014 -0.8062  0.1396  0.1066
 5119TIP3    H236849   3.911   2.725   5.140  0.6513 -1.0801 -0.0697
 5120TIP3   OH236850   3.389   4.673  13.326  0.2705 -0.1304 -0.2628
 5120TIP3    H136851   3.386   4.757  13.371  0.9772  0.0170 -0.4867
 5120TIP3    H236852   3.358   4.692  13.237  2.0898  0.2589 -0.8486
 5121TIP3   OH236853   3.440   5.381   2.172  0.0792  0.4289  0.4071
 5121TIP3    H136854   3.467   5.289   2.179 -1.5621 -0.0452  0.9150
 5121TIP3    H236855   3.519   5.427   2.141  1.2307 -0.9660  1.1622
 5122TIP3   OH236856   2.042   6.453   5.921 -0.0474  0.1562 -0.7091
 5122TIP3    H136857   1.976   6.516   5.892 -1.5704 -1.5813 -1.2173
 5122TIP3    H236858   1.992   6.374   5.943  1.9271 -1.7910 -2.6484
 5123TIP3   OH236859   2.172   3.664  12.620  0.4017 -0.0117  0.3063
 5123TIP3    H136860   2.191   3.597  12.555 -1.8403 -1.9991  1.5609
 5123TIP3    H236861   2.111   3.724  12.577  2.3558  1.3158 -0.7925
 5124TIP3   OH236862   1.965   2.406  13.154 -0.2011  0.2404  0.4337
 5124TIP3    H136863   1.993   2.349  13.225 -2.5545 -0.5054  0.8528
 5124TIP3    H236864   1.934   2.347  13.086 -0.2684  0.9813 -0.1938
 5125TIP3   OH236865   6.191   5.908   5.981 -0.1558  0.1088  0.3924
 5125TIP3    H136866   6.197   5.966   5.905 -1.7324  1.5691  1.2979
 5125TIP3    H236867   6.105   5.927   6.019  0.6576 -0.4190  2.6641
 5126TIP3   OH236868   1.202   1.971  11.374  0.2374 -0.0759  0.7057
 5126TIP3    H136869   1.250   2.012  11.302  0.1769  0.3448  0.9020
 5126TIP3    H236870   1.193   2.040  11.439 -1.4830  0.1451  0.2722
 5127TIP3   OH236871   1.795   4.835   2.217 -0.2870 -0.0033 -0.5545
 5127TIP3    H136872   1.721   4.785   2.253  1.3595 -1.5231  0.9069
 5127TIP3    H236873   1.777   4.840   2.123 -2.1173 -0.5406 -0.2731
 5128TIP3   OH236874   5.368   2.306  11.385 -0.3684  0.1372 -0.1257
 5128TIP3    H136875   5.356   2.399  11.363  0.4918  0.0704 -0.9782
 5128TIP3    H236876   5.398   2.267  11.303  2.3298 -0.2971  0.9618
 5129TIP3   OH236877   0.770   5.522  12.465 -0.2130 -0.0832 -0.6636
 5129TIP3    H136878   0.775   5.470  12.384  2.1964 -1.1810  0.1209
 5129TIP3    H236879   0.830   5.594  12.450  0.4435 -0.4371  0.2316
 5130TIP3   OH236880   3.875   3.575   0.017 -0.0962  0.5879  0.4973
 5130TIP3    H136881   3.948   3.630  -0.009 -0.7907  1.8491  1.1386
 5130TIP3    H236882   3.908   3.524   0.091  0.2567  0.8515  0.5227
 5131TIP3   OH236883   3.802   5.919   4.177 -0.6645 -0.2137 -0.9816
 5131TIP3    H136884   3.788   5.931   4.271  2.2289 -5.4984  0.5375
 5131TIP3    H236885   3.865   5.988   4.154  1.0709 -0.6770  1.8691
 5132TIP3   OH236886   4.206   6.252   0.846 -0.7442 -0.2763  0.3355
 5132TIP3    H136887   4.208   6.172   0.899 -2.1829  0.8706  2.2706
 5132TIP3    H236888   4.151   6.229   0.771 -0.0924 -1.4509  0.1898
 5133TIP3   OH236889   1.495   2.198  14.171 -0.4319  0.6747  0.3175
 5133TIP3    H136890   1.546   2.278  14.179  1.1252 -0.0646 -1.4680
 5133TIP3    H236891   1.467   2.178  14.260  0.3654  2.4094  0.9974
 5134TIP3   OH236892   2.381   2.012  11.688  0.2167  0.1478 -0.1767
 5134TIP3    H136893   2.468   1.995  11.653  0.6925 -0.0919  1.0849
 5134TIP3    H236894   2.396   2.043  11.777 -0.9810  0.2793  0.0006
 5135TIP3   OH236895   1.466   2.246   2.781  0.3113  0.3052  0.1973
 5135TIP3    H136896   1.496   2.253   2.691  3.2115 -0.4159  1.0144
 5135TIP3    H236897   1.435   2.334   2.803 -0.7203  0.4217 -1.5350
 5136TIP3   OH236898   5.254   0.714   6.924  0.0341 -0.6958 -0.3958
 5136TIP3    H136899   5.334   0.758   6.953 -0.5808 -0.1119  0.4336
 5136TIP3    H236900   5.282   0.624   6.906  0.4617 -1.1687  2.1707
 5137TIP3   OH236901   2.989   3.793   1.925  0.2638 -0.1953  0.3468
 5137TIP3    H136902   3.031   3.873   1.895  1.6935 -0.9110  0.3444
 5137TIP3    H236903   3.004   3.729   1.855  1.5576 -1.2082  1.4773
 5138TIP3   OH236904   6.517   0.426  16.592 -0.7928  0.3292 -0.2054
 5138TIP3    H136905   6.594   0.401  16.644 -0.3548  1.0155 -0.5174
 5138TIP3    H236906   6.552   0.446  16.505 -0.9763  2.8828  0.2492
 5139TIP3   OH236907   5.162   3.961  14.526 -0.1073 -0.2139  0.5689
 5139TIP3    H136908   5.190   3.891  14.585  0.3033 -0.7184 -0.1934
 5139TIP3    H236909   5.083   3.927  14.485  1.6005 -1.5356 -1.9188
 5140TIP3   OH236910   2.392   4.928   4.181 -0.2481  0.5852  0.1117
 5140TIP3    H136911   2.343   4.976   4.247  1.4747  0.3764  1.6329
 5140TIP3    H236912   2.355   4.840   4.182 -1.1341  0.9442 -0.2144
 5141TIP3   OH236913   1.651   3.131   0.912 -0.0332 -0.3439  0.0953
 5141TIP3    H136914   1.716   3.142   0.843  0.1687 -1.4718  0.0797
 5141TIP3    H236915   1.689   3.174   0.988  0.0248  0.3572 -0.3273
 5142TIP3   OH236916   1.460   6.030  13.936 -0.1874 -0.6039  0.0721
 5142TIP3    H136917   1.532   6.070  13.984 -0.4312  1.2132 -0.9702
 5142TIP3    H236918   1.498   5.950  13.899  1.5404  0.6408 -1.0112
 5143TIP3   OH236919   6.461   1.112  12.139 -0.8639 -0.1761 -0.1489
 5143TIP3    H136920   6.397   1.109  12.210  0.7148 -0.0958  1.3655
 5143TIP3    H236921   6.455   1.026  12.098  0.2214 -1.4148  2.0627
 5144TIP3   OH236922   3.089   1.058  16.106 -0.8318 -0.1529 -0.6344
 5144TIP3    H136923   3.180   1.090  16.109 -0.6936 -0.5589 -0.3321
 5144TIP3    H236924   3.038   1.133  16.077 -0.2337 -0.3034 -2.1788
 5145TIP3   OH236925   2.120   1.353  12.901  0.7657  1.0374  0.6127
 5145TIP3    H136926   2.204   1.400  12.905  0.9645  0.8610 -0.8513
 5145TIP3    H236927   2.141   1.271  12.857  0.1981  0.0452  2.1191
 5146TIP3   OH236928   2.843   4.654  13.111 -0.2235 -0.0349  0.0143
 5146TIP3    H136929   2.904   4.722  13.080 -0.2426  0.2616  0.6168
 5146TIP3    H236930   2.761   4.675  13.067  0.4511 -1.3170 -1.9881
 5147TIP3   OH236931   0.469   2.024  14.793  0.4124 -0.0826  0.2175
 5147TIP3    H136932   0.523   1.989  14.864 -0.1537  1.1581  1.2995
 5147TIP3    H236933   0.503   2.113  14.779  0.5044 -0.3021 -1.0740
 5148TIP3   OH236934   0.304   5.302   2.513  0.3168  0.0268  0.2670
 5148TIP3    H136935   0.347   5.365   2.570  0.3779  0.5501 -0.3542
 5148TIP3    H236936   0.288   5.349   2.432 -1.1663 -0.2298  0.3648
 5149TIP3   OH236937   4.080   1.230   6.178 -0.2702  0.5920 -0.2783
 5149TIP3    H136938   4.085   1.159   6.242  0.4235  1.6374  0.8686
 5149TIP3    H236939   4.099   1.188   6.094  0.9567 -0.4579  0.4794
 5150TIP3   OH236940   4.786   0.511  13.152  0.4494  0.4465 -0.0776
 5150TIP3    H136941   4.789   0.596  13.109 -0.7594  1.8441  2.3854
 5150TIP3    H236942   4.698   0.505  13.189  1.2364 -0.7811  1.8169
 5151TIP3   OH236943   2.497   2.656  12.276 -0.7481  0.1614  0.6245
 5151TIP3    H136944   2.502   2.750  12.297 -1.1376 -0.0863  1.9094
 5151TIP3    H236945   2.420   2.649  12.219  0.7970  0.9638 -1.6963
 5152TIP3   OH236946   6.445   5.862   4.943 -0.0988 -0.1630 -0.0147
 5152TIP3    H136947   6.376   5.924   4.917  0.0563 -1.1998 -3.3700
 5152TIP3    H236948   6.522   5.889   4.892  0.3839 -2.2018 -0.4700
 5153TIP3   OH236949   1.413   2.882   4.390 -0.5117 -0.1333 -0.3287
 5153TIP3    H136950   1.327   2.844   4.412 -0.7250 -0.6468 -1.9564
 5153TIP3    H236951   1.434   2.937   4.466 -0.7113 -2.5787  1.6542
 5154TIP3   OH236952   2.747   5.056   4.668  0.7695  0.7531  0.1508
 5154TIP3    H136953   2.771   5.057   4.575 -0.4368  0.3673 -0.1855
 5154TIP3    H236954   2.819   5.011   4.711  0.2051 -1.3648 -0.9717
 5155TIP3   OH236955   2.237   1.956   4.957 -1.2548  0.1548 -0.0996
 5155TIP3    H136956   2.147   1.973   4.930 -0.6921  3.0658 -0.4873
 5155TIP3    H236957   2.245   1.999   5.042  0.0179  0.9385 -0.5809
 5156TIP3   OH236958   2.131   0.265   3.714 -0.5547  0.4536 -0.3417
 5156TIP3    H136959   2.208   0.257   3.770  0.1469 -1.9243 -1.4962
 5156TIP3    H236960   2.166   0.288   3.628 -0.8213 -2.3169 -1.3067
 5157TIP3   OH236961   6.533   4.555   4.326  0.2470 -0.1291 -0.2581
 5157TIP3    H136962   6.452   4.599   4.351 -0.2007  0.0340 -1.8755
 5157TIP3    H236963   6.561   4.509   4.406 -1.0183  0.4238  0.5349
 5158TIP3   OH236964   3.088   0.302  14.811  0.5535 -0.0917  0.2485
 5158TIP3    H136965   3.035   0.257  14.744  0.7014  1.6461 -1.1274
 5158TIP3    H236966   3.062   0.394  14.803  1.9360  0.4216  1.3246
 5159TIP3   OH236967   4.658   2.450   3.562  0.1249 -0.0858 -0.3496
 5159TIP3    H136968   4.628   2.359   3.553  0.1643 -0.0456 -0.8984
 5159TIP3    H236969   4.601   2.487   3.630  0.7319 -0.7905  0.5821
 5160TIP3   OH236970   5.952   1.600   0.745 -0.2411 -0.3428  0.4658
 5160TIP3    H136971   5.871   1.579   0.793 -1.8924  1.2691 -1.4423
 5160TIP3    H236972   6.003   1.653   0.807 -0.8560 -0.9340  1.5176
 5161TIP3   OH236973   0.837   3.504  17.295  0.6915 -0.4538 -0.2693
 5161TIP3    H136974   0.835   3.597  17.276  0.8331 -0.7521 -1.9539
 5161TIP3    H236975   0.898   3.468  17.230  0.5462 -1.7249  0.2722
 5162TIP3   OH236976   5.258   4.281  12.378 -0.4944  0.0726  1.0874
 5162TIP3    H136977   5.234   4.313  12.465 -2.3895 -0.3538  0.7719
 5162TIP3    H236978   5.184   4.227  12.351  1.1227 -1.8546  0.2179
 5163TIP3   OH236979   3.293   5.337   6.319  0.0239 -0.6127 -0.2428
 5163TIP3    H136980   3.281   5.268   6.254  2.2267  0.5164 -1.9961
 5163TIP3    H236981   3.346   5.296   6.388 -2.0080 -1.7069  0.7571
 5164TIP3   OH236982   4.936   5.732   0.327  0.4464  0.4889  0.2849
 5164TIP3    H136983   4.851   5.690   0.341  0.3292 -0.0428 -1.7547
 5164TIP3    H236984   4.978   5.731   0.413 -1.5271  0.5934  1.2899
 5165TIP3   OH236985   3.878   1.084   1.210 -0.3684 -0.0664 -0.6245
 5165TIP3    H136986   3.968   1.062   1.231 -0.3385 -0.6868 -1.3929
 5165TIP3    H236987   3.831   1.073   1.293  0.0425 -0.9135 -0.4949
 5166TIP3   OH236988   2.311   6.569   2.560 -0.6370 -0.0480  0.4689
 5166TIP3    H136989   2.236   6.541   2.509  0.6227 -2.0096 -0.3923
 5166TIP3    H236990   2.345   6.489   2.601 -0.4434  1.1457  2.8695
 5167TIP3   OH236991   2.089   2.012   1.958 -0.6913 -0.4953  0.4058
 5167TIP3    H136992   2.085   2.075   2.030 -0.8017 -0.3485  0.2746
 5167TIP3    H236993   2.035   2.052   1.889  0.7850  0.2026 -0.3960
 5168TIP3   OH236994   4.733   4.396   0.629 -0.0296 -0.2945  0.1142
 5168TIP3    H136995   4.805   4.413   0.690  0.0309  0.3459 -0.1337
 5168TIP3    H236996   4.686   4.321   0.667  0.2248 -0.1325  0.7500
 5169TIP3   OH236997   6.097   5.566   2.310 -0.0435  0.3923 -0.7185
 5169TIP3    H136998   6.131   5.496   2.255  0.2850 -0.9476  1.0945
 5169TIP3    H236999   6.002   5.554   2.309 -0.3831  2.3427 -3.4359
 5170TIP3   OH237000   2.080   1.074   5.024  0.0173  0.1051  0.5895
 5170TIP3    H137001   2.096   1.165   4.999  0.7161 -0.2297 -0.2682
 5170TIP3    H237002   1.988   1.059   5.003  0.6281 -0.2583 -2.3519
 5171TIP3   OH237003   5.179   1.012  13.745 -0.1729 -0.1079 -0.1675
 5171TIP3    H137004   5.255   0.995  13.801  0.5270  1.7403 -0.4940
 5171TIP3    H237005   5.214   1.059  13.669 -1.9153  3.8315  1.1668
 5172TIP3   OH237006   5.442   5.312  17.402 -0.4332  0.5759  0.1167
 5172TIP3    H137007   5.531   5.339  17.425 -0.6459  0.3870  1.1859
 5172TIP3    H237008   5.409   5.383  17.347  0.2265  0.8492  0.0640
 5173TIP3   OH237009   5.767   1.942   2.044  0.5187  0.0147 -0.1245
 5173TIP3    H137010   5.741   1.929   1.953 -1.4854  1.0248  0.2436
 5173TIP3    H237011   5.741   1.861   2.088  0.4952 -0.0483 -0.2532
 5174TIP3   OH237012   2.711   1.482   6.120  0.2779  0.3251 -0.3835
 5174TIP3    H137013   2.788   1.426   6.111  0.0228  0.2047 -2.2971
 5174TIP3    H237014   2.713   1.538   6.043 -1.3282  0.5989 -0.2670
 5175TIP3   OH237015   2.259   0.277   5.692 -0.5544 -0.4105 -0.5367
 5175TIP3    H137016   2.285   0.368   5.678  0.7694 -0.8422 -1.0192
 5175TIP3    H237017   2.306   0.251   5.771 -1.0737 -0.6295 -0.2947
 5176TIP3   OH237018   5.994   6.462   5.758 -0.8806  0.3833 -0.2346
 5176TIP3    H137019   6.066   6.444   5.698 -0.2059  0.1221  0.6181
 5176TIP3    H237020   6.037   6.495   5.837 -1.6732 -0.1378  0.4282
 5177TIP3   OH237021   0.613   5.107  12.607  0.3103  0.1008  0.1152
 5177TIP3    H137022   0.695   5.156  12.612  0.6311 -0.1586 -1.7201
 5177TIP3    H237023   0.552   5.167  12.563  0.2151 -0.5067 -0.6052
 5178TIP3   OH237024   6.253   0.842  15.161 -0.1003  0.1539 -0.0475
 5178TIP3    H137025   6.329   0.869  15.212  0.2842  1.6029 -1.3188
 5178TIP3    H237026   6.188   0.910  15.177 -0.7444 -0.4908  0.1511
 5179TIP3   OH237027   4.709   3.749  16.247 -0.3452 -0.2295  0.0364
 5179TIP3    H137028   4.708   3.654  16.246  2.7965 -0.3761  0.7359
 5179TIP3    H237029   4.800   3.772  16.263 -0.9915  2.9203 -0.1351
 5180TIP3   OH237030   2.147   0.488  13.249  0.1607 -0.4701  0.1156
 5180TIP3    H137031   2.166   0.449  13.334 -0.4330 -1.2040 -0.0888
 5180TIP3    H237032   2.222   0.464  13.195  0.3474 -0.3409  0.3132
 5181TIP3   OH237033   2.006   5.372  11.936  0.4471 -0.0996  0.1445
 5181TIP3    H137034   2.080   5.320  11.966  0.8024 -0.7887 -1.7661
 5181TIP3    H237035   1.936   5.309  11.921  0.6588  0.0095 -1.5199
 5182TIP3   OH237036   6.604   4.259  14.340 -0.1682  0.1741 -0.3905
 5182TIP3    H137037   6.529   4.291  14.291  0.3125  0.1189 -1.1816
 5182TIP3    H237038   6.665   4.227  14.273 -0.1566 -1.3691  0.3053
 5183TIP3   OH237039   1.584   0.031  17.497  0.5977 -0.2262  0.0102
 5183TIP3    H137040   1.506   0.053  17.445  0.5168  1.2063  0.6916
 5183TIP3    H237041   1.549   0.006  17.582  0.8929  1.2660  0.5940
 5184TIP3   OH237042   1.651   0.257   3.548  0.7735  0.6929  0.1335
 5184TIP3    H137043   1.558   0.249   3.527  0.7708  1.0913 -0.0240
 5184TIP3    H237044   1.685   0.168   3.540  0.8843  0.8690 -2.1490
 5185TIP3   OH237045   5.704   2.886   4.075 -0.0086 -0.2323  0.0273
 5185TIP3    H137046   5.742   2.935   4.148  0.4464  0.0147 -0.3663
 5185TIP3    H237047   5.684   2.953   4.009  2.2247 -0.6883 -1.2321
 5186TIP3   OH237048   1.208   3.070   2.089  0.1027 -0.2901 -0.2016
 5186TIP3    H137049   1.218   3.087   1.995 -1.0042  0.4084 -0.2162
 5186TIP3    H237050   1.283   3.112   2.130  1.0759 -1.3500 -0.8238
 5187TIP3   OH237051   3.355   2.921   4.600 -0.3374  0.4809  0.2588
 5187TIP3    H137052   3.325   2.856   4.537 -0.9648  0.9340  0.0789
 5187TIP3    H237053   3.395   2.990   4.546 -1.1322  1.0059  0.3105
 5188TIP3   OH237054   2.936   3.629  13.658 -0.0998 -0.1885 -0.4773
 5188TIP3    H137055   2.931   3.560  13.725 -3.9438  1.1992  0.8850
 5188TIP3    H237056   2.923   3.582  13.575  0.3200 -1.3923  0.1022
 5189TIP3   OH237057   0.353   3.827  13.457 -0.2001 -0.1391  0.1268
 5189TIP3    H137058   0.268   3.820  13.500 -1.5646  1.3074 -2.0967
 5189TIP3    H237059   0.417   3.820  13.528 -2.1629 -0.9404  1.9215
 5190TIP3   OH237060   0.049   4.054  11.393 -0.1070  0.1099  0.1227
 5190TIP3    H137061   0.070   4.000  11.317  2.5767 -2.0471  2.1572
 5190TIP3    H237062  -0.000   3.996  11.451  2.2079 -0.0981  2.0525
 5191TIP3   OH237063   3.753   1.156   1.882  0.2747 -0.2088 -0.6798
 5191TIP3    H137064   3.733   1.225   1.946  0.4147 -1.2690  0.5666
 5191TIP3    H237065   3.785   1.202   1.805  0.1687  1.1232  0.0457
 5192TIP3   OH237066   0.990   6.202   5.748 -0.0994  0.6708  0.4040
 5192TIP3    H137067   0.909   6.241   5.717 -2.0673 -1.9130  1.8994
 5192TIP3    H237068   0.979   6.196   5.843  0.9073 -1.5896  0.4433
 5193TIP3   OH237069   5.095   2.902  12.822  0.0389  0.1703  0.5989
 5193TIP3    H137070   5.103   2.808  12.838 -1.4399 -0.0438  0.2521
 5193TIP3    H237071   5.027   2.931  12.883  1.2982  1.2655  1.5299
 5194TIP3   OH237072   4.254   6.020  12.929 -0.3236  0.3012  0.5398
 5194TIP3    H137073   4.166   5.990  12.955 -1.0147  0.1498 -1.7514
 5194TIP3    H237074   4.256   6.112  12.954 -0.7534  0.0553  1.5166
 5195TIP3   OH237075   0.529   4.563   2.044  0.4828 -0.8032 -0.6990
 5195TIP3    H137076   0.610   4.525   2.011  1.1340  1.2808 -1.6956
 5195TIP3    H237077   0.464   4.541   1.978  0.8268 -0.3304 -1.2067
 5196TIP3   OH237078   1.543   0.524   4.876 -0.4323  0.1473 -0.0922
 5196TIP3    H137079   1.576   0.533   4.965  1.6684 -1.4410 -0.6385
 5196TIP3    H237080   1.480   0.452   4.882 -1.2652  0.8906  0.3151
 5197TIP3   OH237081   5.929   2.299   3.462 -0.2788  0.1503  0.5325
 5197TIP3    H137082   5.939   2.373   3.521 -3.1534  0.3047  0.9402
 5197TIP3    H237083   5.874   2.237   3.509 -1.4196 -0.3728 -1.3905
 5198TIP3   OH237084   0.821   0.443  13.182  0.7477  0.5751 -0.3003
 5198TIP3    H137085   0.880   0.501  13.231  0.7672  1.0408 -0.8681
 5198TIP3    H237086   0.795   0.495  13.106  0.6418 -0.1081 -0.7322
 5199TIP3   OH237087   6.093   5.808  13.923  0.1771 -0.1585 -0.2215
 5199TIP3    H137088   6.107   5.753  13.846 -0.3012 -0.4537 -0.0998
 5199TIP3    H237089   6.003   5.789  13.951  0.5171 -0.4399  0.7186
 5200TIP3   OH237090   5.225   3.196  16.422  0.2462  0.2735 -0.0521
 5200TIP3    H137091   5.284   3.230  16.489  0.5482  2.9575 -1.5323
 5200TIP3    H237092   5.232   3.101  16.429  1.2508  0.4680  2.7913
 5201TIP3   OH237093   2.910   4.458   0.116  0.8962 -0.2704  0.1642
 5201TIP3    H137094   2.903   4.553   0.119 -1.3597 -0.4295  1.9460
 5201TIP3    H237095   3.003   4.441   0.133  1.1156  1.5588  1.0200
 5202TIP3   OH237096   4.416   0.170  11.306 -0.4492 -0.4796 -0.3337
 5202TIP3    H137097   4.372   0.105  11.251 -0.0311 -0.6516 -0.4749
 5202TIP3    H237098   4.483   0.119  11.352 -1.4968 -0.5594  1.1692
 5203TIP3   OH237099   4.721   5.493  10.388 -0.1950 -0.0065 -0.6446
 5203TIP3    H137100   4.697   5.446  10.468 -0.4880  0.0798 -0.6828
 5203TIP3    H237101   4.797   5.445  10.354  0.5245  0.4993  0.1869
 5204TIP3   OH237102   0.706   0.811   3.925  0.1501 -0.3524  0.5647
 5204TIP3    H137103   0.745   0.883   3.975  0.2123  0.2570 -0.3346
 5204TIP3    H237104   0.639   0.775   3.983 -2.7408  3.0191 -0.2865
 5205TIP3   OH237105   0.045   4.924   3.362 -0.6282  0.1283  0.0689
 5205TIP3    H137106   0.049   4.981   3.438  2.1572  0.1949 -0.0297
 5205TIP3    H237107   0.069   4.837   3.395 -1.8241 -0.3909 -0.3400
 5206TIP3   OH237108   2.733   4.979  11.508  0.9035  0.1776 -0.6433
 5206TIP3    H137109   2.683   4.973  11.590  0.4711  0.4703 -0.8825
 5206TIP3    H237110   2.824   4.987  11.537  0.7622  0.2200 -0.1913
 5207TIP3   OH237111   1.692   4.222   3.822  0.2910 -0.7959 -0.1428
 5207TIP3    H137112   1.726   4.311   3.816 -0.1748 -0.6287 -0.3117
 5207TIP3    H237113   1.735   4.175   3.751  1.3056 -0.9658  0.5613
 5208TIP3   OH237114   2.604   1.951  16.042 -0.3940 -0.4634  0.6777
 5208TIP3    H137115   2.635   1.962  16.132  0.9858 -0.3106  0.2109
 5208TIP3    H237116   2.516   1.915  16.051  0.1345 -1.4832  2.0867
 5209TIP3   OH237117   0.316   3.485  12.558 -0.5229  0.2741  0.2445
 5209TIP3    H137118   0.393   3.433  12.581 -1.3559 -0.8075  0.6697
 5209TIP3    H237119   0.268   3.432  12.495 -0.2839  1.5052 -1.0094
 5210TIP3   OH237120   0.395   2.229  13.856 -0.1186  0.3670 -0.0094
 5210TIP3    H137121   0.384   2.204  13.765 -1.7137 -1.5303  0.6259
 5210TIP3    H237122   0.305   2.247  13.886  0.2768  0.1077  1.3913
 5211TIP3   OH237123   6.384   0.905   0.851 -0.4506 -0.5124 -0.1924
 5211TIP3    H137124   6.416   0.956   0.776 -0.2147  0.8555  0.7922
 5211TIP3    H237125   6.295   0.880   0.827 -1.3134  2.0670  0.0421
 5212TIP3   OH237126   1.508   0.952   4.632 -0.1079  0.0291 -0.3271
 5212TIP3    H137127   1.444   0.885   4.610 -0.3898 -0.8694  2.7820
 5212TIP3    H237128   1.460   1.016   4.685  1.2432 -0.0431  1.0617
 5213TIP3   OH237129   0.728   1.540  11.140 -0.8891 -0.2175  0.1704
 5213TIP3    H137130   0.794   1.598  11.101  0.5103 -0.6325  1.8370
 5213TIP3    H237131   0.714   1.472  11.074  1.5718 -1.0137  0.3649
 5214TIP3   OH237132   2.018   4.385   3.200  0.6221  0.1435 -0.0306
 5214TIP3    H137133   1.967   4.325   3.146 -0.7316  1.4889 -0.3041
 5214TIP3    H237134   2.029   4.338   3.283 -0.9605 -0.2436 -0.0115
 5215TIP3   OH237135   1.607   3.956  15.222 -0.4497  0.0340 -0.1061
 5215TIP3    H137136   1.574   3.873  15.257  1.0572  0.1277  1.6849
 5215TIP3    H237137   1.688   3.932  15.177  0.9765  0.6977  1.9848
 5216TIP3   OH237138   6.374   2.938   1.908 -0.2222 -0.2366 -0.3780
 5216TIP3    H137139   6.418   2.939   1.993  0.1637  0.9266 -0.5751
 5216TIP3    H237140   6.404   3.018   1.864 -1.4912 -0.1078 -1.0580
 5217TIP3   OH237141   6.420   2.203  14.624 -0.0620 -0.0013  0.3363
 5217TIP3    H137142   6.391   2.114  14.604  0.1585 -0.4399  1.8401
 5217TIP3    H237143   6.346   2.258  14.601 -0.4745 -0.6541  0.0757
 5218TIP3   OH237144   2.889   0.115   0.557 -0.5626 -0.0285 -0.1721
 5218TIP3    H137145   2.909   0.169   0.481 -0.0198 -0.0082 -0.0180
 5218TIP3    H237146   2.812   0.065   0.531 -0.3166 -0.1038 -0.7756
 5219TIP3   OH237147   6.267   6.414  14.628 -0.0970 -0.0661  0.7062
 5219TIP3    H137148   6.205   6.470  14.676 -0.7652 -1.3276  1.3644
 5219TIP3    H237149   6.221   6.331  14.618  0.9362 -0.5556 -0.1183
 5220TIP3   OH237150   1.846   5.324  12.312 -0.0464 -0.2424  0.2093
 5220TIP3    H137151   1.855   5.417  12.330 -2.2369 -0.2358  1.6473
 5220TIP3    H237152   1.794   5.319  12.232 -1.8477 -0.1458  1.3129
 5221TIP3   OH237153   6.103   1.370  10.744 -0.4603  0.3730  0.3314
 5221TIP3    H137154   6.069   1.338  10.828  0.3330 -0.2135  0.4340
 5221TIP3    H237155   6.066   1.312  10.679  0.9827 -0.8048  0.5177
 5222TIP3   OH237156   3.247   1.208   2.182 -0.5001 -0.7855 -0.8856
 5222TIP3    H137157   3.183   1.220   2.112 -0.7672 -0.9046 -0.6633
 5222TIP3    H237158   3.327   1.181   2.137 -0.7215 -1.0430 -1.1297
 5223TIP3   OH237159   5.424   6.754   3.022 -0.3208  0.2327 -0.6263
 5223TIP3    H137160   5.463   6.839   3.039 -0.8110  0.3144  0.1404
 5223TIP3    H237161   5.421   6.748   2.926 -1.0860  1.4608 -0.7108
 5224TIP3   OH237162   2.212   6.416   6.266  0.2633 -0.3412 -0.3629
 5224TIP3    H137163   2.307   6.423   6.274  0.4626 -0.3134 -2.2276
 5224TIP3    H237164   2.191   6.333   6.310  0.9698  0.2236  1.1069
 5225TIP3   OH237165   6.044   4.920  16.772  0.1709  0.6813 -0.7712
 5225TIP3    H137166   6.036   4.912  16.677  1.9047  1.0458 -0.9758
 5225TIP3    H237167   6.071   5.011  16.787  3.5349 -0.2513 -0.2768
 5226TIP3   OH237168   5.613   6.487  16.743  0.3721  0.1911  0.0343
 5226TIP3    H137169   5.593   6.420  16.677  1.5433 -1.3209  1.1293
 5226TIP3    H237170   5.692   6.455  16.786  0.3981  1.8046  1.2898
 5227TIP3   OH237171   5.325   2.850   0.885  0.4248  0.4633  0.4150
 5227TIP3    H137172   5.243   2.882   0.921 -0.4513 -0.2980 -0.8303
 5227TIP3    H237173   5.356   2.920   0.828  1.6199  1.5117  2.2510
 5228TIP3   OH237174   2.273   6.114   1.257  0.2657  0.4165  0.4102
 5228TIP3    H137175   2.295   6.023   1.239  2.2350  0.7310  0.9945
 5228TIP3    H237176   2.223   6.110   1.339 -0.1954 -0.1824  0.1078
 5229TIP3   OH237177   5.088   6.689   2.507  0.1952  0.3493 -0.2072
 5229TIP3    H137178   5.002   6.650   2.494  0.4897 -0.3083 -0.2245
 5229TIP3    H237179   5.098   6.752   2.435 -0.7666  1.3335  0.4916
 5230TIP3   OH237180   1.414   5.391  14.941 -0.0767 -0.6713 -0.2947
 5230TIP3    H137181   1.438   5.307  14.979  1.1431  0.0051  0.4773
 5230TIP3    H237182   1.481   5.408  14.874  0.7568  0.5036  0.7954
 5231TIP3   OH237183   1.059   1.093   4.011  0.0961 -0.2217 -0.5022
 5231TIP3    H137184   1.052   1.186   3.989  1.5168  0.2190  0.7141
 5231TIP3    H237185   1.145   1.066   3.978  0.1663 -0.7982  0.1121
 5232TIP3   OH237186   1.462   3.171  13.891 -0.1559 -0.5650 -0.1844
 5232TIP3    H137187   1.528   3.240  13.884 -0.3934 -0.2192  0.8572
 5232TIP3    H237188   1.449   3.141  13.801 -0.5266  1.1820 -0.7389
 5233TIP3   OH237189   0.203   4.583   2.661 -0.7705 -0.1761  0.0245
 5233TIP3    H137190   0.158   4.562   2.743 -1.2502 -0.7231 -0.3721
 5233TIP3    H237191   0.168   4.669   2.636  0.6533  0.8044  1.2691
 5234TIP3   OH237192   6.215   1.391  15.067 -0.4927  0.1599  0.2833
 5234TIP3    H137193   6.125   1.374  15.094 -0.9570  0.6734 -0.8462
 5234TIP3    H237194   6.267   1.323  15.110 -1.4051 -0.0695  1.0403
 5235TIP3   OH237195   2.445   3.627   1.979  0.4403 -0.1310 -0.2726
 5235TIP3    H137196   2.447   3.562   2.050 -1.1539  1.0725  0.9501
 5235TIP3    H237197   2.380   3.691   2.007  0.2634  0.7720 -2.5373
 5236TIP3   OH237198   2.248   2.498   4.529  0.0087 -0.3439 -0.4150
 5236TIP3    H137199   2.239   2.410   4.492 -1.4090 -0.1732 -0.5358
 5236TIP3    H237200   2.299   2.547   4.464 -1.3285 -0.4094 -1.5602
 5237TIP3   OH237201   1.451   3.683  15.652 -0.5343  0.4584  0.2582
 5237TIP3    H137202   1.508   3.638  15.590  0.2982  1.9906 -0.1444
 5237TIP3    H237203   1.371   3.630  15.655  0.1497 -0.6595 -0.6774
 5238TIP3   OH237204   3.993   0.337   2.977  0.1126 -0.2555 -0.1137
 5238TIP3    H137205   3.915   0.295   2.942  0.3996 -0.8721 -0.0326
 5238TIP3    H237206   3.968   0.429   2.988 -0.9347 -0.6227  0.8427
 5239TIP3   OH237207   2.503   0.025   2.522  0.5160 -0.4834  0.4891
 5239TIP3    H137208   2.430   0.037   2.461 -0.8440  2.9017  2.4687
 5239TIP3    H237209   2.468  -0.033   2.590  0.4859 -0.7682  0.2278
 5240TIP3   OH237210   1.116   0.475   4.038  0.3065 -0.5111  0.3823
 5240TIP3    H137211   1.136   0.535   3.967 -0.6288 -1.3308 -0.6067
 5240TIP3    H237212   1.037   0.511   4.079 -0.0868 -0.8976 -0.0273
 5241TIP3   OH237213   2.829   2.532   3.860 -0.0114  0.1663 -0.1336
 5241TIP3    H137214   2.903   2.528   3.799  0.0802 -0.1055 -0.0072
 5241TIP3    H237215   2.776   2.455   3.837  0.1073 -0.0262  0.2346
 5242TIP3   OH237216   5.989   2.141  17.420 -0.0950 -0.2895 -0.6298
 5242TIP3    H137217   5.974   2.161  17.512 -1.2072 -0.2669 -0.8029
 5242TIP3    H237218   6.080   2.112  17.416 -0.2184 -0.9100  0.5830
 5243TIP3   OH237219   1.402   5.864  15.859  0.2994 -0.0271 -0.4178
 5243TIP3    H137220   1.343   5.790  15.872 -0.5019  0.6441 -0.1505
 5243TIP3    H237221   1.432   5.887  15.947 -0.3106  0.6341 -0.3675
 5244TIP3   OH237222   2.536   1.143   6.226 -0.3040 -0.3247  0.1573
 5244TIP3    H137223   2.479   1.081   6.272  0.3106 -1.8771 -1.0643
 5244TIP3    H237224   2.623   1.102   6.229  0.0313  0.2640 -1.0610
 5245TIP3   OH237225   5.852   3.249   4.656  0.1777  0.1682 -0.3803
 5245TIP3    H137226   5.845   3.262   4.750 -0.3764 -1.6656 -0.1226
 5245TIP3    H237227   5.886   3.160   4.646  0.3795  0.3738 -1.9259
 5246TIP3   OH237228   6.355   4.070   6.433 -0.6261  0.2390 -0.5791
 5246TIP3    H137229   6.328   3.995   6.486 -0.7962  1.2715  0.8620
 5246TIP3    H237230   6.391   4.132   6.496  2.7685  0.0108 -2.0830
 5247TIP3   OH237231   5.953   4.045  12.139  0.2595 -0.3835  0.1510
 5247TIP3    H137232   5.970   4.007  12.225 -0.1008 -0.7431  0.0661
 5247TIP3    H237233   5.862   4.023  12.120 -0.6943  2.3712  1.0360
 5248TIP3   OH237234   5.418   1.385   5.187 -0.1846  0.1641  0.0357
 5248TIP3    H137235   5.463   1.350   5.110 -0.4364  1.6445 -0.8176
 5248TIP3    H237236   5.446   1.477   5.192 -1.9142  0.7107  0.3640
 5249TIP3   OH237237   4.085   1.738   5.424  0.3233  0.1533 -0.5324
 5249TIP3    H137238   4.080   1.687   5.505  1.1333 -1.2473 -1.3342
 5249TIP3    H237239   4.067   1.676   5.354 -0.0037  1.2618 -1.4717
 5250TIP3   OH237240   5.924   4.713  14.756  0.1073 -0.1891  0.0548
 5250TIP3    H137241   5.962   4.633  14.791  1.5601 -0.0209 -1.0303
 5250TIP3    H237242   5.938   4.779  14.824 -2.3062 -1.0864  1.5323
 5251TIP3   OH237243   6.391   3.562  11.773 -0.1368  0.0164  0.6602
 5251TIP3    H137244   6.322   3.625  11.793 -2.9158 -3.5642  3.7369
 5251TIP3    H237245   6.448   3.564  11.850  1.2436  0.4819 -0.3372
 5252TIP3   OH237246   2.221   1.062  15.262  0.4158  0.4929 -0.4174
 5252TIP3    H137247   2.241   1.141  15.312  0.8502  0.0673  0.0843
 5252TIP3    H237248   2.143   1.086  15.211  0.0588  0.9782  0.3340
 5253TIP3   OH237249   0.924   5.696  13.927  0.1488 -0.1990  0.3352
 5253TIP3    H137250   0.964   5.727  13.846 -2.6811 -1.2292 -1.6237
 5253TIP3    H237251   0.885   5.774  13.966  1.9391  0.3930  1.0620
 5254TIP3   OH237252   3.081   2.940  16.279 -0.1348  0.2109 -0.5804
 5254TIP3    H137253   2.992   2.906  16.285  0.6774 -1.8748  1.9639
 5254TIP3    H237254   3.115   2.906  16.196 -1.4372  0.4230 -1.2189
 5255TIP3   OH237255   1.873   3.025  11.038  0.5208  0.0270  0.3154
 5255TIP3    H137256   1.931   3.101  11.045  1.6330 -0.9076  1.7344
 5255TIP3    H237257   1.845   3.025  10.946  2.7633  0.5203 -0.4145
 5256TIP3   OH237258   3.318   1.580   0.982  0.0555  0.3088 -0.2161
 5256TIP3    H137259   3.320   1.561   0.889 -0.5893  0.4848 -0.2698
 5256TIP3    H237260   3.238   1.538   1.013  0.5114 -0.1722  0.3528
 5257TIP3   OH237261   5.960   4.851   0.496 -0.1338  0.2136 -0.1420
 5257TIP3    H137262   5.869   4.822   0.492 -0.5150  1.3064  0.0633
 5257TIP3    H237263   6.003   4.787   0.552 -0.7926 -0.2757 -0.1776
 5258TIP3   OH237264   1.224   5.490  12.766 -0.5632  0.4052 -0.4773
 5258TIP3    H137265   1.182   5.404  12.767 -0.2274  0.2237 -1.0785
 5258TIP3    H237266   1.245   5.505  12.673  1.8801 -0.1273 -0.0866
 5259TIP3   OH237267   2.219   0.777  15.142  0.3220  0.4184  0.2767
 5259TIP3    H137268   2.301   0.821  15.124 -0.4902  1.7923 -0.1953
 5259TIP3    H237269   2.162   0.801  15.069 -0.7715  0.2125  1.0278
 5260TIP3   OH237270   5.894   1.661  11.492 -0.4672  0.0489 -0.2854
 5260TIP3    H137271   5.975   1.655  11.542 -0.9515  1.7529  0.7625
 5260TIP3    H237272   5.915   1.718  11.418 -0.6762  0.4380 -0.0493
 5261TIP3   OH237273   1.407   4.582  11.571  0.2115 -0.1870 -0.4175
 5261TIP3    H137274   1.482   4.529  11.597 -0.3602 -0.6690  0.2790
 5261TIP3    H237275   1.446   4.659  11.529  1.1779  0.5785  1.7730
 5262TIP3   OH237276   4.921   0.441   4.155 -0.1295 -0.1392  0.5164
 5262TIP3    H137277   4.918   0.346   4.147 -0.9826 -0.1623  1.0347
 5262TIP3    H237278   4.836   0.471   4.122 -0.0278  0.4148  0.7463
 5263TIP3   OH237279   1.324   1.690   2.278  0.5990  0.1025 -0.0258
 5263TIP3    H137280   1.370   1.606   2.285 -0.4223 -0.6187 -1.5589
 5263TIP3    H237281   1.354   1.727   2.195 -0.2891  0.4271 -0.2122
 5264TIP3   OH237282   0.620   5.080   4.075  0.6829  0.0976  0.6705
 5264TIP3    H137283   0.650   5.124   3.996  0.0437 -0.1394  0.2921
 5264TIP3    H237284   0.587   5.151   4.131 -1.1370  0.0557 -0.2849
 5265TIP3   OH237285   4.768   0.809   0.233  0.8293  0.2839  0.2926
 5265TIP3    H137286   4.819   0.884   0.203 -0.6716  0.8555 -0.9825
 5265TIP3    H237287   4.701   0.847   0.290  0.7964 -0.2602  0.6248
 5266TIP3   OH237288   5.700   6.207  13.327  0.4404  0.2437  0.1337
 5266TIP3    H137289   5.623   6.242  13.283  0.6758  0.1777 -0.3375
 5266TIP3    H237290   5.767   6.275  13.315  0.6120  0.0648  0.0687
 5267TIP3   OH237291   3.596   4.129  15.969 -0.1291 -0.4959  0.1929
 5267TIP3    H137292   3.626   4.140  15.879  1.2162 -1.6191  0.4606
 5267TIP3    H237293   3.654   4.185  16.021  0.9950 -1.9818  0.6199
 5268TIP3   OH237294   3.573   6.740  16.751 -0.0071  0.0083  0.3688
 5268TIP3    H137295   3.603   6.721  16.840 -0.0956 -1.6275  0.0854
 5268TIP3    H237296   3.479   6.749  16.759 -0.1411 -1.1575  0.3143
 5269TIP3   OH237297   5.832   2.133   1.366  0.4309  0.6676 -0.3547
 5269TIP3    H137298   5.927   2.126   1.353  0.6678  2.3507  0.3106
 5269TIP3    H237299   5.819   2.115   1.459 -0.0223 -0.4187 -0.6128
 5270TIP3   OH237300   4.309   5.812   3.862  0.3145 -0.1888 -0.0515
 5270TIP3    H137301   4.357   5.889   3.893 -0.4538 -0.1699  1.1623
 5270TIP3    H237302   4.219   5.826   3.892  0.7394 -3.0501  3.1768
 5271TIP3   OH237303   6.400   5.145  14.635  0.1034 -0.2290  0.2704
 5271TIP3    H137304   6.331   5.121  14.697  0.7529 -1.0666  0.6972
 5271TIP3    H237305   6.377   5.234  14.606 -0.6469 -0.1378  1.1028
 5272TIP3   OH237306   2.581   4.554  13.819  0.3163  0.0386 -0.8079
 5272TIP3    H137307   2.526   4.523  13.747 -0.9160  0.9306 -0.2790
 5272TIP3    H237308   2.609   4.641  13.793  2.3318 -0.7542 -1.5003
 5273TIP3   OH237309   0.963   4.342  13.795  0.4428 -0.1281 -0.3095
 5273TIP3    H137310   0.912   4.422  13.780  0.6850 -0.0330 -0.6343
 5273TIP3    H237311   1.054   4.369  13.782  0.5084 -0.5079 -0.6515
 5274TIP3   OH237312   6.235   2.534   4.293 -0.0201  0.2865  0.3318
 5274TIP3    H137313   6.141   2.524   4.309 -0.7005  2.5231 -1.6961
 5274TIP3    H237314   6.260   2.614   4.340  0.1737  1.2963 -1.4091
 5275TIP3   OH237315   0.249   0.245   2.324 -0.6729  0.0494 -0.3849
 5275TIP3    H137316   0.286   0.229   2.238 -1.9390 -4.3868 -0.3066
 5275TIP3    H237317   0.325   0.259   2.381  0.5091 -1.8532 -1.4168
 5276TIP3   OH237318   0.609   5.110  16.288 -0.3469 -0.1353 -0.4584
 5276TIP3    H137319   0.539   5.054  16.322 -1.6685  1.4751 -0.4391
 5276TIP3    H237320   0.583   5.129  16.198 -0.3105  1.0318 -0.2386
 5277TIP3   OH237321   3.023   2.340  16.251 -0.1137 -0.1544 -0.5698
 5277TIP3    H137322   2.979   2.262  16.217 -0.6953  0.2735 -0.8274
 5277TIP3    H237323   3.020   2.402  16.178  1.1674 -0.1969 -0.6850
 5278TIP3   OH237324   2.955   4.583   1.715 -0.3075 -0.1946 -0.3501
 5278TIP3    H137325   2.927   4.493   1.695 -1.7870 -0.5239  2.6979
 5278TIP3    H237326   2.876   4.636   1.705 -0.3864  0.0844  1.5068
 5279TIP3   OH237327   3.263   4.918   2.748 -0.8871 -0.2141  0.3267
 5279TIP3    H137328   3.202   4.849   2.772 -2.3962  0.9669 -0.0020
 5279TIP3    H237329   3.305   4.886   2.668 -1.0605 -1.0392  0.5643
 5280TIP3   OH237330   3.800   2.297  12.636  0.2473  0.3915  0.2757
 5280TIP3    H137331   3.887   2.278  12.600 -0.5779 -1.9744 -0.6678
 5280TIP3    H237332   3.787   2.233  12.705 -1.3248 -0.3795 -0.6634
 5281TIP3   OH237333   5.893   2.176   3.209 -0.0315 -0.1505  0.2057
 5281TIP3    H137334   5.933   2.214   3.287 -0.0919 -0.9605  0.6429
 5281TIP3    H237335   5.817   2.232   3.192 -1.3143 -1.2138  2.0525
 5282TIP3   OH237336   0.275   6.676   5.534  0.3287 -0.8798  0.1306
 5282TIP3    H137337   0.256   6.647   5.445  2.6133 -2.1510 -0.0171
 5282TIP3    H237338   0.349   6.622   5.562  1.0534  0.9387  2.0233
 5283TIP3   OH237339   6.554   5.973   5.415  0.0523 -0.3293  0.1158
 5283TIP3    H137340   6.464   5.941   5.405  0.2137 -1.4530  1.8417
 5283TIP3    H237341   6.596   5.951   5.332 -1.2972  0.3842 -0.7848
 5284TIP3   OH237342   6.598   1.995  16.812  0.2429  0.5913 -0.2592
 5284TIP3    H137343   6.595   1.910  16.769 -1.1265  0.4316  0.0865
 5284TIP3    H237344   6.524   1.993  16.873  1.5712  1.1673  1.4250
 5285TIP3   OH237345   1.104   6.193   4.204  0.3530  0.0602 -0.4732
 5285TIP3    H137346   1.072   6.132   4.138 -1.2911  0.2242  0.1225
 5285TIP3    H237347   1.048   6.177   4.280  1.7617  0.3444  0.6646
 5286TIP3   OH237348   0.006   1.577   3.700  0.9175  0.4823 -0.5238
 5286TIP3    H137349  -0.035   1.512   3.644  0.5851 -0.9490  1.2615
 5286TIP3    H237350  -0.067   1.613   3.751  1.5903 -1.3579  1.9604
 5287TIP3   OH237351   5.022   3.285  11.464 -0.5637 -0.4728 -0.0650
 5287TIP3    H137352   5.035   3.191  11.471 -1.9221 -0.7416 -0.9176
 5287TIP3    H237353   4.944   3.303  11.516 -0.6195  0.1107 -0.3391
 5288TIP3   OH237354   1.165   4.104  14.085  0.9745 -0.3124 -0.0136
 5288TIP3    H137355   1.160   4.101  13.989 -0.7356 -0.2048  0.0366
 5288TIP3    H237356   1.166   4.198  14.106  1.5969 -0.3369  0.0626
 5289TIP3   OH237357   4.415   4.573  14.220  0.4000 -0.2956 -0.5231
 5289TIP3    H137358   4.461   4.652  14.192  0.5958  0.1246  0.8829
 5289TIP3    H237359   4.333   4.606  14.258  0.5917 -0.7418  0.2866
 5290TIP3   OH237360   1.409   3.019  11.554  0.0746 -0.0615  0.0983
 5290TIP3    H137361   1.476   2.973  11.504 -0.2150  0.6860 -0.9930
 5290TIP3    H237362   1.345   3.047  11.489 -0.2233  1.0740  0.8522
 5291TIP3   OH237363   0.254   3.673   5.076 -0.4620 -0.2464  0.2575
 5291TIP3    H137364   0.177   3.635   5.033 -0.0660 -2.4687  1.3306
 5291TIP3    H237365   0.227   3.761   5.101 -1.0029  0.8488 -3.6087
 5292TIP3   OH237366   0.378   2.869  17.207  0.1886 -0.0397  0.6245
 5292TIP3    H137367   0.306   2.909  17.255 -0.7283 -0.4723 -0.3272
 5292TIP3    H237368   0.452   2.869  17.268 -0.4935  0.8115  1.4729
 5293TIP3   OH237369   5.985   2.017  11.283  0.3586 -0.3270  0.0962
 5293TIP3    H137370   5.935   1.935  11.277  0.8648 -0.6329 -0.0204
 5293TIP3    H237371   6.026   2.025  11.198  0.9509 -0.3673  0.3767
 5294TIP3   OH237372   6.392   5.732   2.028  0.4686  0.3707 -0.2714
 5294TIP3    H137373   6.422   5.751   1.939  0.3437  0.6617 -0.2517
 5294TIP3    H237374   6.374   5.818   2.066  0.6516  0.2499  0.0805
 5295TIP3   OH237375   2.258   3.483  12.397 -0.1178  0.0809 -0.4684
 5295TIP3    H137376   2.234   3.464  12.306 -0.6633 -1.2782 -0.0602
 5295TIP3    H237377   2.352   3.467  12.401  0.0931  1.1119 -1.0162
 5296TIP3   OH237378   1.390   1.782   5.252 -0.1271  0.5060  0.1369
 5296TIP3    H137379   1.306   1.821   5.277 -0.5068  0.7214 -1.3473
 5296TIP3    H237380   1.452   1.856   5.253  0.4645  0.0902  2.7182
 5297TIP3   OH237381   2.149   6.152  17.046  0.9202 -0.4847  0.3452
 5297TIP3    H137382   2.231   6.186  17.010  0.4360  0.9119  0.5210
 5297TIP3    H237383   2.115   6.223  17.100 -1.6433 -0.0887 -1.6384
 5298TIP3   OH237384   2.297   1.076  10.460  0.2712  0.1117  0.1670
 5298TIP3    H137385   2.367   1.013  10.450 -0.8721 -1.0320 -0.9981
 5298TIP3    H237386   2.321   1.148  10.402 -0.9400 -1.6391 -2.6939
 5299TIP3   OH237387   1.233   3.217  15.525 -0.2566 -1.0087 -0.1531
 5299TIP3    H137388   1.262   3.126  15.515  0.3970 -0.6769 -1.6744
 5299TIP3    H237389   1.234   3.233  15.619 -2.6497 -3.2621  0.3656
 5300TIP3   OH237390   3.294   5.707  16.058  0.5089 -0.2530 -0.2102
 5300TIP3    H137391   3.361   5.738  16.119  0.3807  2.3821 -1.2863
 5300TIP3    H237392   3.217   5.691  16.114  1.0495 -0.0809  0.6092
 5301TIP3   OH237393   4.486   4.342  14.590 -0.1099 -0.5266 -0.1790
 5301TIP3    H137394   4.394   4.338  14.563  0.3934  0.1246 -2.2060
 5301TIP3    H237395   4.499   4.265  14.644 -1.9129 -0.4803  0.3640
 5302TIP3   OH237396   5.448   0.384  12.278  0.3587  0.1893  0.5111
 5302TIP3    H137397   5.489   0.468  12.300 -0.8350  0.7121  0.8021
 5302TIP3    H237398   5.475   0.325  12.349  1.4422  0.2243  0.1525
 5303TIP3   OH237399   0.920   0.188  13.087 -0.0212  0.0377  0.1807
 5303TIP3    H137400   0.921   0.278  13.118  0.0727  0.2431 -0.3954
 5303TIP3    H237401   0.836   0.179  13.043 -0.7864 -0.6929  1.7288
 5304TIP3   OH237402   2.480   2.489  14.357  0.1255  0.0008 -0.5808
 5304TIP3    H137403   2.531   2.515  14.433 -0.3501 -0.2266 -0.1716
 5304TIP3    H237404   2.525   2.411  14.324 -0.3776 -0.6694  0.2460
 5305TIP3   OH237405   5.839   3.103   1.439 -0.0499 -0.4323 -0.1812
 5305TIP3    H137406   5.763   3.046   1.439  0.2782 -0.8781  0.0192
 5305TIP3    H237407   5.856   3.120   1.346 -1.0479  0.5758 -0.1983
 5306TIP3   OH237408   4.532   1.413  13.938  0.5061 -0.4553 -0.7053
 5306TIP3    H137409   4.605   1.370  13.894  1.2620 -0.1967  0.2766
 5306TIP3    H237410   4.571   1.489  13.981 -0.3401 -0.3067 -0.1728
 5307TIP3   OH237411   1.941   5.240  17.283  0.2942  0.6681  0.5745
 5307TIP3    H137412   1.890   5.276  17.211  1.5148 -0.7523 -1.1015
 5307TIP3    H237413   2.032   5.244  17.251  0.9965  1.0276  2.5140
 5308TIP3   OH237414   4.818   6.481  14.995 -0.5101 -0.0113 -0.4700
 5308TIP3    H137415   4.791   6.413  14.933 -1.4267  1.1286 -1.3772
 5308TIP3    H237416   4.840   6.433  15.075 -1.0151 -1.3751 -1.1107
 5309TIP3   OH237417   2.484   0.030  17.375  0.0791  0.0198 -0.2474
 5309TIP3    H137418   2.515  -0.009  17.457  0.7190  1.3486  0.1847
 5309TIP3    H237419   2.563   0.040  17.322 -0.1367  0.2988 -0.5200
 5310TIP3   OH237420   4.891   0.289   1.526 -0.4270 -0.3730 -0.1889
 5310TIP3    H137421   4.876   0.345   1.450  2.3311 -0.1024 -0.6415
 5310TIP3    H237422   4.851   0.335   1.599 -0.2089  1.0397 -0.9361
 5311TIP3   OH237423   5.045   3.026  15.431 -0.3976 -0.0736  0.0298
 5311TIP3    H137424   5.062   2.999  15.341 -1.2914  0.9376 -0.4506
 5311TIP3    H237425   4.964   3.076  15.427  1.1443  2.7275  0.8360
 5312TIP3   OH237426   4.166   1.405   4.432 -0.1665 -0.1394 -0.3422
 5312TIP3    H137427   4.131   1.325   4.472 -0.3233  0.6669  1.2084
 5312TIP3    H237428   4.102   1.427   4.364 -2.5494  1.0049  2.0716
 5313TIP3   OH237429   5.904   2.654   2.577 -0.1431 -0.3683  0.0740
 5313TIP3    H137430   5.816   2.620   2.562  0.0671 -0.7828 -0.2166
 5313TIP3    H237431   5.893   2.749   2.575 -0.2038 -0.3662 -2.3960
 5314TIP3   OH237432   1.988   1.319   3.896  0.5937  0.2349  0.3917
 5314TIP3    H137433   2.027   1.266   3.826  0.5227  0.9087 -0.1705
 5314TIP3    H237434   2.054   1.319   3.965  0.7246 -0.3281  0.2734
 5315TIP3   OH237435   4.206   2.074   3.641 -0.6812 -0.4993  0.4878
 5315TIP3    H137436   4.248   2.029   3.715 -0.7769  0.9050  1.4315
 5315TIP3    H237437   4.150   2.139   3.682  1.5707  2.4424 -0.7632
 5316TIP3   OH237438   0.853   2.212  11.406 -0.3840  0.7548  0.6900
 5316TIP3    H137439   0.926   2.233  11.348 -1.6844  0.1376 -1.2679
 5316TIP3    H237440   0.893   2.163  11.478  0.9660 -1.0322 -1.1581
 5317TIP3   OH237441   4.851   3.847  15.372  0.3108  0.0738  0.6515
 5317TIP3    H137442   4.827   3.761  15.405  0.3399  0.0145  0.5206
 5317TIP3    H237443   4.881   3.831  15.282  0.3993  0.2075  0.6557
 5318TIP3   OH237444   1.469   2.293  17.064 -0.6251 -0.6259  0.0681
 5318TIP3    H137445   1.441   2.251  16.983 -1.6833 -0.4602  0.3322
 5318TIP3    H237446   1.528   2.230  17.106 -0.9200 -1.1592 -0.3164
 5319TIP3   OH237447   5.640   2.936   2.941  0.1913  0.5162 -0.0531
 5319TIP3    H137448   5.566   2.931   3.001 -0.8007 -1.0621 -1.2884
 5319TIP3    H237449   5.608   2.989   2.868  0.1805 -0.3133 -0.6696
 5320TIP3   OH237450   6.140   3.914  14.790 -0.1144 -0.6169  0.3354
 5320TIP3    H137451   6.071   3.960  14.839  0.0084  0.9867 -0.9152
 5320TIP3    H237452   6.101   3.829  14.769 -1.8851  0.3588 -0.5969
 5321TIP3   OH237453   4.350   6.290   0.500 -0.7107 -0.2164 -0.6715
 5321TIP3    H137454   4.375   6.366   0.448  0.1620 -0.4414 -0.6118
 5321TIP3    H237455   4.261   6.269   0.472 -1.5083  1.6659  0.3289
 5322TIP3   OH237456   3.232   5.754   1.981  0.3148 -0.3686  0.5740
 5322TIP3    H137457   3.262   5.673   1.940 -1.5320 -2.3820  2.8332
 5322TIP3    H237458   3.295   5.769   2.051  1.2961  0.8541 -0.5395
 5323TIP3   OH237459   2.968   1.348   1.030  0.0040  0.2261 -0.3359
 5323TIP3    H137460   2.936   1.436   1.009  0.7280  0.4878 -0.3724
 5323TIP3    H237461   3.037   1.362   1.095 -0.3760 -0.3758  0.2140
 5324TIP3   OH237462   5.973   2.945  17.028  0.5837 -0.2147 -0.1756
 5324TIP3    H137463   5.990   2.867  16.975  0.1179 -0.4027 -0.0613
 5324TIP3    H237464   6.033   2.939  17.101 -0.2842 -1.1197  0.4866
 5325TIP3   OH237465   0.756   1.155   3.430  0.7177  0.4278  0.3755
 5325TIP3    H137466   0.758   1.060   3.431 -2.7339  0.2243  1.2122
 5325TIP3    H237467   0.788   1.180   3.517  2.4759  0.1458 -0.1545
 5326TIP3   OH237468   5.837   0.291   5.617 -0.0243 -0.5921  0.4129
 5326TIP3    H137469   5.802   0.334   5.539  1.3729 -0.4469 -0.1678
 5326TIP3    H237470   5.786   0.325   5.689 -0.9067 -0.2207 -0.3734
 5327TIP3   OH237471   3.765   0.585  13.379  0.1942  0.0483 -0.2522
 5327TIP3    H137472   3.774   0.615  13.469  0.9016  1.2245 -0.6837
 5327TIP3    H237473   3.735   0.662  13.331 -1.5224 -0.9288 -0.8056
 5328TIP3   OH237474   5.381   4.359   1.339  0.2323 -0.0925 -0.3523
 5328TIP3    H137475   5.293   4.335   1.369  0.9028 -0.9637  0.9993
 5328TIP3    H237476   5.439   4.326   1.407  1.8630 -2.2021 -2.5992
 5329TIP3   OH237477   2.476   4.971   1.247  0.6323 -0.0262 -0.5240
 5329TIP3    H137478   2.440   4.931   1.326 -1.1691 -0.5009 -1.4988
 5329TIP3    H237479   2.520   4.899   1.202  1.4333  0.1853 -0.0969
 5330TIP3   OH237480   6.116   5.516  15.850 -0.5074  0.4754 -0.3089
 5330TIP3    H137481   6.026   5.497  15.877 -0.0346 -0.0148  1.0213
 5330TIP3    H237482   6.142   5.589  15.905 -0.2396  0.9324 -1.0323
 5331TIP3   OH237483   1.198   2.728  13.420 -0.4710  0.2869 -0.3297
 5331TIP3    H137484   1.130   2.698  13.480  0.4892 -1.1310  0.0863
 5331TIP3    H237485   1.157   2.800  13.372 -2.7595 -1.4215 -1.1204
 5332TIP3   OH237486   2.813   0.768  16.602  0.2037  0.3451  0.1239
 5332TIP3    H137487   2.790   0.807  16.687  0.4833  0.3394  0.2006
 5332TIP3    H237488   2.841   0.842  16.549  0.0816  0.3408  0.0518
 5333TIP3   OH237489   1.673   4.006  13.117 -0.0242 -0.2013 -0.2306
 5333TIP3    H137490   1.655   3.912  13.114 -1.1027  0.0049 -1.1179
 5333TIP3    H237491   1.764   4.014  13.087 -0.2219 -0.8985 -1.0732
 5334TIP3   OH237492   2.101   1.306   4.889  0.5157  0.2894 -0.0792
 5334TIP3    H137493   2.157   1.383   4.889  3.7770 -1.8841 -0.6799
 5334TIP3    H237494   2.125   1.258   4.809 -1.5414 -1.2611  0.1351
 5335TIP3   OH237495   5.839   3.736  10.558  0.5898 -0.0991 -0.0967
 5335TIP3    H137496   5.852   3.739  10.463 -0.2522 -2.0947 -0.3385
 5335TIP3    H237497   5.834   3.642  10.578  0.7684  0.2857  1.9330
 5336TIP3   OH237498   3.360   2.949  12.467  0.3247 -0.5027  0.6738
 5336TIP3    H137499   3.367   2.855  12.447 -0.2912  0.0150 -2.6793
 5336TIP3    H237500   3.426   2.989  12.410 -1.8414  1.2939 -0.7553
 5337TIP3   OH237501   4.193   2.816  14.790  0.6542  0.4097 -0.3603
 5337TIP3    H137502   4.195   2.891  14.731  1.9919 -1.2057 -2.5029
 5337TIP3    H237503   4.217   2.741  14.735  0.5337 -1.4290  1.9344
 5338TIP3   OH237504   1.946   6.074   1.411  0.3971 -0.2895  0.0612
 5338TIP3    H137505   1.961   6.140   1.344 -0.4433  1.4399  1.4928
 5338TIP3    H237506   1.969   6.117   1.493 -0.1503 -1.7909  1.0466
 5339TIP3   OH237507   3.586   5.679   1.347  0.0568 -0.4811  0.2849
 5339TIP3    H137508   3.613   5.638   1.265  1.4192  1.3304 -0.2526
 5339TIP3    H237509   3.508   5.730   1.323  0.0406 -0.5151  0.2654
 5340TIP3   OH237510   1.811   6.363  15.500 -0.5750 -0.5780  0.4678
 5340TIP3    H137511   1.732   6.398  15.541  0.5674  1.6999  0.8869
 5340TIP3    H237512   1.883   6.394  15.556  0.6730 -2.1635 -0.1783
 5341TIP3   OH237513   3.127   1.158  12.526  0.5205 -0.3076 -0.0607
 5341TIP3    H137514   3.102   1.077  12.482  0.7461  1.0198 -2.8473
 5341TIP3    H237515   3.079   1.156  12.609  1.0449 -3.5501  0.2764
 5342TIP3   OH237516   0.586   5.637  13.676 -0.6506  0.1791  0.1506
 5342TIP3    H137517   0.563   5.627  13.769 -1.2566 -1.0095 -0.1077
 5342TIP3    H237518   0.634   5.720  13.672 -1.0041  0.4710  1.4530
 5343TIP3   OH237519   6.658   1.135   2.002  0.0527  0.2080 -0.1311
 5343TIP3    H137520   6.725   1.186   1.957 -1.7569 -0.0932 -3.5538
 5343TIP3    H237521   6.608   1.200   2.051  0.6607  0.9949 -0.5245
 5344TIP3   OH237522   5.781   5.115  13.419  0.3190  0.1236  0.1170
 5344TIP3    H137523   5.696   5.099  13.459  0.6676  0.6456  1.0897
 5344TIP3    H237524   5.828   5.031  13.427 -0.5448 -0.5642 -1.5962
 5345TIP3   OH237525   2.207   5.799   2.461 -0.3947 -0.1309  0.2662
 5345TIP3    H137526   2.156   5.755   2.393 -1.3787  1.3371  0.0008
 5345TIP3    H237527   2.297   5.792   2.432 -0.6729 -0.7312 -0.4774
 5346TIP3   OH237528   1.869   2.731   1.312  0.6474 -0.1686 -0.2888
 5346TIP3    H137529   1.961   2.750   1.326  0.3345 -0.2655  2.3484
 5346TIP3    H237530   1.822   2.798   1.362 -0.6131 -1.7712  0.8012
 5347TIP3   OH237531   4.689   6.671   1.782 -0.0445 -0.1783 -0.6570
 5347TIP3    H137532   4.742   6.624   1.717  0.1975  0.9376 -1.2855
 5347TIP3    H237533   4.601   6.636   1.771 -0.3192  0.9798 -2.5940
 5348TIP3   OH237534   3.549   2.307   2.650  0.0964 -0.5304 -0.0313
 5348TIP3    H137535   3.598   2.225   2.659  0.0479 -0.6372 -0.6434
 5348TIP3    H237536   3.610   2.367   2.607  0.2696 -0.1109  0.7901
 5349TIP3   OH237537   0.745   6.054   1.004  0.0037  0.0991 -0.7188
 5349TIP3    H137538   0.761   6.141   0.968 -1.6192  0.0628 -1.6339
 5349TIP3    H237539   0.769   5.994   0.933 -0.8984 -0.0952 -0.8645
 5350TIP3   OH237540   2.478   1.255   5.965 -0.7590 -0.3913  0.8309
 5350TIP3    H137541   2.388   1.281   5.981 -0.8597  0.2909 -0.6528
 5350TIP3    H237542   2.492   1.180   6.023 -2.5966 -1.1310  0.4066
 5351TIP3   OH237543   3.001   3.018  13.540  0.5549  0.0196 -0.6825
 5351TIP3    H137544   2.984   2.983  13.627  2.5262  0.5067 -0.0489
 5351TIP3    H237545   2.934   3.085  13.527  0.0980 -0.2216  0.3537
 5352TIP3   OH237546   1.440   2.079  14.413 -0.6976  0.0295  0.1360
 5352TIP3    H137547   1.351   2.055  14.439 -0.4163  1.1925  2.4108
 5352TIP3    H237548   1.496   2.043  14.481  0.2761  1.7506  0.3116
 5353TIP3   OH237549   4.018   0.188   2.480  0.0998  0.2160  0.1163
 5353TIP3    H137550   4.035   0.278   2.506  0.0296  0.3794 -0.4060
 5353TIP3    H237551   4.063   0.178   2.397  0.3682 -0.3250  0.3227
 5354TIP3   OH237552   3.615   4.357  16.153 -0.6747  0.6770  0.1379
 5354TIP3    H137553   3.531   4.325  16.185  0.5035 -0.6170  2.1627
 5354TIP3    H237554   3.630   4.439  16.200 -1.0757  1.2684 -0.7352
 5355TIP3   OH237555   6.261   6.124  11.912 -0.3510 -0.6430 -0.0881
 5355TIP3    H137556   6.302   6.184  11.973  0.2415  1.4968 -2.4463
 5355TIP3    H237557   6.332   6.096  11.854 -1.6097  1.3415 -2.8151
 5356TIP3   OH237558   2.319   3.728   1.426  0.1583  0.0284  0.7882
 5356TIP3    H137559   2.282   3.750   1.512 -0.0502  1.4862  0.3573
 5356TIP3    H237560   2.411   3.752   1.433  0.6629 -1.9059  1.2785
 5357TIP3   OH237561   5.931   0.433  13.031 -0.6380 -0.1929  0.2042
 5357TIP3    H137562   5.892   0.520  13.044 -1.0037 -0.0827 -1.3688
 5357TIP3    H237563   5.996   0.446  12.962  0.3179 -0.9060  0.9536
 5358TIP3   OH237564   2.798   0.218  14.865 -0.0879 -0.3011 -0.1411
 5358TIP3    H137565   2.814   0.160  14.791 -0.1428 -0.8683  0.2828
 5358TIP3    H237566   2.857   0.186  14.934 -2.9562 -2.5373  1.5252
 5359TIP3   OH237567   4.945   6.057   0.525 -0.3418  0.4622 -0.1054
 5359TIP3    H137568   4.940   6.015   0.440 -1.5554  1.9685 -0.8288
 5359TIP3    H237569   4.871   6.021   0.574  0.9076 -1.1282  0.7175
 5360TIP3   OH237570   5.185   5.226  13.050 -0.2787  0.0428  0.4330
 5360TIP3    H137571   5.238   5.152  13.081 -0.5891 -0.4587 -0.2204
 5360TIP3    H237572   5.245   5.279  12.998 -0.5784 -0.8997 -0.8976
 5361TIP3   OH237573   4.476   4.269  12.561  0.1214  0.0409 -0.1533
 5361TIP3    H137574   4.495   4.351  12.516 -2.0674  0.8553  0.2921
 5361TIP3    H237575   4.471   4.293  12.654 -1.5793 -0.3117 -0.1103
 5362TIP3   OH237576   5.574   5.834  14.953 -0.2319 -0.3799  0.2106
 5362TIP3    H137577   5.527   5.866  15.030  0.0267 -1.2580  0.7535
 5362TIP3    H237578   5.631   5.764  14.987  0.0845 -0.5974 -0.7321
 5363TIP3   OH237579   5.069   4.472   5.801  0.3739  0.1209  0.1185
 5363TIP3    H137580   5.073   4.395   5.858 -0.6318  0.4069  0.5959
 5363TIP3    H237581   5.157   4.510   5.806  0.5943 -0.4423  0.6644
 5364TIP3   OH237582   5.659   6.744  16.156 -0.2698 -0.1603 -0.3406
 5364TIP3    H137583   5.669   6.795  16.237  0.5548 -0.9054  0.0405
 5364TIP3    H237584   5.567   6.754  16.133  0.0624  2.4788 -0.9332
 5365TIP3   OH237585   2.672   1.099  12.683  0.7342 -0.5479 -0.1945
 5365TIP3    H137586   2.676   1.029  12.618  2.6372 -1.5463  0.9292
 5365TIP3    H237587   2.691   1.056  12.766  1.9976  1.2835  0.5258
 5366TIP3   OH237588   0.203   4.824   6.875 -0.7512 -0.4667  0.3358
 5366TIP3    H137589   0.255   4.903   6.861 -1.6703 -0.0894 -1.1997
 5366TIP3    H237590   0.268   4.753   6.882  0.0087  0.1434 -0.3496
 5367TIP3   OH237591   3.193   2.573   0.902  0.3624  0.2440  0.5621
 5367TIP3    H137592   3.233   2.559   0.816 -1.4701  0.7236 -0.4227
 5367TIP3    H237593   3.234   2.653   0.935  1.7660 -0.4648  0.5826
 5368TIP3   OH237594   4.046   2.891  16.646  0.2635  0.7579  0.0443
 5368TIP3    H137595   3.986   2.816  16.638  0.3608  0.7208 -0.3675
 5368TIP3    H237596   3.990   2.968  16.635  0.2559  0.7303 -0.1063
 5369TIP3   OH237597   0.271   5.783   2.675 -0.4887 -0.4664 -0.3644
 5369TIP3    H137598   0.347   5.738   2.639 -0.7686 -0.2607 -1.2260
 5369TIP3    H237599   0.299   5.812   2.762  0.9569  0.9971 -1.2683
 5370TIP3   OH237600   4.566   5.570  10.904 -0.5198  0.1871  0.3493
 5370TIP3    H137601   4.511   5.641  10.872 -0.0888  0.3654 -0.0085
 5370TIP3    H237602   4.647   5.613  10.933 -0.1677 -0.1768 -0.0797
 5371TIP3   OH237603   2.498   2.737   2.462  0.1303 -0.0424 -0.5994
 5371TIP3    H137604   2.515   2.643   2.468  1.4124  0.1894 -0.2016
 5371TIP3    H237605   2.534   2.773   2.543 -0.7189  0.7539 -0.5568
 5372TIP3   OH237606   0.967   2.132   4.917 -0.6555 -0.1006  0.0378
 5372TIP3    H137607   0.936   2.154   4.829  1.5839 -1.0739 -1.0738
 5372TIP3    H237608   1.052   2.175   4.924 -0.4305 -0.7260  1.4321
 5373TIP3   OH237609   5.534   6.548   3.523  0.7976  0.2655 -0.6251
 5373TIP3    H137610   5.499   6.636   3.535 -0.6858 -0.3755  0.0458
 5373TIP3    H237611   5.490   6.514   3.446  1.0888 -0.0148 -0.6707
 5374TIP3   OH237612   2.256   0.543   4.040 -0.5911  0.5818  0.8229
 5374TIP3    H137613   2.321   0.477   4.065 -1.1880 -0.2798  0.1395
 5374TIP3    H237614   2.264   0.550   3.945 -0.9601  1.0537  0.8214
 5375TIP3   OH237615   4.418   4.352   5.027 -0.4638 -0.4184 -0.0486
 5375TIP3    H137616   4.463   4.365   5.110 -0.7866  1.5915 -0.1314
 5375TIP3    H237617   4.406   4.441   4.992 -2.6972 -0.9998 -0.9606
 5376TIP3   OH237618   0.764   2.563   5.766  0.2508 -0.0882  0.3980
 5376TIP3    H137619   0.707   2.618   5.819 -2.3571 -1.5460 -0.7349
 5376TIP3    H237620   0.805   2.503   5.828  0.5861  0.9589  1.2211
 5377TIP3   OH237621   5.719   3.664   3.423  0.0334 -0.1657  0.2254
 5377TIP3    H137622   5.802   3.615   3.426  0.5823  0.7741  1.5602
 5377TIP3    H237623   5.698   3.680   3.515 -2.4359 -1.6385 -0.0165
 5378TIP3   OH237624   2.289   3.571  13.558  0.1618 -0.2367 -0.2301
 5378TIP3    H137625   2.365   3.606  13.605  0.1485  0.1634 -0.5014
 5378TIP3    H237626   2.313   3.577  13.465 -1.8614  4.1886 -0.7345
 5379TIP3   OH237627   1.974   3.433   0.111  0.3078  0.0455 -0.8929
 5379TIP3    H137628   1.969   3.472   0.198 -0.2010 -0.3270 -0.7478
 5379TIP3    H237629   1.888   3.450   0.072 -0.0125 -1.1365 -0.7330
 5380TIP3   OH237630   1.258   6.440  16.921  0.5307  0.4891  0.3790
 5380TIP3    H137631   1.178   6.393  16.899  1.3336 -1.0543  0.5607
 5380TIP3    H237632   1.302   6.453  16.837 -1.0866  3.7672 -0.0898
 5381TIP3   OH237633   1.227   6.462  12.299  0.6204  0.1922 -0.0765
 5381TIP3    H137634   1.225   6.399  12.371 -4.4774 -1.5256 -1.2993
 5381TIP3    H237635   1.228   6.409  12.220  0.0436  1.7895 -1.2172
 5382TIP3   OH237636   4.282   5.981  12.643  0.0164  0.7085 -0.0514
 5382TIP3    H137637   4.284   6.002  12.736 -1.8166  0.0592  0.1741
 5382TIP3    H237638   4.239   6.057  12.603 -0.2302  0.4835 -0.2124
 5383TIP3   OH237639   1.261   3.783   5.426  0.6752  0.4357  0.8003
 5383TIP3    H137640   1.268   3.747   5.514 -0.1157 -1.7862  0.0119
 5383TIP3    H237641   1.330   3.739   5.376  0.0867  0.4743 -0.0672
 5384TIP3   OH237642   4.307   6.275   4.102  0.3710  0.5628  0.2951
 5384TIP3    H137643   4.347   6.354   4.137 -0.3547  0.7745  0.6588
 5384TIP3    H237644   4.355   6.203   4.144  1.2289  0.7988 -0.2653
 5385TIP3   OH237645   4.245   4.785  16.141  0.0109  0.1274 -0.2601
 5385TIP3    H137646   4.168   4.820  16.187  1.3851 -0.3208  2.6250
 5385TIP3    H237647   4.279   4.718  16.200  1.4075 -1.2427 -2.4823
 5386TIP3   OH237648   2.656   1.644   4.297  0.2399  0.3489 -0.2846
 5386TIP3    H137649   2.685   1.682   4.215 -0.4438 -0.0706 -0.7354
 5386TIP3    H237650   2.620   1.559   4.272 -0.4427  0.4330  0.3755
 5387TIP3   OH237651   6.417   4.114   5.912 -0.1675  0.0548 -0.1455
 5387TIP3    H137652   6.373   4.143   5.833  0.9628  0.0218 -0.8143
 5387TIP3    H237653   6.409   4.019   5.911 -1.4302  0.1316  0.5740
 5388TIP3   OH237654   2.232   4.801   1.294  0.5120  0.0476  0.0734
 5388TIP3    H137655   2.139   4.812   1.278  0.7361  1.1844 -0.5687
 5388TIP3    H237656   2.269   4.775   1.210  0.8579  0.2203  0.1677
 5389TIP3   OH237657   5.106   6.734   5.539 -0.4084  0.3169 -0.0325
 5389TIP3    H137658   5.143   6.807   5.488  0.5466  0.2555  0.5452
 5389TIP3    H237659   5.082   6.773   5.623  0.1815 -0.0447  0.3094
 5390TIP3   OH237660   4.239   1.083   4.367  0.0376  0.2708  0.4316
 5390TIP3    H137661   4.266   1.000   4.405 -0.3599 -0.1297 -0.1535
 5390TIP3    H237662   4.318   1.138   4.371  0.0699  0.1509  1.5767
 5391TIP3   OH237663   1.645   3.835   1.512 -0.4833 -0.1832  0.2263
 5391TIP3    H137664   1.605   3.751   1.537 -1.0801 -0.4071 -1.3158
 5391TIP3    H237665   1.661   3.880   1.594 -1.6072 -1.1657  1.0150
 5392TIP3   OH237666   2.849   4.123   2.791  0.3044  0.2867  0.1736
 5392TIP3    H137667   2.809   4.089   2.711 -1.4138  1.3729  0.5269
 5392TIP3    H237668   2.909   4.054   2.819 -0.3610 -0.8578 -1.0991
 5393TIP3   OH237669   6.319   1.146   2.983  0.1040 -0.4870  0.2051
 5393TIP3    H137670   6.270   1.224   3.009  0.0741 -0.5829  0.4404
 5393TIP3    H237671   6.372   1.174   2.909  0.0792 -0.2472  0.2788
 5394TIP3   OH237672   1.092   6.107  14.043  0.1991 -0.2369  0.1633
 5394TIP3    H137673   1.037   6.117  14.120  1.4484  0.0523  1.0516
 5394TIP3    H237674   1.129   6.194  14.028  1.1276 -0.6209  0.1587
 5395TIP3   OH237675   2.340   4.956   5.283  0.3134  0.1819 -0.1048
 5395TIP3    H137676   2.308   4.954   5.373  0.7025 -1.0560  0.0223
 5395TIP3    H237677   2.270   4.999   5.234 -0.4273 -0.1963  0.5925
 5396TIP3   OH237678   3.281   1.831  13.942  0.0615 -0.0537  0.3581
 5396TIP3    H137679   3.222   1.901  13.969  0.4169  0.5226 -0.3090
 5396TIP3    H237680   3.346   1.827  14.012 -0.6131 -0.5221  0.9706
 5397TIP3   OH237681   3.402   2.836  17.009  0.6868 -0.0189  0.0250
 5397TIP3    H137682   3.358   2.904  16.959  1.3101 -0.3494 -0.9996
 5397TIP3    H237683   3.370   2.754  16.971 -0.1243 -0.3344  1.3005
 5398TIP3   OH237684   0.575   6.150   4.756 -0.0274  0.4554  0.2166
 5398TIP3    H137685   0.501   6.196   4.719  0.6161  1.2997 -0.0471
 5398TIP3    H237686   0.563   6.059   4.728 -1.3609  0.4188  0.8341
 5399TIP3   OH237687   5.429   4.449   5.329  0.1650  0.6808  0.8623
 5399TIP3    H137688   5.439   4.420   5.420  0.8052 -1.1527  0.2543
 5399TIP3    H237689   5.366   4.388   5.291  1.0639  0.4571 -0.3177
 5400TIP3   OH237690   5.048   4.148   3.300  0.2611 -0.6197  0.3897
 5400TIP3    H137691   5.086   4.086   3.361 -0.2933 -1.8727 -0.4946
 5400TIP3    H237692   4.967   4.106   3.269 -0.5002  0.8498  0.2964
 5401TIP3   OH237693   6.218   2.117  15.035  0.3187  0.0818  0.4145
 5401TIP3    H137694   6.274   2.050  14.996  3.3105  1.7044  1.5721
 5401TIP3    H237695   6.278   2.190  15.054 -2.6378  2.8969 -0.2782
 5402TIP3   OH237696   3.474   4.890   3.850 -0.8931 -0.1151  0.1620
 5402TIP3    H137697   3.465   4.856   3.939 -1.6807 -0.3424  0.0018
 5402TIP3    H237698   3.431   4.825   3.795  0.3202 -0.3992 -0.4907
 5403TIP3   OH237699   6.021   1.980   6.345 -0.6273 -0.7203  0.1272
 5403TIP3    H137700   5.951   2.042   6.324  0.1589  1.0511  2.2980
 5403TIP3    H237701   6.000   1.949   6.433  0.6440 -1.1362  0.3057
 5404TIP3   OH237702   0.539   3.448  13.419 -0.0371 -0.2601  0.2876
 5404TIP3    H137703   0.459   3.437  13.471 -0.3993 -2.9832 -0.6670
 5404TIP3    H237704   0.577   3.360  13.415  2.5349  0.7787 -0.0927
 5405TIP3   OH237705   6.668   4.176  15.642  0.7488 -0.8132  0.0293
 5405TIP3    H137706   6.575   4.160  15.631  1.2297 -2.5646 -2.4073
 5405TIP3    H237707   6.679   4.270  15.623 -0.7130  0.0217  2.7869
 5406TIP3   OH237708   6.242   3.844  14.273  0.0981 -0.0893 -0.0613
 5406TIP3    H137709   6.331   3.809  14.269  0.9043  1.7004  1.3018
 5406TIP3    H237710   6.194   3.782  14.329 -0.1013 -2.0854 -2.2641
 5407TIP3   OH237711   2.153   0.493  14.971 -0.1811  0.0697  0.1352
 5407TIP3    H137712   2.211   0.528  14.903  0.7966  0.5116  1.1520
 5407TIP3    H237713   2.200   0.511  15.053 -0.8662 -1.3158  0.8649
 5408TIP3   OH237714   3.672   6.664  14.098 -1.1054 -0.7664  0.2472
 5408TIP3    H137715   3.686   6.709  14.015 -0.7831 -0.6367  0.3702
 5408TIP3    H237716   3.680   6.571  14.077  0.2713 -0.7004  0.3586
 5409TIP3   OH237717   4.754   6.305   4.477 -0.0269 -0.0480  0.1984
 5409TIP3    H137718   4.685   6.239   4.472  1.1424 -1.2117 -2.0892
 5409TIP3    H237719   4.753   6.348   4.391  1.3467  0.6586  0.5034
 5410TIP3   OH237720   6.349   4.508   5.688 -0.1146 -0.2929  0.1868
 5410TIP3    H137721   6.294   4.585   5.701  2.3171  1.4920  0.5278
 5410TIP3    H237722   6.293   4.434   5.713 -1.8777  1.4979  1.8516
 5411TIP3   OH237723   3.625   0.077   3.144 -0.0680 -0.0334  0.0007
 5411TIP3    H137724   3.610   0.117   3.058 -1.8271 -0.0742  0.2672
 5411TIP3    H237725   3.634   0.151   3.204  0.3302 -0.0150 -0.0785
 5412TIP3   OH237726   4.348   5.277  16.425  0.2029  0.0433 -0.3956
 5412TIP3    H137727   4.262   5.262  16.464  0.2218 -1.7088 -0.9229
 5412TIP3    H237728   4.410   5.246  16.491  0.4219  0.7507 -0.2569
 5413TIP3   OH237729   0.239   5.097   1.621  0.2912  0.1751 -0.5791
 5413TIP3    H137730   0.250   5.002   1.623 -0.1697  0.1348  0.6219
 5413TIP3    H237731   0.145   5.110   1.608  0.2891  0.4598 -0.2768
 5414TIP3   OH237732   1.572   3.669   2.894  0.2273 -0.0701  0.1556
 5414TIP3    H137733   1.507   3.739   2.901 -0.3336 -0.6086  0.5057
 5414TIP3    H237734   1.559   3.633   2.806  0.8058  0.5389 -0.1814
 5415TIP3   OH237735   2.531   6.506  11.168  0.9326 -0.1613  0.0098
 5415TIP3    H137736   2.504   6.584  11.217  1.5500 -0.9946  1.7569
 5415TIP3    H237737   2.509   6.526  11.077 -0.6843  1.2856  0.6605
 5416TIP3   OH237738   0.189   2.230  15.865  0.8220  0.4023  0.2202
 5416TIP3    H137739   0.181   2.290  15.939  1.2632  0.4830  0.2028
 5416TIP3    H237740   0.158   2.146  15.899 -2.4725  1.1733 -0.4978
 5417TIP3   OH237741   1.996   0.695  14.237 -0.5859  0.2857 -0.2034
 5417TIP3    H137742   2.020   0.752  14.164  0.6617 -0.2608 -0.2452
 5417TIP3    H237743   1.901   0.691  14.234 -0.7304  2.4108 -0.1655
 5418TIP3   OH237744   5.131   5.241   3.290 -0.2636 -0.9429 -0.0787
 5418TIP3    H137745   5.054   5.293   3.311  0.0118 -0.5101 -0.1465
 5418TIP3    H237746   5.096   5.154   3.270 -0.8788 -0.3801 -1.5700
 5419TIP3   OH237747   0.372   6.719  14.357 -0.2659  0.0149 -0.0379
 5419TIP3    H137748   0.373   6.627  14.385  0.7233  0.3368  1.1023
 5419TIP3    H237749   0.418   6.765  14.427  0.7674  1.1386 -1.4004
 5420TIP3   OH237750   5.413   2.451  14.476  0.4449  0.8334 -0.5111
 5420TIP3    H137751   5.365   2.369  14.468  1.7565 -0.3344  2.2187
 5420TIP3    H237752   5.358   2.506  14.532  0.7267  0.7665 -0.1573
 5421TIP3   OH237753   5.489   2.018   4.264  0.4445  0.0427 -0.3011
 5421TIP3    H137754   5.546   1.968   4.323  0.6074  2.1428  1.4923
 5421TIP3    H237755   5.513   2.109   4.281 -1.7586  0.8723 -1.3060
 5422TIP3   OH237756   0.187   2.893  12.287  0.5129  0.0354  0.2501
 5422TIP3    H137757   0.178   2.932  12.374 -1.1359  0.5735 -0.1048
 5422TIP3    H237758   0.099   2.862  12.266  1.7078 -4.0639  0.5177
 5423TIP3   OH237759   0.944   2.309  15.697  0.5956 -0.0815  0.1053
 5423TIP3    H137760   0.888   2.314  15.775 -1.2641  1.0166 -1.2125
 5423TIP3    H237761   0.997   2.388  15.700  0.4215  0.0327  0.1974
 5424TIP3   OH237762   6.430   6.001   4.583 -0.0361 -0.4467  0.0130
 5424TIP3    H137763   6.468   6.028   4.667  0.8811  1.3638 -0.9266
 5424TIP3    H237764   6.421   6.082   4.534 -2.8370 -1.1466 -0.7909
 5425TIP3   OH237765   1.076   5.694   1.793  0.1477  0.0237  0.0686
 5425TIP3    H137766   1.043   5.609   1.821  1.1763 -0.3748  0.0830
 5425TIP3    H237767   1.108   5.680   1.704 -2.4820  1.1245 -1.1709
 5426TIP3   OH237768   0.182   3.063   1.500 -0.0040 -0.4770 -0.1193
 5426TIP3    H137769   0.218   2.978   1.527 -0.0064 -0.9753 -1.5905
 5426TIP3    H237770   0.237   3.127   1.545  2.1305 -1.2258 -1.4721
 5427TIP3   OH237771   5.144   3.300  13.220 -0.1399  0.0734  0.3746
 5427TIP3    H137772   5.208   3.305  13.149 -0.8506 -0.4885 -0.3161
 5427TIP3    H237773   5.063   3.274  13.178 -0.8114  0.6840  1.2641
 5428TIP3   OH237774   2.250   5.221  12.011 -0.0694 -0.0158  0.0795
 5428TIP3    H137775   2.301   5.141  12.023 -0.2901 -0.1815 -0.0759
 5428TIP3    H237776   2.229   5.250  12.099 -2.1854 -1.5348  0.1448
 5429TIP3   OH237777   4.853   4.275  12.508 -0.5426 -0.4535  0.0694
 5429TIP3    H137778   4.828   4.330  12.434  0.2268  1.3640  1.1058
 5429TIP3    H237779   4.788   4.295  12.576  0.5131  0.2356  0.9167
 5430TIP3   OH237780   3.524   3.354  14.668 -0.0493  0.6941  0.0587
 5430TIP3    H137781   3.602   3.298  14.664  1.0526  2.1505  0.1754
 5430TIP3    H237782   3.529   3.407  14.589 -0.6250  1.1939  0.3490
 5431TIP3   OH237783   2.615   3.206  14.114 -0.2546 -0.1746 -0.4416
 5431TIP3    H137784   2.598   3.251  14.196  0.4290 -1.2214  0.3124
 5431TIP3    H237785   2.533   3.212  14.065 -0.3501  1.3521 -0.1309
 5432TIP3   OH237786   5.178   5.471  11.757 -0.6238  0.4342  0.1444
 5432TIP3    H137787   5.201   5.533  11.687 -2.1409  0.1493 -0.6377
 5432TIP3    H237788   5.263   5.444  11.793  0.2523  0.1510 -1.9677
 5433TIP3   OH237789   2.501   0.312   0.388  0.1746  0.1646  0.7722
 5433TIP3    H137790   2.476   0.225   0.420 -0.6072  0.3967  0.8136
 5433TIP3    H237791   2.596   0.308   0.380  0.1995 -0.5094  1.3183
 5434TIP3   OH237792   4.563   2.566  16.212  0.2276  0.5249  0.2167
 5434TIP3    H137793   4.553   2.478  16.175  2.5123 -1.1272  3.1757
 5434TIP3    H237794   4.607   2.616  16.143  1.8883 -1.6248 -0.3655
 5435TIP3   OH237795   6.142   5.577  11.339 -0.4835  0.0715  0.1644
 5435TIP3    H137796   6.234   5.552  11.331 -0.1776  1.3030 -0.3599
 5435TIP3    H237797   6.104   5.555  11.254 -0.8283 -0.9870  0.5790
 5436TIP3   OH237798   0.404   0.157   5.186  0.0294  0.2945 -0.3385
 5436TIP3    H137799   0.349   0.175   5.263  1.2724  0.5802  0.5210
 5436TIP3    H237800   0.372   0.217   5.119  0.3751  1.6705  0.6837
 5437TIP3   OH237801   2.835   4.554  12.236 -0.3895  0.3629 -0.5350
 5437TIP3    H137802   2.848   4.617  12.165 -1.6209 -0.3491 -1.4435
 5437TIP3    H237803   2.785   4.602  12.302  0.6598  0.9969 -0.1891
 5438TIP3   OH237804   1.370   2.345  16.524  0.0476 -0.1672  0.3306
 5438TIP3    H137805   1.326   2.291  16.590 -0.3822 -0.3767 -0.1250
 5438TIP3    H237806   1.351   2.303  16.441 -1.5875  1.4983 -0.2165
 5439TIP3   OH237807   3.451   6.267  16.648 -0.3131 -0.2684 -0.1193
 5439TIP3    H137808   3.531   6.288  16.696 -0.3537  0.7465 -0.4657
 5439TIP3    H237809   3.430   6.348  16.601 -2.7773  0.2514  1.7054
 5440TIP3   OH237810   2.911   4.352   1.332  0.1784  0.1389  0.1739
 5440TIP3    H137811   2.864   4.304   1.400 -1.0285  1.0618  0.0174
 5440TIP3    H237812   3.003   4.340   1.354  0.0122 -3.0571 -0.4136
 5441TIP3   OH237813   0.185   1.849  13.947 -0.5025 -0.3357 -0.2584
 5441TIP3    H137814   0.274   1.869  13.976 -0.9829 -0.0535  1.0688
 5441TIP3    H237815   0.197   1.806  13.862  0.7863  1.4758 -1.0546
 5442TIP3   OH237816   3.586   4.127  14.027  0.2810  0.2433  0.6122
 5442TIP3    H137817   3.544   4.097  13.946  2.5171 -0.9960 -0.1643
 5442TIP3    H237818   3.605   4.219  14.011  0.1418  0.1671 -0.0319
 5443TIP3   OH237819   3.952   1.208  13.311 -0.1389 -0.3868  0.4602
 5443TIP3    H137820   3.960   1.301  13.289 -1.9405 -0.3959 -0.4827
 5443TIP3    H237821   4.012   1.164  13.252 -2.2157 -0.0867 -2.0777
 5444TIP3   OH237822   1.481   4.077  16.419  0.3296  0.0643 -0.1246
 5444TIP3    H137823   1.510   4.168  16.418  0.7397 -0.0515  0.5603
 5444TIP3    H237824   1.434   4.067  16.502 -1.8390  0.2807 -1.2377
 5445TIP3   OH237825   4.149   5.781  16.925  0.0761 -0.3556 -0.1293
 5445TIP3    H137826   4.141   5.779  16.830  0.0415 -2.4855 -0.1188
 5445TIP3    H237827   4.237   5.746  16.942  0.1825  0.2496  0.6276
 5446TIP3   OH237828   3.325   6.633  13.851 -0.8259 -0.3896  0.1629
 5446TIP3    H137829   3.307   6.581  13.929 -0.6857  1.0236  1.1812
 5446TIP3    H237830   3.393   6.584  13.804  0.1859 -0.5449  1.7195
 5447TIP3   OH237831   1.277   3.127   1.028  0.3460  0.7526 -0.1693
 5447TIP3    H137832   1.304   3.212   0.992  1.3023  1.0290  1.0902
 5447TIP3    H237833   1.192   3.144   1.069 -0.6125  0.4996 -1.9491
 5448TIP3   OH237834   2.486   4.923   1.541  0.2669  0.0003 -0.6720
 5448TIP3    H137835   2.496   4.849   1.600  0.2209  1.2551  0.9876
 5448TIP3    H237836   2.558   4.982   1.562 -0.7196  1.2661 -0.6444
 5449TIP3   OH237837   2.825   0.103  16.193  0.1021 -0.2171  0.5877
 5449TIP3    H137838   2.912   0.139  16.209  0.9879 -2.0908  0.2368
 5449TIP3    H237839   2.784   0.163  16.131  1.3361  0.4278  0.3816
 5450TIP3   OH237840   2.252   4.260  13.665  0.1995  0.0135 -0.4194
 5450TIP3    H137841   2.184   4.299  13.610 -1.2738 -0.1120  1.2220
 5450TIP3    H237842   2.211   4.253  13.752  1.0660 -3.3569 -0.1663
 5451TIP3   OH237843   0.424   4.501  17.162  0.0781 -0.1208 -0.7803
 5451TIP3    H137844   0.504   4.529  17.116 -0.2849 -0.6899 -1.8068
 5451TIP3    H237845   0.402   4.573  17.220  1.8418 -0.3202  0.1949
 5452TIP3   OH237846   6.050   2.764   1.615  0.1911 -0.0402 -0.5948
 5452TIP3    H137847   6.037   2.822   1.690 -0.4899  0.9358 -1.4166
 5452TIP3    H237848   6.024   2.678   1.646 -1.2702  0.5640 -0.0380
 5453TIP3   OH237849   2.054   2.199  13.823  0.1576  0.2477 -0.2727
 5453TIP3    H137850   1.981   2.218  13.882 -0.1980  0.7657 -0.8607
 5453TIP3    H237851   2.013   2.196  13.736 -0.0839 -4.3749 -0.2335
 5454TIP3   OH237852   5.200   1.262   3.002 -0.4849  0.1384 -0.4070
 5454TIP3    H137853   5.171   1.208   2.929 -1.6851 -0.1822  0.2688
 5454TIP3    H237854   5.146   1.341   2.996 -0.4039  0.2233 -0.0284
 5455TIP3   OH237855   6.279   3.985  12.349  0.3612 -0.0952 -0.1903
 5455TIP3    H137856   6.317   3.904  12.314  1.3066 -0.0929  0.7624
 5455TIP3    H237857   6.346   4.017  12.410 -1.2261 -0.1481  1.6624
 5456TIP3   OH237858   0.676   0.140  15.775  1.0405 -0.6570  0.3652
 5456TIP3    H137859   0.762   0.135  15.732  0.4505  0.5370 -1.0719
 5456TIP3    H237860   0.633   0.058  15.751  0.9638 -0.2920 -0.8606
 5457TIP3   OH237861   2.340   5.194   3.937 -0.2921  0.2844  0.1848
 5457TIP3    H137862   2.304   5.233   3.857 -0.9625  1.4788  1.0406
 5457TIP3    H237863   2.407   5.257   3.966 -0.4683  0.1532  0.8841
 5458TIP3   OH237864   1.783   1.401  15.785 -0.1187 -0.3389  0.3295
 5458TIP3    H137865   1.870   1.437  15.803 -1.1544  1.0963  3.0535
 5458TIP3    H237866   1.775   1.406  15.690  2.0639  1.2679  0.1398
 5459TIP3   OH237867   3.320   1.526   0.687  0.0300  0.0056  1.1518
 5459TIP3    H137868   3.277   1.598   0.641  0.5876 -1.3063 -1.6590
 5459TIP3    H237869   3.389   1.497   0.627  0.5571 -2.1460  2.6748
 5460TIP3   OH237870   2.469   2.335  17.402  0.3509  0.1338 -0.0129
 5460TIP3    H137871   2.415   2.413  17.414 -0.2232 -0.5616  2.4340
 5460TIP3    H237872   2.406   2.267  17.376  0.0695 -0.5005  2.1282
 5461TIP3   OH237873   2.079   5.689  16.471 -0.4681  0.5884  0.2515
 5461TIP3    H137874   2.029   5.616  16.508  0.6966 -0.4171 -0.0830
 5461TIP3    H237875   2.014   5.757  16.454 -1.8853 -0.9846 -1.0001
 5462TIP3   OH237876   5.102   4.255   2.826 -0.3990  0.0658  0.3581
 5462TIP3    H137877   5.085   4.231   2.735 -0.8157  0.6701  0.2763
 5462TIP3    H237878   5.196   4.238   2.837 -0.4129 -0.3445 -0.0758
 5463TIP3   OH237879   2.205   5.331   2.961 -0.1117 -0.0986  0.2646
 5463TIP3    H137880   2.245   5.253   2.999 -1.3173 -0.5053  0.7463
 5463TIP3    H237881   2.228   5.327   2.868 -0.8144 -1.4620  0.1330
 5464TIP3   OH237882   1.736   3.512  13.012 -0.3215 -0.1755  0.1767
 5464TIP3    H137883   1.827   3.541  13.017  0.0574 -0.9865 -1.2731
 5464TIP3    H237884   1.697   3.540  13.095 -0.3806  5.4888 -1.3765
 5465TIP3   OH237885   2.857   1.100   6.417  0.5853  0.0225 -0.1764
 5465TIP3    H137886   2.913   1.090   6.494 -0.9742 -0.1142  1.0082
 5465TIP3    H237887   2.773   1.061   6.444 -0.1370  0.3753 -1.8002
 5466TIP3   OH237888   6.178   2.179   1.052  0.2730  0.0267 -0.1063
 5466TIP3    H137889   6.154   2.243   1.119 -1.2257 -0.8404  0.2255
 5466TIP3    H237890   6.270   2.197   1.034 -0.6842  4.3424 -2.2599
 5467TIP3   OH237891   2.840   3.975   0.083 -0.3709 -0.2398 -0.3324
 5467TIP3    H137892   2.801   4.055   0.049 -0.3138  0.6683  1.6229
 5467TIP3    H237893   2.889   4.002   0.160 -0.2864 -2.1494  0.3474
 5468TIP3   OH237894   1.569   3.592  11.549  0.6587  0.1573 -0.4131
 5468TIP3    H137895   1.542   3.671  11.597 -2.1996 -0.6584 -0.4920
 5468TIP3    H237896   1.572   3.620  11.458  0.3887  0.3678 -0.3616
 5469TIP3   OH237897   1.044   2.759   3.871  0.0829  0.0570  0.1115
 5469TIP3    H137898   0.956   2.725   3.852  0.5808 -0.0281 -2.3063
 5469TIP3    H237899   1.030   2.852   3.890 -0.7816 -0.4754  2.3795
 5470TIP3   OH237900   5.275   1.155  13.543 -0.2340 -0.6183  0.5365
 5470TIP3    H137901   5.286   1.241  13.583 -0.3877  0.2351 -1.1459
 5470TIP3    H237902   5.245   1.174  13.454 -2.2598 -2.4767  0.7524
 5471TIP3   OH237903   1.211   1.042  14.791 -0.2121 -0.2281 -0.5499
 5471TIP3    H137904   1.291   1.082  14.824  0.3602 -0.9557 -1.0049
 5471TIP3    H237905   1.188   0.977  14.857  0.0703 -0.6155 -0.8229
 5472TIP3   OH237906   5.226   2.411   1.996  0.3530  0.4210 -0.0971
 5472TIP3    H137907   5.166   2.368   2.057 -0.3007 -0.1144 -1.0939
 5472TIP3    H237908   5.282   2.341   1.964 -0.7314  0.2509 -1.7491
 5473TIP3   OH237909   6.150   6.716   6.088 -0.1211 -0.4117 -0.2266
 5473TIP3    H137910   6.195   6.710   6.004  2.9297  2.9105  0.8967
 5473TIP3    H237911   6.116   6.806   6.090  0.5381 -0.1343  2.2673
 5474TIP3   OH237912   3.828   1.416  13.134  0.7218  0.2956 -0.3608
 5474TIP3    H137913   3.789   1.495  13.096  1.2227  0.3079 -0.8667
 5474TIP3    H237914   3.848   1.439  13.224 -1.1794  0.0317  0.1687
 5475TIP3   OH237915   5.848   1.520  12.129 -0.3460 -0.0859  0.1468
 5475TIP3    H137916   5.807   1.456  12.071 -2.5027  0.6166  0.7981
 5475TIP3    H237917   5.883   1.467  12.201  2.3015 -0.9537 -1.6145
 5476TIP3   OH237918   4.860   1.378   0.976  0.2433 -0.3695  0.1096
 5476TIP3    H137919   4.897   1.298   0.939  0.7377 -0.2254  0.2828
 5476TIP3    H237920   4.837   1.431   0.900  1.6320  0.0997 -0.0110
 5477TIP3   OH237921   0.037   5.401  15.995  0.7294 -0.7694 -0.3056
 5477TIP3    H137922   0.110   5.461  15.985  0.0821 -0.1187 -1.3765
 5477TIP3    H237923  -0.017   5.440  16.064  1.6497 -1.5619  0.9144
 5478TIP3   OH237924   5.978   1.582   4.931  0.3811 -0.3376 -0.2372
 5478TIP3    H137925   6.004   1.496   4.964 -0.0828 -0.7452 -0.8976
 5478TIP3    H237926   6.059   1.619   4.896  1.0343  0.3894  1.8844
 5479TIP3   OH237927   0.491   3.522  10.564  0.0644  0.3826 -0.7123
 5479TIP3    H137928   0.407   3.559  10.590 -0.6545 -2.8633  2.4238
 5479TIP3    H237929   0.555   3.590  10.584 -1.2331  0.6097  3.7063
 5480TIP3   OH237930   0.984   5.880   2.707 -0.3748  0.1141 -0.1826
 5480TIP3    H137931   1.053   5.814   2.709 -1.6677 -1.2971  1.2912
 5480TIP3    H237932   0.925   5.853   2.636  0.7091  1.5120 -1.6724
 5481TIP3   OH237933   5.251   3.175   1.461 -0.3531  0.2720  0.1259
 5481TIP3    H137934   5.229   3.148   1.551  1.3431 -0.2001  0.4405
 5481TIP3    H237935   5.296   3.259   1.472  1.7601 -0.7525  0.0064
 5482TIP3   OH237936   3.898   2.206   2.769 -0.7190  0.1290  0.4540
 5482TIP3    H137937   3.848   2.164   2.699  0.7907  2.1122 -1.9899
 5482TIP3    H237938   3.873   2.298   2.766  2.4233  1.0893 -0.4379
 5483TIP3   OH237939   0.056   4.242   2.153  0.8411  0.4098 -0.2809
 5483TIP3    H137940   0.003   4.259   2.076 -0.7895  0.2255  0.7464
 5483TIP3    H237941   0.042   4.318   2.209  0.0344 -0.5244  0.8470
 5484TIP3   OH237942   3.066   1.135  17.252 -0.0379  0.3285 -1.2043
 5484TIP3    H137943   3.134   1.069  17.267  0.7023  1.4305  0.6622
 5484TIP3    H237944   3.115   1.217  17.241 -1.0366  1.3560  1.3360
 5485TIP3   OH237945   6.052   0.330  17.186  0.2717 -0.3961  0.1991
 5485TIP3    H137946   5.977   0.331  17.126  0.0703 -1.0503  0.4339
 5485TIP3    H237947   6.048   0.415  17.230  0.4189  0.0973 -0.7003
 5486TIP3   OH237948   3.952   5.564   2.314  0.0002  0.0835 -0.0086
 5486TIP3    H137949   3.914   5.638   2.266 -0.5247 -0.3351 -0.2511
 5486TIP3    H237950   3.926   5.579   2.405 -0.1175  0.1919 -0.0581
 5487TIP3   OH237951   5.638   1.413  15.440 -0.3260  0.1739  0.0662
 5487TIP3    H137952   5.675   1.502  15.436 -1.3327  0.6344  0.4715
 5487TIP3    H237953   5.545   1.425  15.420 -0.8387 -0.5338  1.8166
 5488TIP3   OH237954   3.253   3.417   5.132  0.1268  0.1998  0.0899
 5488TIP3    H137955   3.333   3.381   5.170 -0.4507 -1.7507 -0.4116
 5488TIP3    H237956   3.218   3.476   5.199  1.1033 -0.2208  0.9891
 5489TIP3   OH237957   6.738   3.248  11.636  0.5622 -0.1078 -0.1142
 5489TIP3    H137958   6.819   3.246  11.687  0.9767  0.2287 -0.7400
 5489TIP3    H237959   6.766   3.224  11.547 -0.2360 -1.2706 -0.0787
 5490TIP3   OH237960   2.029   5.677   2.268 -0.2135 -0.6394  0.5651
 5490TIP3    H137961   1.950   5.629   2.243 -0.0990 -0.7767  0.4651
 5490TIP3    H237962   2.075   5.693   2.186  0.9319 -2.4291  0.7933
 5491TIP3   OH237963   0.146   1.928   4.676  0.4936  0.0666  0.2251
 5491TIP3    H137964   0.090   1.974   4.739 -1.1678 -0.9285 -0.4534
 5491TIP3    H237965   0.114   1.956   4.590  0.9916 -0.5756 -0.1795
 5492TIP3   OH237966   2.052   5.171  16.522 -0.3498 -0.0472  0.3662
 5492TIP3    H137967   2.141   5.175  16.486  0.1171 -2.0415  1.1258
 5492TIP3    H237968   2.030   5.262  16.542  1.3952  0.5313 -0.1512
 5493TIP3   OH237969   5.117   0.970   1.757 -0.2007  0.3471 -0.1174
 5493TIP3    H137970   5.055   0.899   1.741 -0.4618  0.3331  0.8925
 5493TIP3    H237971   5.168   0.976   1.676  0.6838 -1.8567  0.1871
 5494TIP3   OH237972   2.869   3.178  15.860 -0.4956  0.2560 -0.1823
 5494TIP3    H137973   2.794   3.204  15.912 -1.1002  0.9313 -1.3661
 5494TIP3    H237974   2.848   3.204  15.771  0.1652 -1.5736 -0.9408
 5495TIP3   OH237975   1.074   3.234   0.779 -0.3758  0.1074 -0.1648
 5495TIP3    H137976   0.990   3.220   0.735 -0.6561  0.3619  0.2767
 5495TIP3    H237977   1.118   3.149   0.774 -0.0478  0.3416 -1.6539
 5496TIP3   OH237978   6.026   0.646   5.078  0.3585 -0.0559 -0.1608
 5496TIP3    H137979   5.941   0.659   5.121  0.6953 -2.7485  1.5033
 5496TIP3    H237980   6.004   0.605   4.994 -0.0613  1.8587 -1.0671
 5497TIP3   OH237981   4.638   3.119   0.051  0.3606  0.3636 -1.1130
 5497TIP3    H137982   4.585   3.126   0.131  0.9142  0.6554 -0.7715
 5497TIP3    H237983   4.656   3.210   0.026 -0.1011  0.2826 -1.7696
 5498TIP3   OH237984   4.581   6.445  17.173  0.9287 -0.3983  0.3102
 5498TIP3    H137985   4.606   6.389  17.100 -0.7650  0.0236 -0.6430
 5498TIP3    H237986   4.631   6.412  17.248  1.9746 -1.4433 -0.8210
 5499TIP3   OH237987   1.813   4.177  11.799  0.0044  0.0497 -0.3719
 5499TIP3    H137988   1.784   4.164  11.889 -0.7697  0.2030 -0.5948
 5499TIP3    H237989   1.846   4.092  11.771 -0.0872 -0.0853 -0.0639
 5500TIP3   OH237990   0.336   3.307  14.733 -0.3465 -0.4677 -0.1314
 5500TIP3    H137991   0.318   3.245  14.662  0.3535 -0.3548 -0.4100
 5500TIP3    H237992   0.259   3.301  14.789 -1.1121 -0.2349 -1.1273
 5501TIP3   OH237993   5.577   2.947   1.471  0.0968 -0.2131 -0.4790
 5501TIP3    H137994   5.557   2.914   1.559  0.1836  0.1268 -0.3318
 5501TIP3    H237995   5.585   2.868   1.418 -0.1532 -0.4145 -0.2243
 5502TIP3   OH237996   6.140   3.837  16.736  0.3354  0.0591 -0.1902
 5502TIP3    H137997   6.134   3.931  16.751  0.2641 -0.2551  1.9599
 5502TIP3    H237998   6.224   3.812  16.774  0.3870 -0.7390 -0.8051
 5503TIP3   OH237999   0.343   6.405   0.326 -0.1438  0.3500 -0.2346
 5503TIP3    H138000   0.289   6.327   0.340  1.4113 -0.8658 -0.7155
 5503TIP3    H238001   0.302   6.472   0.381 -1.3912 -0.8486  0.3740
 5504TIP3   OH238002   6.676   1.985   1.238  0.9651 -0.7237  0.6321
 5504TIP3    H138003   6.762   1.945   1.251  1.0720  0.0733  2.7375
 5504TIP3    H238004   6.655   2.026   1.322 -1.8478 -1.5785  0.4487
 5505TIP3   OH238005   5.979   4.429  15.726  0.5636 -0.3961  0.2947
 5505TIP3    H138006   5.893   4.463  15.750  0.9649  0.7158  0.1960
 5505TIP3    H238007   6.023   4.413  15.810  0.9932  0.9560  0.3360
 5506TIP3   OH238008   6.321   6.231  13.900  0.1540  0.0436  0.3250
 5506TIP3    H138009   6.239   6.251  13.945 -0.4236  0.1485 -0.7622
 5506TIP3    H238010   6.311   6.140  13.872 -0.2850  0.5624 -1.2641
 5507TIP3   OH238011   3.978   4.322  13.366 -0.2897 -0.1156 -0.6112
 5507TIP3    H138012   4.050   4.293  13.309  1.6613  1.3816  0.9624
 5507TIP3    H238013   3.960   4.411  13.337  1.2918  0.9721  1.5272
 5508TIP3   OH238014   3.928   4.042   2.625  0.6155  0.1419  0.0916
 5508TIP3    H138015   3.932   3.987   2.547  0.5963 -0.5510  0.5743
 5508TIP3    H238016   4.020   4.065   2.642  0.6207  0.2870 -0.1233
 5509TIP3   OH238017   3.468   3.352   5.685  0.1500  0.2040  0.6360
 5509TIP3    H138018   3.496   3.305   5.607 -0.3795 -2.7972  2.1102
 5509TIP3    H238019   3.549   3.386   5.722  0.7366 -0.5594  0.1036
 5510TIP3   OH238020   4.662   6.327   1.682 -0.1293  0.4379 -0.5349
 5510TIP3    H138021   4.757   6.315   1.678 -0.1968 -0.0084 -1.0690
 5510TIP3    H238022   4.646   6.372   1.765  0.4154 -0.7999  0.2694
 5511TIP3   OH238023   1.755   1.950  17.019 -0.6039  0.2464  0.4917
 5511TIP3    H138024   1.763   2.009  17.093  0.3652  1.4618 -0.5419
 5511TIP3    H238025   1.843   1.915  17.005 -0.6886  0.3313 -0.3193
 5512TIP3   OH238026   6.122   0.129   3.274  0.1443  0.1335  0.2557
 5512TIP3    H138027   6.181   0.203   3.261 -1.7062  1.5187 -0.7756
 5512TIP3    H238028   6.179   0.053   3.278  1.9624  1.3563 -0.9850
 5513TIP3   OH238029   5.225   1.033   1.138 -0.1564 -0.6805  0.5807
 5513TIP3    H138030   5.218   1.102   1.072 -0.6924 -0.2052  1.1238
 5513TIP3    H238031   5.232   0.952   1.087  0.9258 -0.2016 -0.0709
 5514TIP3   OH238032   4.022   0.932  14.098 -0.1015  0.0219 -0.0421
 5514TIP3    H138033   4.038   0.970  14.012  2.6765 -0.9083 -0.0218
 5514TIP3    H238034   4.017   1.008  14.157  2.0555  0.5674 -0.4738
 5515TIP3   OH238035   0.928   4.905   5.416  0.1481 -0.3464  0.2592
 5515TIP3    H138036   0.948   4.995   5.439 -0.9937 -0.0868  0.3058
 5515TIP3    H238037   0.959   4.896   5.326 -0.2269  0.2738  0.0587
 5516TIP3   OH238038   2.435   4.385  17.429  0.1336  0.0577  0.2538
 5516TIP3    H138039   2.411   4.317  17.366 -1.2973  0.0172  0.8234
 5516TIP3    H238040   2.411   4.349  17.514  2.5464 -0.1241  0.9559
 5517TIP3   OH238041   0.179   1.802   4.048  0.0958 -0.2564  0.2083
 5517TIP3    H138042   0.181   1.824   4.141 -1.2631 -0.7215  0.3702
 5517TIP3    H238043   0.144   1.713   4.045  1.7941 -0.9337 -0.6625
 5518TIP3   OH238044   6.688   3.786  15.763  0.0033 -0.0332  0.6836
 5518TIP3    H138045   6.596   3.810  15.748  0.4798  0.0872 -2.8071
 5518TIP3    H238046   6.732   3.870  15.777  0.1025  0.3233 -1.4588
 5519TIP3   OH238047   6.603   2.653  14.165  0.0120 -0.5094  0.2782
 5519TIP3    H138048   6.599   2.711  14.089  2.5182 -1.0341 -0.3658
 5519TIP3    H238049   6.651   2.702  14.231  0.5020 -1.1223  0.3964
 5520TIP3   OH238050   1.762   3.720   3.084  0.8566 -0.6398  0.0392
 5520TIP3    H138051   1.692   3.692   3.144  0.6018 -0.9544 -0.4018
 5520TIP3    H238052   1.725   3.708   2.997  0.6450  1.2858 -0.1784
 5521TIP3   OH238053   2.814   3.474   2.852  0.3173 -0.2438 -0.6063
 5521TIP3    H138054   2.870   3.531   2.800 -0.4923  0.9027 -0.2727
 5521TIP3    H238055   2.860   3.465   2.936 -0.3216  1.3417 -0.0451
 5522TIP3   OH238056   6.443   5.962   3.825 -0.4981  0.6010  0.1057
 5522TIP3    H138057   6.376   6.021   3.859 -1.2884 -0.4596  0.4368
 5522TIP3    H238058   6.407   5.931   3.742 -0.2153  0.3623  0.0718
 5523TIP3   OH238059   3.149   0.269  17.229 -0.0753 -0.0635  0.2743
 5523TIP3    H138060   3.099   0.193  17.257  0.0056 -0.1802  0.1076
 5523TIP3    H238061   3.090   0.343  17.242  0.2903  0.0116  1.6700
 5524TIP3   OH238062   1.896   1.151   4.528 -0.0299  0.1623 -0.0432
 5524TIP3    H138063   1.980   1.105   4.534 -1.0797 -2.4325 -2.7016
 5524TIP3    H238064   1.846   1.117   4.602  0.5795  0.1831  0.3914
 5525TIP3   OH238065   6.737   1.465  15.821  0.3635  0.1459  0.6631
 5525TIP3    H138066   6.749   1.459  15.915 -0.6439  2.3957  1.0021
 5525TIP3    H238067   6.787   1.542  15.795 -1.4168  1.0751 -0.1820
 5526TIP3   OH238068   2.270   4.712   1.015  0.7961 -0.1316 -0.3292
 5526TIP3    H138069   2.183   4.681   1.041  0.9481  1.2853  2.1805
 5526TIP3    H238070   2.270   4.705   0.919 -2.1181 -0.0631 -0.4319
 5527TIP3   OH238071   6.444   5.889  16.901  0.2057  0.1219  0.9773
 5527TIP3    H138072   6.417   5.867  16.812  1.4354 -0.1762  0.6566
 5527TIP3    H238073   6.370   5.864  16.956 -1.0773  1.4309 -0.0565
 5528TIP3   OH238074   5.013   3.903   0.582 -0.9367  0.4513 -0.6034
 5528TIP3    H138075   4.984   3.944   0.664 -0.4378  1.4743 -0.9148
 5528TIP3    H238076   4.973   3.816   0.582  1.4136 -0.7883  2.1391
 5529TIP3   OH238077   3.528   1.492   1.267  0.4673 -0.5143 -0.4808
 5529TIP3    H138078   3.489   1.578   1.276  4.2013  1.1516  3.8997
 5529TIP3    H238079   3.605   1.506   1.211  0.3365 -1.3563 -0.8925
 5530TIP3   OH238080   3.063   3.218   0.303  0.3155  0.6611 -0.8529
 5530TIP3    H138081   2.993   3.282   0.319 -0.2442 -0.4060  1.2465
 5530TIP3    H238082   3.026   3.134   0.329  2.1904 -0.0070 -0.1706
 5531TIP3   OH238083   5.458   6.755   3.815 -0.0360  0.0773 -0.2664
 5531TIP3    H138084   5.442   6.776   3.723  1.4944 -0.6519 -0.7179
 5531TIP3    H238085   5.527   6.815   3.842 -2.2398  2.1497  1.2306
 5532TIP3   OH238086   1.689   1.181  16.167  0.2105 -0.2383  0.5212
 5532TIP3    H138087   1.617   1.211  16.223  1.7166  0.2191  2.2846
 5532TIP3    H238088   1.684   1.086  16.169 -0.2682 -0.2105  0.7379
 5533TIP3   OH238089   2.420   3.986  12.185 -0.1716 -0.1538  0.0478
 5533TIP3    H138090   2.397   3.893  12.181 -0.0713 -0.2964  1.8760
 5533TIP3    H238091   2.448   4.008  12.096 -1.5207 -1.5071 -0.7622
 5534TIP3   OH238092   3.220   0.440   3.154  0.3882  0.1331 -0.5887
 5534TIP3    H138093   3.143   0.424   3.099 -1.2028  0.9773  1.2855
 5534TIP3    H238094   3.196   0.515   3.208  2.6688  0.6151 -0.1395
 5535TIP3   OH238095   1.959   2.166   3.085 -0.2543  0.3020 -0.0197
 5535TIP3    H138096   1.989   2.082   3.050 -1.0992 -0.2709  0.5997
 5535TIP3    H238097   2.007   2.232   3.034 -0.1578 -0.5388 -1.0399
 5536TIP3   OH238098   2.264   2.031   5.217 -0.7793 -0.8790  0.4548
 5536TIP3    H138099   2.357   2.028   5.239 -0.3420 -0.0690 -1.1244
 5536TIP3    H238100   2.231   2.108   5.265 -0.1860 -0.0385 -0.4418
 5537TIP3   OH238101   1.078   1.141   4.569 -0.2417  0.2425  0.2383
 5537TIP3    H138102   1.024   1.149   4.648  0.5666 -0.5076  0.8800
 5537TIP3    H238103   1.118   1.054   4.575 -0.3897  0.0533 -1.1477
 5538TIP3   OH238104   6.763   5.192  14.006 -0.0540  0.2311  0.0009
 5538TIP3    H138105   6.695   5.254  14.034 -0.3098 -0.8149  1.8272
 5538TIP3    H238106   6.829   5.197  14.074  0.9231 -0.0154 -0.9071
 5539TIP3   OH238107   2.397   1.696  12.486 -0.0716 -0.2315 -0.8364
 5539TIP3    H138108   2.475   1.645  12.465  0.4418  0.3237 -0.3034
 5539TIP3    H238109   2.415   1.784  12.453  0.7062  0.6326  1.6540
 5540TIP3   OH238110   1.746   0.607   6.494  0.7398  0.4177  0.1990
 5540TIP3    H138111   1.677   0.546   6.471  1.7251 -0.7541  0.2558
 5540TIP3    H238112   1.747   0.670   6.422  1.5705 -1.2790 -1.3385
 5541TIP3   OH238113   3.756   2.694  14.779 -0.6163 -0.3324 -0.3607
 5541TIP3    H138114   3.733   2.757  14.848 -1.7598  0.9350 -1.8235
 5541TIP3    H238115   3.696   2.620  14.794  0.4918 -0.9879  1.1487
 5542TIP3   OH238116   3.635   3.917  17.301  0.3301 -0.3096 -0.0912
 5542TIP3    H138117   3.624   3.822  17.308  1.3660 -0.3286  2.4827
 5542TIP3    H238118   3.711   3.928  17.243 -0.1573 -0.9953 -0.8827
 5543TIP3   OH238119   4.675   0.675   4.587 -0.3397  0.1721  0.2928
 5543TIP3    H138120   4.677   0.647   4.678  0.0797  0.1653  0.2833
 5543TIP3    H238121   4.711   0.601   4.538 -2.5771 -0.7369 -0.1309
 5544TIP3   OH238122   1.726   6.177   0.493 -0.1965 -0.8092  0.0284
 5544TIP3    H138123   1.687   6.256   0.530  1.2198  0.3228 -0.8214
 5544TIP3    H238124   1.659   6.109   0.507 -0.9835  0.2503  1.7780
 5545TIP3   OH238125   5.440   2.322  15.101  0.0659 -0.3066 -0.2133
 5545TIP3    H138126   5.486   2.400  15.129 -0.0094 -0.7392  1.2407
 5545TIP3    H238127   5.369   2.354  15.045  1.4363  0.4422 -1.5745
 5546TIP3   OH238128   2.077   0.345  16.532 -0.0207 -0.1886 -0.0012
 5546TIP3    H138129   2.027   0.280  16.482  1.3409 -2.7457  1.7129
 5546TIP3    H238130   2.164   0.343  16.493  0.3465 -0.2811  0.8039
 5547TIP3   OH238131   0.334   5.459   6.482 -0.0043  0.1336 -0.5681
 5547TIP3    H138132   0.362   5.368   6.479  1.9188  0.6975 -0.8668
 5547TIP3    H238133   0.297   5.470   6.569  0.8004 -0.6493 -0.1136
 5548TIP3   OH238134   2.446   0.275   2.234  0.7033  0.0941  0.3706
 5548TIP3    H138135   2.516   0.210   2.236 -0.0899 -0.8010 -0.0664
 5548TIP3    H238136   2.491   0.359   2.225  1.7007 -0.5265 -0.6815
 5549TIP3   OH238137   0.887   1.046  11.523  0.2057 -0.1095 -0.4160
 5549TIP3    H138138   0.847   1.098  11.454  0.5258  1.2089  0.3410
 5549TIP3    H238139   0.942   0.982  11.478  1.7531  1.8164 -1.3960
 5550TIP3   OH238140   2.721   5.563  17.073 -0.0205 -0.8007  0.4007
 5550TIP3    H138141   2.771   5.628  17.024  0.6075 -0.9548  0.8266
 5550TIP3    H238142   2.787   5.513  17.121 -0.5466 -1.3339  0.5801
 5551TIP3   OH238143   1.878   4.661  11.725  0.7928  0.0387 -0.1661
 5551TIP3    H138144   1.819   4.587  11.738  0.6963  0.3187  1.1409
 5551TIP3    H238145   1.914   4.648  11.638  0.3640 -1.2490 -0.1708
 5552TIP3   OH238146   2.608   6.321   2.997 -0.1711  0.1728 -0.2859
 5552TIP3    H138147   2.633   6.265   3.071 -0.4496  0.4622  0.0334
 5552TIP3    H238148   2.618   6.266   2.920 -0.0106 -0.1763 -0.0172
 5553TIP3   OH238149   5.159   5.451   0.525  0.0664 -0.1083 -0.2877
 5553TIP3    H138150   5.216   5.394   0.474  2.0594  2.9803 -1.8965
 5553TIP3    H238151   5.217   5.490   0.591 -0.0608  2.7951 -1.6948
 5554TIP3   OH238152   0.592   5.505   4.576  0.3392  0.0342  0.4103
 5554TIP3    H138153   0.644   5.425   4.570  0.4448  0.2100 -1.4736
 5554TIP3    H238154   0.539   5.493   4.655 -0.3844 -2.3392 -0.3635
 5555TIP3   OH238155   0.672   1.277   5.217 -0.9589 -0.0379  0.1083
 5555TIP3    H138156   0.653   1.291   5.309 -1.2318 -2.1835  0.4140
 5555TIP3    H238157   0.588   1.253   5.178 -0.1604 -3.4903  0.2446
 5556TIP3   OH238158   2.851   1.439   1.692  0.3364  0.3596 -0.4545
 5556TIP3    H138159   2.821   1.351   1.714 -1.1964 -0.0344 -3.5103
 5556TIP3    H238160   2.928   1.453   1.747 -0.0691 -2.3863  0.9868
 5557TIP3   OH238161   3.814   2.507   6.043  0.2457 -0.0257 -0.6629
 5557TIP3    H138162   3.888   2.549   6.087 -0.2121  0.3847 -0.2748
 5557TIP3    H238163   3.746   2.575   6.040 -0.3973 -0.6394 -0.2949
 5558TIP3   OH238164   2.468   3.003  13.616 -0.3412  0.2787 -0.2098
 5558TIP3    H138165   2.426   3.043  13.540 -2.2690  2.5520  1.8471
 5558TIP3    H238166   2.395   2.968  13.667  0.5981  0.9925  1.7119
 5559TIP3   OH238167   3.462   4.030  12.064 -0.7171 -0.9226  0.5242
 5559TIP3    H138168   3.430   3.950  12.022 -2.8528  0.5423 -0.8314
 5559TIP3    H238169   3.461   4.096  11.994  0.7135  0.3699  1.6673
 5560TIP3   OH238170   6.023   3.549  11.838  0.5053 -0.3833  0.3600
 5560TIP3    H138171   5.984   3.488  11.901 -1.4838  0.3098 -0.1240
 5560TIP3    H238172   6.048   3.494  11.764  0.5513 -0.8578  0.7220
 5561TIP3   OH238173   3.710   0.175  11.498 -0.2179 -0.0188 -0.6350
 5561TIP3    H138174   3.778   0.205  11.559 -0.2439 -0.8799 -0.1659
 5561TIP3    H238175   3.631   0.169  11.551 -0.6527  0.8910 -1.1619
 5562TIP3   OH238176   2.307   0.946   1.165 -0.1627  0.1323  0.1024
 5562TIP3    H138177   2.303   0.962   1.259  0.7842 -0.6154  0.2864
 5562TIP3    H238178   2.400   0.955   1.143 -0.2363 -0.6472 -0.5786
 5563TIP3   OH238179   1.391   4.668  12.880  0.4727 -0.3269 -0.6354
 5563TIP3    H138180   1.376   4.575  12.893  0.3284 -0.1779  0.3241
 5563TIP3    H238181   1.304   4.708  12.887  0.9148  0.3756  3.5480
 5564TIP3   OH238182   6.432   4.779  16.219 -0.2084  1.1947  0.2886
 5564TIP3    H138183   6.476   4.718  16.159  0.9494  2.0447  0.2366
 5564TIP3    H238184   6.408   4.854  16.164 -2.5087  0.4315  0.1397
 5565TIP3   OH238185   0.988   0.470  12.707 -0.0885 -0.0728 -0.2396
 5565TIP3    H138186   1.043   0.546  12.727 -0.2251  0.1122 -0.5585
 5565TIP3    H238187   1.045   0.395  12.721  0.0171  0.0832  0.1822
 5566TIP3   OH238188   2.986   1.902   6.189  0.3492 -0.3666  0.5728
 5566TIP3    H138189   2.955   1.888   6.278  0.3498  0.7630  0.7654
 5566TIP3    H238190   2.998   1.814   6.153 -0.1906 -0.8234  1.4937
 5567TIP3   OH238191   1.946   1.467  14.567  0.2445 -0.2448  0.0628
 5567TIP3    H138192   1.880   1.513  14.516 -1.2526 -0.3323  1.8047
 5567TIP3    H238193   2.016   1.531  14.579 -0.5611  0.6478  0.1026
 5568TIP3   OH238194   2.495   5.797   0.992 -0.8342  0.1825  0.4419
 5568TIP3    H138195   2.430   5.828   1.056 -0.6549  0.8011  0.3297
 5568TIP3    H238196   2.577   5.792   1.042 -0.4836  1.5806  0.0543
 5569TIP3   OH238197   3.393   1.477   1.816  0.8117 -0.0915  0.8427
 5569TIP3    H138198   3.463   1.517   1.764 -0.4599  1.2575  0.1231
 5569TIP3    H238199   3.373   1.542   1.883 -1.0576  0.4121 -0.1440
 5570TIP3   OH238200   3.886   5.455  17.511  0.3435  0.1162  0.1991
 5570TIP3    H138201   3.863   5.431  17.421  1.3121  0.8442 -0.2669
 5570TIP3    H238202   3.891   5.551  17.509  0.0505  0.1573  1.1184
 5571TIP3   OH238203   3.182   0.423  13.974  0.4804  0.1702 -0.0187
 5571TIP3    H138204   3.212   0.448  14.062 -0.4700  1.3425 -0.0059
 5571TIP3    H238205   3.246   0.359  13.944  0.0775 -1.2974  2.0786
 5572TIP3   OH238206   6.461   4.415  15.162  0.4558  0.2857 -0.4732
 5572TIP3    H138207   6.447   4.473  15.236 -3.1290 -0.7804 -0.1253
 5572TIP3    H238208   6.431   4.329  15.192 -0.0991 -0.4104 -2.7877
 5573TIP3   OH238209   3.168   2.505   4.959  0.3923  0.1417 -0.4154
 5573TIP3    H138210   3.154   2.587   4.911 -1.9708 -0.7173 -1.3260
 5573TIP3    H238211   3.189   2.532   5.048 -1.7595  1.7854 -0.3230
 5574TIP3   OH238212   0.733   4.134   3.387 -0.1433  0.0221  0.9057
 5574TIP3    H138213   0.778   4.062   3.344 -2.2937 -2.6455  2.7192
 5574TIP3    H238214   0.643   4.128   3.356 -0.0964  3.1287 -0.1761
 5575TIP3   OH238215   1.873   6.443   5.597 -0.2702 -0.2388  0.8703
 5575TIP3    H138216   1.819   6.389   5.539 -1.1859  0.0321  1.4431
 5575TIP3    H238217   1.816   6.462   5.672 -0.2962  2.2039  0.3269
 5576TIP3   OH238218   5.702   6.499   5.104 -0.1998 -0.0269  0.0409
 5576TIP3    H138219   5.780   6.449   5.083 -0.4984 -0.5310  0.1197
 5576TIP3    H238220   5.676   6.539   5.021  0.8552  1.1866  0.2599
 5577TIP3   OH238221   4.522   3.062   0.624 -0.0779  0.3915 -0.2887
 5577TIP3    H138222   4.598   3.047   0.568  0.6732  2.7085  0.0308
 5577TIP3    H238223   4.511   2.979   0.671  2.2468 -0.0199 -0.3546
 5578TIP3   OH238224   0.334   3.555  11.158 -0.4153 -0.3103  0.1240
 5578TIP3    H138225   0.426   3.573  11.136 -0.4023  2.3734  1.8889
 5578TIP3    H238226   0.289   3.558  11.074  1.1822 -2.7196 -0.9164
 5579TIP3   OH238227   6.017   0.559  10.883 -0.3614 -0.1026 -0.1018
 5579TIP3    H138228   6.076   0.530  10.952 -1.2552 -0.3512  0.5787
 5579TIP3    H238229   5.981   0.642  10.915 -0.1003  0.2380 -0.6779
 5580TIP3   OH238230   3.089   5.378  13.201  0.1251 -0.5313  0.1375
 5580TIP3    H138231   3.054   5.435  13.270 -0.6854 -1.9180  0.9146
 5580TIP3    H238232   3.011   5.340  13.160  0.6461 -1.7974  0.2763
 5581TIP3   OH238233   6.665   5.780  16.119 -0.2226 -0.1626 -0.4157
 5581TIP3    H138234   6.716   5.842  16.067  1.1686 -1.6736 -0.8993
 5581TIP3    H238235   6.693   5.796  16.209  0.0337 -0.0220 -0.5186
 5582TIP3   OH238236   4.659   2.053  12.950 -0.0874  0.2065  0.4763
 5582TIP3    H138237   4.740   2.065  12.999 -0.4302  1.0933  0.8501
 5582TIP3    H238238   4.680   1.986  12.885  1.1473  0.8893  0.1314
 5583TIP3   OH238239   6.096   5.887   4.500  0.3897  0.6528 -0.5671
 5583TIP3    H138240   6.091   5.859   4.591 -0.5519  0.0485 -0.7885
 5583TIP3    H238241   6.061   5.977   4.500 -0.2779  0.3982 -0.4293
 5584TIP3   OH238242   5.863   5.301  16.923 -0.1552  0.0984 -0.7001
 5584TIP3    H138243   5.947   5.256  16.908 -0.0718 -0.5627  1.4201
 5584TIP3    H238244   5.874   5.344  17.008 -1.8353  0.3301 -0.5668
 5585TIP3   OH238245   1.014   6.081   3.453 -0.1887  0.2295 -0.5085
 5585TIP3    H138246   1.059   6.012   3.503 -1.0516 -0.7535 -1.0558
 5585TIP3    H238247   1.078   6.152   3.449  2.0971 -1.7233 -2.7393
 5586TIP3   OH238248   3.922   2.397  12.369  0.3897  0.2426  0.4316
 5586TIP3    H138249   3.956   2.485  12.383  0.8405 -0.4158  5.1022
 5586TIP3    H238250   3.827   2.409  12.361  0.5687  1.2182 -0.3388
 5587TIP3   OH238251   3.528   0.304  12.965 -0.0507  0.7886 -0.1242
 5587TIP3    H138252   3.443   0.315  13.008  0.2569  1.7542  0.2615
 5587TIP3    H238253   3.590   0.345  13.024  0.5182  1.2447 -1.0152
 5588TIP3   OH238254   0.470   3.022   4.639 -0.3356 -0.6017  0.3672
 5588TIP3    H138255   0.508   3.108   4.654 -0.0311 -0.4873 -0.9543
 5588TIP3    H238256   0.411   3.009   4.713 -1.0411  1.1076  0.1443
 5589TIP3   OH238257   4.957   1.214   1.718 -0.4354  0.0414  0.2066
 5589TIP3    H138258   4.886   1.152   1.703 -0.4738  0.0845  0.2125
 5589TIP3    H238259   5.037   1.162   1.702 -0.4862  0.3576 -1.3006
 5590TIP3   OH238260   3.114   5.599  13.679  0.2093  0.1234 -0.3508
 5590TIP3    H138261   3.062   5.648  13.616 -0.9397  0.0692  0.5347
 5590TIP3    H238262   3.094   5.639  13.764  0.4094 -0.9116  0.2031
 5591TIP3   OH238263   0.216   6.764   2.900  0.4550 -0.3690  0.0498
 5591TIP3    H138264   0.227   6.729   2.811  1.6029 -0.1145  0.0848
 5591TIP3    H238265   0.305   6.773   2.934  0.0385 -0.2430  1.1481
 5592TIP3   OH238266   4.145   6.008  11.116 -0.0782  0.1834  0.2934
 5592TIP3    H138267   4.094   5.959  11.051 -0.4969  1.5741 -0.4770
 5592TIP3    H238268   4.083   6.023  11.188  0.2076 -0.8413  0.7708
 5593TIP3   OH238269   2.319   0.382   5.007 -0.8398 -0.0690 -0.1373
 5593TIP3    H138270   2.298   0.383   4.914 -0.0664  1.4401 -0.3291
 5593TIP3    H238271   2.248   0.332   5.047 -2.3287  1.0284 -1.2895
 5594TIP3   OH238272   4.019   2.095  13.973 -0.2281 -0.0131 -0.1773
 5594TIP3    H138273   3.976   2.149  14.039 -0.8389 -0.3447 -0.2900
 5594TIP3    H238274   4.051   2.019  14.022  0.2677  0.2533 -0.0854
 5595TIP3   OH238275   4.422   4.988  13.585 -0.1521 -0.0092  0.4146
 5595TIP3    H138276   4.404   4.898  13.611 -1.6286  0.1366 -0.0024
 5595TIP3    H238277   4.373   5.041  13.648 -0.1952  0.4710 -0.0190
 5596TIP3   OH238278   0.134   4.236  14.011  0.7659 -1.0652 -0.0504
 5596TIP3    H138279   0.081   4.283  13.948  0.3199 -1.0325  0.3416
 5596TIP3    H238280   0.080   4.233  14.090  1.0188 -1.7283  0.1070
 5597TIP3   OH238281   0.858   4.152  10.724 -0.0210  0.7865  0.1994
 5597TIP3    H138282   0.946   4.185  10.708 -0.0278  0.7648  0.1177
 5597TIP3    H238283   0.838   4.097  10.649  0.2268  0.0960  0.6300
 5598TIP3   OH238284   2.211   6.488   2.007  0.3650  0.2837  0.9629
 5598TIP3    H138285   2.155   6.528   2.072  0.6373  0.2069  1.2463
 5598TIP3    H238286   2.286   6.454   2.056  1.0071  1.0046  0.5182
 5599TIP3   OH238287   2.889   3.399  14.482 -0.2024 -0.0304 -0.2312
 5599TIP3    H138288   2.846   3.460  14.542 -0.5335 -1.6727  1.3126
 5599TIP3    H238289   2.914   3.325  14.538  0.4523 -1.1735 -1.9534
 5600TIP3   OH238290   0.162   0.507  10.766  0.0930  0.0305  0.3911
 5600TIP3    H138291   0.158   0.480  10.857  0.9899  0.9470  0.7137
 5600TIP3    H238292   0.250   0.543  10.755 -0.3820  0.9584 -0.5357
 5601TIP3   OH238293   1.327   6.475   0.523 -0.6991 -0.0465 -0.1572
 5601TIP3    H138294   1.291   6.386   0.524  0.2734 -0.5786  3.7684
 5601TIP3    H238295   1.419   6.462   0.498 -0.5024 -0.1837  0.6300
 5602TIP3   OH238296   6.179   2.280   2.754 -0.3213 -0.1823 -0.2379
 5602TIP3    H138297   6.158   2.370   2.727  2.6779  0.4626 -0.7539
 5602TIP3    H238298   6.265   2.286   2.795 -1.0662 -2.5065  1.9338
 5603TIP3   OH238299   0.765   5.250   2.750  0.7164  0.1019  0.6182
 5603TIP3    H138300   0.766   5.285   2.661  3.4699 -1.4570 -0.0705
 5603TIP3    H238301   0.854   5.217   2.764 -0.0814 -1.1672  3.3655
 5604TIP3   OH238302   1.885   0.732   4.106  0.0795  0.0723 -0.0403
 5604TIP3    H138303   1.903   0.780   4.026  1.6755 -0.1571  0.1378
 5604TIP3    H238304   1.837   0.793   4.162 -1.0536  0.2279 -1.1446
 5605TIP3   OH238305   4.965   6.541  12.981  0.7751  0.2943  0.4075
 5605TIP3    H138306   4.995   6.628  13.007  0.6484  0.2982  0.5424
 5605TIP3    H238307   4.882   6.557  12.936 -0.9635  0.0124  3.2477
 5606TIP3   OH238308   6.748   4.998  16.094  0.7949  0.0419 -0.2380
 5606TIP3    H138309   6.741   4.908  16.062  1.4141  0.0607 -0.4218
 5606TIP3    H238310   6.675   5.006  16.156  0.3885 -0.4039 -0.6508
 5607TIP3   OH238311   3.597   1.256  11.280 -0.3141 -0.7952  0.8131
 5607TIP3    H138312   3.644   1.340  11.286 -0.7136 -0.4089 -0.9227
 5607TIP3    H238313   3.598   1.222  11.369 -0.3836  1.1910  1.6319
 5608TIP3   OH238314   1.398   0.724   3.808 -0.7136 -0.2144 -0.2735
 5608TIP3    H138315   1.436   0.690   3.888 -1.0400  0.5757  0.2354
 5608TIP3    H238316   1.394   0.649   3.749  0.0888 -0.6711  0.2330
 5609TIP3   OH238317   4.289   5.062  11.500 -0.4475 -0.3517  0.0847
 5609TIP3    H138318   4.322   5.110  11.424  0.0870  2.1661  1.7960
 5609TIP3    H238319   4.361   5.064  11.563 -1.2422 -1.4487  1.0774
 5610TIP3   OH238320   1.311   5.384  14.382  0.4079  0.5301 -0.5755
 5610TIP3    H138321   1.250   5.332  14.435 -1.3055  1.2950 -1.7188
 5610TIP3    H238322   1.351   5.444  14.445  1.4796 -1.2555  0.5448
 5611TIP3   OH238323   6.182   4.628  16.573  0.3983 -0.1799 -0.4690
 5611TIP3    H138324   6.147   4.606  16.659 -0.3769 -1.7286 -1.1294
 5611TIP3    H238325   6.106   4.624  16.515  1.2447 -1.3561 -1.5645
 5612TIP3   OH238326   5.198   2.435   5.598  0.5705  0.1830 -0.4363
 5612TIP3    H138327   5.187   2.529   5.613 -0.0218  0.0660 -0.0968
 5612TIP3    H238328   5.262   2.408   5.663  0.9351  0.3983 -0.7028
 5613TIP3   OH238329   1.031   1.185  16.512 -0.1931 -1.3133 -0.5072
 5613TIP3    H138330   1.108   1.189  16.568  0.3628 -0.0806 -1.3068
 5613TIP3    H238331   0.960   1.157  16.571  0.2446  0.4520  0.9677
 5614TIP3   OH238332   5.955   5.453  13.756  0.3758  0.1695  0.1265
 5614TIP3    H138333   5.902   5.440  13.835  0.6609  1.7242  0.6038
 5614TIP3    H238334   5.891   5.462  13.686  0.0431  0.5696  0.4750
 5615TIP3   OH238335   5.205   3.234   6.474  0.1433  0.3442  0.5083
 5615TIP3    H138336   5.159   3.171   6.419  0.0845  1.9341 -1.3682
 5615TIP3    H238337   5.144   3.255   6.544 -0.7304  0.0088 -0.1345
 5616TIP3   OH238338   4.590   3.397   2.098  0.6290  0.6287 -0.1455
 5616TIP3    H138339   4.643   3.328   2.139  0.1303 -0.0909 -0.6958
 5616TIP3    H238340   4.511   3.353   2.068  0.3944  1.3976 -0.7034
 5617TIP3   OH238341   3.986   6.269  13.551  0.2475  0.0184 -0.3130
 5617TIP3    H138342   4.061   6.230  13.504  0.1320  1.3385 -1.6669
 5617TIP3    H238343   3.910   6.221  13.518  0.0952  1.3343 -2.0442
 5618TIP3   OH238344   4.976   2.538   5.021  0.1148 -0.2747  0.5926
 5618TIP3    H138345   5.018   2.592   4.954  0.6206 -0.3338  0.8544
 5618TIP3    H238346   4.970   2.451   4.982 -2.2308  0.2790 -0.4913
 5619TIP3   OH238347   1.146   5.935   3.769 -0.1190 -0.0485  0.2847
 5619TIP3    H138348   1.086   5.902   3.702 -0.2130  1.6632 -0.5269
 5619TIP3    H238349   1.181   5.856   3.811 -2.9918 -1.1479  0.9004
 5620TIP3   OH238350   2.796   1.086  12.985  0.6403 -0.2833 -0.5404
 5620TIP3    H138351   2.858   1.078  13.057  0.6903  1.3287 -0.3660
 5620TIP3    H238352   2.711   1.067  13.023  0.2280  3.3711  0.7843
 5621TIP3   OH238353   5.613   6.453  15.085  0.3135  0.5817  0.3691
 5621TIP3    H138354   5.584   6.389  15.021  0.1342 -1.6977  2.5919
 5621TIP3    H238355   5.705   6.431  15.101 -0.0011  0.2486  1.8320
 5622TIP3   OH238356   3.669   1.075  11.090 -0.2979  0.3556 -0.1259
 5622TIP3    H138357   3.646   1.129  11.015 -0.2232  0.4484 -0.0823
 5622TIP3    H238358   3.615   1.110  11.162  0.4387  1.0039  0.1402
 5623TIP3   OH238359   4.143   5.611  13.347 -0.4165 -0.0616 -0.0497
 5623TIP3    H138360   4.087   5.533  13.354  1.0695 -1.0890  1.0376
 5623TIP3    H238361   4.150   5.643  13.437  0.1002  0.5231 -0.2950
 5624TIP3   OH238362   1.819   5.253  12.823 -0.0182 -0.1133 -0.0305
 5624TIP3    H138363   1.845   5.179  12.769  0.5435 -0.0127  0.0991
 5624TIP3    H238364   1.901   5.291  12.854 -0.3048  0.4342  0.0786
 5625TIP3   OH238365   5.524   5.918   3.063  0.0522  0.5155 -0.0433
 5625TIP3    H138366   5.466   5.899   2.990 -0.0078 -2.3479  0.6361
 5625TIP3    H238367   5.466   5.942   3.135 -0.1090  0.1180 -0.0422
 5626TIP3   OH238368   3.134   3.080   3.679 -0.0372  0.1346  0.1816
 5626TIP3    H138369   3.146   2.985   3.681 -0.4429  0.0873  0.6137
 5626TIP3    H238370   3.220   3.114   3.654 -0.0394 -0.3681 -0.5489
 5627TIP3   OH238371   2.579   5.097   5.200  0.3857 -0.1571  0.3574
 5627TIP3    H138372   2.539   5.182   5.216  1.7591  0.5244  0.3347
 5627TIP3    H238373   2.505   5.037   5.188 -0.6453  1.4182 -1.7665
 5628TIP3   OH238374   3.671   1.407   4.563 -0.5448 -0.2266 -0.3596
 5628TIP3    H138375   3.759   1.389   4.594 -0.5263  0.7127  0.1820
 5628TIP3    H238376   3.617   1.409   4.643 -0.3535  3.0750 -0.1774
 5629TIP3   OH238377   2.626   5.678   3.586 -0.2621 -0.0683 -0.3319
 5629TIP3    H138378   2.711   5.638   3.567 -0.4306 -0.6285  0.0665
 5629TIP3    H238379   2.584   5.617   3.646 -1.4451 -0.4254 -1.4756
 5630TIP3   OH238380   1.690   1.993  14.089 -0.4627  0.2512  0.1717
 5630TIP3    H138381   1.747   2.035  14.153 -0.9868 -0.3835  1.0800
 5630TIP3    H238382   1.616   2.052  14.081 -0.9238 -0.1965  1.0073
 5631TIP3   OH238383   5.479   3.615   6.755 -0.4456 -0.4090 -0.1909
 5631TIP3    H138384   5.530   3.685   6.796 -0.5389  0.0657 -0.8630
 5631TIP3    H238385   5.484   3.542   6.817  0.3884 -0.1039  0.1197
 5632TIP3   OH238386   6.477   3.978   0.488 -0.1401 -0.2861  0.2594
 5632TIP3    H138387   6.498   4.009   0.400  1.7511  1.6124  1.2748
 5632TIP3    H238388   6.512   3.889   0.491  1.3056  0.2197 -0.4331
 5633TIP3   OH238389   6.564   3.909  12.361  0.1260 -0.9546  0.1820
 5633TIP3    H138390   6.645   3.960  12.362 -0.7482  0.4961  1.5636
 5633TIP3    H238391   6.589   3.826  12.320  1.3324  0.9783 -3.4792
 5634TIP3   OH238392   5.445   6.069  13.056  0.0720 -0.1138  0.6102
 5634TIP3    H138393   5.382   6.027  13.115 -2.4110  1.6391 -0.6370
 5634TIP3    H238394   5.461   6.155  13.095  1.6863 -0.4592  0.8206
 5635TIP3   OH238395   4.728   1.071   2.534  0.2368  0.2591  0.7046
 5635TIP3    H138396   4.793   1.125   2.579  0.3597  1.8251 -1.2120
 5635TIP3    H238397   4.779   1.015   2.477 -0.0189  1.4956 -0.8080
 5636TIP3   OH238398   1.503   5.341  11.721  0.5596  0.0252  0.3198
 5636TIP3    H138399   1.557   5.379  11.652  0.0790 -0.6199 -0.4249
 5636TIP3    H238400   1.531   5.249  11.727  0.3195 -0.0301  0.6965
 5637TIP3   OH238401   4.642   4.151   0.730  0.8613 -0.4771 -0.0392
 5637TIP3    H138402   4.729   4.116   0.747  1.0418 -0.7269 -1.3989
 5637TIP3    H238403   4.615   4.111   0.648  0.8976  2.1774 -1.4620
 5638TIP3   OH238404   3.414   5.971   1.952 -0.2099  0.0393  0.0064
 5638TIP3    H138405   3.400   6.055   1.908  3.6320  0.9808  0.2023
 5638TIP3    H238406   3.387   5.906   1.887 -1.5435  1.3958 -0.8686
 5639TIP3   OH238407   5.347   4.672   5.083 -0.0641 -0.0732  0.4087
 5639TIP3    H138408   5.252   4.658   5.082 -0.0970 -0.1080  2.1537
 5639TIP3    H238409   5.373   4.662   4.991 -1.6875 -0.4196 -0.0478
 5640TIP3   OH238410   0.246   0.911  11.934 -0.0545  0.3676 -0.7999
 5640TIP3    H138411   0.211   0.910  12.023  0.5540 -0.0278 -0.5583
 5640TIP3    H238412   0.174   0.944  11.881 -0.8209 -0.5037 -0.3308
 5641TIP3   OH238413   0.684   3.699   4.452  0.5377 -0.7658  0.1263
 5641TIP3    H138414   0.667   3.689   4.358 -1.1197  1.5771  0.0865
 5641TIP3    H238415   0.774   3.729   4.457  0.4839 -0.4128 -0.7886
 5642TIP3   OH238416   0.254   1.278   2.692  0.1039  0.7663  0.6706
 5642TIP3    H138417   0.200   1.275   2.614  0.8144  1.1501  0.1494
 5642TIP3    H238418   0.199   1.241   2.761 -0.2979 -0.1696 -0.1370
 5643TIP3   OH238419   0.275   4.633  15.827 -0.4986  0.1482  0.2150
 5643TIP3    H138420   0.239   4.546  15.809  0.7815 -0.4933  0.6215
 5643TIP3    H238421   0.257   4.649  15.919  1.6481 -0.9239  0.8915
 5644TIP3   OH238422   2.267   0.859   3.162  0.4009 -0.1227  0.3713
 5644TIP3    H138423   2.352   0.857   3.119 -0.0649  0.5630 -0.6384
 5644TIP3    H238424   2.205   0.826   3.096 -0.2185  0.1198  0.8138
 5645TIP3   OH238425   1.726   6.444  11.052 -0.1953  0.2888 -0.3418
 5645TIP3    H138426   1.716   6.466  10.960  1.0431 -0.9315 -0.8042
 5645TIP3    H238427   1.816   6.412  11.060 -0.0737  0.9284  1.4182
 5646TIP3   OH238428   5.662   3.331   3.694 -0.2855 -0.5571  0.4867
 5646TIP3    H138429   5.579   3.312   3.650  0.4639 -2.1123 -0.3280
 5646TIP3    H238430   5.721   3.356   3.623 -0.4293  2.2275  1.2210
 5647TIP3   OH238431   0.336   5.439  13.328  0.1889 -0.3236  0.4085
 5647TIP3    H138432   0.429   5.433  13.305  0.1856 -0.9211  0.5164
 5647TIP3    H238433   0.333   5.505  13.397  0.4484  0.1399 -0.0232
 5648TIP3   OH238434   5.999   2.356  16.346  0.7478 -0.2938  0.4255
 5648TIP3    H138435   5.941   2.320  16.413  0.6603  0.1097  0.5753
 5648TIP3    H238436   6.025   2.281  16.293 -0.8554 -0.3267 -0.3606
 5649TIP3   OH238437   4.553   3.456   0.231  0.4278 -0.2578 -0.1394
 5649TIP3    H138438   4.647   3.438   0.242  0.3500  0.1553  1.5718
 5649TIP3    H238439   4.517   3.446   0.319 -0.5966  2.5131 -0.1280
 5650TIP3   OH238440   4.810   2.470  17.208  0.5684  0.5860  0.2539
 5650TIP3    H138441   4.850   2.409  17.270 -0.4800  0.7279  1.1151
 5650TIP3    H238442   4.881   2.496  17.150  1.3847 -0.2369  0.8552
 5651TIP3   OH238443   2.887   5.594  13.272 -0.4266 -0.3307 -0.2097
 5651TIP3    H138444   2.886   5.507  13.232  0.9125 -1.1720  1.4516
 5651TIP3    H238445   2.970   5.597  13.321  0.1121  2.3044 -1.1001
 5652TIP3   OH238446   5.096   3.417   1.619  0.1367 -0.6584 -0.2567
 5652TIP3    H138447   5.065   3.379   1.701  0.0553  0.3722  0.2078
 5652TIP3    H238448   5.022   3.410   1.559 -1.6304  3.0267  1.2392
 5653TIP3   OH238449   1.410   0.533   2.851  0.5168 -0.5477 -0.0876
 5653TIP3    H138450   1.461   0.578   2.919 -0.6325  1.2980 -0.3522
 5653TIP3    H238451   1.475   0.486   2.799  1.4821 -1.6180  1.9611
 5654TIP3   OH238452   6.190   3.893   6.276 -0.0663  0.5598 -0.1923
 5654TIP3    H138453   6.247   3.899   6.199  0.8061  1.7167  0.5057
 5654TIP3    H238454   6.237   3.941   6.344 -2.0642  1.9342  0.3052
 5655TIP3   OH238455   4.903   3.423  12.818  0.2073  0.0074 -0.0964
 5655TIP3    H138456   4.826   3.462  12.777 -0.0695 -1.1312 -0.7171
 5655TIP3    H238457   4.969   3.492  12.817 -0.9330  1.1569  0.8614
 5656TIP3   OH238458   1.225   0.770   0.918  0.4835 -0.9961 -0.0393
 5656TIP3    H138459   1.158   0.820   0.871  1.7511 -1.1809 -2.1880
 5656TIP3    H238460   1.217   0.799   1.009  0.0437  1.8706 -0.8753
 5657TIP3   OH238461   3.306   5.255  17.111 -0.1090  0.0430  0.1639
 5657TIP3    H138462   3.356   5.174  17.116  0.7164  0.6053  2.2904
 5657TIP3    H238463   3.250   5.253  17.190  0.5123  1.8766  0.7033
 5658TIP3   OH238464   1.175   0.857   4.573 -0.8332 -0.5562  0.4608
 5658TIP3    H138465   1.083   0.836   4.587 -0.7459 -0.2981  1.4875
 5658TIP3    H238466   1.221   0.809   4.642 -0.2892  0.0786  0.5491
 5659TIP3   OH238467   0.834   0.041  11.657  0.2532 -0.7970 -0.3344
 5659TIP3    H138468   0.757   0.096  11.644  1.5802  1.0545 -0.8562
 5659TIP3    H238469   0.880   0.082  11.731  1.3991 -1.0378 -0.8908
 5660TIP3   OH238470   3.159   0.996  12.182 -0.5513  0.2797  0.1417
 5660TIP3    H138471   3.203   1.081  12.181  0.5347 -0.2541 -0.9487
 5660TIP3    H238472   3.229   0.933  12.167 -1.5859 -0.6707 -0.8919
 5661TIP3   OH238473   2.427   6.439  15.542 -0.6486  0.4812 -0.5871
 5661TIP3    H138474   2.486   6.433  15.466  0.9059  0.7477  0.5575
 5661TIP3    H238475   2.474   6.495  15.604 -2.8113  2.0431 -0.2359
 5662TIP3   OH238476   1.760   2.929  12.975  0.0384  0.6034 -0.0964
 5662TIP3    H138477   1.710   2.913  12.895 -0.2380 -0.5066  0.2684
 5662TIP3    H238478   1.788   3.020  12.969  0.4362  0.3971 -1.6784
 5663TIP3   OH238479   5.833   2.998  15.798 -0.4459  0.0740  0.5505
 5663TIP3    H138480   5.856   3.075  15.748 -0.1113  0.6552  1.5603
 5663TIP3    H238481   5.741   3.009  15.820 -1.2497 -1.2764 -1.7869
 5664TIP3   OH238482   4.848   2.649   1.533  0.0165  0.9861  0.4465
 5664TIP3    H138483   4.765   2.694   1.516 -1.5312 -1.6899  0.2818
 5664TIP3    H238484   4.882   2.627   1.447 -1.0720 -1.0929  0.4728
 5665TIP3   OH238485   2.264   2.050  16.482  0.2406  0.0918  0.1691
 5665TIP3    H138486   2.273   2.023  16.573 -0.2591  0.3449  0.2989
 5665TIP3    H238487   2.181   2.098  16.479 -0.0553 -0.4367 -0.5480
 5666TIP3   OH238488   6.369   1.281   0.228  0.1690 -0.1589 -0.0404
 5666TIP3    H138489   6.323   1.351   0.274 -2.0999 -0.4018 -1.7520
 5666TIP3    H238490   6.356   1.301   0.136  3.3056 -0.4928 -0.6717
 5667TIP3   OH238491   5.385   3.665   4.632 -0.3317 -1.1173  0.2744
 5667TIP3    H138492   5.414   3.630   4.716  0.1441 -0.6780  0.3053
 5667TIP3    H238493   5.290   3.665   4.636 -0.4820  2.9488  2.6443
 5668TIP3   OH238494   4.792   0.023  13.218 -0.4262 -0.2844 -0.4138
 5668TIP3    H138495   4.700   0.047  13.220 -0.0509  1.2579 -0.8211
 5668TIP3    H238496   4.805  -0.028  13.298 -1.5112 -0.0949 -0.0994
 5669TIP3   OH238497   1.832   0.441   3.412  0.0827  0.0934  0.3143
 5669TIP3    H138498   1.796   0.392   3.339 -2.3347  2.3364 -0.1506
 5669TIP3    H238499   1.783   0.409   3.488 -1.1537  1.3412  0.0823
 5670TIP3   OH238500   2.073   2.527   2.480  0.5899  0.2077 -0.3335
 5670TIP3    H138501   2.142   2.578   2.437  0.4866 -0.6591 -1.5564
 5670TIP3    H238502   2.036   2.587   2.545  1.8166  1.0155 -0.3509
 5671TIP3   OH238503   2.833   0.463   5.926  0.1913  0.4243  0.0317
 5671TIP3    H138504   2.823   0.369   5.907  1.2427  0.2644  0.1939
 5671TIP3    H238505   2.927   0.473   5.945 -0.0461  1.3797  0.7280
 5672TIP3   OH238506   1.511   3.084   1.238 -0.1716 -0.3388 -0.0551
 5672TIP3    H138507   1.433   3.130   1.270 -0.0341 -0.6247  0.7285
 5672TIP3    H238508   1.529   3.019   1.306 -0.0212 -1.1618 -0.8551
 5673TIP3   OH238509   2.172   0.493  14.136 -0.5608 -0.2576  0.0931
 5673TIP3    H138510   2.166   0.506  14.231 -0.3834 -0.7537  0.1749
 5673TIP3    H238511   2.156   0.580  14.099 -1.1602 -0.1655  0.5567
 5674TIP3   OH238512   4.893   0.157   0.582 -0.8127 -0.0841  0.1093
 5674TIP3    H138513   4.933   0.225   0.637  1.7366 -1.8965  0.6878
 5674TIP3    H238514   4.807   0.141   0.621 -0.5278  1.1859  1.3467
 5675TIP3   OH238515   4.569   2.540  17.322  0.0964  0.8125  0.1173
 5675TIP3    H138516   4.607   2.541  17.409  1.0353  0.5895 -0.2819
 5675TIP3    H238517   4.630   2.488  17.269  0.0043  1.6759 -0.8741
 5676TIP3   OH238518   6.533   3.098   0.395 -0.0853  0.6236 -0.5493
 5676TIP3    H138519   6.614   3.110   0.345 -0.6958 -0.4501 -1.8519
 5676TIP3    H238520   6.501   3.187   0.410  1.4409  1.0682  0.1876
 5677TIP3   OH238521   3.179   4.381  12.369 -0.4873 -0.2455  0.4605
 5677TIP3    H138522   3.187   4.443  12.441 -0.0239 -1.0132  1.0823
 5677TIP3    H238523   3.141   4.303  12.408  3.4813 -2.1993  0.8619
 5678TIP3   OH238524   6.420   6.131   0.586 -0.1260  0.3469  0.3865
 5678TIP3    H138525   6.474   6.114   0.510 -0.1808  0.2034  0.3806
 5678TIP3    H238526   6.331   6.140   0.552 -0.2557 -0.4126  0.5167
 5679TIP3   OH238527   5.820   2.228  11.364 -0.0387  0.0156 -0.5681
 5679TIP3    H138528   5.752   2.222  11.297  1.3215 -0.5858 -1.9761
 5679TIP3    H238529   5.890   2.172  11.331  1.1443  0.6269  0.8114
 5680TIP3   OH238530   2.748   3.152  12.920  0.0367  0.0995 -0.2122
 5680TIP3    H138531   2.696   3.200  12.984 -0.3378  1.3039 -1.3898
 5680TIP3    H238532   2.814   3.215  12.890  1.0174 -0.8342 -0.1041
 5681TIP3   OH238533   4.211   0.116   0.532  0.0348  0.5123  0.2392
 5681TIP3    H138534   4.218   0.211   0.542  1.2674  0.2857  1.9486
 5681TIP3    H238535   4.278   0.081   0.590 -0.7598 -1.4336  0.0468
 5682TIP3   OH238536   3.519   4.402   6.485 -0.1335 -0.4589 -0.0008
 5682TIP3    H138537   3.429   4.435   6.484  0.1193  0.2445 -0.0060
 5682TIP3    H238538   3.555   4.431   6.569  0.5712  0.6215 -0.6510
 5683TIP3   OH238539   6.527   0.408   2.571 -0.1701 -0.4532  0.2434
 5683TIP3    H138540   6.592   0.478   2.575 -1.5481  0.9109 -0.2798
 5683TIP3    H238541   6.578   0.330   2.551  1.2461  0.6886 -0.9197
 5684TIP3   OH238542   4.079   6.261  14.962 -0.4885  0.1179  0.5977
 5684TIP3    H138543   4.100   6.338  14.910  0.5360 -1.8051 -2.0630
 5684TIP3    H238544   3.984   6.264  14.972 -0.3488  2.4796  1.9912
 5685TIP3   OH238545   6.263   4.932   2.944  0.4831  0.4605  0.2911
 5685TIP3    H138546   6.353   4.948   2.913  0.6358  1.2393  1.1079
 5685TIP3    H238547   6.236   5.014   2.983 -1.0164  0.5801 -0.9089
 5686TIP3   OH238548   3.058   0.433   0.659  0.2927  0.0281  0.0771
 5686TIP3    H138549   3.000   0.485   0.603  0.8439 -0.4739 -0.9929
 5686TIP3    H238550   2.999   0.394   0.724 -0.4521  0.1719 -0.4897
 5687TIP3   OH238551   5.351   6.727  11.754 -0.2546  0.3264 -0.2472
 5687TIP3    H138552   5.391   6.727  11.841 -0.9626 -0.6155  0.1018
 5687TIP3    H238553   5.425   6.735  11.694  0.2614  0.8094  0.4255
 5688TIP3   OH238554   6.064   1.929  16.462  0.1531 -0.2849  0.1538
 5688TIP3    H138555   6.112   1.858  16.419 -1.0167 -0.3253 -1.1254
 5688TIP3    H238556   6.113   1.945  16.543  3.3279  0.7902 -1.8068
 5689TIP3   OH238557   4.113   5.629   5.945 -0.6554 -0.3463  0.4558
 5689TIP3    H138558   4.188   5.670   5.989 -1.2819 -0.5121  1.7297
 5689TIP3    H238559   4.151   5.554   5.899 -0.0728 -0.6819  1.4364
 5690TIP3   OH238560   0.480   5.306   5.296  0.5009 -0.1173 -0.0598
 5690TIP3    H138561   0.556   5.281   5.350 -1.3796  0.6349  3.2580
 5690TIP3    H238562   0.487   5.252   5.218  3.0541 -1.9629  1.2886
 5691TIP3   OH238563   6.181   5.221   1.793  0.0859 -0.4174 -0.2063
 5691TIP3    H138564   6.180   5.134   1.832  2.1662 -0.0381  0.8717
 5691TIP3    H238565   6.257   5.264   1.833 -1.5590  2.3354  0.2820
 5692TIP3   OH238566   2.744   4.121  17.302  0.2857  0.9685 -0.3405
 5692TIP3    H138567   2.723   4.075  17.384  2.5498  3.0664  1.5693
 5692TIP3    H238568   2.659   4.146  17.266 -0.8060 -0.6936  0.9193
 5693TIP3   OH238569   4.429   0.644   3.145 -0.3369 -0.1360  0.2447
 5693TIP3    H138570   4.398   0.707   3.080  0.7010  0.6994  0.5374
 5693TIP3    H238571   4.515   0.676   3.171 -0.5080 -0.7445  1.6606
 5694TIP3   OH238572   5.640   5.777  11.358  0.4212  0.2751  0.2333
 5694TIP3    H138573   5.632   5.776  11.453  0.5039 -0.4828  0.2410
 5694TIP3    H238574   5.722   5.823  11.341  0.0090  1.1129  0.4927
 5695TIP3   OH238575   2.999   3.277  11.018  0.4258 -0.2784  0.8420
 5695TIP3    H138576   2.917   3.226  11.016  1.1045 -1.3929  0.0602
 5695TIP3    H238577   3.068   3.210  11.018  1.3451  0.6398  1.8651
 5696TIP3   OH238578   4.290   1.107  12.236 -0.3563  0.6663 -0.2384
 5696TIP3    H138579   4.242   1.123  12.155 -0.6103 -0.0182 -0.2254
 5696TIP3    H238580   4.370   1.063  12.209 -0.6839 -0.0388 -0.0732
 5697TIP3   OH238581   0.966   4.403   3.665  0.7690  0.3269  0.1111
 5697TIP3    H138582   1.031   4.468   3.640  0.1547  1.0152  0.2526
 5697TIP3    H238583   1.016   4.328   3.697  1.4947  0.5783 -0.4276
 5698TIP3   OH238584   2.701   5.860  15.992 -0.2708 -0.7644 -0.2448
 5698TIP3    H138585   2.615   5.819  15.996 -1.7987  2.1897 -0.7912
 5698TIP3    H238586   2.716   5.876  15.899  0.3271 -0.1709 -0.0537
 5699TIP3   OH238587   5.077   6.068  17.218  0.3821  0.0178 -0.2305
 5699TIP3    H138588   5.042   6.070  17.307  0.3829 -3.4186 -0.0487
 5699TIP3    H238589   5.046   6.150  17.179  0.1172  1.4953  2.7751
 5700TIP3   OH238590   3.199   4.740  15.322  0.0728  0.1577 -0.8434
 5700TIP3    H138591   3.147   4.694  15.256  0.3784 -1.1814 -0.1636
 5700TIP3    H238592   3.158   4.827  15.327 -2.2376 -0.8966 -0.1800
 5701TIP3   OH238593   5.208   3.599  14.484 -0.0915 -0.7485  0.0063
 5701TIP3    H138594   5.168   3.566  14.565 -0.8922  1.6603  0.6761
 5701TIP3    H238595   5.152   3.563  14.415 -1.4105 -0.2094  0.7429
 5702TIP3   OH238596   6.389   1.147   3.640  0.3928 -0.1530  0.0274
 5702TIP3    H138597   6.450   1.099   3.583 -1.0790 -0.4256 -1.4171
 5702TIP3    H238598   6.347   1.210   3.581 -0.6003  0.1365  1.0159
 5703TIP3   OH238599   6.362   2.681   2.150  0.2585  0.5295 -0.2162
 5703TIP3    H138600   6.438   2.738   2.161 -0.5299  1.3046  1.5553
 5703TIP3    H238601   6.400   2.594   2.138  1.4510  1.2282 -1.8721
 5704TIP3   OH238602   3.536   3.304  13.302 -0.2270  1.0292  0.7932
 5704TIP3    H138603   3.594   3.379  13.290  1.4419 -0.4835 -1.3334
 5704TIP3    H238604   3.463   3.321  13.243  0.1379  1.0068  0.3314
 5705TIP3   OH238605   0.650   5.568   1.586  0.7824  0.0344 -0.6114
 5705TIP3    H138606   0.557   5.548   1.581  1.0438 -1.3295 -0.2718
 5705TIP3    H238607   0.688   5.526   1.509  1.3258 -0.7459  0.0590
 5706TIP3   OH238608   6.617   1.700   4.943  0.2883  0.1949 -0.2567
 5706TIP3    H138609   6.550   1.663   4.885  0.0017  0.9353 -0.4083
 5706TIP3    H238610   6.602   1.656   5.027 -1.7380  1.7850  0.3018
 5707TIP3   OH238611   2.467   3.547   0.294 -0.3008  0.3966 -0.8622
 5707TIP3    H138612   2.372   3.550   0.302 -0.2364  0.6271 -0.1167
 5707TIP3    H238613   2.491   3.626   0.247 -0.4705  0.3869 -0.9633
 5708TIP3   OH238614   6.737   5.877   4.505 -0.0923 -0.0932  0.2618
 5708TIP3    H138615   6.814   5.910   4.551  0.5741  0.9761 -1.4783
 5708TIP3    H238616   6.664   5.893   4.564  0.0549  5.2219 -0.4662
 5709TIP3   OH238617   3.709   1.706  15.921  0.0854 -0.2213  0.3087
 5709TIP3    H138618   3.660   1.764  15.980  2.4734  1.6631  0.5974
 5709TIP3    H238619   3.735   1.632  15.977 -0.4627 -0.0974  0.7372
 5710TIP3   OH238620   3.981   5.224  14.084 -0.0360 -0.5418  0.3222
 5710TIP3    H138621   3.933   5.164  14.141 -3.6792  0.9133 -0.8797
 5710TIP3    H238622   3.913   5.266  14.032  2.5672  2.4985 -0.9564
 5711TIP3   OH238623   5.696   2.006  17.502 -0.2510  0.0493 -0.1785
 5711TIP3    H138624   5.781   1.982  17.540 -0.3039 -0.3708 -0.3196
 5711TIP3    H238625   5.650   1.923  17.491 -0.5030  0.2306 -0.5292
 5712TIP3   OH238626   6.403   5.069  16.050 -0.2110 -0.1004  0.7345
 5712TIP3    H138627   6.362   5.020  15.979  0.0286 -1.0325  1.2130
 5712TIP3    H238628   6.368   5.157  16.042  0.4799  0.0432 -1.0552
 5713TIP3   OH238629   1.027   1.616   4.475  0.0735  0.3531 -1.1452
 5713TIP3    H138630   1.015   1.710   4.462  1.1512  0.9435  1.5277
 5713TIP3    H238631   1.017   1.603   4.569 -0.6610 -2.3459 -1.5212
 5714TIP3   OH238632   5.153   2.552   1.598 -0.3689 -1.0237 -0.2048
 5714TIP3    H138633   5.092   2.603   1.545  0.8523 -0.6934 -1.3392
 5714TIP3    H238634   5.097   2.496   1.652 -1.7339  0.7875  0.3658
 5715TIP3   OH238635   5.344   0.010   4.932  0.0357  0.2366 -0.2243
 5715TIP3    H138636   5.306  -0.076   4.948 -1.7865  1.3290  1.9127
 5715TIP3    H238637   5.389   0.032   5.014 -0.5966  1.8074 -0.2645
 5716TIP3   OH238638   6.319   2.018   3.693 -0.5899 -0.0098  0.8036
 5716TIP3    H138639   6.411   1.999   3.712 -0.1208 -0.7846 -1.9179
 5716TIP3    H238640   6.271   1.971   3.761  0.9974  0.4432  2.3119
 5717TIP3   OH238641   4.339   4.523  12.314  0.0044  0.2763 -0.4056
 5717TIP3    H138642   4.407   4.457  12.311 -0.3054 -0.0996  0.5795
 5717TIP3    H238643   4.367   4.585  12.381 -0.8035 -0.1078  0.3134
 5718TIP3   OH238644   3.846   6.748   0.836 -1.5484  0.6260 -0.5373
 5718TIP3    H138645   3.811   6.835   0.855 -2.5430  0.0412  0.4633
 5718TIP3    H238646   3.777   6.704   0.786 -0.5173  0.8325 -2.1848
 5719TIP3   OH238647   2.980   0.167  12.921 -0.0215 -0.2921 -0.2994
 5719TIP3    H138648   3.050   0.104  12.938 -1.2165 -1.5871 -0.0633
 5719TIP3    H238649   2.986   0.230  12.993  0.3654 -0.8704  0.1812
 5720TIP3   OH238650   2.735   0.251  13.800  0.0756  0.3725  0.0206
 5720TIP3    H138651   2.795   0.269  13.728  2.0438  0.3085  1.5422
 5720TIP3    H238652   2.757   0.162  13.828  1.7999  1.5221  2.7869
 5721TIP3   OH238653   4.655   4.782   3.876 -0.3983  0.5292  0.1117
 5721TIP3    H138654   4.596   4.778   3.801  0.9219  0.7446 -1.0003
 5721TIP3    H238655   4.718   4.712   3.861  0.5372  1.2753  0.4279
 5722TIP3   OH238656   1.876   3.686  17.498  0.0773  0.2482 -0.6132
 5722TIP3    H138657   1.904   3.763  17.547 -0.6864  1.3414 -1.8207
 5722TIP3    H238658   1.791   3.663  17.534 -0.0460  0.4596 -0.7650
 5723TIP3   OH238659   5.262   1.871   4.424 -0.1552  0.2154  0.7323
 5723TIP3    H138660   5.308   1.826   4.494 -0.3009  0.5972  1.0727
 5723TIP3    H238661   5.295   1.830   4.344  1.9969  1.5562  0.8589
 5724TIP3   OH238662   6.759   5.534   3.998 -0.5384  0.0470  0.8762
 5724TIP3    H138663   6.790   5.536   4.089  0.4611 -1.6162  0.6190
 5724TIP3    H238664   6.820   5.591   3.951  1.1340 -1.7667  0.7018
 5725TIP3   OH238665   1.103   5.080  14.969  0.7196  0.1659  0.6820
 5725TIP3    H138666   1.194   5.087  14.943  0.5177  1.1353  0.1848
 5725TIP3    H238667   1.058   5.146  14.916 -0.3392 -0.6069  0.5919
 5726TIP3   OH238668   5.208   5.593   5.958 -0.3274  0.0899  0.0154
 5726TIP3    H138669   5.240   5.507   5.986 -0.8331  0.5236  2.0721
 5726TIP3    H238670   5.259   5.655   6.009 -0.4705  1.0007 -0.9223
 5727TIP3   OH238671   1.113   5.933   5.766 -0.6585 -0.5022 -0.1868
 5727TIP3    H138672   1.041   5.996   5.760 -0.6199 -0.3303  0.8741
 5727TIP3    H238673   1.192   5.983   5.747 -0.5228  0.0397  1.5730
 5728TIP3   OH238674   4.861   3.615   1.768  0.3071  0.3271  0.0657
 5728TIP3    H138675   4.791   3.646   1.711  0.7949  1.1625 -0.1038
 5728TIP3    H238676   4.819   3.599   1.852 -0.4904 -1.2468 -0.5955
 5729TIP3   OH238677   4.659   1.268   2.856 -0.1119 -0.3597 -0.6335
 5729TIP3    H138678   4.701   1.328   2.917 -0.1600  0.0169 -0.9711
 5729TIP3    H238679   4.575   1.309   2.835  0.1810 -0.1536 -1.4656
 5730TIP3   OH238680   5.269   1.328  10.880 -0.8058  0.3247 -0.4556
 5730TIP3    H138681   5.179   1.333  10.846 -0.7159 -0.0180 -0.7527
 5730TIP3    H238682   5.324   1.324  10.801 -0.6789 -2.1284 -0.3259
 5731TIP3   OH238683   6.166   6.142   5.808  0.2006 -0.0194 -0.5985
 5731TIP3    H138684   6.093   6.147   5.746 -0.8166 -2.2142  0.3175
 5731TIP3    H238685   6.144   6.203   5.878  0.1750  0.6762 -1.2010
 5732TIP3   OH238686   2.573   0.927   2.152  0.5796 -0.0792 -0.0944
 5732TIP3    H138687   2.497   0.983   2.166  0.2239 -0.1275 -1.7160
 5732TIP3    H238688   2.547   0.842   2.188 -0.0992 -0.0694 -0.5443
 5733TIP3   OH238689   6.398   0.838   1.591 -0.6515  0.0523  0.0009
 5733TIP3    H138690   6.452   0.916   1.603 -1.0776  0.5819 -1.3333
 5733TIP3    H238691   6.452   0.779   1.539 -1.1544  0.4124 -0.9673
 5734TIP3   OH238692   5.981   1.419   5.790 -0.1660  0.0269  0.3489
 5734TIP3    H138693   5.915   1.405   5.723 -2.3365 -0.3769  2.4402
 5734TIP3    H238694   5.939   1.392   5.871  2.6777 -0.4751  1.7921
 5735TIP3   OH238695   0.407   2.526   0.815  0.5836 -0.4067 -0.3110
 5735TIP3    H138696   0.321   2.508   0.853  1.4647 -2.1119  1.0383
 5735TIP3    H238697   0.404   2.486   0.728 -0.2928  0.4281 -0.6869
 5736TIP3   OH238698   5.192   1.762  12.121 -0.5714  0.1189 -0.1067
 5736TIP3    H138699   5.255   1.692  12.133 -0.4071 -0.0013 -1.5789
 5736TIP3    H238700   5.226   1.834  12.175 -0.8681 -0.9647  1.6010
 5737TIP3   OH238701   0.986   3.050  14.575 -0.0189 -0.3166  0.2377
 5737TIP3    H138702   0.983   3.108  14.499 -0.1570 -0.3942  0.1857
 5737TIP3    H238703   0.924   2.980  14.556  0.6508 -0.8568  0.0022
 5738TIP3   OH238704   4.665   5.430  12.254  0.4656 -0.3681 -0.0286
 5738TIP3    H138705   4.752   5.462  12.234  0.5449 -0.1887  0.6059
 5738TIP3    H238706   4.667   5.338  12.226  1.4109 -0.8628  1.5460
 5739TIP3   OH238707   2.808   1.360  14.625  0.2040  0.1325 -0.5935
 5739TIP3    H138708   2.766   1.317  14.699  0.1038  1.0947 -0.0815
 5739TIP3    H238709   2.888   1.309  14.610  1.6028  1.4466  1.8725
 5740TIP3   OH238710   6.005   4.150  13.760 -0.3709 -0.3497  0.3570
 5740TIP3    H138711   6.072   4.149  13.828 -1.5810 -1.1279  1.5932
 5740TIP3    H238712   5.942   4.083  13.788 -1.4516  0.0746 -0.9692
 5741TIP3   OH238713   1.392   5.620   0.758 -0.1636 -0.0476 -0.6369
 5741TIP3    H138714   1.443   5.672   0.821 -0.0957 -2.3050  1.3292
 5741TIP3    H238715   1.306   5.662   0.756  0.0186  0.4117  0.5559
 5742TIP3   OH238716   5.983   6.064  14.844  0.4499 -0.2320 -0.3864
 5742TIP3    H138717   5.902   6.116  14.848  0.3650 -0.4353  1.4556
 5742TIP3    H238718   5.953   5.975  14.826 -0.0595 -0.7703  2.5331
 5743TIP3   OH238719   2.645   2.535  16.666  0.8815 -0.7710  0.4913
 5743TIP3    H138720   2.662   2.447  16.635 -1.6839 -0.6189 -1.6913
 5743TIP3    H238721   2.602   2.579  16.592  2.1328  2.3614  1.4512
 5744TIP3   OH238722   4.463   0.656   2.635  0.1922  0.1109  0.4978
 5744TIP3    H138723   4.488   0.740   2.596  0.8728 -1.7875 -3.6348
 5744TIP3    H238724   4.529   0.640   2.702  1.0058  2.1311  0.2398
 5745TIP3   OH238725   2.738   6.754  12.916  0.4479 -0.1529  0.5793
 5745TIP3    H138726   2.806   6.820  12.931  0.3945  0.1126 -0.2732
 5745TIP3    H238727   2.786   6.672  12.905  0.5980 -0.0558  0.4988
 5746TIP3   OH238728   1.906   6.427   6.243 -0.1320  0.5119  0.0163
 5746TIP3    H138729   1.910   6.396   6.333 -1.6595  0.1183 -0.0300
 5746TIP3    H238730   1.878   6.351   6.192 -0.9472  1.1709 -0.5373
 5747TIP3   OH238731   2.617   0.812  12.253  0.5955  0.2690 -0.1382
 5747TIP3    H138732   2.545   0.803  12.191  1.9213 -0.7473 -1.5828
 5747TIP3    H238733   2.576   0.801  12.339 -0.7539 -1.8621 -0.9823
 5748TIP3   OH238734   1.770   1.519   5.068 -0.1659  0.4909  0.0951
 5748TIP3    H138735   1.737   1.606   5.090  1.1314  1.1293 -0.3985
 5748TIP3    H238736   1.797   1.526   4.977 -1.4465 -0.8801 -0.4202
 5749TIP3   OH238737   2.027   3.468  13.469 -0.4634 -0.9310  0.7651
 5749TIP3    H138738   2.116   3.492  13.494 -0.0182 -1.3742 -0.3314
 5749TIP3    H238739   1.996   3.413  13.540 -0.0360 -0.4004  1.3737
 5750TIP3   OH238740   3.416   4.377   5.112  0.4151 -0.1522 -0.8020
 5750TIP3    H138741   3.449   4.289   5.127 -0.3872 -0.7913 -2.4769
 5750TIP3    H238742   3.485   4.420   5.060  0.8124  0.2460  0.0243
 5751TIP3   OH238743   1.836   2.521   1.464 -0.0920  0.0812 -0.0050
 5751TIP3    H138744   1.845   2.583   1.391  2.5788  0.5696  0.6360
 5751TIP3    H238745   1.864   2.437   1.428 -2.8412 -0.6902 -0.6156
 5752TIP3   OH238746   5.434   4.224   6.300  0.3115  0.0918  0.4046
 5752TIP3    H138747   5.402   4.311   6.323 -0.9492 -0.1001 -0.4789
 5752TIP3    H238748   5.402   4.168   6.370  0.6574  0.2505  0.6921
 5753TIP3   OH238749   4.442   0.293  16.433  0.1593 -0.0410 -0.4110
 5753TIP3    H138750   4.380   0.278  16.504 -0.9033 -2.9549 -1.8079
 5753TIP3    H238751   4.391   0.338  16.366  0.2338 -0.2923 -0.6347
 5754TIP3   OH238752   5.436   6.107  17.278  0.4695 -0.2825  0.1059
 5754TIP3    H138753   5.405   6.144  17.361  0.2208 -0.9448  0.3119
 5754TIP3    H238754   5.379   6.032  17.263 -0.3066  0.5279 -1.2923
 5755TIP3   OH238755   5.813   1.644   5.945  0.1549  0.1241 -0.5031
 5755TIP3    H138756   5.830   1.563   5.993 -0.8067  0.4437  0.4239
 5755TIP3    H238757   5.834   1.623   5.854 -1.2092 -1.5614 -0.4989
 5756TIP3   OH238758   4.805   0.854  13.360  0.8043 -0.2408 -0.3048
 5756TIP3    H138759   4.769   0.810  13.283  1.9997  0.1183 -1.0887
 5756TIP3    H238760   4.800   0.787  13.429  0.6143 -0.8910 -0.9279
 5757TIP3   OH238761   5.643   6.277   5.387  0.8856  0.2108 -0.1227
 5757TIP3    H138762   5.670   6.295   5.476  0.8881  0.4763 -0.1784
 5757TIP3    H238763   5.608   6.360   5.354  1.4141  0.2668 -0.5598
 5758TIP3   OH238764   3.729   6.566  15.371 -0.0375 -0.0220 -0.2621
 5758TIP3    H138765   3.688   6.501  15.314  0.2425 -0.3053 -0.1406
 5758TIP3    H238766   3.792   6.611  15.316 -0.2394  0.1544 -0.3494
 5759TIP3   OH238767   4.835   5.530   4.472  0.2655 -0.3680  0.4556
 5759TIP3    H138768   4.863   5.617   4.445 -1.1144  0.7685  2.5064
 5759TIP3    H238769   4.907   5.497   4.526 -0.0803  0.3580  1.3653
 5760TIP3   OH238770   1.189   6.555  11.856 -0.1294 -0.1327  0.6827
 5760TIP3    H138771   1.124   6.564  11.926 -0.2804  0.1164  0.5138
 5760TIP3    H238772   1.239   6.637  11.859  0.9581 -0.8045  1.5825
 5761TIP3   OH238773   5.021   5.396  12.007 -0.3806 -0.2680 -0.2748
 5761TIP3    H138774   5.061   5.430  11.927  1.7499 -1.2445  0.3179
 5761TIP3    H238775   5.083   5.331  12.040 -1.2772 -0.0247  2.0942
 5762TIP3   OH238776   4.636   5.962   3.267 -0.0412 -0.1339  0.5428
 5762TIP3    H138777   4.613   5.876   3.231  0.0023 -0.0784  0.3834
 5762TIP3    H238778   4.654   6.016   3.190  0.4459 -0.1240  0.6600
 5763TIP3   OH238779   4.614   4.758  14.126  0.1681  0.3958 -0.1428
 5763TIP3    H138780   4.651   4.681  14.082  1.0688  1.2061 -0.8678
 5763TIP3    H238781   4.683   4.786  14.186 -0.2079  0.5601  0.2145
 5764TIP3   OH238782   3.000   1.296  15.977 -0.0055  0.2305  0.2380
 5764TIP3    H138783   3.086   1.298  15.935 -0.0286 -2.5935 -0.1601
 5764TIP3    H238784   2.966   1.384  15.966  1.9221  0.8477 -1.5696
 5765TIP3   OH238785   0.747   5.268   4.442  0.0062 -1.0265  0.4830
 5765TIP3    H138786   0.774   5.300   4.529  2.9163 -1.1386 -0.2899
 5765TIP3    H238787   0.769   5.175   4.443 -0.1811 -1.0816 -0.2751
 5766TIP3   OH238788   0.532   5.058  12.897 -0.1705  0.5826 -0.0485
 5766TIP3    H138789   0.522   4.967  12.868 -0.4750  0.6748 -0.2397
 5766TIP3    H238790   0.477   5.108  12.837 -0.1662  0.8711  0.1856
 5767TIP3   OH238791   5.675   4.570  16.707  0.3530  0.2395 -0.1065
 5767TIP3    H138792   5.727   4.628  16.762 -1.1067  1.8724 -0.3685
 5767TIP3    H238793   5.679   4.608  16.620 -1.3437  0.5002 -0.1100
 5768TIP3   OH238794   5.819   3.142   5.195 -0.2284  0.2456  0.6635
 5768TIP3    H138795   5.861   3.066   5.237 -0.5793  0.2095  0.9556
 5768TIP3    H238796   5.801   3.202   5.268  2.7684  1.9836  0.1457
 5769TIP3   OH238797   5.028   3.658   4.227  0.2261  0.1431  0.3880
 5769TIP3    H138798   5.033   3.566   4.252  0.1374 -0.0260 -0.1941
 5769TIP3    H238799   5.117   3.681   4.203  0.0600 -0.1065 -0.5185
 5770TIP3   OH238800   3.940   2.724   2.106  0.1144  0.2971  0.6747
 5770TIP3    H138801   3.859   2.776   2.110  0.0560  0.3631 -0.7635
 5770TIP3    H238802   3.940   2.688   2.017  1.8984  0.6627  0.5062
 5771TIP3   OH238803   4.619   3.082   4.700  0.3140 -0.1202  0.6778
 5771TIP3    H138804   4.629   3.003   4.754 -1.3161  0.5519  2.0382
 5771TIP3    H238805   4.682   3.144   4.737 -0.6911  0.2861  1.7803
 5772TIP3   OH238806   1.331   0.232   0.578 -0.1886 -0.3067 -0.2495
 5772TIP3    H138807   1.410   0.234   0.525  0.3453  2.8970  0.4939
 5772TIP3    H238808   1.273   0.297   0.537 -0.9038  0.1320  1.3993
 5773TIP3   OH238809   4.481   1.461   2.012  0.4284 -0.7750  0.2496
 5773TIP3    H138810   4.540   1.536   2.013 -0.1588 -0.3022  0.1787
 5773TIP3    H238811   4.537   1.386   1.994  1.1238 -0.4467  0.9829
 5774TIP3   OH238812   1.920   6.251   1.177 -0.1553  0.1105 -0.0407
 5774TIP3    H138813   1.925   6.344   1.156  1.7391  0.2114  0.6769
 5774TIP3    H238814   1.933   6.206   1.094  1.8797  0.5153  0.0151
 5775TIP3   OH238815   2.067   0.075  12.653 -0.0025  0.0589 -0.2884
 5775TIP3    H138816   2.071  -0.017  12.626 -2.9771 -0.7635  1.6088
 5775TIP3    H238817   2.060   0.123  12.571  1.2606 -1.3883 -1.3157
 5776TIP3   OH238818   6.407   4.492   4.671  0.5628 -0.1030 -0.1198
 5776TIP3    H138819   6.331   4.550   4.666  1.1345  0.8313  1.3084
 5776TIP3    H238820   6.370   4.404   4.670 -0.4136  0.2984 -1.0968
 5777TIP3   OH238821   4.274   2.496   6.097  0.2479  0.1258  0.4049
 5777TIP3    H138822   4.227   2.423   6.057 -0.5982  0.5874  0.5457
 5777TIP3    H238823   4.206   2.558   6.123  0.9156  0.7001  0.8281
 5778TIP3   OH238824   3.537   1.486   2.352  0.2534 -0.2481 -0.0293
 5778TIP3    H138825   3.563   1.558   2.410  0.4189  0.6400 -1.1920
 5778TIP3    H238826   3.552   1.407   2.405  3.2219  0.3341  0.1612
 5779TIP3   OH238827   1.469   4.265  16.028 -0.2858  0.1015 -0.1116
 5779TIP3    H138828   1.463   4.170  16.037 -0.1919  0.0158 -0.8493
 5779TIP3    H238829   1.541   4.278  15.966 -0.2902  0.6490 -0.0005
 5780TIP3   OH238830   2.649   6.140  14.855  0.6700  0.0764  0.3896
 5780TIP3    H138831   2.712   6.203  14.889  0.8635 -0.6493  1.3951
 5780TIP3    H238832   2.575   6.194  14.827  0.9309  0.7716  1.0033
 5781TIP3   OH238833   5.896   5.182   2.205 -0.2354 -1.0884 -0.3572
 5781TIP3    H138834   5.848   5.109   2.167  0.6225 -1.1510 -1.3748
 5781TIP3    H238835   5.898   5.249   2.137 -0.4245 -0.3761  0.3182
 5782TIP3   OH238836   6.176   6.000   1.769 -0.1191  0.1553  0.1332
 5782TIP3    H138837   6.140   6.088   1.782  0.3122  0.2421  0.7522
 5782TIP3    H238838   6.175   5.988   1.674  3.6762  2.4934 -0.4002
 5783TIP3   OH238839   0.503   5.801   5.380 -0.5291  0.5377 -0.1229
 5783TIP3    H138840   0.583   5.828   5.425 -0.2249 -0.4146 -0.0786
 5783TIP3    H238841   0.484   5.714   5.415 -0.6908  0.0851 -1.2979
 5784TIP3   OH238842   2.318   6.465  11.365  0.2240 -0.1483 -0.5074
 5784TIP3    H138843   2.296   6.372  11.370  1.7825 -0.5518 -0.6134
 5784TIP3    H238844   2.374   6.472  11.288  3.1513  0.1820  1.4814
 5785TIP3   OH238845   1.022   1.733   1.594 -0.2969  0.4019 -0.9325
 5785TIP3    H138846   1.085   1.782   1.542 -1.4791  0.8182 -2.0533
 5785TIP3    H238847   1.038   1.641   1.572  1.8040  0.2239  1.0345
 5786TIP3   OH238848   3.086   1.833  10.781  0.4223 -0.0712  0.9054
 5786TIP3    H138849   3.124   1.902  10.727 -0.5197 -0.6501 -0.5603
 5786TIP3    H238850   3.144   1.758  10.769  0.3446 -0.1312  0.9040
 5787TIP3   OH238851   5.763   5.288   0.813 -0.0467  0.3310  0.1792
 5787TIP3    H138852   5.764   5.199   0.849  0.9735 -0.1711 -1.0267
 5787TIP3    H238853   5.855   5.315   0.814 -0.1844  0.8700 -0.6757
 5788TIP3   OH238854   4.098   2.908   0.420  0.6308  0.0246 -0.1272
 5788TIP3    H138855   4.183   2.937   0.386 -0.1819  1.7503 -0.8132
 5788TIP3    H238856   4.074   2.974   0.485 -1.3213  1.0809 -1.7932
 5789TIP3   OH238857   1.077   3.429   3.109 -0.4831 -0.4453  0.1975
 5789TIP3    H138858   1.121   3.507   3.074 -1.1849 -0.0137  0.2578
 5789TIP3    H238859   1.133   3.356   3.083 -0.3664 -0.0167 -0.7957
 5790TIP3   OH238860   4.484   5.261  15.804  0.1834 -0.8000  0.4015
 5790TIP3    H138861   4.420   5.268  15.875  0.1627 -0.1363  0.3262
 5790TIP3    H238862   4.466   5.176  15.764 -0.6084 -0.6542  0.4256
 5791TIP3   OH238863   6.508   2.954  14.239  0.5680  0.0978 -0.6808
 5791TIP3    H138864   6.457   2.901  14.300 -0.2518 -0.2994 -1.6679
 5791TIP3    H238865   6.489   3.044  14.262  0.4363 -0.0476 -0.2248
 5792TIP3   OH238866   4.148   5.302   2.766  0.0861 -0.1547 -0.2104
 5792TIP3    H138867   4.224   5.342   2.809  0.8322 -1.3585 -0.3640
 5792TIP3    H238868   4.145   5.343   2.680 -0.4333  1.0741  0.3568
 5793TIP3   OH238869   5.545   3.630  15.601  0.2823  0.6337 -0.1196
 5793TIP3    H138870   5.471   3.692  15.603  1.3382  1.9806 -0.8281
 5793TIP3    H238871   5.621   3.684  15.621  1.1614 -0.6110 -0.0435
 5794TIP3   OH238872   1.865   3.718   3.408 -0.5549  0.6523  0.4006
 5794TIP3    H138873   1.838   3.633   3.375 -1.6704  1.0582  0.2186
 5794TIP3    H238874   1.955   3.705   3.437 -0.3439 -0.3161 -0.6027
 5795TIP3   OH238875   1.974   2.904  10.643 -0.0240  0.3919  0.2913
 5795TIP3    H138876   2.025   2.871  10.568  0.4139 -1.2406  1.2565
 5795TIP3    H238877   2.036   2.904  10.716 -0.8214  0.5339  0.9825
 5796TIP3   OH238878   6.443   0.769   3.359 -0.1763  0.6517  0.0049
 5796TIP3    H138879   6.507   0.829   3.397  0.7936 -0.2073 -0.2308
 5796TIP3    H238880   6.429   0.703   3.427 -0.2532  0.4254 -0.2298
 5797TIP3   OH238881   5.444   5.912   4.562 -0.1623  0.1417 -0.5279
 5797TIP3    H138882   5.429   5.819   4.543  0.0648  0.2705 -1.3760
 5797TIP3    H238883   5.405   5.925   4.649  0.7221 -0.9821  0.0742
 5798TIP3   OH238884   4.344   1.205   0.146 -0.6086 -0.3391 -0.5457
 5798TIP3    H138885   4.369   1.294   0.120 -0.8094 -0.0495  0.2353
 5798TIP3    H238886   4.249   1.204   0.140 -0.8660  0.4069  2.1613
 5799TIP3   OH238887   3.081   6.139   6.294 -0.1086  0.1129  0.7464
 5799TIP3    H138888   3.123   6.172   6.373 -0.8467  3.6873 -0.1574
 5799TIP3    H238889   3.141   6.162   6.223 -0.4236 -1.1043  0.0600
 5800TIP3   OH238890   2.646   0.612  15.105  0.3493 -0.2074 -0.2235
 5800TIP3    H138891   2.690   0.550  15.164  0.0066 -0.0777  0.1809
 5800TIP3    H238892   2.610   0.558  15.035 -0.6758 -0.5964  0.5660
 5801TIP3   OH238893   3.652   5.331   6.100  0.1626 -0.6334 -0.0664
 5801TIP3    H138894   3.746   5.342   6.113  0.0502  0.9316 -0.2922
 5801TIP3    H238895   3.637   5.237   6.108  1.2847 -0.6638  2.9456
 5802TIP3   OH238896   4.366   5.421  10.614  0.3128  0.0827 -0.0553
 5802TIP3    H138897   4.278   5.384  10.619 -0.4433  1.4981 -1.6016
 5802TIP3    H238898   4.394   5.402  10.524  0.3816  2.1227 -0.5049
 5803TIP3   OH238899   0.032   1.555   1.385 -0.7094 -0.1997 -0.4161
 5803TIP3    H138900  -0.047   1.553   1.330 -1.2202  0.4330  0.2717
 5803TIP3    H238901   0.103   1.534   1.325 -1.2021  0.9072 -1.4161
 5804TIP3   OH238902   5.531   5.522   5.099  0.5896  0.6391  0.4893
 5804TIP3    H138903   5.613   5.567   5.080 -0.4377  2.1595 -0.5891
 5804TIP3    H238904   5.480   5.583   5.151 -0.1139 -0.0167  0.6013
 5805TIP3   OH238905   0.450   6.389   3.998  0.1171 -0.3886 -0.4098
 5805TIP3    H138906   0.530   6.408   4.048  0.2391  1.0813 -1.1286
 5805TIP3    H238907   0.409   6.316   4.046  2.0132 -1.3684 -0.1873
 5806TIP3   OH238908   3.455   0.889   2.169  0.6155 -0.4673  0.8000
 5806TIP3    H138909   3.528   0.933   2.127  2.5750 -1.1181  3.3124
 5806TIP3    H238910   3.427   0.823   2.105 -0.1511  2.0083 -1.6031
 5807TIP3   OH238911   0.364   1.065   6.116  0.4131 -0.3618  0.5126
 5807TIP3    H138912   0.351   1.014   6.196 -1.7240  0.8306  1.0089
 5807TIP3    H238913   0.304   1.026   6.053 -0.4540  0.8429  0.5722
 5808TIP3   OH238914   2.233   5.519  12.199  0.2676 -0.3654 -0.3395
 5808TIP3    H138915   2.209   5.447  12.257  0.8228 -1.3297 -1.2722
 5808TIP3    H238916   2.151   5.546  12.158 -0.5074  1.7110  2.3442
 5809TIP3   OH238917   0.416   2.694   3.574  0.0982  0.6693  0.3280
 5809TIP3    H138918   0.433   2.611   3.619 -0.2505  0.6570  0.4343
 5809TIP3    H238919   0.502   2.736   3.569  0.4283 -0.0697 -0.4840
 5810TIP3   OH238920   1.916   3.633   2.304  0.4627  0.1680  0.2175
 5810TIP3    H138921   1.853   3.686   2.255 -0.1633 -1.1669 -0.4678
 5810TIP3    H238922   1.862   3.578   2.360  1.0918 -0.0445  0.6238
 5811TIP3   OH238923   1.229   4.161   0.429 -0.7791 -0.1480  0.1628
 5811TIP3    H138924   1.298   4.175   0.363 -0.3051 -1.6272  0.2943
 5811TIP3    H238925   1.150   4.197   0.389 -0.4851 -0.9412 -1.2079
 5812TIP3   OH238926   6.075   1.960   0.370  0.0082 -0.3464 -0.2664
 5812TIP3    H138927   6.009   1.933   0.434  0.2755  0.0313  0.1756
 5812TIP3    H238928   6.121   1.879   0.349 -0.4466 -0.5716 -0.4056
 5813TIP3   OH238929   0.691   6.110  17.324  0.1116 -0.7070  0.1466
 5813TIP3    H138930   0.684   6.126  17.230 -0.1978  1.2512  0.4534
 5813TIP3    H238931   0.603   6.084  17.351 -0.6428  1.8141  0.3523
 5814TIP3   OH238932   3.423   6.588   4.518 -0.0914 -0.2739  0.9359
 5814TIP3    H138933   3.497   6.593   4.456 -0.2255  3.0483  0.8885
 5814TIP3    H238934   3.454   6.527   4.586  2.4134  0.4192  0.5377
 5815TIP3   OH238935   4.604   3.468   1.846 -0.0942  0.5970 -0.0812
 5815TIP3    H138936   4.598   3.373   1.832  0.5096  0.6206 -0.5743
 5815TIP3    H238937   4.581   3.480   1.938  0.7125 -0.1409  0.2330
 5816TIP3   OH238938   2.714   1.589  16.162 -0.3501  0.0833 -0.6445
 5816TIP3    H138939   2.807   1.584  16.142 -0.3869  0.2471 -0.8563
 5816TIP3    H238940   2.671   1.596  16.077 -0.5023  0.8574 -0.5167
 5817TIP3   OH238941   4.190   5.751   2.308  0.6767 -0.3218  0.7947
 5817TIP3    H138942   4.140   5.823   2.268  0.9320 -0.1927  0.7047
 5817TIP3    H238943   4.142   5.730   2.388 -0.6857 -1.5780 -0.3057
 5818TIP3   OH238944   4.254   0.647   4.117  0.1926  0.4674  0.0749
 5818TIP3    H138945   4.322   0.666   4.052 -0.1994  0.9145 -0.2098
 5818TIP3    H238946   4.220   0.733   4.142 -0.2489  0.2478  0.2398
 5819TIP3   OH238947   3.308   3.220  12.873  0.5337 -0.3616  0.5688
 5819TIP3    H138948   3.370   3.284  12.906  0.3631  0.7253 -1.0800
 5819TIP3    H238949   3.314   3.228  12.778 -0.8123 -1.5193  0.3515
 5820TIP3   OH238950   3.829   4.697   0.412 -0.4005  0.1767  0.0826
 5820TIP3    H138951   3.880   4.616   0.415  0.7470  0.9126  2.4270
 5820TIP3    H238952   3.872   4.749   0.344  0.6346 -0.0501  0.5552
 5821TIP3   OH238953   6.496   3.637  17.501 -0.1646  0.3688  0.6404
 5821TIP3    H138954   6.591   3.630  17.515  0.1227  1.4775 -0.5083
 5821TIP3    H238955   6.460   3.555  17.533  1.4755 -1.2084 -1.2936
 5822TIP3   OH238956   0.471   3.660   5.849 -0.4066  0.9271  0.0289
 5822TIP3    H138957   0.531   3.593   5.881  1.0434  1.0007 -2.2587
 5822TIP3    H238958   0.460   3.721   5.922  1.1694  0.1270  0.9685
 5823TIP3   OH238959   2.575   4.971  11.072 -0.9010 -0.4804 -0.7309
 5823TIP3    H138960   2.572   5.048  11.016 -1.0713  0.8850  1.0707
 5823TIP3    H238961   2.489   4.968  11.113  0.0299  0.1223  1.4010
 5824TIP3   OH238962   1.166   5.318  14.827 -0.1539 -0.8146  0.0378
 5824TIP3    H138963   1.122   5.400  14.850 -0.3544 -0.9734  0.2194
 5824TIP3    H238964   1.259   5.336  14.841 -0.2079 -0.6608  0.2041
 5825TIP3   OH238965   5.990   0.170   1.834  0.2150 -0.2050 -0.3999
 5825TIP3    H138966   5.946   0.169   1.749 -0.1571 -0.4361 -0.2095
 5825TIP3    H238967   5.930   0.123   1.892  0.3719  0.1242  0.0363
 5826TIP3   OH238968   2.831   1.808   4.884  0.1286  0.1129  0.0734
 5826TIP3    H138969   2.922   1.831   4.901  1.0993 -2.4324 -1.1569
 5826TIP3    H238970   2.802   1.763   4.964 -0.5659  2.0979  1.0043
 5827TIP3   OH238971   5.909   1.520   5.248 -0.0293  0.0923 -0.1579
 5827TIP3    H138972   6.001   1.500   5.263  0.0220  0.7302  0.4521
 5827TIP3    H238973   5.905   1.615   5.246 -0.8111  0.1046  0.8799
 5828TIP3   OH238974   1.492   3.027  17.516  0.1518 -0.4378 -0.4509
 5828TIP3    H138975   1.476   3.017  17.610 -0.3716 -2.1409 -0.6909
 5828TIP3    H238976   1.524   2.942  17.488 -4.6106 -1.8107 -2.7555
 5829TIP3   OH238977   4.223   6.246  17.053  0.1590  0.2287  0.3782
 5829TIP3    H138978   4.239   6.309  16.983  1.7843 -0.1353  0.3914
 5829TIP3    H238979   4.128   6.234  17.052 -0.4499  3.7763  1.3506
 5830TIP3   OH238980   4.858   5.853   4.121  0.1232  0.8433  0.1608
 5830TIP3    H138981   4.912   5.903   4.060  1.2664 -1.1763 -0.6044
 5830TIP3    H238982   4.868   5.762   4.092 -1.5357  0.1083  1.6941
 5831TIP3   OH238983   2.069   5.201  15.245  0.4848 -0.1266  0.5709
 5831TIP3    H138984   2.016   5.124  15.264 -0.1082 -0.2127 -1.2000
 5831TIP3    H238985   2.062   5.255  15.323 -0.3121 -1.1940  1.2685
 5832TIP3   OH238986   4.130   5.159   6.801 -0.4352  0.0157 -0.1712
 5832TIP3    H138987   4.221   5.170   6.774  0.1836 -1.3650  1.1757
 5832TIP3    H238988   4.089   5.111   6.729  0.1883 -0.3308 -0.2993
 5833TIP3   OH238989   0.872   1.524   2.244  0.2734 -0.8967 -0.4123
 5833TIP3    H138990   0.810   1.451   2.253  1.5659 -1.9546  0.1286
 5833TIP3    H238991   0.938   1.492   2.183  0.9557 -0.2321 -0.0327
 5834TIP3   OH238992   1.452   1.681  11.429  0.0488 -0.0108  0.6809
 5834TIP3    H138993   1.473   1.658  11.520 -1.1835 -0.8459  0.7793
 5834TIP3    H238994   1.463   1.776  11.425  2.2327 -0.1818  1.1082
 5835TIP3   OH238995   0.738   6.636  17.257 -0.4131  0.1274 -1.1107
 5835TIP3    H138996   0.794   6.708  17.227 -0.8828 -0.2199 -2.9850
 5835TIP3    H238997   0.684   6.675  17.326 -0.7333  1.6239 -2.1459
 5836TIP3   OH238998   4.062   6.725   1.421 -0.2278 -0.3100 -0.5280
 5836TIP3    H138999   4.021   6.809   1.442 -1.8052 -1.0648 -0.5022
 5836TIP3    H239000   4.067   6.725   1.325 -2.8122 -1.3088 -0.7362
 5837TIP3   OH239001   2.189   6.760  16.172 -0.1026  0.6354  0.4488
 5837TIP3    H139002   2.156   6.719  16.251 -0.5906 -3.4406 -1.6078
 5837TIP3    H239003   2.279   6.729  16.164  0.3885  2.0611  0.0048
 5838TIP3   OH239004   3.009   4.878   2.419 -0.3790  0.3092  0.3652
 5838TIP3    H139005   3.027   4.863   2.326  0.1727 -1.1699  0.6917
 5838TIP3    H239006   2.920   4.846   2.432 -0.8148  1.3823  0.1786
 5839TIP3   OH239007   0.057   2.801   5.163  0.2560 -0.3926  0.3431
 5839TIP3    H139008   0.114   2.804   5.240  1.3452 -0.1025 -0.4603
 5839TIP3    H239009   0.027   2.710   5.160  1.3669 -0.7783  0.3104
 5840TIP3   OH239010   0.704   4.316   0.347  0.0672 -0.8154 -0.4893
 5840TIP3    H139011   0.679   4.347   0.260  0.1844 -0.3076 -0.3431
 5840TIP3    H239012   0.642   4.358   0.407  1.6807  1.0811 -0.0428
 5841TIP3   OH239013   2.287   4.862  14.364  0.1045  0.2184 -0.2872
 5841TIP3    H139014   2.209   4.913  14.386 -0.4501 -0.9165  0.4869
 5841TIP3    H239015   2.356   4.899  14.418 -0.2590  0.2308  0.1708
 5842TIP3   OH239016   1.946   2.614   1.772 -0.0125  0.0849 -0.0935
 5842TIP3    H139017   2.030   2.567   1.770 -0.4877 -0.8466  0.9609
 5842TIP3    H239018   1.907   2.595   1.686  0.5851  0.0274 -0.3609
 5843TIP3   OH239019   4.320   2.352   0.282 -0.2275  0.2999 -0.0871
 5843TIP3    H139020   4.273   2.272   0.306  0.1244  0.0482 -0.2329
 5843TIP3    H239021   4.289   2.373   0.194  0.0772  0.0217 -0.2636
 5844TIP3   OH239022   6.651   4.442   1.353 -0.4024 -0.2031  0.2005
 5844TIP3    H139023   6.647   4.419   1.261  0.8884  1.6001 -0.3544
 5844TIP3    H239024   6.561   4.434   1.384 -0.9752 -0.1380 -1.3833
 5845TIP3   OH239025   0.172   3.395  12.046 -0.6073  0.1746 -0.4616
 5845TIP3    H139026   0.128   3.310  12.049 -1.4617  0.5921  3.0579
 5845TIP3    H239027   0.114   3.450  11.992 -0.9074 -1.0219 -1.3830
 5846TIP3   OH239028   0.633   0.590  16.250 -0.0834  0.4853  0.2273
 5846TIP3    H139029   0.619   0.600  16.156 -0.7416 -1.0141  0.1492
 5846TIP3    H239030   0.550   0.557  16.283  0.8761 -1.2745  0.9603
 5847TIP3   OH239031   6.103   4.950   1.480 -0.2207 -0.4438 -0.1006
 5847TIP3    H139032   6.010   4.967   1.468  0.1073  1.7201 -0.0374
 5847TIP3    H239033   6.139   4.952   1.391  0.0348  0.8262  0.0059
 5848TIP3   OH239034   0.528   5.011   3.174  0.3867 -0.5566 -0.2405
 5848TIP3    H139035   0.468   5.064   3.227  1.1271 -0.2024  0.2687
 5848TIP3    H239036   0.563   5.072   3.109 -0.2641 -0.9104 -0.9302
 5849TIP3   OH239037   4.354   2.413  16.838 -0.0963  0.7932  0.2789
 5849TIP3    H139038   4.330   2.323  16.862  3.0155 -0.4609 -0.7776
 5849TIP3    H239039   4.435   2.429  16.887 -0.7833  3.2331  0.7438
 5850TIP3   OH239040   4.147   1.175  16.931 -0.2368  0.1061 -0.1275
 5850TIP3    H139041   4.217   1.138  16.985  0.3625  1.1371 -0.1825
 5850TIP3    H239042   4.159   1.270  16.937 -0.2962  0.2599 -1.8741
 5851TIP3   OH239043   4.825   0.665   4.317  0.4769 -0.0650  0.0583
 5851TIP3    H139044   4.844   0.571   4.311  0.5377  0.0307 -1.7874
 5851TIP3    H239045   4.900   0.707   4.275 -0.2248  0.7255 -0.4279
 5852TIP3   OH239046   4.339   5.445   1.767 -0.3180  0.0438  0.1130
 5852TIP3    H139047   4.331   5.457   1.672 -0.5427  0.9583  0.2375
 5852TIP3    H239048   4.426   5.479   1.788  0.1904 -1.2164  0.0802
 5853TIP3   OH239049   6.488   4.889  14.353 -0.7284 -0.1947  0.2005
 5853TIP3    H139050   6.542   4.812  14.371 -1.9644 -1.3771 -0.9677
 5853TIP3    H239051   6.483   4.893  14.258 -1.0870  1.0590  0.2532
 5854TIP3   OH239052   1.048   0.018  12.918  0.7988 -0.5953  0.2208
 5854TIP3    H139053   1.033  -0.071  12.949  0.0762 -0.7296 -0.4674
 5854TIP3    H239054   0.994   0.072  12.976  1.5367 -0.5541  0.8839
 5855TIP3   OH239055   0.268   5.131  16.958  0.5801  0.0101  0.2657
 5855TIP3    H139056   0.244   5.039  16.954  0.6194 -0.0272  0.7503
 5855TIP3    H239057   0.361   5.133  16.937  0.5006 -0.0221 -0.0858
 5856TIP3   OH239058   3.207   4.331   4.344  0.3313 -0.0419 -0.1989
 5856TIP3    H139059   3.250   4.311   4.427  1.3005  1.1329 -0.4026
 5856TIP3    H239060   3.264   4.291   4.278  0.1822  0.0355 -0.3727
 5857TIP3   OH239061   3.298   1.047  14.349  0.1830  0.0804  0.5339
 5857TIP3    H139062   3.283   0.957  14.380 -1.2729 -0.3973 -1.3430
 5857TIP3    H239063   3.211   1.087  14.351  0.3149  0.5335 -1.2471
 5858TIP3   OH239064   5.306   3.698   0.037  0.2505 -0.1510  0.4918
 5858TIP3    H139065   5.224   3.685  -0.011  0.9870  1.2793 -1.2833
 5858TIP3    H239066   5.336   3.609   0.056 -0.7544 -0.7555 -0.5756
 5859TIP3   OH239067   1.075   3.689   2.741  0.2597  0.4752  0.1335
 5859TIP3    H139068   1.110   3.735   2.665  2.7316  1.5007  1.7393
 5859TIP3    H239069   1.010   3.749   2.777 -1.3692 -0.2773 -1.4144
 5860TIP3   OH239070   1.465   0.279  12.659  0.1079 -0.1699  0.6280
 5860TIP3    H139071   1.470   0.318  12.747 -0.5303 -0.5864  0.8592
 5860TIP3    H239072   1.514   0.197  12.667  1.0928  0.3672  0.2554
 5861TIP3   OH239073   5.124   4.091   6.859  0.0106 -0.1126 -0.2108
 5861TIP3    H139074   5.030   4.096   6.839  0.2103 -1.2209 -1.5821
 5861TIP3    H239075   5.166   4.143   6.790  0.5708 -2.1137 -1.4721
 5862TIP3   OH239076   0.553   0.375   0.716  0.2727 -0.1397 -0.4847
 5862TIP3    H139077   0.642   0.375   0.680 -0.2015 -1.6351 -1.7452
 5862TIP3    H239078   0.513   0.296   0.681 -1.4518  0.3151  0.3722
 5863TIP3   OH239079   3.547   6.141   5.212 -0.5376  0.3577 -0.2787
 5863TIP3    H139080   3.618   6.205   5.211  0.7363 -0.9819  0.0463
 5863TIP3    H239081   3.488   6.170   5.143  1.3097  0.4918 -1.9040
 5864TIP3   OH239082   4.827   6.214   4.814  0.3263 -0.0987 -0.1467
 5864TIP3    H139083   4.756   6.173   4.764 -1.0189 -0.3994  1.8587
 5864TIP3    H239084   4.907   6.177   4.777 -0.7312 -2.5740 -0.1849
 5865TIP3   OH239085   1.296   2.671  17.210  0.1429  0.4665  0.4725
 5865TIP3    H139086   1.232   2.689  17.141  0.8014 -3.1236 -1.3051
 5865TIP3    H239087   1.381   2.679  17.167  0.8086  1.9500  1.9638
 5866TIP3   OH239088   5.794   0.406   4.631 -0.1824 -0.1962 -0.1256
 5866TIP3    H139089   5.754   0.489   4.659 -0.0377 -0.2574  0.2656
 5866TIP3    H239090   5.880   0.406   4.672 -0.4269 -0.8339  0.3942
 5867TIP3   OH239091   0.756   4.338   6.748 -0.4321 -0.0862 -0.0944
 5867TIP3    H139092   0.774   4.431   6.762 -0.9709 -0.0265  0.2299
 5867TIP3    H239093   0.826   4.292   6.795 -0.4056  0.1528  0.0999
 5868TIP3   OH239094   3.159   3.977   1.833 -0.1180 -0.2482  0.1334
 5868TIP3    H139095   3.163   4.065   1.870  2.0571  1.0517 -2.7895
 5868TIP3    H239096   3.244   3.938   1.852  0.1943 -0.4017 -1.3864
 5869TIP3   OH239097   0.692   5.512   0.565  0.1540 -0.1788  0.6311
 5869TIP3    H139098   0.743   5.468   0.633 -1.6187  0.3984  2.4423
 5869TIP3    H239099   0.648   5.583   0.611  1.7403  2.6654 -1.8933
 5870TIP3   OH239100   2.206   4.629  15.096  0.3906 -0.1239  0.1704
 5870TIP3    H139101   2.232   4.704  15.150 -0.2292  1.1331 -1.2181
 5870TIP3    H239102   2.144   4.581  15.151 -2.4734  2.6781 -0.2855
 5871TIP3   OH239103   6.595   3.700  12.828 -0.1255  0.3562  0.1396
 5871TIP3    H139104   6.538   3.636  12.785  1.5578 -1.4554  0.4917
 5871TIP3    H239105   6.631   3.752  12.757 -0.0387 -0.3392 -0.3316
 5872TIP3   OH239106   5.570   0.168   4.011  0.7879  0.4382  0.1189
 5872TIP3    H139107   5.618   0.181   3.929  2.0095 -0.6576  0.6296
 5872TIP3    H239108   5.606   0.088   4.048 -1.9133 -0.8533  0.2352
 5873TIP3   OH239109   0.933   4.856  16.428 -0.5972  1.1027  0.1170
 5873TIP3    H139110   0.908   4.893  16.343  0.3274 -1.5471 -1.3910
 5873TIP3    H239111   1.016   4.898  16.449 -0.3207  1.0462 -0.8071
 5874TIP3   OH239112   6.002   3.244   3.594 -0.0045  0.7346 -0.4522
 5874TIP3    H139113   5.969   3.154   3.594  2.3199 -0.2050  0.1099
 5874TIP3    H239114   6.086   3.238   3.640  0.0550  3.2763 -0.0966
 5875TIP3   OH239115   1.609   0.704   2.966 -0.1509  0.1399 -0.1559
 5875TIP3    H139116   1.576   0.793   2.950  0.0184  0.2614  0.1420
 5875TIP3    H239117   1.679   0.692   2.902  1.4951  1.1608  1.3633
 5876TIP3   OH239118   6.347   6.421   1.315 -0.2576 -0.0588 -0.2311
 5876TIP3    H139119   6.274   6.480   1.332  0.8927  2.1337 -2.2653
 5876TIP3    H239120   6.418   6.455   1.368  1.0941  2.0389 -3.1237
 5877TIP3   OH239121   6.190   4.022  13.972 -0.1439 -0.8675 -0.1923
 5877TIP3    H139122   6.118   3.979  14.018 -1.9321 -0.3617 -2.3617
 5877TIP3    H239123   6.261   3.957  13.972 -0.7254 -1.5644  1.5534
 5878TIP3   OH239124   2.337   1.460  14.550 -0.3221  0.1410  0.0858
 5878TIP3    H139125   2.383   1.520  14.608 -1.3427 -1.9129  3.2518
 5878TIP3    H239126   2.262   1.429  14.601 -1.0154 -2.2335 -2.1461
 5879TIP3   OH239127   3.674   4.959   3.100  0.4551  0.6651  0.0694
 5879TIP3    H139128   3.730   4.886   3.125  0.9499  0.8386 -0.4829
 5879TIP3    H239129   3.629   4.929   3.021  0.2348  0.7510  0.1613
 5880TIP3   OH239130   0.615   5.212   2.976 -0.0905  0.2243 -0.1695
 5880TIP3    H139131   0.670   5.232   3.052 -1.3445  0.7148  0.6338
 5880TIP3    H239132   0.647   5.270   2.907  1.4217 -0.6092 -0.2090
 5881TIP3   OH239133   5.895   1.240  16.881  0.4910 -0.5955 -0.5059
 5881TIP3    H139134   5.912   1.307  16.814  2.0407  1.7381  1.9870
 5881TIP3    H239135   5.808   1.262  16.914  0.3596 -0.7736 -0.7376
 5882TIP3   OH239136   2.543   1.266  13.890  0.1599  0.0797  0.2089
 5882TIP3    H139137   2.486   1.334  13.925 -2.1607 -1.5578 -0.0880
 5882TIP3    H239138   2.546   1.283  13.796  4.3931  3.0427  0.6307
 5883TIP3   OH239139   1.093   0.996  12.037 -0.4185  0.1672  0.5746
 5883TIP3    H139140   1.115   0.905  12.056 -1.1048  0.2161  1.7119
 5883TIP3    H239141   1.060   0.995  11.948 -0.9473 -0.7997  0.7703
 5884TIP3   OH239142   0.852   0.514   4.061 -0.5027 -0.0822 -0.1372
 5884TIP3    H139143   0.780   0.543   4.004 -0.3456 -0.0411 -0.3156
 5884TIP3    H239144   0.811   0.451   4.120 -0.5609 -0.5309 -0.6456
 5885TIP3   OH239145   3.221   0.274   2.730  0.4048 -0.2901 -0.1565
 5885TIP3    H139146   3.148   0.240   2.782  1.0455  0.5243  1.3320
 5885TIP3    H239147   3.282   0.202   2.723  0.1855 -0.4910 -0.0091
 5886TIP3   OH239148   5.655   4.453  13.044  0.2942  0.5783 -0.1696
 5886TIP3    H139149   5.608   4.528  13.007  0.3170  0.2903 -0.7992
 5886TIP3    H239150   5.678   4.400  12.968  0.7537  0.2049  0.2248
 5887TIP3   OH239151   5.964   5.384   2.920  0.3074 -0.1331  0.0847
 5887TIP3    H139152   6.015   5.371   2.841  0.4402 -0.4486  0.2207
 5887TIP3    H239153   5.873   5.392   2.890  0.4134  0.2427 -0.1402
 5888TIP3   OH239154   4.715   4.484  12.049  0.3104  0.2356 -0.3455
 5888TIP3    H139155   4.765   4.425  11.992 -0.5666  0.9741 -1.9201
 5888TIP3    H239156   4.624   4.456  12.039  0.1668  0.1488  1.0045
 5889TIP3   OH239157   2.442   2.231   5.619  0.1164 -0.0557 -0.2590
 5889TIP3    H139158   2.478   2.161   5.563 -0.0883 -1.2421  1.0344
 5889TIP3    H239159   2.395   2.184   5.688  0.0248  1.3736  0.6801
 5890TIP3   OH239160   6.753   5.151   2.488  0.6027 -0.6815 -0.2377
 5890TIP3    H139161   6.686   5.195   2.540  1.8429  0.4480  0.4489
 5890TIP3    H239162   6.819   5.126   2.552  1.1941 -1.1162 -1.0115
 5891TIP3   OH239163   6.049   3.582  12.253  0.1681 -0.2701 -0.3555
 5891TIP3    H139164   6.001   3.649  12.204 -1.4866 -0.3690  1.0170
 5891TIP3    H239165   6.068   3.623  12.337  2.3916 -0.3188 -0.7735
 5892TIP3   OH239166   5.744   1.282   5.224  0.4673  0.2785 -0.5606
 5892TIP3    H139167   5.820   1.341   5.228  0.9857 -0.3431 -1.0898
 5892TIP3    H239168   5.669   1.341   5.229  0.9667  0.8391  0.9544
 5893TIP3   OH239169   4.205   2.023  10.941 -0.4119 -0.1503 -0.2870
 5893TIP3    H139170   4.191   2.036  10.847 -1.5203  0.7977 -0.0209
 5893TIP3    H239171   4.128   2.062  10.982  1.1398  1.5629  1.1592
 5894TIP3   OH239172   0.938   6.699   3.509  1.0101  0.4230 -0.0804
 5894TIP3    H139173   0.935   6.728   3.418 -1.4180 -0.7425 -0.4558
 5894TIP3    H239174   0.875   6.755   3.554 -0.3387 -1.1743  0.1137
 5895TIP3   OH239175   0.278   1.574  11.835 -0.1102 -0.3587  0.3148
 5895TIP3    H139176   0.203   1.593  11.891  0.1484 -0.3390  0.6538
 5895TIP3    H239177   0.239   1.544  11.753 -0.5025  0.4939  0.1767
 5896TIP3   OH239178   1.516   1.554   0.423 -0.3526 -0.6044  0.5204
 5896TIP3    H139179   1.476   1.619   0.365  0.4948 -0.9188 -0.4582
 5896TIP3    H239180   1.458   1.550   0.499 -1.3535  0.0108 -0.1882
 5897TIP3   OH239181   2.977   6.429   2.739  0.0686 -0.9703 -0.3142
 5897TIP3    H139182   2.912   6.476   2.686  1.2762  1.4904  0.2235
 5897TIP3    H239183   2.992   6.347   2.692 -2.6816 -1.2073 -0.9451
 5898TIP3   OH239184   2.096   5.748  16.757  0.4725 -0.1058  0.2265
 5898TIP3    H139185   2.002   5.731  16.750  0.6953 -1.5637  0.4453
 5898TIP3    H239186   2.117   5.802  16.681 -1.0609  2.9150  1.7682
 5899TIP3   OH239187   4.494   0.576   1.670  0.3361  0.0435 -0.0502
 5899TIP3    H139188   4.419   0.617   1.626  0.9806 -0.9120 -2.1782
 5899TIP3    H239189   4.461   0.490   1.698  0.4041 -0.0370 -0.2174
 5900TIP3   OH239190   4.434   2.983   5.627  0.3559  0.4283 -0.1154
 5900TIP3    H139191   4.349   2.946   5.604  1.0437 -0.8471 -0.7167
 5900TIP3    H239192   4.439   2.975   5.722 -0.5667  1.3753  0.0275
 5901TIP3   OH239193   4.886   1.611  15.946  0.3298 -0.2837  0.0933
 5901TIP3    H139194   4.905   1.542  16.010 -1.6275 -1.1352 -0.1532
 5901TIP3    H239195   4.868   1.563  15.865  1.6429  0.7092 -0.8218
 5902TIP3   OH239196   0.018   2.526   0.466  0.9873  0.1092  0.7177
 5902TIP3    H139197  -0.038   2.474   0.524 -1.0730  1.7254  0.3311
 5902TIP3    H239198   0.039   2.467   0.394  0.9068 -0.9694  1.5602
 5903TIP3   OH239199   0.408   0.392  15.923 -0.4463 -0.1719 -0.0563
 5903TIP3    H139200   0.358   0.448  15.982 -0.9550 -0.9940  0.3190
 5903TIP3    H239201   0.485   0.366  15.973  0.1594  0.7429 -0.4809
 5904TIP3   OH239202   2.773   4.872  12.690  0.7245 -0.5773 -0.4752
 5904TIP3    H139203   2.800   4.813  12.619 -0.1983 -0.9143 -0.5622
 5904TIP3    H239204   2.682   4.847  12.708 -0.0039  1.4682 -1.1519
 5905TIP3   OH239205   1.632   5.667  12.975  0.7166 -0.0148 -0.4553
 5905TIP3    H139206   1.575   5.643  12.902  1.4074 -2.1446 -0.3617
 5905TIP3    H239207   1.721   5.666  12.937  0.9277  0.6965  0.0006
 5906TIP3   OH239208   6.453   0.585  11.842  0.2350 -0.0669 -0.1072
 5906TIP3    H139209   6.507   0.645  11.892  0.5213  0.2108 -0.7439
 5906TIP3    H239210   6.513   0.541  11.783 -0.1883  0.0057 -0.5974
 5907TIP3   OH239211   0.993   0.534  12.036  0.1775  0.6114  0.0258
 5907TIP3    H139212   1.021   0.541  11.945  0.2312 -1.6104 -0.1906
 5907TIP3    H239213   1.066   0.491  12.080 -0.2679  0.7178  0.8873
 5908TIP3   OH239214   4.020   2.691  15.044 -0.3288 -0.4437 -0.3404
 5908TIP3    H139215   4.032   2.782  15.073  0.6601 -0.9976  1.1499
 5908TIP3    H239216   4.087   2.678  14.977  1.4509 -0.8193  1.4033
 5909TIP3   OH239217   1.562   2.338  12.195 -0.0062 -0.5824 -0.1856
 5909TIP3    H139218   1.632   2.315  12.133  0.6529 -1.6645  0.9421
 5909TIP3    H239219   1.491   2.277  12.175  0.0095 -0.5944 -0.2053
 5910TIP3   OH239220   5.946   3.783  16.550 -0.0446 -1.0530  0.2288
 5910TIP3    H139221   6.018   3.795  16.613 -1.1860 -1.3707  1.6406
 5910TIP3    H239222   5.917   3.872  16.529  1.6042 -0.8400 -1.4326
 5911TIP3   OH239223   2.504   5.662   2.557  0.1943 -0.3504 -0.3828
 5911TIP3    H139224   2.475   5.751   2.577  1.9254 -0.5407  4.1817
 5911TIP3    H239225   2.571   5.672   2.490 -0.8723  1.5287 -1.2243
 5912TIP3   OH239226   6.232   2.620   0.469  0.8412 -0.0738  0.3307
 5912TIP3    H139227   6.151   2.607   0.518  1.6135 -0.3848  1.6033
 5912TIP3    H239228   6.207   2.670   0.392 -0.7680 -1.3472 -0.0048
 5913TIP3   OH239229   5.960   6.090  17.225  0.1875 -0.1065  0.0845
 5913TIP3    H139230   5.940   6.128  17.139  1.7984 -0.2047 -0.3641
 5913TIP3    H239231   6.014   6.013  17.205  0.5777 -0.1343  1.1841
 5914TIP3   OH239232   6.765   5.006  16.420 -0.1709  0.0165  0.3636
 5914TIP3    H139233   6.693   5.041  16.368 -0.8306  0.5524  1.5709
 5914TIP3    H239234   6.753   4.911  16.418 -2.0009  0.1377  1.9281
 5915TIP3   OH239235   2.262   0.254  15.515  0.0167  0.4549 -0.1778
 5915TIP3    H139236   2.338   0.269  15.571 -0.0159  2.5256 -0.6364
 5915TIP3    H239237   2.190   0.240  15.577  0.3237  0.9190  0.2903
 5916TIP3   OH239238   1.548   5.376   5.324  0.1468 -0.2220 -0.0947
 5916TIP3    H139239   1.603   5.438   5.372  1.6574 -0.3273 -1.5898
 5916TIP3    H239240   1.604   5.299   5.312 -0.1858 -0.2239 -1.9273
 5917TIP3   OH239241   1.353   2.315   0.357 -0.0330 -0.4557  0.2947
 5917TIP3    H139242   1.272   2.263   0.353 -0.1173 -0.2729 -0.5902
 5917TIP3    H239243   1.327   2.402   0.329  0.9717 -1.0545 -2.8853
 5918TIP3   OH239244   3.017   1.020  14.896 -0.2199 -0.1057  0.3190
 5918TIP3    H139245   3.036   1.084  14.965 -2.6440  1.3470 -0.2391
 5918TIP3    H239246   3.030   0.935  14.939 -0.5933  0.7598  2.2649
 5919TIP3   OH239247   1.577   2.089   3.205  0.3974 -0.1499 -0.1448
 5919TIP3    H139248   1.569   1.997   3.179 -2.0655  0.5562 -2.2179
 5919TIP3    H239249   1.621   2.131   3.131  2.0787  0.3113  1.0501
 5920TIP3   OH239250   3.082   1.149  13.759  0.5671  0.4177 -0.5601
 5920TIP3    H139251   3.023   1.219  13.789 -0.9015 -0.6769 -0.7840
 5920TIP3    H239252   3.051   1.071  13.804  2.4919 -0.0364  0.0612
 5921TIP3   OH239253   1.252   1.786   4.678 -0.0605  0.2174 -0.0092
 5921TIP3    H139254   1.170   1.833   4.664  0.3641  0.4070 -2.1575
 5921TIP3    H239255   1.301   1.841   4.739 -2.2796 -0.9228  3.0457
 5922TIP3   OH239256   1.822   4.901   3.567 -0.2330  0.7280  0.0169
 5922TIP3    H139257   1.834   4.854   3.484 -1.4327  1.5718 -0.6521
 5922TIP3    H239258   1.885   4.860   3.626  0.4132 -0.1207 -1.2093
 5923TIP3   OH239259   1.252   5.413   6.930  0.1315 -0.4169 -0.2376
 5923TIP3    H139260   1.170   5.439   6.972 -0.7481 -1.1890 -1.4001
 5923TIP3    H239261   1.241   5.320   6.911  0.2873 -0.0231 -2.5527
 5924TIP3   OH239262   4.720   2.407  13.026  0.2706  0.3691  0.2934
 5924TIP3    H139263   4.747   2.315  13.021  0.9449  0.6141 -1.3626
 5924TIP3    H239264   4.689   2.418  13.116  2.4323 -0.8578  1.2816
 5925TIP3   OH239265   4.589   5.083  16.817  0.2030 -0.4024 -0.4661
 5925TIP3    H139266   4.553   5.150  16.874  3.2361  1.4081 -0.4813
 5925TIP3    H239267   4.519   5.017  16.810 -2.8956  2.6086 -0.3363
 5926TIP3   OH239268   1.082   1.273  17.423 -0.2569 -0.2205  0.0521
 5926TIP3    H139269   1.145   1.344  17.438 -0.3800 -0.0747 -0.1228
 5926TIP3    H239270   1.042   1.294  17.339  0.5566 -1.1347 -0.5845
 5927TIP3   OH239271   2.676   0.637   3.665  0.2577  0.4259  0.4237
 5927TIP3    H139272   2.688   0.728   3.689  1.6841  0.5847 -0.7302
 5927TIP3    H239273   2.609   0.604   3.725 -1.2727  2.5614 -0.0006
 5928TIP3   OH239274   3.805   5.236  12.947 -0.1714  0.3394 -0.0090
 5928TIP3    H139275   3.882   5.186  12.919  0.5858  1.5669 -0.2134
 5928TIP3    H239276   3.748   5.236  12.870  0.4636  0.9667 -0.4978
 5929TIP3   OH239277   0.073   1.313   1.073 -0.1848 -0.9668 -0.5761
 5929TIP3    H139278   0.080   1.234   1.126  0.7799 -0.6842 -0.2456
 5929TIP3    H239279  -0.003   1.299   1.017 -1.5666 -1.0588  1.2292
 5930TIP3   OH239280   5.040   0.244  15.456  0.1141 -0.3491 -0.7895
 5930TIP3    H139281   4.947   0.259  15.476 -0.1468  0.1020 -2.1693
 5930TIP3    H239282   5.060   0.310  15.389  0.7946 -1.9014 -2.1857
 5931TIP3   OH239283   4.780   2.277  13.515  0.2190 -0.0613 -0.5907
 5931TIP3    H139284   4.705   2.314  13.468  0.7522  1.1324 -0.5371
 5931TIP3    H239285   4.742   2.235  13.592 -0.3471  1.1080 -0.2148
 5932TIP3   OH239286   3.122   3.018   5.959  0.0572 -0.2484  0.1509
 5932TIP3    H139287   3.185   3.068   5.908 -0.8001 -0.4802 -1.1748
 5932TIP3    H239288   3.134   3.049   6.049  0.0190  1.8573 -0.5174
 5933TIP3   OH239289   6.742   3.883  12.687  0.0911 -0.3847 -0.1874
 5933TIP3    H139290   6.769   3.975  12.695  0.8016 -0.7248  2.7100
 5933TIP3    H239291   6.770   3.857  12.600  1.9637  1.5364 -0.2561
 5934TIP3   OH239292   5.009   4.400  11.792 -0.1096  0.5030  0.3631
 5934TIP3    H139293   4.957   4.377  11.715  0.7779 -1.7640  0.3827
 5934TIP3    H239294   5.100   4.387  11.765  0.2365  0.1943  1.6187
 5935TIP3   OH239295   2.642   0.187   1.973 -0.0386  0.3471 -0.1941
 5935TIP3    H139296   2.694   0.154   2.046  0.2353  0.1614 -0.4699
 5935TIP3    H239297   2.705   0.199   1.902  0.4521  4.0245  0.6482
 5936TIP3   OH239298   2.475   0.755  13.597  0.1951 -0.3071 -0.0305
 5936TIP3    H139299   2.540   0.724  13.660  0.6579  1.0272  0.1915
 5936TIP3    H239300   2.443   0.676  13.554  2.5389 -0.9798 -0.7098
 5937TIP3   OH239301   5.743   0.923   0.155  0.2907  0.2590  0.8846
 5937TIP3    H139302   5.755   1.017   0.147 -0.0414  0.1938 -0.7558
 5937TIP3    H239303   5.653   0.912   0.184 -0.7996  0.4451 -2.0692
 5938TIP3   OH239304   0.745   1.398   0.484  0.7344  0.0831 -0.1227
 5938TIP3    H139305   0.673   1.414   0.546  1.4128  0.8536  0.5002
 5938TIP3    H239306   0.704   1.403   0.398 -0.4462 -2.0938  0.2448
 5939TIP3   OH239307   2.063   5.946   0.191  0.2957 -0.4713  0.7096
 5939TIP3    H139308   2.015   6.021   0.156 -1.0072 -1.9457 -0.8064
 5939TIP3    H239309   2.146   5.946   0.143 -0.0299 -0.4455  0.1408
 5940TIP3   OH239310   3.214   6.743   5.353 -0.1069  0.2363 -0.4820
 5940TIP3    H139311   3.222   6.687   5.276 -0.2275  0.3114 -0.5504
 5940TIP3    H239312   3.129   6.787   5.342 -0.7677 -0.7703  0.3663
 5941TIP3   OH239313   4.906   2.610   4.331 -0.2703 -0.5642 -0.3005
 5941TIP3    H139314   4.884   2.520   4.304 -3.3037  0.2325 -0.9831
 5941TIP3    H239315   4.912   2.606   4.426 -0.2873 -1.5173 -0.3271
 5942TIP3   OH239316   3.313   6.587  14.941 -0.1477 -0.0483  0.1175
 5942TIP3    H139317   3.309   6.628  14.855 -1.0096 -0.2390  0.0618
 5942TIP3    H239318   3.350   6.655  14.998  1.1343 -0.1699 -0.5344
 5943TIP3   OH239319   3.418   6.559  15.984 -0.4096  0.5806  0.2416
 5943TIP3    H139320   3.466   6.477  15.978  2.1729  1.9536  0.6385
 5943TIP3    H239321   3.352   6.553  15.915  0.1672 -1.5082 -0.1979
 5944TIP3   OH239322   2.259   4.375   4.335  0.6747  0.3683 -0.4566
 5944TIP3    H139323   2.270   4.350   4.243  1.3215  1.1353 -0.5928
 5944TIP3    H239324   2.201   4.308   4.371 -1.9333  1.5570 -2.1205
 5945TIP3   OH239325   3.270   2.673   3.891 -0.0027  0.1129  0.2245
 5945TIP3    H139326   3.281   2.682   3.986  0.3266  0.2365  0.1766
 5945TIP3    H239327   3.202   2.737   3.869  2.2512  2.5778 -0.0937
 5946TIP3   OH239328   6.091   5.809   3.807 -0.1515 -0.2304  0.0124
 5946TIP3    H139329   6.049   5.884   3.764  0.1354 -1.4029 -2.4940
 5946TIP3    H239330   6.029   5.737   3.796 -0.2243 -0.5289  1.9896
 5947TIP3   OH239331   3.460   2.640   5.655 -0.3636  0.0135  1.3043
 5947TIP3    H139332   3.549   2.614   5.675  0.3707  0.8190 -0.6775
 5947TIP3    H239333   3.417   2.645   5.740  1.2388 -1.1507  2.2381
 5948TIP3   OH239334   6.592   2.791   5.514  0.1846 -0.5783 -0.3168
 5948TIP3    H139335   6.669   2.842   5.490  0.7352 -1.0354  0.4221
 5948TIP3    H239336   6.596   2.786   5.610 -0.6934 -0.7196 -0.2802
 5949TIP3   OH239337   5.235   1.816  17.099  0.0739  0.4829 -0.2827
 5949TIP3    H139338   5.165   1.760  17.066 -0.0463 -0.6155  1.7180
 5949TIP3    H239339   5.290   1.758  17.150 -0.0845  2.1514  1.9236
 5950TIP3   OH239340   3.537   0.917  12.002  0.0593  0.3411  0.5220
 5950TIP3    H139341   3.483   0.843  12.027 -1.3722  1.7427  1.8268
 5950TIP3    H239342   3.604   0.923  12.071  0.7582 -0.2655 -0.0851
 5951TIP3   OH239343   3.558   0.009   1.099  0.3958 -0.0221 -0.0656
 5951TIP3    H139344   3.571  -0.066   1.041  2.7591 -0.0029  0.3127
 5951TIP3    H239345   3.568  -0.028   1.187 -0.2380  0.4271  0.1952
 5952TIP3   OH239346   6.141   5.208  13.815 -0.1187 -0.1595 -0.6368
 5952TIP3    H139347   6.064   5.193  13.759 -0.4329  1.9188 -0.8365
 5952TIP3    H239348   6.203   5.254  13.759  0.5931 -0.3040  0.0189
 5953TIP3   OH239349   0.654   2.102  17.402 -0.5882 -0.1472 -0.1382
 5953TIP3    H139350   0.744   2.116  17.371 -0.2497  0.3428  1.0366
 5953TIP3    H239351   0.650   2.007  17.418 -0.3982 -0.2270 -0.5400
 5954TIP3   OH239352   1.415   2.950  13.050 -0.2699  0.3433 -0.2043
 5954TIP3    H139353   1.355   3.024  13.039  0.2142  0.6369 -0.9644
 5954TIP3    H239354   1.409   2.902  12.967 -0.9211 -0.7425  0.4404
 5955TIP3   OH239355   4.515   2.017   0.228 -0.0594  0.2977 -0.4825
 5955TIP3    H139356   4.436   1.977   0.191 -0.8925  0.7728  0.7112
 5955TIP3    H239357   4.537   2.087   0.167 -0.5958  0.2078 -0.7839
 5956TIP3   OH239358   6.478   0.393  13.732 -0.2179  0.7861 -0.2352
 5956TIP3    H139359   6.506   0.390  13.823 -1.1101  0.8394  0.0504
 5956TIP3    H239360   6.423   0.471  13.726  1.6045  2.0650 -1.3654
 5957TIP3   OH239361   3.581   1.295   2.551 -0.4370 -0.5183  0.2344
 5957TIP3    H139362   3.642   1.229   2.519  0.8997  1.0598 -0.6096
 5957TIP3    H239363   3.525   1.248   2.613 -0.4896 -2.7530 -1.3851
 5958TIP3   OH239364   4.500   4.258   2.524  0.3040 -0.2831  0.1840
 5958TIP3    H139365   4.456   4.292   2.601 -1.8775 -1.1484 -0.6171
 5958TIP3    H239366   4.502   4.163   2.537 -0.8003 -0.5166 -1.1336
 5959TIP3   OH239367   4.281   2.403   1.241  0.1507 -0.3112  0.1153
 5959TIP3    H139368   4.211   2.465   1.224  1.8730  2.0245  1.0260
 5959TIP3    H239369   4.304   2.369   1.154 -0.5785  0.6379 -0.4649
 5960TIP3   OH239370   2.173   2.611   0.712 -0.0544 -0.3120 -0.3648
 5960TIP3    H139371   2.110   2.644   0.776  0.9139  1.0114 -0.0361
 5960TIP3    H239372   2.157   2.517   0.709 -0.5810 -0.3244  1.3516
 5961TIP3   OH239373   3.916   2.304   5.866 -0.7432 -0.5019  0.1771
 5961TIP3    H139374   3.902   2.394   5.897  0.1352 -0.7659  1.3785
 5961TIP3    H239375   3.916   2.312   5.771  0.8591  1.0365  0.2560
 5962TIP3   OH239376   2.385   2.958  16.544  0.2581  0.2151 -0.5734
 5962TIP3    H139377   2.354   2.919  16.462 -2.4554 -1.9778  1.2831
 5962TIP3    H239378   2.398   2.883  16.602 -3.5853  1.7058  2.7194
 5963TIP3   OH239379   4.903   4.259   1.776  0.2771 -0.0014 -0.6494
 5963TIP3    H139380   4.965   4.331   1.784  0.3238 -0.2030  1.2824
 5963TIP3    H239381   4.927   4.199   1.846 -0.9248 -1.0050 -1.0564
 5964TIP3   OH239382   1.596   3.243  15.325  0.0234 -0.1371  0.3040
 5964TIP3    H139383   1.612   3.157  15.364  0.5875  0.4124  1.3092
 5964TIP3    H239384   1.534   3.225  15.253 -0.4639 -1.2687  0.9763
 5965TIP3   OH239385   3.713   2.525  12.717  0.0823  0.3162 -0.0007
 5965TIP3    H139386   3.731   2.434  12.692  0.5484  0.3148  0.3213
 5965TIP3    H239387   3.748   2.533  12.805 -0.1067  0.7656  0.0365
 5966TIP3   OH239388   5.784   0.293  14.714  1.3716  0.1488 -0.1284
 5966TIP3    H139389   5.830   0.376  14.725  0.5528  0.4967  0.8742
 5966TIP3    H239390   5.731   0.285  14.793  1.3974 -1.3088 -0.2474
 5967TIP3   OH239391   0.512   4.455  16.118  0.4375  0.5937  0.2931
 5967TIP3    H139392   0.607   4.460  16.128  0.4834 -0.3849  0.4901
 5967TIP3    H239393   0.476   4.484  16.202  0.7290 -4.0071  2.2982
 5968TIP3   OH239394   2.398   0.509   5.274  0.2266 -0.3413 -0.3347
 5968TIP3    H139395   2.398   0.605   5.273 -2.8251 -0.2090  0.8086
 5968TIP3    H239396   2.386   0.484   5.183 -4.0730  0.6822 -0.2676
 5969TIP3   OH239397   4.814   2.842   6.478  0.2374  0.5098 -0.0855
 5969TIP3    H139398   4.768   2.845   6.562 -0.0276  0.5215 -0.2310
 5969TIP3    H239399   4.891   2.897   6.491 -0.1894  1.1091 -0.0842
 5970TIP3   OH239400   4.335   2.979  11.688 -0.2142  0.2084  0.3788
 5970TIP3    H139401   4.267   2.912  11.685 -0.3537  0.2818  1.5544
 5970TIP3    H239402   4.314   3.037  11.614 -1.1749 -0.0068  0.4636
 5971TIP3   OH239403   4.641   3.308   4.266 -0.1304  0.2403 -0.1962
 5971TIP3    H139404   4.624   3.254   4.344  0.2896 -0.4786 -0.5894
 5971TIP3    H239405   4.573   3.281   4.204  0.3988 -0.2326 -0.5821
 5972TIP3   OH239406   0.343   4.212  13.480  0.1813 -0.1482  0.3580
 5972TIP3    H139407   0.379   4.193  13.393  3.1093  1.6092  1.0614
 5972TIP3    H239408   0.249   4.219  13.465  0.0978 -3.6748 -1.9039
 5973TIP3   OH239409   3.099   5.904  15.853 -0.4196  0.5734 -0.3113
 5973TIP3    H139410   3.169   5.840  15.839 -1.9635 -0.6997 -2.8847
 5973TIP3    H239411   3.028   5.854  15.894 -1.1233  0.9776 -1.0184
 5974TIP3   OH239412   2.850   4.848  14.811  0.0627 -0.5709  0.0776
 5974TIP3    H139413   2.792   4.916  14.777  1.5435  1.4178  1.2774
 5974TIP3    H239414   2.937   4.872  14.777  0.4948 -2.4935 -0.3116
 5975TIP3   OH239415   0.368   5.957  13.111  0.0662  0.9599 -0.1634
 5975TIP3    H139416   0.429   5.891  13.077 -0.5130 -1.4311  2.9779
 5975TIP3    H239417   0.282   5.927  13.080  0.0259  1.8114 -0.9159
 5976TIP3   OH239418   3.775   6.127  13.483  0.5225 -0.4221 -0.0910
 5976TIP3    H139419   3.707   6.152  13.545  0.5190  1.2506 -0.7194
 5976TIP3    H239420   3.729   6.117  13.400  0.6159 -2.1053  0.0293
 5977TIP3   OH239421   0.523   0.787  14.128 -0.1277  0.6419  0.0363
 5977TIP3    H139422   0.444   0.736  14.148 -1.8046  2.5866 -1.2242
 5977TIP3    H239423   0.534   0.843  14.204 -0.9408  1.4613 -0.4247
 5978TIP3   OH239424   1.990   5.611  12.073 -0.0485  0.9795  0.0618
 5978TIP3    H139425   1.973   5.535  12.018 -1.5644  1.1721  0.2172
 5978TIP3    H239426   2.037   5.672  12.016  2.3681 -0.5177  0.3015
 5979TIP3   OH239427   2.146   3.133  12.894 -0.0831 -0.0578  0.1574
 5979TIP3    H139428   2.059   3.150  12.857 -0.2614 -0.3791  0.4213
 5979TIP3    H239429   2.204   3.127  12.817 -0.8495 -3.1669 -0.3142
 5980TIP3   OH239430   5.908   4.026   3.321 -0.0411 -0.3398  0.3019
 5980TIP3    H139431   5.850   4.102   3.318  0.0646 -0.2483 -2.6874
 5980TIP3    H239432   5.978   4.047   3.259  0.1074 -2.7428 -0.4488
 5981TIP3   OH239433   6.145   0.447  11.267 -0.0509 -0.0574  0.7446
 5981TIP3    H139434   6.192   0.517  11.221  0.0328 -1.1744 -0.9465
 5981TIP3    H239435   6.214   0.393  11.305  0.0918 -1.3884 -1.2763
 5982TIP3   OH239436   5.282   1.976   0.882 -0.4438  0.2397 -0.0345
 5982TIP3    H139437   5.197   1.992   0.923  0.1765  0.6930  1.1292
 5982TIP3    H239438   5.290   2.043   0.815 -0.4056  1.1137  0.8213
 5983TIP3   OH239439   0.550   5.723   2.646  0.0580 -0.3984  0.1625
 5983TIP3    H139440   0.497   5.644   2.634  0.4787 -0.6758  0.1365
 5983TIP3    H239441   0.607   5.703   2.720 -2.2240  1.1401  2.4886
 5984TIP3   OH239442   1.088   6.377  14.683  0.4859 -0.3496 -0.6660
 5984TIP3    H139443   1.151   6.433  14.727 -0.9409 -0.2085  1.3672
 5984TIP3    H239444   1.084   6.409  14.593  1.2820  1.4023 -0.1089
 5985TIP3   OH239445   2.713   2.276   2.561  0.1536 -0.3203 -0.0251
 5985TIP3    H139446   2.708   2.242   2.650  0.4028  0.3495  0.2493
 5985TIP3    H239447   2.747   2.203   2.509  1.2485 -0.3192  0.6597
 5986TIP3   OH239448   6.493   3.528   4.034  0.5840 -0.3551  0.1298
 5986TIP3    H139449   6.572   3.581   4.034  0.9465 -0.8642 -0.9033
 5986TIP3    H239450   6.424   3.588   4.005  0.6786 -0.0470  0.5293
 5987TIP3   OH239451   3.092   2.324  13.943  0.0814  0.2612 -0.2282
 5987TIP3    H139452   3.168   2.317  14.001  0.5012 -2.4582 -0.9628
 5987TIP3    H239453   3.027   2.266  13.981 -1.3702  1.8890 -0.0921
 5988TIP3   OH239454   0.797   4.888  13.421 -0.9904  0.2115 -0.9326
 5988TIP3    H139455   0.789   4.951  13.349 -0.8128  3.3403  1.5734
 5988TIP3    H239456   0.707   4.859  13.437 -1.2922  0.9663 -1.1986
 5989TIP3   OH239457   1.840   0.227   0.999 -0.1113 -0.0559  0.0661
 5989TIP3    H139458   1.882   0.274   1.071 -1.3790  1.8412 -0.3516
 5989TIP3    H239459   1.873   0.269   0.919  0.0966 -1.0980 -0.4149
 5990TIP3   OH239460   5.460   1.257   3.983  0.2029 -0.4481  0.1253
 5990TIP3    H139461   5.444   1.247   3.889  1.1239  1.7742 -0.3408
 5990TIP3    H239462   5.408   1.188   4.024 -2.0182 -0.0773 -1.8577
 5991TIP3   OH239463   2.669   1.792  12.242 -0.4369  0.3299 -0.4916
 5991TIP3    H139464   2.729   1.865  12.231  0.2062 -0.0425  0.4213
 5991TIP3    H239465   2.649   1.764  12.153 -0.6783  1.5928 -0.8563
 5992TIP3   OH239466   2.115   2.781  15.364  0.1670 -0.2644 -0.2537
 5992TIP3    H139467   2.043   2.843  15.354 -0.3761 -0.3966  2.2929
 5992TIP3    H239468   2.076   2.705  15.405  1.0234 -1.9947 -2.4434
 5993TIP3   OH239469   5.036   0.709  11.527  0.0587 -0.2089 -0.1473
 5993TIP3    H139470   5.090   0.787  11.537 -0.8070  0.4486 -0.4966
 5993TIP3    H239471   5.025   0.675  11.616 -1.1289  1.1656  0.2797
 5994TIP3   OH239472   5.138   1.940   3.047 -0.1374  0.0218 -0.4465
 5994TIP3    H139473   5.084   1.995   3.104  0.5283 -1.0766  1.3383
 5994TIP3    H239474   5.226   1.977   3.054 -0.0997  0.0506 -1.0128
 5995TIP3   OH239475   2.792   1.849  13.757 -0.3077 -0.1348 -0.3043
 5995TIP3    H139476   2.808   1.770  13.706 -0.3457  0.1935 -0.8425
 5995TIP3    H239477   2.831   1.919  13.705 -0.4005  0.2166  0.0926
 5996TIP3   OH239478   5.607   2.570   2.775 -0.2264  0.0525  0.5617
 5996TIP3    H139479   5.525   2.542   2.816 -0.9140  0.6854 -0.3362
 5996TIP3    H239480   5.675   2.520   2.821 -1.0586 -0.1056  1.6670
 5997TIP3   OH239481   2.816   0.222   3.777  0.8929 -0.4671  0.1947
 5997TIP3    H139482   2.790   0.275   3.853  0.8583  0.3465 -0.3779
 5997TIP3    H239483   2.880   0.275   3.731 -0.3312 -0.2026 -1.2828
 5998TIP3   OH239484   5.795   0.180   1.601  0.1166 -0.2001 -0.2866
 5998TIP3    H139485   5.739   0.256   1.589  1.2108  0.4590 -1.4499
 5998TIP3    H239486   5.734   0.106   1.604 -0.8979  0.6174 -0.0700
 5999TIP3   OH239487   3.728   2.563  16.946  0.2041  0.3496 -0.0382
 5999TIP3    H139488   3.812   2.605  16.961  0.3668  0.6080 -1.5476
 5999TIP3    H239489   3.671   2.632  16.913  0.1695 -0.3275 -1.5222
 6000TIP3   OH239490   0.517   4.954  12.159 -0.4133  0.0798 -0.3948
 6000TIP3    H139491   0.509   4.905  12.077  2.1137 -0.2535 -0.5377
 6000TIP3    H239492   0.524   4.886  12.226 -1.6284  0.3432  0.0158
 6001TIP3   OH239493   0.306   2.355  11.872 -0.4498 -0.0725  0.5039
 6001TIP3    H139494   0.259   2.380  11.792 -0.2494  0.5769  0.5885
 6001TIP3    H239495   0.238   2.320  11.929 -0.4262 -1.7116 -0.4050
 6002TIP3   OH239496   4.493   4.126  14.803 -0.4550  0.2127  0.0331
 6002TIP3    H139497   4.511   4.046  14.754  1.6133  1.5164 -1.4781
 6002TIP3    H239498   4.409   4.109  14.847 -1.1332 -1.9754 -1.9277
 6003TIP3   OH239499   5.823   1.926   3.347  0.2367  0.5124  0.0231
 6003TIP3    H139500   5.827   1.991   3.277  0.0381 -0.9015 -1.3396
 6003TIP3    H239501   5.731   1.924   3.372 -0.1847 -0.7686 -1.4715
 6004TIP3   OH239502   6.180   5.317   5.398 -0.0307 -0.5106 -0.4831
 6004TIP3    H139503   6.124   5.281   5.329  1.3978 -1.9199 -0.9804
 6004TIP3    H239504   6.148   5.274   5.478 -1.2103  0.5722 -0.3281
 6005TIP3   OH239505   0.279   6.715  14.921  0.2573 -0.0681  0.3379
 6005TIP3    H139506   0.306   6.735  14.831  1.3674 -0.8950  0.4638
 6005TIP3    H239507   0.262   6.621  14.920  0.3664 -0.0973  1.0231
 6006TIP3   OH239508   1.600   2.373  13.885  0.0693  0.0918  0.0360
 6006TIP3    H139509   1.609   2.419  13.802  1.2291 -0.7429 -0.3297
 6006TIP3    H239510   1.535   2.424  13.934 -0.8453  0.4385 -1.4782
 6007TIP3   OH239511   5.544   3.554  14.682  0.1257  0.1050  0.1276
 6007TIP3    H139512   5.462   3.591  14.649 -0.2536 -2.3388 -1.9693
 6007TIP3    H239513   5.526   3.460  14.692  2.3393 -0.3234  0.7020
 6008TIP3   OH239514   6.717   3.919   6.438  0.2866  0.0624 -0.3666
 6008TIP3    H139515   6.650   3.946   6.376 -0.0875 -0.1976 -0.0746
 6008TIP3    H239516   6.720   3.990   6.503  0.9870  0.5495 -0.9104
 6009TIP3   OH239517   1.055   0.444  13.834 -0.2986 -0.0976 -0.2174
 6009TIP3    H139518   1.105   0.422  13.913 -1.4009  0.3845  0.6280
 6009TIP3    H239519   1.017   0.360  13.806  0.1968 -0.2916 -0.3220
 6010TIP3   OH239520   6.701   5.841  11.303  0.1897 -0.3214  0.4617
 6010TIP3    H139521   6.613   5.829  11.268  1.0977  0.0381 -2.2195
 6010TIP3    H239522   6.705   5.934  11.326 -0.9595 -0.9011  3.3700
 6011TIP3   OH239523   0.141   4.016   5.861 -0.2791  0.0406  0.4206
 6011TIP3    H139524   0.047   4.013   5.845 -0.2585  0.4063  0.2257
 6011TIP3    H239525   0.158   3.942   5.920 -0.9881  1.1197  2.0476
 6012TIP3   OH239526   6.365   3.564   0.853  0.9486  0.4662 -0.7194
 6012TIP3    H139527   6.458   3.563   0.831  1.4738  0.2810  1.3349
 6012TIP3    H239528   6.349   3.477   0.891 -0.1608  0.3774 -1.3406
 6013TIP3   OH239529   5.997   2.065  14.063  0.8072  0.0856  0.1035
 6013TIP3    H139530   6.027   2.044  14.151  1.8486  2.0066  0.2604
 6013TIP3    H239531   5.935   1.995  14.041  2.7034 -2.0458  1.1908
 6014TIP3   OH239532   0.500   5.514   4.220  0.7401 -0.3732  0.4250
 6014TIP3    H139533   0.560   5.559   4.279 -0.6814  0.0160  1.6302
 6014TIP3    H239534   0.478   5.433   4.266 -1.4538  0.5547  1.1512
 6015TIP3   OH239535   4.196   1.678  13.016 -0.0249  0.3413 -0.3920
 6015TIP3    H139536   4.254   1.619  13.063  0.1710 -0.0366 -1.0948
 6015TIP3    H239537   4.253   1.725  12.955 -0.4533 -0.1028 -1.1555
 6016TIP3   OH239538   2.016   4.393   2.813  0.1883 -0.5636 -0.4554
 6016TIP3    H139539   1.945   4.366   2.755 -0.2513  0.0176 -0.1909
 6016TIP3    H239540   2.066   4.312   2.829 -2.2049 -1.7414  1.8845
 6017TIP3   OH239541   1.138   1.147   3.068  0.2414 -0.6036 -0.0398
 6017TIP3    H139542   1.143   1.222   3.008 -3.0634  0.2316  0.5246
 6017TIP3    H239543   1.175   1.179   3.150  0.6599 -0.2486 -0.3655
 6018TIP3   OH239544   6.753   5.602  14.006  0.1392 -0.0696 -0.1868
 6018TIP3    H139545   6.786   5.614  13.916  0.0737  0.3620 -0.1547
 6018TIP3    H239546   6.827   5.562  14.053  0.5229  0.6313 -0.1872
 6019TIP3   OH239547   1.354   3.427  11.715  0.7314  0.0596  0.1839
 6019TIP3    H139548   1.338   3.521  11.701 -0.7312 -0.2672 -0.6147
 6019TIP3    H239549   1.309   3.408  11.797 -0.2540 -0.2067 -0.3957
 6020TIP3   OH239550   2.656   0.113   2.291 -0.1552 -0.4962 -0.5348
 6020TIP3    H139551   2.617   0.077   2.371 -0.8485  1.0704 -0.1288
 6020TIP3    H239552   2.750   0.112   2.308 -0.3119  0.1718  0.4816
 6021TIP3   OH239553   1.611   2.117   3.489  0.4868 -0.4002 -0.2853
 6021TIP3    H139554   1.598   2.116   3.394 -1.0786 -0.8620 -0.1038
 6021TIP3    H239555   1.532   2.075   3.524  0.9853 -0.1325  1.2303
 6022TIP3   OH239556   1.173   4.227   6.029 -0.4755  0.0219  0.8162
 6022TIP3    H139557   1.084   4.206   6.001 -0.3477  0.7458 -0.1828
 6022TIP3    H239558   1.166   4.246   6.122 -1.4714  0.6353  0.6226
 6023TIP3   OH239559   3.302   5.959  15.386  0.0760 -0.3275  0.3390
 6023TIP3    H139560   3.343   5.872  15.388  0.1381 -0.4309 -2.1928
 6023TIP3    H239561   3.209   5.941  15.402  0.4082 -0.5228  2.3180
 6024TIP3   OH239562   5.550   3.854  12.776  0.4162 -0.3546  0.1955
 6024TIP3    H139563   5.553   3.764  12.742 -3.0051 -1.1815  1.6486
 6024TIP3    H239564   5.460   3.883  12.758  0.7745  1.9473  1.7351
 6025TIP3   OH239565   1.393   4.555  16.848 -0.5342 -0.3574 -0.7508
 6025TIP3    H139566   1.484   4.551  16.819  0.6051 -2.5619  2.5321
 6025TIP3    H239567   1.344   4.511  16.779  0.9376  0.2969 -2.2937
 6026TIP3   OH239568   3.347   0.017  11.831  0.0506  0.0984 -0.0133
 6026TIP3    H139569   3.365   0.015  11.737  0.6487  0.6264  0.0810
 6026TIP3    H239570   3.357  -0.074  11.859  0.1677 -0.0143 -0.4153
 6027TIP3   OH239571   6.617   0.157  11.314 -0.0641 -0.3638  0.6975
 6027TIP3    H139572   6.644   0.161  11.222  0.0987 -2.0962  0.6226
 6027TIP3    H239573   6.552   0.226  11.323 -0.0492 -0.1270 -0.7148
 6028TIP3   OH239574   5.107   4.620   3.770 -0.2084 -0.5140 -0.0398
 6028TIP3    H139575   5.063   4.601   3.852 -0.3306  0.1315  0.0514
 6028TIP3    H239576   5.085   4.711   3.751  1.3359 -0.0643  0.1655
 6029TIP3   OH239577   1.640   0.665  10.826 -0.1978  0.3349 -0.3356
 6029TIP3    H139578   1.589   0.612  10.765 -1.8741  0.1949  1.1011
 6029TIP3    H239579   1.576   0.728  10.862  0.9994  1.1808  0.3876
 6030TIP3   OH239580   4.094   2.129  14.309  0.2940 -0.1270 -0.1411
 6030TIP3    H139581   4.021   2.135  14.248  0.4974 -0.2410 -0.3947
 6030TIP3    H239582   4.071   2.191  14.379 -1.3104 -2.0445  1.1219
 6031TIP3   OH239583   5.211   6.587   3.676 -0.1444 -0.4774 -0.4802
 6031TIP3    H139584   5.133   6.643   3.680 -0.5391 -0.9748 -1.0792
 6031TIP3    H239585   5.276   6.633   3.730 -1.5289 -1.1874  1.9242
 6032TIP3   OH239586   1.062   3.755   3.079  0.0722  0.3017  0.7904
 6032TIP3    H139587   1.037   3.841   3.047 -0.9213 -0.5478 -0.9010
 6032TIP3    H239588   0.979   3.707   3.087  0.6810 -0.8456  0.5532
 6033TIP3   OH239589   2.874   6.497   0.804  0.6828  0.2858  0.0751
 6033TIP3    H139590   2.934   6.571   0.806 -1.4748  2.1824 -1.0915
 6033TIP3    H239591   2.788   6.536   0.819 -0.6570 -1.8324 -1.6229
 6034TIP3   OH239592   3.501   1.674   5.370  0.2123  0.0026 -0.2211
 6034TIP3    H139593   3.451   1.594   5.388  0.9018 -0.1863  1.0083
 6034TIP3    H239594   3.507   1.718   5.455  2.6539 -0.3147 -0.1475
 6035TIP3   OH239595   2.740   4.619  13.495  0.2938  0.7565  0.2225
 6035TIP3    H139596   2.832   4.626  13.521  0.2342  0.1583  0.6235
 6035TIP3    H239597   2.709   4.540  13.539 -0.0551  0.1882 -1.0074
 6036TIP3   OH239598   2.752   0.003  14.600 -0.1344  0.7962  0.1304
 6036TIP3    H139599   2.786  -0.077  14.560  0.8317  0.8659  0.7647
 6036TIP3    H239600   2.713  -0.026  14.683 -1.4449  0.7506 -0.4812
 6037TIP3   OH239601   5.317   2.822   3.899  0.0882 -0.4196  0.3770
 6037TIP3    H139602   5.387   2.777   3.852  1.3640  2.0215 -0.2174
 6037TIP3    H239603   5.272   2.874   3.833 -2.1559 -1.6876  0.8129
 6038TIP3   OH239604   3.054   4.390  11.244 -0.0377 -0.3454 -0.4986
 6038TIP3    H139605   3.000   4.311  11.236  0.6492 -0.7157 -1.9016
 6038TIP3    H239606   3.008   4.456  11.192 -0.2884  0.0132  0.1628
 6039TIP3   OH239607   1.271   0.046  13.352  0.3799 -0.0128 -1.0527
 6039TIP3    H139608   1.176   0.038  13.343 -0.0147 -1.2905  2.6477
 6039TIP3    H239609   1.283   0.123  13.408  1.5369 -0.0404 -1.2316
 6040TIP3   OH239610   0.063   1.393   0.700  0.2154  0.1983 -0.1508
 6040TIP3    H139611   0.035   1.361   0.786 -0.5893 -0.3831 -0.6097
 6040TIP3    H239612   0.097   1.481   0.717 -0.4685  0.3201  0.6781
 6041TIP3   OH239613   3.246   0.417   2.016 -0.5502 -0.0613  0.1089
 6041TIP3    H139614   3.297   0.361   2.075  1.8685  2.2840  0.4502
 6041TIP3    H239615   3.253   0.374   1.931  0.2560 -0.8804  0.5651
 6042TIP3   OH239616   4.870   3.112  12.327  0.3797  0.4235 -0.0174
 6042TIP3    H139617   4.796   3.124  12.267 -0.5745  0.0055  1.0455
 6042TIP3    H239618   4.886   3.200  12.362  1.3437  0.7959 -1.2921
 6043TIP3   OH239619   3.257   6.531  12.229  0.3975 -0.0445 -0.0117
 6043TIP3    H139620   3.200   6.506  12.156 -0.6897 -1.1794  1.1629
 6043TIP3    H239621   3.222   6.615  12.258 -0.9059 -0.8367  0.8462
 6044TIP3   OH239622   4.071   3.141   6.187  0.0696 -0.6121  0.5872
 6044TIP3    H139623   4.011   3.178   6.252  1.9054 -0.2378  2.1583
 6044TIP3    H239624   4.081   3.211   6.122  0.8785  0.4262  1.7635
 6045TIP3   OH239625   4.892   2.477  14.508 -0.5196 -0.0714 -0.6151
 6045TIP3    H139626   4.849   2.553  14.547 -1.1074 -0.3160 -0.7784
 6045TIP3    H239627   4.924   2.509  14.423  0.8762  0.4962  0.0904
 6046TIP3   OH239628   1.744   5.139   2.141 -0.5277  0.3960  0.0493
 6046TIP3    H139629   1.684   5.085   2.191 -0.5231 -0.9015 -1.2739
 6046TIP3    H239630   1.831   5.110   2.168 -0.5153  0.3309 -0.0619
 6047TIP3   OH239631   5.725   2.513   1.533 -0.3816 -0.2840  0.2002
 6047TIP3    H139632   5.655   2.468   1.486  0.0143 -0.3254 -0.3585
 6047TIP3    H239633   5.684   2.593   1.566 -0.5580 -0.0285 -0.6037
 6048TIP3   OH239634   3.101   0.183   5.086  0.0670  0.1453  0.1015
 6048TIP3    H139635   3.092   0.142   5.000  0.2008  1.1649 -0.4124
 6048TIP3    H239636   3.192   0.214   5.088 -0.8871  3.4890 -0.9826
 6049TIP3   OH239637   6.081   3.105   5.559  0.0671  0.0061  0.2568
 6049TIP3    H139638   6.070   3.092   5.653  0.9848  1.1083  0.5421
 6049TIP3    H239639   6.077   3.200   5.548  0.0534 -0.1102 -0.8063
 6050TIP3   OH239640   1.242   2.043  16.436  0.4686 -0.9012 -0.4960
 6050TIP3    H139641   1.272   1.958  16.468  0.5832 -0.8299 -0.4125
 6050TIP3    H239642   1.190   2.079  16.509  0.1096 -1.0620 -0.6710
 6051TIP3   OH239643   2.490   5.962   2.474  0.0823 -0.6416  0.4828
 6051TIP3    H139644   2.572   5.953   2.426  0.5528 -0.4052  1.2360
 6051TIP3    H239645   2.436   6.018   2.418  1.0736  0.6523  0.7745
 6052TIP3   OH239646   2.470   0.937  16.951 -0.0138  0.4231 -0.2159
 6052TIP3    H139647   2.462   1.023  16.910  1.0260  0.5359 -0.2207
 6052TIP3    H239648   2.519   0.885  16.888  1.2769  0.4861  0.6921
 6053TIP3   OH239649   4.918   5.157  12.770  0.1984 -0.0355 -0.1825
 6053TIP3    H139650   4.830   5.157  12.809 -0.3985 -1.2659 -1.4357
 6053TIP3    H239651   4.903   5.174  12.677  1.2710 -0.4683 -0.4451
 6054TIP3   OH239652   4.591   2.172  17.277  0.3376  0.3388 -0.0873
 6054TIP3    H139653   4.523   2.106  17.289 -2.5000  3.1483  0.5670
 6054TIP3    H239654   4.615   2.166  17.185 -0.1493 -1.2644 -0.1395
 6055TIP3   OH239655   2.004   2.805  16.872  0.2056  0.0307  0.3908
 6055TIP3    H139656   2.058   2.802  16.951  1.9220  0.1732 -0.7347
 6055TIP3    H239657   1.942   2.733  16.883  0.1245  0.3133  2.0442
 6056TIP3   OH239658   1.844   0.400  16.677  0.2675 -0.7992 -0.2447
 6056TIP3    H139659   1.804   0.394  16.590  0.4263  0.5381 -0.4481
 6056TIP3    H239660   1.935   0.425  16.659 -0.0911  1.0732  0.3149
 6057TIP3   OH239661   6.553   1.894   3.784  0.0680 -0.1278 -0.6034
 6057TIP3    H139662   6.588   1.876   3.871 -3.2628  0.8819  1.1452
 6057TIP3    H239663   6.617   1.953   3.743  1.0829  0.4677  1.7167
 6058TIP3   OH239664   4.103   2.739   6.395  0.6829  0.7421 -0.1234
 6058TIP3    H139665   4.116   2.689   6.475 -0.1204 -0.8898 -0.9613
 6058TIP3    H239666   4.145   2.824   6.412  1.1113  0.1928  1.7484
 6059TIP3   OH239667   1.972   0.626   0.641 -0.1093 -0.5045 -0.5779
 6059TIP3    H139668   1.976   0.669   0.556 -1.9221  0.9257  0.0021
 6059TIP3    H239669   2.034   0.674   0.695  0.9255 -1.3137 -1.0014
 6060TIP3   OH239670   2.502   6.206  16.707  0.0890 -0.1896 -0.5587
 6060TIP3    H139671   2.588   6.247  16.696 -0.3134  0.5258 -1.1075
 6060TIP3    H239672   2.497   6.141  16.637 -0.0270  0.1306 -0.8472
 6061TIP3   OH239673   3.006   4.518  11.521 -0.2118 -0.4368  0.6300
 6061TIP3    H139674   3.014   4.487  11.431 -0.8828  1.5562 -0.1857
 6061TIP3    H239675   3.081   4.577  11.532 -1.7100  1.6467  0.2881
 6062TIP3   OH239676   2.349   2.646   3.579 -0.2259 -0.9409 -0.2284
 6062TIP3    H139677   2.438   2.680   3.571  0.1549 -1.9336 -0.3394
 6062TIP3    H239678   2.343   2.616   3.670 -1.3164  1.4430  0.5571
 6063TIP3   OH239679   0.580   5.087  17.027  0.0028 -0.1920 -0.3716
 6063TIP3    H139680   0.630   5.123  17.101 -0.2070  0.2358 -0.4331
 6063TIP3    H239681   0.625   5.121  16.949  0.7064 -1.2948 -0.4574
 6064TIP3   OH239682   6.751   6.475  16.304 -0.5187 -0.0978 -0.0952
 6064TIP3    H139683   6.826   6.504  16.356 -0.4193  1.1306 -0.8758
 6064TIP3    H239684   6.786   6.407  16.247  0.0483  0.5507 -0.5371
 6065TIP3   OH239685   1.001   5.352   5.631 -0.4609  0.1992  0.3706
 6065TIP3    H139686   1.036   5.398   5.708  1.2091 -0.5922  0.1289
 6065TIP3    H239687   1.043   5.266   5.634 -0.0159  0.3125 -1.6573
 6066TIP3   OH239688   1.059   5.608   5.328 -0.4766 -0.1684  0.5122
 6066TIP3    H139689   0.968   5.578   5.334 -0.6600 -0.1937 -1.6482
 6066TIP3    H239690   1.100   5.575   5.407 -2.4910  0.4398  1.9151
 6067TIP3   OH239691   4.062   3.701   0.502 -0.5507 -0.1632 -0.4459
 6067TIP3    H139692   4.049   3.639   0.574 -1.0807 -0.3760 -0.7190
 6067TIP3    H239693   4.157   3.715   0.500 -0.5721  0.1977  0.5838
 6068TIP3   OH239694   4.510   4.112  13.993 -0.2865  0.1599  0.5007
 6068TIP3    H139695   4.434   4.081  14.042 -0.1365 -2.3352 -0.6869
 6068TIP3    H239696   4.571   4.039  13.994  0.5318  0.7394 -1.6925
 6069TIP3   OH239697   4.700   1.849   4.205 -0.0663 -0.7443 -0.2476
 6069TIP3    H139698   4.639   1.884   4.270  0.0952 -0.2162 -0.3712
 6069TIP3    H239699   4.684   1.755   4.204  0.8221 -0.9612  1.5230
 6070TIP3   OH239700   5.588   4.392   2.242  0.0930  0.7669 -0.1062
 6070TIP3    H139701   5.607   4.485   2.234  2.0852  0.6286  1.9195
 6070TIP3    H239702   5.639   4.363   2.318 -0.9571 -1.8541 -0.2685
 6071TIP3   OH239703   2.787   0.373  17.023  0.8964 -0.1434  0.2330
 6071TIP3    H139704   2.844   0.296  17.021  1.6328  0.3883 -0.0031
 6071TIP3    H239705   2.752   0.380  16.934  1.0673 -0.0423  0.1714
 6072TIP3   OH239706   2.420   1.279   0.913  0.2501 -0.2630  0.3179
 6072TIP3    H139707   2.424   1.340   0.986 -1.2620 -1.3704  1.3832
 6072TIP3    H239708   2.339   1.300   0.868  1.2131  0.4682 -1.1512
 6073TIP3   OH239709   6.037   4.715  16.032  0.2032 -0.1345 -0.1301
 6073TIP3    H139710   5.945   4.727  16.055  0.2068 -0.7660  0.2114
 6073TIP3    H239711   6.050   4.770  15.954 -0.5268 -0.2460 -0.3317
 6074TIP3   OH239712   5.217   0.443  14.740 -0.3389 -0.0404 -0.1950
 6074TIP3    H139713   5.186   0.533  14.748 -0.0620  0.1114 -0.7937
 6074TIP3    H239714   5.144   0.389  14.771 -1.0556  0.3296 -1.2011
 6075TIP3   OH239715   3.123   1.653  16.410  0.3562  0.7589  0.0994
 6075TIP3    H139716   3.215   1.678  16.420  1.3068 -1.3667 -2.3412
 6075TIP3    H239717   3.117   1.567  16.452 -0.5839  0.9433  0.3687
 6076TIP3   OH239718   3.976   5.631   3.324  0.6012  0.1633  0.4458
 6076TIP3    H139719   3.885   5.603   3.316  0.5088  0.9016 -2.1873
 6076TIP3    H239720   3.972   5.727   3.320  1.5484  0.1728 -1.5697
 6077TIP3   OH239721   6.750   3.008  14.111  0.1877  0.2013  0.1308
 6077TIP3    H139722   6.671   2.966  14.145 -0.7128  1.8415  0.1366
 6077TIP3    H239723   6.799   3.033  14.188  0.2711  0.0140  0.1395
 6078TIP3   OH239724   0.873   6.327  17.401  0.2198 -0.1351  0.0774
 6078TIP3    H139725   0.822   6.402  17.369  1.8851  0.0704 -2.3970
 6078TIP3    H239726   0.830   6.251  17.363  0.9353 -0.0489 -0.9764
 6079TIP3   OH239727   0.935   3.679  12.843  0.4551  0.3838  0.2570
 6079TIP3    H139728   0.932   3.661  12.937 -2.5805 -1.9361 -0.1437
 6079TIP3    H239729   0.844   3.696  12.818  0.8736 -0.8094 -2.5124
 6080TIP3   OH239730   3.350   1.910   3.163 -0.4560 -0.0407  0.4126
 6080TIP3    H139731   3.353   1.920   3.258 -2.1412 -0.4465  0.5360
 6080TIP3    H239732   3.274   1.961   3.136 -0.5010 -0.6289 -0.6073
 6081TIP3   OH239733   4.321   2.697  17.265 -0.1385  0.0733 -0.2982
 6081TIP3    H139734   4.275   2.618  17.237  1.4308 -0.4468 -1.5902
 6081TIP3    H239735   4.412   2.669  17.275  0.4482  1.7115 -0.8105
 6082TIP3   OH239736   0.891   3.717   5.815 -0.4012  0.1003  0.2907
 6082TIP3    H139737   0.874   3.698   5.908 -0.8430 -2.8502 -0.3001
 6082TIP3    H239738   0.855   3.643   5.768  0.4304  1.1828 -2.2475
 6083TIP3   OH239739   1.785   0.161  11.009 -0.1986  0.0213  0.7849
 6083TIP3    H139740   1.802   0.081  11.058 -1.8802 -1.0577 -0.3024
 6083TIP3    H239741   1.815   0.141  10.920 -1.5035  0.2165  0.2744
 6084TIP3   OH239742   2.100   4.812  11.564  0.3070  0.0922  0.2200
 6084TIP3    H139743   2.132   4.837  11.650 -0.0823  0.1730  0.3430
 6084TIP3    H239744   2.129   4.721  11.553 -0.1819 -0.1270  0.7023
 6085TIP3   OH239745   2.457   2.955   0.062  0.0986 -0.8907  0.1968
 6085TIP3    H139746   2.492   2.919   0.143  0.4624  0.0860  0.4806
 6085TIP3    H239747   2.364   2.933   0.065 -0.1646  0.2649  1.5181
 6086TIP3   OH239748   2.403   0.970   6.396  0.0456  0.1207  0.6110
 6086TIP3    H139749   2.411   0.889   6.345 -1.1591  0.4721 -0.1937
 6086TIP3    H239750   2.313   0.967   6.430 -0.3622  1.5791 -0.2651
 6087TIP3   OH239751   2.561   6.535  16.802  0.1527  0.2433 -0.1468
 6087TIP3    H139752   2.630   6.497  16.748  0.7312  1.0491  0.0023
 6087TIP3    H239753   2.545   6.470  16.871  0.9590  0.1711 -0.0225
 6088TIP3   OH239754   0.596   0.606   5.549  0.4468 -0.3895  0.4317
 6088TIP3    H139755   0.648   0.543   5.499  0.4715 -0.5702  0.6844
 6088TIP3    H239756   0.606   0.578   5.640  1.5091  0.7144  0.6889
 6089TIP3   OH239757   3.008   4.605  17.236  0.4807  0.7603 -0.7609
 6089TIP3    H139758   3.008   4.546  17.161  1.2419 -0.2553 -0.0065
 6089TIP3    H239759   2.998   4.547  17.312  1.6090  1.5512  0.0307
 6090TIP3   OH239760   3.033   4.984  15.969 -0.6456 -0.2888  0.5056
 6090TIP3    H139761   3.102   5.038  16.007  0.9197 -2.1410  0.4350
 6090TIP3    H239762   3.042   4.899  16.012 -2.4376 -0.7935 -0.0369
 6091TIP3   OH239763   3.492   2.027   3.402 -0.6894 -0.1805 -0.2142
 6091TIP3    H139764   3.550   2.045   3.328 -1.4982 -0.4591 -0.9304
 6091TIP3    H239765   3.545   1.972   3.461  0.2633  0.7944 -0.1380
 6092TIP3   OH239766   1.037   6.282  13.117  0.4386 -0.3771 -0.5023
 6092TIP3    H139767   1.010   6.207  13.065  0.2011  0.1951 -1.2228
 6092TIP3    H239768   0.977   6.282  13.192  1.3857 -1.7499  0.3047
 6093TIP3   OH239769   2.434   1.655  14.023  0.2285  0.1526  0.3189
 6093TIP3    H139770   2.453   1.692  13.937  2.3887 -0.9553  0.2663
 6093TIP3    H239771   2.497   1.696  14.082 -0.2697 -0.1825  1.1096
 6094TIP3   OH239772   3.738   6.686   1.406  0.7740 -0.2572  0.0555
 6094TIP3    H139773   3.695   6.636   1.337 -0.0015  1.3202 -0.6648
 6094TIP3    H239774   3.757   6.622   1.474 -1.6340 -1.2501 -0.1280
 6095TIP3   OH239775   0.792   4.217  13.633  0.9001 -0.0590  0.0873
 6095TIP3    H139776   0.704   4.248  13.651  0.4888 -0.1672 -1.5426
 6095TIP3    H239777   0.849   4.271  13.688  0.0115  1.7466 -0.6938
 6096TIP3   OH239778   0.196   5.134   6.231 -0.1178 -0.2956 -0.3212
 6096TIP3    H139779   0.254   5.196   6.186 -1.9372  1.1719 -0.7846
 6096TIP3    H239780   0.215   5.146   6.324  1.2416 -0.8211 -0.5149
 6097TIP3   OH239781   3.825   5.732  14.426 -0.2386 -0.4519 -0.1075
 6097TIP3    H139782   3.835   5.827  14.423 -0.1280 -0.4914 -2.3520
 6097TIP3    H239783   3.853   5.708  14.514  0.9630  1.4647  0.0956
 6098TIP3   OH239784   4.258   6.005   3.003  0.5284  0.2510  0.0380
 6098TIP3    H139785   4.163   5.999   3.016  0.3280 -2.1924 -1.7797
 6098TIP3    H239786   4.295   5.965   3.082  0.0067  0.3429  0.3348
 6099TIP3   OH239787   1.450   5.344  16.330 -0.3190 -0.0748  0.3596
 6099TIP3    H139788   1.494   5.311  16.409  4.0605  0.3002 -1.6520
 6099TIP3    H239789   1.431   5.266  16.278  0.9855 -0.0771 -0.1379
 6100TIP3   OH239790   3.929   1.083  16.253  0.6350  0.1789 -0.3881
 6100TIP3    H139791   3.894   1.003  16.213 -0.5316  0.8518 -0.7743
 6100TIP3    H239792   3.853   1.121  16.298  1.6623 -0.0178  1.6169
 6101TIP3   OH239793   0.680   4.634  16.665 -0.7009 -0.0413 -0.2613
 6101TIP3    H139794   0.768   4.659  16.695 -1.1693  1.6571 -0.2059
 6101TIP3    H239795   0.679   4.539  16.670  1.7065 -0.2210 -1.8628
 6102TIP3   OH239796   6.371   5.600  13.235 -0.0784 -0.3286  0.6127
 6102TIP3    H139797   6.408   5.637  13.315  1.0009  1.0705 -0.4753
 6102TIP3    H239798   6.276   5.610  13.245  0.0995  4.1413 -0.1010
 6103TIP3   OH239799   5.494   3.238   4.537 -0.9944 -0.4904 -0.3011
 6103TIP3    H139800   5.406   3.274   4.554 -1.3541 -0.9347 -1.1721
 6103TIP3    H239801   5.487   3.198   4.450  0.6162  1.2364 -1.3043
 6104TIP3   OH239802   5.767   3.371  17.209 -0.7708  0.6637 -0.2631
 6104TIP3    H139803   5.786   3.305  17.276 -1.1342  0.5028 -0.3116
 6104TIP3    H239804   5.678   3.400  17.229 -1.2250 -0.0269 -1.1980
 6105TIP3   OH239805   2.186   1.899   1.489  0.0856 -0.5531  0.2709
 6105TIP3    H139806   2.250   1.855   1.435 -1.3879  0.4029 -2.4307
 6105TIP3    H239807   2.142   1.828   1.537 -0.4466 -1.8108 -1.9494
 6106TIP3   OH239808   3.023   0.987   6.598 -0.2867 -0.4981  0.0000
 6106TIP3    H139809   3.035   1.047   6.671 -1.6447 -0.1032 -0.0777
 6106TIP3    H239810   3.098   0.927   6.603 -0.4446 -0.5902  1.7983
 6107TIP3   OH239811   6.287   6.740   4.397  0.6855 -0.1322  0.0201
 6107TIP3    H139812   6.371   6.694   4.398  0.5143 -0.4473  0.1889
 6107TIP3    H239813   6.249   6.722   4.483  1.4571  1.9015  0.8531
 6108TIP3   OH239814   3.773   1.726   4.980 -0.1199 -0.2781  0.6112
 6108TIP3    H139815   3.740   1.808   5.015  0.9316  0.7053 -0.5932
 6108TIP3    H239816   3.864   1.745   4.957  0.3164 -1.9524  0.8370
 6109TIP3   OH239817   6.611   1.036  15.091  0.2795  0.1627 -0.3388
 6109TIP3    H139818   6.640   1.076  15.173  2.2324 -0.9872 -0.4077
 6109TIP3    H239819   6.673   0.965  15.075 -2.3719 -2.2974 -0.7563
 6110TIP3   OH239820   1.709   6.532  10.796  0.5098 -0.0403  0.2745
 6110TIP3    H139821   1.656   6.463  10.758  0.8377 -0.0956 -0.0954
 6110TIP3    H239822   1.762   6.565  10.722  0.6259  0.3459  0.5254
 6111TIP3   OH239823   5.275   1.883  13.109 -0.2098 -0.0936 -0.2938
 6111TIP3    H139824   5.335   1.853  13.176 -0.7066 -0.5028 -0.0216
 6111TIP3    H239825   5.316   1.858  13.026  1.1099  1.7012 -0.2341
 6112TIP3   OH239826   0.943   0.242  16.044  0.0418 -0.3337 -0.3608
 6112TIP3    H139827   0.924   0.177  16.112 -0.5439  0.7160  0.5038
 6112TIP3    H239828   1.002   0.196  15.984  2.3124 -0.6550  1.9455
 6113TIP3   OH239829   4.822   5.231   4.045  0.1940 -0.1161 -0.1684
 6113TIP3    H139830   4.918   5.239   4.047  0.1511  1.7700 -1.8051
 6113TIP3    H239831   4.805   5.157   3.986  0.6192 -0.9989  0.7913
 6114TIP3   OH239832   2.101   0.001   4.509 -0.3913 -0.5783  0.3021
 6114TIP3    H139833   2.084  -0.090   4.484  0.9471 -0.9033  0.5256
 6114TIP3    H239834   2.078   0.005   4.602 -0.3245 -0.7191  0.3243
 6115TIP3   OH239835   6.152   3.097   6.351 -0.0306  0.3934 -0.1888
 6115TIP3    H139836   6.161   3.071   6.260 -1.6231  1.6598 -0.7635
 6115TIP3    H239837   6.239   3.084   6.389  0.2557 -1.6526 -1.4513
 6116TIP3   OH239838   1.721   0.217  16.843 -0.5339 -0.1321 -0.1347
 6116TIP3    H139839   1.760   0.282  16.784 -0.5729 -0.2693 -0.3130
 6116TIP3    H239840   1.627   0.232  16.837 -0.4973  0.5175  0.6615
 6117TIP3   OH239841   6.279   0.999  11.898  0.3280  1.2232  0.3988
 6117TIP3    H139842   6.205   1.028  11.951  1.0383  0.6825  1.7405
 6117TIP3    H239843   6.259   0.907  11.877  0.6271  1.0699  0.7825
 6118TIP3   OH239844   0.360   1.273  17.004  0.4858  0.9166 -0.0813
 6118TIP3    H139845   0.329   1.259  17.094 -1.1990 -0.1119 -0.7683
 6118TIP3    H239846   0.296   1.333  16.966  0.1877  0.0027 -1.0771
 6119TIP3   OH239847   4.977   6.256   5.849  0.9282 -0.0692  0.4372
 6119TIP3    H139848   5.014   6.333   5.894  2.4417  0.1166 -1.0679
 6119TIP3    H239849   4.945   6.290   5.766  3.0977 -1.2763 -0.9855
 6120TIP3   OH239850   3.095   5.845  11.070  0.2889  0.6757 -0.2302
 6120TIP3    H139851   3.067   5.788  10.998  3.6218  0.3708 -1.4464
 6120TIP3    H239852   3.121   5.785  11.140  2.3843  0.6281 -0.9645
 6121TIP3   OH239853   1.461   1.002   0.110 -0.6323  0.4952  0.4187
 6121TIP3    H139854   1.428   1.027   0.024  0.2361 -0.0692 -0.0945
 6121TIP3    H239855   1.446   1.079   0.165 -0.6598  1.0746 -0.3804
 6122TIP3   OH239856   0.270   5.158  10.982 -0.3159  0.1611 -0.1000
 6122TIP3    H139857   0.239   5.070  11.003 -1.5912  0.7938  0.8668
 6122TIP3    H239858   0.225   5.215  11.046 -1.7425  1.8484 -2.4103
 6123TIP3   OH239859   5.368   6.104   2.117 -0.0372 -0.9503 -0.5716
 6123TIP3    H139860   5.421   6.045   2.064 -0.2877 -1.2937 -0.4514
 6123TIP3    H239861   5.299   6.134   2.058  0.0975 -0.7726 -0.6363
 6124TIP3   OH239862   2.397   4.436   0.725  0.0923 -0.0452 -0.3949
 6124TIP3    H139863   2.465   4.402   0.784  1.7279  0.2103 -2.0335
 6124TIP3    H239864   2.355   4.357   0.690 -0.5816 -0.2042  0.7162
 6125TIP3   OH239865   2.105   5.518   4.890 -0.6935  0.0560  0.1702
 6125TIP3    H139866   2.091   5.583   4.958  2.3193 -0.0069  0.9859
 6125TIP3    H239867   2.154   5.448   4.933 -1.5986 -1.5839 -1.3141
 6126TIP3   OH239868   1.353   2.824  16.275  0.1042  0.4639 -0.2017
 6126TIP3    H139869   1.430   2.829  16.218  1.0628  0.4284  1.0416
 6126TIP3    H239870   1.375   2.755  16.338 -1.0110  0.3594  0.0900
 6127TIP3   OH239871   4.893   3.765  12.253  0.6670  0.2855  0.5763
 6127TIP3    H139872   4.820   3.737  12.198  0.2631  2.2931  0.0005
 6127TIP3    H239873   4.950   3.814  12.193  1.5712  0.2665  1.3989
 6128TIP3   OH239874   0.161   1.154  14.940  0.0128 -0.0728 -0.1263
 6128TIP3    H139875   0.079   1.180  14.897 -0.2871 -0.2310  0.3433
 6128TIP3    H239876   0.141   1.158  15.034  1.1007  1.7302  0.0724
 6129TIP3   OH239877   1.192   4.147  11.670 -0.0854  0.3481  0.0139
 6129TIP3    H139878   1.097   4.135  11.679 -0.1665 -0.0111 -1.1678
 6129TIP3    H239879   1.206   4.157  11.576  0.8589  2.2379  0.3159
 6130TIP3   OH239880   5.395   0.047   2.764 -0.5548  0.2995  0.2714
 6130TIP3    H139881   5.300   0.044   2.772 -0.4948 -0.3530  0.8709
 6130TIP3    H239882   5.411   0.075   2.674 -1.3345 -2.5032 -0.8349
 6131TIP3   OH239883   1.741   0.026   5.737  0.2223  0.1553  0.6496
 6131TIP3    H139884   1.702   0.027   5.825  1.1884  0.8036  1.0823
 6131TIP3    H239885   1.813  -0.036   5.743  1.1178  1.1857  0.6924
 6132TIP3   OH239886   5.369   1.571  15.444 -0.2383  0.0575  0.0465
 6132TIP3    H139887   5.330   1.605  15.363 -2.7347 -3.0344 -0.2657
 6132TIP3    H239888   5.373   1.647  15.502 -2.8950  1.4873 -1.4363
 6133TIP3   OH239889   4.175   6.502  17.429 -0.2540 -0.2488 -0.7985
 6133TIP3    H139890   4.243   6.568  17.413 -0.0044 -0.2914  0.0680
 6133TIP3    H239891   4.219   6.418  17.416 -0.6346 -0.2661 -2.1576
 6134TIP3   OH239892   5.057   4.161   0.577 -0.1468  0.0364  0.2342
 6134TIP3    H139893   5.127   4.192   0.519 -0.6192 -0.1485 -0.4396
 6134TIP3    H239894   5.056   4.066   0.564 -1.2189  0.1390 -0.5647
 6135TIP3   OH239895   2.014   3.956   2.158 -0.1586 -0.2912 -0.3090
 6135TIP3    H139896   1.937   4.000   2.123  1.8404  3.9979  0.0929
 6135TIP3    H239897   1.998   3.951   2.253  0.4970  2.0155  0.0001
 6136TIP3   OH239898   3.852   1.110  15.240 -0.3502 -0.3912 -0.5679
 6136TIP3    H139899   3.839   1.204  15.230  1.9727  0.0774  0.1945
 6136TIP3    H239900   3.810   1.089  15.323 -0.2672  0.1138 -0.3936
 6137TIP3   OH239901   2.810   2.480   5.419  1.1398 -0.5475 -0.2399
 6137TIP3    H139902   2.903   2.472   5.441  1.1674  0.8263  0.2382
 6137TIP3    H239903   2.786   2.394   5.383  2.3197 -1.2727  0.6306
 6138TIP3   OH239904   4.012   0.123  15.121  0.3438 -0.0468  0.3817
 6138TIP3    H139905   4.097   0.122  15.077 -1.0179  0.7797 -2.5061
 6138TIP3    H239906   3.973   0.208  15.099 -1.7033 -0.8523  0.6034
 6139TIP3   OH239907   3.552   2.693  15.317  0.1238  0.3095  0.0015
 6139TIP3    H139908   3.514   2.607  15.297 -0.3225  0.9181 -1.9389
 6139TIP3    H239909   3.558   2.695  15.412 -2.3607 -0.8074  0.2483
 6140TIP3   OH239910   1.865   3.671  16.792  0.3861  0.0346  0.0857
 6140TIP3    H139911   1.885   3.586  16.755  0.2431 -0.8134  1.8618
 6140TIP3    H239912   1.770   3.678  16.788  0.3825  0.0227  0.1598
 6141TIP3   OH239913   3.212   0.561   2.577  0.0692 -0.1764 -0.0757
 6141TIP3    H139914   3.175   0.483   2.619 -0.2216  0.3763  0.7137
 6141TIP3    H239915   3.295   0.575   2.623  0.1620 -0.0705 -0.2767
 6142TIP3   OH239916   1.851   3.294  14.844  0.1068 -0.2573 -0.1308
 6142TIP3    H139917   1.760   3.266  14.855  0.3511 -1.2650 -0.5371
 6142TIP3    H239918   1.878   3.255  14.761  0.3377  1.6171 -0.9723
 6143TIP3   OH239919   1.878   3.347   6.130 -0.0580  0.5033 -0.4782
 6143TIP3    H139920   1.887   3.255   6.154  0.3373  0.4480 -0.8433
 6143TIP3    H239921   1.912   3.394   6.206  1.0499  0.3255 -0.8470
 6144TIP3   OH239922   2.187   6.306   4.237 -0.5782 -0.0757  0.4271
 6144TIP3    H139923   2.124   6.372   4.207 -0.3840 -0.2560 -0.3881
 6144TIP3    H239924   2.272   6.342   4.213 -0.0203  1.7209  4.3541
 6145TIP3   OH239925   3.488   5.620   2.713  0.6041 -0.6834  0.2119
 6145TIP3    H139926   3.548   5.694   2.703  0.1560 -0.3857 -0.4230
 6145TIP3    H239927   3.514   5.578   2.794  1.7732 -0.6595 -0.1330
 6146TIP3   OH239928   3.190   4.916   1.433  0.4097  0.3939  0.2965
 6146TIP3    H139929   3.174   4.824   1.455  0.3387  0.6404  1.3023
 6146TIP3    H239930   3.275   4.935   1.473  0.7723  0.5731 -0.5309
 6147TIP3   OH239931   1.318   2.380  14.725  0.6795  0.1121  0.1048
 6147TIP3    H139932   1.384   2.447  14.713  0.2271  0.4329 -0.6687
 6147TIP3    H239933   1.299   2.348  14.637 -0.1870  0.0263  0.3075
 6148TIP3   OH239934   1.574   3.851   0.413 -0.0089  0.4021 -0.0839
 6148TIP3    H139935   1.522   3.921   0.453 -0.2517  0.7548 -0.9807
 6148TIP3    H239936   1.529   3.832   0.331 -2.5921 -3.9120  1.9558
 6149TIP3   OH239937   5.438   5.775  16.230 -0.1319 -0.2223 -0.3374
 6149TIP3    H139938   5.369   5.807  16.288  0.9530  1.6903 -0.0048
 6149TIP3    H239939   5.391   5.733  16.158 -1.6441  0.8434 -0.0261
 6150TIP3   OH239940   1.364   2.666   4.891 -0.0877  0.0975 -0.2422
 6150TIP3    H139941   1.276   2.682   4.925 -0.2914  3.4876 -1.9107
 6150TIP3    H239942   1.422   2.704   4.957 -0.0435  0.1837 -0.3301
 6151TIP3   OH239943   2.540   5.729  14.078  0.4363  0.1788 -0.8627
 6151TIP3    H139944   2.499   5.706  13.996  1.4768 -2.1255 -0.8188
 6151TIP3    H239945   2.592   5.807  14.058 -1.5697  1.3892 -1.6062
 6152TIP3   OH239946   5.198   5.750   2.022 -0.2602 -0.1390 -0.4423
 6152TIP3    H139947   5.171   5.807   2.094  1.2770 -0.5594  0.5239
 6152TIP3    H239948   5.116   5.711   1.991 -1.1306  1.1958  0.0608
 6153TIP3   OH239949   5.494   3.484  12.895 -0.0878 -0.3407 -0.0626
 6153TIP3    H139950   5.515   3.416  12.831 -0.3276 -1.4457  0.9831
 6153TIP3    H239951   5.558   3.553  12.879 -0.7311 -0.1580 -2.0796
 6154TIP3   OH239952   2.713   6.199  17.175 -0.2737  1.1584 -0.0246
 6154TIP3    H139953   2.759   6.248  17.106 -2.2056  0.2048 -2.1266
 6154TIP3    H239954   2.749   6.111  17.170 -0.6062  1.0202 -0.0158
 6155TIP3   OH239955   2.715   0.058   3.017 -0.1854  0.5127  0.1939
 6155TIP3    H139956   2.696   0.063   2.923  0.2246  1.8284  0.1682
 6155TIP3    H239957   2.717  -0.036   3.036 -2.1547  0.2346 -0.7200
 6156TIP3   OH239958   6.193   3.038   4.722 -0.3861 -0.1446  0.3009
 6156TIP3    H139959   6.192   3.098   4.797  1.1629  0.4594 -0.1312
 6156TIP3    H239960   6.168   3.094   4.647 -1.5524 -0.6573  0.2928
 6157TIP3   OH239961   3.392   0.462  13.752  0.0151  0.6430 -0.2033
 6157TIP3    H139962   3.411   0.496  13.664 -1.2680 -0.0374 -0.7749
 6157TIP3    H239963   3.297   0.474  13.762 -0.0604 -0.4815  0.5625
 6158TIP3   OH239964   1.321   0.475  15.760  0.1209 -0.1327  0.2465
 6158TIP3    H139965   1.226   0.483  15.770  0.1600  0.6740 -0.0036
 6158TIP3    H239966   1.355   0.470  15.849  0.1101  2.7510  0.4744
 6159TIP3   OH239967   1.791   4.993   1.777 -0.0616  0.0908 -0.1202
 6159TIP3    H139968   1.716   5.038   1.738 -0.3172 -0.1858  0.0399
 6159TIP3    H239969   1.865   5.018   1.723  0.2476  2.5414  1.3202
 6160TIP3   OH239970   1.997   1.806  16.976  0.2541 -0.4534 -0.2063
 6160TIP3    H139971   1.972   1.729  17.026  0.3063 -0.7384 -0.6099
 6160TIP3    H239972   2.071   1.776  16.922  2.1841  0.6264  1.6918
 6161TIP3   OH239973   2.953   0.407  15.594 -0.3393 -0.0511  0.4750
 6161TIP3    H139974   2.978   0.317  15.573 -0.0313  0.0692  0.3028
 6161TIP3    H239975   3.036   0.454  15.600 -0.3621 -0.1853  2.5908
 6162TIP3   OH239976   4.755   2.007   1.083 -0.1606  0.7346  0.9294
 6162TIP3    H139977   4.713   1.987   0.999  0.9964  1.1425  0.2221
 6162TIP3    H239978   4.684   2.004   1.147 -0.5424 -3.2557  0.5944
 6163TIP3   OH239979   5.349   2.684   3.066  0.6620 -0.6537  0.8010
 6163TIP3    H139980   5.352   2.627   2.989  0.1508  0.5651 -0.1418
 6163TIP3    H239981   5.440   2.689   3.095  0.9362 -0.7555 -0.0077
 6164TIP3   OH239982   0.796   0.343   1.049  0.2946 -0.5740 -0.1135
 6164TIP3    H139983   0.821   0.312   0.962  2.0188 -0.7681  0.4163
 6164TIP3    H239984   0.852   0.419   1.065 -0.1136 -0.4467  0.7576
 6165TIP3   OH239985   6.060   1.956   6.036  0.1026 -0.1748 -0.1652
 6165TIP3    H139986   5.988   1.976   5.976  1.2151  1.0984 -1.1371
 6165TIP3    H239987   6.025   1.976   6.123 -1.5328 -2.0386 -0.3216
 6166TIP3   OH239988   3.684   3.247  11.882  0.3655  0.1334  0.2043
 6166TIP3    H139989   3.739   3.324  11.899 -0.9379  1.5171 -1.5644
 6166TIP3    H239990   3.595   3.282  11.876 -0.3900 -1.6785  0.3100
 6167TIP3   OH239991   1.528   4.944  14.455  0.4506 -0.3585 -0.1764
 6167TIP3    H139992   1.544   4.854  14.485  1.5276  0.1306  0.8165
 6167TIP3    H239993   1.450   4.971  14.504  1.3923 -0.0424  1.2187
 6168TIP3   OH239994   4.195   5.235   3.576 -0.1079  0.4786 -0.1170
 6168TIP3    H139995   4.283   5.204   3.598 -0.2744  0.1807  0.1450
 6168TIP3    H239996   4.147   5.232   3.659 -1.7332 -3.8684 -0.9260
 6169TIP3   OH239997   1.143   3.531  12.724  0.5110  0.3651 -0.3249
 6169TIP3    H139998   1.120   3.508  12.633  0.5311  0.5485 -0.3764
 6169TIP3    H239999   1.063   3.570  12.759 -0.2433 -1.7053  0.4359
 6170TIP3   OH240000   5.031   5.213  11.269  0.2534  0.7950  0.3902
 6170TIP3    H140001   5.049   5.258  11.187  0.7041  0.2625  0.1864
 6170TIP3    H240002   4.937   5.221  11.281  0.1791  0.8339 -0.2051
 6171TIP3   OH240003   2.947   2.518  11.557 -0.5449 -0.2119 -0.1299
 6171TIP3    H140004   2.995   2.551  11.633 -0.1418 -0.3087 -0.3379
 6171TIP3    H240005   3.010   2.522  11.485 -0.3263 -1.8458 -0.0770
 6172TIP3   OH240006   3.031   4.864  12.781  0.1729 -0.7711 -0.5309
 6172TIP3    H140007   3.040   4.781  12.735 -1.4004 -1.0373 -0.4277
 6172TIP3    H240008   2.942   4.894  12.760 -0.0604 -0.1733  1.0953
 6173TIP3   OH240009   5.579   4.573  12.402  0.5036  0.5166  0.0298
 6173TIP3    H140010   5.663   4.605  12.371 -0.4677  2.3742 -0.8930
 6173TIP3    H240011   5.515   4.612  12.341 -1.0527 -0.3824  1.0196
 6174TIP3   OH240012   1.889   0.227   4.689  0.0239  0.2098  0.1503
 6174TIP3    H140013   1.921   0.241   4.599 -0.4598  0.6840  0.0463
 6174TIP3    H240014   1.824   0.296   4.702 -1.0969 -0.8306  0.2975
 6175TIP3   OH240015   3.061   5.884   0.132  0.3213 -0.7240 -0.4320
 6175TIP3    H140016   3.034   5.890   0.224  0.7302 -1.2779 -0.2666
 6175TIP3    H240017   3.003   5.944   0.086 -0.2641 -0.8628  0.1074
 6176TIP3   OH240018   1.155   1.803   4.161  0.4576 -0.1443  0.2346
 6176TIP3    H140019   1.234   1.854   4.146  1.3622 -1.9106 -1.4560
 6176TIP3    H240020   1.184   1.712   4.158 -1.5492 -0.8352  0.1550
 6177TIP3   OH240021   3.961   1.809   1.137 -0.4683  0.1348 -0.1211
 6177TIP3    H140022   4.027   1.754   1.094 -0.2025 -0.0480  0.5056
 6177TIP3    H240023   4.012   1.880   1.177 -0.3933 -1.1161  2.1193
 6178TIP3   OH240024   6.501   0.207   2.289  0.2750 -0.4868  0.8498
 6178TIP3    H140025   6.578   0.211   2.346 -0.8477  2.3835  2.3806
 6178TIP3    H240026   6.532   0.238   2.204  1.1806 -1.1592  0.9283
 6179TIP3   OH240027   4.193   4.037   0.190  0.6885  0.3449 -0.3400
 6179TIP3    H140028   4.268   4.086   0.225  0.3523  0.9359 -0.4399
 6179TIP3    H240029   4.231   3.978   0.125  1.4885 -1.5123  1.6634
 6180TIP3   OH240030   1.497   6.062   3.352 -0.0816 -0.1110 -0.1474
 6180TIP3    H140031   1.462   6.052   3.441 -2.2699  0.8145 -0.8440
 6180TIP3    H240032   1.441   6.007   3.298  1.5321 -1.0422 -0.9251
 6181TIP3   OH240033   5.059   5.918   2.200  0.2125 -0.0933  0.4230
 6181TIP3    H140034   5.065   6.012   2.217 -1.7231 -0.0229  0.9002
 6181TIP3    H240035   5.077   5.876   2.284 -1.3009 -0.0333  0.8046
 6182TIP3   OH240036   5.254   2.917   1.839  0.0452  0.3192  0.1295
 6182TIP3    H140037   5.287   2.979   1.905 -0.1508 -0.2082  0.7359
 6182TIP3    H240038   5.198   2.858   1.889 -1.8683  1.2032 -0.8577
 6183TIP3   OH240039   5.726   0.562   5.730  0.3790  0.4154 -1.0621
 6183TIP3    H140040   5.731   0.599   5.642  0.8552  3.3269  0.0847
 6183TIP3    H240041   5.633   0.567   5.753  0.1810 -0.7698 -1.5004
 6184TIP3   OH240042   0.651   0.767  13.348  0.1992  0.2010 -0.5193
 6184TIP3    H140043   0.621   0.782  13.258 -1.3380  0.6763  0.0402
 6184TIP3    H240044   0.720   0.833  13.361 -1.1565  1.7157 -0.6259
 6185TIP3   OH240045   5.135   6.663   1.485 -0.2504 -0.3367  0.1527
 6185TIP3    H140046   5.132   6.757   1.471 -2.4108 -0.4555 -0.6087
 6185TIP3    H240047   5.182   6.652   1.567  4.3093  1.0339 -1.9664
 6186TIP3   OH240048   1.102   2.551  11.809  0.2384 -0.0354 -0.3106
 6186TIP3    H140049   1.045   2.523  11.737 -0.1761  0.5931 -0.2363
 6186TIP3    H240050   1.190   2.549  11.773  0.0910 -0.2744 -0.6603
 6187TIP3   OH240051   2.684   0.616   1.969 -0.5223 -0.0047 -0.3808
 6187TIP3    H140052   2.772   0.597   1.938  0.1837  1.8937  0.3422
 6187TIP3    H240053   2.637   0.647   1.891 -0.2424 -0.0123 -0.5524
 6188TIP3   OH240054   4.229   3.441   3.596  0.0448  0.1631 -0.0445
 6188TIP3    H140055   4.305   3.495   3.572  0.9023 -1.0254 -0.0836
 6188TIP3    H240056   4.159   3.472   3.538  0.3178  1.6542  0.3755
 6189TIP3   OH240057   2.109   4.783   4.066 -0.2133  0.0034  0.0390
 6189TIP3    H140058   2.096   4.872   4.032  0.6993 -0.1639 -0.7976
 6189TIP3    H240059   2.054   4.728   4.011 -0.2620 -0.0241  0.1164
 6190TIP3   OH240060   5.460   4.700   3.139  0.1037  0.1154  0.0756
 6190TIP3    H140061   5.427   4.787   3.162 -0.0853  0.8395 -2.6040
 6190TIP3    H240062   5.555   4.707   3.150  0.0811  0.6263 -0.0560
 6191TIP3   OH240063   3.819   6.143  16.165  0.3068 -0.9402  0.3464
 6191TIP3    H140064   3.750   6.168  16.226 -0.6977 -1.6730 -0.4495
 6191TIP3    H240065   3.901   6.165  16.210 -0.4140 -1.0952  1.7714
 6192TIP3   OH240066   2.005   3.051   4.743 -0.4953  0.0802 -0.2496
 6192TIP3    H140067   2.069   3.109   4.702  0.0253  0.1214  0.5956
 6192TIP3    H240068   2.026   2.964   4.708  0.6382 -0.0582  0.7187
 6193TIP3   OH240069   1.637   0.550   2.582 -0.0828  0.2650  0.4402
 6193TIP3    H140070   1.710   0.598   2.623 -1.6833  1.4097  2.1077
 6193TIP3    H240071   1.632   0.468   2.632  0.5248 -0.1844 -0.2073
 6194TIP3   OH240072   0.628   4.599  17.005  0.5124 -0.0262 -0.9045
 6194TIP3    H140073   0.681   4.678  16.996 -0.7285  0.8678 -0.5277
 6194TIP3    H240074   0.554   4.612  16.946 -1.4237  0.5953  1.4938
 6195TIP3   OH240075   1.546   3.347   1.799 -0.4511  0.4302  0.0049
 6195TIP3    H140076   1.564   3.254   1.787 -0.4414  0.3858  0.3341
 6195TIP3    H240077   1.488   3.370   1.727 -0.8490  0.0521  0.1961
 6196TIP3   OH240078   2.134   3.352   3.653  0.1304 -0.0339  0.3333
 6196TIP3    H140079   2.122   3.281   3.589  2.1811  0.8760 -1.1652
 6196TIP3    H240080   2.200   3.319   3.714  1.5732  0.7455 -0.7431
 6197TIP3   OH240081   4.273   3.370  11.677 -0.2119 -0.4425  0.3398
 6197TIP3    H140082   4.209   3.301  11.659 -0.1610 -0.0185 -1.6949
 6197TIP3    H240083   4.333   3.330  11.740 -1.9180 -1.1606  1.5909
 6198TIP3   OH240084   6.013   2.895   0.595  0.2872  0.1810 -0.2243
 6198TIP3    H140085   5.955   2.909   0.520  0.2311 -0.3961 -0.2893
 6198TIP3    H240086   6.097   2.932   0.567  0.7066 -1.3983 -1.1831
 6199TIP3   OH240087   5.381   6.753  17.385 -0.4257 -0.3530 -0.1956
 6199TIP3    H140088   5.450   6.807  17.424  0.1057  0.1457 -1.7562
 6199TIP3    H240089   5.301   6.782  17.430 -0.0588  1.2678 -0.5057
 6200TIP3   OH240090   2.919   5.975   1.556  0.0255 -0.3769  0.0074
 6200TIP3    H140091   2.949   5.946   1.642  1.3268 -1.7336 -0.8472
 6200TIP3    H240092   2.977   6.048   1.534  2.1621 -2.3078 -1.1785
 6201TIP3   OH240093   5.397   0.075  16.432  0.2581 -0.7168  0.0122
 6201TIP3    H140094   5.333   0.135  16.470  1.8718  1.2834 -0.2695
 6201TIP3    H240095   5.392   0.092  16.337  0.1227 -1.6948 -0.1697
 6202TIP3   OH240096   4.929   5.138  14.682  0.4350  0.2609 -0.6379
 6202TIP3    H140097   4.975   5.134  14.598  1.0304  0.2460 -0.3190
 6202TIP3    H240098   4.854   5.195  14.667 -0.7643 -1.5362 -1.8002
 6203TIP3   OH240099   6.756   3.943  13.576 -0.2856 -0.7618 -0.0441
 6203TIP3    H140100   6.767   4.028  13.618 -1.3521 -0.8504  0.4192
 6203TIP3    H240101   6.675   3.951  13.526  0.8399 -0.7189 -1.9785
 6204TIP3   OH240102   6.163   5.995  11.289 -0.4402  0.0670  0.1440
 6204TIP3    H140103   6.196   5.959  11.207  1.1246  0.5974  0.5074
 6204TIP3    H240104   6.116   6.075  11.263 -1.6979 -0.8129 -0.3987
 6205TIP3   OH240105   0.304   6.633  16.755 -0.0381 -0.0535 -0.2182
 6205TIP3    H140106   0.356   6.678  16.823 -0.0215 -0.6248  0.1587
 6205TIP3    H240107   0.222   6.680  16.752 -0.5633 -0.8145  1.1647
 6206TIP3   OH240108   1.392   4.023   2.590  0.4959 -0.1048  0.3613
 6206TIP3    H140109   1.424   4.087   2.653 -0.6662 -0.6889  1.5778
 6206TIP3    H240110   1.298   4.041   2.582 -0.1123 -2.3452  1.6323
 6207TIP3   OH240111   5.420   4.821  17.131  0.2170  0.1003 -0.3844
 6207TIP3    H140112   5.473   4.877  17.074  0.4010  0.1265 -0.1878
 6207TIP3    H240113   5.475   4.744  17.146  1.7963  1.6746  2.8171
 6208TIP3   OH240114   0.541   5.639  12.249  0.9018 -0.3554 -0.0890
 6208TIP3    H140115   0.467   5.584  12.222  1.0380 -0.1172 -0.9470
 6208TIP3    H240116   0.606   5.629  12.180  1.4689 -0.1516  0.4065
 6209TIP3   OH240117   4.759   5.203   5.949  0.6351  1.2512  0.8987
 6209TIP3    H140118   4.852   5.181   5.959  0.0692 -0.4865  3.2092
 6209TIP3    H240119   4.757   5.299   5.954  2.3314  1.3723  0.1353
 6210TIP3   OH240120   2.247   5.616  17.054 -0.0698  0.1846  0.7766
 6210TIP3    H140121   2.202   5.579  17.130  0.2184 -1.2182  0.2973
 6210TIP3    H240122   2.199   5.696  17.034 -1.1960 -0.3075  1.4214
 6211TIP3   OH240123   0.255   2.655   5.381  0.1416  0.9024  0.2588
 6211TIP3    H140124   0.257   2.618   5.292  1.7389  0.0672  0.5994
 6211TIP3    H240125   0.163   2.647   5.408  0.2767 -2.8184  0.2366
 6212TIP3   OH240126   4.392   4.641   0.115 -0.1953  0.1037 -0.2020
 6212TIP3    H140127   4.380   4.674   0.026  1.9898 -0.7310 -0.8666
 6212TIP3    H240128   4.481   4.607   0.116 -0.7348 -1.4352  1.8342
 6213TIP3   OH240129   4.135   1.605  12.534 -0.3842 -0.0923  0.1442
 6213TIP3    H140130   4.161   1.697  12.537  1.5330 -0.4777 -2.0413
 6213TIP3    H240131   4.040   1.607  12.522 -0.1812  1.6920 -1.6627
 6214TIP3   OH240132   4.270   0.563  16.487  0.3253 -0.1834 -0.1914
 6214TIP3    H140133   4.182   0.565  16.449 -0.5333 -2.9651  1.3827
 6214TIP3    H240134   4.327   0.541  16.414 -0.2183  1.6947 -1.2480
 6215TIP3   OH240135   1.801   3.053   1.422 -0.4533 -0.9617 -0.1470
 6215TIP3    H140136   1.874   2.996   1.446 -0.4184 -0.4341  1.0827
 6215TIP3    H240137   1.728   3.021   1.475 -1.1769 -1.5720 -1.4631
 6216TIP3   OH240138   3.562   5.267  14.221 -0.0496  0.0817  0.1532
 6216TIP3    H140139   3.619   5.339  14.248 -1.9221  1.7676 -0.1893
 6216TIP3    H240140   3.504   5.252  14.295  0.2133 -0.9817  0.1569
 6217TIP3   OH240141   5.089   1.569  15.185 -0.3011  0.4579 -0.0252
 6217TIP3    H140142   5.038   1.503  15.138 -0.4913  0.0648  0.7227
 6217TIP3    H240143   5.025   1.631  15.218 -0.5013 -0.9022  2.2997
 6218TIP3   OH240144   0.671   5.386   3.347  0.3145 -0.4571 -0.0789
 6218TIP3    H140145   0.614   5.315   3.377 -0.6649 -0.0914 -0.9781
 6218TIP3    H240146   0.659   5.455   3.413 -0.0651 -0.4953 -0.1014
 6219TIP3   OH240147   6.392   3.681   0.302  0.0402  0.0480  0.2634
 6219TIP3    H140148   6.461   3.723   0.353 -0.4528  0.7987  0.3293
 6219TIP3    H240149   6.425   3.593   0.285  0.5390  0.0280  1.2355
 6220TIP3   OH240150   3.641   3.922  15.519  0.3822 -0.4710 -0.0957
 6220TIP3    H140151   3.655   4.009  15.482 -1.5699 -0.6975 -1.5435
 6220TIP3    H240152   3.716   3.870  15.488  2.1415  0.8758  1.6767
 6221TIP3   OH240153   5.850   1.064  11.956 -0.0675  0.1828  0.2857
 6221TIP3    H140154   5.793   0.989  11.940  0.5170 -0.3129  0.5011
 6221TIP3    H240155   5.847   1.114  11.874 -0.9415  0.2549  0.3532
 6222TIP3   OH240156   2.404   3.512   2.234  0.0864  0.5981  0.2150
 6222TIP3    H140157   2.479   3.519   2.293 -0.4672  0.9968  0.8832
 6222TIP3    H240158   2.328   3.504   2.292 -0.1392 -3.5063 -0.3819
 6223TIP3   OH240159   2.485   0.414   4.257 -0.0162  0.3076 -0.3743
 6223TIP3    H140160   2.548   0.481   4.282  1.5165 -1.2643  0.1745
 6223TIP3    H240161   2.410   0.428   4.316 -0.1132  2.0322 -0.8594
 6224TIP3   OH240162   0.579   5.901  15.883 -0.0519  0.2513 -0.1278
 6224TIP3    H140163   0.605   5.927  15.795 -1.0360  0.6846 -0.3000
 6224TIP3    H240164   0.587   5.805  15.883  2.1218  0.3669  0.0410
 6225TIP3   OH240165   4.370   5.109   3.925  0.3978  0.4019 -0.2672
 6225TIP3    H140166   4.390   5.020   3.953 -1.4568  0.6623  2.1917
 6225TIP3    H240167   4.381   5.163   4.003 -2.4855  1.6345 -0.5651
 6226TIP3   OH240168   1.646   0.391  14.778 -0.0611  0.0075  0.4221
 6226TIP3    H140169   1.600   0.326  14.724  0.0457  1.2025 -1.1739
 6226TIP3    H240170   1.714   0.426  14.721 -1.1943  2.7606  0.5689
 6227TIP3   OH240171   2.571   6.111   2.011 -0.0183  0.2759 -0.4460
 6227TIP3    H140172   2.657   6.124   2.052  0.4028  0.5830 -1.3908
 6227TIP3    H240173   2.581   6.031   1.959 -0.4405  0.0643 -0.1986
 6228TIP3   OH240174   5.480   4.288   1.650  0.0003 -0.3950  0.1883
 6228TIP3    H140175   5.523   4.374   1.654  1.6638 -1.1994  0.7152
 6228TIP3    H240176   5.467   4.264   1.741 -4.4092  1.0603  0.1619
 6229TIP3   OH240177   2.508   2.155   0.582  0.0449 -0.1811  0.3162
 6229TIP3    H140178   2.422   2.133   0.618  0.4397 -3.3489 -0.3585
 6229TIP3    H240179   2.494   2.235   0.533 -2.8471 -1.2233 -0.7560
 6230TIP3   OH240180   3.910   4.646  14.051 -0.5505  0.2110 -0.5753
 6230TIP3    H140181   3.875   4.706  13.985 -2.7280  0.4031  0.6324
 6230TIP3    H240182   3.920   4.700  14.130 -3.1171 -0.9946  0.7109
 6231TIP3   OH240183   3.869   1.431  15.207 -0.5884 -0.5931  0.0998
 6231TIP3    H140184   3.837   1.429  15.116  0.8354  0.1522 -0.4461
 6231TIP3    H240185   3.830   1.510  15.243 -0.9285 -0.7372  0.0547
 6232TIP3   OH240186   6.392   4.517  16.846  0.0364 -0.1431 -0.4378
 6232TIP3    H140187   6.395   4.450  16.777 -0.0741 -1.2329  0.5772
 6232TIP3    H240188   6.307   4.560  16.834  0.8311  1.0384 -2.1814
 6233TIP3   OH240189   6.380   1.529   5.039  0.3736  0.7695  1.0080
 6233TIP3    H140190   6.351   1.611   5.079  0.8553  1.1971  0.4994
 6233TIP3    H240191   6.331   1.523   4.957 -1.1243 -0.4475  1.9424
 6234TIP3   OH240192   4.568   2.740  17.023 -0.0794 -0.4392  0.3099
 6234TIP3    H140193   4.475   2.728  17.005  0.4482 -0.9315 -2.6164
 6234TIP3    H240194   4.583   2.834  17.013  0.1066 -0.6393 -1.7774
 6235TIP3   OH240195   0.280   0.314  14.437 -0.1712  0.0711  0.1082
 6235TIP3    H140196   0.277   0.267  14.521  0.4170  2.0891  1.3066
 6235TIP3    H240197   0.351   0.376  14.446  0.0904  0.1636 -2.0347
 6236TIP3   OH240198   5.104   3.682   4.688 -0.3922 -0.4207  0.0764
 6236TIP3    H140199   5.076   3.759   4.739  0.2156  0.9699 -1.5987
 6236TIP3    H240200   5.047   3.681   4.612  1.5600  0.2413 -1.4811
 6237TIP3   OH240201   0.745   4.435   1.946  0.6325  0.0419  0.1023
 6237TIP3    H140202   0.748   4.476   1.860 -1.1835  1.5003  0.6588
 6237TIP3    H240203   0.831   4.452   1.984  0.6838  1.4367 -0.5622
 6238TIP3   OH240204   4.038   3.997  13.882  0.3967  0.1562 -0.3845
 6238TIP3    H140205   3.952   4.017  13.843 -0.6400 -2.4468  0.3321
 6238TIP3    H240206   4.068   3.919  13.834 -0.1480 -2.1327  2.6865
 6239TIP3   OH240207   4.215   1.707   1.048  0.1468  0.0409  0.5757
 6239TIP3    H140208   4.305   1.739   1.053  0.7219 -1.4766  0.4467
 6239TIP3    H240209   4.198   1.700   0.954 -0.0400  0.1488  0.6020
 6240TIP3   OH240210   0.282   5.674  16.095 -0.1250 -0.3438 -0.5741
 6240TIP3    H140211   0.277   5.598  16.152  0.7332 -0.1337 -0.2042
 6240TIP3    H240212   0.328   5.740  16.146 -2.8789  1.2796  0.0163
 6241TIP3   OH240213   6.596   6.725   4.741  0.2987  0.3218 -0.5962
 6241TIP3    H140214   6.609   6.707   4.648 -0.1004  0.0274 -0.5976
 6241TIP3    H240215   6.670   6.781   4.765  0.8570 -0.2747 -0.8948
 6242TIP3   OH240216   1.200   4.511  13.057 -0.6015 -0.1038  0.0883
 6242TIP3    H140217   1.172   4.586  13.005  1.8258 -0.5711 -2.0981
 6242TIP3    H240218   1.136   4.443  13.036 -0.6335  0.2380 -1.0121
 6243TIP3   OH240219   5.171   6.018   5.911 -0.1110  0.6131  0.3826
 6243TIP3    H140220   5.223   6.096   5.931  2.0622 -0.3377 -1.1284
 6243TIP3    H240221   5.216   5.947   5.958  0.0782 -0.2558 -1.0554
 6244TIP3   OH240222   0.303   3.557   4.437 -0.6376  0.6421 -0.1431
 6244TIP3    H140223   0.232   3.593   4.384 -0.7319  0.2640 -0.2732
 6244TIP3    H240224   0.370   3.531   4.373 -0.5177  0.6986 -0.0417
 6245TIP3   OH240225   3.338   2.948   0.582  0.2410 -0.0073 -0.2294
 6245TIP3    H140226   3.257   2.994   0.606  0.5032  1.1340 -1.3931
 6245TIP3    H240227   3.402   2.975   0.648 -0.1562 -0.4356  0.3438
 6246TIP3   OH240228   1.660   0.357  16.448  0.0322  0.4829  0.3670
 6246TIP3    H140229   1.573   0.321  16.467 -0.3486 -0.6156 -2.9359
 6246TIP3    H240230   1.644   0.451  16.436 -0.5120  0.4482  0.7609
 6247TIP3   OH240231   6.062   1.242  10.981 -0.0764 -0.0214 -0.6811
 6247TIP3    H140232   6.062   1.229  11.076  0.8594 -0.3723 -0.7129
 6247TIP3    H240233   6.136   1.190  10.950 -1.0320 -0.7898 -1.7397
 6248TIP3   OH240234   0.127   5.141   1.020  0.1332 -0.9232 -0.0755
 6248TIP3    H140235   0.096   5.066   1.071 -0.6149 -0.8494 -0.4032
 6248TIP3    H240236   0.221   5.127   1.010  0.3262 -0.8631  1.4489
 6249TIP3   OH240237   5.070   5.597  10.875  0.2928 -0.1262  0.0765
 6249TIP3    H140238   5.135   5.529  10.895  1.2798  0.2583 -1.6330
 6249TIP3    H240239   5.065   5.597  10.780  0.1848  2.1073  0.0496
 6250TIP3   OH240240   5.834   5.511  15.819 -0.0994 -0.8171  0.1107
 6250TIP3    H140241   5.812   5.527  15.911  0.7861 -0.0517  0.1971
 6250TIP3    H240242   5.831   5.598  15.779 -1.3162 -1.2434 -0.7863
 6251TIP3   OH240243   4.024   4.696   4.274  0.2723  0.2101 -0.4136
 6251TIP3    H140244   4.066   4.781   4.264  0.9448  0.2412  1.8901
 6251TIP3    H240245   3.932   4.711   4.254  0.1842  1.7784  0.9538
 6252TIP3   OH240246   1.803   4.021  12.051 -0.4657  0.2037  0.2696
 6252TIP3    H140247   1.744   3.947  12.043  1.0480 -0.9594 -0.6484
 6252TIP3    H240248   1.884   3.992  12.010  0.3366  2.2006  0.3078
 6253TIP3   OH240249   2.439   5.824   1.874  0.0952  0.0761  0.1395
 6253TIP3    H140250   2.511   5.816   1.811  0.7951 -1.7649  1.0772
 6253TIP3    H240251   2.460   5.760   1.942 -0.8687  1.6823  2.0288
 6254TIP3   OH240252   4.341   5.483  16.758 -0.0034  0.1861  0.0149
 6254TIP3    H140253   4.386   5.533  16.690 -0.3145 -0.2903 -0.5468
 6254TIP3    H240254   4.257   5.460  16.720 -0.6953  0.9560  1.0100
 6255TIP3   OH240255   1.433   4.149  17.425 -0.1309  0.2221 -0.5373
 6255TIP3    H140256   1.481   4.221  17.384  3.0623 -1.3416  0.1282
 6255TIP3    H240257   1.436   4.079  17.359 -1.2355 -0.0428 -0.3200
 6256TIP3   OH240258   4.867   3.574   6.180 -0.1590 -0.1634 -0.3006
 6256TIP3    H140259   4.806   3.528   6.237  0.3350 -0.3502  0.0767
 6256TIP3    H240260   4.811   3.636   6.131 -0.6383 -0.2793  0.0896
 6257TIP3   OH240261   4.648   2.806   3.654  0.2970  0.2545 -0.3562
 6257TIP3    H140262   4.582   2.850   3.709 -0.1363  1.1846 -1.5900
 6257TIP3    H240263   4.597   2.751   3.595  0.6438  0.5642 -0.9554
 6258TIP3   OH240264   0.307   2.980  14.731 -0.3010 -0.4513 -0.2547
 6258TIP3    H140265   0.212   2.983  14.749 -0.2289  2.0949  0.1434
 6258TIP3    H240266   0.345   2.940  14.809 -1.0110 -1.1451 -0.2540
 6259TIP3   OH240267   1.783   1.117   3.902 -0.0027 -0.9408  0.3242
 6259TIP3    H140268   1.730   1.181   3.853 -0.9961 -0.7838  1.5523
 6259TIP3    H240269   1.864   1.163   3.921 -0.4526 -0.2469  0.6279
 6260TIP3   OH240270   1.760   6.618   6.499  0.1229 -0.0726 -0.0039
 6260TIP3    H140271   1.726   6.657   6.579 -1.7139  0.3754 -0.9418
 6260TIP3    H240272   1.716   6.533   6.492  1.3757 -0.7650  0.1800
 6261TIP3   OH240273   3.669   5.206   3.011  0.3349 -0.5191 -0.0703
 6261TIP3    H140274   3.660   5.119   3.049 -0.2977 -0.8617 -0.9672
 6261TIP3    H240275   3.762   5.228   3.022  0.7127 -1.7296 -0.7391
 6262TIP3   OH240276   5.187   4.893   3.515  0.7973  0.1771 -0.3855
 6262TIP3    H140277   5.246   4.825   3.481 -0.2105 -0.2418 -1.3444
 6262TIP3    H240278   5.245   4.967   3.534  1.8284 -0.7207  0.0876
 6263TIP3   OH240279   1.688   4.814  10.773  0.1363 -0.2732 -0.1648
 6263TIP3    H140280   1.648   4.864  10.702  1.4589  0.5220 -0.3960
 6263TIP3    H240281   1.638   4.840  10.851  0.2228  0.7437 -0.4284
 6264TIP3   OH240282   4.920   4.692   0.864 -0.3135 -0.3859 -0.1417
 6264TIP3    H140283   4.917   4.612   0.916  1.0148  1.4823  3.0964
 6264TIP3    H240284   5.014   4.710   0.854 -0.5955  0.6040 -1.1537
 6265TIP3   OH240285   1.486   1.244  15.541 -0.1476  0.8000 -0.0885
 6265TIP3    H140286   1.579   1.262  15.560 -0.2002  0.2617  0.7211
 6265TIP3    H240287   1.487   1.178  15.472  0.1783 -2.3372  2.6870
 6266TIP3   OH240288   2.439   5.461   2.756 -0.8793 -0.4615 -0.4025
 6266TIP3    H140289   2.471   5.540   2.714 -0.3084 -0.3717  0.1838
 6266TIP3    H240290   2.426   5.486   2.847  0.2815 -1.3008  0.0168
 6267TIP3   OH240291   6.058   4.594   3.781 -0.0879  0.0638  0.1133
 6267TIP3    H140292   6.153   4.591   3.776 -0.1049 -3.3710 -0.5003
 6267TIP3    H240293   6.029   4.511   3.742 -3.4332  1.7565 -1.4277
 6268TIP3   OH240294   3.290   5.849  16.410  0.0474 -0.6012 -0.4026
 6268TIP3    H140295   3.246   5.933  16.397  0.4987 -0.3149 -0.1097
 6268TIP3    H240296   3.383   5.870  16.410  0.1337 -0.8886  1.0836
 6269TIP3   OH240297   5.770   0.306  16.102  0.2409  0.5036  0.2665
 6269TIP3    H140298   5.781   0.265  16.016 -2.0425  1.4626 -0.5510
 6269TIP3    H240299   5.776   0.400  16.085  3.7366  0.7292  1.8709
 6270TIP3   OH240300   1.520   4.682  14.499 -0.0416 -0.5582 -0.0714
 6270TIP3    H140301   1.591   4.681  14.563  0.1413  0.3559 -0.2446
 6270TIP3    H240302   1.464   4.608  14.524  0.5251 -0.7807  0.5700
 6271TIP3   OH240303   6.252   3.954   3.202 -0.1303  0.6560  0.1195
 6271TIP3    H140304   6.228   3.883   3.144  0.2994  1.1405 -0.6643
 6271TIP3    H240305   6.188   4.023   3.184 -0.4753  0.5218  0.7912
 6272TIP3   OH240306   6.202   2.044   4.320 -0.4478  0.2234  0.5151
 6272TIP3    H140307   6.200   2.136   4.296 -1.7911 -0.1651 -0.9861
 6272TIP3    H240308   6.113   2.012   4.306  0.0305 -1.3619  0.7740
 6273TIP3   OH240309   1.511   0.638  15.708  0.0647  0.0317  0.5219
 6273TIP3    H140310   1.437   0.577  15.711 -0.8605  1.0489 -0.8889
 6273TIP3    H240311   1.587   0.581  15.699 -0.7978 -0.9520 -1.1104
 6274TIP3   OH240312   1.525   2.177  15.279  0.1611  0.4791 -0.1988
 6274TIP3    H140313   1.569   2.098  15.248  1.3773  1.3810 -0.8772
 6274TIP3    H240314   1.591   2.223  15.331 -0.8960  0.5048  1.1761
 6275TIP3   OH240315   3.059   2.464  16.525 -0.1095 -0.0872 -0.4850
 6275TIP3    H140316   3.033   2.416  16.603  3.5573 -1.5244  0.0301
 6275TIP3    H240317   3.005   2.426  16.455 -2.1797 -0.0200  0.9655
 6276TIP3   OH240318   6.099   6.583   1.339  0.3001  0.5383  0.4898
 6276TIP3    H140319   6.084   6.595   1.433  0.2299  0.5267  0.4799
 6276TIP3    H240320   6.115   6.672   1.307  0.8284  0.4867  0.6004
 6277TIP3   OH240321   4.229   0.721  12.180  0.3067 -1.0090  0.2216
 6277TIP3    H140322   4.193   0.767  12.255  0.1118 -0.2071 -0.3407
 6277TIP3    H240323   4.170   0.744  12.107  0.2013 -2.1627 -0.0815
 6278TIP3   OH240324   1.067   2.578  13.075  0.1219 -0.1325  0.0588
 6278TIP3    H140325   1.022   2.530  13.144  2.2703 -3.1917 -0.4487
 6278TIP3    H240326   1.140   2.621  13.119  0.2143 -0.2389  0.0101
 6279TIP3   OH240327   5.448   6.700  12.016  0.0099  0.0232 -0.3069
 6279TIP3    H140328   5.458   6.794  12.029  0.0531  0.1792 -1.3784
 6279TIP3    H240329   5.408   6.669  12.097  1.7792  0.6477  0.8741
 6280TIP3   OH240330   3.177   2.810  11.254 -0.7153  0.7897 -0.4978
 6280TIP3    H140331   3.126   2.879  11.295 -2.5764 -0.2069 -0.9947
 6280TIP3    H240332   3.130   2.790  11.173  0.2189 -0.4761 -0.7683
 6281TIP3   OH240333   4.342   5.681  13.176  0.1381 -0.2292 -0.8430
 6281TIP3    H140334   4.387   5.598  13.167  1.8288  0.3091  1.7642
 6281TIP3    H240335   4.264   5.661  13.227  0.7111 -0.1976  0.0627
 6282TIP3   OH240336   2.468   2.689  11.403 -0.1244  0.7056  0.0008
 6282TIP3    H140337   2.459   2.594  11.405 -0.2548  0.7067 -0.4347
 6282TIP3    H240338   2.552   2.707  11.445  0.9556  0.2514 -1.8713
 6283TIP3   OH240339   4.691   2.177  17.012 -0.5957 -0.0284  0.4665
 6283TIP3    H140340   4.727   2.090  16.992 -0.4858  0.1324 -0.0502
 6283TIP3    H240341   4.671   2.214  16.926 -0.7198  0.4258  0.6921
 6284TIP3   OH240342   2.445   4.437  12.919  0.4047 -0.3799  0.1173
 6284TIP3    H140343   2.465   4.443  13.012  0.8033 -1.5008  0.1197
 6284TIP3    H240344   2.466   4.347  12.895 -1.2789 -0.5996 -0.7005
 6285TIP3   OH240345   0.445   1.920  15.656  1.0711 -0.0495 -0.1014
 6285TIP3    H140346   0.449   1.825  15.667  2.7737  0.1746  1.7168
 6285TIP3    H240347   0.531   1.951  15.683  0.3776  2.0696 -0.1557
 6286TIP3   OH240348   5.454   4.524  11.612 -0.5917  0.4757  0.5128
 6286TIP3    H140349   5.492   4.608  11.587 -1.9579  0.8859 -0.2495
 6286TIP3    H240350   5.509   4.494  11.685  1.8640  0.5036 -1.2019
 6287TIP3   OH240351   6.062   3.378  14.523 -0.4013 -0.3112  0.4222
 6287TIP3    H140352   5.974   3.353  14.493  0.1485 -2.2427  0.2955
 6287TIP3    H240353   6.107   3.405  14.443 -1.2366  2.0326  0.6650
 6288TIP3   OH240354   1.586   4.241  15.544 -0.3798 -0.2190  0.3329
 6288TIP3    H140355   1.508   4.255  15.490 -0.4974 -0.2996  0.4811
 6288TIP3    H240356   1.600   4.325  15.588 -0.9517 -0.4790  1.0464
 6289TIP3   OH240357   3.396   6.498   3.898  0.3396  0.0032  0.1054
 6289TIP3    H140358   3.312   6.512   3.941  1.0030  1.8071  0.9004
 6289TIP3    H240359   3.374   6.452   3.817 -1.2711 -0.5771  0.8355
 6290TIP3   OH240360   0.095   5.569  13.207 -0.9748 -0.2172 -0.5696
 6290TIP3    H140361   0.174   5.518  13.228  0.1165  1.4258 -0.5527
 6290TIP3    H240362   0.127   5.656  13.186 -2.7058  0.1679 -1.7951
 6291TIP3   OH240363   1.436   6.367  11.031  0.1555 -0.3580  0.0263
 6291TIP3    H140364   1.520   6.343  11.071  0.6835  2.4987  0.8545
 6291TIP3    H240365   1.406   6.286  10.989  2.6849 -1.8134  0.7701
 6292TIP3   OH240366   2.831   3.769  14.822 -0.2186  0.1721 -0.3522
 6292TIP3    H140367   2.780   3.849  14.839 -0.4048 -0.2709  1.3448
 6292TIP3    H240368   2.916   3.801  14.792 -0.9042  0.9582 -1.5215
 6293TIP3   OH240369   0.290   3.735  11.530  0.5453 -0.2744  0.2588
 6293TIP3    H140370   0.198   3.709  11.528  0.0439  1.4092 -0.0571
 6293TIP3    H240371   0.337   3.659  11.494 -0.5719 -1.5796  1.4267
 6294TIP3   OH240372   2.092   4.802  13.483 -0.3474  0.5825  0.0429
 6294TIP3    H140373   2.045   4.757  13.554 -0.6151 -0.7179 -0.9288
 6294TIP3    H240374   2.171   4.837  13.525  0.0652 -1.1162  0.7701
 6295TIP3   OH240375   0.883   2.695   1.095 -0.4320  0.2838  0.0312
 6295TIP3    H140376   0.845   2.774   1.057  0.4855  0.7657  0.0930
 6295TIP3    H240377   0.969   2.687   1.053  0.0782  0.1213  1.0758
 6296TIP3   OH240378   4.053   2.338  12.891  0.4735  0.2732 -0.5764
 6296TIP3    H140379   4.065   2.298  12.805  3.7916 -1.6223  0.5744
 6296TIP3    H240380   4.036   2.263  12.949  0.8788  1.1997  0.7786
 6297TIP3   OH240381   3.031   5.797   0.411  0.2630  0.1970  0.1511
 6297TIP3    H140382   3.074   5.879   0.436  0.3717  0.2377 -0.1649
 6297TIP3    H240383   3.082   5.729   0.455 -0.5321  0.3579  1.3913
 6298TIP3   OH240384   3.523   4.831  15.634 -0.0125 -0.3652  0.4544
 6298TIP3    H140385   3.608   4.876  15.629 -0.8671  1.2200 -0.7629
 6298TIP3    H240386   3.459   4.901  15.629 -1.4276 -1.6881 -1.5821
 6299TIP3   OH240387   3.339   4.292  16.219 -0.0976  0.4014 -0.4356
 6299TIP3    H140388   3.302   4.234  16.285 -0.7220  2.8840  1.5710
 6299TIP3    H240389   3.305   4.259  16.136 -0.0667 -2.2748  0.5164
 6300TIP3   OH240390   2.884   5.458   0.007  0.2124  0.5167  0.0877
 6300TIP3    H140391   2.828   5.527  -0.031 -1.3205 -0.2044  0.9395
 6300TIP3    H240392   2.856   5.378  -0.037 -0.0587  0.0085  1.1492
 6301TIP3   OH240393   2.665   1.691  15.143  0.2623  0.3063  0.7176
 6301TIP3    H140394   2.753   1.695  15.104  0.2960 -2.1659  0.3752
 6301TIP3    H240395   2.607   1.724  15.074  0.7686  0.4258  0.3389
 6302TIP3   OH240396   5.257   4.351  14.193  0.2016  0.1657  0.1913
 6302TIP3    H140397   5.303   4.430  14.164 -1.7088  1.1636 -0.3160
 6302TIP3    H240398   5.245   4.364  14.287  0.3804  0.2215  0.2062
 6303TIP3   OH240399   2.758   5.186  11.177  0.1323  0.4019  0.0146
 6303TIP3    H140400   2.810   5.266  11.179 -0.8598  1.1469 -1.6554
 6303TIP3    H240401   2.723   5.183  11.088  2.1678 -3.2082 -0.8774
 6304TIP3   OH240402   2.171   0.726   6.256  0.1321  0.5930 -0.2879
 6304TIP3    H140403   2.211   0.776   6.185  0.6098  2.3015  1.1089
 6304TIP3    H240404   2.104   0.785   6.292 -0.1303 -0.2478  0.6596
 6305TIP3   OH240405   6.698   0.827   1.018  0.0441 -0.3457  0.4698
 6305TIP3    H140406   6.713   0.864   0.931  1.2577  0.5822  1.0570
 6305TIP3    H240407   6.764   0.758   1.026 -0.6028 -1.0012  0.3617
 6306TIP3   OH240408   5.032   2.157  16.789  0.6429 -0.0373  0.5936
 6306TIP3    H140409   5.013   2.248  16.814 -2.4773 -0.5835  0.5037
 6306TIP3    H240410   5.050   2.162  16.695 -2.1665  0.2675 -0.0188
 6307TIP3   OH240411   4.207   1.305   3.129  0.0156  0.3899 -0.5630
 6307TIP3    H140412   4.208   1.309   3.033  3.1728 -0.7791 -0.7166
 6307TIP3    H240413   4.215   1.397   3.156  1.9884  0.5981 -1.6023
 6308TIP3   OH240414   2.609   0.202  12.758 -0.1932 -0.1328  0.0742
 6308TIP3    H140415   2.680   0.159  12.806  0.5746  1.4688  0.4434
 6308TIP3    H240416   2.583   0.138  12.691  1.3735 -0.8837  0.1380
 6309TIP3   OH240417   0.616   3.273  14.613  0.6228 -0.1848  0.1005
 6309TIP3    H140418   0.667   3.303  14.689  0.5646 -0.8042  0.3910
 6309TIP3    H240419   0.527   3.264  14.646  0.9537 -2.4551  0.5523
 6310TIP3   OH240420   4.990   5.321   2.891  0.3247 -0.0428 -0.3273
 6310TIP3    H140421   4.942   5.241   2.866  2.4585 -0.7887 -2.4054
 6310TIP3    H240422   5.050   5.292   2.960 -0.2826  0.2852  0.3618
 6311TIP3   OH240423   4.531   6.511  11.477  0.8736 -0.1217  0.4149
 6311TIP3    H140424   4.510   6.450  11.405 -0.8894 -0.5160  1.2084
 6311TIP3    H240425   4.476   6.481  11.550 -0.8827  3.0100  0.5443
 6312TIP3   OH240426   3.184   0.867  17.262 -0.2270 -0.3175  0.0992
 6312TIP3    H140427   3.271   0.838  17.292 -0.8353  0.2425  2.6098
 6312TIP3    H240428   3.166   0.813  17.186  3.0303  0.7117 -1.5965
 6313TIP3   OH240429   5.240   2.900   0.529  0.2189  0.1556 -0.6731
 6313TIP3    H140430   5.249   2.918   0.436 -0.8409  3.2982 -0.3044
 6313TIP3    H240431   5.320   2.935   0.568  0.7670 -1.3582 -0.3619
 6314TIP3   OH240432   5.117   4.859  13.321 -0.2661  0.5462 -0.1473
 6314TIP3    H140433   5.155   4.823  13.401 -1.6137 -0.4168  0.1007
 6314TIP3    H240434   5.051   4.921  13.351 -0.7319  0.2359 -0.5134
 6315TIP3   OH240435   0.917   4.050  15.114 -0.5933 -0.0062  0.3827
 6315TIP3    H140436   0.878   4.122  15.064 -0.6292  0.2571  0.7858
 6315TIP3    H240437   1.012   4.064  15.105 -0.5633  1.4686  2.3688
 6316TIP3   OH240438   4.121   6.610   6.563 -1.0407  0.0886  0.0376
 6316TIP3    H140439   4.113   6.703   6.539 -0.3380 -0.0573 -0.8155
 6316TIP3    H240440   4.031   6.579   6.565 -1.2502  0.6507 -0.2781
 6317TIP3   OH240441   2.175   2.027  12.591 -0.5250 -0.0361  0.2829
 6317TIP3    H140442   2.136   1.947  12.628 -1.1325 -0.4699 -1.2199
 6317TIP3    H240443   2.139   2.033  12.503 -0.5563  1.9634  0.3791
 6318TIP3   OH240444   1.871   2.854   1.871  0.1643  0.4291 -0.1340
 6318TIP3    H140445   1.945   2.912   1.885 -0.1124  0.4600  1.3588
 6318TIP3    H240446   1.910   2.767   1.860  0.5113  0.7113 -1.2796
 6319TIP3   OH240447   3.635   3.497   0.931 -0.0424  0.1419 -0.3234
 6319TIP3    H140448   3.624   3.411   0.970  1.2664  0.4546  0.8144
 6319TIP3    H240449   3.722   3.495   0.892 -0.3515  0.6626 -1.0633
 6320TIP3   OH240450   1.176   3.433  14.319  0.1669  0.3870 -0.0616
 6320TIP3    H140451   1.165   3.400  14.409 -0.5788 -2.9854 -1.2435
 6320TIP3    H240452   1.098   3.401  14.273  1.1525  0.9600 -2.2228
 6321TIP3   OH240453   5.597   4.848  15.447 -0.1821  0.3408  0.4499
 6321TIP3    H140454   5.657   4.784  15.486  0.3903  0.2538 -0.5462
 6321TIP3    H240455   5.653   4.906  15.397 -0.6667  1.8036  1.5282
 6322TIP3   OH240456   1.383   6.561  13.373 -0.4446 -0.6680  0.3780
 6322TIP3    H140457   1.384   6.655  13.391 -4.1982 -0.0938 -1.4752
 6322TIP3    H240458   1.368   6.520  13.458  1.0890  0.3466  1.1859
 6323TIP3   OH240459   3.616   1.883   5.173 -0.4066  0.3739  0.3780
 6323TIP3    H140460   3.614   1.856   5.265 -1.4120 -0.3494  0.1636
 6323TIP3    H240461   3.574   1.969   5.173 -0.3470  0.4050  0.6019
 6324TIP3   OH240462   1.234   0.339  16.152  0.3413 -0.3895 -0.0931
 6324TIP3    H140463   1.142   0.363  16.140  0.4735 -0.5632 -1.7547
 6324TIP3    H240464   1.233   0.273  16.222 -0.7260 -0.0419  0.2362
 6325TIP3   OH240465   0.220   0.435   0.865 -0.4399 -0.3772  0.1271
 6325TIP3    H140466   0.191   0.397   0.782  0.1520  1.0738 -0.7686
 6325TIP3    H240467   0.308   0.398   0.878 -1.8692 -3.5904  2.0951
 6326TIP3   OH240468   3.820   5.554   0.287  0.2214 -0.4401  0.0384
 6326TIP3    H140469   3.862   5.523   0.207  1.3464 -0.4314  0.6131
 6326TIP3    H240470   3.806   5.648   0.271  0.1812 -0.4935 -0.2565
 6327TIP3   OH240471   5.804   5.145   4.092  0.5181 -0.1376 -0.1319
 6327TIP3    H140472   5.817   5.200   4.169  0.6917  0.1249 -0.3500
 6327TIP3    H240473   5.877   5.166   4.034 -0.3742  0.7066 -0.9835
 6328TIP3   OH240474   2.997   4.348  13.434 -0.3831 -0.9173 -0.2607
 6328TIP3    H140475   2.997   4.405  13.511 -1.6124 -1.5985  0.2767
 6328TIP3    H240476   3.065   4.283  13.452  0.3491 -0.2193 -0.4363
 6329TIP3   OH240477   4.423   5.616  16.545  0.0171  0.0907 -0.2469
 6329TIP3    H140478   4.516   5.639  16.545  0.2463 -0.7998 -0.2718
 6329TIP3    H240479   4.385   5.669  16.475  0.8979 -1.0343 -1.6350
 6330TIP3   OH240480   6.182   0.724  13.959 -0.8897 -0.6382 -0.3258
 6330TIP3    H140481   6.140   0.679  14.033 -2.9007 -0.4785 -1.3210
 6330TIP3    H240482   6.261   0.763  13.997 -2.6511  0.7947  2.1450
 6331TIP3   OH240483   5.859   3.619  17.110 -1.0359 -0.1609  0.7845
 6331TIP3    H140484   5.836   3.530  17.138 -1.8099  0.0135  0.7273
 6331TIP3    H240485   5.936   3.608  17.055 -1.7365 -0.9207 -0.0739
 6332TIP3   OH240486   1.305   1.705  11.971  0.0573  0.2091  0.5398
 6332TIP3    H140487   1.254   1.657  12.036  1.3116 -1.1041  0.5868
 6332TIP3    H240488   1.361   1.764  12.023 -0.9500  1.2408  0.5067
 6333TIP3   OH240489   6.195   6.673   5.483  0.4851 -0.0563  0.7764
 6333TIP3    H140490   6.218   6.754   5.437 -0.2658 -0.1245  0.2791
 6333TIP3    H240491   6.263   6.611   5.456  0.0781 -0.0874 -0.2381
 6334TIP3   OH240492   5.514   3.518   1.135  0.6688 -0.7432  0.0584
 6334TIP3    H140493   5.585   3.516   1.199  1.3396 -0.8107 -0.6700
 6334TIP3    H240494   5.511   3.429   1.099 -0.2198 -0.9203  0.5336
 6335TIP3   OH240495   1.717   6.284  11.820 -0.3348 -0.5394  0.0409
 6335TIP3    H140496   1.634   6.331  11.825 -0.2720 -0.4564  0.3868
 6335TIP3    H240497   1.783   6.350  11.843  0.1056  0.0785 -2.6831
 6336TIP3   OH240498   2.250   6.744  15.444 -0.7327 -0.3858  0.2218
 6336TIP3    H140499   2.239   6.838  15.458 -0.3240 -0.5413  1.8515
 6336TIP3    H240500   2.343   6.733  15.425 -0.9656 -0.3726 -0.9849
 6337TIP3   OH240501   2.573   2.407  12.215  0.2983  0.4666  0.0916
 6337TIP3    H140502   2.498   2.349  12.223  0.8207 -0.1326  0.8318
 6337TIP3    H240503   2.536   2.495  12.214 -0.5888  0.1224 -2.0999
 6338TIP3   OH240504   5.232   1.418   1.018 -0.7408 -0.0101  0.7832
 6338TIP3    H140505   5.271   1.378   1.096  2.5119  1.2201 -0.0423
 6338TIP3    H240506   5.189   1.496   1.050  0.8196  0.6392  1.3958
 6339TIP3   OH240507   3.885   1.118  13.927 -0.2112 -0.4625  0.3622
 6339TIP3    H140508   3.961   1.114  13.869 -0.0452  0.0475  0.5328
 6339TIP3    H240509   3.810   1.100  13.871  0.1272 -2.2675  0.4379
 6340TIP3   OH240510   4.589   1.033  10.796  0.3180  0.2378  0.1103
 6340TIP3    H140511   4.683   1.026  10.812  0.1178  0.7268  1.6942
 6340TIP3    H240512   4.562   0.945  10.770  1.0511 -0.1468  0.6293
 6341TIP3   OH240513   5.932   0.568   0.137  0.3445  0.5458  0.3106
 6341TIP3    H140514   5.938   0.654   0.094  0.0420 -0.3988 -1.7332
 6341TIP3    H240515   5.855   0.527   0.097  0.6853 -0.8241  1.0055
 6342TIP3   OH240516   2.787   5.564   4.052 -0.6110 -0.2754 -0.0255
 6342TIP3    H140517   2.749   5.647   4.081  0.3488 -0.0518  0.6260
 6342TIP3    H240518   2.712   5.514   4.018 -1.2748  0.6516  0.0476
 6343TIP3   OH240519   0.452   0.792   1.811  0.4402  0.2845 -0.0782
 6343TIP3    H140520   0.396   0.787   1.733  0.2820  0.9254 -0.0087
 6343TIP3    H240521   0.392   0.785   1.885  0.3703  1.5583  0.0048
 6344TIP3   OH240522   2.141   2.192   5.439  0.1083  0.0085 -0.7189
 6344TIP3    H140523   2.142   2.264   5.502 -1.1094  1.5402 -2.3198
 6344TIP3    H240524   2.057   2.149   5.453  0.9798 -1.4025  0.4718
 6345TIP3   OH240525   3.460   3.635   0.737  0.2462  0.1142 -0.4715
 6345TIP3    H140526   3.398   3.563   0.746  0.2336  0.2491  0.7027
 6345TIP3    H240527   3.530   3.614   0.799 -0.5224  1.8682  1.0981
 6346TIP3   OH240528   3.741   2.329  13.930  0.3497  0.0197  0.0117
 6346TIP3    H140529   3.678   2.381  13.879 -0.0995 -0.7247 -0.2112
 6346TIP3    H240530   3.824   2.339  13.884  0.6706  1.8602  0.8816
 6347TIP3   OH240531   0.441   2.631   0.446  0.4265 -1.1295 -0.2885
 6347TIP3    H140532   0.387   2.575   0.502  1.8090 -1.0102  1.2119
 6347TIP3    H240533   0.378   2.689   0.404 -0.5782 -0.0502  2.4801
 6348TIP3   OH240534   0.748   0.488   1.385  0.9131 -0.6346  0.0787
 6348TIP3    H140535   0.759   0.470   1.478  3.5336 -1.2855 -0.2563
 6348TIP3    H240536   0.761   0.582   1.376 -0.9144 -0.3194  0.5137
 6349TIP3   OH240537   6.614   5.095  13.415  0.6616  0.7079  0.1143
 6349TIP3    H140538   6.610   5.191  13.415  1.7951  0.7920 -1.1451
 6349TIP3    H240539   6.669   5.074  13.339 -1.2707 -1.0244 -0.8781
 6350TIP3   OH240540   1.667   5.676  14.459  0.5936 -0.5720  0.4159
 6350TIP3    H140541   1.619   5.676  14.376 -0.7745 -2.0622  1.1419
 6350TIP3    H240542   1.753   5.711  14.437 -0.3760  0.9648 -1.2111
 6351TIP3   OH240543   0.919   4.190   0.656  0.0243 -0.4269 -0.1430
 6351TIP3    H140544   0.925   4.096   0.673  0.9785 -0.2139  0.7951
 6351TIP3    H240545   0.894   4.196   0.563 -3.0687 -1.6139  0.4997
 6352TIP3   OH240546   3.162   1.534  12.071  0.4481  1.2668 -0.1347
 6352TIP3    H140547   3.105   1.587  12.127 -1.3828 -0.8076  0.1255
 6352TIP3    H240548   3.138   1.559  11.982 -1.2191  0.2037 -0.0423
 6353TIP3   OH240549   0.242   5.922   3.696  0.3810  0.2399  0.5823
 6353TIP3    H140550   0.241   5.992   3.630 -0.2811  0.9823  1.3495
 6353TIP3    H240551   0.204   5.963   3.774  0.1467 -0.9343  1.1000
 6354TIP3   OH240552   1.552   2.295   1.421 -0.2234 -0.2257 -0.3809
 6354TIP3    H140553   1.565   2.329   1.333  0.6285  0.1407 -0.1214
 6354TIP3    H240554   1.639   2.291   1.459 -0.7386  1.6972  1.2065
 6355TIP3   OH240555   2.274   3.438  12.102  0.5085 -0.3288 -0.2212
 6355TIP3    H140556   2.345   3.374  12.091  0.4545 -0.9433  2.2740
 6355TIP3    H240557   2.194   3.386  12.093  0.4109 -0.0892 -0.7555
 6356TIP3   OH240558   1.878   0.503  13.541 -0.0931  0.2402 -0.2255
 6356TIP3    H140559   1.894   0.533  13.630 -1.3696  2.8935 -0.8139
 6356TIP3    H240560   1.921   0.568  13.485  0.7137 -1.3915 -1.6108
 6357TIP3   OH240561   4.789   3.446  13.287 -1.0567 -0.2016 -0.1756
 6357TIP3    H140562   4.812   3.536  13.313 -2.5253 -0.6535  3.1464
 6357TIP3    H240563   4.742   3.457  13.205  1.2315  1.7172 -1.3849
 6358TIP3   OH240564   5.343   1.172   4.504 -0.2187 -0.2010  0.5814
 6358TIP3    H140565   5.408   1.117   4.460  0.0451 -1.3795  2.3681
 6358TIP3    H240566   5.265   1.117   4.510 -0.6997  0.4382  0.4187
 6359TIP3   OH240567   5.332   3.947   6.773 -0.4663  0.4619 -0.1872
 6359TIP3    H140568   5.398   3.922   6.838  0.7551  2.8067 -0.4378
 6359TIP3    H240569   5.260   3.984   6.824 -0.3118  0.5920 -0.0615
 6360TIP3   OH240570   2.627   2.625   3.664  0.3059 -0.2933 -0.0270
 6360TIP3    H140571   2.647   2.635   3.757 -1.1448  0.7035  0.2106
 6360TIP3    H240572   2.647   2.533   3.645  0.8215 -0.4582  1.2202
 6361TIP3   OH240573   4.075   6.221   0.397 -0.5497  0.2730  0.0049
 6361TIP3    H140574   4.003   6.270   0.357 -0.7112  0.1806  0.1805
 6361TIP3    H240575   4.120   6.180   0.323 -0.5536  0.4944 -0.1235
 6362TIP3   OH240576   0.155   2.574   4.788  0.3626 -0.5284  0.1056
 6362TIP3    H140577   0.199   2.512   4.730  0.8058  0.0740 -0.2137
 6362TIP3    H240578   0.164   2.536   4.875  3.1391  0.4201  0.3321
 6363TIP3   OH240579   0.906   6.162  12.656  0.1055  0.2647 -0.0241
 6363TIP3    H140580   0.966   6.231  12.682 -1.1442  1.3940 -0.0526
 6363TIP3    H240581   0.956   6.081  12.666  1.9915  1.2386 -1.1040
 6364TIP3   OH240582   2.930   4.233   1.690  0.0372  0.4047 -0.6978
 6364TIP3    H140583   2.895   4.251   1.603  1.6000  0.8626 -1.2798
 6364TIP3    H240584   2.952   4.140   1.688 -2.2378 -0.2047  0.1195
 6365TIP3   OH240585   4.150   1.857  14.333  0.2362  0.9128  0.1973
 6365TIP3    H140586   4.069   1.810  14.349  1.4912 -1.1378  0.9093
 6365TIP3    H240587   4.130   1.948  14.359 -1.7600  0.4483  0.4568
 6366TIP3   OH240588   1.444   3.141  17.254 -0.2238  0.0724 -0.3542
 6366TIP3    H140589   1.424   3.090  17.333 -2.6638  0.4332 -0.6628
 6366TIP3    H240590   1.422   3.082  17.182 -0.7698  0.7177 -0.7249
 6367TIP3   OH240591   3.674   2.425  14.822  0.1291 -0.1054  0.5051
 6367TIP3    H140592   3.724   2.344  14.829 -1.4157 -1.1023  0.6215
 6367TIP3    H240593   3.600   2.403  14.765  0.9278  1.9072 -1.4798
 6368TIP3   OH240594   5.429   1.445  15.689 -0.1919 -0.0126  0.8970
 6368TIP3    H140595   5.499   1.397  15.646 -0.6502 -0.4694  0.6565
 6368TIP3    H240596   5.359   1.448  15.624 -0.3615  0.5275  1.1006
 6369TIP3   OH240597   1.142   4.994  17.421  0.5980  0.2197  0.4616
 6369TIP3    H140598   1.070   4.963  17.475 -0.0159  0.6365 -0.0930
 6369TIP3    H240599   1.199   4.918  17.410  0.7510  0.1410  1.7042
 6370TIP3   OH240600   1.738   2.093   0.794 -0.3530  0.3979  0.6379
 6370TIP3    H140601   1.656   2.142   0.783  0.2952  2.0606  2.4902
 6370TIP3    H240602   1.741   2.073   0.888  1.3057  0.2917  0.5870
 6371TIP3   OH240603   6.388   1.705  11.910 -0.4072 -0.2533 -0.2604
 6371TIP3    H140604   6.309   1.746  11.873 -0.4547  0.5232  0.6512
 6371TIP3    H240605   6.446   1.693  11.835 -0.9685  0.1744 -0.7778
 6372TIP3   OH240606   0.256   2.753   1.932  0.3334 -0.1480  0.1880
 6372TIP3    H140607   0.321   2.798   1.878  1.3449 -1.2969  0.3938
 6372TIP3    H240608   0.255   2.664   1.898  0.0904 -0.5717  1.2716
 6373TIP3   OH240609   1.986   1.679  13.743  0.7225  0.0040  0.1332
 6373TIP3    H140610   2.075   1.680  13.778  0.6607 -0.8881  0.3247
 6373TIP3    H240611   1.945   1.756  13.782  0.7460 -0.7955  1.8102
 6374TIP3   OH240612   1.694   3.239   4.356 -0.1369  0.2680 -0.0395
 6374TIP3    H140613   1.686   3.173   4.425  0.2933  0.5694  0.3045
 6374TIP3    H240614   1.738   3.194   4.284 -1.1980 -0.2410 -0.3814
 6375TIP3   OH240615   4.518   5.360   2.522 -0.0307  0.3891  0.1020
 6375TIP3    H140616   4.482   5.447   2.537  1.8250  1.2197  0.0520
 6375TIP3    H240617   4.572   5.344   2.600  1.3725  0.2449 -0.8689
 6376TIP3   OH240618   3.368   5.192  16.692  0.0400 -0.1945 -0.3445
 6376TIP3    H140619   3.327   5.126  16.748  0.7662 -0.4759 -0.1395
 6376TIP3    H240620   3.349   5.163  16.603  1.1832 -1.2258 -0.2753
 6377TIP3   OH240621   4.093   1.411  15.495 -0.1126 -0.2951 -1.2367
 6377TIP3    H140622   4.013   1.383  15.450  0.4997 -0.6748 -2.1174
 6377TIP3    H240623   4.156   1.341  15.478  0.3506 -0.1018 -0.3721
 6378TIP3   OH240624   0.574   3.209   6.042  0.4710 -0.1162 -0.0902
 6378TIP3    H140625   0.603   3.262   6.116  0.5914  0.1128 -0.3005
 6378TIP3    H240626   0.559   3.122   6.079 -0.0499  0.1418  0.3232
 6379TIP3   OH240627   0.545   0.219  15.271  0.6688  0.9051  0.0018
 6379TIP3    H140628   0.521   0.149  15.211 -0.3460  1.1389  0.1123
 6379TIP3    H240629   0.561   0.294  15.214  0.8614  0.8200 -0.0552
 6380TIP3   OH240630   2.095   6.067   2.514 -0.5383  0.6056 -0.2194
 6380TIP3    H140631   2.009   6.087   2.476 -0.2033  0.5381 -1.0416
 6380TIP3    H240632   2.106   5.973   2.502 -1.0377  0.3222  1.3770
 6381TIP3   OH240633   3.700   5.724   6.622 -0.4918  0.6820  0.2556
 6381TIP3    H140634   3.746   5.802   6.653 -0.7396  0.7034  0.5777
 6381TIP3    H240635   3.631   5.757   6.565 -0.4327  0.6845  0.1865
 6382TIP3   OH240636   2.208   4.652   0.727 -0.4715 -0.2969  0.4203
 6382TIP3    H140637   2.265   4.576   0.720 -1.0288 -0.6174 -1.1793
 6382TIP3    H240638   2.235   4.709   0.655 -0.9642  0.3842  0.7641
 6383TIP3   OH240639   4.460   0.588  15.506  0.1826 -0.9114 -0.2292
 6383TIP3    H140640   4.470   0.564  15.598  0.8876 -0.8636 -0.2876
 6383TIP3    H240641   4.452   0.684  15.507 -0.7481 -0.9815 -0.1485
 6384TIP3   OH240642   3.774   0.799   6.828 -0.4055 -0.3359 -0.4496
 6384TIP3    H140643   3.742   0.856   6.898 -2.2373 -0.3554 -1.2200
 6384TIP3    H240644   3.758   0.710   6.860  2.1433 -0.5104  0.6081
 6385TIP3   OH240645   2.381   4.468  16.330  0.0100 -0.0370 -0.1247
 6385TIP3    H140646   2.380   4.508  16.243 -0.0476 -0.0015 -0.1076
 6385TIP3    H240647   2.440   4.524  16.381  0.0151 -0.0368 -0.1313
 6386TIP3   OH240648   3.318   3.575  17.299 -0.6145  0.0381  0.1532
 6386TIP3    H140649   3.285   3.492  17.335 -2.9809  1.4420  1.4517
 6386TIP3    H240650   3.296   3.570  17.206 -3.7767  0.4308  0.7645
 6387TIP3   OH240651   2.466   4.980  14.548 -0.4177 -0.9609 -0.3694
 6387TIP3    H140652   2.559   4.990  14.568 -0.6307 -0.3444  0.3504
 6387TIP3    H240653   2.426   4.963  14.633 -1.0883 -0.2628 -0.5397
 6388TIP3   OH240654   5.274   0.916   2.256  0.0850 -0.9786  0.4376
 6388TIP3    H140655   5.359   0.882   2.227  0.4126  0.9616 -1.0520
 6388TIP3    H240656   5.245   0.973   2.185 -1.4902  0.0589  1.8330
 6389TIP3   OH240657   5.008   0.176   1.237 -0.0490  0.5415 -0.4470
 6389TIP3    H140658   5.077   0.163   1.172 -0.3568 -1.4163 -0.4284
 6389TIP3    H240659   5.049   0.154   1.320 -0.0110  1.8349 -0.1058
 6390TIP3   OH240660   0.351   2.304  14.137  0.3328  0.4851 -0.0320
 6390TIP3    H140661   0.324   2.261  14.056  0.8229 -0.6599  0.4022
 6390TIP3    H240662   0.282   2.368  14.153 -0.1346  0.2422 -0.9750
 6391TIP3   OH240663   2.705   1.621   4.010  0.0832 -0.2233  0.6542
 6391TIP3    H140664   2.624   1.669   3.992  0.5935  1.2925  2.1388
 6391TIP3    H240665   2.708   1.553   3.942 -0.5774  1.9582 -1.7502
 6392TIP3   OH240666   1.227   0.203   4.035 -0.7091  0.0265  1.1075
 6392TIP3    H140667   1.199   0.125   3.987  3.2737  0.2213 -2.1482
 6392TIP3    H240668   1.172   0.273   4.001 -0.4813 -0.5007 -0.4653
 6393TIP3   OH240669   1.501   0.326  13.994  0.1238 -0.0607  0.6008
 6393TIP3    H140670   1.493   0.421  13.981  1.8855  0.0272 -0.2323
 6393TIP3    H240671   1.564   0.299  13.927  0.1638 -1.7168  1.2740
 6394TIP3   OH240672   1.293   3.156  12.620  0.3785 -0.3266  0.6966
 6394TIP3    H140673   1.222   3.158  12.556 -0.1545 -1.6350  1.2241
 6394TIP3    H240674   1.368   3.194  12.573 -0.5461  0.7371  0.0171
 6395TIP3   OH240675   5.537   2.274   4.355 -0.1685  0.3284  0.0792
 6395TIP3    H140676   5.446   2.259   4.382  0.1365 -0.7487  0.5789
 6395TIP3    H240677   5.536   2.361   4.315 -1.0610  1.1537  1.7829
 6396TIP3   OH240678   5.592   3.662   2.928 -0.4060 -0.1899  0.2667
 6396TIP3    H140679   5.566   3.746   2.965  0.5529  0.2042  0.0917
 6396TIP3    H240680   5.584   3.675   2.833  2.8481  0.8821 -0.0043
 6397TIP3   OH240681   3.873   6.090   4.660 -0.2646 -0.3502 -0.7402
 6397TIP3    H140682   3.950   6.068   4.711 -1.1903 -3.1155 -0.3422
 6397TIP3    H240683   3.813   6.131   4.723 -0.4601 -1.5180 -0.1302
 6398TIP3   OH240684   2.332   5.662   0.806 -0.4160 -0.3715  0.0626
 6398TIP3    H140685   2.412   5.696   0.845 -0.3012 -0.7369  0.1418
 6398TIP3    H240686   2.277   5.638   0.881 -1.4263  1.7405  0.0814
 6399TIP3   OH240687   3.410   1.887   0.638  0.1184  0.0689 -0.4397
 6399TIP3    H140688   3.346   1.817   0.626 -1.5600  1.4347  0.1320
 6399TIP3    H240689   3.440   1.877   0.729 -0.3366  0.2398 -0.2660
 6400TIP3   OH240690   4.027   5.381   5.590 -0.1278 -0.1220  0.1435
 6400TIP3    H140691   3.954   5.393   5.529 -0.1996  1.9621  0.5787
 6400TIP3    H240692   4.104   5.412   5.542  0.0237  0.2998  0.6498
 6401TIP3   OH240693   5.172   1.313   3.759  0.2676 -0.5321 -1.2016
 6401TIP3    H140694   5.206   1.398   3.788 -3.7967  0.2768  2.1805
 6401TIP3    H240695   5.145   1.328   3.668  2.6039  0.6408 -1.8064
 6402TIP3   OH240696   1.090   1.197   1.623  0.0071  0.1018 -0.1005
 6402TIP3    H140697   1.069   1.283   1.587 -3.3268 -0.5502 -0.0053
 6402TIP3    H240698   1.162   1.165   1.568  2.0346  3.2351  0.4705
 6403TIP3   OH240699   2.180   5.405  14.828 -0.4238  0.1461  0.0520
 6403TIP3    H140700   2.125   5.339  14.786 -0.7808  0.8122 -0.5383
 6403TIP3    H240701   2.165   5.392  14.922 -0.1286 -0.9088 -0.0305
 6404TIP3   OH240702   6.557   5.321   5.648 -0.6332 -0.5800 -0.7672
 6404TIP3    H140703   6.470   5.360   5.649 -0.6376 -0.5815  0.4812
 6404TIP3    H240704   6.616   5.395   5.635 -0.7026 -0.2584  0.5944
 6405TIP3   OH240705   3.353   5.855   5.807 -0.0898 -0.2242  0.5265
 6405TIP3    H140706   3.435   5.901   5.823 -0.9092  1.0947  1.0416
 6405TIP3    H240707   3.287   5.924   5.800 -0.9379 -1.1578 -1.4181
 6406TIP3   OH240708   4.751   3.304  14.358  0.1359  0.3496  0.1013
 6406TIP3    H140709   4.706   3.234  14.405 -1.3156  1.0493 -0.1744
 6406TIP3    H240710   4.705   3.309  14.274  1.3528  0.4823 -0.5814
 6407TIP3   OH240711   4.998   5.213   6.559 -0.2210  0.4106  0.0954
 6407TIP3    H140712   5.034   5.270   6.627 -1.6135  0.9410  0.4197
 6407TIP3    H240713   5.051   5.133   6.565  0.8770  1.1447  0.5401
 6408TIP3   OH240714   3.663   3.067  15.471  0.1944  0.0675  0.1457
 6408TIP3    H140715   3.723   3.000  15.503 -0.7129 -0.4904  0.7405
 6408TIP3    H240716   3.705   3.150  15.492  2.1392 -0.2569 -2.0987
 6409TIP3   OH240717   0.206   2.849   2.799  0.2901 -0.2645 -0.4531
 6409TIP3    H140718   0.196   2.870   2.891  0.8646  1.5973 -0.7743
 6409TIP3    H240719   0.300   2.859   2.782 -0.0010  0.8027 -1.5400
 6410TIP3   OH240720   1.758   4.780   1.926  0.0162  0.3707 -0.2798
 6410TIP3    H140721   1.826   4.716   1.907 -0.7748 -0.8730  0.8944
 6410TIP3    H240722   1.773   4.851   1.863  2.1320 -0.0349 -0.3012
 6411TIP3   OH240723   1.166   4.980   3.225  0.3848 -0.2748 -0.1678
 6411TIP3    H140724   1.129   5.057   3.268  0.5926  0.0558 -0.5728
 6411TIP3    H240725   1.174   4.915   3.294  0.4999  0.1725  0.2431
 6412TIP3   OH240726   0.873   5.957  14.823  0.5340  0.3919 -0.4972
 6412TIP3    H140727   0.921   6.037  14.803  0.8822  0.0790 -0.9183
 6412TIP3    H240728   0.892   5.899  14.750  0.9259 -0.3693  0.1950
 6413TIP3   OH240729   3.421   6.000  11.755  0.1616 -0.1852 -0.0955
 6413TIP3    H140730   3.463   6.082  11.782  4.0129 -2.4715  1.7678
 6413TIP3    H240731   3.456   5.982  11.668 -0.1487 -0.1785 -0.2230
 6414TIP3   OH240732   5.438   5.282  10.656 -0.2438  0.0121  0.1576
 6414TIP3    H140733   5.379   5.242  10.592 -0.7940  0.6826  0.2324
 6414TIP3    H240734   5.494   5.210  10.686 -1.2829 -0.7188  0.3779
 6415TIP3   OH240735   4.598   5.366   0.315 -0.2768  0.2501  0.0526
 6415TIP3    H140736   4.512   5.395   0.346 -0.0263 -0.8943  2.0362
 6415TIP3    H240737   4.618   5.289   0.369  2.1422  0.6988 -0.0808
 6416TIP3   OH240738   3.668   6.265   5.657 -0.1517  0.2229 -0.2411
 6416TIP3    H140739   3.707   6.322   5.590 -0.3111 -1.3687 -1.7486
 6416TIP3    H240740   3.580   6.301   5.670  1.4544  3.6429  2.9435
 6417TIP3   OH240741   1.352   1.204   5.439 -0.9801  0.0679  0.2961
 6417TIP3    H140742   1.279   1.233   5.493 -0.5253 -0.5493  1.2736
 6417TIP3    H240743   1.405   1.283   5.427 -1.0508  0.1975  0.8125
 6418TIP3   OH240744   4.918   5.128  15.825 -0.2256 -0.3279  0.2741
 6418TIP3    H140745   4.881   5.049  15.785 -0.7125 -0.5164  1.0697
 6418TIP3    H240746   4.895   5.120  15.917  2.6727 -0.9602  1.0342
 6419TIP3   OH240747   2.331   4.520   5.241  0.7942  0.2418 -0.0587
 6419TIP3    H140748   2.321   4.479   5.155 -0.6221 -1.1453  0.7095
 6419TIP3    H240749   2.414   4.487   5.275 -0.2633 -2.0372  0.5029
 6420TIP3   OH240750   6.442   2.567  11.267 -0.4440 -0.2635 -0.0118
 6420TIP3    H140751   6.469   2.482  11.300 -2.0682 -0.8126 -0.0135
 6420TIP3    H240752   6.348   2.571  11.285 -0.8934  0.5033 -2.2163
 6421TIP3   OH240753   3.910   3.817   1.546 -0.5127 -0.0767 -0.4946
 6421TIP3    H140754   3.957   3.753   1.600 -2.1373 -1.1673 -0.2783
 6421TIP3    H240755   3.890   3.770   1.465 -1.9059  0.0616 -0.2555
 6422TIP3   OH240756   0.335   2.876  12.879  0.3619 -0.2283 -0.0426
 6422TIP3    H140757   0.366   2.883  12.789  1.3024  2.0815  0.4131
 6422TIP3    H240758   0.240   2.885  12.872  0.1742 -2.2313 -0.9486
 6423TIP3   OH240759   2.041   0.236   0.113  0.0994 -0.5644 -0.0895
 6423TIP3    H140760   2.021   0.259   0.022  2.6536 -0.1232 -0.6038
 6423TIP3    H240761   2.070   0.145   0.108  1.3480 -0.1877  0.0814
 6424TIP3   OH240762   2.085   5.015   3.941  0.1221  0.0573  0.1298
 6424TIP3    H140763   2.165   5.053   3.977 -0.3202  0.1281  1.0828
 6424TIP3    H240764   2.021   5.086   3.946 -0.1830 -0.2105  0.0423
 6425TIP3   OH240765   0.428   3.954  14.613  0.1922  0.0753 -0.6111
 6425TIP3    H140766   0.486   4.028  14.597  0.4142 -0.3400 -1.8684
 6425TIP3    H240767   0.383   3.975  14.695  2.0255  0.4438  0.3572
 6426TIP3   OH240768   1.317   2.238  16.265  0.6255  0.1920 -0.0382
 6426TIP3    H140769   1.296   2.160  16.317 -1.1957  1.2410  0.8767
 6426TIP3    H240770   1.243   2.248  16.205  0.2590  1.8535  0.6512
 6427TIP3   OH240771   0.424   4.323   3.563 -0.7470 -0.0905  0.0171
 6427TIP3    H140772   0.432   4.247   3.506 -0.0851 -0.4644  0.5945
 6427TIP3    H240773   0.496   4.381   3.536  0.1697 -0.6998  1.1017
 6428TIP3   OH240774   2.027   4.498   3.535  0.4725  0.1638 -0.3053
 6428TIP3    H140775   2.045   4.409   3.506 -0.2440 -0.4281  0.9431
 6428TIP3    H240776   2.114   4.537   3.547  0.8860 -1.0996  1.2037
 6429TIP3   OH240777   5.560   1.166   1.168 -0.0668 -0.4646 -0.3553
 6429TIP3    H140778   5.623   1.211   1.112  0.2675  0.0003  0.3692
 6429TIP3    H240779   5.578   1.200   1.256 -2.6346  1.2059 -0.3821
 6430TIP3   OH240780   3.167   5.892  14.036 -0.1596 -0.5393  0.3913
 6430TIP3    H140781   3.244   5.947  14.053 -1.5415  2.1347 -1.4405
 6430TIP3    H240782   3.135   5.868  14.123  0.9103  0.9772  1.2491
 6431TIP3   OH240783   0.515   6.614  11.721  0.9314 -0.1970  0.0201
 6431TIP3    H140784   0.527   6.658  11.637 -1.6052  0.6638  0.0102
 6431TIP3    H240785   0.522   6.685  11.785 -3.1363  0.4564  0.0121
 6432TIP3   OH240786   6.334   5.281   0.636 -0.2550 -0.1790 -0.1979
 6432TIP3    H140787   6.296   5.281   0.723 -0.6901 -1.7811 -0.3579
 6432TIP3    H240788   6.268   5.238   0.581  0.0348  0.7510 -1.3117
 6433TIP3   OH240789   5.216   1.185  16.213  0.5323  0.1407 -0.1085
 6433TIP3    H140790   5.309   1.193  16.192  0.3167 -0.3692 -1.3777
 6433TIP3    H240791   5.192   1.097  16.182  0.4144 -1.2824  3.5177
 6434TIP3   OH240792   0.642   0.866   6.537  0.1697  0.1516  0.6340
 6434TIP3    H140793   0.632   0.942   6.480 -1.1137  0.5261  1.3200
 6434TIP3    H240794   0.727   0.829   6.514  0.2529  1.0669 -0.5786
 6435TIP3   OH240795   1.613   0.142   0.799 -0.2560 -1.0347 -0.0474
 6435TIP3    H140796   1.692   0.170   0.845 -0.3900 -2.4833  1.1603
 6435TIP3    H240797   1.641   0.070   0.743 -0.5280 -0.8622 -0.4087
 6436TIP3   OH240798   0.703   1.142  11.329  0.6173  0.2100 -0.1130
 6436TIP3    H140799   0.719   1.229  11.367 -1.1885  0.7418 -0.4413
 6436TIP3    H240800   0.622   1.154  11.278  0.7991 -1.4702 -0.8367
 6437TIP3   OH240801   0.172   0.647   4.453 -0.2320  0.0109 -0.1081
 6437TIP3    H140802   0.172   0.741   4.440  2.6735  0.0916 -0.1850
 6437TIP3    H240803   0.193   0.635   4.545  1.6875 -0.4903 -0.5620
 6438TIP3   OH240804   0.379   2.828   2.220 -0.2579 -0.0507  0.3231
 6438TIP3    H140805   0.472   2.827   2.246  0.0176 -0.5365 -0.6249
 6438TIP3    H240806   0.382   2.839   2.125 -1.2166  1.2496  0.4294
 6439TIP3   OH240807   3.305   0.527  14.634 -0.1500  0.1533 -0.3557
 6439TIP3    H140808   3.331   0.458  14.572 -1.0620  0.3124 -0.9298
 6439TIP3    H240809   3.244   0.581  14.585 -0.6626  0.4595  0.5982
 6440TIP3   OH240810   4.139   5.169  12.302 -0.2474 -0.4896  0.7592
 6440TIP3    H140811   4.115   5.261  12.313  0.0852 -0.3998  0.7307
 6440TIP3    H240812   4.233   5.166  12.320 -0.4770 -1.0223  1.9762
 6441TIP3   OH240813   2.592   5.329  16.975  0.0979  0.1485 -0.0733
 6441TIP3    H140814   2.648   5.400  17.006 -1.1905  1.0029  0.3525
 6441TIP3    H240815   2.534   5.370  16.912 -0.3401 -0.6456 -0.2041
 6442TIP3   OH240816   3.711   4.208   2.342  0.2617 -1.0432  0.0451
 6442TIP3    H140817   3.789   4.262   2.351  0.3760 -0.9446 -1.3357
 6442TIP3    H240818   3.653   4.258   2.284 -1.0127 -0.9343  1.3378
 6443TIP3   OH240819   2.584   5.623  15.211  0.5881  0.3572  0.3657
 6443TIP3    H140820   2.508   5.668  15.248  0.7239 -0.4857  1.7288
 6443TIP3    H240821   2.556   5.532  15.201  1.1291  0.2220  0.0021
 6444TIP3   OH240822   5.702   4.554   5.505  0.4834  0.2522  0.2691
 6444TIP3    H140823   5.725   4.541   5.413 -0.9249  1.7929 -0.3437
 6444TIP3    H240824   5.772   4.608   5.540  0.1516  1.1344 -0.3886
 6445TIP3   OH240825   6.524   5.723   1.115  0.1113 -0.5635  0.0383
 6445TIP3    H140826   6.574   5.805   1.119 -0.8531  0.0456  0.0855
 6445TIP3    H240827   6.545   5.686   1.030  0.3585 -0.1392 -0.0908
 6446TIP3   OH240828   1.209   6.337  13.957  0.2898 -0.2013 -0.0965
 6446TIP3    H140829   1.133   6.369  13.908  0.1949 -0.4836 -0.1401
 6446TIP3    H240830   1.266   6.299  13.890 -1.3122 -3.6041  0.2359
 6447TIP3   OH240831   5.653   3.893  12.466 -0.3496 -0.0298 -0.2244
 6447TIP3    H140832   5.576   3.947  12.448  0.1533  0.4587 -0.9587
 6447TIP3    H240833   5.668   3.902  12.560 -0.2170  1.1898 -0.3538
 6448TIP3   OH240834   1.716   2.992  14.649  0.1495 -0.2530 -0.0511
 6448TIP3    H140835   1.677   3.029  14.728 -1.0742 -0.0245 -0.7408
 6448TIP3    H240836   1.786   3.053  14.626  1.1143 -0.7731  1.3180
 6449TIP3   OH240837   5.992   3.468  15.393  0.1421  0.5837  0.1573
 6449TIP3    H140838   5.955   3.532  15.454 -1.2037 -0.4537  0.4506
 6449TIP3    H240839   6.083   3.498  15.380 -0.3400  2.3387  0.5487
 6450TIP3   OH240840   4.988   2.381   1.756 -0.2612 -0.1402  0.3879
 6450TIP3    H140841   5.032   2.386   1.840 -0.7773  0.4183  0.6294
 6450TIP3    H240842   4.897   2.405   1.775 -0.1698  0.9892 -0.4885
 6451TIP3   OH240843   2.491   4.145  15.810 -0.3205  0.2947 -0.2916
 6451TIP3    H140844   2.416   4.090  15.787 -0.7852  1.4030 -1.5894
 6451TIP3    H240845   2.492   4.145  15.906  0.3393 -2.7525 -0.1921
 6452TIP3   OH240846   2.586   6.493   0.751 -0.1490 -0.1983 -0.1567
 6452TIP3    H140847   2.503   6.539   0.763  0.1021  0.3596 -0.5366
 6452TIP3    H240848   2.619   6.523   0.667  0.4884 -0.3393  0.0349
 6453TIP3   OH240849   0.455   0.649  13.488 -0.2987  0.1355 -0.2108
 6453TIP3    H140850   0.388   0.599  13.443 -3.4447  3.0741  0.7719
 6453TIP3    H240851   0.510   0.684  13.417 -1.5222 -0.1210 -1.3329
 6454TIP3   OH240852   3.355   3.945   4.720 -0.4564 -0.3425 -0.3060
 6454TIP3    H140853   3.410   3.893   4.662  1.3448  1.0995 -0.0089
 6454TIP3    H240854   3.271   3.951   4.676  0.2613 -0.9212 -1.8061
 6455TIP3   OH240855   5.485   3.444   4.283 -0.3392  0.2650 -0.2272
 6455TIP3    H140856   5.442   3.417   4.364 -0.3151  2.9296  0.7721
 6455TIP3    H240857   5.575   3.414   4.292 -1.2928 -3.7087 -1.5219
 6456TIP3   OH240858   1.786   1.264   5.123 -0.0846  0.0161  0.0462
 6456TIP3    H140859   1.794   1.356   5.098 -0.8031  0.6700  1.9850
 6456TIP3    H240860   1.831   1.258   5.207  0.0762 -1.4449 -0.1220
 6457TIP3   OH240861   4.538   4.451   6.341  0.1232  0.6838  0.4996
 6457TIP3    H140862   4.511   4.505   6.415 -0.7731  0.2432  0.5099
 6457TIP3    H240863   4.566   4.513   6.274  1.0176  1.0876  1.2247
 6458TIP3   OH240864   4.373   1.965  15.154 -0.3704 -0.0758  0.0934
 6458TIP3    H140865   4.332   1.972  15.068  2.3633 -1.0032 -1.3939
 6458TIP3    H240866   4.320   1.898  15.199  0.2554 -2.3927 -2.3087
 6459TIP3   OH240867   4.357   3.301  14.191 -0.0433 -0.5768 -0.1104
 6459TIP3    H140868   4.366   3.393  14.216  3.0655 -0.8880  0.3870
 6459TIP3    H240869   4.301   3.302  14.113  0.7214  1.8555 -0.7032
 6460TIP3   OH240870   0.451   3.696  14.596  0.3761  0.0631 -0.4982
 6460TIP3    H140871   0.537   3.717  14.560  0.5288  1.3676  0.5069
 6460TIP3    H240872   0.415   3.781  14.622 -1.7880 -0.2862 -2.0586
 6461TIP3   OH240873   6.706   1.821  14.084 -0.3930 -0.3182 -0.1540
 6461TIP3    H140874   6.790   1.798  14.044 -0.3792 -1.6103  0.5492
 6461TIP3    H240875   6.664   1.736  14.100 -0.5461  0.1443  2.2322
 6462TIP3   OH240876   5.323   4.551   1.137 -0.5585  0.4822  0.0711
 6462TIP3    H140877   5.379   4.483   1.174 -0.4101  1.1269  1.0909
 6462TIP3    H240878   5.240   4.507   1.118 -0.3505 -0.0626  0.4057
 6463TIP3   OH240879   1.493   1.174   5.185 -0.2897  0.5451 -0.2439
 6463TIP3    H140880   1.493   1.238   5.255 -0.3978 -0.0777  0.3320
 6463TIP3    H240881   1.584   1.167   5.158 -0.3033  1.0628 -0.4267
 6464TIP3   OH240882   0.909   5.380  15.284 -0.1573  0.0900  0.1794
 6464TIP3    H140883   0.919   5.445  15.215 -0.6332  0.4489  0.4423
 6464TIP3    H240884   0.866   5.306  15.241 -1.8816  0.9106  0.4143
 6465TIP3   OH240885   4.507   6.664   4.979  0.2330  0.5250 -0.2431
 6465TIP3    H140886   4.426   6.620   4.953  0.8001  0.6191 -2.3266
 6465TIP3    H240887   4.576   6.601   4.961  0.7396  0.8871  0.3819
 6466TIP3   OH240888   0.598   0.771   2.203  0.6555  0.3479  0.2132
 6466TIP3    H140889   0.670   0.754   2.144  1.7725  2.9271  0.6875
 6466TIP3    H240890   0.520   0.743   2.155  1.5786  1.6929 -2.2312
 6467TIP3   OH240891   1.835   0.635  12.604 -0.4858 -0.8110  0.3329
 6467TIP3    H140892   1.743   0.663  12.607  0.1458  1.4270  2.0117
 6467TIP3    H240893   1.861   0.629  12.696  1.3723 -0.0912 -0.1072
 6468TIP3   OH240894   5.031   1.834  12.444  0.2501 -0.8980 -0.2768
 6468TIP3    H140895   5.058   1.746  12.471 -0.2715 -0.8437  0.4245
 6468TIP3    H240896   5.002   1.877  12.524  0.2532 -0.1707 -0.6570
 6469TIP3   OH240897   0.792   1.122   0.243  0.1763  0.8217 -0.1238
 6469TIP3    H140898   0.793   1.115   0.338  0.2991 -1.2696 -0.2153
 6469TIP3    H240899   0.853   1.193   0.222  3.2350 -1.2042  1.2594
 6470TIP3   OH240900   6.133   2.549  12.072 -0.2801 -0.1601 -0.0413
 6470TIP3    H140901   6.078   2.486  12.118  0.7978 -0.8593  0.3352
 6470TIP3    H240902   6.171   2.603  12.141  1.0291 -0.9534 -0.1150
 6471TIP3   OH240903   4.699   1.246   5.227  0.1305  0.1042  0.4056
 6471TIP3    H140904   4.688   1.271   5.319  1.6948 -1.3242  1.0376
 6471TIP3    H240905   4.744   1.320   5.187  0.8812  0.1017  1.2036
 6472TIP3   OH240906   0.096   5.505  17.135  0.1040 -0.5192 -0.0942
 6472TIP3    H140907   0.134   5.431  17.182  0.4859 -0.0050  0.4308
 6472TIP3    H240908   0.122   5.491  17.044 -0.7162 -1.5711 -0.1819
 6473TIP3   OH240909   3.931   4.977   2.168  0.0012  0.4531  0.3344
 6473TIP3    H140910   3.968   4.915   2.230 -1.0174 -0.4779  0.0432
 6473TIP3    H240911   3.952   4.940   2.082 -1.4255 -0.0207  0.1654
 6474TIP3   OH240912   4.985   6.760   4.561  0.1239  0.4749 -0.1629
 6474TIP3    H140913   5.001   6.765   4.467 -0.4803  1.0202 -0.2483
 6474TIP3    H240914   4.923   6.688   4.571 -0.6180  1.0820 -0.3069
 6475TIP3   OH240915   5.552   1.656   4.192 -0.2194  0.5376  0.7991
 6475TIP3    H140916   5.575   1.738   4.237  2.9264  1.6722 -2.4183
 6475TIP3    H240917   5.621   1.595   4.217  0.4172  0.5678 -0.7885
 6476TIP3   OH240918   0.256   6.305   4.445 -0.3380  0.1674  0.4442
 6476TIP3    H140919   0.256   6.399   4.466 -0.5673  0.3885 -0.5270
 6476TIP3    H240920   0.218   6.264   4.523  1.3481  0.6946  1.6076
 6477TIP3   OH240921   2.227   1.191   4.665 -0.0095  0.0936 -0.0952
 6477TIP3    H140922   2.222   1.114   4.607  0.9883 -2.0027  2.4296
 6477TIP3    H240923   2.195   1.263   4.611 -0.3899 -1.9484 -2.8162
 6478TIP3   OH240924   0.775   0.172   2.615  0.3882 -0.3578  0.2922
 6478TIP3    H140925   0.762   0.265   2.637  1.5909 -0.4362  1.4705
 6478TIP3    H240926   0.850   0.172   2.555  0.7357 -0.6012  0.7217
 6479TIP3   OH240927   6.612   6.056   1.751  0.5195 -0.0631  0.1947
 6479TIP3    H140928   6.634   6.066   1.844 -0.7950 -0.7255  0.6019
 6479TIP3    H240929   6.599   6.145   1.719 -1.2631  0.0948  1.2440
 6480TIP3   OH240930   5.729   6.430  12.292  0.2538 -0.2808 -0.0989
 6480TIP3    H140931   5.669   6.398  12.224 -0.5410 -0.3527  0.6182
 6480TIP3    H240932   5.816   6.415  12.256 -0.0685 -2.7124 -0.0590
 6481TIP3   OH240933   6.426   2.392  13.379  0.3838 -0.1416 -0.6902
 6481TIP3    H140934   6.406   2.378  13.286  0.4043 -1.2538 -0.5360
 6481TIP3    H240935   6.425   2.487  13.389 -1.9178 -0.0369 -1.3310
 6482TIP3   OH240936   5.817   5.613  14.053  0.1189 -0.1644  0.2544
 6482TIP3    H140937   5.732   5.601  14.011  0.2258  2.1480 -0.8285
 6482TIP3    H240938   5.816   5.705  14.082  1.5261 -0.6360  1.9694
 6483TIP3   OH240939   2.454   2.057  11.094  0.6874  0.0989  0.2406
 6483TIP3    H140940   2.531   2.030  11.143  1.2365  1.0093 -0.1016
 6483TIP3    H240941   2.433   1.982  11.039 -1.1129 -1.7509  3.1702
 6484TIP3   OH240942   1.796   1.876  15.529 -0.0967 -0.1675 -0.6147
 6484TIP3    H140943   1.889   1.857  15.524 -0.2227 -0.6213 -1.4367
 6484TIP3    H240944   1.790   1.956  15.581  0.8840  0.8050 -1.9314
 6485TIP3   OH240945   1.456   6.349  11.615  0.7544 -0.0170 -0.0989
 6485TIP3    H140946   1.503   6.386  11.540  1.9517 -0.9922  0.1421
 6485TIP3    H240947   1.364   6.369  11.597  0.9987 -0.2677 -1.8702
 6486TIP3   OH240948   5.996   6.252   6.113 -0.0829  0.5929 -0.2178
 6486TIP3    H140949   5.981   6.286   6.201 -2.6038  1.9548 -1.0518
 6486TIP3    H240950   6.048   6.320   6.069  2.6098 -0.8138  0.5752
 6487TIP3   OH240951   2.028   3.894   4.538 -0.0048 -0.7508 -0.0296
 6487TIP3    H140952   1.936   3.877   4.559 -0.4017  2.2794  1.1969
 6487TIP3    H240953   2.072   3.896   4.623  0.4022  1.5197 -0.2305
 6488TIP3   OH240954   3.587   1.315   5.910 -0.0763 -0.1602 -0.0860
 6488TIP3    H140955   3.644   1.346   5.981 -0.6079  2.2036 -0.5927
 6488TIP3    H240956   3.633   1.239   5.875  1.6492  0.3230  0.9485
 6489TIP3   OH240957   0.274   0.946   3.458  0.3651  0.2044 -0.4152
 6489TIP3    H140958   0.364   0.978   3.459  0.2495  0.8225  2.9400
 6489TIP3    H240959   0.222   1.022   3.432  0.5425  1.3367  2.1925
 6490TIP3   OH240960   1.675   3.579  12.730  0.5444  0.2545  0.0494
 6490TIP3    H140961   1.599   3.556  12.677  0.1711  1.8266 -0.1375
 6490TIP3    H240962   1.652   3.553  12.819  1.2485 -2.5926 -0.4980
 6491TIP3   OH240963   3.411   3.592   1.079  0.3253 -0.0557  0.1262
 6491TIP3    H140964   3.450   3.533   1.144  0.7840  1.7292  1.5396
 6491TIP3    H240965   3.468   3.585   1.003  0.4779 -1.2572  0.3258
 6492TIP3   OH240966   3.120   1.427  15.170  0.1131  0.0133 -0.1337
 6492TIP3    H140967   3.050   1.410  15.107  0.3912 -1.2200 -0.1243
 6492TIP3    H240968   3.141   1.520  15.158 -1.7517  0.5029  0.1033
 6493TIP3   OH240969   1.327   2.811   1.151  0.6410 -0.0695 -0.0729
 6493TIP3    H140970   1.309   2.717   1.158 -0.1403  0.1041  0.3289
 6493TIP3    H240971   1.244   2.853   1.171  1.2056  0.7310  0.6666
 6494TIP3   OH240972   3.745   3.221  14.976 -0.1159 -0.0762  0.0220
 6494TIP3    H140973   3.781   3.166  15.046 -0.0908  1.6446  1.4275
 6494TIP3    H240974   3.653   3.234  15.002 -0.1611  0.4088 -0.3842
 6495TIP3   OH240975   0.353   0.125   4.133 -0.2738  0.5450 -0.3371
 6495TIP3    H140976   0.386   0.181   4.203  0.7450  0.0270 -0.3887
 6495TIP3    H240977   0.363   0.036   4.166 -0.6448  0.3304 -0.7845
 6496TIP3   OH240978   5.648   0.745  17.227  0.6452 -0.2600  0.3977
 6496TIP3    H140979   5.671   0.838  17.226 -1.7585  0.4130 -0.2038
 6496TIP3    H240980   5.639   0.721  17.135 -1.7570 -0.1612  0.5250
 6497TIP3   OH240981   1.839   5.362  13.389 -0.0776 -0.7457 -0.6483
 6497TIP3    H140982   1.821   5.427  13.321  2.3968  1.1320  0.3434
 6497TIP3    H240983   1.890   5.294  13.346  1.8864  0.6660 -0.6955
 6498TIP3   OH240984   2.147   6.732   6.027  0.3732  0.4838 -0.1330
 6498TIP3    H140985   2.219   6.721   5.965  0.4459  3.6162 -0.7701
 6498TIP3    H240986   2.160   6.820   6.063 -1.7037  0.1265  1.6848
 6499TIP3   OH240987   1.628   2.965  16.730 -0.2776 -0.1467 -0.1977
 6499TIP3    H140988   1.533   2.961  16.729 -0.3113 -1.2498  1.7734
 6499TIP3    H240989   1.652   2.933  16.817  1.9471 -1.0612 -1.0846
 6500TIP3   OH240990   3.041   5.648  14.887  0.2355  0.1029  0.0749
 6500TIP3    H140991   2.975   5.631  14.954  0.0350 -0.5102 -0.2768
 6500TIP3    H240992   3.118   5.678  14.937 -0.0288  0.0077  0.5464
 6501TIP3   OH240993   1.236   5.883  16.998  0.6908 -0.2845  0.3951
 6501TIP3    H140994   1.192   5.923  16.923  2.0322 -0.1237 -0.3474
 6501TIP3    H240995   1.274   5.802  16.962 -0.2499 -1.1871  1.3773
 6502TIP3   OH240996   5.302   2.325  13.051  0.5911  0.3591  0.0429
 6502TIP3    H140997   5.211   2.347  13.068  0.4176 -0.5794  0.3622
 6502TIP3    H240998   5.352   2.394  13.094  0.0260  1.5427 -1.1328
 6503TIP3   OH240999   4.138   2.615   0.271  0.0450 -0.6360  0.4386
 6503TIP3    H141000   4.168   2.619   0.362 -2.2581 -0.0671  1.2330
 6503TIP3    H241001   4.054   2.571   0.275 -0.6580  0.4413 -1.2542
 6504TIP3   OH241002   6.756   5.660   3.455  0.5001 -0.0648 -0.4365
 6504TIP3    H141003   6.688   5.692   3.513  0.2079 -0.6097 -0.4671
 6504TIP3    H241004   6.794   5.738   3.416  0.8607  0.3262  0.6603
 6505TIP3   OH241005   2.694   0.155   4.092  0.0414 -0.1479 -0.4169
 6505TIP3    H141006   2.727   0.209   4.163  0.7869  0.6798 -1.3533
 6505TIP3    H241007   2.599   0.164   4.098  0.1359  2.0116 -1.0243
 6506TIP3   OH241008   6.017   6.723  15.256 -0.5785  0.0856 -0.1833
 6506TIP3    H141009   6.048   6.706  15.168  0.4732 -0.0474  0.2011
 6506TIP3    H241010   6.007   6.819  15.260  1.3720  0.3135  0.1709
 6507TIP3   OH241011   0.356   2.480   1.451 -0.0874 -0.3876 -0.0133
 6507TIP3    H141012   0.409   2.506   1.375 -0.9437  0.1363 -0.4454
 6507TIP3    H241013   0.325   2.391   1.430 -0.9082  0.0277 -0.6185
 6508TIP3   OH241014   4.656   3.628   2.303 -0.6150 -0.1725 -0.2773
 6508TIP3    H141015   4.565   3.644   2.276 -0.5227 -1.5276 -1.5286
 6508TIP3    H241016   4.692   3.716   2.318 -1.7738  0.4545 -0.9665
 6509TIP3   OH241017   5.838   5.169  12.363 -0.5860  0.0066  0.1550
 6509TIP3    H141018   5.855   5.076  12.382 -0.0208  0.0732 -0.0240
 6509TIP3    H241019   5.748   5.170  12.331  0.2314 -0.8716 -2.3990
 6510TIP3   OH241020   1.514   1.877  14.899 -0.0694  0.3688 -0.1736
 6510TIP3    H141021   1.591   1.912  14.854  0.0553 -0.7826 -0.8866
 6510TIP3    H241022   1.439   1.918  14.855  0.0441 -0.8817 -1.5891
 6511TIP3   OH241023   0.876   0.841  11.352  0.0593  0.3399  0.9632
 6511TIP3    H141024   0.848   0.803  11.269  2.3265 -0.6265  0.5885
 6511TIP3    H241025   0.795   0.876  11.390 -0.9013  1.6448 -2.0201
 6512TIP3   OH241026   3.066   1.527  11.807  0.0966  0.1738 -0.7238
 6512TIP3    H141027   3.108   1.449  11.769 -0.9930  0.7028 -3.2087
 6512TIP3    H241028   2.981   1.533  11.762 -1.1729  1.1041  1.6288
 6513TIP3   OH241029   0.191   3.922  10.585  0.1018 -0.4340  0.1414
 6513TIP3    H141030   0.193   3.827  10.580  0.4532 -0.3668 -2.2018
 6513TIP3    H241031   0.255   3.943  10.653  0.4408 -1.8550  0.3010
 6514TIP3   OH241032   5.761   3.413   2.378  0.5389  0.3364 -0.0910
 6514TIP3    H141033   5.834   3.353   2.361  0.8415  0.1374  1.7138
 6514TIP3    H241034   5.761   3.472   2.303  2.6445  0.4024 -0.1077
 6515TIP3   OH241035   0.171   5.201  16.083 -0.5879  0.4350  0.0465
 6515TIP3    H141036   0.103   5.269  16.081 -1.0456  0.0801  2.0023
 6515TIP3    H241037   0.124   5.119  16.096  0.1788  0.1707  1.3456
 6516TIP3   OH241038   4.020   2.392   0.951 -0.1070  0.0976  0.0669
 6516TIP3    H141039   4.053   2.462   0.895 -1.1730  1.5081  1.1103
 6516TIP3    H241040   3.928   2.385   0.929 -0.6202  0.8770  1.7585
 6517TIP3   OH241041   5.837   0.619   3.473 -0.3173  0.5733 -0.3303
 6517TIP3    H141042   5.751   0.580   3.456  1.8353 -5.5068  0.6699
 6517TIP3    H241043   5.833   0.647   3.564 -1.1333  0.0132 -0.1828
 6518TIP3   OH241044   5.162   0.471  15.077 -0.9805 -0.0900 -0.2551
 6518TIP3    H141045   5.178   0.470  15.172 -0.2120  0.1778 -0.3758
 6518TIP3    H241046   5.249   0.481  15.038 -1.1877 -1.1492 -1.0266
 6519TIP3   OH241047   6.684   6.071   5.624  0.1630 -0.0059 -0.0369
 6519TIP3    H141048   6.720   6.153   5.591  0.0622 -0.6721 -1.9171
 6519TIP3    H241049   6.677   6.015   5.546 -0.5334 -1.5113  1.0653
 6520TIP3   OH241050   4.910   5.697  14.252  0.2141 -0.1434 -0.4800
 6520TIP3    H141051   4.832   5.751  14.266 -1.7320 -2.8374 -0.0110
 6520TIP3    H241052   4.971   5.723  14.321 -0.9848  0.8513  0.2337
 6521TIP3   OH241053   1.456   2.242   4.602 -0.4455  0.2104 -0.4069
 6521TIP3    H141054   1.502   2.299   4.664 -0.2256  0.1552 -0.5228
 6521TIP3    H241055   1.372   2.224   4.646  0.2275 -0.9034  0.4813
 6522TIP3   OH241056   4.308   1.048   3.121  0.0084 -0.2174  0.4787
 6522TIP3    H141057   4.287   1.140   3.133 -1.5801 -0.5091  0.1491
 6522TIP3    H241058   4.317   1.013   3.210  0.3654  0.1959  0.6055
 6523TIP3   OH241059   0.344   5.110  14.818  0.8300  0.5015 -0.2620
 6523TIP3    H141060   0.438   5.124  14.814  0.9538 -0.2926 -0.2651
 6523TIP3    H241061   0.332   5.017  14.800  0.0320  0.6240 -0.4360
 6524TIP3   OH241062   0.170   0.246   0.208 -0.5001 -0.0105  0.0133
 6524TIP3    H141063   0.100   0.285   0.156 -1.9649  0.9639  2.5163
 6524TIP3    H241064   0.129   0.228   0.293  2.9113  3.5891  2.7760
 6525TIP3   OH241065   1.349   2.139   1.302 -0.6668  0.2190  0.2033
 6525TIP3    H141066   1.423   2.193   1.330 -0.1614 -0.1032 -0.4658
 6525TIP3    H241067   1.389   2.065   1.257 -1.4031  0.6213 -1.2068
 6526TIP3   OH241068   1.901   5.018   0.567  0.1807 -0.6285 -0.4660
 6526TIP3    H141069   1.982   5.000   0.520  1.7470  0.2312  1.7725
 6526TIP3    H241070   1.843   4.945   0.542  3.1059 -3.7978  1.1525
 6527TIP3   OH241071   1.627   6.589   6.238  0.6319 -0.2770 -0.3008
 6527TIP3    H141072   1.628   6.604   6.332 -0.0196 -0.6931 -0.2208
 6527TIP3    H241073   1.539   6.616   6.210  2.0236  3.8824 -1.4899
 6528TIP3   OH241074   2.657   5.579  17.389 -0.0803 -0.2964 -0.5783
 6528TIP3    H141075   2.642   5.499  17.337 -2.0084 -0.1341 -0.3574
 6528TIP3    H241076   2.569   5.610  17.410  0.6281  1.9488 -0.7077
 6529TIP3   OH241077   4.745   1.314  15.352  0.0355  0.6821  0.4988
 6529TIP3    H141078   4.701   1.387  15.394 -0.3145  0.0784  1.2195
 6529TIP3    H241079   4.746   1.335  15.259 -0.2235  1.5065  0.6824
 6530TIP3   OH241080   4.046   6.372   4.048 -0.1666 -0.1220 -0.4888
 6530TIP3    H141081   4.130   6.332   4.025 -0.9405 -0.4433 -3.0941
 6530TIP3    H241082   4.032   6.438   3.980 -1.8596  0.1654  0.0963
 6531TIP3   OH241083   5.523   6.271  15.283  0.4809 -0.4121 -0.3516
 6531TIP3    H141084   5.553   6.319  15.206 -1.7835 -0.5660 -1.4013
 6531TIP3    H241085   5.557   6.322  15.357 -0.5599  1.9914 -1.4197
 6532TIP3   OH241086   2.050   5.734  12.630 -0.2560  0.3516 -0.3213
 6532TIP3    H141087   2.126   5.747  12.686  1.5037  3.1776 -3.0311
 6532TIP3    H241088   2.075   5.660  12.574 -0.8620 -0.7072  0.7761
 6533TIP3   OH241089   4.876   4.544  14.088 -0.0454  0.4913 -0.6132
 6533TIP3    H141090   4.801   4.510  14.137  1.6778  1.8680  3.4349
 6533TIP3    H241091   4.925   4.467  14.061 -1.0639 -0.3344 -0.1414
 6534TIP3   OH241092   2.706   1.847  15.414 -0.2781 -0.1102 -0.1503
 6534TIP3    H141093   2.697   1.794  15.335 -0.3941  1.9024 -1.5798
 6534TIP3    H241094   2.648   1.922  15.399 -0.2585  0.3622  1.8434
 6535TIP3   OH241095   6.606   4.889   5.083 -0.1916 -0.8142 -0.2770
 6535TIP3    H141096   6.592   4.978   5.113  0.4133 -0.6017 -0.5931
 6535TIP3    H241097   6.548   4.835   5.136 -0.6898 -0.2109 -0.2083
 6536TIP3   OH241098   6.727   4.973   5.606 -0.4030 -0.1046  0.1324
 6536TIP3    H141099   6.822   4.967   5.599 -0.4088 -0.4891  0.3256
 6536TIP3    H241100   6.708   4.946   5.696 -0.8299 -2.0380 -0.4709
 6537TIP3   OH241101   5.487   4.131  11.300  0.3268  0.2307 -0.8812
 6537TIP3    H141102   5.523   4.110  11.214 -0.9310 -1.8215 -0.9737
 6537TIP3    H241103   5.539   4.080  11.361  0.6190  0.9644 -0.5088
 6538TIP3   OH241104   6.574   5.780   6.584 -0.0150 -0.4479 -0.4389
 6538TIP3    H141105   6.487   5.751   6.557  0.4373 -1.9356 -0.4235
 6538TIP3    H241106   6.566   5.794   6.679  0.0018 -1.6855 -0.2249
 6539TIP3   OH241107   2.068   6.220  11.708 -0.0119 -0.0902  0.3149
 6539TIP3    H141108   2.072   6.311  11.680  1.8152  0.0090  0.8044
 6539TIP3    H241109   2.062   6.224  11.804  0.0360 -0.4876  0.3376
 6540TIP3   OH241110   5.526   4.624  12.895  0.2167 -0.0060 -0.2243
 6540TIP3    H141111   5.433   4.608  12.910  0.2017  0.7596  0.6102
 6540TIP3    H241112   5.531   4.715  12.867  0.7312  0.0262 -0.0460
 6541TIP3   OH241113   3.353   6.571  11.470  0.1827 -0.2243 -0.5260
 6541TIP3    H141114   3.323   6.562  11.380 -0.4236 -2.1786 -0.1798
 6541TIP3    H241115   3.410   6.495  11.485 -0.3827 -0.4038  0.9575
 6542TIP3   OH241116   4.864   0.228   0.292 -0.3186 -0.6680  0.4961
 6542TIP3    H141117   4.808   0.304   0.277  0.7547  0.1132  0.2815
 6542TIP3    H241118   4.833   0.191   0.375  0.3301  1.1415  1.6146
 6543TIP3   OH241119   3.865   2.171   0.124 -0.2148  0.0372 -0.0735
 6543TIP3    H141120   3.904   2.119   0.054  0.4550  1.7355 -1.0542
 6543TIP3    H241121   3.875   2.262   0.094 -0.8136  0.7733  1.7856
 6544TIP3   OH241122   5.820   6.137   2.360  0.8163 -0.0187 -0.0091
 6544TIP3    H141123   5.752   6.103   2.302  1.1401  0.9058 -0.9675
 6544TIP3    H241124   5.772   6.175   2.433  0.2875  0.4669 -0.5886
 6545TIP3   OH241125   2.956   0.233   1.093  0.5654  0.1234  0.3334
 6545TIP3    H141126   2.881   0.177   1.074  1.8963 -1.7315  0.2904
 6545TIP3    H241127   2.950   0.304   1.030 -2.8466  1.8319  2.2794
 6546TIP3   OH241128   5.947   4.740  14.339 -0.0177  0.0342  0.7256
 6546TIP3    H141129   6.032   4.753  14.298 -0.5948 -0.3927 -0.7027
 6546TIP3    H241130   5.933   4.817  14.393  0.0855  1.4786 -1.2101
 6547TIP3   OH241131   2.041   4.524   0.529 -0.6123 -0.1409 -0.3068
 6547TIP3    H141132   1.999   4.445   0.495  1.3511 -1.0018 -0.8593
 6547TIP3    H241133   2.011   4.530   0.620 -2.5597 -0.2182 -0.9154
 6548TIP3   OH241134   1.610   1.312  13.460  0.5741 -0.2175  0.4728
 6548TIP3    H141135   1.672   1.370  13.415 -1.5353  0.5720 -1.6474
 6548TIP3    H241136   1.582   1.250  13.393 -3.2077  1.4147  0.3089
 6549TIP3   OH241137   2.617   0.980   3.350  0.2050 -0.0598 -0.1179
 6549TIP3    H141138   2.656   0.906   3.303 -0.6604 -1.0619  0.6882
 6549TIP3    H241139   2.532   0.947   3.380 -0.1304  1.2170  0.4069
 6550TIP3   OH241140   3.320   5.891  17.138 -0.5122 -0.2175  0.0641
 6550TIP3    H141141   3.232   5.912  17.168 -1.1961 -0.0784 -1.8851
 6550TIP3    H241142   3.353   5.827  17.201 -1.3431  0.9395  1.7471
 6551TIP3   OH241143   4.690   0.769   5.595  0.2717 -0.1933 -0.5896
 6551TIP3    H141144   4.709   0.743   5.685 -1.9526 -1.3235 -0.3606
 6551TIP3    H241145   4.723   0.696   5.542  2.5102  0.9309 -0.8546
 6552TIP3   OH241146   3.983   5.150  14.959  0.0735  0.3266 -0.0007
 6552TIP3    H141147   4.005   5.057  14.951 -1.3694  0.0149 -0.5664
 6552TIP3    H241148   4.041   5.193  14.896  0.7734 -0.1691  0.2857
 6553TIP3   OH241149   5.974   6.599   5.352 -0.3731 -0.4746  0.0033
 6553TIP3    H141150   6.053   6.613   5.404  0.4751 -1.3298 -0.9874
 6553TIP3    H241151   5.915   6.669   5.377  1.5368  1.5347 -0.7853
 6554TIP3   OH241152   3.114   1.953  15.568  0.2808  0.3633  0.1382
 6554TIP3    H141153   3.140   1.864  15.592  0.2918  0.9182  2.4425
 6554TIP3    H241154   3.019   1.954  15.578  0.2657  0.5683 -0.0127
 6555TIP3   OH241155   3.643   4.211   0.928 -0.2996 -0.3803  0.1341
 6555TIP3    H141156   3.560   4.238   0.968 -0.6407 -1.2624  0.0330
 6555TIP3    H241157   3.651   4.267   0.851 -0.6438 -0.0712  0.3180
 6556TIP3   OH241158   0.629   5.509  15.063 -0.0232  0.0313 -0.1312
 6556TIP3    H141159   0.682   5.574  15.016  1.7226 -0.1695  1.4482
 6556TIP3    H241160   0.576   5.561  15.124  0.2568  0.0826  0.0728
 6557TIP3   OH241161   2.871   4.800  14.034  0.1549 -0.3099 -0.1141
 6557TIP3    H141162   2.836   4.796  14.123  2.2729  0.4245  0.8127
 6557TIP3    H241163   2.940   4.867  14.039  2.0155 -2.0014 -1.6660
 6558TIP3   OH241164   3.138   0.722   0.957 -0.2933  0.1988 -0.1388
 6558TIP3    H141165   3.063   0.748   1.011  0.3090 -1.0542  1.3714
 6558TIP3    H241166   3.126   0.771   0.875 -3.1940 -0.5412 -0.2925
 6559TIP3   OH241167   3.357   4.676   0.591 -0.5395  0.8333  0.3901
 6559TIP3    H141168   3.312   4.757   0.569 -1.2034  0.4741  0.4136
 6559TIP3    H241169   3.417   4.661   0.517  0.2667  1.8229  0.8227
 6560TIP3   OH241170   0.140   0.865  11.227  0.0913  0.3051 -0.4462
 6560TIP3    H141171   0.135   0.784  11.177 -1.4773  0.3169 -0.3749
 6560TIP3    H241172   0.098   0.930  11.170 -1.6378  0.3404  0.7991
 6561TIP3   OH241173   4.192   4.274  13.162  0.1944  0.0289  0.1240
 6561TIP3    H141174   4.224   4.256  13.074  0.0401 -0.8837  0.2504
 6561TIP3    H241175   4.238   4.213  13.219 -2.3817 -2.0215  0.1917
 6562TIP3   OH241176   0.998   2.781  11.905 -0.0817 -0.0339  0.1247
 6562TIP3    H141177   1.019   2.789  11.998  0.7111 -0.4509 -0.0085
 6562TIP3    H241178   1.040   2.699  11.878 -1.9149 -0.9111 -0.1718
 6563TIP3   OH241179   0.207   0.384  12.304 -0.0868 -0.9986 -0.3536
 6563TIP3    H141180   0.217   0.468  12.258 -1.3810 -1.1795 -1.0144
 6563TIP3    H241181   0.147   0.404  12.377 -0.8708 -1.4565 -0.8579
 6564TIP3   OH241182   2.974   0.312  12.675 -0.8243  0.1319 -0.3906
 6564TIP3    H141183   2.965   0.223  12.640 -2.2806  0.3181 -0.5443
 6564TIP3    H241184   2.946   0.305  12.766 -1.3537  0.5009 -0.5176
 6565TIP3   OH241185   5.861   3.283   0.642  0.0049  0.3866  0.7352
 6565TIP3    H141186   5.838   3.371   0.614  2.0466  1.6019  2.6177
 6565TIP3    H241187   5.937   3.260   0.589  1.3866  1.0624  2.3684
 6566TIP3   OH241188   6.108   6.660  14.996  0.0965  0.5412 -0.0110
 6566TIP3    H141189   6.127   6.655  14.902 -1.4454  0.2671 -0.3473
 6566TIP3    H241190   6.179   6.712  15.032  0.9294  0.3257 -1.2707
 6567TIP3   OH241191   2.663   4.038   0.937  0.2776 -0.2473  0.0285
 6567TIP3    H141192   2.733   4.028   0.873 -0.0841 -1.9720 -0.1299
 6567TIP3    H241193   2.708   4.046   1.022  0.6721 -0.9572 -0.1121
 6568TIP3   OH241194   1.253   4.309   5.650  0.2733 -0.3574 -0.0364
 6568TIP3    H141195   1.334   4.265   5.624  1.0426  0.9549  0.0484
 6568TIP3    H241196   1.248   4.386   5.593 -3.2924 -2.6431 -3.2982
 6569TIP3   OH241197   4.639   4.298  13.341 -0.7022  0.0460  0.0250
 6569TIP3    H141198   4.648   4.243  13.419 -0.6683  0.0016 -0.0096
 6569TIP3    H241199   4.726   4.334  13.327 -0.9173  0.7782  0.5407
 6570TIP3   OH241200   3.466   2.688  14.971 -0.0048  0.2585 -0.0778
 6570TIP3    H141201   3.552   2.662  15.003  0.0267 -0.4731 -0.7329
 6570TIP3    H241202   3.441   2.762  15.026  0.5029 -0.3083  0.9239
 6571TIP3   OH241203   4.375   4.981   5.838 -0.0997  0.3557 -0.4522
 6571TIP3    H141204   4.388   4.891   5.869  0.1394  0.3402 -0.5944
 6571TIP3    H241205   4.331   5.025   5.911  1.3131  0.5772  0.3112
 6572TIP3   OH241206   3.203   6.759  15.478  0.1856  0.2604  0.4932
 6572TIP3    H141207   3.285   6.806  15.463  0.7323 -0.2966  1.6098
 6572TIP3    H241208   3.199   6.695  15.407  0.0976  1.0770 -0.2596
 6573TIP3   OH241209   0.255   5.268  12.071 -0.6632 -0.2637 -0.2065
 6573TIP3    H141210   0.340   5.239  12.102 -1.8545 -1.3459  2.3749
 6573TIP3    H241211   0.234   5.209  11.998  0.3820 -0.6250 -0.2221
 6574TIP3   OH241212   2.167   0.417   2.185  0.3447  0.1835 -0.0245
 6574TIP3    H141213   2.262   0.404   2.186  0.2272 -0.7037  0.8190
 6574TIP3    H241214   2.136   0.354   2.120  0.3122  0.3705 -0.1920
 6575TIP3   OH241215   4.053   5.486   3.678 -0.0029 -0.0433  0.1953
 6575TIP3    H141216   3.957   5.478   3.680  0.0662 -0.9003  0.8357
 6575TIP3    H241217   4.077   5.458   3.590 -0.4163  1.3492 -0.3838
 6576TIP3   OH241218   3.321   3.257   1.564  0.0852  0.2895 -0.7013
 6576TIP3    H141219   3.333   3.210   1.646 -2.6663  0.3328 -0.2000
 6576TIP3    H241220   3.381   3.332   1.570 -0.5719  0.6868  1.5944
 6577TIP3   OH241221   0.621   0.774  15.293  0.0338  0.0109  0.4907
 6577TIP3    H141222   0.564   0.826  15.237  0.5339 -0.1929 -0.2108
 6577TIP3    H241223   0.570   0.695  15.312 -0.1541  0.1007  0.3618
 6578TIP3   OH241224   1.900   5.297   0.616 -0.3647 -0.2844  0.4335
 6578TIP3    H141225   1.851   5.341   0.686 -1.4442 -1.0587  0.1941
 6578TIP3    H241226   1.863   5.209   0.613 -1.1231  0.0479 -1.8223
 6579TIP3   OH241227   4.007   0.314  14.044  0.2717 -0.4346  0.1524
 6579TIP3    H141228   3.953   0.380  14.087  0.8715  2.6486 -3.3196
 6579TIP3    H241229   4.094   0.325  14.083  0.3022  0.7080 -0.1975
 6580TIP3   OH241230   5.717   6.187   0.658  0.0227 -0.1171 -0.2758
 6580TIP3    H141231   5.716   6.143   0.742  0.3607  1.2951  0.5099
 6580TIP3    H241232   5.631   6.230   0.652  0.4472  0.8006 -0.0570
 6581TIP3   OH241233   3.018   4.372  14.278 -0.0449 -0.0569 -0.0802
 6581TIP3    H141234   3.013   4.293  14.332 -0.0485  0.1312  0.1890
 6581TIP3    H241235   2.970   4.438  14.326  0.3296  0.2339 -0.1005
 6582TIP3   OH241236   6.202   0.780   0.391  0.4612  0.0542  0.1515
 6582TIP3    H141237   6.248   0.780   0.475 -3.1379  1.5692  2.3726
 6582TIP3    H241238   6.176   0.689   0.379  2.2758 -0.4652 -0.1968
 6583TIP3   OH241239   5.371   6.497   3.321 -0.2686 -0.2865  0.3466
 6583TIP3    H141240   5.440   6.477   3.257  0.8708  0.9765  1.1414
 6583TIP3    H241241   5.323   6.414   3.329  0.9106 -1.1013 -0.5066
 6584TIP3   OH241242   3.758   3.390  17.371  0.5962  0.7175  0.0430
 6584TIP3    H141243   3.801   3.463  17.416  1.9308  0.1329 -0.2315
 6584TIP3    H241244   3.809   3.313  17.395  0.9667  0.2804 -1.9112
 6585TIP3   OH241245   2.645   4.145  12.572 -0.0561 -0.6779 -0.4931
 6585TIP3    H141246   2.590   4.109  12.640  0.5103  0.3357  0.5301
 6585TIP3    H241247   2.714   4.079  12.559  0.0040 -0.7415  0.1382
 6586TIP3   OH241248   5.607   5.629   2.046  0.0100 -0.5502 -0.4957
 6586TIP3    H141249   5.527   5.576   2.036 -0.1362 -0.6652  1.0381
 6586TIP3    H241250   5.671   5.586   1.990 -0.5520 -1.4179 -0.4984
 6587TIP3   OH241251   5.121   2.387  14.650  0.0268  0.0589 -0.1263
 6587TIP3    H141252   5.152   2.316  14.594  0.3981 -0.4799  0.7295
 6587TIP3    H241253   5.033   2.405  14.620 -0.3396 -1.2523  0.0686
 6588TIP3   OH241254   3.907   4.085   4.994 -0.5000 -0.2819 -0.6543
 6588TIP3    H141255   3.911   4.097   4.899 -0.1103  1.4039 -0.4567
 6588TIP3    H241256   3.858   4.003   5.006 -1.4127 -0.0111 -2.2705
 6589TIP3   OH241257   3.285   5.030  16.085  0.3052  0.0580 -0.0970
 6589TIP3    H141258   3.295   5.073  16.000  1.5860  0.6176  0.3058
 6589TIP3    H241259   3.339   4.951  16.078 -2.9451 -2.2915 -1.2545
 6590TIP3   OH241260   0.828   5.688  12.950 -0.5750 -0.0016 -0.4320
 6590TIP3    H141261   0.906   5.722  12.993 -0.8938  0.2192 -0.0209
 6590TIP3    H241262   0.856   5.668  12.860  0.0442 -0.2877 -0.1756
 6591TIP3   OH241263   3.349   5.369  12.060 -0.6229  0.1806 -0.0995
 6591TIP3    H141264   3.376   5.302  12.122  0.0517  2.1506  1.8768
 6591TIP3    H241265   3.426   5.424  12.048 -1.2796  0.8975 -1.2620
 6592TIP3   OH241266   4.310   1.163   3.616  0.0893 -0.3312  0.0440
 6592TIP3    H141267   4.243   1.208   3.668  0.9721  0.9069  0.1420
 6592TIP3    H241268   4.283   1.177   3.525  0.4415  0.5513  0.0675
 6593TIP3   OH241269   4.473   6.638   6.016 -0.1386  0.1693 -0.2164
 6593TIP3    H141270   4.518   6.649   5.932  0.7090 -0.9621  0.0670
 6593TIP3    H241271   4.472   6.726   6.054  1.3373  0.3324 -0.4978
 6594TIP3   OH241272   4.376   0.583  10.856 -0.2481 -0.1032  0.4713
 6594TIP3    H141273   4.370   0.590  10.952 -1.9303 -0.2552  0.4032
 6594TIP3    H241274   4.300   0.530  10.831  1.6070 -2.3546 -0.7476
 6595TIP3   OH241275   3.202   5.390  10.808 -0.5200 -0.4746 -0.7155
 6595TIP3    H141276   3.203   5.334  10.729 -0.5984  0.4091 -1.3529
 6595TIP3    H241277   3.197   5.328  10.881 -0.0831 -1.3254 -1.3918
 6596TIP3   OH241278   3.652   0.898  15.907  0.0118 -0.2818 -0.9155
 6596TIP3    H141279   3.693   0.976  15.869  0.7552 -0.0753  0.2571
 6596TIP3    H241280   3.563   0.925  15.928 -0.6410 -0.5913 -3.0515
 6597TIP3   OH241281   1.897   6.140  12.487 -0.0868  0.1591 -0.4437
 6597TIP3    H141282   1.837   6.097  12.548 -0.4841  1.4627  0.1265
 6597TIP3    H241283   1.968   6.173  12.543  0.5220 -0.2635 -0.9502
 6598TIP3   OH241284   4.166   0.139  12.727 -0.1057  0.2410  0.3409
 6598TIP3    H141285   4.125   0.170  12.647 -1.1533 -0.8112  0.4477
 6598TIP3    H241286   4.094   0.132  12.790  0.6319  0.6771  1.2613
 6599TIP3   OH241287   6.252   0.413   1.701  0.0572 -0.2195  0.1792
 6599TIP3    H141288   6.283   0.499   1.729  2.4660 -1.1147  0.5811
 6599TIP3    H241289   6.248   0.419   1.605  1.4637  0.0161  0.1133
 6600TIP3   OH241290   0.707   1.004   0.996  0.1481 -0.0173 -0.1678
 6600TIP3    H141291   0.735   1.042   1.079 -1.8206 -0.7915  0.9254
 6600TIP3    H241292   0.682   0.914   1.017 -1.8669  0.2194 -1.2149
 6601TIP3   OH241293   4.666   4.517   4.270  1.0765  0.2396 -0.2982
 6601TIP3    H141294   4.594   4.553   4.322  0.3217  1.6835 -2.2418
 6601TIP3    H241295   4.637   4.430   4.245  1.1188 -0.1723  0.9955
 6602TIP3   OH241296   4.876   3.280  15.423 -0.6487  0.2824  0.3322
 6602TIP3    H141297   4.964   3.308  15.397 -1.3090  0.4095 -1.9837
 6602TIP3    H241298   4.818   3.349  15.391 -2.1435 -2.5199 -3.9658
 6603TIP3   OH241299   3.556   3.384   3.352  0.0965  0.3125 -0.2562
 6603TIP3    H141300   3.561   3.405   3.259  2.2149 -0.0940 -0.2802
 6603TIP3    H241301   3.577   3.466   3.396 -1.6479  0.6996 -0.0767
 6604TIP3   OH241302   5.708   5.548  15.465 -0.2148 -0.6092  0.2138
 6604TIP3    H141303   5.729   5.455  15.471  2.0289 -0.1926 -0.2461
 6604TIP3    H241304   5.636   5.561  15.527 -0.1387 -2.5167  0.7484
 6605TIP3   OH241305   5.993   4.658  13.238 -0.0931 -0.3056 -0.0919
 6605TIP3    H141306   6.071   4.712  13.252 -0.7881  0.7002  0.0208
 6605TIP3    H241307   5.995   4.594  13.309 -0.1007  0.6109  0.7688
 6606TIP3   OH241308   2.039   3.241   1.428  0.0796  0.0315 -0.0554
 6606TIP3    H141309   2.080   3.294   1.497 -0.3418  0.3182 -0.0226
 6606TIP3    H241310   1.953   3.218   1.463 -0.1673  0.2410 -0.5118
 6607TIP3   OH241311   1.199   4.089  12.996  0.3007  0.0746 -0.3395
 6607TIP3    H141312   1.234   4.108  12.909 -1.2216  0.4961 -0.8893
 6607TIP3    H241313   1.276   4.079  13.052  1.3133 -0.4157 -1.7744
 6608TIP3   OH241314   2.931   3.978   3.773 -0.7842  0.4539  0.3347
 6608TIP3    H141315   2.974   3.923   3.707  0.8951  1.3242  0.6358
 6608TIP3    H241316   2.885   4.045   3.723 -0.7035  0.2708  0.0128
 6609TIP3   OH241317   3.478   0.238  12.242  0.2328 -0.3303  0.2727
 6609TIP3    H141318   3.548   0.296  12.213  2.3770 -2.2833  1.1489
 6609TIP3    H241319   3.522   0.154  12.258 -2.0341 -1.2499  2.3494
 6610TIP3   OH241320   0.550   5.383   6.675  0.1133  0.0268  0.2110
 6610TIP3    H141321   0.481   5.436   6.716  0.4147  2.0927 -1.7436
 6610TIP3    H241322   0.508   5.300   6.654 -0.8747  0.0697  1.7980
 6611TIP3   OH241323   0.081   0.357   4.397  0.0739  0.1109 -0.1818
 6611TIP3    H141324   0.138   0.433   4.409  2.3486 -0.9816 -2.8736
 6611TIP3    H241325   0.138   0.281   4.412 -1.2064 -1.0654 -1.0133
 6612TIP3   OH241326   1.960   3.666  13.898  0.0829 -0.0700  0.2552
 6612TIP3    H141327   2.009   3.584  13.900 -0.9917 -1.0091 -3.4053
 6612TIP3    H241328   1.897   3.658  13.969  1.6238 -1.2571  1.5551
 6613TIP3   OH241329   5.132   6.623   6.493 -0.0526  0.3027  0.2684
 6613TIP3    H141330   5.138   6.578   6.577 -2.0680 -0.5742  0.0014
 6613TIP3    H241331   5.082   6.702   6.511 -0.0477  0.3734 -0.0235
 6614TIP3   OH241332   4.792   2.848  13.274  0.1685  0.5921 -0.2246
 6614TIP3    H141333   4.711   2.798  13.270  1.7482 -2.5181  2.3637
 6614TIP3    H241334   4.767   2.931  13.314 -1.7512 -0.2593  0.4745
 6615TIP3   OH241335   0.726   2.839   5.281  0.2865 -0.3386 -0.0305
 6615TIP3    H141336   0.796   2.896   5.251  0.4077 -1.0768 -1.2047
 6615TIP3    H241337   0.771   2.767   5.325  0.2198 -0.3742 -0.0206
 6616TIP3   OH241338   1.072   1.045  16.988  0.6938  0.1633  0.1337
 6616TIP3    H141339   1.011   1.119  16.993 -0.0523 -0.2651 -1.9575
 6616TIP3    H241340   1.053   0.994  17.067  1.1343  2.0683  1.5624
 6617TIP3   OH241341   6.725   3.160  13.892  0.3772 -0.2820  0.5899
 6617TIP3    H141342   6.730   3.113  13.975  3.0318 -0.0567  0.6653
 6617TIP3    H241343   6.706   3.092  13.827  0.5193 -0.8476  1.1246
 6618TIP3   OH241344   2.815   3.687   0.501  0.1984 -0.3462 -0.3951
 6618TIP3    H141345   2.776   3.690   0.413  0.2409 -2.3782 -0.5490
 6618TIP3    H241346   2.794   3.772   0.540 -0.1086  0.4703 -2.2466
 6619TIP3   OH241347   3.157   6.376  17.180 -0.6334  0.1230  0.6123
 6619TIP3    H141348   3.148   6.468  17.203  0.2482  0.4606 -0.3314
 6619TIP3    H241349   3.191   6.376  17.091 -1.5891 -1.1304  0.2189
 6620TIP3   OH241350   4.469   1.931  17.180  0.0731  0.2801 -0.4608
 6620TIP3    H141351   4.400   1.991  17.204  0.7697  1.2038 -0.7240
 6620TIP3    H241352   4.430   1.874  17.113 -1.0100 -0.4987  0.7923
 6621TIP3   OH241353   3.186   5.286  11.832 -0.0607 -0.0179 -0.1582
 6621TIP3    H141354   3.226   5.315  11.914 -0.4535 -3.5919  1.4757
 6621TIP3    H241355   3.170   5.367  11.784  3.2899  2.0631  1.7630
 6622TIP3   OH241356   1.662   1.958  14.554 -0.3330 -0.2961 -0.0772
 6622TIP3    H141357   1.705   1.985  14.635  0.8048 -0.4708 -0.6015
 6622TIP3    H241358   1.709   2.006  14.486 -0.2787 -1.2841 -0.7521
 6623TIP3   OH241359   1.496   0.978  12.956  0.4944 -0.3126  0.2213
 6623TIP3    H141360   1.446   1.030  13.020  1.0735  0.0957  0.3529
 6623TIP3    H241361   1.554   0.924  13.010  1.2870  0.3399  0.0406
 6624TIP3   OH241362   4.032   1.610   3.716  0.4134 -1.2159 -0.2454
 6624TIP3    H141363   4.078   1.568   3.643  1.1808  1.6514 -1.5848
 6624TIP3    H241364   4.100   1.662   3.759 -0.6201 -0.6824  0.7782
 6625TIP3   OH241365   1.620   1.890  17.391  0.1633 -0.2839  0.2827
 6625TIP3    H141366   1.678   1.822  17.357  1.6462  0.6246  0.8693
 6625TIP3    H241367   1.652   1.907  17.479 -1.3060 -0.0484  0.8039
 6626TIP3   OH241368   4.903   2.459  16.037  0.1609  0.2690 -0.0469
 6626TIP3    H141369   4.811   2.466  16.009  0.5549  1.0983 -1.1767
 6626TIP3    H241370   4.937   2.384  15.988 -0.0907 -0.5234  0.9462
 6627TIP3   OH241371   3.824   2.786   6.537 -0.0961 -0.1551  0.0570
 6627TIP3    H141372   3.769   2.741   6.601 -0.0576 -1.0940 -0.5529
 6627TIP3    H241373   3.913   2.754   6.556  0.0264  0.1782  0.0496
 6628TIP3   OH241374   4.161   2.506  13.166 -0.2236  0.2259 -0.1406
 6628TIP3    H141375   4.125   2.535  13.082 -0.2605  3.1643  0.7843
 6628TIP3    H241376   4.254   2.528  13.161 -0.3167  0.8354  0.7485
 6629TIP3   OH241377   6.232   2.630  12.311  0.1551  0.2096  0.4627
 6629TIP3    H141378   6.250   2.548  12.357  1.3107  0.0990 -0.1550
 6629TIP3    H241379   6.167   2.674  12.365 -1.0194 -1.4141  0.4574
 6630TIP3   OH241380   0.022   0.909   1.832  0.4521  0.1831 -0.2885
 6630TIP3    H141381   0.016   0.965   1.909 -0.8169 -0.2083 -0.0689
 6630TIP3    H241382   0.040   0.968   1.760  2.8248  0.4375  0.4320
 6631TIP3   OH241383   5.793   6.514  13.819  0.1679 -0.4786  0.5727
 6631TIP3    H141384   5.866   6.539  13.763 -1.2711  2.9056 -0.0224
 6631TIP3    H241385   5.808   6.559  13.902 -0.2908 -1.3138  1.1310
 6632TIP3   OH241386   1.684   3.098  15.902 -0.3412 -0.5471 -0.0749
 6632TIP3    H141387   1.731   3.089  15.820 -1.4785 -1.9415 -0.6053
 6632TIP3    H241388   1.745   3.067  15.969  1.1580  1.9882 -0.1379
 6633TIP3   OH241389   1.488   5.470  16.703 -0.1754  0.5575 -0.2606
 6633TIP3    H141390   1.464   5.554  16.666 -1.7032 -0.0703 -0.7757
 6633TIP3    H241391   1.405   5.424  16.716  0.6329 -1.0314 -0.3832
 6634TIP3   OH241392   3.041   0.610  14.510  0.3587  0.2725  0.1004
 6634TIP3    H141393   3.014   0.571  14.593  0.9022 -2.1809 -0.7847
 6634TIP3    H241394   2.968   0.594  14.451  0.8360  0.0392 -0.4393
 6635TIP3   OH241395   3.495   2.809   6.356 -0.1497  0.2260  0.3043
 6635TIP3    H141396   3.511   2.778   6.446 -1.3040 -0.0732  0.4359
 6635TIP3    H241397   3.400   2.796   6.344  0.1103 -0.4676 -1.2293
 6636TIP3   OH241398   6.149   1.276  11.797 -0.3579 -0.5900 -0.1450
 6636TIP3    H141399   6.171   1.295  11.888 -2.1373 -0.4900  0.3100
 6636TIP3    H241400   6.214   1.211  11.769  0.7847  0.0685  0.8746
 6637TIP3   OH241401   6.211   5.988   4.270  0.1222 -0.2042  0.1657
 6637TIP3    H141402   6.203   5.917   4.333  0.7460 -1.3659 -1.0022
 6637TIP3    H241403   6.233   5.944   4.187 -0.4587  1.2667 -0.8152
 6638TIP3   OH241404   0.691   0.547  10.952  0.1224 -0.0597 -0.1390
 6638TIP3    H141405   0.734   0.469  10.986  1.3226  0.2884 -0.8202
 6638TIP3    H241406   0.630   0.515  10.885  0.0535 -0.4647  0.1183
 6639TIP3   OH241407   3.389   5.483  16.416 -0.0838 -0.0339 -0.1152
 6639TIP3    H141408   3.319   5.527  16.369  0.3617  0.6830 -0.1131
 6639TIP3    H241409   3.410   5.406  16.362 -0.2448  0.2480 -0.5804
 6640TIP3   OH241410   1.255   3.955   3.521 -0.0007  0.1466 -0.2547
 6640TIP3    H141411   1.313   3.991   3.454 -0.2745 -0.3213 -0.7491
 6640TIP3    H241412   1.271   3.861   3.520  0.7424  0.2243  1.0635
 6641TIP3   OH241413   5.065   2.398  13.151  0.4167 -0.4682 -0.7243
 6641TIP3    H141414   5.030   2.472  13.201  0.5515  0.1087 -1.4784
 6641TIP3    H241415   4.987   2.358  13.111  0.1945 -1.4737  0.6255
 6642TIP3   OH241416   5.081   0.154  14.674  0.4155 -0.3472 -0.0292
 6642TIP3    H141417   5.152   0.104  14.713  0.6868 -0.5318 -0.7523
 6642TIP3    H241418   5.052   0.213  14.744  1.3511 -0.1936  0.2351
 6643TIP3   OH241419   3.890   4.229  17.039  0.1112  0.1222 -0.2942
 6643TIP3    H141420   3.950   4.228  17.113 -0.2203 -0.5432 -0.0231
 6643TIP3    H241421   3.875   4.322  17.020 -2.3907  0.4616  2.6023
 6644TIP3   OH241422   1.795   2.359   0.551  0.4116 -0.0472  0.0146
 6644TIP3    H141423   1.823   2.439   0.507  0.7665  0.4334  1.0986
 6644TIP3    H241424   1.708   2.341   0.515  1.3063 -0.5703 -2.0625
 6645TIP3   OH241425   1.791   6.402  12.472  0.4162 -0.0412  0.0170
 6645TIP3    H141426   1.733   6.372  12.542  0.9535  0.5871  0.7588
 6645TIP3    H241427   1.825   6.322  12.432 -0.4809 -0.4060 -0.0223
 6646TIP3   OH241428   0.730   4.099   3.062 -0.4033 -0.2649  0.3576
 6646TIP3    H141429   0.768   4.051   3.136 -2.6757 -0.1890  1.6518
 6646TIP3    H241430   0.734   4.191   3.089 -2.2627 -0.3208  0.9411
 6647TIP3   OH241431   0.845   2.194   4.678  0.2369 -0.7319  0.2420
 6647TIP3    H141432   0.756   2.159   4.680 -0.3349  0.6430  1.7096
 6647TIP3    H241433   0.863   2.211   4.586 -0.7431 -1.6743 -0.1398
 6648TIP3   OH241434   5.226   6.445   5.756 -0.0796 -0.4578 -0.9044
 6648TIP3    H141435   5.212   6.537   5.781 -1.7756 -1.0772  0.6199
 6648TIP3    H241436   5.296   6.449   5.690  0.1473  1.8809 -0.6193
 6649TIP3   OH241437   6.406   4.566  11.484 -0.0308 -0.5664  0.3532
 6649TIP3    H141438   6.417   4.606  11.398 -0.6261 -1.0838  0.0299
 6649TIP3    H241439   6.489   4.523  11.502  0.3414  0.1345  0.3534
 6650TIP3   OH241440   4.181   0.981   1.134  0.5363  0.0542  0.1303
 6650TIP3    H141441   4.227   1.061   1.109 -1.6014  1.6594  0.9712
 6650TIP3    H241442   4.158   0.940   1.051 -0.5100  1.6939 -0.4587
 6651TIP3   OH241443   6.095   3.537   3.926  0.1506 -0.2711  0.2403
 6651TIP3    H141444   6.057   3.615   3.885  0.2915 -0.6477 -0.6339
 6651TIP3    H241445   6.053   3.532   4.012  0.8875  1.3504  0.7366
 6652TIP3   OH241446   0.705   6.524  14.041  0.2670 -0.3480  0.0477
 6652TIP3    H141447   0.629   6.583  14.047  0.1054 -0.4985 -0.5020
 6652TIP3    H241448   0.738   6.536  13.952  1.5076  0.4733  0.5838
 6653TIP3   OH241449   3.625   5.532   5.009  0.3378  0.6901  0.5763
 6653TIP3    H141450   3.614   5.627   5.002  0.5293  0.6900  0.2219
 6653TIP3    H241451   3.642   5.503   4.919  0.9705  0.4126  0.7787
 6654TIP3   OH241452   0.347   2.869   1.643  0.3340 -0.7307  0.1730
 6654TIP3    H141453   0.443   2.874   1.638  0.3421  0.4417  0.9393
 6654TIP3    H241454   0.323   2.938   1.705 -0.9877 -1.2689  0.2943
 6655TIP3   OH241455   0.053   4.480   4.603 -0.0461  0.0282  0.0681
 6655TIP3    H141456   0.135   4.489   4.651 -0.5039 -1.1342  1.1304
 6655TIP3    H241457   0.075   4.427   4.527  0.6179  1.6076 -0.8837
 6656TIP3   OH241458   6.243   4.459  12.328  0.1612  0.2928  0.1573
 6656TIP3    H141459   6.163   4.463  12.379  0.1630  0.8189  0.1233
 6656TIP3    H241460   6.221   4.405  12.252 -0.1950  0.5336  0.0897
 6657TIP3   OH241461   4.723   3.443  14.046 -0.5103 -0.4531  0.1249
 6657TIP3    H141462   4.672   3.409  13.973  1.0782  1.2997 -1.9484
 6657TIP3    H241463   4.810   3.406  14.033 -0.6861 -1.9056  2.5151
 6658TIP3   OH241464   2.448   0.684   1.756 -0.1191  0.2073 -0.6258
 6658TIP3    H141465   2.443   0.595   1.791 -2.0850  0.1462 -0.9594
 6658TIP3    H241466   2.469   0.671   1.663 -3.2268 -0.1629 -1.3887
 6659TIP3   OH241467   1.575   1.984   1.186  0.2440  0.0048  0.4861
 6659TIP3    H141468   1.546   1.940   1.105 -0.0367  1.2350 -0.1117
 6659TIP3    H241469   1.650   2.038   1.159  0.7046 -0.2463  1.2382
 6660TIP3   OH241470   5.583   0.890   1.135  0.4306  0.1498  0.2181
 6660TIP3    H141471   5.503   0.849   1.102 -0.5772  1.2713  1.1767
 6660TIP3    H241472   5.573   0.983   1.112  0.8627  0.5166  1.4415
 6661TIP3   OH241473   4.145   2.307  15.663 -0.4251  0.3104 -0.3168
 6661TIP3    H141474   4.229   2.319  15.618  0.2261  0.5703  0.9304
 6661TIP3    H241475   4.140   2.212  15.678 -0.0321  0.3693  0.2019
 6662TIP3   OH241476   3.118   1.277  11.680 -0.0812 -0.0630 -0.2318
 6662TIP3    H141477   3.050   1.228  11.727  0.1218  1.6412  2.0148
 6662TIP3    H241478   3.072   1.319  11.608 -0.6659 -1.7548 -0.8946
 6663TIP3   OH241479   1.333   6.399  13.150  0.1989  0.2627  0.2106
 6663TIP3    H141480   1.243   6.414  13.124  0.5528  1.8919 -0.2000
 6663TIP3    H241481   1.348   6.459  13.223  1.8022  2.5185 -1.7597
 6664TIP3   OH241482   1.305   1.463  11.041  0.5730 -0.2409  0.3699
 6664TIP3    H141483   1.302   1.445  10.947  1.8192  0.7771  0.1019
 6664TIP3    H241484   1.398   1.479  11.059  0.2057  0.7671  1.5382
 6665TIP3   OH241485   2.585   4.095   1.947  0.7409  0.5332  0.0494
 6665TIP3    H141486   2.513   4.038   1.921  2.3274 -2.0304  0.8632
 6665TIP3    H241487   2.553   4.184   1.931 -1.7051 -0.5602 -1.7684
 6666TIP3   OH241488   4.693   5.958   1.033 -0.0529  0.0778 -0.2013
 6666TIP3    H141489   4.754   5.908   0.980 -0.6955 -0.7841 -0.1564
 6666TIP3    H241490   4.609   5.949   0.988 -0.5740 -0.5191  0.8355
 6667TIP3   OH241491   1.077   0.916  12.895  0.1062  0.2899  0.0301
 6667TIP3    H141492   1.151   0.966  12.929  1.2437 -1.1376 -0.2745
 6667TIP3    H241493   1.089   0.917  12.800 -2.1178  2.8093 -0.3543
 6668TIP3   OH241494   3.000   0.774  13.216 -0.3631 -0.3653 -0.8497
 6668TIP3    H141495   2.994   0.869  13.219  1.0334 -0.2676  0.4433
 6668TIP3    H241496   2.940   0.744  13.285  3.1756 -0.0291  2.8161
 6669TIP3   OH241497   2.126   4.728  16.233  0.2665  0.3830 -0.2713
 6669TIP3    H141498   2.121   4.823  16.223 -1.3444  0.5989  1.7435
 6669TIP3    H241499   2.034   4.699  16.232  0.5843 -0.8336  1.2830
 6670TIP3   OH241500   1.217   3.560   4.341  0.1572 -0.4689 -0.0471
 6670TIP3    H141501   1.248   3.541   4.253 -0.6036  0.5669 -0.5608
 6670TIP3    H241502   1.229   3.655   4.351  0.5435 -0.6257  1.0847
 6671TIP3   OH241503   2.799   2.352  16.869 -0.0733 -0.5321  0.0178
 6671TIP3    H141504   2.704   2.346  16.862 -0.0838  0.8131 -1.7383
 6671TIP3    H241505   2.816   2.446  16.877  1.1448 -0.7170 -0.2356
 6672TIP3   OH241506   3.836   2.743  12.317  0.1383  0.3135 -0.3987
 6672TIP3    H141507   3.835   2.678  12.247  1.0541 -0.2679  0.1051
 6672TIP3    H241508   3.879   2.819  12.277 -0.7012  0.5277 -0.9117
 6673TIP3   OH241509   1.316   0.466  11.493  0.1967 -1.0304 -0.1356
 6673TIP3    H141510   1.363   0.469  11.410  2.1789  0.1026  0.9348
 6673TIP3    H241511   1.317   0.374  11.518  0.3521 -1.2599 -0.9534
 6674TIP3   OH241512   0.758   0.174   5.473 -0.1451  0.2151 -0.1029
 6674TIP3    H141513   0.731   0.146   5.386  0.4915  0.0015 -0.2432
 6674TIP3    H241514   0.686   0.148   5.530 -1.5072  2.1975 -0.8180
 6675TIP3   OH241515   1.566   6.477  11.400 -0.6400 -0.6474 -0.1822
 6675TIP3    H141516   1.478   6.509  11.385 -0.7561 -0.7336  0.3011
 6675TIP3    H241517   1.622   6.532  11.344 -1.1505 -1.6411 -1.7317
 6676TIP3   OH241518   1.169   6.130   1.142 -0.4098 -0.2489 -0.7743
 6676TIP3    H141519   1.149   6.091   1.057  2.5665 -0.7818 -1.3477
 6676TIP3    H241520   1.260   6.160   1.134 -0.6267  1.3467  1.6481
 6677TIP3   OH241521   1.885   5.014   4.476  0.4546  0.5963 -0.1758
 6677TIP3    H141522   1.894   4.958   4.399 -0.3380  1.4026 -0.8782
 6677TIP3    H241523   1.973   5.020   4.512  0.7160 -0.3166 -0.6364
 6678TIP3   OH241524   5.634   2.133   3.000  0.0689  0.1370 -0.0431
 6678TIP3    H141525   5.621   2.212   3.053 -1.7146  1.1970 -1.9129
 6678TIP3    H241526   5.573   2.069   3.038 -0.1049  0.3953  0.1160
 6679TIP3   OH241527   4.327   3.532  12.992  0.0001  0.0284  0.7976
 6679TIP3    H141528   4.254   3.593  12.991 -0.3464 -0.3729  1.2139
 6679TIP3    H241529   4.308   3.469  12.922 -0.4542 -0.5279  1.4071
 6680TIP3   OH241530   5.080   4.929   1.388 -0.1805  0.2940 -0.1772
 6680TIP3    H141531   5.071   5.006   1.444 -0.1871 -0.4657  0.8931
 6680TIP3    H241532   5.170   4.901   1.401  0.2302  0.8723 -1.5900
 6681TIP3   OH241533   4.767   0.547   5.746  0.2163 -0.2035  0.4085
 6681TIP3    H141534   4.699   0.521   5.808 -0.1139 -0.1950  0.0554
 6681TIP3    H241535   4.728   0.533   5.660  0.2781  0.8031  0.2030
 6682TIP3   OH241536   6.204   1.098   1.232 -0.1358  0.8131  0.2204
 6682TIP3    H141537   6.231   1.017   1.190 -0.1917  1.0843 -0.3405
 6682TIP3    H241538   6.158   1.069   1.311  0.8650  0.3306  0.6478
 6683TIP3   OH241539   2.578   3.510  12.000 -0.4897  0.6152 -0.7138
 6683TIP3    H141540   2.618   3.572  12.060 -0.6633  1.4560 -1.4445
 6683TIP3    H241541   2.485   3.512  12.021 -0.3714 -0.1524 -0.0764
 6684TIP3   OH241542   2.242   6.008   4.516 -0.2019 -0.2622 -0.3421
 6684TIP3    H141543   2.331   6.036   4.493 -0.3153  1.2122  0.8156
 6684TIP3    H241544   2.254   5.923   4.559  0.6685 -0.0665 -0.1760
 6685TIP3   OH241545   3.881   6.503   6.553 -0.4661 -0.2623  0.5642
 6685TIP3    H141546   3.815   6.461   6.608 -0.0287 -0.8992  0.6084
 6685TIP3    H241547   3.846   6.591   6.537 -0.9069 -0.2962  1.3072
 6686TIP3   OH241548   3.446   0.548  13.119  0.3970  0.3803  0.3577
 6686TIP3    H141549   3.467   0.613  13.187 -0.6165  0.0013  1.0583
 6686TIP3    H241550   3.369   0.583  13.076  1.2875  0.8361 -0.9299
 6687TIP3   OH241551   0.015   1.665   1.637 -0.3532  0.2580 -0.0189
 6687TIP3    H141552   0.018   1.614   1.556 -1.8143  0.8482 -0.4921
 6687TIP3    H241553   0.101   1.653   1.677  0.1344 -0.6591 -1.2778
 6688TIP3   OH241554   3.966   6.542  16.150  0.0626  0.1859 -0.2108
 6688TIP3    H141555   3.918   6.615  16.189  0.5036  0.1534  0.4122
 6688TIP3    H241556   4.020   6.582  16.082  1.1193  0.6198  0.8444
 6689TIP3   OH241557   2.506   4.143  13.699 -0.0571 -0.8207 -0.1239
 6689TIP3    H141558   2.411   4.154  13.695 -0.1278 -0.9160  0.9326
 6689TIP3    H241559   2.523   4.116  13.790  1.2263  1.6575  0.4557
 6690TIP3   OH241560   5.027   1.262   1.986  0.1485  0.0141  0.0975
 6690TIP3    H141561   4.985   1.239   1.903  0.3728  2.8856 -0.9380
 6690TIP3    H241562   5.069   1.346   1.969 -0.8663  1.3701  3.4933
 6691TIP3   OH241563   3.191   3.547   5.389  0.2304  0.1125 -0.5180
 6691TIP3    H141564   3.206   3.611   5.459  0.8029  0.3930 -0.8836
 6691TIP3    H241565   3.221   3.464   5.426 -2.1665 -0.3260  0.6028
 6692TIP3   OH241566   5.328   1.173   0.873 -0.2025 -0.0945 -0.2780
 6692TIP3    H141567   5.296   1.255   0.913  0.1633 -0.4956  0.8688
 6692TIP3    H241568   5.420   1.168   0.898 -0.2377 -0.8881 -0.2827
 6693TIP3   OH241569   6.601   3.108   5.195  0.6866 -0.8281  0.9624
 6693TIP3    H141570   6.572   3.115   5.286 -3.0631  2.3411 -0.2204
 6693TIP3    H241571   6.679   3.164   5.191 -0.5664  1.0542  1.7948
 6694TIP3   OH241572   4.551   6.648  11.124  0.5991 -0.2098  0.8088
 6694TIP3    H141573   4.602   6.626  11.046 -0.1206 -0.2841  0.3507
 6694TIP3    H241574   4.509   6.566  11.149  1.0760 -0.2581  1.4658
 6695TIP3   OH241575   4.765   1.010   1.732  0.3136 -0.5119  0.5565
 6695TIP3    H141576   4.801   0.921   1.724  0.4959 -0.3723 -0.2954
 6695TIP3    H241577   4.676   1.002   1.699 -0.0063 -0.5748  1.4068
 6696TIP3   OH241578   1.855   1.367   5.400  0.1039  0.0855 -0.2170
 6696TIP3    H141579   1.913   1.413   5.461  0.5738 -1.2051  0.3550
 6696TIP3    H241580   1.828   1.289   5.448 -0.7158 -0.2092 -1.1381
 6697TIP3   OH241581   2.899   0.010   0.817  0.7086  0.2893  0.5335
 6697TIP3    H141582   2.891   0.031   0.724  0.5872 -0.7573  0.2944
 6697TIP3    H241583   2.823   0.051   0.858 -0.0478 -0.4958 -0.0619
 6698TIP3   OH241584   6.429   5.309   1.921 -0.4392  0.1607  0.4255
 6698TIP3    H141585   6.459   5.387   1.876  1.1372 -1.3677 -1.3495
 6698TIP3    H241586   6.495   5.293   1.989 -1.4662  1.0453  1.6851
 6699TIP3   OH241587   2.685   1.191  14.301 -0.3826  0.3122 -0.0564
 6699TIP3    H141588   2.659   1.279  14.330  0.1928  0.7670 -0.8657
 6699TIP3    H241589   2.689   1.139  14.381 -3.0740  0.3730  0.2155
 6700TIP3   OH241590   4.767   3.682  17.455  0.3996 -0.0041 -0.3366
 6700TIP3    H141591   4.778   3.764  17.407  3.4921 -0.7219 -1.0733
 6700TIP3    H241592   4.748   3.617  17.387  1.1816 -0.4188 -0.1633
 6701TIP3   OH241593   1.441   0.934  15.389 -0.2984 -0.0319  0.5875
 6701TIP3    H141594   1.350   0.920  15.414 -0.0183 -0.5331  1.3644
 6701TIP3    H241595   1.489   0.931  15.472  0.1667  2.5852  0.5153
 6702TIP3   OH241596   6.454   0.393   0.681 -0.0701  0.1656  0.0944
 6702TIP3    H141597   6.459   0.474   0.733 -0.9872  0.9946 -1.0522
 6702TIP3    H241598   6.371   0.400   0.634 -1.6748 -2.8506  2.1699
 6703TIP3   OH241599   3.235   1.378  15.497  1.0860  0.3676  0.1164
 6703TIP3    H141600   3.241   1.461  15.544 -0.2333 -0.4447  1.8354
 6703TIP3    H241601   3.182   1.398  15.420 -0.6181  0.8452  1.3567
 6704TIP3   OH241602   3.332   3.877   3.163  0.0610  0.2588  0.0916
 6704TIP3    H141603   3.354   3.959   3.118 -0.9831  0.6762  0.2978
 6704TIP3    H241604   3.412   3.825   3.159 -0.1864 -0.0412 -2.8851
 6705TIP3   OH241605   1.958   6.109  13.738  0.4711 -0.4583  0.1979
 6705TIP3    H141606   1.880   6.165  13.729  0.0673 -1.0062  0.2175
 6705TIP3    H241607   1.977   6.109  13.832  1.6796  1.2381  0.0008
 6706TIP3   OH241608   5.542   6.719  12.708  0.5070 -0.7850 -0.1810
 6706TIP3    H141609   5.546   6.671  12.790  0.0340  1.2609  1.1044
 6706TIP3    H241610   5.473   6.784  12.721  1.6862  0.8253 -1.4889
 6707TIP3   OH241611   2.963   0.344  11.857  0.8178 -0.1927  0.5258
 6707TIP3    H141612   2.949   0.250  11.843  1.1753 -0.1668 -0.0080
 6707TIP3    H241613   3.043   0.364  11.809  1.2922  0.1920  1.4381
 6708TIP3   OH241614   0.343   1.705  17.016  0.4921 -0.5885  0.5399
 6708TIP3    H141615   0.350   1.798  17.036 -0.4330 -0.6094  1.0247
 6708TIP3    H241616   0.290   1.669  17.088  0.3165 -1.3704  0.0334
 6709TIP3   OH241617   2.752   2.658  14.118 -0.1533  0.2158  0.0005
 6709TIP3    H141618   2.714   2.715  14.052 -0.3138 -0.6589 -0.6863
 6709TIP3    H241619   2.759   2.573  14.075  2.7906  0.3509 -0.0255
 6710TIP3   OH241620   1.224   2.718   2.845  0.2025 -0.3978 -0.0493
 6710TIP3    H141621   1.158   2.724   2.775 -0.2084 -0.5456  0.3198
 6710TIP3    H241622   1.173   2.707   2.925  0.5147  2.5895  0.6749
 6711TIP3   OH241623   0.858   4.473  14.068  0.3742 -0.3187 -0.3356
 6711TIP3    H141624   0.948   4.504  14.073  0.3929 -0.2899 -0.8371
 6711TIP3    H241625   0.814   4.536  14.011  0.3771 -1.1202 -1.2451
 6712TIP3   OH241626   1.528   5.032   2.799 -0.3063 -0.1737 -0.0971
 6712TIP3    H141627   1.594   4.974   2.837 -0.7588 -0.4240  0.3091
 6712TIP3    H241628   1.469   5.052   2.872  0.0509  1.1001 -0.1224
 6713TIP3   OH241629   3.280   1.484  16.030 -0.5695  0.1793  0.2899
 6713TIP3    H141630   3.317   1.570  16.052 -1.6958  0.5051  0.9512
 6713TIP3    H241631   3.197   1.480  16.076  0.0884 -1.8570  1.4494
 6714TIP3   OH241632   5.233   1.175  17.127 -0.0799  0.4818 -0.1015
 6714TIP3    H141633   5.196   1.254  17.088  0.7848  1.3864  0.8510
 6714TIP3    H241634   5.159   1.114  17.132 -0.1306  0.0425 -3.6715
 6715TIP3   OH241635   1.806   5.628   3.149 -0.0096  0.0904 -0.0168
 6715TIP3    H141636   1.880   5.578   3.115  0.9833  0.0357  2.0874
 6715TIP3    H241637   1.744   5.562   3.179 -0.1566  0.1432 -0.1980
 6716TIP3   OH241638   3.790   1.923   0.704 -0.0551  0.0919 -0.5861
 6716TIP3    H141639   3.833   2.008   0.704  0.5900 -0.2183  0.4297
 6716TIP3    H241640   3.786   1.898   0.796 -0.3460 -0.9190 -0.8617
 6717TIP3   OH241641   4.292   3.900  17.501 -0.1090 -0.6400 -0.2772
 6717TIP3    H141642   4.376   3.863  17.527 -0.1918 -0.0514  0.8571
 6717TIP3    H241643   4.310   3.942  17.417  1.0282  0.5238  0.5277
 6718TIP3   OH241644   3.989   6.091   4.132  0.3795  0.2545  0.4370
 6718TIP3    H141645   4.019   6.173   4.093 -1.2285  0.6557 -0.0051
 6718TIP3    H241646   3.969   6.113   4.223  1.5617 -0.0633  0.7925
 6719TIP3   OH241647   2.450   3.389   1.492  0.0207 -0.1916  0.0072
 6719TIP3    H141648   2.489   3.424   1.412 -0.9074  1.1808  0.1258
 6719TIP3    H241649   2.519   3.399   1.558  0.8548 -1.4986 -0.6338
 6720TIP3   OH241650   4.046   0.830  16.135  0.3409  0.3415 -0.1157
 6720TIP3    H141651   3.953   0.823  16.156  0.2439  0.8037 -0.3738
 6720TIP3    H241652   4.052   0.805  16.043  0.4119  0.6821 -0.2072
 6721TIP3   OH241653   0.155   3.764  14.878  0.2440  0.3458  0.1325
 6721TIP3    H141654   0.207   3.687  14.855  2.4227  1.4542  1.0844
 6721TIP3    H241655   0.129   3.748  14.969 -1.2327 -0.2298 -0.3535
 6722TIP3   OH241656   4.304   1.699  13.921  0.5500 -0.5524  0.5674
 6722TIP3    H141657   4.379   1.714  13.864  0.9261  0.0895  1.2111
 6722TIP3    H241658   4.237   1.661  13.864  1.2660 -0.8782 -0.0697
 6723TIP3   OH241659   3.905   4.765  15.647 -0.2020  0.3623  0.0768
 6723TIP3    H141660   3.862   4.766  15.732 -2.6648  0.5645 -1.0683
 6723TIP3    H241661   3.849   4.819  15.591 -1.3232 -3.2468 -2.7552
 6724TIP3   OH241662   4.037   5.197  13.502  0.2335  0.0575 -0.0768
 6724TIP3    H141663   4.023   5.106  13.476  0.5524 -0.2710  0.8444
 6724TIP3    H241664   4.024   5.196  13.597  0.7531  0.8762  0.0038
 6725TIP3   OH241665   3.780   2.173  15.717 -0.2869  0.4764 -0.4938
 6725TIP3    H141666   3.717   2.168  15.789 -0.4968 -1.0195 -0.7529
 6725TIP3    H241667   3.851   2.228  15.752  0.0400 -0.9242  1.2138
 6726TIP3   OH241668   1.696   6.225  13.704  0.1334  0.7488 -0.1034
 6726TIP3    H141669   1.706   6.316  13.676  0.5469  1.2468  1.5578
 6726TIP3    H241670   1.606   6.221  13.738 -0.0370  0.4112 -0.5884
 6727TIP3   OH241671   2.022   5.090  17.498  0.0588 -0.6980 -0.0115
 6727TIP3    H141672   2.010   5.164  17.439  1.0468  0.3641  1.0745
 6727TIP3    H241673   1.954   5.101  17.565 -0.3313 -1.2544 -0.3100
 6728TIP3   OH241674   4.555   5.849   4.079  0.1598 -0.1808 -0.3991
 6728TIP3    H141675   4.510   5.915   4.132 -0.1873 -0.8945  0.2330
 6728TIP3    H241676   4.648   5.862   4.098  0.0804  0.0101 -0.1386
 6729TIP3   OH241677   1.377   4.054   5.990  0.1655  0.0375 -0.3196
 6729TIP3    H141678   1.406   4.049   5.899  0.4005 -0.5240 -0.2153
 6729TIP3    H241679   1.305   4.117   5.988 -0.0438 -0.2110 -0.9524
 6730TIP3   OH241680   4.562   1.038   0.099 -0.1412 -0.0369  0.2477
 6730TIP3    H141681   4.489   1.097   0.118 -0.7848 -1.4932  2.9304
 6730TIP3    H241682   4.520   0.954   0.079  0.7366 -0.7148  1.1454
 6731TIP3   OH241683   4.933   0.585  14.009  0.3076 -0.1902  0.0678
 6731TIP3    H141684   4.997   0.649  14.039 -0.4601  0.8135 -0.3949
 6731TIP3    H241685   4.953   0.506  14.059  1.0158  0.5252  0.9482
 6732TIP3   OH241686   1.028   5.949  12.315  0.0002  0.0678 -0.0859
 6732TIP3    H141687   1.079   6.029  12.326 -1.0775  0.7643  0.0423
 6732TIP3    H241688   1.059   5.912  12.232  0.9352  0.2780  0.1597
 6733TIP3   OH241689   5.725   2.933   4.822 -0.7731 -0.3244  0.2199
 6733TIP3    H141690   5.644   2.975   4.794 -0.7437 -0.9705 -0.8969
 6733TIP3    H241691   5.771   2.912   4.740 -0.1905 -1.3464  0.7826
 6734TIP3   OH241692   6.481   1.797   2.856 -0.0604 -0.1098  0.2442
 6734TIP3    H141693   6.546   1.792   2.786 -1.7680 -3.0466 -1.3653
 6734TIP3    H241694   6.436   1.881   2.842  0.2708 -0.2093 -1.6457
 6735TIP3   OH241695   2.184   4.435  15.640  0.0459 -0.2748 -0.1063
 6735TIP3    H141696   2.214   4.443  15.550 -0.7659 -0.5272 -0.4128
 6735TIP3    H241697   2.262   4.449  15.693  0.5292 -0.1053 -0.8465
 6736TIP3   OH241698   0.919   5.015   3.078 -0.2199 -0.5638  0.3645
 6736TIP3    H141699   0.910   5.047   2.988 -0.7045 -0.9049  0.2812
 6736TIP3    H241700   1.013   5.011   3.093 -0.0699 -2.1094 -0.7307
 6737TIP3   OH241701   1.803   5.365   3.316  0.5796 -0.3000  0.6080
 6737TIP3    H141702   1.895   5.357   3.343  0.4760 -0.0099  1.0525
 6737TIP3    H241703   1.754   5.367   3.398  0.2330  0.2702  0.3939
 6738TIP3   OH241704   6.087   5.666  13.252 -0.1435 -0.0982 -0.1595
 6738TIP3    H141705   6.109   5.753  13.284  1.0757 -0.2453 -0.5522
 6738TIP3    H241706   6.040   5.625  13.325  0.6426  0.3407  0.6021
 6739TIP3   OH241707   1.809   6.302   4.613 -0.7682 -0.4997  0.1100
 6739TIP3    H141708   1.875   6.252   4.564 -0.5355  0.5388 -0.6880
 6739TIP3    H241709   1.725   6.263   4.587 -0.6240 -0.1901 -0.8846
 6740TIP3   OH241710   3.809   3.086  12.093 -0.8468 -0.0834 -0.0800
 6740TIP3    H141711   3.799   3.139  12.014  0.3126  0.2260 -0.0353
 6740TIP3    H241712   3.864   3.140  12.151  1.7046 -1.9129 -0.6245
 6741TIP3   OH241713   1.265   1.553   4.158  0.0313  0.2585 -0.1884
 6741TIP3    H141714   1.296   1.560   4.249 -2.4120 -0.3717  0.7790
 6741TIP3    H241715   1.279   1.462   4.134 -1.0483 -0.0510  0.2847
 6742TIP3   OH241716   3.288   5.477   2.390  0.7360  0.3245 -0.0693
 6742TIP3    H141717   3.366   5.471   2.335  2.3933  0.4931  2.1154
 6742TIP3    H241718   3.284   5.569   2.416 -0.7256  0.5048 -0.8366
 6743TIP3   OH241719   5.149   1.005   0.259  0.4905 -0.3248 -0.3998
 6743TIP3    H141720   5.061   1.008   0.222  0.4698 -1.6975 -0.5317
 6743TIP3    H241721   5.166   1.094   0.291 -0.8147  0.0255 -0.6522
 6744TIP3   OH241722   6.497   2.186  15.329 -0.3013  0.1401 -0.0146
 6744TIP3    H141723   6.478   2.094  15.347  1.4447 -0.5839 -1.4260
 6744TIP3    H241724   6.556   2.212  15.399 -0.3538  0.0005  0.0821
 6745TIP3   OH241725   0.599   2.208  11.301 -0.2416 -0.3251 -0.0986
 6745TIP3    H141726   0.688   2.197  11.335  0.5612  1.4184 -1.4630
 6745TIP3    H241727   0.582   2.128  11.251 -0.0117 -1.2729  1.2846
 6746TIP3   OH241728   1.513   2.661   1.408  0.1225  0.1191 -0.3959
 6746TIP3    H141729   1.419   2.680   1.408  0.0043 -0.4281  0.2671
 6746TIP3    H241730   1.524   2.593   1.341 -0.1213 -0.5655  0.2496
 6747TIP3   OH241731   3.469   0.640   0.480  0.3598  0.2288 -0.1547
 6747TIP3    H141732   3.513   0.556   0.491  1.0918  0.5505 -0.5442
 6747TIP3    H241733   3.505   0.676   0.399 -1.7211 -0.1338 -1.2841
 6748TIP3   OH241734   4.672   0.755  12.412 -1.0578  0.1030 -0.1830
 6748TIP3    H141735   4.598   0.793  12.459  0.9902  1.7446  1.9221
 6748TIP3    H241736   4.691   0.674  12.459 -1.2171 -0.0743 -0.4233
 6749TIP3   OH241737   1.710   4.947  15.054  0.0863  0.3150 -0.2822
 6749TIP3    H141738   1.733   4.855  15.069  1.9854  0.5475 -1.4730
 6749TIP3    H241739   1.716   4.987  15.141  0.3172 -0.4703  0.0725
 6750TIP3   OH241740   4.275   5.601  15.337  0.1631 -0.0741 -0.2174
 6750TIP3    H141741   4.212   5.647  15.282  0.4748 -0.2355 -0.7139
 6750TIP3    H241742   4.240   5.512  15.343  1.0822 -0.5774 -1.7184
 6751TIP3   OH241743   0.494   1.741   2.658 -0.2231 -0.0440  0.6056
 6751TIP3    H141744   0.514   1.740   2.752  1.6061 -0.5554  0.2426
 6751TIP3    H241745   0.529   1.658   2.626 -0.6713  0.2135 -0.5723
 6752TIP3   OH241746   6.147   6.573   1.968 -0.0477  0.7122  0.5036
 6752TIP3    H141747   6.203   6.569   1.890  2.6684  1.5832  2.2703
 6752TIP3    H241748   6.058   6.586   1.933  0.6878 -1.1826 -2.4697
 6753TIP3   OH241749   5.804   0.180  16.332  0.1216 -0.0754  0.1736
 6753TIP3    H141750   5.779   0.243  16.400  0.1702  0.6482 -0.4590
 6753TIP3    H241751   5.797   0.230  16.251 -1.1580 -1.2833 -0.4849
 6754TIP3   OH241752   1.876   4.284   0.684 -0.2858  0.0837 -0.6727
 6754TIP3    H141753   1.786   4.252   0.676 -1.0459  2.2203 -1.7440
 6754TIP3    H241754   1.897   4.276   0.777 -1.9427  0.3887 -0.2442
 6755TIP3   OH241755   0.293   4.908   5.846  0.4886 -0.0145  0.1365
 6755TIP3    H141756   0.233   4.970   5.889  0.3207 -0.6997  0.9085
 6755TIP3    H241757   0.326   4.956   5.770 -0.1462  0.7893  0.3525
 6756TIP3   OH241758   0.093   3.302   3.670 -0.0350  0.6999  0.2415
 6756TIP3    H141759   0.022   3.337   3.618 -1.0857  1.4659  2.0867
 6756TIP3    H241760   0.094   3.356   3.749  0.7055 -1.1032  1.5530
 6757TIP3   OH241761   3.038   3.412   4.018 -0.2761  0.0763 -0.0267
 6757TIP3    H141762   3.113   3.456   4.057 -0.1260  1.3055 -1.5918
 6757TIP3    H241763   3.021   3.338   4.076  1.6821  0.1794  0.7693
 6758TIP3   OH241764   3.176   2.696   1.299 -0.2619 -0.2123  0.3046
 6758TIP3    H141765   3.132   2.626   1.250  2.7793 -1.7264 -0.5283
 6758TIP3    H241766   3.222   2.746   1.231  1.7111 -0.6112  1.2535
 6759TIP3   OH241767   3.444   3.571   2.350 -0.6630 -0.3653  0.0760
 6759TIP3    H141768   3.363   3.604   2.388 -0.5049 -0.2866  0.3497
 6759TIP3    H241769   3.499   3.550   2.426 -0.4359 -0.4348 -0.1074
 6760TIP3   OH241770   4.166   2.471   5.767 -0.3133 -0.5685  0.1606
 6760TIP3    H141771   4.257   2.499   5.762 -1.0172  1.7040 -1.3517
 6760TIP3    H241772   4.168   2.394   5.825  2.5116 -0.5566  0.2260
 6761TIP3   OH241773   4.537   1.919   3.660 -0.0694 -0.4688  0.2758
 6761TIP3    H141774   4.605   1.878   3.712 -0.5624 -1.6406  0.0130
 6761TIP3    H241775   4.524   2.005   3.700  1.3059 -0.3642  0.5384
 6762TIP3   OH241776   3.583   3.426   3.087  0.5274  0.5492  0.1410
 6762TIP3    H141777   3.672   3.391   3.080  1.4973  2.1962  2.7718
 6762TIP3    H241778   3.567   3.468   3.002  2.0386 -0.2275 -0.5641
 6763TIP3   OH241779   4.716   0.507   5.159  0.0202 -0.6286  0.1567
 6763TIP3    H141780   4.653   0.563   5.203  0.3386 -1.7861  2.2173
 6763TIP3    H241781   4.708   0.529   5.066 -2.2306  0.3938  0.5394
 6764TIP3   OH241782   1.562   4.392   5.310 -0.2791 -0.0843 -0.0089
 6764TIP3    H141783   1.657   4.385   5.314 -0.1538  0.6134 -1.1750
 6764TIP3    H241784   1.532   4.372   5.399  0.9469 -0.2716  0.3783
 6765TIP3   OH241785   6.361   2.509  14.935  0.0430  0.3122  0.2811
 6765TIP3    H141786   6.385   2.419  14.912 -0.0520  0.0235  1.2781
 6765TIP3    H241787   6.290   2.500  14.998 -1.3980  1.1347 -1.1593
 6766TIP3   OH241788   6.433   4.908   4.242  0.1004  0.4132  0.2785
 6766TIP3    H141789   6.474   4.983   4.285  0.3569 -0.1012  0.9475
 6766TIP3    H241790   6.466   4.912   4.152  0.0575  1.1382  0.2864
 6767TIP3   OH241791   6.336   2.788   0.230  0.1105  0.1790 -0.1780
 6767TIP3    H141792   6.383   2.707   0.249  0.1751  0.1260 -0.5594
 6767TIP3    H241793   6.345   2.800   0.136 -1.1727 -0.1744 -0.3660
 6768TIP3   OH241794   2.798   4.608   1.045  0.0092 -0.1193  0.4270
 6768TIP3    H141795   2.763   4.546   0.981  0.1195  1.0569 -0.8188
 6768TIP3    H241796   2.889   4.579   1.058  0.2202  0.0648 -0.5381
 6769TIP3   OH241797   1.276   4.427  15.511  0.0832 -0.0536 -0.0456
 6769TIP3    H141798   1.259   4.369  15.586 -0.3694  0.0530 -0.0651
 6769TIP3    H241799   1.284   4.367  15.436  1.4695 -0.2462  0.2188
 6770TIP3   OH241800   3.189   4.164  12.166 -0.0653 -0.4747  0.6012
 6770TIP3    H141801   3.280   4.136  12.150  0.4245  1.7215 -0.8437
 6770TIP3    H241802   3.197   4.229  12.236 -0.5571 -0.4131  0.5975
 6771TIP3   OH241803   4.388   1.463  12.581 -0.1855 -0.0819  0.4222
 6771TIP3    H141804   4.297   1.478  12.555 -0.0177  0.5358  0.1759
 6771TIP3    H241805   4.412   1.543  12.628  0.3967 -0.0204  0.0254
 6772TIP3   OH241806   2.941   5.374   3.025  0.4367 -0.3216  0.0987
 6772TIP3    H141807   3.022   5.426   3.027  0.0419  0.3036  0.2712
 6772TIP3    H241808   2.873   5.436   3.052 -0.4833 -0.1531 -2.3550
 6773TIP3   OH241809   2.240   2.524   1.192  0.1527 -0.0251  0.1390
 6773TIP3    H141810   2.257   2.575   1.113 -0.8348  0.5098  0.2479
 6773TIP3    H241811   2.189   2.583   1.248 -1.1971 -1.1827  0.1817
 6774TIP3   OH241812   3.218   0.832  16.161  0.5142 -0.0895 -0.2134
 6774TIP3    H141813   3.153   0.902  16.157  0.7231  0.3999  2.5059
 6774TIP3    H241814   3.173   0.761  16.207  1.2169 -0.5809 -0.2715
 6775TIP3   OH241815   5.809   4.486   3.877  0.1330  0.4898 -0.2120
 6775TIP3    H141816   5.807   4.449   3.965 -0.7728  1.9791  0.4248
 6775TIP3    H241817   5.896   4.527   3.870 -1.0102  3.5091  1.4117
 6776TIP3   OH241818   2.253   6.327   1.692  0.5603  0.5833 -0.6740
 6776TIP3    H141819   2.289   6.327   1.781  0.7781  1.9353 -0.7295
 6776TIP3    H241820   2.325   6.298   1.637 -0.2226 -2.4815 -0.2424
 6777TIP3   OH241821   4.340   5.900  12.394  0.1045 -0.3304 -0.1077
 6777TIP3    H141822   4.389   5.978  12.366 -1.4205  0.3105 -1.1130
 6777TIP3    H241823   4.327   5.912  12.488 -2.4029  2.0609 -0.6291
 6778TIP3   OH241824   3.026   3.302  16.790  0.0708 -0.0149 -0.3172
 6778TIP3    H141825   2.934   3.277  16.780  0.0700  0.1386 -0.7023
 6778TIP3    H241826   3.024   3.375  16.852 -0.1626  0.6396 -1.0899
 6779TIP3   OH241827   0.662   1.280   0.766 -0.7823  0.0937  0.2154
 6779TIP3    H141828   0.733   1.269   0.703 -0.1846  1.2942  0.6393
 6779TIP3    H241829   0.605   1.205   0.751 -0.6415  0.3198 -1.7301
 6780TIP3   OH241830   1.054   3.751   3.398  0.4698  0.2851 -0.4656
 6780TIP3    H141831   1.108   3.747   3.319 -0.8210 -3.1300 -1.3623
 6780TIP3    H241832   1.102   3.698   3.462 -1.3119 -2.2833 -1.0867
 6781TIP3   OH241833   6.295   2.372  15.560  0.6925  0.0499 -0.0764
 6781TIP3    H141834   6.389   2.363  15.541  0.5263  1.0467 -1.5894
 6781TIP3    H241835   6.288   2.456  15.606  0.6259 -0.4314  0.8050
 6782TIP3   OH241836   3.315   4.411   3.000  0.3318 -0.3232  0.0331
 6782TIP3    H141837   3.389   4.457   3.040  0.6750 -2.1909  1.6839
 6782TIP3    H241838   3.240   4.437   3.053  0.0776  0.2568 -0.5965
 6783TIP3   OH241839   5.607   4.351  11.818 -0.6215 -0.1788  0.2947
 6783TIP3    H141840   5.564   4.297  11.885  1.6779 -1.8148  0.5711
 6783TIP3    H241841   5.671   4.402  11.867 -0.8398  0.7117 -0.3410
 6784TIP3   OH241842   4.433   1.257   4.414  0.3552 -0.4710 -0.2766
 6784TIP3    H141843   4.398   1.315   4.482  0.1783 -0.9340  0.0282
 6784TIP3    H241844   4.528   1.259   4.428  0.1894 -2.6374  1.7086
 6785TIP3   OH241845   3.832   5.150  11.517  0.6124  0.0343  0.1140
 6785TIP3    H141846   3.799   5.123  11.432 -1.1792  1.3341  0.3458
 6785TIP3    H241847   3.864   5.069  11.557 -1.6711 -1.2333 -0.4420
 6786TIP3   OH241848   1.868   3.317   1.678 -0.4856  0.2086 -0.4601
 6786TIP3    H141849   1.800   3.337   1.615 -0.3073 -1.0404 -1.0752
 6786TIP3    H241850   1.834   3.243   1.729  0.5785 -0.7749 -1.1155
 6787TIP3   OH241851   3.764   6.490  13.213  0.2131  0.1397  0.0176
 6787TIP3    H141852   3.721   6.496  13.298 -0.5789 -1.0726 -0.2707
 6787TIP3    H241853   3.806   6.404  13.213  1.4964  0.7440 -0.2458
 6788TIP3   OH241854   3.533   5.123   2.296 -0.1414 -0.5346 -0.3644
 6788TIP3    H141855   3.595   5.080   2.355 -0.6569  0.4183  0.9198
 6788TIP3    H241856   3.455   5.067   2.297  0.4724 -1.4385 -1.5414
 6789TIP3   OH241857   0.910   1.499  12.538 -0.0769  0.1420  0.5806
 6789TIP3    H141858   0.887   1.438  12.469 -0.2060  2.6382 -1.7404
 6789TIP3    H241859   0.826   1.532  12.570  0.0035 -0.5283  1.5192
 6790TIP3   OH241860   4.253   2.580  14.674 -0.0929  0.1161  0.2422
 6790TIP3    H141861   4.162   2.568  14.701 -0.6184  0.2317 -1.3341
 6790TIP3    H241862   4.248   2.586  14.578  1.4510  1.1822  0.1981
 6791TIP3   OH241863   0.645   6.395  13.561  0.0825  0.4177 -0.1524
 6791TIP3    H141864   0.686   6.428  13.481 -0.3957  0.3628 -0.4305
 6791TIP3    H241865   0.637   6.301  13.546 -0.6081  0.4951 -0.3317
 6792TIP3   OH241866   6.528   0.976  11.818 -0.5582 -0.3957 -0.0365
 6792TIP3    H141867   6.539   1.038  11.745  0.6273  0.0480  0.5026
 6792TIP3    H241868   6.436   0.986  11.843 -0.3933  1.1653  0.0513
 6793TIP3   OH241869   3.912   6.318  12.288 -0.0788  0.9352  0.6375
 6793TIP3    H141870   4.005   6.319  12.314  0.0892  0.8085  0.0484
 6793TIP3    H241871   3.908   6.375  12.211 -0.6569  1.6736  1.1999
 6794TIP3   OH241872   3.922   3.689  17.075 -0.1235  0.1013 -0.1180
 6794TIP3    H141873   3.915   3.784  17.060 -0.2182 -0.0155 -0.8509
 6794TIP3    H241874   3.942   3.681  17.168  3.1283  1.0126 -0.6146
 6795TIP3   OH241875   1.740   3.876   4.372  0.2337 -0.3541  0.5298
 6795TIP3    H141876   1.776   3.795   4.337  0.1366 -0.8016  1.4190
 6795TIP3    H241877   1.712   3.926   4.296 -0.3911 -1.4826  0.0139
 6796TIP3   OH241878   2.689   5.904  17.109 -0.3046  1.0692  0.4156
 6796TIP3    H141879   2.618   5.960  17.078 -1.8466 -0.7012  0.5275
 6796TIP3    H241880   2.725   5.865  17.029 -1.3258 -0.0984  0.4833
 6797TIP3   OH241881   3.447   2.825  14.682  0.0744 -0.0274 -0.0078
 6797TIP3    H141882   3.461   2.795  14.772 -0.8244  0.6717  0.3784
 6797TIP3    H241883   3.370   2.777  14.653  0.7284 -0.7208 -0.6444
 6798TIP3   OH241884   6.271   4.670   2.255  0.3149  0.3128 -0.1821
 6798TIP3    H141885   6.296   4.694   2.344  0.7866  0.5970 -0.3865
 6798TIP3    H241886   6.303   4.581   2.245  3.3635  1.4100 -1.1962
 6799TIP3   OH241887   4.564   0.569   4.828  0.5445 -0.2187 -0.6354
 6799TIP3    H141888   4.565   0.477   4.802 -0.5201 -0.7408  1.0010
 6799TIP3    H241889   4.472   0.595   4.821  0.9352  0.9621 -1.7893
 6800TIP3   OH241890   6.551   5.181   4.884  0.1184  0.2903  0.0797
 6800TIP3    H141891   6.578   5.094   4.855  0.7105  0.8274 -1.0172
 6800TIP3    H241892   6.534   5.170   4.978 -1.5654 -1.4268 -0.3516
 6801TIP3   OH241893   2.677   5.209   2.848 -0.5648  0.0780  0.4088
 6801TIP3    H141894   2.611   5.200   2.778 -0.5072  1.1414  0.1977
 6801TIP3    H241895   2.635   5.170   2.925 -1.4490  0.7033  0.2690
 6802TIP3   OH241896   4.703   6.189  15.137  0.1147  0.2569 -0.5254
 6802TIP3    H141897   4.657   6.256  15.087  0.1931  0.8233  0.1482
 6802TIP3    H241898   4.768   6.237  15.188 -0.3420 -0.2302  0.5513
 6803TIP3   OH241899   1.670   1.673  17.058 -1.0366  0.5077 -0.4935
 6803TIP3    H141900   1.601   1.680  17.123 -0.9029 -1.1178 -0.1427
 6803TIP3    H241901   1.686   1.763  17.030 -2.0631  1.0831  0.6967
 6804TIP3   OH241902   2.396   3.369   2.817 -0.1335 -0.4842 -0.7401
 6804TIP3    H141903   2.465   3.412   2.767  0.1489  1.2743  1.0331
 6804TIP3    H241904   2.346   3.320   2.752  2.0720 -0.8866 -2.2346
 6805TIP3   OH241905   4.846   5.359   2.243 -0.1593  0.1814 -0.1984
 6805TIP3    H141906   4.808   5.295   2.303  1.3287  0.2905  0.9275
 6805TIP3    H241907   4.901   5.307   2.184  0.1399  0.2928 -0.0210
 6806TIP3   OH241908   5.811   1.024   3.780 -0.4526 -0.3561 -0.1363
 6806TIP3    H141909   5.728   1.032   3.732 -0.1359  1.4001 -0.4460
 6806TIP3    H241910   5.815   1.102   3.834  1.2614 -0.1474 -0.5268
 6807TIP3   OH241911   1.602   3.195  14.838  0.0976  0.0868  0.4211
 6807TIP3    H141912   1.571   3.261  14.776  1.6288  0.3493 -0.1070
 6807TIP3    H241913   1.547   3.205  14.915 -0.7073  0.9214 -0.2532
 6808TIP3   OH241914   0.823   2.074  14.889  0.3833  0.2568  0.0273
 6808TIP3    H141915   0.808   2.054  14.797  0.1684 -0.4958  0.2198
 6808TIP3    H241916   0.913   2.045  14.906  0.3401  0.1729  0.1150
 6809TIP3   OH241917   0.590   4.556  13.232 -0.1475  0.1029 -0.2160
 6809TIP3    H141918   0.601   4.472  13.188 -0.6171  0.2191 -0.5615
 6809TIP3    H241919   0.556   4.615  13.164 -1.3796  0.1509  0.4134
 6810TIP3   OH241920   2.456   6.431  15.194 -0.2565 -0.3864 -0.0616
 6810TIP3    H141921   2.540   6.398  15.164 -0.3434  0.0091 -0.7639
 6810TIP3    H241922   2.408   6.353  15.222  0.4282 -0.5885  0.5762
 6811TIP3   OH241923   0.335   5.654   3.390  0.1923 -0.1067 -0.5261
 6811TIP3    H141924   0.275   5.729   3.395 -0.1708 -0.3268 -1.4151
 6811TIP3    H241925   0.416   5.686   3.430 -0.5764  0.1062  0.9454
 6812TIP3   OH241926   0.965   1.343   0.152 -0.2617  0.3057 -0.0446
 6812TIP3    H141927   0.940   1.434   0.138  1.4312  0.7425 -0.4098
 6812TIP3    H241928   1.002   1.315   0.069  2.9968  0.5987  1.1821
 6813TIP3   OH241929   5.682   1.423   0.654  0.1762 -0.0972  0.3682
 6813TIP3    H141930   5.624   1.468   0.715 -2.3206 -2.1822 -0.2964
 6813TIP3    H241931   5.662   1.463   0.569  0.4377 -0.1908  0.2615
 6814TIP3   OH241932   0.634   3.263  11.185  0.5958  0.6334  0.0798
 6814TIP3    H141933   0.662   3.284  11.095 -0.3203 -0.1887 -0.4064
 6814TIP3    H241934   0.706   3.211  11.220 -0.0489 -1.0570 -1.0009
 6815TIP3   OH241935   5.532   0.067  10.753 -0.4844  0.3239 -0.0725
 6815TIP3    H141936   5.523  -0.022  10.718 -0.0427 -0.3069  1.3236
 6815TIP3    H241937   5.562   0.119  10.679  3.0114 -1.4735 -0.1004
 6816TIP3   OH241938   3.354   1.033   6.560 -1.1567  0.2895  0.0833
 6816TIP3    H141939   3.301   0.956   6.539  0.6476 -0.7162 -1.0823
 6816TIP3    H241940   3.392   1.013   6.646 -1.2091  0.1602  0.0771
 6817TIP3   OH241941   3.804   4.649   1.500  0.4039 -0.1960  0.1966
 6817TIP3    H141942   3.806   4.626   1.407 -0.3692 -1.9892  0.5815
 6817TIP3    H241943   3.786   4.567   1.545 -0.5234  0.8467  1.8530
 6818TIP3   OH241944   5.274   1.907   6.804  0.8133 -0.5528 -0.2853
 6818TIP3    H141945   5.348   1.847   6.803  1.2076 -0.0781 -0.4053
 6818TIP3    H241946   5.305   1.984   6.757  0.3088 -0.2693 -0.1674
 6819TIP3   OH241947   0.855   1.200  17.126 -0.0302 -0.2386 -0.2395
 6819TIP3    H141948   0.763   1.194  17.150  0.2582 -0.3175  0.9214
 6819TIP3    H241949   0.900   1.146  17.190  0.7203 -1.2324 -1.5583
 6820TIP3   OH241950   6.716   3.715   5.068  0.2630  0.5240  0.2227
 6820TIP3    H141951   6.766   3.790   5.101  2.7555 -0.8542 -0.1771
 6820TIP3    H241952   6.706   3.659   5.145  0.1984  0.3417  0.0795
 6821TIP3   OH241953   2.956   5.409  10.594  0.5511 -0.4556 -0.7912
 6821TIP3    H141954   2.908   5.395  10.675  2.6480  1.9115  1.0025
 6821TIP3    H241955   3.031   5.351  10.600  0.6706 -0.3314 -1.0565
 6822TIP3   OH241956   6.000   4.481  13.465  0.2371 -0.6244 -0.3165
 6822TIP3    H141957   5.972   4.392  13.444 -1.3768 -0.3166  0.3673
 6822TIP3    H241958   6.020   4.478  13.558  0.2178 -0.2825 -0.3002
 6823TIP3   OH241959   0.892   1.323  14.153  0.4345 -0.1369 -0.1722
 6823TIP3    H141960   0.854   1.363  14.232 -1.7477 -0.5260 -0.9438
 6823TIP3    H241961   0.817   1.281  14.110  1.5521  0.0974 -2.4835
 6824TIP3   OH241962   2.999   5.067   2.934 -0.4226 -0.4003 -0.3799
 6824TIP3    H141963   2.953   5.044   3.015 -0.5389  1.1795  0.0464
 6824TIP3    H241964   2.990   4.990   2.878 -0.7782 -1.3316  0.9240
 6825TIP3   OH241965   2.509   4.610   5.610 -0.6647 -0.4182  0.0715
 6825TIP3    H141966   2.528   4.704   5.610  1.2702 -0.7556  0.3631
 6825TIP3    H241967   2.552   4.577   5.689  1.6325 -2.0153 -1.7155
 6826TIP3   OH241968   1.371   4.747   3.979 -0.0965 -0.0558  0.0836
 6826TIP3    H141969   1.363   4.689   4.055  0.6553 -0.1621  0.0878
 6826TIP3    H241970   1.291   4.801   3.982 -0.4044 -0.5274  0.5477
 6827TIP3   OH241971   5.158   2.809  15.666 -0.2478 -0.1051 -0.3314
 6827TIP3    H141972   5.158   2.782  15.574 -0.4461 -0.1402 -0.3203
 6827TIP3    H241973   5.232   2.763  15.705  1.2098  1.5636 -0.9695
 6828TIP3   OH241974   4.329   2.906  15.023 -0.0859 -0.4572  0.1855
 6828TIP3    H141975   4.296   2.865  14.944  0.4144 -0.6946  0.0928
 6828TIP3    H241976   4.424   2.898  15.016 -0.0714 -1.6599  1.4439
 6829TIP3   OH241977   1.498   4.750   2.182 -0.4441 -0.2682  0.3983
 6829TIP3    H141978   1.441   4.827   2.178 -0.8191 -0.5806 -0.3263
 6829TIP3    H241979   1.509   4.723   2.091 -0.7091 -1.3648  0.6780
 6830TIP3   OH241980   5.306   1.194  12.996  0.9261 -0.3104  0.2457
 6830TIP3    H141981   5.374   1.259  12.978 -1.2776  2.5111  1.1535
 6830TIP3    H241982   5.297   1.145  12.915  1.4617  1.8197 -1.1773
 6831TIP3   OH241983   6.250   3.030  16.680  0.0221  0.3883 -0.1588
 6831TIP3    H141984   6.226   2.962  16.742  1.2640 -0.2308 -0.3256
 6831TIP3    H241985   6.167   3.056  16.640 -0.3651 -1.8639 -0.9634
 6832TIP3   OH241986   1.675   5.160  13.454 -0.1418 -0.0635 -0.3016
 6832TIP3    H141987   1.587   5.185  13.424 -0.3039 -2.1222 -1.7644
 6832TIP3    H241988   1.724   5.242  13.454 -2.3624  1.4146  1.8910
 6833TIP3   OH241989   3.879   3.358  13.820  0.0213 -0.1732  0.8954
 6833TIP3    H141990   3.840   3.319  13.742 -1.3513  0.0059  1.4705
 6833TIP3    H241991   3.897   3.283  13.877  1.4782 -0.3549  0.2460
 6834TIP3   OH241992   5.887   4.437  16.890  0.3168  0.0206 -0.2461
 6834TIP3    H141993   5.950   4.417  16.821  0.8074 -1.5862  0.5937
 6834TIP3    H241994   5.821   4.368  16.882 -1.4222  1.7194 -1.1554
 6835TIP3   OH241995   2.152   2.339   0.457  0.3014 -0.4574  0.2699
 6835TIP3    H141996   2.191   2.287   0.527 -2.0131 -2.6811  0.0901
 6835TIP3    H241997   2.140   2.277   0.385  0.5493  1.2133 -1.2706
 6836TIP3   OH241998   1.830   5.469   2.353  0.1104 -0.1261  0.8579
 6836TIP3    H141999   1.913   5.483   2.398 -0.5368 -0.8406  2.3375
 6836TIP3    H242000   1.789   5.396   2.400 -1.1174 -0.1585 -0.1930
 6837TIP3   OH242001   0.303   5.282  15.831  0.7727 -0.0316 -0.3923
 6837TIP3    H142002   0.280   5.259  15.921  0.4952 -1.0754 -0.7200
 6837TIP3    H242003   0.296   5.200  15.783 -0.9900  0.8629 -1.7723
 6838TIP3   OH242004   5.286   0.540   5.161 -0.3784 -0.3373 -0.4199
 6838TIP3    H142005   5.284   0.490   5.079  0.9201  1.2509 -1.5028
 6838TIP3    H242006   5.297   0.631   5.132 -2.3371  0.5607  1.4694
 6839TIP3   OH242007   2.876   0.664   3.982 -0.7519 -0.0504 -0.5897
 6839TIP3    H142008   2.952   0.712   4.015 -1.2996 -1.0822  2.5214
 6839TIP3    H242009   2.800   0.716   4.011 -1.2904 -1.5131  0.7708
 6840TIP3   OH242010   2.210   1.690  16.777  0.2997 -0.0464 -0.4929
 6840TIP3    H142011   2.241   1.781  16.777 -0.0927  0.0899  0.0959
 6840TIP3    H242012   2.233   1.658  16.690 -0.1512  0.8268 -0.9562
 6841TIP3   OH242013   1.707   3.967   1.765 -0.5365  0.2702 -0.1784
 6841TIP3    H142014   1.723   4.027   1.838  0.9743  0.1157 -0.3552
 6841TIP3    H242015   1.769   3.896   1.779 -0.2179  0.2439 -1.6325
 6842TIP3   OH242016   1.256   1.839   3.831 -0.6068  0.2561 -0.2129
 6842TIP3    H142017   1.170   1.820   3.792 -0.7277 -0.0266  0.1857
 6842TIP3    H242018   1.237   1.894   3.907 -0.4440  0.1040 -0.0610
 6843TIP3   OH242019   3.221   0.819  13.917  0.5030 -0.3911  0.6061
 6843TIP3    H142020   3.174   0.804  13.835  1.6644 -0.4971 -0.0691
 6843TIP3    H242021   3.205   0.911  13.938  0.1383 -0.3835  0.2957
 6844TIP3   OH242022   5.765   4.921   2.607 -0.3348 -0.5816  0.3645
 6844TIP3    H142023   5.705   4.992   2.625  1.1522  0.8526 -0.0516
 6844TIP3    H242024   5.764   4.867   2.686 -1.3851 -0.0195  0.7425
 6845TIP3   OH242025   2.159   3.714   2.067  0.3195  0.6508 -0.5647
 6845TIP3    H142026   2.083   3.753   2.112 -0.0145 -0.8258  0.2041
 6845TIP3    H242027   2.121   3.669   1.991  0.5884  1.0095 -0.9131
 6846TIP3   OH242028   2.548   5.382   3.689  0.3213 -0.9544 -0.0270
 6846TIP3    H142029   2.590   5.322   3.626  1.6231  0.0305 -0.1485
 6846TIP3    H242030   2.459   5.394   3.655  1.1229 -0.0634 -2.0136
 6847TIP3   OH242031   0.844   0.502  14.063  0.4216 -0.3461  0.3781
 6847TIP3    H142032   0.766   0.501  14.119  1.0320 -4.4004  1.5188
 6847TIP3    H242033   0.811   0.478  13.976  0.0520  1.3842  0.0055
 6848TIP3   OH242034   6.599   0.260  15.808 -0.2062  0.6046  0.0534
 6848TIP3    H142035   6.509   0.269  15.775 -0.0428  2.5543  0.0689
 6848TIP3    H242036   6.612   0.165  15.812 -2.5627  0.2268  0.9016
 6849TIP3   OH242037   4.907   6.120  14.425  0.1373  0.2009  0.2669
 6849TIP3    H142038   4.847   6.133  14.352 -0.0659  2.0569  0.7139
 6849TIP3    H242039   4.987   6.085  14.385 -0.8654 -1.3751 -0.4512
 6850TIP3   OH242040   5.204   4.990   2.362  0.4894  0.3382 -0.1145
 6850TIP3    H142041   5.211   5.085   2.359 -0.4653  0.6100  2.9052
 6850TIP3    H242042   5.109   4.974   2.364  0.6424 -0.5171  1.3393
 6851TIP3   OH242043   4.163   1.451   2.422 -0.4312  0.6274 -0.9853
 6851TIP3    H142044   4.212   1.388   2.369  2.8091  0.6271  1.6935
 6851TIP3    H242045   4.180   1.536   2.381  0.1493  0.3961 -1.2219
 6852TIP3   OH242046   2.444   5.697   2.224  0.0291 -0.2338  0.3180
 6852TIP3    H142047   2.390   5.762   2.179  0.6903 -0.6433 -1.1370
 6852TIP3    H242048   2.405   5.613   2.201  0.5222 -0.4633  0.3108
 6853TIP3   OH242049   4.648   3.130  16.031  1.1003  0.2521  0.4396
 6853TIP3    H142050   4.584   3.071  16.070  1.3335 -0.5548 -0.3668
 6853TIP3    H242051   4.628   3.128  15.937  0.4494  2.2593  0.4885
 6854TIP3   OH242052   3.528   3.111   3.368 -0.2700  0.2006  0.1899
 6854TIP3    H142053   3.514   3.206   3.361 -0.9646  0.1292  0.5212
 6854TIP3    H242054   3.563   3.086   3.282 -1.8168  0.4741 -0.5656
 6855TIP3   OH242055   5.980   2.436   1.426 -0.1085  0.5404  0.0814
 6855TIP3    H142056   5.906   2.423   1.486 -0.2802 -0.5702 -0.3453
 6855TIP3    H242057   6.048   2.476   1.480 -0.4065 -0.0514  0.9114
 6856TIP3   OH242058   1.707   0.983  16.879 -0.1996  0.4193  0.1864
 6856TIP3    H142059   1.676   1.058  16.929 -0.6800 -1.2878  2.6163
 6856TIP3    H242060   1.781   0.950  16.928 -0.6406 -1.2987 -0.2432
 6857TIP3   OH242061   3.085   1.692   4.424  0.6261 -0.7514 -0.5527
 6857TIP3    H142062   3.146   1.647   4.366  0.7905 -1.7141  0.3329
 6857TIP3    H242063   3.136   1.710   4.503 -0.5882 -2.9856  0.8417
 6858TIP3   OH242064   3.144   4.738  11.180  0.2338  0.1974 -0.1404
 6858TIP3    H142065   3.071   4.689  11.142  0.4882 -1.7333  1.6845
 6858TIP3    H242066   3.222   4.701  11.139  0.3916 -0.5298  0.7934
 6859TIP3   OH242067   6.008   3.583   4.826  0.0199  0.4293 -0.6761
 6859TIP3    H142068   6.050   3.539   4.753  1.4666 -1.4913  1.1713
 6859TIP3    H242069   5.914   3.571   4.812  0.3279 -1.3904 -1.3738
 6860TIP3   OH242070   0.142   4.618   2.229 -0.5508 -0.0851 -0.1222
 6860TIP3    H142071   0.112   4.548   2.288 -0.0862 -0.0737  0.1237
 6860TIP3    H242072   0.183   4.682   2.286 -0.4035  0.0873 -0.4218
 6861TIP3   OH242073   0.036   5.017  13.202  0.1960  0.0297 -0.5263
 6861TIP3    H142074   0.118   4.968  13.210 -0.8552 -1.6496  0.7350
 6861TIP3    H242075   0.046   5.068  13.122  1.9782 -1.0694 -1.0703
 6862TIP3   OH242076   0.136   3.039   3.187 -0.0518  0.3460  0.2574
 6862TIP3    H142077   0.147   3.134   3.194 -0.9005  0.3385  2.7138
 6862TIP3    H242078   0.041   3.026   3.182  0.0937 -0.3533 -1.9617
 6863TIP3   OH242079   2.232   0.583   2.394  0.4784 -0.4964 -0.0243
 6863TIP3    H142080   2.181   0.545   2.466 -1.8509  0.5019 -1.0436
 6863TIP3    H242081   2.221   0.521   2.322 -0.3128  0.2996 -0.6034
 6864TIP3   OH242082   6.440   1.277  14.328 -0.1507 -0.8211  0.1775
 6864TIP3    H142083   6.376   1.229  14.275 -1.3807 -0.5202  1.3261
 6864TIP3    H242084   6.518   1.280  14.274 -0.8467 -1.9102 -0.9581
 6865TIP3   OH242085   1.615   0.299   5.705 -0.6212 -0.0843  0.5085
 6865TIP3    H142086   1.587   0.270   5.618  0.2929  1.3444 -0.2992
 6865TIP3    H242087   1.642   0.218   5.749  0.5865 -0.6821 -1.1887
 6866TIP3   OH242088   5.526   2.445  12.809  0.3198  0.2785  0.1636
 6866TIP3    H142089   5.590   2.377  12.831  0.8325 -0.0497 -2.0879
 6866TIP3    H242090   5.452   2.397  12.771  0.6402  0.9192 -1.3491
 6867TIP3   OH242091   1.563   1.902  12.372  0.0616  0.2811 -0.0255
 6867TIP3    H142092   1.509   1.843  12.423 -0.6600  0.8211 -0.1504
 6867TIP3    H242093   1.507   1.931  12.300  1.0785 -0.5299 -1.2008
 6868TIP3   OH242094   4.855   2.659   3.722 -0.2765 -0.4249  0.5548
 6868TIP3    H142095   4.783   2.714   3.692 -0.3090 -0.5050  0.4842
 6868TIP3    H242096   4.831   2.636   3.812 -1.0226 -1.5551  0.1039
 6869TIP3   OH242097   6.228   1.612   1.716  0.0866  0.5413 -0.4104
 6869TIP3    H142098   6.285   1.689   1.716  0.9930 -0.1294  0.1102
 6869TIP3    H242099   6.248   1.566   1.797 -1.7625  0.6909  0.1881
 6870TIP3   OH242100   5.329   0.740   5.926  0.3407 -0.2084  0.2872
 6870TIP3    H142101   5.364   0.802   5.990 -0.2797 -1.1290  1.5697
 6870TIP3    H242102   5.311   0.793   5.849  2.6377  0.6466  0.2592
 6871TIP3   OH242103   4.835   4.473  12.313  0.0864 -0.6769 -0.2716
 6871TIP3    H142104   4.793   4.493  12.229 -0.5784  0.0099  0.2086
 6871TIP3    H242105   4.924   4.506  12.303  0.3700 -1.6352 -1.1028
 6872TIP3   OH242106   4.619   4.247   5.264  0.5052 -0.3773 -0.7649
 6872TIP3    H142107   4.630   4.162   5.307 -1.7239  0.1467  1.0351
 6872TIP3    H242108   4.673   4.240   5.185  1.9949 -2.6973  0.3168
 6873TIP3   OH242109   5.646   1.485  17.209  0.3403  0.3585  0.1913
 6873TIP3    H142110   5.668   1.462  17.299 -0.5687  0.2849  0.4005
 6873TIP3    H242111   5.707   1.556  17.187  1.4071 -0.4610  0.4228
 6874TIP3   OH242112   6.059   2.024   2.072  0.1114 -0.4162 -0.4078
 6874TIP3    H142113   6.061   1.952   2.009  1.8408 -0.5299 -0.2603
 6874TIP3    H242114   6.004   1.990   2.144  0.2696 -1.2940 -0.6852
 6875TIP3   OH242115   5.141   1.800  15.074  0.3151  0.0687  0.5738
 6875TIP3    H142116   5.132   1.707  15.096  0.2440 -0.0701 -0.0409
 6875TIP3    H242117   5.141   1.844  15.159  1.4189 -0.5844  0.9318
 6876TIP3   OH242118   0.918   2.766  10.936  0.2499 -0.1684 -0.5902
 6876TIP3    H142119   0.884   2.855  10.947 -0.2157 -0.3471 -0.6011
 6876TIP3    H242120   0.987   2.759  11.002  0.2566  0.1805 -0.5560
 6877TIP3   OH242121   2.208   3.205   5.577 -0.1513 -0.5497  0.0318
 6877TIP3    H142122   2.277   3.270   5.595 -0.8386  0.3642 -0.5077
 6877TIP3    H242123   2.245   3.122   5.606 -0.1213  0.3705  2.9289
 6878TIP3   OH242124   3.379   2.365  16.444 -0.0720  0.5147  0.1317
 6878TIP3    H142125   3.408   2.456  16.443  0.1442  0.4498 -1.6105
 6878TIP3    H242126   3.425   2.327  16.519  0.3878  1.6529  0.4517
 6879TIP3   OH242127   1.465   1.141  14.349  0.0842 -0.1714 -0.0862
 6879TIP3    H142128   1.480   1.145  14.443  2.8530 -0.3165 -0.4339
 6879TIP3    H242129   1.503   1.223  14.315  0.6354 -0.8729 -1.2190
 6880TIP3   OH242130   2.496   6.079   0.509 -0.1839 -0.1827 -0.3582
 6880TIP3    H142131   2.501   6.172   0.484  3.3038 -0.1647 -0.1498
 6880TIP3    H242132   2.513   6.079   0.603  1.5171 -1.0757 -0.6302
 6881TIP3   OH242133   1.178   4.576   3.668  0.2760  0.0763  0.3218
 6881TIP3    H142134   1.137   4.637   3.729 -0.3847 -0.3788  0.3394
 6881TIP3    H242135   1.270   4.574   3.695  0.1281  0.3954  0.8715
 6882TIP3   OH242136   0.551   6.236  15.123  0.1098  0.6204  0.0977
 6882TIP3    H142137   0.602   6.295  15.068  1.6706 -0.6063  0.1412
 6882TIP3    H242138   0.468   6.223  15.077  0.9799  0.4263 -1.4617
 6883TIP3   OH242139   0.364   2.349   6.217 -0.0462  0.3801  0.3019
 6883TIP3    H142140   0.431   2.281   6.227 -0.0683  0.2731 -0.2900
 6883TIP3    H242141   0.288   2.314   6.263 -0.5372 -0.6612 -1.2248
 6884TIP3   OH242142   2.577   2.277  11.678 -0.3861  0.6023  0.0505
 6884TIP3    H142143   2.549   2.311  11.593 -0.6151 -0.8655 -0.4731
 6884TIP3    H242144   2.496   2.266  11.728 -0.5082 -0.8513 -0.4264
 6885TIP3   OH242145   2.319   3.089   5.850 -0.6468  0.0353 -0.4537
 6885TIP3    H142146   2.245   3.072   5.908 -0.7865  0.5654 -0.4785
 6885TIP3    H242147   2.396   3.085   5.907 -0.7645  0.3296 -0.2740
 6886TIP3   OH242148   5.984   4.109   3.994 -0.7440  0.7333 -0.6873
 6886TIP3    H142149   5.913   4.089   4.054  1.2030 -1.7149  1.0226
 6886TIP3    H242150   6.024   4.188   4.031 -1.1420  0.7426 -0.2677
 6887TIP3   OH242151   0.242   4.998  11.498 -0.6485 -0.2162  0.9906
 6887TIP3    H142152   0.211   4.911  11.474  0.8882 -0.8995  1.3632
 6887TIP3    H242153   0.206   5.013  11.586 -1.0485 -0.3980  0.8602
 6888TIP3   OH242154   1.910   2.626  17.461 -0.4111  0.0759 -0.5088
 6888TIP3    H142155   1.846   2.634  17.391 -0.3802 -1.2797 -0.7296
 6888TIP3    H242156   1.985   2.677  17.432 -1.5271  2.0903 -0.0284
 6889TIP3   OH242157   4.414   1.918  12.971 -0.3357 -0.1660 -0.6822
 6889TIP3    H142158   4.503   1.955  12.969 -0.0210 -0.8867 -0.4415
 6889TIP3    H242159   4.385   1.931  13.061 -0.2999 -0.3190 -0.6475
 6890TIP3   OH242160   4.976   3.881   2.544 -0.3109  0.2326 -0.1489
 6890TIP3    H142161   4.969   3.975   2.558  1.7596  0.2851  0.9767
 6890TIP3    H242162   5.024   3.872   2.462  0.4365  0.2041  0.2808
 6891TIP3   OH242163   2.830   6.612  16.424 -0.3766 -0.3722 -1.3439
 6891TIP3    H142164   2.908   6.577  16.381 -0.4313 -0.5039 -1.3361
 6891TIP3    H242165   2.757   6.577  16.372 -0.5271 -1.9832 -0.1082
 6892TIP3   OH242166   2.663   4.197  16.988  0.1143  0.6237 -0.2481
 6892TIP3    H142167   2.697   4.112  17.017 -3.1291 -0.3865  1.0473
 6892TIP3    H242168   2.597   4.176  16.922  0.3335  2.2860 -1.0618
 6893TIP3   OH242169   1.040   3.641   4.045 -0.5283  0.2083 -0.7711
 6893TIP3    H142170   1.034   3.735   4.060 -2.1095  0.1647 -0.9181
 6893TIP3    H242171   1.002   3.601   4.123  0.4799 -0.3405 -0.5408
 6894TIP3   OH242172   5.147   3.947  16.310 -0.3455 -0.6173  0.1561
 6894TIP3    H142173   5.140   4.025  16.254 -0.5813 -1.3933 -0.9219
 6894TIP3    H242174   5.141   3.873  16.250  1.5302 -1.4938  0.9502
 6895TIP3   OH242175   1.021   1.048  14.032  0.5849 -0.6163  0.1998
 6895TIP3    H142176   0.959   1.121  14.032  1.8113  0.5509  3.0708
 6895TIP3    H242177   0.966   0.970  14.027 -1.1128  0.3858  2.0204
 6896TIP3   OH242178   0.199   0.814   6.620 -0.5372 -0.2235  0.7244
 6896TIP3    H142179   0.275   0.847   6.667 -0.2128 -2.0911  1.6192
 6896TIP3    H242180   0.232   0.794   6.532 -0.7201  1.6194  0.1984
 6897TIP3   OH242181   0.421   6.661  13.795 -0.1552  0.2816  0.6001
 6897TIP3    H142182   0.340   6.711  13.807  0.4759  1.4325  0.2534
 6897TIP3    H242183   0.463   6.662  13.881 -0.2499  0.1535  0.6484
 6898TIP3   OH242184   4.926   5.948  15.290  0.5122  0.7541 -0.6273
 6898TIP3    H142185   4.890   5.937  15.202  1.9707 -0.1479 -1.1547
 6898TIP3    H242186   4.999   6.009  15.279  2.9863 -2.0156 -0.7923
 6899TIP3   OH242187   6.338   0.067  15.025 -0.2429  0.6898 -0.0686
 6899TIP3    H142188   6.391   0.142  15.052  0.0767  0.8044 -0.9853
 6899TIP3    H242189   6.372   0.043  14.939 -2.9862  2.0366 -1.6498
 6900TIP3   OH242190   1.381   5.003   0.105 -0.2055  0.3332 -0.0527
 6900TIP3    H142191   1.307   5.034   0.053  0.8589  1.6651 -0.8316
 6900TIP3    H242192   1.377   5.054   0.186 -0.5688 -0.1566  0.2479
 6901TIP3   OH242193   5.562   0.125   0.011 -0.1160 -0.2115 -0.1740
 6901TIP3    H142194   5.578   0.160   0.099  1.2106 -0.6002 -0.2391
 6901TIP3    H242195   5.600   0.190  -0.048  1.0058 -0.9933 -0.3506
 6902TIP3   OH242196   1.102   1.965  15.660  0.6692  0.6014 -0.0387
 6902TIP3    H142197   1.163   1.896  15.635 -1.1466 -1.5031  0.9647
 6902TIP3    H242198   1.072   1.939  15.748 -0.5383  2.3508  0.1144
 6903TIP3   OH242199   0.306   3.374  13.537 -0.1520 -0.3530 -0.1723
 6903TIP3    H142200   0.278   3.381  13.628 -0.7393 -1.4120 -0.2512
 6903TIP3    H242201   0.252   3.304  13.500  0.3943 -0.2587 -1.2129
 6904TIP3   OH242202   2.197   6.014  16.008 -0.2806  0.2303 -0.5824
 6904TIP3    H142203   2.216   5.977  16.094  1.5896 -0.3642 -1.2037
 6904TIP3    H242204   2.247   6.096  16.006  1.0208 -0.5444 -1.6579
 6905TIP3   OH242205   1.854   4.284  15.197  0.1583 -0.3154 -0.3462
 6905TIP3    H142206   1.760   4.285  15.214  0.1870  0.2903 -0.2019
 6905TIP3    H242207   1.864   4.225  15.122 -0.3716 -0.1066 -0.5850
 6906TIP3   OH242208   0.375   3.134  12.687  0.3884 -0.0841 -0.4839
 6906TIP3    H142209   0.312   3.179  12.744  0.5214  0.2733 -0.6143
 6906TIP3    H242210   0.458   3.137  12.736  0.2144 -0.9462 -0.1156
 6907TIP3   OH242211   3.699   6.248   0.406  0.1388  0.0975  0.1696
 6907TIP3    H142212   3.735   6.297   0.332  0.8253  1.8624  1.6168
 6907TIP3    H242213   3.740   6.162   0.399 -1.0102 -0.3449 -2.3625
 6908TIP3   OH242214   2.953   3.581   3.750 -0.1231 -0.7021  0.5865
 6908TIP3    H142215   3.047   3.600   3.760  0.1063  0.6811 -2.7410
 6908TIP3    H242216   2.914   3.666   3.731 -1.6390 -1.5714 -0.3843
 6909TIP3   OH242217   4.517   2.523   3.787 -0.0647 -0.5232 -0.4283
 6909TIP3    H142218   4.484   2.612   3.801  0.8775 -0.0043 -1.3471
 6909TIP3    H242219   4.440   2.471   3.764 -0.7392 -0.1210  0.8223
 6910TIP3   OH242220   6.568   5.500  17.204  0.0842 -0.4654 -0.3048
 6910TIP3    H142221   6.544   5.592  17.190 -1.0038 -0.3169  2.1390
 6910TIP3    H242222   6.660   5.502  17.229 -0.0826  0.0193  0.2767
 6911TIP3   OH242223   5.029   1.259  15.020 -0.1704 -0.5023 -0.0575
 6911TIP3    H142224   4.970   1.183  15.025 -0.1252 -0.4810  1.0266
 6911TIP3    H242225   4.970   1.334  15.009 -0.4503 -0.3847  1.9007
 6912TIP3   OH242226   2.911   1.845  13.192 -0.0764 -0.2792 -0.6631
 6912TIP3    H142227   2.835   1.878  13.240  0.9184 -0.0705  0.8466
 6912TIP3    H242228   2.928   1.911  13.125 -1.2022 -0.3270 -1.0219
 6913TIP3   OH242229   4.920   3.985   2.260 -0.0830 -0.1630  0.0252
 6913TIP3    H142230   4.844   4.025   2.217 -0.2225 -1.0209 -0.5391
 6913TIP3    H242231   4.960   3.931   2.192  1.1002  0.3677  0.2919
 6914TIP3   OH242232   0.386   5.820  15.402 -0.1873 -0.4767 -0.3199
 6914TIP3    H142233   0.422   5.748  15.453  0.8734 -0.8695 -1.5679
 6914TIP3    H242234   0.324   5.779  15.342 -0.9893 -0.0951  0.2294
 6915TIP3   OH242235   0.310   5.099   4.129 -0.1707 -0.3022  0.2742
 6915TIP3    H142236   0.357   5.121   4.210 -0.2527  1.5996 -0.1599
 6915TIP3    H242237   0.252   5.027   4.155 -1.2332  1.1818  2.3070
 6916TIP3   OH242238   4.040   2.320  14.498  0.1418 -0.0896 -0.6332
 6916TIP3    H142239   4.119   2.328  14.552 -1.3889 -1.0351  1.8902
 6916TIP3    H242240   4.001   2.407  14.502 -0.2944 -0.3163  0.3876
 6917TIP3   OH242241   3.719   1.522  14.762 -0.2233  0.2388 -0.1221
 6917TIP3    H142242   3.741   1.586  14.694  0.5896  0.5271  0.3992
 6917TIP3    H242243   3.624   1.530  14.772 -0.3724  0.0712 -1.3344
 6918TIP3   OH242244   1.568   6.219   0.843  0.0051 -0.1341  0.2208
 6918TIP3    H142245   1.526   6.240   0.926  0.8123  2.0543  0.1254
 6918TIP3    H242246   1.650   6.268   0.844  0.2155 -0.3724 -1.6970
 6919TIP3   OH242247   5.985   5.914   6.171 -0.5795 -0.6257  0.3574
 6919TIP3    H142248   5.967   5.826   6.203 -1.8287 -0.3227  0.5513
 6919TIP3    H242249   5.944   5.971   6.236 -0.2031  0.0899 -0.0249
 6920TIP3   OH242250   0.725   6.743   5.837  0.1162  0.2674 -0.1142
 6920TIP3    H142251   0.755   6.710   5.752  0.7420 -0.0772  0.2269
 6920TIP3    H242252   0.797   6.722   5.897 -0.7362 -0.3808  0.6960
 6921TIP3   OH242253   4.781   4.908  13.020 -0.6549  0.4925 -0.6425
 6921TIP3    H142254   4.771   4.971  13.091 -1.1938 -1.4507  1.1356
 6921TIP3    H242255   4.870   4.875  13.029 -0.8744 -0.0929 -0.5396
 6922TIP3   OH242256   4.479   2.327  11.100  0.1953  0.5560 -0.3702
 6922TIP3    H142257   4.407   2.364  11.150  0.3478 -0.1760  0.4148
 6922TIP3    H242258   4.541   2.399  11.088  0.8772  0.4000  1.8338
 6923TIP3   OH242259   1.208   3.844   4.351  0.5392 -0.3731  0.0444
 6923TIP3    H142260   1.248   3.877   4.270 -1.1468  0.7894 -0.3673
 6923TIP3    H242261   1.242   3.902   4.419  0.2833  0.0273 -0.1644
 6924TIP3   OH242262   6.547   6.574  13.589  0.1121 -0.7121  0.1374
 6924TIP3    H142263   6.555   6.652  13.644 -0.4313 -1.3125  1.0775
 6924TIP3    H242264   6.504   6.606  13.510  2.4725  0.5279 -0.7768
 6925TIP3   OH242265   4.729   3.559   0.678  0.7266  0.6436  0.2590
 6925TIP3    H142266   4.772   3.580   0.595 -1.2407  0.7030 -0.7968
 6925TIP3    H242267   4.636   3.564   0.659  0.2133  0.8900  2.5538
 6926TIP3   OH242268   0.576   5.150  16.025 -0.1153 -0.6613 -0.0387
 6926TIP3    H142269   0.511   5.164  15.956 -0.7315  0.6237  0.7696
 6926TIP3    H242270   0.609   5.062  16.009 -0.5900 -0.5763 -1.6820
 6927TIP3   OH242271   1.275   4.508   4.547  0.3531 -0.3929 -0.2019
 6927TIP3    H142272   1.327   4.466   4.478  0.4027  0.2460 -0.5642
 6927TIP3    H242273   1.296   4.601   4.539 -0.0821 -0.2483  0.3041
 6928TIP3   OH242274   5.845   0.708  14.394 -0.2228  0.7772  0.2819
 6928TIP3    H142275   5.887   0.755  14.465 -0.5895  2.0159 -0.2913
 6928TIP3    H242276   5.780   0.769  14.359 -2.1356 -0.8721  0.7750
 6929TIP3   OH242277   5.486   2.399   0.835  0.6782 -0.2022 -0.0973
 6929TIP3    H142278   5.444   2.480   0.806 -1.1613 -0.6728  1.0891
 6929TIP3    H242279   5.555   2.428   0.894  0.5031  0.5245 -0.2320
 6930TIP3   OH242280   2.816   0.690  12.427  0.2653 -0.2943  0.2867
 6930TIP3    H142281   2.907   0.681  12.399 -0.4011 -1.1243 -1.8389
 6930TIP3    H242282   2.766   0.681  12.346 -1.7035  0.3257  1.3897
 6931TIP3   OH242283   5.859   5.215  11.944 -0.3939 -0.6716 -0.5979
 6931TIP3    H142284   5.840   5.195  11.853  0.7991 -1.1055 -0.7587
 6931TIP3    H242285   5.849   5.131  11.990 -1.4336 -0.3693 -0.2386
 6932TIP3   OH242286   0.750   3.239   1.120  0.3811  0.0858 -0.2390
 6932TIP3    H142287   0.767   3.321   1.167  0.9909 -0.2709  0.1760
 6932TIP3    H242288   0.716   3.267   1.035  0.6956  0.7746 -0.1485
 6933TIP3   OH242289   1.829   1.737   0.475 -0.0943 -0.5295 -0.3415
 6933TIP3    H142290   1.750   1.788   0.454  0.5909  0.7429  0.0643
 6933TIP3    H242291   1.902   1.793   0.448  0.6997 -1.8828 -1.1762
 6934TIP3   OH242292   4.205   5.345  12.602 -0.5401 -0.2459  0.2781
 6934TIP3    H142293   4.293   5.311  12.620 -1.1593 -1.7270  0.7098
 6934TIP3    H242294   4.187   5.404  12.676  0.8818  1.8231 -0.9154
 6935TIP3   OH242295   5.854   3.285   4.934 -0.7552 -0.0767  0.4579
 6935TIP3    H142296   5.823   3.260   5.022  0.4150 -0.9876  0.6472
 6935TIP3    H242297   5.932   3.337   4.951  0.4888 -1.6956 -0.0263
 6936TIP3   OH242298   0.146   4.965  13.583  0.1887  0.2246 -0.7486
 6936TIP3    H142299   0.173   4.915  13.507  0.9182  1.2615 -1.1970
 6936TIP3    H242300   0.211   4.945  13.650 -0.0421 -0.1300 -0.6295
 6937TIP3   OH242301   4.886   6.501   3.096 -0.3408  0.3178  0.1846
 6937TIP3    H142302   4.910   6.566   3.161 -0.0605 -0.9554  1.3926
 6937TIP3    H242303   4.808   6.459   3.131  0.1425 -0.7773 -0.0043
 6938TIP3   OH242304   0.117   1.920  14.965 -0.2124 -0.3139 -0.1900
 6938TIP3    H142305   0.194   1.957  15.006  1.1108 -1.7112 -1.2921
 6938TIP3    H242306   0.106   1.835  15.007 -2.5715  0.7402  1.5704
 6939TIP3   OH242307   2.271   3.942  12.413 -0.4217 -0.3903 -0.0538
 6939TIP3    H142308   2.181   3.925  12.384 -0.7376  1.9452 -0.6318
 6939TIP3    H242309   2.318   3.963  12.333  0.7004 -1.7031  0.2345
 6940TIP3   OH242310   2.436   1.324  17.086  0.1156 -0.3777  0.3691
 6940TIP3    H142311   2.384   1.400  17.058  0.3137 -0.8887 -1.4926
 6940TIP3    H242312   2.380   1.280  17.150 -0.9884  0.0712 -0.2549
 6941TIP3   OH242313   1.778   5.061   4.808  0.2412  0.3677 -0.4352
 6941TIP3    H142314   1.841   5.037   4.877 -0.9413  0.3071  0.6636
 6941TIP3    H242315   1.734   4.979   4.785 -0.7035  0.6899  0.1443
 6942TIP3   OH242316   0.396   3.993  16.509 -0.2047 -0.1168  0.1621
 6942TIP3    H142317   0.328   4.047  16.468 -0.8884  1.6512  3.2972
 6942TIP3    H242318   0.476   4.043  16.500 -0.3477  0.2538  0.8399
 6943TIP3   OH242319   5.514   5.430  16.105  0.0696 -0.0969 -0.4737
 6943TIP3    H142320   5.424   5.414  16.135 -0.0915  0.2249 -0.7598
 6943TIP3    H242321   5.511   5.410  16.011  0.6166 -1.2901 -0.2494
 6944TIP3   OH242322   6.300   4.692   2.521 -0.1266 -0.1775  0.4431
 6944TIP3    H142323   6.231   4.758   2.511  1.1185  1.1324 -0.0408
 6944TIP3    H242324   6.326   4.699   2.613  0.2740  0.3306  0.3010
 6945TIP3   OH242325   3.896   4.684   4.853 -0.4724 -0.3698  0.2502
 6945TIP3    H142326   3.903   4.778   4.868 -2.7336  0.4161 -2.5049
 6945TIP3    H242327   3.819   4.657   4.903  0.2331 -0.8030  1.1198
 6946TIP3   OH242328   6.270   0.699  16.537 -0.0070  0.1560 -0.2481
 6946TIP3    H142329   6.237   0.731  16.453  0.4413 -1.6850 -1.1624
 6946TIP3    H242330   6.243   0.608  16.540  0.1308  0.1427  1.5594
 6947TIP3   OH242331   4.357   2.416  15.514  0.0051 -0.0617  0.1039
 6947TIP3    H142332   4.305   2.482  15.467 -0.1867  0.2606  0.7495
 6947TIP3    H242333   4.375   2.456  15.599  0.9674 -0.3442  0.0403
 6948TIP3   OH242334   0.395   4.359  15.449  0.2151  0.3535  0.9432
 6948TIP3    H142335   0.368   4.267  15.453  0.5654  0.1671 -0.4015
 6948TIP3    H242336   0.315   4.408  15.466 -0.1332 -0.2016  0.9342
 6949TIP3   OH242337   2.201   0.237   6.060 -0.7496  0.3233  0.6884
 6949TIP3    H142338   2.140   0.284   6.004  1.5866 -0.0315 -2.4355
 6949TIP3    H242339   2.231   0.302   6.123 -1.0874  1.7423 -0.5411
 6950TIP3   OH242340   2.060   4.167  15.686 -0.6767  0.0553 -0.3784
 6950TIP3    H142341   2.002   4.150  15.612 -0.2771 -2.3464 -0.2390
 6950TIP3    H242342   2.131   4.221  15.650 -1.6003  0.7538 -1.1827
 6951TIP3   OH242343   3.918   2.570   3.183 -0.3848  0.1799  0.1086
 6951TIP3    H142344   3.913   2.664   3.201 -3.1756 -0.2690  2.4678
 6951TIP3    H242345   3.994   2.539   3.232 -0.2283  1.0320  0.4084
 6952TIP3   OH242346   1.174   5.919  11.828  0.8952 -0.4647 -0.0334
 6952TIP3    H142347   1.144   5.860  11.759 -0.9169  0.1979  0.1426
 6952TIP3    H242348   1.218   5.990  11.782 -0.0995 -0.1462 -0.5228
 6953TIP3   OH242349   0.083   3.185  16.205 -0.1954 -0.5937 -0.0484
 6953TIP3    H142350   0.051   3.139  16.127  0.0911  1.1324 -1.2393
 6953TIP3    H242351   0.176   3.163  16.209 -0.6890 -2.7094  1.3254
 6954TIP3   OH242352   2.289   5.532  11.561  0.2264  0.0592  0.3668
 6954TIP3    H142353   2.195   5.525  11.544  0.4873 -1.2527 -0.7734
 6954TIP3    H242354   2.319   5.441  11.561  1.3795  0.4190  1.5180
 6955TIP3   OH242355   1.514   6.274  12.153 -0.8078 -0.3092  0.0221
 6955TIP3    H142356   1.485   6.292  12.064 -0.3117  0.2300 -0.0383
 6955TIP3    H242357   1.505   6.358  12.198  2.0397  0.3536 -0.3946
 6956TIP3   OH242358   0.952   5.676   2.218 -0.2417  0.4195  0.0175
 6956TIP3    H142359   0.857   5.681   2.214 -0.2198  0.0144 -1.3266
 6956TIP3    H242360   0.982   5.761   2.187 -0.1668 -0.3005 -2.0626
 6957TIP3   OH242361   6.183   4.070   5.181  0.3514  0.0675  0.0490
 6957TIP3    H142362   6.197   4.165   5.178 -0.7043  0.2234 -0.6805
 6957TIP3    H242363   6.118   4.058   5.250 -0.0561 -0.0428 -0.3515
 6958TIP3   OH242364   6.388   1.906  11.611  0.5554 -0.0446 -0.0170
 6958TIP3    H142365   6.373   1.811  11.606  1.1685 -0.0608 -2.7305
 6958TIP3    H242366   6.342   1.942  11.536 -0.1276  1.9355  1.2693
 6959TIP3   OH242367   0.211   2.519   6.559 -0.4938 -0.2511 -0.4899
 6959TIP3    H142368   0.133   2.572   6.577  0.0348  0.0014  1.2182
 6959TIP3    H242369   0.176   2.438   6.522 -1.4107  0.6898 -1.7470
 6960TIP3   OH242370   5.008   2.583   1.338 -0.5481 -0.3731  0.4314
 6960TIP3    H142371   5.016   2.675   1.310  1.1119 -0.9149 -1.0602
 6960TIP3    H242372   4.962   2.540   1.266 -0.3880 -0.9017  0.6422
 6961TIP3   OH242373   0.211   3.829   0.926 -0.2352  0.3801 -0.3221
 6961TIP3    H142374   0.190   3.777   1.003  0.6644 -1.1555 -1.0512
 6961TIP3    H242375   0.158   3.908   0.934 -0.8947 -0.1961  1.3481
 6962TIP3   OH242376   5.287   6.380  13.602  0.2899  0.3863 -0.8241
 6962TIP3    H142377   5.367   6.385  13.549  0.1666  0.6560 -0.9834
 6962TIP3    H242378   5.216   6.375  13.538  0.1867 -0.0234 -0.6824
 6963TIP3   OH242379   0.060   0.928  15.930  0.3860 -0.5699 -0.0437
 6963TIP3    H142380   0.041   0.899  15.841  2.1802 -2.1437  0.0333
 6963TIP3    H242381   0.120   0.863  15.965 -0.8334 -0.4292  2.6229
 6964TIP3   OH242382   0.072   0.720   1.631 -0.0582  0.0656  0.0347
 6964TIP3    H142383   0.020   0.771   1.693 -1.0011  1.2160 -1.6233
 6964TIP3    H242384   0.146   0.776   1.610 -0.6777  0.4626 -1.1844
 6965TIP3   OH242385   0.187   5.013  12.367 -0.3176  0.5186 -0.5941
 6965TIP3    H142386   0.267   5.064  12.354  0.1694  0.2746  1.1647
 6965TIP3    H242387   0.129   5.071  12.417 -0.7618  0.2642 -0.8099
 6966TIP3   OH242388   2.197   3.779  11.442 -0.4079 -0.4924 -0.2326
 6966TIP3    H142389   2.258   3.824  11.383 -0.2887  0.0181  0.2751
 6966TIP3    H242390   2.226   3.803  11.530  0.4447 -2.5700  0.1113
 6967TIP3   OH242391   1.862   2.122  11.397 -0.1996  0.1236  0.7862
 6967TIP3    H142392   1.847   2.192  11.335 -0.2752 -0.4868  0.1020
 6967TIP3    H242393   1.906   2.164  11.471  1.5956  0.5529 -0.4626
 6968TIP3   OH242394   6.672   0.524   4.275  0.4988  0.1467  0.0152
 6968TIP3    H142395   6.615   0.589   4.315  0.2534  0.5708 -0.9973
 6968TIP3    H242396   6.713   0.478   4.349 -2.2443 -1.1935  0.8092
 6969TIP3   OH242397   1.283   5.177  15.315  0.2032  0.5534  0.2368
 6969TIP3    H142398   1.291   5.144  15.225 -0.5084 -0.8990  0.6840
 6969TIP3    H242399   1.189   5.178  15.332  0.3816 -0.9781  1.5714
 6970TIP3   OH242400   4.540   6.075   5.472  0.3282 -0.3309 -0.0796
 6970TIP3    H142401   4.493   6.142   5.423  0.2714  0.6070  1.2135
 6970TIP3    H242402   4.601   6.037   5.408 -1.4956 -0.9409 -1.5491
 6971TIP3   OH242403   5.961   2.454   0.213 -0.1446  0.2491  0.7248
 6971TIP3    H142404   5.922   2.540   0.229  0.4946  0.1865  2.9213
 6971TIP3    H242405   6.044   2.473   0.169 -1.2948  0.5198 -1.5183
 6972TIP3   OH242406   1.589   1.539   4.358 -0.0275 -0.4921  0.1848
 6972TIP3    H142407   1.612   1.447   4.369 -0.0513 -0.2229  3.3567
 6972TIP3    H242408   1.502   1.547   4.395  0.3027  0.9508  0.7184
 6973TIP3   OH242409   3.023   3.873  13.028 -0.1114 -0.2482 -0.3484
 6973TIP3    H142410   3.078   3.888  13.104  0.7374  0.5296 -1.0832
 6973TIP3    H242411   2.964   3.948  13.025  0.5456  0.2655 -1.0084
 6974TIP3   OH242412   0.394   0.970  17.393 -0.0243  0.4447 -0.0866
 6974TIP3    H142413   0.442   0.894  17.426 -0.3391  0.2381 -0.1006
 6974TIP3    H242414   0.328   0.933  17.334 -1.7006  0.5230  1.6590
 6975TIP3   OH242415   2.427   2.756   1.587 -0.3214 -0.0242 -0.0503
 6975TIP3    H142416   2.354   2.817   1.574  1.4704  2.0109 -1.1496
 6975TIP3    H242417   2.448   2.764   1.680 -1.4289 -0.5627  0.2544
 6976TIP3   OH242418   2.959   0.519  13.815 -0.2089 -0.0939  0.1233
 6976TIP3    H142419   2.940   0.442  13.761 -0.4787 -0.7520  1.1185
 6976TIP3    H242420   3.031   0.491  13.871 -0.0070  0.5372  0.1808
 6977TIP3   OH242421   5.436   6.257   3.000  0.2082  0.2960 -0.7558
 6977TIP3    H142422   5.472   6.336   3.042  3.6384 -2.1022  1.3525
 6977TIP3    H242423   5.354   6.241   3.046  1.8147  0.0978  2.3254
 6978TIP3   OH242424   5.894   2.879   0.860 -0.1424  0.2478  0.1428
 6978TIP3    H142425   5.972   2.910   0.813  0.7897 -0.6823  1.0273
 6978TIP3    H242426   5.844   2.832   0.794  0.5663 -0.0329 -0.2099
 6979TIP3   OH242427   2.743   5.075   4.992 -0.2738 -0.0789  0.2065
 6979TIP3    H142428   2.692   5.129   4.932  0.4608 -0.2954 -0.6377
 6979TIP3    H242429   2.681   5.050   5.061 -1.4171 -0.6968 -1.0096
 6980TIP3   OH242430   4.112   3.074   2.540  0.2642  0.1360 -0.4068
 6980TIP3    H142431   4.178   3.120   2.489  1.2619 -1.0753 -0.2523
 6980TIP3    H242432   4.140   3.084   2.631  0.2500 -0.3927 -0.3400
 6981TIP3   OH242433   2.584   5.954   3.580  0.3223 -0.4465  0.3502
 6981TIP3    H142434   2.542   5.975   3.497  1.0657  0.8385  0.2808
 6981TIP3    H242435   2.613   5.863   3.570  0.2868 -0.3506 -0.7343
 6982TIP3   OH242436   3.873   5.816  11.722 -0.1725  0.1936  0.0152
 6982TIP3    H142437   3.913   5.894  11.760  1.0160  0.6525 -2.0303
 6982TIP3    H242438   3.860   5.757  11.797  0.8220  1.5191  1.2950
 6983TIP3   OH242439   0.609   3.891   1.690 -0.4563  0.4344  0.2979
 6983TIP3    H142440   0.555   3.966   1.714 -1.0523  0.4331 -0.9706
 6983TIP3    H242441   0.578   3.866   1.604  0.7652 -0.3298  0.0583
 6984TIP3   OH242442   3.028   6.166  16.585 -0.0737  0.1224 -0.5098
 6984TIP3    H142443   3.119   6.195  16.588 -0.1845  0.4000  0.4259
 6984TIP3    H242444   2.989   6.219  16.516  0.6871 -0.6777 -1.5973
 6985TIP3   OH242445   4.084   4.519  11.957  0.2627 -0.0136  0.0569
 6985TIP3    H142446   4.027   4.540  11.883 -0.6162  1.2821  1.0584
 6985TIP3    H242447   4.172   4.530  11.922 -0.1343  0.9897 -0.6925
 6986TIP3   OH242448   5.351   2.637   2.118  0.0512  0.3376  0.7150
 6986TIP3    H142449   5.280   2.593   2.072  1.2869 -1.2514  0.2594
 6986TIP3    H242450   5.307   2.698   2.178 -1.6158  0.8954 -1.0021
 6987TIP3   OH242451   3.057   4.741   0.724  0.7022 -0.2149  0.3426
 6987TIP3    H142452   3.005   4.804   0.774 -0.9896 -0.3400 -1.1807
 6987TIP3    H242453   3.110   4.795   0.665  0.1995 -0.1661 -0.0693
 6988TIP3   OH242454   3.001   0.921  14.125 -0.3759 -0.6923 -0.1951
 6988TIP3    H142455   3.024   0.829  14.114 -1.6776 -1.2027  1.0956
 6988TIP3    H242456   2.949   0.924  14.205 -0.9504  1.0712 -0.5790
 6989TIP3   OH242457   5.766   5.625  13.235 -0.5120 -0.6043 -0.0606
 6989TIP3    H142458   5.776   5.707  13.283 -1.7529 -1.1808  1.2633
 6989TIP3    H242459   5.672   5.608  13.235 -0.3617 -1.5750 -1.1064
 6990TIP3   OH242460   0.520   2.923   0.190  0.3858  0.2049 -0.1695
 6990TIP3    H142461   0.441   2.968   0.222 -0.2128 -0.1485 -1.1236
 6990TIP3    H242462   0.505   2.831   0.212  0.6555  0.1709 -0.1251
 6991TIP3   OH242463   3.557   3.974   0.270 -0.1187 -0.1207  0.1560
 6991TIP3    H142464   3.549   4.003   0.179  0.0115 -0.1361  0.1396
 6991TIP3    H242465   3.523   3.885   0.270 -0.8504  0.1500  0.2746
 6992TIP3   OH242466   3.396   3.077   1.789 -0.0860 -0.8218  0.1431
 6992TIP3    H142467   3.404   3.096   1.883  0.0378  3.0026 -0.4812
 6992TIP3    H242468   3.306   3.048   1.778 -0.1661 -1.1166  1.4120
 6993TIP3   OH242469   5.428   1.172   3.712  0.1568 -0.1400 -0.0443
 6993TIP3    H142470   5.340   1.190   3.679  0.0561  0.1880  0.3893
 6993TIP3    H242471   5.432   1.077   3.722  0.6332 -0.3951 -2.2146
 6994TIP3   OH242472   5.336   1.558   3.725 -0.0134 -0.3518  0.0140
 6994TIP3    H142473   5.418   1.553   3.676 -0.1836 -1.6783 -0.1598
 6994TIP3    H242474   5.361   1.593   3.811  0.7252 -0.7293 -0.0484
 6995TIP3   OH242475   3.370   1.682  16.835 -0.1676  0.0491 -0.3277
 6995TIP3    H142476   3.404   1.600  16.799 -2.2880 -0.7099 -0.7185
 6995TIP3    H242477   3.278   1.664  16.853  0.1139  1.2664  2.9301
 6996TIP3   OH242478   5.126   6.383   2.496  0.2331  0.0072  0.0776
 6996TIP3    H142479   5.043   6.358   2.538 -2.5498  0.2972 -4.5532
 6996TIP3    H242480   5.150   6.465   2.540 -1.1288 -0.7407  2.4541
 6997TIP3   OH242481   0.696   2.327   1.172 -0.1659  0.3727 -0.3092
 6997TIP3    H142482   0.675   2.358   1.084 -2.0659  0.7822  0.2297
 6997TIP3    H242483   0.775   2.375   1.197  0.9644 -0.4524 -2.1110
 6998TIP3   OH242484   2.388   1.162  14.825  0.7326 -0.1013 -0.5833
 6998TIP3    H142485   2.350   1.083  14.864  0.5950  0.0727 -0.3615
 6998TIP3    H242486   2.327   1.188  14.757 -0.7397  1.4514  1.2287
 6999TIP3   OH242487   1.567   5.643   5.772 -0.0477  0.0350  1.0286
 6999TIP3    H142488   1.584   5.737   5.774 -0.5593  0.2988 -1.8077
 6999TIP3    H242489   1.501   5.630   5.840 -0.9622  2.0057  0.6212
 7000TIP3   OH242490   2.361   2.384  16.624 -0.3867 -0.5935 -0.6716
 7000TIP3    H142491   2.321   2.412  16.706  0.1945 -1.0415 -0.2292
 7000TIP3    H242492   2.300   2.414  16.556  0.4732  2.3037 -0.3075
 7001TIP3   OH242493   2.701   5.568  14.269 -0.9058 -0.2033  0.2366
 7001TIP3    H142494   2.686   5.631  14.339 -1.1921  1.2836 -1.1052
 7001TIP3    H242495   2.658   5.606  14.193 -0.4914 -1.7007 -0.7884
 7002TIP3   OH242496   2.698   4.797  13.804 -0.3470  0.1088  0.2608
 7002TIP3    H142497   2.741   4.845  13.733 -0.5416 -0.0147  0.0594
 7002TIP3    H242498   2.756   4.810  13.879  0.8253 -1.2302 -0.3515
 7003TIP3   OH242499   1.887   6.143  13.247 -0.6687 -0.3015  0.7622
 7003TIP3    H142500   1.966   6.094  13.271 -1.6180 -1.6615  1.2863
 7003TIP3    H242501   1.816   6.098  13.294 -1.6107  1.6430  1.3278
 7004TIP3   OH242502   2.981   3.757  12.599  0.4356  0.3812 -0.1857
 7004TIP3    H142503   3.033   3.760  12.679 -1.4340 -0.6507  1.1745
 7004TIP3    H242504   2.917   3.827  12.609  0.3720  0.4423 -0.9281
 7005TIP3   OH242505   3.318   2.338   4.605 -0.1691  0.2443 -0.6470
 7005TIP3    H142506   3.338   2.301   4.692 -0.7448 -0.1758 -0.6884
 7005TIP3    H242507   3.397   2.386   4.581  0.3182 -0.3473 -0.2581
 7006TIP3   OH242508   2.127   4.478   4.622 -0.1618  0.2108  0.3784
 7006TIP3    H142509   2.136   4.382   4.620 -1.3990  0.0011  2.3004
 7006TIP3    H242510   2.119   4.503   4.530 -0.7011 -1.6232 -0.1295
 7007TIP3   OH242511   5.356   5.767   1.324 -0.2873  0.0726 -0.5099
 7007TIP3    H142512   5.408   5.706   1.271 -0.8172 -1.3042  0.5255
 7007TIP3    H242513   5.277   5.781   1.272 -1.8668 -3.0783  0.8033
 7008TIP3   OH242514   0.486   0.000   2.664 -0.8356 -0.2624 -0.4059
 7008TIP3    H142515   0.478  -0.085   2.706  3.2091 -1.6112 -1.8894
 7008TIP3    H242516   0.436  -0.009   2.582 -1.1381 -0.8775 -0.1606
 7009TIP3   OH242517   4.111   6.039   2.198  0.4241  0.5812  0.0016
 7009TIP3    H142518   4.199   6.015   2.168  0.6040 -0.1304  1.0688
 7009TIP3    H242519   4.085   6.110   2.139  1.2294  0.0082 -1.0863
 7010TIP3   OH242520   5.080   2.933  15.165  0.9096  0.1375 -0.1558
 7010TIP3    H142521   5.171   2.960  15.159  0.7981  0.4657 -0.3850
 7010TIP3    H242522   5.083   2.838  15.154  1.1982  0.1763 -0.4235
 7011TIP3   OH242523   5.880   3.817   0.455 -0.0732 -0.5129 -0.3377
 7011TIP3    H142524   5.955   3.812   0.514  1.2162 -0.5049 -1.9215
 7011TIP3    H242525   5.805   3.797   0.511  1.0160  0.0352  1.4165
 7012TIP3   OH242526   0.858   2.766   4.139 -0.7208 -0.1489 -0.3005
 7012TIP3    H142527   0.866   2.693   4.201  1.1402  0.8119  0.6906
 7012TIP3    H242528   0.920   2.832   4.172 -0.1775  0.6935 -2.8141
 7013TIP3   OH242529   2.579   3.658  16.981  0.8553  0.1852  0.2764
 7013TIP3    H142530   2.629   3.630  16.904  1.3557  0.1130  0.6226
 7013TIP3    H242531   2.508   3.711  16.945  0.7886 -0.2595 -0.2713
 7014TIP3   OH242532   5.692   1.766   2.968 -0.4439  0.2192  0.1684
 7014TIP3    H142533   5.758   1.835   2.981  1.3556 -0.8584 -2.3726
 7014TIP3    H242534   5.705   1.706   3.040  3.0574 -1.1178 -1.3762
 7015TIP3   OH242535   5.007   6.461  13.371 -0.0628 -0.3454  0.4598
 7015TIP3    H142536   5.069   6.534  13.365 -0.0554 -0.4050 -0.2375
 7015TIP3    H242537   5.014   6.417  13.287  0.1893 -1.3696  1.0023
 7016TIP3   OH242538   1.313   4.191  15.374 -0.2012 -0.6654  0.3345
 7016TIP3    H142539   1.270   4.166  15.293 -1.5286 -2.4280  1.5165
 7016TIP3    H242540   1.323   4.109  15.423 -0.6149  0.4941  2.4964
 7017TIP3   OH242541   2.487   1.819   5.774 -0.4668 -0.8144 -0.0128
 7017TIP3    H142542   2.570   1.864   5.759 -0.1873 -0.9797  0.9367
 7017TIP3    H242543   2.427   1.856   5.709  0.0781  0.0464 -0.0464
 7018TIP3   OH242544   4.895   6.139   0.245 -0.0886 -0.4606 -0.2471
 7018TIP3    H142545   4.804   6.114   0.257 -1.0191  2.2545 -0.9111
 7018TIP3    H242546   4.913   6.202   0.315  1.4334 -1.2755  0.1413
 7019TIP3   OH242547   2.628   2.304   3.806 -0.4906  0.4824 -0.1140
 7019TIP3    H142548   2.576   2.229   3.779 -1.1451  0.0069  2.2278
 7019TIP3    H242549   2.703   2.266   3.852  0.0303  1.2453 -0.3123
 7020TIP3   OH242550   6.529   0.699   5.279  0.4724  0.1713 -0.0675
 7020TIP3    H142551   6.434   0.694   5.291  0.4778  1.0334  0.4342
 7020TIP3    H242552   6.564   0.633   5.339  0.2042  0.0358 -0.0570
 7021TIP3   OH242553   2.142   1.376   3.564 -0.4106  0.1158  0.1043
 7021TIP3    H142554   2.202   1.362   3.491 -1.3932  1.3976 -1.0255
 7021TIP3    H242555   2.127   1.289   3.600  2.1754 -0.2443  0.5270
 7022TIP3   OH242556   5.788   1.390   5.587 -0.3853  0.5143 -0.0932
 7022TIP3    H142557   5.752   1.475   5.561 -1.6950 -0.3286 -1.2048
 7022TIP3    H242558   5.715   1.329   5.576  0.2763 -0.6211  1.5448
 7023TIP3   OH242559   3.111   2.948  16.934 -0.4165  0.1321 -0.2022
 7023TIP3    H142560   3.135   3.005  17.007  0.7844  3.5662 -2.9969
 7023TIP3    H242561   3.015   2.942  16.940 -0.5815  2.3156  0.3930
 7024TIP3   OH242562   3.679   5.989   1.976  0.1160  0.5861  0.3524
 7024TIP3    H142563   3.715   5.997   1.887  1.6351 -2.4547  0.5569
 7024TIP3    H242564   3.586   6.010   1.966  0.4523  1.3845 -1.7204
 7025TIP3   OH242565   3.636   2.301   1.541 -0.3492  0.3980 -0.1920
 7025TIP3    H142566   3.585   2.360   1.486 -0.1003  1.0599  0.2849
 7025TIP3    H242567   3.578   2.280   1.614 -0.5758 -0.2566 -0.5497
 7026TIP3   OH242568   1.617   0.479   1.223 -0.0274 -0.1992 -0.2232
 7026TIP3    H142569   1.668   0.511   1.148  0.8766 -2.8473 -0.8452
 7026TIP3    H242570   1.558   0.551   1.244  1.2875  1.5163 -1.9842
 7027TIP3   OH242571   3.093   2.664   0.599  0.0513 -0.0148 -0.2952
 7027TIP3    H142572   3.016   2.630   0.551  0.1386 -1.1929  0.3499
 7027TIP3    H242573   3.056   2.723   0.664 -0.3306 -0.6119  0.0435
 7028TIP3   OH242574   6.669   4.733   6.210  0.5911 -0.0529 -0.0366
 7028TIP3    H142575   6.694   4.747   6.119 -1.6308  1.2059 -0.5268
 7028TIP3    H242576   6.752   4.730   6.257  1.7887 -0.6322 -2.0627
 7029TIP3   OH242577   2.458   2.507  15.753 -0.1293 -0.1199 -0.7163
 7029TIP3    H142578   2.460   2.531  15.661  0.2945  0.6957 -0.5023
 7029TIP3    H242579   2.489   2.584  15.799  1.5720 -1.1791 -0.0022
 7030TIP3   OH242580   3.513   3.500  16.542  0.2196 -0.0046 -0.0218
 7030TIP3    H142581   3.543   3.542  16.622 -0.8931  2.7643 -0.9583
 7030TIP3    H242582   3.422   3.474  16.561  0.3758 -0.5608  0.0021
 7031TIP3   OH242583   4.841   6.732  15.261  0.1020  0.6094 -0.2182
 7031TIP3    H142584   4.790   6.793  15.314 -1.3146  0.1473 -0.9768
 7031TIP3    H242585   4.775   6.681  15.214  1.2545 -1.1294 -0.0414
 7032TIP3   OH242586   5.131   1.797  13.871 -0.4531  0.5183 -0.7184
 7032TIP3    H142587   5.116   1.767  13.781 -2.1467  0.7931 -0.5596
 7032TIP3    H242588   5.225   1.808  13.877 -0.2863  0.2622 -2.3941
 7033TIP3   OH242589   5.867   3.668  16.086  0.1374 -0.8180  0.3185
 7033TIP3    H142590   5.920   3.654  16.008 -0.6583 -0.1100 -0.3642
 7033TIP3    H242591   5.780   3.689  16.053  0.0087  0.4234  1.3528
 7034TIP3   OH242592   5.788   4.484   1.181  0.1760 -0.7311 -1.0351
 7034TIP3    H142593   5.723   4.541   1.142 -0.8231 -0.0506  1.4369
 7034TIP3    H242594   5.861   4.485   1.119 -0.7567  1.3234 -2.2018
 7035TIP3   OH242595   2.002   4.767   2.404  0.7489 -0.5814  0.5988
 7035TIP3    H142596   2.091   4.785   2.371  1.1037 -0.8417  1.3804
 7035TIP3    H242597   1.944   4.797   2.334  1.4207  0.6713  0.5527
 7036TIP3   OH242598   1.639   0.718  13.888  0.3569 -0.0486 -0.1673
 7036TIP3    H142599   1.701   0.787  13.910  0.0797 -0.2991  1.4976
 7036TIP3    H242600   1.599   0.693  13.971 -0.4230 -1.3856 -0.8971
 7037TIP3   OH242601   3.941   2.121   3.206 -0.5041 -0.1507  0.2071
 7037TIP3    H142602   3.954   2.070   3.126 -1.9295 -0.4035  0.1161
 7037TIP3    H242603   4.005   2.086   3.268 -0.4718 -1.0410 -0.3183
 7038TIP3   OH242604   6.502   4.485   2.070 -0.0336  0.0910  0.3810
 7038TIP3    H142605   6.430   4.424   2.055 -0.2201  0.4135 -0.0280
 7038TIP3    H242606   6.493   4.551   2.002 -0.2045  0.9350  1.2069
 7039TIP3   OH242607   4.801   1.132  14.196 -0.0235 -0.6206 -0.0515
 7039TIP3    H142608   4.791   1.055  14.140 -0.1190  0.6416 -1.8778
 7039TIP3    H242609   4.881   1.174  14.165 -1.5830  1.6628 -1.3030
 7040TIP3   OH242610   0.217   0.417  17.520  0.3271  0.8614 -0.0019
 7040TIP3    H142611   0.174   0.486  17.470 -0.0210  0.5034 -0.1986
 7040TIP3    H242612   0.222   0.451  17.610  1.8360  1.9310 -0.4363
 7041TIP3   OH242613   1.915   1.182  15.442  0.0889  0.0871  0.3130
 7041TIP3    H142614   1.927   1.090  15.468 -0.1796  0.1478  0.6572
 7041TIP3    H242615   2.001   1.222  15.458 -0.1961  0.2346  1.5812
 7042TIP3   OH242616   2.010   6.320   1.906 -0.1530  0.0100  0.1608
 7042TIP3    H142617   2.067   6.396   1.900 -2.9163  2.1318 -4.2798
 7042TIP3    H242618   1.954   6.337   1.982  0.7022  1.2785  0.5300
 7043TIP3   OH242619   2.828   5.957  13.410  0.0828  0.5193  0.3736
 7043TIP3    H142620   2.855   5.992  13.325 -0.5328 -1.2965 -0.6282
 7043TIP3    H242621   2.799   6.034  13.460 -1.2264  1.4624 -1.7059
 7044TIP3   OH242622   3.798   1.677   5.333 -0.2851 -0.3685 -0.3173
 7044TIP3    H142623   3.836   1.728   5.404  1.1766 -1.1844 -0.4688
 7044TIP3    H242624   3.704   1.693   5.339  0.1307  3.0595 -0.9584
 7045TIP3   OH242625   3.572   4.640  14.156 -0.5486  0.4720  0.2252
 7045TIP3    H142626   3.527   4.584  14.093  2.2804  0.7313 -2.2555
 7045TIP3    H242627   3.528   4.725  14.149 -1.8880 -0.1773  0.5348
 7046TIP3   OH242628   0.320   4.180  12.766 -0.1045 -0.9949  0.0642
 7046TIP3    H142629   0.323   4.157  12.859  1.1008 -0.1459  0.2533
 7046TIP3    H242630   0.379   4.255  12.758  0.0257 -1.2343 -1.4404
 7047TIP3   OH242631   3.724   1.561  11.854  0.7462  0.5045  0.2833
 7047TIP3    H142632   3.660   1.565  11.783  0.4475 -2.4160  0.2600
 7047TIP3    H242633   3.793   1.622  11.828 -1.0883  2.3049 -0.6176
 7048TIP3   OH242634   0.261   5.340  13.684 -0.5109 -0.3632 -0.1221
 7048TIP3    H142635   0.318   5.325  13.609 -0.3576 -2.9348  0.4077
 7048TIP3    H242636   0.205   5.413  13.658  2.0738  1.4004 -1.1860
 7049TIP3   OH242637   5.881   6.360  15.112 -0.0508  0.1292 -0.0504
 7049TIP3    H142638   5.966   6.361  15.156 -0.5519 -0.7731  0.9759
 7049TIP3    H242639   5.892   6.420  15.038  0.4549  2.5736  1.9073
 7050TIP3   OH242640   1.901   6.374  16.484  0.0802 -0.2684  0.1008
 7050TIP3    H142641   1.848   6.356  16.561 -0.4466 -1.5232 -0.5228
 7050TIP3    H242642   1.855   6.330  16.412  1.9623 -1.4499 -0.4564
 7051TIP3   OH242643   0.664   5.248  17.460 -0.4075 -0.4216  0.2338
 7051TIP3    H142644   0.719   5.220  17.533  0.8987  1.5792  0.0704
 7051TIP3    H242645   0.701   5.202  17.384 -0.5994 -1.0505  0.5087
 7052TIP3   OH242646   2.519   5.621  13.439 -0.0040  0.0242 -0.1251
 7052TIP3    H142647   2.545   5.691  13.498 -2.9971  2.8625 -1.7993
 7052TIP3    H242648   2.437   5.588  13.476 -0.0945 -0.6018 -0.8593
 7053TIP3   OH242649   4.581   4.759   2.065 -0.0842 -0.4789  0.2324
 7053TIP3    H142650   4.574   4.665   2.085 -0.6349 -0.6611 -0.7293
 7053TIP3    H242651   4.610   4.762   1.974 -1.5994  0.2432 -0.2693
 7054TIP3   OH242652   5.952   6.659   5.097 -0.3166 -0.3133  0.5550
 7054TIP3    H142653   5.858   6.672   5.080 -0.0841 -0.5595 -1.0973
 7054TIP3    H242654   5.956   6.631   5.188 -1.8215  0.0481  0.7642
 7055TIP3   OH242655   0.523   0.048   6.021  0.6747 -0.1926 -0.2937
 7055TIP3    H142656   0.597   0.076   5.967  0.1913  1.2194 -0.2893
 7055TIP3    H242657   0.557  -0.024   6.074  1.6093 -0.5482 -1.3386
 7056TIP3   OH242658   5.056   5.329  16.610  0.3466  0.3834 -0.3527
 7056TIP3    H142659   5.103   5.246  16.605 -0.1724 -0.0177  1.0150
 7056TIP3    H242660   5.027   5.335  16.701 -3.2004  0.0696 -1.3205
 7057TIP3   OH242661   0.975   2.562  14.150 -0.7826  0.7500  0.0628
 7057TIP3    H142662   0.948   2.573  14.058 -0.2559  2.5204  0.0839
 7057TIP3    H242663   1.047   2.499  14.146 -0.9622  0.5750 -0.6944
 7058TIP3   OH242664   5.128   6.595  13.999  0.3223  0.3388 -0.2730
 7058TIP3    H142665   5.147   6.685  13.971 -3.0217  1.4983  0.6595
 7058TIP3    H242666   5.104   6.603  14.091 -1.3988 -1.2353 -0.5217
 7059TIP3   OH242667   6.066   3.285   0.448  0.3336 -0.2758  0.0301
 7059TIP3    H142668   6.150   3.315   0.484 -0.0312  3.5755 -1.8314
 7059TIP3    H242669   6.079   3.282   0.354 -1.5912  0.6016 -0.3256
 7060TIP3   OH242670   4.021   1.387  14.627 -0.7243 -0.1221  0.1769
 7060TIP3    H142671   3.987   1.369  14.715  0.5597  0.2005  0.7600
 7060TIP3    H242672   3.943   1.395  14.572 -1.5639  0.1006  1.3739
 7061TIP3   OH242673   0.579   5.091  11.091 -0.4480  0.1959  0.3350
 7061TIP3    H142674   0.581   5.015  11.033 -1.6229  0.6023 -0.2542
 7061TIP3    H242675   0.594   5.166  11.033 -1.0822  0.5621  0.6382
 7062TIP3   OH242676   4.914   3.094   1.646 -0.2168 -0.1653 -0.1420
 7062TIP3    H142677   4.855   3.164   1.618 -1.2493 -0.7861  0.4310
 7062TIP3    H242678   5.000   3.135   1.648 -0.5419  0.6462 -1.4302
 7063TIP3   OH242679   1.184   2.031  14.454  0.5082  0.1421 -0.1206
 7063TIP3    H142680   1.134   2.084  14.391 -0.2208  1.0693  1.1829
 7063TIP3    H242681   1.117   1.988  14.508  1.1085 -1.0979 -0.3149
 7064TIP3   OH242682   0.218   4.788   4.070 -0.6118  0.0207  0.3194
 7064TIP3    H142683   0.210   4.784   3.975  1.6731 -2.9312  0.0994
 7064TIP3    H242684   0.137   4.749   4.103 -0.3253 -1.3454 -0.5345
 7065TIP3   OH242685   5.187   0.152  15.994  0.4922 -0.0638 -0.5975
 7065TIP3    H142686   5.141   0.087  15.942 -0.7280 -0.9558  1.5021
 7065TIP3    H242687   5.274   0.158  15.953 -0.4294 -0.6034 -2.7688
 7066TIP3   OH242688   3.303   4.729  13.055 -0.2253 -0.5288 -1.2088
 7066TIP3    H142689   3.362   4.792  13.013  2.3942 -1.9808  0.0348
 7066TIP3    H242690   3.338   4.643  13.030 -1.1471 -1.4525  0.4689
 7067TIP3   OH242691   3.687   5.859   5.088  0.1604  0.2723 -0.1392
 7067TIP3    H142692   3.658   5.933   5.035  0.4726 -0.7839 -1.8688
 7067TIP3    H242693   3.608   5.826   5.129 -0.3697  0.1839 -1.1978
 7068TIP3   OH242694   1.279   6.188  12.366 -0.7873  0.2170 -0.1738
 7068TIP3    H142695   1.298   6.151  12.280  0.7534 -0.3438  0.3726
 7068TIP3    H242696   1.273   6.112  12.424  0.7484  0.6936  0.6589
 7069TIP3   OH242697   1.848   6.275  15.231  0.7975  0.1876 -0.5475
 7069TIP3    H142698   1.817   6.289  15.320 -0.9504  2.5411 -1.4107
 7069TIP3    H242699   1.852   6.180  15.221 -0.7249 -0.1518  1.4661
 7070TIP3   OH242700   2.299   4.967  17.285  0.0369  0.1296 -0.2694
 7070TIP3    H142701   2.294   4.983  17.190 -2.3865  3.6208  0.2638
 7070TIP3    H242702   2.229   4.903  17.301 -1.4872  1.6467 -0.5893
 7071TIP3   OH242703   5.559   2.989  15.067  0.0800  0.1932 -0.2362
 7071TIP3    H142704   5.602   3.014  15.149  1.0600 -1.4172 -0.2033
 7071TIP3    H242705   5.523   3.070  15.032  0.5821  1.0908  1.2521
 7072TIP3   OH242706   2.805   5.760  16.855 -0.3923 -0.1323  1.0895
 7072TIP3    H142707   2.808   5.840  16.802 -0.4021  0.9061  2.6056
 7072TIP3    H242708   2.879   5.708  16.824 -0.0373  0.7157  0.4740
 7073TIP3   OH242709   3.691   1.481   5.092 -0.0435 -0.4371  0.4585
 7073TIP3    H142710   3.769   1.442   5.132  0.9723 -1.1869 -2.0438
 7073TIP3    H242711   3.706   1.575   5.098  0.2434 -0.5321  1.4407
 7074TIP3   OH242712   2.684   2.950   1.003 -0.3326 -0.2687  0.2080
 7074TIP3    H142713   2.772   2.959   0.966  0.2934 -0.7018  1.5491
 7074TIP3    H242714   2.688   2.870   1.056 -1.8141 -0.8142 -0.4481
 7075TIP3   OH242715   0.375   4.228  17.252  0.4219  0.5835  0.0308
 7075TIP3    H142716   0.284   4.217  17.222  1.0590 -1.4949 -1.3354
 7075TIP3    H242717   0.405   4.308  17.207 -0.5465  0.9801  0.0603
 7076TIP3   OH242718   6.195   0.684  15.649 -0.3224  0.0281  0.2070
 7076TIP3    H142719   6.126   0.619  15.657 -1.8368  1.7617  2.5591
 7076TIP3    H242720   6.163   0.760  15.699  1.6990  2.2891 -1.6866
 7077TIP3   OH242721   4.973   5.777   3.435 -0.5134  0.3462  0.1938
 7077TIP3    H142722   5.057   5.732   3.438 -0.1937  0.9238 -0.0520
 7077TIP3    H242723   4.928   5.741   3.359 -0.7287 -0.3739  0.6503
 7078TIP3   OH242724   6.194   5.275   0.247  0.1473  0.3308 -0.3336
 7078TIP3    H142725   6.240   5.358   0.232  0.0283  0.3828 -0.4171
 7078TIP3    H242726   6.108   5.288   0.206 -0.0183  0.3117 -0.0023
 7079TIP3   OH242727   2.593   3.693   2.921  0.0221 -0.5011  0.3933
 7079TIP3    H142728   2.537   3.632   2.968  0.3799  0.2855  1.8929
 7079TIP3    H242729   2.679   3.684   2.962  0.3080  0.3461  0.0139
 7080TIP3   OH242730   2.726   4.789   4.008  0.0513 -0.2339  0.0895
 7080TIP3    H142731   2.635   4.811   3.991 -0.6483 -2.0146  1.2313
 7080TIP3    H242732   2.767   4.873   4.030 -1.5989  0.4592  0.7277
 7081TIP3   OH242733   4.059   4.281  12.053 -0.3149  0.1956 -0.1228
 7081TIP3    H142734   3.964   4.266  12.047 -0.2604  0.2443 -1.3594
 7081TIP3    H242735   4.072   4.368  12.014  0.3829 -0.4011 -1.2822
 7082TIP3   OH242736   3.544   3.633  15.882 -0.3553 -0.3401  0.0872
 7082TIP3    H142737   3.601   3.698  15.923 -0.3925 -0.2134 -0.0624
 7082TIP3    H242738   3.494   3.682  15.818  0.2442 -0.6679 -0.6514
 7083TIP3   OH242739   5.303   0.415   1.634  0.4987  0.0047  0.1925
 7083TIP3    H142740   5.261   0.371   1.708  0.1762  0.6307  0.3909
 7083TIP3    H242741   5.347   0.490   1.673 -0.7804  1.1012 -0.3932
 7084TIP3   OH242742   1.163   0.281   2.010 -0.2707  0.0391  0.6992
 7084TIP3    H142743   1.067   0.278   2.007 -0.2566 -0.0092 -0.4675
 7084TIP3    H242744   1.190   0.236   1.929  0.7278  0.3149  0.8682
 7085TIP3   OH242745   6.187   3.782  13.456 -0.0092 -0.0333  0.7446
 7085TIP3    H142746   6.094   3.799  13.467 -0.5434 -1.6365 -0.8625
 7085TIP3    H242747   6.201   3.781  13.362  1.7304  0.5468  0.9607
 7086TIP3   OH242748   2.991   1.897  15.001 -0.0628 -0.5878 -0.3799
 7086TIP3    H142749   3.007   1.888  15.095 -1.5958 -1.2525 -0.1445
 7086TIP3    H242750   2.970   1.989  14.988  0.6875 -0.3856 -0.1629
 7087TIP3   OH242751   3.624   0.215   6.277  0.4143  0.0490  0.3526
 7087TIP3    H142752   3.693   0.198   6.341 -0.9557 -1.4817  1.4562
 7087TIP3    H242753   3.551   0.250   6.328  0.1726  1.2711 -0.7573
 7088TIP3   OH242754   4.374   5.635   5.180  0.2813 -0.2437  0.5592
 7088TIP3    H142755   4.290   5.590   5.172 -0.5001  1.2741 -0.3470
 7088TIP3    H242756   4.432   5.589   5.119 -0.8670  0.6931 -1.3466
 7089TIP3   OH242757   5.036   1.387  16.103 -0.6768 -0.1357  0.3902
 7089TIP3    H142758   5.079   1.317  16.152  0.0745 -1.1072 -1.5444
 7089TIP3    H242759   4.975   1.342  16.045 -3.0036  1.1066  1.7044
 7090TIP3   OH242760   1.237   5.752   2.012 -0.5160 -0.1174  0.1414
 7090TIP3    H142761   1.184   5.807   2.070 -0.0570  3.5025 -2.5204
 7090TIP3    H242762   1.198   5.765   1.926  2.6182 -0.0608 -1.3738
 7091TIP3   OH242763   4.402   3.213   1.660  0.0328  0.7648 -0.8264
 7091TIP3    H142764   4.364   3.157   1.728  0.5159  1.4977  0.0707
 7091TIP3    H242765   4.456   3.154   1.608 -0.8353  0.0700 -0.9669
 7092TIP3   OH242766   4.034   5.296   1.022  0.0570  0.1740  0.1282
 7092TIP3    H142767   4.042   5.241   0.944  1.0867  0.1268  0.2475
 7092TIP3    H242768   4.110   5.273   1.075  1.4572  2.8308 -0.5471
 7093TIP3   OH242769   4.167   1.077  11.280 -0.0723 -0.1858 -0.4142
 7093TIP3    H142770   4.168   1.153  11.221  0.0834 -0.1719 -0.3946
 7093TIP3    H242771   4.088   1.028  11.255 -0.5046  0.2954 -0.0300
 7094TIP3   OH242772   0.299   0.289  14.956  0.4105 -0.3211  0.0571
 7094TIP3    H142773   0.245   0.327  14.887 -0.1797  0.4578  0.9231
 7094TIP3    H242774   0.268   0.331  15.037  2.0496 -0.1212  0.6303
 7095TIP3   OH242775   5.217   2.513   1.063 -0.6049 -0.3574 -0.0724
 7095TIP3    H142776   5.273   2.497   0.987  3.2609  0.2075  2.3810
 7095TIP3    H242777   5.171   2.430   1.077  1.0282 -1.5065 -1.1867
 7096TIP3   OH242778   0.319   1.039  15.418 -0.4416 -0.0155 -0.4220
 7096TIP3    H142779   0.322   1.110  15.481 -0.6765  0.2978 -0.7569
 7096TIP3    H242780   0.296   0.961  15.469  1.2797 -0.1529  0.1915
 7097TIP3   OH242781   4.161   4.401  14.783  0.1495 -0.2728 -0.1494
 7097TIP3    H142782   4.188   4.362  14.700  0.2804 -3.0854  1.1084
 7097TIP3    H242783   4.077   4.360  14.802  0.3982 -0.1247  1.3752
 7098TIP3   OH242784   1.766   0.426   1.466 -0.1728 -0.1715  0.2719
 7098TIP3    H142785   1.692   0.433   1.405 -2.1071 -1.5342  2.2945
 7098TIP3    H242786   1.753   0.342   1.509  2.4965 -0.3468  0.8665
 7099TIP3   OH242787   2.260   6.466   0.670  0.1909 -0.5452  0.1211
 7099TIP3    H142788   2.249   6.382   0.715 -0.3311 -0.3539  0.3558
 7099TIP3    H242789   2.232   6.450   0.580  0.5345 -0.7413  0.0488
 7100TIP3   OH242790   4.340   6.699  17.378  0.1508  0.3666 -0.6981
 7100TIP3    H142791   4.292   6.781  17.374 -1.5958 -0.5726 -0.3395
 7100TIP3    H242792   4.395   6.698  17.300  0.7302  2.1486 -0.3531
 7101TIP3   OH242793   4.143   6.069   1.796 -0.0956  0.1441 -0.9558
 7101TIP3    H142794   4.145   6.126   1.720 -0.4228  0.7870 -0.4908
 7101TIP3    H242795   4.229   6.027   1.797  0.0703  0.4665 -1.4188
 7102TIP3   OH242796   0.656   5.996   6.063 -0.3939 -0.3791  0.2811
 7102TIP3    H142797   0.668   5.967   6.153 -0.0079 -0.8034  0.0951
 7102TIP3    H242798   0.594   6.069   6.070 -0.0377 -0.1217  0.9348
 7103TIP3   OH242799   3.474   2.737  12.696 -0.4401 -0.9337 -0.2743
 7103TIP3    H142800   3.398   2.788  12.723 -0.0615 -0.5043  0.0050
 7103TIP3    H242801   3.473   2.742  12.600 -0.5464 -0.6048 -0.2583
 7104TIP3   OH242802   2.645   1.455  14.408 -0.1143  0.3840 -0.7416
 7104TIP3    H142803   2.711   1.462  14.477 -2.2815 -1.6489  1.7668
 7104TIP3    H242804   2.565   1.490  14.446 -1.1530  0.3432 -2.7177
 7105TIP3   OH242805   1.208   6.270   5.578  0.2124  0.1284 -0.4174
 7105TIP3    H142806   1.130   6.236   5.621 -2.1780  2.4052 -2.5805
 7105TIP3    H242807   1.201   6.365   5.590  0.7610  0.6485 -3.5054
 7106TIP3   OH242808   2.207   1.173  16.307  0.0342 -0.1576 -0.2662
 7106TIP3    H142809   2.120   1.163  16.267 -0.9617  0.3202  1.6594
 7106TIP3    H242810   2.243   1.085  16.309 -0.7084 -0.4765 -0.4254
 7107TIP3   OH242811   3.911   0.479   1.036 -0.2353  0.3290  0.0016
 7107TIP3    H142812   3.817   0.469   1.026 -0.3198 -1.1027  1.7227
 7107TIP3    H242813   3.923   0.515   1.124  0.8314 -0.8502  0.3855
 7108TIP3   OH242814   0.805   4.233   1.176  0.1706 -0.0186  0.3102
 7108TIP3    H142815   0.850   4.317   1.179  0.8670 -0.3518 -0.2921
 7108TIP3    H242816   0.843   4.188   1.100 -2.4049  0.3720 -1.3595
 7109TIP3   OH242817   2.259   2.412  12.672 -0.4795 -0.1195  0.0731
 7109TIP3    H142818   2.190   2.401  12.738  1.3898 -0.7326  2.0333
 7109TIP3    H242819   2.329   2.459  12.718  0.2840  0.8775 -1.9732
 7110TIP3   OH242820   6.694   1.951   4.847  0.1239 -0.0676 -0.5614
 7110TIP3    H142821   6.682   1.875   4.904  0.1464 -0.4006 -0.9950
 7110TIP3    H242822   6.609   1.963   4.806  0.3692 -0.4202 -1.1784
 7111TIP3   OH242823   0.156   1.233  13.997  0.0929 -0.1718 -0.1107
 7111TIP3    H142824   0.200   1.175  14.059  3.1895  1.4786 -0.5533
 7111TIP3    H242825   0.222   1.251  13.930 -1.0162  2.9983 -0.5322
 7112TIP3   OH242826   2.438   2.161  12.571 -0.8454 -0.1472  0.0992
 7112TIP3    H142827   2.348   2.129  12.568 -1.4798  1.5182  0.0203
 7112TIP3    H242828   2.429   2.255  12.588  0.8982 -0.0233  0.5057
 7113TIP3   OH242829   1.626   0.286  10.781  1.3359 -0.0790  0.0761
 7113TIP3    H142830   1.646   0.217  10.718  0.8869 -0.6738  0.5675
 7113TIP3    H242831   1.706   0.338  10.787  1.3294  0.0821 -1.0976
 7114TIP3   OH242832   4.297   2.317   3.319  0.5785  0.6024  0.2302
 7114TIP3    H142833   4.295   2.233   3.272  1.2416 -0.0818  1.3816
 7114TIP3    H242834   4.240   2.303   3.394  2.2255  0.4977  1.5028
 7115TIP3   OH242835   1.970   0.819   4.789  0.3945  0.1321 -0.1366
 7115TIP3    H142836   1.947   0.857   4.873 -0.6762 -0.4258 -0.1618
 7115TIP3    H242837   1.893   0.832   4.734  0.0778 -1.7488 -0.2285
 7116TIP3   OH242838   0.301   2.149   4.777  0.1764 -0.2553 -0.6750
 7116TIP3    H142839   0.270   2.073   4.728  0.1803 -1.4466  1.0782
 7116TIP3    H242840   0.276   2.131   4.868  0.0472  1.9241 -0.2194
 7117TIP3   OH242841   4.535   0.314  15.485  0.8644  0.2244  0.1329
 7117TIP3    H142842   4.510   0.294  15.575 -0.3086 -0.1309 -0.2560
 7117TIP3    H242843   4.492   0.398  15.466 -0.7827 -0.7643 -0.7959
 7118TIP3   OH242844   3.138   1.528   6.379 -0.5097  0.3934 -0.2719
 7118TIP3    H142845   3.137   1.440   6.418  0.5178  1.3464  2.1715
 7118TIP3    H242846   3.046   1.551   6.369 -0.8080 -0.4345  0.4036
 7119TIP3   OH242847   0.858   0.748   2.884  0.5081 -0.0051 -0.1056
 7119TIP3    H142848   0.872   0.840   2.906  0.1113 -0.0530  0.3494
 7119TIP3    H242849   0.921   0.700   2.939 -2.7912 -0.4168  3.7618
 7120TIP3   OH242850   1.171   6.512   4.690 -0.4546 -0.8543 -0.0965
 7120TIP3    H142851   1.238   6.513   4.622 -1.4693  0.5406 -1.1261
 7120TIP3    H242852   1.108   6.446   4.660  0.5034 -2.3218  0.9784
 7121TIP3   OH242853   3.198   4.010   1.186 -0.6282 -0.0602 -0.6791
 7121TIP3    H142854   3.154   3.927   1.170 -0.5545 -0.1886 -0.2293
 7121TIP3    H242855   3.164   4.040   1.270 -2.1927  1.3704 -1.7537
 7122TIP3   OH242856   4.431   6.251   2.604  0.7004  0.2254 -0.4042
 7122TIP3    H142857   4.439   6.201   2.685  0.2425 -0.0557 -0.5262
 7122TIP3    H242858   4.354   6.307   2.618  0.2793 -0.2251 -0.8432
 7123TIP3   OH242859   1.002   4.611  16.531 -0.0126  0.6961 -0.0520
 7123TIP3    H142860   0.970   4.696  16.503 -0.3670  0.7367  0.4512
 7123TIP3    H242861   1.034   4.626  16.620 -0.8250  0.1401  0.3471
 7124TIP3   OH242862   0.101   5.230  11.593  0.0806 -0.2016  0.6424
 7124TIP3    H142863   0.192   5.228  11.624  0.3113 -2.0946 -0.0170
 7124TIP3    H242864   0.055   5.284  11.657  1.4743 -0.0480  1.5551
 7125TIP3   OH242865   4.561   4.989   4.962  0.5052  0.5471  0.4352
 7125TIP3    H142866   4.582   4.916   4.904  0.6508  1.9737 -1.4370
 7125TIP3    H242867   4.468   5.006   4.947  0.1909  0.0615  1.7204
 7126TIP3   OH242868   0.870   2.636   4.391 -0.3077  0.2287  0.3400
 7126TIP3    H142869   0.870   2.691   4.469 -1.6446  0.6815  0.0352
 7126TIP3    H242870   0.963   2.613   4.379  0.5649  3.5007 -0.2822
 7127TIP3   OH242871   2.633   3.436   2.643  0.1906  0.5343 -0.5453
 7127TIP3    H142872   2.671   3.373   2.582  0.1131 -0.6886  0.6287
 7127TIP3    H242873   2.701   3.449   2.709 -1.0797 -1.1390  1.1948
 7128TIP3   OH242874   1.099   1.333   3.889  0.3376  0.2558 -0.1673
 7128TIP3    H142875   1.033   1.402   3.897 -1.3952 -1.3181 -0.2290
 7128TIP3    H242876   1.181   1.375   3.915 -0.7403  2.1746  0.3259
 7129TIP3   OH242877   0.280   4.612   4.388 -0.1610  0.0873  0.3188
 7129TIP3    H142878   0.227   4.533   4.377 -1.0430  0.5639  1.0072
 7129TIP3    H242879   0.283   4.652   4.301 -1.1665  0.1899  0.3215
 7130TIP3   OH242880   1.317   3.889  11.253  0.0032 -0.4348 -0.3107
 7130TIP3    H142881   1.341   3.943  11.178 -1.1200 -1.2742 -1.3037
 7130TIP3    H242882   1.273   3.813  11.215 -1.8305 -0.2301  1.2579
 7131TIP3   OH242883   0.544   2.332  14.563  0.8403  0.1570  0.0637
 7131TIP3    H142884   0.455   2.308  14.588  1.3026  0.4095  2.1236
 7131TIP3    H242885   0.545   2.325  14.467 -1.2562 -0.2451  0.0291
 7132TIP3   OH242886   4.694   2.341   5.975 -0.1147  0.0895 -0.5962
 7132TIP3    H142887   4.681   2.434   5.956  0.3389 -0.1771 -2.4262
 7132TIP3    H242888   4.607   2.302   5.965  0.1397 -0.0817 -2.6529
 7133TIP3   OH242889   4.218   2.582   2.736 -0.6830  0.8225  0.4962
 7133TIP3    H142890   4.148   2.590   2.801 -2.0046 -0.7434 -0.6493
 7133TIP3    H242891   4.237   2.488   2.732  1.0473  1.1507  0.3049
 7134TIP3   OH242892   6.230   4.937  13.983  0.6080  0.1086 -0.0201
 7134TIP3    H142893   6.313   4.927  13.935  0.7475  2.8432 -0.5282
 7134TIP3    H242894   6.193   5.019  13.949 -2.8296 -1.4713 -0.5260
 7135TIP3   OH242895   2.022   1.569  14.033 -0.6085  0.0090 -0.4734
 7135TIP3    H142896   1.947   1.629  14.036 -0.9385 -0.3206 -1.7705
 7135TIP3    H242897   2.091   1.615  14.081 -1.2178  0.9084 -0.4385
 7136TIP3   OH242898   2.710   0.754   3.229 -0.0842 -0.6634  0.5592
 7136TIP3    H142899   2.679   0.768   3.140  0.1404 -0.7342  0.4670
 7136TIP3    H242900   2.795   0.711   3.218  0.1136 -0.3386  0.7986
 7137TIP3   OH242901   6.217   4.826  14.347 -0.3905 -0.0849  0.4034
 7137TIP3    H142902   6.297   4.875  14.369 -0.9068  1.8712 -1.7039
 7137TIP3    H242903   6.248   4.737  14.330  0.9223 -0.0149  2.1420
 7138TIP3   OH242904   1.415   5.644   1.672  0.1577  0.4273 -0.4705
 7138TIP3    H142905   1.375   5.659   1.587 -2.9980 -1.3292  0.5137
 7138TIP3    H242906   1.493   5.592   1.653 -2.0485 -2.5691 -2.2809
 7139TIP3   OH242907   4.678   6.251   1.272 -0.2968  0.3563  0.4277
 7139TIP3    H142908   4.700   6.265   1.180  1.7060  0.6616  0.9056
 7139TIP3    H242909   4.760   6.223   1.313 -1.1839  0.0143  2.0892
 7140TIP3   OH242910   3.187   2.926  13.827 -0.2673 -0.4278  0.0556
 7140TIP3    H142911   3.192   2.904  13.734  0.0147  0.5304 -0.1728
 7140TIP3    H242912   3.272   2.898  13.863 -0.4319 -0.9266  0.0561
 7141TIP3   OH242913   2.287   0.240  11.146  0.3478  0.2157 -0.0037
 7141TIP3    H142914   2.207   0.266  11.101 -0.3430  0.2564  1.1944
 7141TIP3    H242915   2.354   0.301  11.113 -0.7899  2.2767  1.2384
 7142TIP3   OH242916   5.707   1.631   2.109  0.9027  0.1449  0.2721
 7142TIP3    H142917   5.697   1.577   2.030  0.2289  1.2516 -0.4312
 7142TIP3    H242918   5.630   1.612   2.162  1.8276 -1.3285  1.1582
 7143TIP3   OH242919   3.008   2.702   6.169  1.1584 -0.3342  0.3947
 7143TIP3    H142920   2.998   2.608   6.184  1.0991 -0.3765  0.1061
 7143TIP3    H242921   2.920   2.732   6.146  0.8626  0.0862  2.0114
 7144TIP3   OH242922   1.493   3.530   2.643  0.6107 -0.1407 -0.4844
 7144TIP3    H142923   1.408   3.549   2.684  1.0600  2.2310 -0.5200
 7144TIP3    H242924   1.509   3.437   2.663 -0.0085  0.4072  3.1951
 7145TIP3   OH242925   2.878   1.885   3.531 -0.3107 -0.6973  0.1762
 7145TIP3    H142926   2.960   1.838   3.549  0.2517 -0.4319 -1.5401
 7145TIP3    H242927   2.906   1.973   3.506 -1.2889  0.2213  2.0869
 7146TIP3   OH242928   5.071   5.961  14.654  0.2309  0.0611  0.3467
 7146TIP3    H142929   4.980   5.975  14.680  0.6484  0.3297  1.7483
 7146TIP3    H242930   5.122   6.011  14.717  1.5114 -2.6341  1.5985
 7147TIP3   OH242931   1.390   5.603  16.205  0.5999  0.1961  0.4786
 7147TIP3    H142932   1.397   5.529  16.265 -0.7945 -0.6803 -0.3957
 7147TIP3    H242933   1.460   5.589  16.142 -0.2136 -0.9111 -0.2154
 7148TIP3   OH242934   2.399   3.409   5.521 -0.2030 -0.0883  0.4596
 7148TIP3    H142935   2.494   3.404   5.520 -0.2180 -0.8695  1.7699
 7148TIP3    H242936   2.380   3.501   5.537  0.2912  0.3714 -1.3691
 7149TIP3   OH242937   0.145   3.493   3.873  0.0504  0.0350 -0.9484
 7149TIP3    H142938   0.213   3.451   3.925 -0.1281  1.1745  0.2744
 7149TIP3    H242939   0.191   3.536   3.802  0.3525 -1.1428 -1.4833
 7150TIP3   OH242940   0.176   1.574   2.438  0.3655 -0.1074  0.9573
 7150TIP3    H142941   0.251   1.527   2.402  1.2049  1.1075  1.0839
 7150TIP3    H242942   0.103   1.512   2.429  0.7604 -0.2769 -1.8016
 7151TIP3   OH242943   6.092   3.773  16.270  0.1227 -0.2087  0.1347
 7151TIP3    H142944   6.079   3.688  16.226 -2.7132  0.4762 -0.5680
 7151TIP3    H242945   6.070   3.756  16.362  1.2014 -0.5734  0.3353
 7152TIP3   OH242946   4.622   4.699   2.488  0.4790 -0.3829 -0.1950
 7152TIP3    H142947   4.587   4.731   2.571 -0.1864  0.3710 -0.7508
 7152TIP3    H242948   4.717   4.701   2.501  0.6687  3.6461 -0.7182
 7153TIP3   OH242949   4.901   1.763  15.268 -0.2343  0.5686  1.0710
 7153TIP3    H142950   4.988   1.803  15.271 -1.9585  5.0497 -0.5062
 7153TIP3    H242951   4.879   1.748  15.360  1.9454 -0.2326  1.5213
 7154TIP3   OH242952   3.205   4.407   1.468  0.0222 -0.7570  0.1107
 7154TIP3    H142953   3.286   4.409   1.416  0.6980 -1.6852  1.0555
 7154TIP3    H242954   3.235   4.388   1.557 -1.3288 -2.5822  0.2394
 7155TIP3   OH242955   2.254   3.650  16.432  0.4147  0.2448  0.7368
 7155TIP3    H142956   2.336   3.627  16.475  0.5114  0.8587  0.8792
 7155TIP3    H242957   2.186   3.618  16.491  0.5032 -1.8984 -0.1984
 7156TIP3   OH242958   4.408   5.370   2.060  0.1465  0.4804 -0.3284
 7156TIP3    H142959   4.358   5.404   1.986 -1.5204 -0.6861  0.1858
 7156TIP3    H242960   4.368   5.412   2.137  0.0244 -0.3541  0.0774
 7157TIP3   OH242961   1.826   5.516  15.295  0.1443 -0.2318 -0.0736
 7157TIP3    H142962   1.771   5.582  15.338  0.9253 -1.0953  2.4159
 7157TIP3    H242963   1.847   5.554  15.210 -2.1773  1.2264 -0.0779
 7158TIP3   OH242964   5.962   2.320   4.582 -0.7399 -0.1965 -0.3263
 7158TIP3    H142965   5.936   2.270   4.505  2.2929 -0.9460 -1.0035
 7158TIP3    H242966   5.986   2.406   4.548 -1.4900  0.1974  0.1290
 7159TIP3   OH242967   0.899   1.209  15.847  0.1425  0.2148 -0.1638
 7159TIP3    H142968   0.878   1.249  15.762  1.7614 -0.6317 -1.0069
 7159TIP3    H242969   0.828   1.237  15.904 -1.9181 -0.4584 -2.1919
 7160TIP3   OH242970   4.282   5.930   4.676  0.0379 -0.0702 -0.3533
 7160TIP3    H142971   4.239   5.891   4.600  0.9099  1.7575 -1.8865
 7160TIP3    H242972   4.350   5.868   4.700  1.2875  0.3133 -2.6066
 7161TIP3   OH242973   6.342   1.093  17.102 -0.1958 -0.6047  0.2920
 7161TIP3    H142974   6.436   1.074  17.090 -0.2046  0.1861 -1.3455
 7161TIP3    H242975   6.334   1.116  17.194  1.2333 -0.6348  0.4580
 7162TIP3   OH242976   6.161   3.446   2.272 -0.1543 -0.1274 -0.4622
 7162TIP3    H142977   6.104   3.485   2.206  0.7189  0.2625 -1.0017
 7162TIP3    H242978   6.224   3.395   2.222  0.7192  0.4344  0.0480
 7163TIP3   OH242979   5.158   5.967   5.376 -0.2354  0.5069 -0.2138
 7163TIP3    H142980   5.192   5.878   5.366  0.5908  0.8548 -0.6145
 7163TIP3    H242981   5.203   6.017   5.307 -1.1075  1.1150 -0.3519
 7164TIP3   OH242982   2.507   1.551  17.264 -0.0359  0.5378 -0.2039
 7164TIP3    H142983   2.569   1.523  17.331 -0.9286  4.2949  2.5008
 7164TIP3    H242984   2.425   1.508  17.287  0.3773 -0.7183 -0.9540
 7165TIP3   OH242985   4.267   4.564  14.527 -0.6419  0.3226 -0.4282
 7165TIP3    H142986   4.194   4.615  14.491 -1.2850 -0.9337 -0.9645
 7165TIP3    H242987   4.257   4.477  14.489  0.7835 -0.0566 -0.0118
 7166TIP3   OH242988   4.296   4.161   1.367 -0.1380 -0.2184 -0.3329
 7166TIP3    H142989   4.213   4.174   1.322 -0.2956 -0.0032  0.0146
 7166TIP3    H242990   4.360   4.211   1.316 -0.6505  1.6313  0.7406
 7167TIP3   OH242991   3.236   1.544  14.116 -0.6466 -0.1842 -0.1090
 7167TIP3    H142992   3.240   1.486  14.040 -0.1270 -0.8510  0.4149
 7167TIP3    H242993   3.319   1.592  14.113 -0.4208 -0.5389  0.2790
 7168TIP3   OH242994   2.589   3.975  13.271 -0.2893 -0.4683  0.5179
 7168TIP3    H142995   2.668   4.029  13.282 -0.6059  0.4945 -1.4819
 7168TIP3    H242996   2.620   3.899  13.220 -0.6475 -0.0207 -0.3892
 7169TIP3   OH242997   4.766   3.549   3.064 -0.0249  0.1014  0.1055
 7169TIP3    H142998   4.854   3.536   3.030  0.2138 -0.2124  0.8150
 7169TIP3    H242999   4.779   3.568   3.157 -0.7419 -0.6921  0.3851
 7170TIP3   OH243000   5.556   0.067   4.761 -0.3735  0.1881 -0.7812
 7170TIP3    H143001   5.467   0.044   4.788  0.3597 -0.9479  0.9233
 7170TIP3    H243002   5.546   0.140   4.701 -2.3023  2.1671  1.7408
 7171TIP3   OH243003   1.663   5.371  14.500  0.5104  0.0069 -0.4319
 7171TIP3    H143004   1.651   5.313  14.425  1.9571  0.9456 -1.4583
 7171TIP3    H243005   1.668   5.459  14.461 -0.1892  0.6813  0.9274
 7172TIP3   OH243006   2.969   0.085   5.319  0.2691  0.1377 -0.3662
 7172TIP3    H143007   3.018   0.122   5.246  0.1185 -0.4216 -0.7475
 7172TIP3    H243008   2.884   0.129   5.315  0.0531 -0.3234 -0.8846
 7173TIP3   OH243009   4.545   1.795  13.429  0.0944 -0.3216  0.0728
 7173TIP3    H143010   4.597   1.830  13.501  0.8644 -1.7246  0.2475
 7173TIP3    H243011   4.592   1.820  13.350  1.2968 -1.8729  0.2418
 7174TIP3   OH243012   1.386   2.512   2.766 -0.4727 -0.0410 -0.2772
 7174TIP3    H143013   1.324   2.484   2.699 -1.5896  0.3114  0.5757
 7174TIP3    H243014   1.375   2.607   2.771  0.2124  0.0403 -0.1869
 7175TIP3   OH243015   4.494   5.075   0.254 -0.2647 -0.5422 -0.1128
 7175TIP3    H143016   4.533   5.082   0.342  0.6214 -0.5945 -0.4928
 7175TIP3    H243017   4.542   5.139   0.202 -1.1563 -0.1260 -0.4387
 7176TIP3   OH243018   6.711   3.374   0.526  0.4363  0.1401  0.3917
 7176TIP3    H143019   6.770   3.444   0.554  2.4099 -1.4891  0.5879
 7176TIP3    H243020   6.691   3.326   0.606  0.0286 -0.1778  0.1050
 7177TIP3   OH243021   0.339   4.865  11.187  0.1825  0.3619  0.0782
 7177TIP3    H143022   0.405   4.923  11.149 -1.6647  2.3127 -0.4217
 7177TIP3    H243023   0.264   4.872  11.128 -0.6238 -1.4639  0.8009
 7178TIP3   OH243024   1.697   3.588   4.943  0.0073 -0.0862  0.8583
 7178TIP3    H143025   1.705   3.495   4.963 -1.6627 -0.2810  0.7776
 7178TIP3    H243026   1.623   3.594   4.883  1.0343  1.1587 -0.3723
 7179TIP3   OH243027   5.845   1.492  12.654 -0.7457  0.1083 -0.1058
 7179TIP3    H143028   5.936   1.520  12.663 -0.9764  0.6911  0.5312
 7179TIP3    H243029   5.808   1.550  12.588 -0.5264 -0.4701 -0.7467
 7180TIP3   OH243030   0.728   2.863   3.271 -0.6031 -0.0355 -0.3438
 7180TIP3    H143031   0.761   2.932   3.213  1.7329 -0.6686  0.1430
 7180TIP3    H243032   0.704   2.908   3.351 -0.7615  0.4310 -0.6517
 7181TIP3   OH243033   2.603   2.163  14.069 -0.8512 -0.0229  1.0563
 7181TIP3    H143034   2.640   2.231  14.012 -1.2403  0.6096  1.5399
 7181TIP3    H243035   2.627   2.191  14.157 -1.7959 -0.0188  1.3226
 7182TIP3   OH243036   4.128   3.686   1.695 -0.0889  0.2188  0.1918
 7182TIP3    H143037   4.171   3.753   1.641  0.7759  0.2432  0.8945
 7182TIP3    H243038   4.194   3.619   1.707 -1.2408 -1.2730 -1.3053
 7183TIP3   OH243039   4.427   6.748   1.240 -0.1337  0.6553 -0.0276
 7183TIP3    H143040   4.378   6.666   1.250 -1.1948  1.2337 -0.4007
 7183TIP3    H243041   4.395   6.785   1.158  1.2384  0.8531 -0.5021
 7184TIP3   OH243042   1.191   6.310  11.296 -0.5426  0.4860 -0.1515
 7184TIP3    H143043   1.197   6.240  11.230 -2.4374  1.6701 -1.6538
 7184TIP3    H243044   1.101   6.306  11.327 -0.3462  1.5416  0.5810
 7185TIP3   OH243045   0.574   2.094   1.150  0.0234  0.0324  0.2969
 7185TIP3    H143046   0.626   2.171   1.175  1.2384 -0.9662  0.9252
 7185TIP3    H243047   0.553   2.109   1.058  0.2079  1.1397  0.4208
 7186TIP3   OH243048   1.570   2.267   0.109 -0.1407 -0.1225  0.1615
 7186TIP3    H143049   1.491   2.259   0.163  0.8375 -0.9241  1.5324
 7186TIP3    H243050   1.565   2.356   0.072 -1.1048  0.2657  1.1653
 7187TIP3   OH243051   0.753   2.283   6.172 -0.2450 -0.4557  0.0280
 7187TIP3    H143052   0.717   2.318   6.254 -2.5742 -0.9236 -0.7142
 7187TIP3    H243053   0.679   2.239   6.131  1.1751 -1.2660 -1.7891
 7188TIP3   OH243054   2.209   3.175  11.881 -0.4646  0.1303 -0.3371
 7188TIP3    H143055   2.179   3.210  11.964 -1.8894  0.7052 -1.0544
 7188TIP3    H243056   2.140   3.199  11.819 -0.4392 -2.0708 -1.2885
 7189TIP3   OH243057   6.661   2.090   2.951  0.0299  0.5123 -0.4790
 7189TIP3    H143058   6.590   2.036   2.916 -0.4718  0.7993  0.0529
 7189TIP3    H243059   6.650   2.085   3.046 -0.2157  1.7573 -0.4163
 7190TIP3   OH243060   5.538   6.280   1.845 -0.0941 -0.4493 -0.1637
 7190TIP3    H143061   5.529   6.365   1.889  2.4031  1.3131 -2.6954
 7190TIP3    H243062   5.613   6.239   1.889  0.9239  0.2860 -1.1463
 7191TIP3   OH243063   5.113   5.838  14.410 -0.1599  0.2454  0.2111
 7191TIP3    H143064   5.110   5.913  14.351  1.4101 -0.9455 -1.4878
 7191TIP3    H243065   5.113   5.877  14.497  0.3889  2.2128 -0.5966
 7192TIP3   OH243066   3.546   1.291   5.273 -0.1685 -0.1925  0.2501
 7192TIP3    H143067   3.554   1.365   5.212 -0.8430 -0.5559 -0.3078
 7192TIP3    H243068   3.565   1.215   5.219 -1.6120 -0.5912  0.2616
 7193TIP3   OH243069   0.890   5.397  15.741  0.1793 -0.3909 -1.0532
 7193TIP3    H143070   0.807   5.373  15.783  1.0826 -3.3063 -0.7221
 7193TIP3    H243071   0.925   5.467  15.796 -1.0063 -0.6794  0.1167
 7194TIP3   OH243072   2.587   2.963   1.854 -0.3900  0.2130  0.0038
 7194TIP3    H143073   2.677   2.933   1.843 -0.4307  0.4914 -1.2231
 7194TIP3    H243074   2.533   2.888   1.826 -0.5717 -0.2310  1.4625
 7195TIP3   OH243075   4.946   4.397  14.941 -0.1738  0.0385  0.2768
 7195TIP3    H143076   4.899   4.399  14.858  0.3835  1.1010 -0.0304
 7195TIP3    H243077   4.917   4.316  14.983  0.8676 -1.4983 -1.7291
 7196TIP3   OH243078   6.356   5.324   5.164  0.0518 -0.9693 -0.1575
 7196TIP3    H143079   6.343   5.406   5.115 -0.0510 -0.9819 -0.1522
 7196TIP3    H243080   6.300   5.334   5.242  0.6829 -0.6886  0.2686
 7197TIP3   OH243081   2.459   0.347  15.700 -0.0576 -0.0865  0.1947
 7197TIP3    H143082   2.553   0.325  15.697 -0.6639 -2.9281 -0.8335
 7197TIP3    H243083   2.449   0.418  15.637  1.0570 -1.4515 -1.6126
 7198TIP3   OH243084   6.537   0.161   3.671 -0.8231 -0.7707 -0.1454
 7198TIP3    H143085   6.518   0.157   3.764 -5.1014 -1.2471 -0.8351
 7198TIP3    H243086   6.513   0.075   3.637 -3.0431  0.5122 -2.1248
 7199TIP3   OH243087   1.616   2.343   3.634 -0.2673 -0.0863  0.0549
 7199TIP3    H143088   1.675   2.316   3.704 -1.1842 -1.8018  0.2135
 7199TIP3    H243089   1.628   2.278   3.565 -2.1720 -0.6820  0.2217
 7200TIP3   OH243090   0.819   3.116   4.215  0.0644  0.4056  0.5340
 7200TIP3    H143091   0.827   3.163   4.132 -1.4062 -0.3701 -0.0744
 7200TIP3    H243092   0.901   3.068   4.224  0.6824  1.3637  0.0915
 7201TIP3   OH243093   2.101   6.598  14.784 -0.6436 -0.2528 -0.6950
 7201TIP3    H143094   2.100   6.503  14.801 -2.0184  0.0921  1.6161
 7201TIP3    H243095   2.141   6.636  14.862  0.1296  1.1056 -1.6996
 7202TIP3   OH243096   1.327   3.914   3.151  0.3883  0.0656  0.1623
 7202TIP3    H143097   1.341   3.959   3.067 -1.1244  1.6199  0.6686
 7202TIP3    H243098   1.286   3.831   3.127  1.3659 -0.1789 -0.7107
 7203TIP3   OH243099   6.722   1.144   0.555 -0.1646  0.1289 -0.0394
 7203TIP3    H143100   6.690   1.155   0.465  2.4597  1.6533 -0.8847
 7203TIP3    H243101   6.751   1.231   0.581  0.8761 -0.6623  1.6023
 7204TIP3   OH243102   2.171   4.882  15.924 -0.0639 -0.0350  0.4042
 7204TIP3    H143103   2.139   4.970  15.943  0.7686  1.0343 -2.5734
 7204TIP3    H243104   2.266   4.892  15.915 -0.0138 -1.1151 -0.4666
 7205TIP3   OH243105   5.873   5.358   5.030 -0.0425  0.1687 -0.1952
 7205TIP3    H143106   5.827   5.432   5.071 -0.0333  0.4315 -0.6511
 7205TIP3    H243107   5.954   5.396   4.997  0.1979 -0.1571  0.0185
 7206TIP3   OH243108   5.499   1.857  16.685  0.0802  0.7647 -0.2989
 7206TIP3    H143109   5.431   1.914  16.649 -0.3778 -1.2516 -2.9999
 7206TIP3    H243110   5.458   1.770  16.686  1.8308 -0.0862  0.3453
 7207TIP3   OH243111   5.011   0.454   1.142  0.3264  0.3229 -0.2977
 7207TIP3    H143112   5.009   0.376   1.086 -0.9948 -0.3909  0.6892
 7207TIP3    H243113   5.014   0.419   1.231  1.1226  1.4311  0.1213
 7208TIP3   OH243114   1.659   3.079  12.563  0.3233 -0.0933 -0.3682
 7208TIP3    H143115   1.653   3.036  12.649 -0.2760 -0.8445 -0.7742
 7208TIP3    H243116   1.725   3.147  12.575  1.5944 -1.3785  0.1775
 7209TIP3   OH243117   5.966   0.618  16.376 -0.2798 -0.0891 -0.0343
 7209TIP3    H143118   5.972   0.550  16.443 -1.6671 -1.1454 -0.9219
 7209TIP3    H243119   5.970   0.571  16.293  1.9378  1.2458 -0.7731
 7210TIP3   OH243120   5.749   5.391  17.432 -0.2591 -0.1247  0.0650
 7210TIP3    H143121   5.788   5.352  17.511  1.5348  0.1543 -0.6300
 7210TIP3    H243122   5.800   5.354  17.360 -1.5160  0.0434 -0.9455
 7211TIP3   OH243123   1.813   0.994   1.128 -0.1325  0.2461  0.5480
 7211TIP3    H143124   1.820   0.913   1.078 -0.6016 -0.3510  1.4261
 7211TIP3    H243125   1.902   1.010   1.159 -0.3644 -1.0623  2.0561
 7212TIP3   OH243126   5.867   6.173   6.778 -0.3891 -0.3650 -0.0553
 7212TIP3    H143127   5.901   6.230   6.708 -1.6445 -0.0808 -0.4630
 7212TIP3    H243128   5.876   6.084   6.743 -1.2149 -0.2128 -0.7099
 7213TIP3   OH243129   2.368   6.679   0.799  0.1430  0.2553  0.2571
 7213TIP3    H143130   2.319   6.605   0.764  0.4578  0.1060  0.1291
 7213TIP3    H243131   2.303   6.747   0.812  0.1391  0.6131 -1.4269
 7214TIP3   OH243132   3.258   0.604   4.872  0.1363  0.2999  0.0788
 7214TIP3    H143133   3.256   0.534   4.806  1.3741 -1.1415  1.4797
 7214TIP3    H243134   3.218   0.679   4.828 -3.0877 -1.7571 -0.8667
 7215TIP3   OH243135   6.089   3.849  11.537  0.2235  0.0021  0.4974
 7215TIP3    H143136   6.115   3.765  11.576  0.0044  0.7043  2.2837
 7215TIP3    H243137   5.993   3.846  11.538  0.1933 -0.4729 -1.2233
 7216TIP3   OH243138   4.900   2.108   0.777  0.2150  0.3442  0.5931
 7216TIP3    H143139   4.979   2.160   0.762 -0.1013  1.1506  1.5929
 7216TIP3    H243140   4.925   2.047   0.847  0.0543  0.3776  0.6797
 7217TIP3   OH243141   2.138   0.646   5.504 -0.1026 -0.0145 -0.5369
 7217TIP3    H143142   2.166   0.557   5.484  1.9407  0.3558  0.3320
 7217TIP3    H243143   2.198   0.674   5.573 -2.0322  1.3261  0.6711
 7218TIP3   OH243144   3.886   4.440  12.737 -0.8510 -0.2318  0.4672
 7218TIP3    H143145   3.918   4.421  12.825  2.5340 -0.8044 -0.7402
 7218TIP3    H243146   3.965   4.454  12.685 -2.7397  3.1218 -1.9061
 7219TIP3   OH243147   1.740   1.204   4.752  0.3309 -0.2330  0.0823
 7219TIP3    H143148   1.785   1.142   4.810  0.6393 -0.3170 -0.2439
 7219TIP3    H243149   1.653   1.213   4.790 -0.1498 -1.8326 -0.5548
 7220TIP3   OH243150   5.095   3.192  13.505  0.0770 -0.2963 -0.4230
 7220TIP3    H143151   5.055   3.192  13.418  0.8200  2.4951 -0.8377
 7220TIP3    H243152   5.176   3.240  13.494  0.4010 -0.2751  1.7492
 7221TIP3   OH243153   4.302   2.734  16.902 -0.2702 -0.4352 -0.1515
 7221TIP3    H143154   4.291   2.828  16.916  0.6566 -0.1070 -1.4619
 7221TIP3    H243155   4.276   2.719  16.811 -1.5604 -1.6756  0.3808
 7222TIP3   OH243156   0.550   4.957   0.776  0.4684 -0.4467 -0.3479
 7222TIP3    H143157   0.644   4.949   0.792  0.6313 -1.1364 -1.5918
 7222TIP3    H243158   0.509   4.897   0.839  0.6146  1.8987  2.2089
 7223TIP3   OH243159   4.371   2.861   0.862 -0.3343 -0.0318 -0.2008
 7223TIP3    H143160   4.350   2.942   0.909 -0.9310 -0.5977  0.5407
 7223TIP3    H243161   4.385   2.797   0.932  1.1094 -0.3497 -0.7455
 7224TIP3   OH243162   0.432   6.316  12.770 -0.0802  0.6216 -0.5537
 7224TIP3    H143163   0.504   6.265  12.807  0.1805 -0.4788 -2.4117
 7224TIP3    H243164   0.471   6.402  12.751  0.8331  0.0008 -1.6523
 7225TIP3   OH243165   2.636   6.405  16.318  0.0443 -0.4823  0.2511
 7225TIP3    H143166   2.673   6.370  16.237  0.0156 -0.0757  0.0634
 7225TIP3    H243167   2.590   6.485  16.292 -2.5746 -1.8888  0.1268
 7226TIP3   OH243168   4.978   5.446  15.035 -0.0826 -0.3297  0.6544
 7226TIP3    H143169   5.049   5.386  15.011 -1.0570 -1.6987  1.1014
 7226TIP3    H243170   4.930   5.461  14.954  1.3030  1.4865  0.0988
 7227TIP3   OH243171   6.414   5.287  17.071 -0.3556  0.4080 -0.8168
 7227TIP3    H143172   6.481   5.350  17.099  0.6349 -1.4015  1.1674
 7227TIP3    H243173   6.356   5.338  17.014  0.2172  3.1987  0.8703
 7228TIP3   OH243174   2.954   2.608   0.305  1.0546  0.3535 -0.1465
 7228TIP3    H143175   2.926   2.700   0.305  1.0210  0.3435 -0.0508
 7228TIP3    H243176   2.895   2.566   0.243 -1.2280 -0.2911  2.2660
 7229TIP3   OH243177   2.756   6.349  16.662 -0.1579 -0.2898  0.6726
 7229TIP3    H143178   2.839   6.333  16.707 -0.5140 -2.8053  0.6254
 7229TIP3    H243179   2.780   6.366  16.571  0.3237 -1.4754  0.5587
 7230TIP3   OH243180   2.987   2.084   0.364 -0.1020 -0.2014 -0.2174
 7230TIP3    H143181   3.028   1.998   0.350  0.1023 -0.0878 -0.3169
 7230TIP3    H243182   3.017   2.137   0.290  1.8426  0.7359  1.1656
 7231TIP3   OH243183   6.285   3.706  13.189  0.0932 -0.0103 -0.0860
 7231TIP3    H143184   6.294   3.633  13.127  0.6670  0.4330 -0.5375
 7231TIP3    H243185   6.372   3.713  13.229 -0.7051 -1.3887  2.0437
 7232TIP3   OH243186   2.250   0.984  17.518 -0.5133 -0.1297 -0.8899
 7232TIP3    H143187   2.282   1.040  17.448  1.4141  1.4930  1.1309
 7232TIP3    H243188   2.271   1.032  17.599 -3.0040 -1.6610  0.8373
 7233TIP3   OH243189   0.414   0.680  13.757  0.0761  0.6079 -0.2841
 7233TIP3    H143190   0.320   0.669  13.743 -0.2184  2.8985 -0.5886
 7233TIP3    H243191   0.454   0.643  13.679 -0.5134 -0.9719  0.1393
 7234TIP3   OH243192   6.205   0.065   0.188 -0.6655  0.2694  0.2583
 7234TIP3    H143193   6.129   0.009   0.170 -0.2182  0.5906 -3.1594
 7234TIP3    H243194   6.180   0.151   0.154  0.9917  0.5261 -0.3886
 7235TIP3   OH243195   4.276   3.589  11.138  0.2671  0.2931 -0.7372
 7235TIP3    H143196   4.321   3.663  11.096 -0.9637 -0.0297 -2.7213
 7235TIP3    H243197   4.199   3.573  11.084  0.9310 -3.0126 -0.9216
 7236TIP3   OH243198   2.369   3.035  11.743 -0.3163  0.8241 -0.2902
 7236TIP3    H143199   2.371   2.974  11.817 -1.4601  0.6044 -0.4220
 7236TIP3    H243200   2.314   3.107  11.773 -0.6109  0.8340 -0.8396
 7237TIP3   OH243201   2.465   4.659  12.179  0.8652  0.2283  0.4406
 7237TIP3    H143202   2.492   4.579  12.225 -0.8820 -0.0566  1.0538
 7237TIP3    H243203   2.403   4.701  12.239 -0.2682  0.6713 -0.9872
 7238TIP3   OH243204   3.433   2.788  13.906 -0.0079  0.2950  0.7960
 7238TIP3    H143205   3.501   2.770  13.971  1.8072 -2.3677 -1.5950
 7238TIP3    H243206   3.380   2.709  13.904 -0.0887  0.3525 -0.8080
 7239TIP3   OH243207   4.163   5.640   3.131 -0.0475 -0.2253  0.6533
 7239TIP3    H143208   4.111   5.657   3.210  0.6663  2.5883  0.5994
 7239TIP3    H243209   4.098   5.632   3.061 -0.6243 -1.6875  1.3058
 7240TIP3   OH243210   5.518   5.855  12.872 -0.4255 -0.3003  0.4428
 7240TIP3    H143211   5.443   5.800  12.897 -2.3314  1.7245 -0.5743
 7240TIP3    H243212   5.492   5.944  12.895  0.9492  0.6854 -1.5106
 7241TIP3   OH243213   2.421   4.756   4.994 -0.1276  0.0963 -0.6947
 7241TIP3    H143214   2.480   4.686   5.023 -0.0621 -0.7095 -2.5669
 7241TIP3    H243215   2.382   4.790   5.074  2.3087  0.1663  0.5467
 7242TIP3   OH243216   5.885   4.801  13.487  0.3823  0.4869  0.2503
 7242TIP3    H143217   5.805   4.749  13.486  1.6725 -1.6470 -1.3003
 7242TIP3    H243218   5.923   4.787  13.574 -0.7835  1.3582  0.9211
 7243TIP3   OH243219   3.766   1.494  13.910 -0.0681  1.0138 -0.3872
 7243TIP3    H143220   3.682   1.454  13.935 -0.7259  1.4568 -1.7357
 7243TIP3    H243221   3.769   1.576  13.960 -1.0237  1.5566 -1.1602
 7244TIP3   OH243222   1.348   3.490  14.964  0.2345 -0.4580  0.2093
 7244TIP3    H143223   1.412   3.560  14.971  0.0397 -0.3369  0.8106
 7244TIP3    H243224   1.354   3.461  14.873  0.9365 -0.2547  0.1861
 7245TIP3   OH243225   2.669   3.725   0.156  0.2254  0.0349  0.6952
 7245TIP3    H143226   2.709   3.647   0.118  0.0723  1.3681 -2.6050
 7245TIP3    H243227   2.678   3.792   0.087 -2.0747  2.1441  2.2593
 7246TIP3   OH243228   1.582   5.222   5.985  0.6812  0.3985  0.1012
 7246TIP3    H143229   1.657   5.268   5.949  0.5222  0.3013 -0.3662
 7246TIP3    H243230   1.608   5.199   6.075  0.9404  0.9677  0.1723
 7247TIP3   OH243231   6.031   4.773   2.161  0.4632  0.4223  0.6246
 7247TIP3    H143232   6.027   4.752   2.067 -2.3877  0.7826  0.5645
 7247TIP3    H243233   6.109   4.728   2.192 -0.2459 -2.4967 -1.3240
 7248TIP3   OH243234   4.645   3.000  12.116 -0.3496 -0.2688 -0.4847
 7248TIP3    H143235   4.672   3.064  12.050  0.9167 -0.7416 -0.4446
 7248TIP3    H243236   4.604   3.053  12.184 -0.3583  0.3814 -0.9750
 7249TIP3   OH243237   2.456   5.941  14.982  0.2765  0.3185 -0.4419
 7249TIP3    H143238   2.364   5.961  14.964 -0.0120  2.2786  2.5352
 7249TIP3    H243239   2.504   6.005  14.930 -0.2774  1.9727  0.9866
 7250TIP3   OH243240   4.702   0.251  11.795 -0.2931  0.8843 -0.1883
 7250TIP3    H143241   4.741   0.205  11.870  2.2716 -0.2208 -2.0620
 7250TIP3    H243242   4.610   0.225  11.797  0.4719 -2.1493  0.4773
 7251TIP3   OH243243   2.625   2.100  17.180  0.4396 -0.0169 -0.6544
 7251TIP3    H143244   2.640   2.009  17.206 -1.2784 -0.1167  0.1066
 7251TIP3    H243245   2.567   2.135  17.247  0.6794  1.5101 -1.2052
 7252TIP3   OH243246   2.547   3.074   2.764  0.3601  0.1778  0.2962
 7252TIP3    H143247   2.628   3.121   2.780 -0.5574  2.1426 -0.5448
 7252TIP3    H243248   2.478   3.130   2.800 -0.8086 -0.2921 -1.0780
 7253TIP3   OH243249   4.453   5.290   1.168  0.1656  0.0034 -0.1504
 7253TIP3    H143250   4.376   5.329   1.210  0.1925 -1.1666  1.0444
 7253TIP3    H243251   4.418   5.237   1.097  0.0282  0.9812 -0.8348
 7254TIP3   OH243252   6.129   4.195  11.549 -0.4923 -0.2197 -0.1022
 7254TIP3    H143253   6.150   4.283  11.581  0.1359 -0.0590 -0.9101
 7254TIP3    H243254   6.110   4.144  11.627 -0.9877  0.6703  0.3691
 7255TIP3   OH243255   2.033   3.918   5.493 -0.2024  0.1047  0.0628
 7255TIP3    H143256   2.090   3.981   5.536 -1.0012 -0.2743  1.7534
 7255TIP3    H243257   2.086   3.838   5.487 -0.7314 -0.4733  2.3008
 7256TIP3   OH243258   2.053   3.704   5.068 -0.5544 -0.0459 -0.0259
 7256TIP3    H143259   2.058   3.629   5.128  4.3742 -0.2258 -0.2870
 7256TIP3    H243260   2.030   3.665   4.984  0.6071 -1.1041  0.1160
 7257TIP3   OH243261   4.601   1.072   3.568  0.8021 -0.0260  0.2316
 7257TIP3    H143262   4.591   1.166   3.550  1.5570  0.3208  1.4789
 7257TIP3    H243263   4.528   1.031   3.522 -1.1109  1.4433  1.7357
 7258TIP3   OH243264   4.254   0.601   6.074  0.2647  0.4708  0.8038
 7258TIP3    H143265   4.316   0.600   6.001  0.2297 -0.3092  0.7799
 7258TIP3    H243266   4.169   0.586   6.034 -0.0979  2.5377  0.7140
 7259TIP3   OH243267   3.751   4.452  15.293  0.1460 -0.0846 -0.2934
 7259TIP3    H143268   3.755   4.472  15.387  0.3408 -2.6696  0.3207
 7259TIP3    H243269   3.660   4.428  15.277  0.6379 -2.3515 -0.0657
 7260TIP3   OH243270   2.250   5.985   5.755 -0.6058  0.3442 -0.1153
 7260TIP3    H143271   2.213   6.062   5.798 -1.7647 -0.1422 -0.1980
 7260TIP3    H243272   2.338   6.012   5.729 -0.4320  1.1452  1.2019
 7261TIP3   OH243273   4.304   6.694  15.751  0.2367  0.0164  1.0097
 7261TIP3    H143274   4.362   6.764  15.781  1.0673 -0.8229  1.4094
 7261TIP3    H243275   4.361   6.635  15.701 -0.5912 -0.0130  0.0493
 7262TIP3   OH243276   2.030   5.221   3.381  0.1357 -0.0491 -0.0621
 7262TIP3    H143277   1.981   5.140   3.366 -0.0406 -0.3649  1.8829
 7262TIP3    H243278   2.121   5.193   3.384 -0.0536 -0.6055  2.6783
 7263TIP3   OH243279   2.765   4.687  15.728 -0.6689  0.1982 -0.0841
 7263TIP3    H143280   2.848   4.652  15.760 -1.4407 -0.9913  0.6790
 7263TIP3    H243281   2.704   4.674  15.800 -1.7583  0.1411 -0.9941
 7264TIP3   OH243282   3.060   5.644   3.874  0.1623 -0.0162 -0.0630
 7264TIP3    H143283   3.097   5.579   3.934 -1.9481 -0.5292  0.7832
 7264TIP3    H243284   2.970   5.656   3.905 -0.8974  0.0443 -2.8749
 7265TIP3   OH243285   4.865   0.899  14.622 -0.5492  0.5560 -0.3548
 7265TIP3    H143286   4.927   0.892  14.695  0.0504  1.0339 -0.8120
 7265TIP3    H243287   4.907   0.851  14.550 -2.6715 -3.0527  0.5438
 7266TIP3   OH243288   4.486   6.396  11.747 -0.1262 -0.2459  0.2178
 7266TIP3    H143289   4.401   6.372  11.710  0.7777 -0.7365 -1.6775
 7266TIP3    H243290   4.532   6.313  11.759  0.4419  0.0713  0.2972
 7267TIP3   OH243291   4.086   2.597  12.933 -0.0947 -0.0914  0.2155
 7267TIP3    H143292   4.072   2.510  12.895 -0.8718 -0.2180  0.7666
 7267TIP3    H243293   4.122   2.649  12.861  1.3423 -1.1281  0.1665
 7268TIP3   OH243294   5.605   2.756  13.167  0.0562  0.4231 -0.1897
 7268TIP3    H143295   5.636   2.711  13.089  0.8594 -2.3241  1.5717
 7268TIP3    H243296   5.512   2.771  13.150 -0.1612 -1.5954 -1.0750
 7269TIP3   OH243297   1.030   3.631  14.019 -0.3361 -0.5461 -0.3644
 7269TIP3    H143298   0.956   3.686  14.043  0.5906  1.2587 -1.4446
 7269TIP3    H243299   1.100   3.657  14.079  0.8592  1.3427 -2.4239
 7270TIP3   OH243300   3.492   3.439  12.399  0.0118  0.0847  0.0709
 7270TIP3    H143301   3.566   3.415  12.456 -0.5177  0.7201  1.0397
 7270TIP3    H243302   3.431   3.485  12.456 -0.0122  1.7980 -1.2426
 7271TIP3   OH243303   3.160   0.584  12.092 -0.4919 -0.5908  0.3448
 7271TIP3    H143304   3.127   0.576  12.181 -0.6218 -0.6597  0.2904
 7271TIP3    H243305   3.208   0.503  12.076  0.5012 -0.0984  0.7527
 7272TIP3   OH243306   4.833   3.007   5.788 -0.0410  0.2123 -0.2498
 7272TIP3    H143307   4.922   3.041   5.787  0.4602 -1.0172  0.3645
 7272TIP3    H243308   4.839   2.921   5.746 -0.7541 -0.2835  0.6271
 7273TIP3   OH243309   0.451   3.896   4.569 -0.0269 -0.1222 -0.1305
 7273TIP3    H143310   0.362   3.888   4.533  0.2955  1.1396 -1.3492
 7273TIP3    H243311   0.485   3.807   4.570 -1.1447 -0.5703 -0.0694
 7274TIP3   OH243312   2.076   3.831   3.615  0.2321  0.2788  0.1239
 7274TIP3    H143313   2.162   3.873   3.610  0.8378 -0.9716 -0.5881
 7274TIP3    H243314   2.094   3.739   3.597 -1.3428  0.1054 -0.7391
 7275TIP3   OH243315   1.917   3.668  14.878 -0.0497 -0.1683  0.2607
 7275TIP3    H143316   1.980   3.595  14.882  0.3378  0.1905  0.7977
 7275TIP3    H243317   1.958   3.730  14.817  0.7858  0.6699  1.6165
 7276TIP3   OH243318   4.615   0.928   3.869 -0.3387 -0.3425  0.3219
 7276TIP3    H143319   4.582   0.865   3.934 -1.7537 -1.1131 -1.0794
 7276TIP3    H243320   4.546   0.993   3.861  0.4715  0.5865  0.6417
 7277TIP3   OH243321   2.463   3.843  14.132 -0.2278 -0.4330  0.3034
 7277TIP3    H143322   2.506   3.836  14.217  0.4474 -0.2082 -0.0159
 7277TIP3    H243323   2.382   3.891  14.150 -0.3592 -0.8658  0.9059
 7278TIP3   OH243324   0.160   4.400  12.008  0.0825 -0.3821  0.0783
 7278TIP3    H143325   0.110   4.363  11.936 -1.0424 -0.8343  1.0610
 7278TIP3    H243326   0.127   4.490  12.016 -1.2554 -0.9502  1.2901
 7279TIP3   OH243327   1.932   2.525  16.921 -0.3922 -0.1293  0.1993
 7279TIP3    H143328   1.928   2.487  17.009 -1.6492  0.8672  0.6007
 7279TIP3    H243329   1.938   2.450  16.863  1.1582 -0.7845  1.1561
 7280TIP3   OH243330   6.031   2.329   0.442 -0.4386 -0.0037  0.0643
 7280TIP3    H143331   6.120   2.324   0.409 -0.7958 -1.5844 -0.7894
 7280TIP3    H243332   5.986   2.390   0.384 -0.7170 -1.7343 -1.6441
 7281TIP3   OH243333   3.844   2.156   1.852 -0.6124  0.0289  0.1698
 7281TIP3    H143334   3.835   2.231   1.911 -1.3192 -1.7580  2.4759
 7281TIP3    H243335   3.754   2.130   1.833 -0.3888 -1.0826  0.5792
 7282TIP3   OH243336   1.214   4.494   0.151 -0.0685 -0.3952  0.2329
 7282TIP3    H143337   1.256   4.573   0.185 -0.9196 -0.6399  1.9378
 7282TIP3    H243338   1.275   4.423   0.173  0.6158 -0.2871 -1.1496
 7283TIP3   OH243339   5.923   4.349   7.326  0.3389 -0.0070  0.4960
 7283TIP3    H143340   5.875   4.388   7.253  0.0065 -1.2668  0.0119
 7283TIP3    H243341   5.885   4.262   7.335  1.3545 -0.3855  1.2486
 7284TIP3   OH243342   1.924   2.644  16.015  0.0696  0.3342  0.6410
 7284TIP3    H143343   1.895   2.730  16.044 -1.9045 -0.7919  2.3103
 7284TIP3    H243344   1.843   2.593  16.006  0.9498 -0.7254 -2.6446
 7285TIP3   OH243345   0.124   2.219  12.660 -0.0954  0.0967  0.1182
 7285TIP3    H143346   0.122   2.146  12.723  1.8884  1.8154  2.3826
 7285TIP3    H243347   0.155   2.293  12.711  2.5807  1.4493 -3.1095
 7286TIP3   OH243348   3.584   0.583  16.450 -0.4992 -0.1207 -0.4488
 7286TIP3    H143349   3.512   0.632  16.490 -0.6487 -1.2761  0.7641
 7286TIP3    H243350   3.541   0.514  16.400 -0.2423 -0.4581 -0.2052
 7287TIP3   OH243351   6.697   4.957  12.524  0.1987  0.4729  0.2627
 7287TIP3    H143352   6.669   5.018  12.592  0.7724  1.0357  0.0066
 7287TIP3    H243353   6.651   4.985  12.446  1.1706  1.1924 -0.0798
 7288TIP3   OH243354   5.986   5.716  16.259 -0.0687 -0.4867  0.2650
 7288TIP3    H143355   5.977   5.668  16.177 -1.9188  0.5510 -0.2047
 7288TIP3    H243356   6.058   5.777  16.243  0.8561 -1.5933  0.1175
 7289TIP3   OH243357   3.489   2.072   6.134 -0.4303  0.3569  1.0289
 7289TIP3    H143358   3.435   2.150   6.118  0.1821  0.8546  1.3300
 7289TIP3    H243359   3.434   1.999   6.108 -1.2198  0.8621  1.2461
 7290TIP3   OH243360   3.293   1.913   6.025  0.0740  0.3137  0.4070
 7290TIP3    H143361   3.261   1.938   5.939  0.4262 -0.3926  0.0683
 7290TIP3    H243362   3.251   1.829   6.043  2.6295 -1.2597 -0.5803
 7291TIP3   OH243363   3.954   2.033   1.652 -0.3066  0.2269 -0.1256
 7291TIP3    H143364   3.926   2.087   1.726  2.6736 -0.9548  2.0688
 7291TIP3    H243365   4.007   2.092   1.598 -0.6584  0.5305 -0.1480
 7292TIP3   OH243366   2.926   4.464  16.360 -0.5274  0.9320 -0.3433
 7292TIP3    H143367   2.837   4.487  16.388 -0.4577 -0.7803  1.4837
 7292TIP3    H243368   2.939   4.375  16.392  1.2207  0.4485 -2.1877
 7293TIP3   OH243369   5.917   5.129   0.587 -0.6479  0.4348 -0.0019
 7293TIP3    H143370   5.889   5.090   0.669  1.0969 -0.9081  0.0040
 7293TIP3    H243371   5.898   5.063   0.521 -1.0174  1.0594 -0.5310
 7294TIP3   OH243372   6.400   3.240   0.595 -0.4645  0.5744 -0.1798
 7294TIP3    H143373   6.480   3.223   0.645 -1.4133 -0.7019  0.9941
 7294TIP3    H243374   6.330   3.206   0.651 -1.6036 -0.7926 -2.3177
 7295TIP3   OH243375   1.480   6.114   0.599  0.6461  0.0548 -0.0775
 7295TIP3    H143376   1.502   6.171   0.673  0.8963  2.6020 -1.9840
 7295TIP3    H243377   1.396   6.148   0.566  1.0535 -0.3197 -1.5907
 7296TIP3   OH243378   3.053   0.351  15.233 -0.0648  0.5118  0.6390
 7296TIP3    H143379   3.130   0.389  15.277  0.7064  0.0332 -0.2499
 7296TIP3    H243380   2.982   0.360  15.296  0.2085  2.9124  0.7097
 7297TIP3   OH243381   3.761   1.691  15.272  0.2720 -0.0796  0.1244
 7297TIP3    H143382   3.692   1.641  15.316 -0.4960  1.5623  0.9029
 7297TIP3    H243383   3.795   1.749  15.340  1.6128 -0.0362 -0.5640
 7298TIP3   OH243384   5.854   1.377  16.496  0.2928 -0.3549  0.0947
 7298TIP3    H143385   5.766   1.339  16.487  1.2562 -2.3374 -1.8419
 7298TIP3    H243386   5.892   1.329  16.570 -0.0857  0.1794  0.6404
 7299TIP3   OH243387   3.137   5.238   6.684  0.0884  0.1035 -0.4962
 7299TIP3    H143388   3.081   5.178   6.634 -0.2935  0.5123 -0.5580
 7299TIP3    H243389   3.203   5.181   6.723 -0.4581 -0.4036 -0.2952
 7300TIP3   OH243390   3.415   2.229   0.860  0.1776 -0.4417  0.3003
 7300TIP3    H143391   3.426   2.186   0.775 -0.4169  1.1102 -0.6126
 7300TIP3    H243392   3.321   2.222   0.879 -0.2098  1.5946 -0.5699
 7301TIP3   OH243393   5.241   4.140   1.730  0.4995 -0.2949  0.0759
 7301TIP3    H143394   5.220   4.198   1.656 -0.4815  0.0757  0.6228
 7301TIP3    H243395   5.235   4.052   1.694  1.6811 -0.0857 -0.6880
 7302TIP3   OH243396   6.611   5.287  14.336  0.4659  0.3435 -0.3414
 7302TIP3    H143397   6.532   5.246  14.300 -1.8223  1.1423  3.3107
 7302TIP3    H243398   6.637   5.229  14.408  2.2181  1.0313 -0.3859
 7303TIP3   OH243399   1.759   0.586   0.970 -0.2293  0.0870 -0.0012
 7303TIP3    H143400   1.717   0.522   0.913  0.8833 -1.2592  0.6210
 7303TIP3    H243401   1.748   0.669   0.925 -1.0685 -0.6445 -1.2068
 7304TIP3   OH243402   1.451   5.360  17.027  0.6012  0.8170 -0.0226
 7304TIP3    H143403   1.503   5.288  17.063  1.3972  1.0069 -0.7549
 7304TIP3    H243404   1.361   5.330  17.033  0.9181 -0.2237 -0.2861
 7305TIP3   OH243405   0.173   0.830   0.074  0.3853 -0.1958  0.3868
 7305TIP3    H143406   0.207   0.827  -0.015  0.2053 -0.3234  0.3226
 7305TIP3    H243407   0.103   0.895   0.071 -0.3854 -1.0241  0.1666
 7306TIP3   OH243408   0.826   3.425  15.918  1.0885  0.4260  0.8107
 7306TIP3    H143409   0.804   3.481  15.992  0.8930 -0.5163  1.4972
 7306TIP3    H243410   0.832   3.337  15.956  0.5915 -0.1387 -0.3636
 7307TIP3   OH243411   4.688   5.670   0.460  0.2295  0.2953  0.1015
 7307TIP3    H143412   4.603   5.627   0.453  0.4814 -0.3130  0.6527
 7307TIP3    H243413   4.669   5.755   0.500 -0.1182  0.1440  0.2652
 7308TIP3   OH243414   0.627   2.137   2.606 -0.2630  0.1590 -0.2486
 7308TIP3    H143415   0.609   2.216   2.656  1.6925  0.6070 -0.1920
 7308TIP3    H243416   0.683   2.167   2.534 -1.0894 -0.8661 -1.3479
 7309TIP3   OH243417   6.180   6.322  17.061  0.3297 -0.1946  0.2908
 7309TIP3    H143418   6.212   6.301  16.973  1.2668 -1.2927  0.8675
 7309TIP3    H243419   6.222   6.258  17.118 -1.3941 -0.4455  1.3641
 7310TIP3   OH243420   4.977   5.794  11.652  0.1381  0.3132  0.7668
 7310TIP3    H143421   4.946   5.880  11.623 -2.0683 -0.9114 -0.8619
 7310TIP3    H243422   4.965   5.795  11.746  0.5317  1.9134  0.8291
 7311TIP3   OH243423   0.993   5.371  16.511  0.5310 -0.4628 -0.6111
 7311TIP3    H143424   1.006   5.299  16.448 -1.2459 -0.9748 -0.4522
 7311TIP3    H243425   0.898   5.385  16.512  0.6647  0.5675  0.8432
 7312TIP3   OH243426   5.079   3.571   1.110  0.2437 -0.5626 -0.5897
 7312TIP3    H143427   5.153   3.581   1.170 -0.2941 -2.4383  0.4926
 7312TIP3    H243428   5.023   3.646   1.127  1.7873  0.8339 -1.3485
 7313TIP3   OH243429   1.573   0.267   4.662 -0.3713 -0.2755  0.2036
 7313TIP3    H143430   1.498   0.302   4.709  0.1326 -1.9751  2.4533
 7313TIP3    H243431   1.571   0.311   4.577 -1.7786  2.4280  1.5036
 7314TIP3   OH243432   5.133   2.669   5.763 -0.0958  0.0964  0.0203
 7314TIP3    H143433   5.089   2.622   5.833 -0.9561  0.2894 -0.3844
 7314TIP3    H243434   5.208   2.711   5.806  0.2721 -1.0336  0.5227
 7315TIP3   OH243435   3.368   2.023   1.049 -0.6090 -0.5526  0.4429
 7315TIP3    H143436   3.436   2.086   1.072 -0.0749 -1.6598  2.0897
 7315TIP3    H243437   3.381   2.008   0.955 -0.5581  1.4863  0.0784
 7316TIP3   OH243438   3.247   0.251   5.894 -0.2323 -0.1316  0.6861
 7316TIP3    H143439   3.269   0.218   5.807 -1.5781 -0.0476  0.2884
 7316TIP3    H243440   3.288   0.188   5.954  1.5034  0.3222  0.0467
 7317TIP3   OH243441   1.718   1.258  11.551 -0.9706 -0.1110 -0.7750
 7317TIP3    H143442   1.705   1.167  11.578  1.9707 -0.8186 -1.4011
 7317TIP3    H243443   1.722   1.307  11.633 -2.5963 -0.4930 -0.4290
 7318TIP3   OH243444   3.611   4.324   5.383  0.4635 -0.1748 -0.1380
 7318TIP3    H143445   3.523   4.287   5.391 -0.9552  2.5770 -1.4741
 7318TIP3    H243446   3.650   4.275   5.310 -1.2257  0.6037 -1.6742
 7319TIP3   OH243447   5.218   1.391   4.039 -0.2242  0.6770 -0.6606
 7319TIP3    H143448   5.252   1.303   4.052 -1.2377 -0.1448 -3.0788
 7319TIP3    H243449   5.289   1.448   4.066  0.5979 -0.8652  0.5869
 7320TIP3   OH243450   5.311   3.993  13.240 -0.4514  0.6234  0.1815
 7320TIP3    H143451   5.241   4.046  13.202 -0.2575  1.1763  0.5744
 7320TIP3    H243452   5.267   3.937  13.304 -0.6445  0.3695 -0.1681
 7321TIP3   OH243453   0.230   0.998   0.293 -0.2400 -0.3861 -0.0904
 7321TIP3    H143454   0.194   0.959   0.372 -0.9995 -0.1960 -0.3392
 7321TIP3    H243455   0.223   0.930   0.227  0.0961 -0.4335 -0.0823
 7322TIP3   OH243456   2.227   5.188   2.347 -0.4203  0.2637 -0.1789
 7322TIP3    H143457   2.246   5.257   2.410  0.8866  1.9823 -2.3303
 7322TIP3    H243458   2.310   5.171   2.303 -1.2843 -0.8528 -1.4822
 7323TIP3   OH243459   6.511   0.273  15.136 -0.2132 -0.5299  0.0009
 7323TIP3    H143460   6.483   0.356  15.175 -0.7997 -1.2239  1.1188
 7323TIP3    H243461   6.600   0.260  15.170 -0.2476 -0.5185  0.0968
 7324TIP3   OH243462   3.958   4.085   0.320  0.3605  0.0269 -0.7219
 7324TIP3    H143463   3.904   4.083   0.241 -0.1082  0.7587 -0.4296
 7324TIP3    H243464   4.033   4.029   0.299 -0.6865 -1.3422 -1.0036
 7325TIP3   OH243465   5.805   5.302  13.992 -0.1537  0.6732  0.1028
 7325TIP3    H143466   5.801   5.329  14.084 -0.0915  0.9070  0.0350
 7325TIP3    H243467   5.837   5.212  13.996 -0.5936  0.5219  0.3404
 7326TIP3   OH243468   6.285   5.804   4.735  0.3760  0.0285  0.4097
 7326TIP3    H143469   6.333   5.793   4.817  1.1614  2.1685  0.2752
 7326TIP3    H243470   6.328   5.877   4.691 -1.4948  0.4453 -0.8330
 7327TIP3   OH243471   2.690   2.123   1.805  0.1215 -0.6477  0.1071
 7327TIP3    H143472   2.776   2.157   1.782  0.7559 -3.4059 -2.1418
 7327TIP3    H243473   2.655   2.087   1.723 -3.0555  0.0326  1.0215
 7328TIP3   OH243474   2.692   3.120   3.182  0.4423 -0.2537  0.2234
 7328TIP3    H143475   2.677   3.076   3.266  1.7919  0.1400  0.7095
 7328TIP3    H243476   2.730   3.052   3.126 -0.3440 -0.4855 -0.0329
 7329TIP3   OH243477   6.659   3.323   2.465 -0.3947 -0.3294 -0.4537
 7329TIP3    H143478   6.659   3.228   2.466 -0.7259 -0.3856  2.4366
 7329TIP3    H243479   6.601   3.348   2.536  0.7314  2.0211 -0.2522
 7330TIP3   OH243480   1.694   5.331  16.820  0.2287  1.0105  0.5165
 7330TIP3    H143481   1.655   5.246  16.841  0.2819  1.2102  1.4703
 7330TIP3    H243482   1.618   5.387  16.802  0.2243  0.4824 -1.3549
 7331TIP3   OH243483   1.759   1.105  15.861 -0.0838 -0.6178 -0.0033
 7331TIP3    H143484   1.836   1.112  15.804 -0.3838 -2.2826 -0.6817
 7331TIP3    H243485   1.729   1.195  15.873  0.1371 -0.1761 -2.3056
 7332TIP3   OH243486   6.121   5.906   0.558 -0.0925 -0.5801  0.3221
 7332TIP3    H143487   6.101   5.987   0.607 -0.1533  0.6319 -1.6064
 7332TIP3    H243488   6.057   5.843   0.591 -1.2057  0.6554  0.6595
 7333TIP3   OH243489   6.269   4.403   1.034 -0.4380 -0.1874  0.1556
 7333TIP3    H143490   6.253   4.403   0.940  1.7104 -1.3876 -0.2839
 7333TIP3    H243491   6.315   4.321   1.051 -1.3370 -0.3069  2.3936
 7334TIP3   OH243492   1.456   6.021  12.222  0.7940 -0.2220 -0.1587
 7334TIP3    H143493   1.495   6.107  12.208 -0.3088  0.3481  0.1931
 7334TIP3    H243494   1.485   5.995  12.309 -0.3568  0.6181  0.4887
 7335TIP3   OH243495   4.895   6.281  11.981  0.0503  0.3307 -0.8246
 7335TIP3    H143496   4.959   6.341  12.021  0.1082 -0.2371 -0.0457
 7335TIP3    H243497   4.810   6.311  12.012 -0.0935  1.1101 -1.8923
 7336TIP3   OH243498   4.872   6.649   3.534  1.0463 -0.1523  0.0310
 7336TIP3    H143499   4.854   6.557   3.518 -0.0260  0.2444 -1.2294
 7336TIP3    H243500   4.925   6.676   3.459 -1.9295  1.1461 -1.7593
 7337TIP3   OH243501   4.835   0.015   6.099 -0.4873 -0.1141 -0.0280
 7337TIP3    H143502   4.834  -0.029   6.185  1.4976 -0.2151 -0.0093
 7337TIP3    H243503   4.805   0.104   6.117 -1.0450 -0.4140  0.5796
 7338TIP3   OH243504   1.927   5.982   0.541  0.1389  0.0083 -0.1547
 7338TIP3    H143505   1.870   6.059   0.536 -1.4988 -1.2235 -2.4809
 7338TIP3    H243506   1.892   5.931   0.614  1.5666  1.6010  1.7566
 7339TIP3   OH243507   5.291   1.026  12.790 -0.2145 -0.1770 -0.3220
 7339TIP3    H143508   5.271   0.935  12.770  0.1016  0.0879 -2.0256
 7339TIP3    H243509   5.356   1.052  12.725 -0.6865  1.4066 -0.2267
 7340TIP3   OH243510   4.051   1.905  11.226  0.1612 -0.3586  0.5476
 7340TIP3    H143511   4.111   1.852  11.173 -0.8150 -0.4125 -0.5524
 7340TIP3    H243512   4.030   1.980  11.171  0.9740  0.8483  1.8182
 7341TIP3   OH243513   2.746   1.674   5.875  0.2362 -0.6012 -0.4793
 7341TIP3    H143514   2.813   1.742   5.875  0.3170 -0.6662  0.2037
 7341TIP3    H243515   2.684   1.702   5.808  0.9391 -0.5398 -1.1199
 7342TIP3   OH243516   5.088   6.611   4.791 -0.5751  0.0145  0.1686
 7342TIP3    H143517   5.085   6.537   4.731 -0.1255  0.4355 -0.3751
 7342TIP3    H243518   5.119   6.685   4.738 -0.6699  0.5100  0.7877
 7343TIP3   OH243519   0.772   4.293  15.054 -0.0350 -0.2434  0.3485
 7343TIP3    H143520   0.714   4.345  14.998 -1.2277 -2.0435 -0.1728
 7343TIP3    H243521   0.740   4.307  15.143 -0.5436 -0.3275  0.1801
 7344TIP3   OH243522   0.976   1.681  16.952  0.1213 -0.3244  0.0035
 7344TIP3    H143523   1.071   1.691  16.939 -0.1156  1.0744 -0.8517
 7344TIP3    H243524   0.950   1.616  16.887  0.2871  0.3351 -0.7369
 7345TIP3   OH243525   0.768   2.443   4.206 -0.1355 -0.4262  0.3413
 7345TIP3    H143526   0.861   2.433   4.224  0.5441  1.4863 -1.6509
 7345TIP3    H243527   0.732   2.482   4.286  1.0874  0.1928  0.6132
 7346TIP3   OH243528   4.351   5.278  14.310 -0.2113  0.1191 -0.6397
 7346TIP3    H143529   4.428   5.283  14.368 -0.9266  0.4244  0.3026
 7346TIP3    H243530   4.384   5.235  14.231  0.5761 -1.1682  0.3442
 7347TIP3   OH243531   0.903   1.447  10.114 -0.5547 -0.4898 -0.2049
 7347TIP3    H143532   0.968   1.425  10.181 -0.2727 -2.0379 -0.9416
 7347TIP3    H243533   0.920   1.538  10.094  1.5052 -0.8846 -0.4617
 7348TIP3   OH243534   0.969   0.145   5.956  0.1696  0.3269  0.2921
 7348TIP3    H143535   0.887   0.189   5.979 -0.9909 -1.1999 -0.6865
 7348TIP3    H243536   0.967   0.064   6.006  1.4724  0.6106  0.8291
 7349TIP3   OH243537   4.402   6.059   3.928  0.1597  0.1416 -0.7105
 7349TIP3    H143538   4.482   6.102   3.959 -0.5826  1.3900 -0.4390
 7349TIP3    H243539   4.331   6.108   3.969 -0.7734 -0.4849 -1.5182
 7350TIP3   OH243540   5.457   5.232  11.542  0.1793  0.0681 -0.2610
 7350TIP3    H143541   5.381   5.206  11.491 -0.0051 -0.8673  0.4702
 7350TIP3    H243542   5.453   5.328  11.544  0.7168  0.1980 -2.7608
 7351TIP3   OH243543   6.233   1.500   5.727  0.0013  0.2895 -0.1748
 7351TIP3    H143544   6.142   1.475   5.743 -0.5150  1.4694 -1.0727
 7351TIP3    H243545   6.245   1.489   5.632  1.0251 -0.5549  0.0363
 7352TIP3   OH243546   0.816   0.324  11.072 -0.0239  0.1906 -0.2194
 7352TIP3    H143547   0.861   0.243  11.048  0.1958 -0.0242  0.8326
 7352TIP3    H243548   0.802   0.315  11.167 -2.8904 -0.0434 -0.5934
 7353TIP3   OH243549   5.364   3.068   4.977  0.0256 -0.5182 -0.2366
 7353TIP3    H143550   5.444   3.120   4.969  0.5666 -0.9282  1.8472
 7353TIP3    H243551   5.388   2.995   5.035 -1.9856 -0.3466  0.9154
 7354TIP3   OH243552   4.511   3.543   0.962 -0.5082 -0.2185  0.2082
 7354TIP3    H143553   4.600   3.548   0.927 -0.8946  0.6224 -0.6779
 7354TIP3    H243554   4.514   3.592   1.044  0.0368 -0.9263  0.6270
 7355TIP3   OH243555   3.938   4.105  12.972 -0.3916 -0.4625  0.0208
 7355TIP3    H143556   3.959   4.197  12.986  0.8571 -0.6720 -0.3710
 7355TIP3    H243557   3.968   4.087  12.883  0.8121 -1.6278  0.6284
 7356TIP3   OH243558   6.399   2.849  14.489  0.6387  0.2234  0.4517
 7356TIP3    H143559   6.335   2.888  14.548 -1.2722 -1.9464 -0.0295
 7356TIP3    H243560   6.431   2.772  14.535  0.8118 -0.2532 -0.4388
 7357TIP3   OH243561   0.149   3.793  16.335 -0.0574  0.5579 -0.0693
 7357TIP3    H143562   0.078   3.837  16.382  1.0464  0.5481  1.6867
 7357TIP3    H243563   0.173   3.854  16.265 -1.2719  0.9043 -0.2006
 7358TIP3   OH243564   6.333   2.165   5.814 -0.4187 -0.2587 -0.3503
 7358TIP3    H143565   6.355   2.250   5.852 -0.8857 -0.4703  0.4105
 7358TIP3    H243566   6.417   2.131   5.782 -0.2506  0.5417 -0.7994
 7359TIP3   OH243567   6.324   3.663   4.692  0.1719  0.3235 -0.2424
 7359TIP3    H143568   6.321   3.661   4.596 -1.8318 -0.4863 -0.2199
 7359TIP3    H243569   6.353   3.575   4.716 -0.3311  0.1950 -0.1005
 7360TIP3   OH243570   0.780   1.260   6.094 -0.1195 -0.1809 -0.5120
 7360TIP3    H143571   0.734   1.335   6.133 -0.7147 -1.3577  1.1597
 7360TIP3    H243572   0.845   1.235   6.160  0.1583 -1.0552 -1.1086
 7361TIP3   OH243573   2.465   1.942   1.840  0.8277  0.0194 -0.4508
 7361TIP3    H143574   2.478   2.034   1.816  0.5705  0.4154  0.8249
 7361TIP3    H243575   2.546   1.917   1.884  0.4732 -0.0094  0.2047
 7362TIP3   OH243576   2.138   2.966  16.219 -0.0463  0.0131 -0.3399
 7362TIP3    H143577   2.147   3.010  16.303 -0.4828  0.6174 -0.5981
 7362TIP3    H243578   2.094   2.883  16.239 -0.5663  0.3595 -0.0265
 7363TIP3   OH243579   3.306   6.559   5.525  0.0162  0.5735  0.1009
 7363TIP3    H143580   3.256   6.484   5.493 -2.5744  1.4256  1.8283
 7363TIP3    H243581   3.289   6.628   5.460  3.3172 -0.4472 -2.1174
 7364TIP3   OH243582   5.082   3.307  15.142  0.1070  0.2592 -0.2760
 7364TIP3    H143583   5.040   3.257  15.071 -1.4644  0.0297  0.7749
 7364TIP3    H243584   5.165   3.261  15.157 -0.2776 -0.6574 -0.8771
 7365TIP3   OH243585   5.137   1.063  12.116 -0.0587  0.2502 -1.3734
 7365TIP3    H143586   5.089   1.035  12.194  2.6228 -0.4851  0.1388
 7365TIP3    H243587   5.132   1.159  12.118 -1.9410  0.1976 -1.6616
 7366TIP3   OH243588   6.340   0.468   1.978 -0.9486 -0.5942 -0.6085
 7366TIP3    H143589   6.419   0.422   2.005 -0.1393  0.8945 -0.3275
 7366TIP3    H243590   6.271   0.402   1.981  0.1446 -1.7479 -0.1567
 7367TIP3   OH243591   6.151   5.825   2.435  0.1208 -0.5404  0.7743
 7367TIP3    H143592   6.097   5.785   2.503 -0.8148 -0.4189  0.1128
 7367TIP3    H243593   6.174   5.753   2.377 -2.1803 -0.0783 -0.8341
 7368TIP3   OH243594   0.759   4.594  11.676  0.4035  0.2076  0.1125
 7368TIP3    H143595   0.757   4.689  11.667 -0.2933  0.2556  0.7460
 7368TIP3    H243596   0.726   4.577  11.764 -0.0291 -0.6495 -0.2019
 7369TIP3   OH243597   2.295   6.235  14.991 -0.3533  0.3124  0.4611
 7369TIP3    H143598   2.267   6.327  14.988  1.0148  0.7688  0.7872
 7369TIP3    H243599   2.300   6.208  14.900  1.0688  1.1697  0.2607
 7370TIP3   OH243600   4.540   3.538   3.725  0.1389 -0.4062 -0.2020
 7370TIP3    H143601   4.484   3.580   3.659 -0.3897 -1.0161 -0.1481
 7370TIP3    H243602   4.555   3.450   3.691 -0.9352 -1.0561  0.9487
 7371TIP3   OH243603   4.981   4.824   3.992  0.1034  0.0243 -0.3928
 7371TIP3    H143604   5.070   4.856   4.008 -0.0892  0.4093 -0.0566
 7371TIP3    H243605   4.960   4.856   3.904  0.0964  0.4053 -0.2559
 7372TIP3   OH243606   3.013   0.485  16.470  0.0468 -0.0922 -0.1460
 7372TIP3    H143607   3.061   0.554  16.425  0.2033 -0.0066  0.1528
 7372TIP3    H243608   3.079   0.443  16.527 -0.5717  1.0291  1.4492
 7373TIP3   OH243609   1.840   6.708  17.492  0.0153 -0.7039 -0.2326
 7373TIP3    H143610   1.902   6.757  17.437  0.0493 -0.7417 -0.2293
 7373TIP3    H243611   1.756   6.751  17.479 -0.1169 -1.1321 -0.8482
 7374TIP3   OH243612   3.831   3.180   1.349 -0.6402  0.8855 -0.2743
 7374TIP3    H143613   3.763   3.115   1.367 -0.8005  1.2333  0.3911
 7374TIP3    H243614   3.913   3.129   1.350 -0.7807  0.6642  0.0941
 7375TIP3   OH243615   2.412   4.386   2.068  0.8078  0.1126 -0.3765
 7375TIP3    H143616   2.328   4.370   2.025  1.0035 -0.2869 -0.6112
 7375TIP3    H243617   2.403   4.346   2.155 -0.1798  2.3322  0.6191
 7376TIP3   OH243618   0.920   5.603  15.921 -0.2653 -0.3109  0.2624
 7376TIP3    H143619   0.903   5.697  15.925 -0.8122 -0.3834 -0.2529
 7376TIP3    H243620   0.852   5.563  15.975  0.5027 -0.3605  1.2216
 7377TIP3   OH243621   0.734   3.533   2.661  0.4914 -0.0353 -0.0031
 7377TIP3    H143622   0.698   3.475   2.594 -0.0324  0.3054 -0.0139
 7377TIP3    H243623   0.747   3.617   2.617  1.1836 -0.1123  0.0342
 7378TIP3   OH243624   1.452   0.490  11.238 -0.5806 -0.0362 -0.3464
 7378TIP3    H143625   1.514   0.542  11.290 -1.0603  1.5215 -1.2513
 7378TIP3    H243626   1.484   0.400  11.244 -0.1272  0.2279  1.8896
 7379TIP3   OH243627   1.529   0.743  12.563 -0.4696  0.7945  0.6422
 7379TIP3    H143628   1.494   0.765  12.649 -0.5353  1.7221  0.3963
 7379TIP3    H243629   1.460   0.690  12.522 -1.8350  2.8699  0.0401
 7380TIP3   OH243630   3.220   6.145   2.811 -0.4053  0.2508 -0.2751
 7380TIP3    H143631   3.286   6.080   2.837 -0.2289 -0.1021 -1.5164
 7380TIP3    H243632   3.234   6.156   2.717 -2.2461  0.0260 -0.6068
 7381TIP3   OH243633   1.996   1.524   5.567  0.2506  0.1492 -0.4343
 7381TIP3    H143634   2.002   1.582   5.643 -0.3230 -0.2325 -0.0935
 7381TIP3    H243635   2.087   1.503   5.546  0.4058 -0.0878  0.4242
 7382TIP3   OH243636   6.648   3.859  16.974 -0.1214  0.3200  0.5816
 7382TIP3    H143637   6.577   3.866  17.038 -0.7931  1.3910 -0.2552
 7382TIP3    H243638   6.654   3.765  16.954 -0.6421  0.1157  1.3838
 7383TIP3   OH243639   5.070   4.861  13.800  0.2325  0.0817 -0.0234
 7383TIP3    H143640   5.083   4.955  13.813  0.8054  0.1231 -0.7897
 7383TIP3    H243641   5.140   4.836  13.739 -1.3691 -0.3561 -1.7646
 7384TIP3   OH243642   6.280   4.378   2.510  0.7209 -0.2505 -0.0782
 7384TIP3    H143643   6.327   4.461   2.504  0.7060 -0.1792  0.7640
 7384TIP3    H243644   6.196   4.395   2.466 -1.0154  1.4443  3.4904
 7385TIP3   OH243645   0.576   2.186   4.731  0.3020  0.9273  0.2103
 7385TIP3    H143646   0.482   2.170   4.742 -0.0002  1.1672 -1.7265
 7385TIP3    H243647   0.582   2.280   4.718  0.3239  0.5725 -3.2426
 7386TIP3   OH243648   5.343   5.517  13.803  0.4144 -0.4101 -0.4228
 7386TIP3    H143649   5.370   5.609  13.794 -0.0454 -0.0814  1.1575
 7386TIP3    H243650   5.382   5.490  13.886 -2.7205 -0.3729  1.2028
 7387TIP3   OH243651   4.765   6.110   3.032 -0.5730 -0.4010 -0.3480
 7387TIP3    H143652   4.700   6.165   2.988 -1.8748 -1.2400  0.4486
 7387TIP3    H243653   4.830   6.091   2.965 -0.0123  2.1452 -0.6466
 7388TIP3   OH243654   4.336   3.887   1.119  0.1530 -0.6138 -0.2167
 7388TIP3    H143655   4.396   3.892   1.045  1.0826 -0.9097  0.4991
 7388TIP3    H243656   4.249   3.889   1.079  0.6341 -0.9426 -1.3231
 7389TIP3   OH243657   5.441   3.174  15.400 -0.1308 -0.0868 -0.2631
 7389TIP3    H143658   5.406   3.256  15.434  0.2044  0.4549 -1.1904
 7389TIP3    H243659   5.411   3.108  15.462  0.3933  0.8397  1.0348
 7390TIP3   OH243660   5.278   1.666   0.367 -0.0339 -0.0137  0.1153
 7390TIP3    H143661   5.215   1.682   0.437  0.9643 -0.1824  1.0901
 7390TIP3    H243662   5.307   1.575   0.382 -0.1187 -0.1981 -0.7800
 7391TIP3   OH243663   5.261   4.765  15.095 -0.1465 -0.3039 -0.0709
 7391TIP3    H143664   5.195   4.836  15.095 -0.4440 -0.5626 -1.1587
 7391TIP3    H243665   5.215   4.690  15.134 -0.4160 -0.4064 -0.5786
 7392TIP3   OH243666   3.714   4.871   4.516 -0.7281 -0.1432  0.0546
 7392TIP3    H143667   3.710   4.823   4.599  1.0791 -3.7565 -1.6890
 7392TIP3    H243668   3.643   4.834   4.464 -0.1417  0.0449 -0.9002
 7393TIP3   OH243669   3.385   3.191   2.303  0.9306  0.6975 -0.0559
 7393TIP3    H143670   3.354   3.170   2.391  2.4391 -0.1311  0.3026
 7393TIP3    H243671   3.337   3.271   2.279 -1.6450 -0.6097  0.3415
 7394TIP3   OH243672   1.257   3.542  15.244 -0.5027 -0.0983  0.1148
 7394TIP3    H143673   1.246   3.449  15.224 -0.3855  0.1167 -1.0721
 7394TIP3    H243674   1.234   3.586  15.162  0.4713  0.8545  0.3274
 7395TIP3   OH243675   0.215   3.138  16.593 -0.3110 -0.1008 -0.2398
 7395TIP3    H143676   0.190   3.112  16.682 -0.6843  0.8015 -0.0706
 7395TIP3    H243677   0.299   3.095  16.578 -0.7795 -1.1685  0.1203
 7396TIP3   OH243678   3.231   2.166  11.542  0.2925 -0.1473 -0.3625
 7396TIP3    H143679   3.275   2.090  11.504 -0.8256 -0.2002 -1.6403
 7396TIP3    H243680   3.196   2.214  11.466 -1.9035 -0.1648  0.5657
 7397TIP3   OH243681   1.028   1.780   2.260 -0.3204 -0.6165 -0.3787
 7397TIP3    H143682   1.122   1.767   2.255 -0.2068 -0.3453  0.8130
 7397TIP3    H243683   0.991   1.701   2.221  0.3969 -1.0767 -0.1402
 7398TIP3   OH243684   3.463   4.167  12.703 -0.0519 -0.1267 -0.0094
 7398TIP3    H143685   3.497   4.079  12.687  1.7020 -0.0430  2.7336
 7398TIP3    H243686   3.529   4.226  12.665 -1.1671  0.0925 -1.7422
 7399TIP3   OH243687   4.174   3.555  16.132 -0.1763 -0.3819  0.4348
 7399TIP3    H143688   4.255   3.578  16.087 -0.7887 -0.4321 -0.7405
 7399TIP3    H243689   4.137   3.639  16.159 -1.1041 -0.0839 -1.5368
 7400TIP3   OH243690   3.297   3.520   2.800 -0.3209 -0.0363  0.4091
 7400TIP3    H143691   3.351   3.595   2.777  0.2625 -0.2586  1.0269
 7400TIP3    H243692   3.224   3.523   2.738  1.0764 -0.4901 -1.3074
 7401TIP3   OH243693   6.444   6.229  15.825  0.1200 -0.4050 -0.0029
 7401TIP3    H143694   6.419   6.137  15.829 -0.7257 -0.1902  0.0644
 7401TIP3    H243695   6.438   6.251  15.732 -1.7046  0.0791  0.1875
 7402TIP3   OH243696   3.718   1.060  15.478 -0.3120 -0.0016 -0.2162
 7402TIP3    H143697   3.739   1.046  15.570 -0.2699  2.4973  0.2359
 7402TIP3    H243698   3.663   1.139  15.478 -1.8440 -0.9818 -2.1871
 7403TIP3   OH243699   1.469   3.855  14.612  0.3959  0.2239 -0.1312
 7403TIP3    H143700   1.437   3.835  14.699  1.3398  1.6882  0.5914
 7403TIP3    H243701   1.414   3.927  14.581  0.3514  0.0065 -0.5682
 7404TIP3   OH243702   1.979   6.602  15.384  0.3420 -0.2543  0.1823
 7404TIP3    H143703   2.068   6.631  15.407  0.0086  2.1022 -1.1559
 7404TIP3    H243704   1.924   6.643  15.451  0.1941 -1.5592  0.8985
 7405TIP3   OH243705   4.505   1.164  16.318  0.1882  0.6161 -0.1800
 7405TIP3    H143706   4.583   1.120  16.353  0.3508 -0.0425 -1.3269
 7405TIP3    H243707   4.532   1.255  16.307  0.5406  0.5599  0.2015
 7406TIP3   OH243708   3.609   1.978  14.677  0.1201  0.3016  0.2376
 7406TIP3    H143709   3.551   1.952  14.749  0.2547 -0.4121  0.0950
 7406TIP3    H243710   3.557   2.041  14.627 -0.6609 -0.5512 -0.0610
 7407TIP3   OH243711   1.617   6.368  15.897  0.0548 -0.1576  0.0721
 7407TIP3    H143712   1.532   6.334  15.872 -1.3787  0.2407  3.7115
 7407TIP3    H243713   1.638   6.434  15.831 -2.5001 -0.2219 -0.8840
 7408TIP3   OH243714   5.708   4.752  11.733  0.2445  0.5257  0.1311
 7408TIP3    H143715   5.726   4.824  11.672 -0.0854 -0.3651 -1.0322
 7408TIP3    H243716   5.747   4.675  11.692  1.9689  0.2548  2.0812
 7409TIP3   OH243717   6.380   2.671  13.346  0.2811 -0.2494  0.0784
 7409TIP3    H143718   6.442   2.688  13.275  1.9476 -1.2901  1.2170
 7409TIP3    H243719   6.370   2.755  13.390  0.1800  0.1223 -0.6269
 7410TIP3   OH243720   5.840   5.736  11.875  0.8344  0.2053  0.1373
 7410TIP3    H143721   5.820   5.643  11.885  1.9435 -0.2620 -1.5435
 7410TIP3    H243722   5.758   5.780  11.897 -0.2521 -1.2814 -0.7048
 7411TIP3   OH243723   5.180   5.719   5.052  0.0815 -0.1572  0.1874
 7411TIP3    H143724   5.142   5.748   4.969 -2.2252 -1.4095  0.7074
 7411TIP3    H243725   5.119   5.751   5.119 -0.3576 -2.6231  1.0560
 7412TIP3   OH243726   3.634   6.344   3.143  0.1548 -0.2448 -0.1401
 7412TIP3    H143727   3.695   6.365   3.073  1.9998  0.1514  1.4779
 7412TIP3    H243728   3.566   6.411   3.138  0.5410  0.0768 -1.2141
 7413TIP3   OH243729   3.606   2.104   1.329  0.0409  0.0151 -0.2324
 7413TIP3    H143730   3.604   2.101   1.233 -1.0741  0.1861 -0.2294
 7413TIP3    H243731   3.609   2.197   1.350 -0.7194  0.0152 -0.1011
 7414TIP3   OH243732   0.022   5.275   0.520  0.1284  0.0579 -0.1451
 7414TIP3    H143733   0.028   5.371   0.526  1.1255 -0.0123  0.2170
 7414TIP3    H243734   0.113   5.247   0.510  0.7353 -1.2186  5.5833
 7415TIP3   OH243735   6.708   0.272  17.408 -0.1652 -0.2834  0.3880
 7415TIP3    H143736   6.799   0.283  17.435 -0.0636  0.5927 -0.2800
 7415TIP3    H243737   6.679   0.193  17.454  0.7828 -0.3049  0.9796
 7416TIP3   OH243738   2.908   3.517  12.423 -0.2286 -0.0897  0.3367
 7416TIP3    H143739   2.830   3.542  12.374  0.6244  0.9778 -0.5415
 7416TIP3    H243740   2.922   3.589  12.484 -0.6203 -0.8651  1.3646
 7417TIP3   OH243741   2.152   0.556  14.509  0.3154  0.5162 -0.0937
 7417TIP3    H143742   2.196   0.577  14.427 -0.5434  1.3762 -0.3537
 7417TIP3    H243743   2.097   0.480  14.488  0.2770  0.5877 -0.2558
 7418TIP3   OH243744   4.079   5.285  12.010 -0.1451  0.3429  0.0722
 7418TIP3    H143745   4.173   5.267  12.015 -0.2502 -0.0845  0.7446
 7418TIP3    H243746   4.052   5.249  11.925  0.4404  1.2104 -0.4905
 7419TIP3   OH243747   2.024   4.802  15.264 -0.3904  0.2801  0.3082
 7419TIP3    H143748   1.972   4.725  15.243  0.2595 -0.0420 -0.1801
 7419TIP3    H243749   1.962   4.875  15.261 -1.1244 -0.2876  1.3501
 7420TIP3   OH243750   5.959   4.134   5.900  0.0009 -0.0189  0.3854
 7420TIP3    H143751   5.968   4.111   5.992 -0.0746 -0.0778  0.3777
 7420TIP3    H243752   5.865   4.151   5.888 -0.0572 -0.4528  0.2149
 7421TIP3   OH243753   3.229   3.210  12.193  0.0090  0.6419  0.1687
 7421TIP3    H143754   3.325   3.209  12.188 -0.0058  0.0681 -0.0433
 7421TIP3    H243755   3.210   3.242  12.281  0.3884  1.2448  0.0367
 7422TIP3   OH243756   3.775   0.752  16.598 -0.0264  0.7360 -0.2953
 7422TIP3    H143757   3.838   0.686  16.628 -0.5397 -0.1627 -1.1445
 7422TIP3    H243758   3.731   0.711  16.524 -1.7079  1.3017  0.3631
 7423TIP3   OH243759   1.574   0.997   5.881  0.2571 -0.2215  0.0321
 7423TIP3    H143760   1.609   0.925   5.829  0.4328  0.1962 -0.4343
 7423TIP3    H243761   1.491   1.019   5.839 -0.0209 -0.4599  0.4543
 7424TIP3   OH243762   1.341   5.856   3.260 -0.2058  0.1217 -0.1000
 7424TIP3    H143763   1.366   5.764   3.269  3.7006  0.8275 -1.3485
 7424TIP3    H243764   1.277   5.857   3.189 -1.2229 -1.6974  0.7372
 7425TIP3   OH243765   0.097   3.760  16.668  0.3175  0.1446 -0.7053
 7425TIP3    H143766   0.137   3.836  16.710  0.1424  0.2968 -0.8095
 7425TIP3    H243767   0.037   3.797  16.603 -1.0256 -0.0334  0.3884
 7426TIP3   OH243768   4.884   2.197   5.113 -0.9637 -0.0708 -0.8270
 7426TIP3    H143769   4.923   2.111   5.128  1.0542  0.7945 -0.8624
 7426TIP3    H243770   4.832   2.214   5.192  0.6213 -0.2799  0.3079
 7427TIP3   OH243771   4.585   5.622   3.788 -0.4400  0.0864 -0.5546
 7427TIP3    H143772   4.671   5.647   3.757 -0.5215 -0.3806 -1.1825
 7427TIP3    H243773   4.555   5.555   3.726 -0.4395 -1.1860  0.7562
 7428TIP3   OH243774   6.342   5.450   3.475  0.1065  0.2223 -0.2199
 7428TIP3    H143775   6.337   5.526   3.533 -0.8841  1.2843 -1.6386
 7428TIP3    H243776   6.401   5.478   3.404 -1.2629  0.1557 -1.4159
 7429TIP3   OH243777   2.347   0.652  15.836 -0.0629  0.2425 -0.1044
 7429TIP3    H143778   2.261   0.662  15.877 -0.2467  0.4819 -0.5349
 7429TIP3    H243779   2.407   0.701  15.893 -0.0709 -0.5691  0.6193
 7430TIP3   OH243780   5.386   2.383   5.787  0.9246  0.0769  0.2182
 7430TIP3    H143781   5.396   2.288   5.781 -1.7616 -0.2599 -0.0033
 7430TIP3    H243782   5.421   2.406   5.873 -1.8914 -1.7243  1.9879
 7431TIP3   OH243783   2.315   6.664  13.806  0.4138 -0.0535 -0.3015
 7431TIP3    H143784   2.345   6.755  13.803 -2.2956  0.9455  0.7685
 7431TIP3    H243785   2.234   6.664  13.756 -1.5754 -1.0301  2.7066
 7432TIP3   OH243786   6.230   6.033   0.162  0.1334  0.1743 -0.1524
 7432TIP3    H143787   6.260   6.111   0.115  0.5526  0.6204  0.8256
 7432TIP3    H243788   6.183   5.982   0.096  0.7790  0.7330 -1.0725
 7433TIP3   OH243789   6.675   6.437   6.257  0.3052  0.6581  0.2001
 7433TIP3    H143790   6.728   6.507   6.296 -0.1390  0.6101  0.9121
 7433TIP3    H243791   6.739   6.376   6.220  0.7259  0.9213  0.4873
 7434TIP3   OH243792   0.252   1.270  11.749  0.9130 -1.1033  0.2443
 7434TIP3    H143793   0.205   1.348  11.720 -0.0360 -2.0543 -0.9039
 7434TIP3    H243794   0.184   1.210  11.778  1.6745 -1.3034  1.7187
 7435TIP3   OH243795   1.796   0.249  14.308 -0.0959  0.3644  0.7516
 7435TIP3    H143796   1.781   0.170  14.360  1.4734 -0.5595 -0.1214
 7435TIP3    H243797   1.794   0.219  14.217  2.0820  0.9790  0.4342
 7436TIP3   OH243798   4.006   0.094   4.247  0.5386  0.1174 -0.2668
 7436TIP3    H143799   3.917   0.125   4.235  0.1269 -1.2048 -0.8179
 7436TIP3    H243800   4.033   0.064   4.160  1.4480  0.3085 -0.0657
 7437TIP3   OH243801   5.802   2.088   2.793 -0.5245  0.5040  0.4077
 7437TIP3    H143802   5.765   2.065   2.879  2.3771  1.3464  2.0111
 7437TIP3    H243803   5.757   2.169   2.769 -1.2753  0.3339  1.1711
 7438TIP3   OH243804   5.954   1.870   4.377  0.1044 -0.0183  0.0090
 7438TIP3    H143805   5.915   1.891   4.462 -1.2031  0.2890 -0.6469
 7438TIP3    H243806   5.889   1.898   4.313  1.1680 -0.0331 -1.1163
 7439TIP3   OH243807   0.301   0.558  17.226  0.1211  0.1035  0.1504
 7439TIP3    H143808   0.282   0.651  17.236 -0.5681  0.2183 -1.8157
 7439TIP3    H243809   0.219   0.514  17.249 -0.0207  0.0908 -0.3624
 7440TIP3   OH243810   6.749   3.435  12.747 -0.2399  0.0379 -0.7656
 7440TIP3    H143811   6.717   3.442  12.657  1.2385  0.6792 -1.2826
 7440TIP3    H243812   6.762   3.526  12.775  0.1858 -0.1766 -0.2453
 7441TIP3   OH243813   1.906   0.190  16.397 -0.2065 -0.1143  0.2910
 7441TIP3    H143814   1.828   0.244  16.409 -0.2701 -0.4436  1.4509
 7441TIP3    H243815   1.876   0.116  16.343 -1.7910 -2.3732  3.9055
 7442TIP3   OH243816   5.574   6.275   2.758 -0.4940 -0.3364 -0.1275
 7442TIP3    H143817   5.627   6.200   2.785  0.3295  0.4294  0.4553
 7442TIP3    H243818   5.488   6.259   2.796  0.1179 -0.2249  1.3710
 7443TIP3   OH243819   4.080   4.915  13.833  0.5063  0.7696  0.5319
 7443TIP3    H143820   4.000   4.887  13.790 -0.0292  0.3693  1.7322
 7443TIP3    H243821   4.106   4.994  13.787 -0.4494  0.7761 -0.0249
 7444TIP3   OH243822   3.094   0.098  11.080 -0.0829  0.1565  0.1750
 7444TIP3    H143823   3.165   0.132  11.134  0.2244 -0.9437  0.4879
 7444TIP3    H243824   3.104   0.143  10.996  0.5855  0.4796  0.4234
 7445TIP3   OH243825   0.546   1.455  13.451  0.0649  0.0324  0.5439
 7445TIP3    H143826   0.490   1.387  13.413 -0.8900  1.1173 -0.0267
 7445TIP3    H243827   0.630   1.446  13.405 -0.6346  0.4300 -0.8375
 7446TIP3   OH243828   0.858   4.719  13.194  0.2375 -0.0388 -0.4941
 7446TIP3    H143829   0.892   4.630  13.204  0.9026  0.3638  1.0622
 7446TIP3    H243830   0.780   4.721  13.248  0.6841  0.5542  0.1373
 7447TIP3   OH243831   5.265   6.726  11.458  0.2516  0.2129  0.3458
 7447TIP3    H143832   5.254   6.807  11.508  0.1764  1.0860 -1.0300
 7447TIP3    H243833   5.310   6.753  11.378  1.1116 -1.2831  0.3010
 7448TIP3   OH243834   0.363   0.659  12.780 -0.0024  0.1379  0.2652
 7448TIP3    H143835   0.440   0.617  12.742 -0.0613  0.7029 -0.4985
 7448TIP3    H243836   0.297   0.589  12.783 -0.1173  0.1557 -1.0476
 7449TIP3   OH243837   2.127   5.428  15.791 -0.1164 -0.2403  0.3749
 7449TIP3    H143838   2.064   5.416  15.720  0.7223 -1.7002 -0.1650
 7449TIP3    H243839   2.107   5.357  15.853  1.3913 -1.1243 -0.1216
 7450TIP3   OH243840   0.124   5.349   5.609 -0.1397 -0.1711 -0.6820
 7450TIP3    H143841   0.101   5.273   5.556  1.0564 -0.1538 -1.2520
 7450TIP3    H243842   0.214   5.369   5.585  0.3359  0.0608  1.0907
 7451TIP3   OH243843   1.394   3.494  14.042 -0.8969  0.5999 -0.0883
 7451TIP3    H143844   1.411   3.424  14.104 -1.1744  0.8230  0.2428
 7451TIP3    H243845   1.415   3.574  14.090 -0.3813  0.7370 -0.5304
 7452TIP3   OH243846   6.614   4.153   1.107 -0.5594 -0.0345 -0.2120
 7452TIP3    H143847   6.520   4.152   1.091 -0.7866  1.4954  0.8244
 7452TIP3    H243848   6.623   4.138   1.201  0.3483 -1.7605 -0.5317
 7453TIP3   OH243849   4.532   5.887  15.761  0.1416 -0.1673  0.2679
 7453TIP3    H143850   4.522   5.919  15.672 -1.4282  1.0397  0.8317
 7453TIP3    H243851   4.508   5.961  15.816  2.9403 -0.2409  1.7735
 7454TIP3   OH243852   0.656   2.211  16.451 -0.2928 -0.2625  0.0539
 7454TIP3    H143853   0.622   2.300  16.448 -0.6297 -0.4190 -0.9922
 7454TIP3    H243854   0.698   2.205  16.537 -0.6230  0.7657  0.3049
 7455TIP3   OH243855   6.665   5.175   0.885  0.0952 -0.3571 -0.0277
 7455TIP3    H143856   6.758   5.160   0.899  1.3769  3.7755 -2.4386
 7455TIP3    H243857   6.647   5.136   0.799  0.3996  1.2017 -0.8327
 7456TIP3   OH243858   3.851   5.787  11.137  0.4100 -0.2535 -0.1262
 7456TIP3    H143859   3.846   5.705  11.088  2.1375 -0.4925  0.0559
 7456TIP3    H243860   3.900   5.846  11.080  2.6985 -0.6189  1.3597
 7457TIP3   OH243861   1.421   1.582  10.533 -0.1023  0.1239  0.3748
 7457TIP3    H143862   1.423   1.675  10.513 -0.8447 -0.0877 -0.7938
 7457TIP3    H243863   1.328   1.563  10.549  0.1926 -0.1783  1.8824
 7458TIP3   OH243864   5.117   6.028   1.494 -0.2784  0.4146  0.0213
 7458TIP3    H143865   5.127   6.119   1.520 -2.9386  0.8114 -0.0016
 7458TIP3    H243866   5.104   5.981   1.576  1.2977 -0.0151  0.0498
 7459TIP3   OH243867   2.810   4.326   5.709  0.3878 -0.0898  0.4438
 7459TIP3    H143868   2.794   4.268   5.783  0.5527 -0.3423  0.2809
 7459TIP3    H243869   2.774   4.411   5.737  0.3983 -0.1983  0.7876
 7460TIP3   OH243870   4.911   3.528   3.493  0.6681  0.0434 -0.3300
 7460TIP3    H143871   4.835   3.542   3.436  1.0778 -1.7621 -1.3993
 7460TIP3    H243872   4.911   3.604   3.551 -1.5164  0.4548 -0.7685
 7461TIP3   OH243873   6.659   2.286  14.095  0.8563 -0.8393 -0.2317
 7461TIP3    H143874   6.616   2.277  14.010  0.4870  1.7113 -0.3778
 7461TIP3    H243875   6.589   2.274  14.159  0.6025 -0.1077 -0.3711
 7462TIP3   OH243876   5.183   4.270  16.450 -0.0578 -0.0556  0.5372
 7462TIP3    H143877   5.102   4.244  16.495 -0.1721  2.6096  2.1412
 7462TIP3    H243878   5.160   4.270  16.357 -1.6379 -0.2569  0.8943
 7463TIP3   OH243879   5.097   3.367   4.703 -0.3866  0.4267  0.2759
 7463TIP3    H143880   5.090   3.453   4.744  0.4898  0.8129 -0.3402
 7463TIP3    H243881   5.153   3.382   4.626 -1.5490 -0.3824 -0.7541
 7464TIP3   OH243882   4.346   2.163  15.456  0.1235 -0.5191 -0.1393
 7464TIP3    H143883   4.360   2.252  15.489  0.1023 -0.3323 -0.6199
 7464TIP3    H243884   4.261   2.168  15.411  0.4917 -0.5741 -0.8590
 7465TIP3   OH243885   2.551   4.730   1.129  0.1294  0.5040 -0.3898
 7465TIP3    H143886   2.502   4.694   1.055  1.1779  2.5055 -2.1819
 7465TIP3    H243887   2.642   4.732   1.100  0.4358  2.2408  0.5275
 7466TIP3   OH243888   0.289   4.141  13.049 -0.1390 -0.4266  0.7681
 7466TIP3    H143889   0.245   4.217  13.088 -0.3917  0.9088 -1.8752
 7466TIP3    H243890   0.309   4.084  13.123 -0.8101  1.7641  2.7584
 7467TIP3   OH243891   2.759   6.690   5.552  0.8447  0.1919 -0.3456
 7467TIP3    H143892   2.807   6.641   5.619  1.4047  1.6765  0.3954
 7467TIP3    H243893   2.678   6.718   5.596  0.6181  0.0966 -0.6949
 7468TIP3   OH243894   4.651   5.915  10.353 -0.2438  0.0862  0.1022
 7468TIP3    H143895   4.704   5.984  10.313  1.9270  0.9605  3.9250
 7468TIP3    H243896   4.568   5.958  10.373 -0.1290  0.5878 -0.4505
 7469TIP3   OH243897   5.361   0.768  14.085 -0.5255  0.0801 -0.4309
 7469TIP3    H143898   5.404   0.783  14.002 -0.3604  0.4344 -0.2822
 7469TIP3    H243899   5.270   0.796  14.071  0.1385  2.9360  0.3273
 7470TIP3   OH243900   4.131   4.249   2.604  0.2632  0.2007 -0.7138
 7470TIP3    H143901   4.213   4.285   2.638 -0.7456  2.4654 -0.5230
 7470TIP3    H243902   4.144   4.247   2.509  0.5789  0.4341 -0.6759
 7471TIP3   OH243903   2.645   1.703  16.918  0.0515 -0.1567 -0.0146
 7471TIP3    H143904   2.683   1.778  16.874 -0.2140  0.4424  0.7635
 7471TIP3    H243905   2.600   1.739  16.994 -0.4388 -1.0537  0.1403
 7472TIP3   OH243906   5.276   2.283   4.489 -0.2185  0.0339 -0.3316
 7472TIP3    H143907   5.263   2.354   4.426  1.9798  0.4763 -0.3859
 7472TIP3    H243908   5.199   2.227   4.479 -1.4292  1.7454 -1.1586
 7473TIP3   OH243909   3.463   2.834  15.793 -0.1339  0.4810 -0.2024
 7473TIP3    H143910   3.486   2.789  15.711 -1.0306 -0.8484  0.2561
 7473TIP3    H243911   3.544   2.834  15.843  0.0184 -0.1229 -0.4399
 7474TIP3   OH243912   6.237   0.643   3.217  0.0082  0.5936  0.0664
 7474TIP3    H143913   6.317   0.681   3.255  0.1879 -1.1297  1.5775
 7474TIP3    H243914   6.179   0.718   3.203  1.5878  1.8053 -0.3712
 7475TIP3   OH243915   4.213   5.737   5.604 -0.2170 -0.1777  0.4456
 7475TIP3    H143916   4.124   5.702   5.595 -0.3043 -0.5220  2.2082
 7475TIP3    H243917   4.234   5.771   5.518 -1.8399 -0.6159 -0.1678
 7476TIP3   OH243918   1.344   6.530  14.675 -0.5457 -0.4623 -0.0544
 7476TIP3    H143919   1.366   6.456  14.732 -1.2379  0.4856  1.5135
 7476TIP3    H243920   1.408   6.526  14.604  0.4635 -1.5931  0.8730
 7477TIP3   OH243921   2.983   0.451  15.903 -0.3073  0.2355 -0.0376
 7477TIP3    H143922   2.996   0.396  15.825  0.2345 -1.2181  1.0294
 7477TIP3    H243923   2.926   0.521  15.873 -2.4138 -1.7846 -1.1447
 7478TIP3   OH243924   1.681   3.093   1.794  0.2685  1.1873 -0.7678
 7478TIP3    H143925   1.749   3.027   1.809  0.1179  1.2348  0.1896
 7478TIP3    H243926   1.599   3.043   1.798  0.0549  1.5983  1.3922
 7479TIP3   OH243927   0.021   0.731  16.394 -0.0859 -0.1828 -0.6505
 7479TIP3    H143928  -0.018   0.802  16.445  2.0437  2.2324 -2.1290
 7479TIP3    H243929   0.019   0.763  16.304  0.5051 -2.2528 -1.4358
 7480TIP3   OH243930   5.993   0.225   3.770  0.8352 -0.1068  0.1726
 7480TIP3    H143931   6.028   0.304   3.730 -2.7307  0.7582 -1.6866
 7480TIP3    H243932   5.984   0.163   3.698  0.8445 -1.1558  1.0460
 7481TIP3   OH243933   4.461   5.401   5.664 -1.0376 -0.7313  0.2979
 7481TIP3    H143934   4.551   5.393   5.633 -0.8712  2.9603 -0.7167
 7481TIP3    H243935   4.456   5.345   5.741  2.7040  0.2883  1.4866
 7482TIP3   OH243936   2.034   0.750  15.336 -0.3954  0.3611 -0.0022
 7482TIP3    H143937   1.952   0.776  15.295 -0.0073 -0.1655 -1.1818
 7482TIP3    H243938   2.100   0.763  15.267  1.0028  3.4247  1.7516
 7483TIP3   OH243939   0.056   5.573  16.456 -0.2964 -0.4161  0.8073
 7483TIP3    H143940   0.151   5.569  16.450  0.3371  4.8154  2.1257
 7483TIP3    H243941   0.037   5.546  16.546  0.0469 -0.5842  0.8323
 7484TIP3   OH243942   3.811   2.770  15.274  0.1416  0.1031 -1.0664
 7484TIP3    H143943   3.717   2.760  15.260  0.0730  0.7004 -1.0692
 7484TIP3    H243944   3.844   2.799  15.189  0.1439  1.0637 -0.7471
 7485TIP3   OH243945   2.612   2.805   2.727  0.3508  0.3488 -0.1674
 7485TIP3    H143946   2.705   2.785   2.720  0.2668 -0.9552  1.7979
 7485TIP3    H243947   2.609   2.891   2.768  0.7559 -0.6999  2.2221
 7486TIP3   OH243948   1.030   5.671   0.301 -0.6743  0.1954 -0.6132
 7486TIP3    H143949   1.087   5.741   0.333 -0.6421  0.3226 -0.9348
 7486TIP3    H243950   1.047   5.669   0.206 -1.6657  0.6754 -0.8155
 7487TIP3   OH243951   0.450   0.105  12.873  0.0630  0.1720  0.2414
 7487TIP3    H143952   0.397   0.183  12.853 -1.4414 -1.1452 -1.1874
 7487TIP3    H243953   0.537   0.140  12.892 -0.9052  2.3145  1.1359
 7488TIP3   OH243954   2.460   2.512   3.332 -0.0840  0.7977  0.1021
 7488TIP3    H143955   2.380   2.487   3.379 -1.2688  0.9808 -1.6772
 7488TIP3    H243956   2.440   2.493   3.240  1.6375  1.6239 -0.4877
 7489TIP3   OH243957   2.090   2.876   3.805  0.0399 -0.7825  0.1482
 7489TIP3    H143958   2.155   2.906   3.742 -2.9109 -0.4786 -3.0313
 7489TIP3    H243959   2.083   2.782   3.790 -1.5760 -0.5188 -1.0352
 7490TIP3   OH243960   0.602   3.282   4.115  0.0896  0.4536 -0.5714
 7490TIP3    H143961   0.616   3.270   4.209  0.5216 -0.8114 -0.7801
 7490TIP3    H243962   0.689   3.283   4.077 -0.1266 -1.4680 -1.2078
 7491TIP3   OH243963   2.949   5.448  15.584  0.2879  0.4539 -0.6084
 7491TIP3    H143964   3.020   5.458  15.648  0.0953 -0.9263 -0.1427
 7491TIP3    H243965   2.878   5.501  15.619  1.0921  1.9082 -1.1115
 7492TIP3   OH243966   4.201   6.388  16.374 -0.6212 -0.0779 -0.4331
 7492TIP3    H143967   4.231   6.479  16.381  3.8682 -1.4207  1.4831
 7492TIP3    H243968   4.191   6.360  16.465 -2.7814 -1.3567 -1.0070
 7493TIP3   OH243969   4.096   0.823  16.613 -0.1840  0.0481 -0.2296
 7493TIP3    H143970   4.065   0.735  16.592  0.8793 -0.4323  0.1284
 7493TIP3    H243971   4.084   0.873  16.533 -0.2664 -0.5844 -0.6215
 7494TIP3   OH243972   1.116   2.380   3.715 -0.0842  0.5723 -0.2570
 7494TIP3    H143973   1.041   2.347   3.765 -1.4747  0.6482 -2.1836
 7494TIP3    H243974   1.178   2.410   3.782 -0.7419 -1.6134  1.4574
 7495TIP3   OH243975   0.604   1.005   1.707 -0.0235  0.0850  0.8966
 7495TIP3    H143976   0.541   1.064   1.667 -0.4292 -0.5384  0.6053
 7495TIP3    H243977   0.551   0.937   1.749  0.4526 -1.1700 -0.4516
 7496TIP3   OH243978   0.876   1.740   0.211  0.0044  0.4175 -0.8966
 7496TIP3    H143979   0.817   1.689   0.156  2.3479 -1.2799 -1.9842
 7496TIP3    H243980   0.831   1.746   0.295 -1.7229 -0.7069 -1.6856
 7497TIP3   OH243981   5.956   4.698  12.084 -0.0323 -0.2313 -0.8282
 7497TIP3    H143982   5.919   4.716  12.170 -0.5752 -0.4140 -1.0184
 7497TIP3    H243983   5.938   4.777  12.033 -0.2986 -0.3748 -0.9625
 7498TIP3   OH243984   2.338   4.005  12.673 -0.1191  0.0547  0.1517
 7498TIP3    H143985   2.254   3.983  12.713 -0.0512  0.2751  0.4140
 7498TIP3    H243986   2.324   3.993  12.579 -0.0908 -1.1157  0.2824
 7499TIP3   OH243987   3.652   5.900   1.495  0.6781 -0.6871 -0.1888
 7499TIP3    H143988   3.675   5.948   1.415  0.7627 -1.6265 -0.7449
 7499TIP3    H243989   3.634   5.811   1.465 -1.6454 -0.5142  0.4967
 7500TIP3   OH243990   1.869   0.303   3.776 -0.5256 -0.4524  0.4462
 7500TIP3    H143991   1.835   0.246   3.707 -0.5492  3.0236 -2.7054
 7500TIP3    H243992   1.963   0.309   3.759  0.0543 -1.8424  2.7017
 7501TIP3   OH243993   3.980   5.767  15.593 -0.0907  0.1282  0.1046
 7501TIP3    H143994   3.953   5.855  15.621 -1.1915 -0.1643  0.0101
 7501TIP3    H243995   3.940   5.756  15.507 -0.5190 -0.7156  0.4008
 7502TIP3   OH243996   5.087   4.619   1.434 -0.1144 -0.3618 -0.0188
 7502TIP3    H143997   5.048   4.694   1.390 -0.3805 -1.5616 -1.9205
 7502TIP3    H243998   5.178   4.617   1.404  0.0170 -0.5335  0.3839
 7503TIP3   OH243999   0.717   6.618   5.570 -0.3342 -0.0548  0.3133
 7503TIP3    H144000   0.630   6.656   5.560  0.0960  0.8258 -0.2791
 7503TIP3    H244001   0.731   6.569   5.489  0.4905  1.4829 -0.5304
 7504TIP3   OH244002   0.385   6.635   4.184  0.4491  0.4639  0.1008
 7504TIP3    H144003   0.416   6.597   4.101  1.2815  0.8998  0.1943
 7504TIP3    H244004   0.464   6.638   4.239 -0.1640 -0.1398  1.0384
 7505TIP3   OH244005   5.327   2.592  11.425  0.3522 -0.1195 -0.0151
 7505TIP3    H144006   5.400   2.646  11.394 -0.1908  1.2096  0.8974
 7505TIP3    H244007   5.285   2.646  11.492 -1.7249 -0.6581 -0.8147
 7506TIP3   OH244008   6.267   3.479  14.698  0.1677 -0.0426 -0.1192
 7506TIP3    H144009   6.212   3.430  14.636  2.2794 -2.1736 -0.4544
 7506TIP3    H244010   6.306   3.412  14.753 -0.4069  1.7010  2.5799
 7507TIP3   OH244011   0.361   3.309   4.800 -0.4183  0.2835  0.1629
 7507TIP3    H144012   0.385   3.338   4.712  0.3584 -1.7110 -0.3510
 7507TIP3    H244013   0.267   3.325   4.807 -0.4134  0.8176 -0.8832
 7508TIP3   OH244014   3.232   1.409  17.367 -0.1957  0.0917 -0.8805
 7508TIP3    H144015   3.273   1.337  17.416  0.2613 -0.6000 -2.2377
 7508TIP3    H244016   3.279   1.487  17.395 -1.7868  0.2000  1.8988
 7509TIP3   OH244017   2.299   4.807   2.529  0.1307 -0.4347  0.0746
 7509TIP3    H144018   2.291   4.712   2.533  3.0259 -0.8306 -1.2336
 7509TIP3    H244019   2.309   4.834   2.620  2.7086 -1.8579  0.3136
 7510TIP3   OH244020   6.658   3.194   0.735 -0.0633  0.3349  0.5777
 7510TIP3    H144021   6.714   3.127   0.696 -0.5416  0.2413  0.0400
 7510TIP3    H244022   6.595   3.146   0.788  0.6990  0.4732  1.6337
 7511TIP3   OH244023   4.168   3.614   6.414  0.9223  0.8940  0.0813
 7511TIP3    H144024   4.104   3.587   6.479  1.0322  1.0170  0.2403
 7511TIP3    H244025   4.168   3.710   6.417 -0.8461  1.0161 -1.8105
 7512TIP3   OH244026   2.391   5.926   5.015  0.0002 -0.1255 -0.1060
 7512TIP3    H144027   2.354   5.871   4.946  0.9762  0.4331 -1.0997
 7512TIP3    H244028   2.397   5.868   5.091 -0.9143 -0.8050 -0.5311
 7513TIP3   OH244029   0.831   4.506  15.824 -0.1422 -0.0739  0.0142
 7513TIP3    H144030   0.798   4.427  15.781 -1.2926  0.1540  0.4556
 7513TIP3    H244031   0.829   4.485  15.918  1.4677 -0.2300  0.0534
 7514TIP3   OH244032   3.376   1.346  11.722  0.6823 -0.0978 -0.3770
 7514TIP3    H144033   3.409   1.290  11.792  2.0765  1.0548 -0.0561
 7514TIP3    H244034   3.282   1.332  11.723  0.0475  2.4447  4.1876
 7515TIP3   OH244035   2.883   2.185  11.623 -0.3065 -0.7381  0.2978
 7515TIP3    H144036   2.852   2.273  11.605 -0.9380 -1.2277 -1.1419
 7515TIP3    H244037   2.887   2.142  11.538  2.1136 -1.4391  0.6688
 7516TIP3   OH244038   1.709   4.564   2.636 -0.2794 -0.1053  1.1880
 7516TIP3    H144039   1.799   4.597   2.630 -0.4149  0.0718 -0.2496
 7516TIP3    H244040   1.662   4.611   2.567 -0.5582 -3.0139 -0.7510
 7517TIP3   OH244041   4.356   3.854  16.333 -0.7820 -0.2160 -0.1979
 7517TIP3    H144042   4.444   3.883  16.311 -1.4850  1.7082 -0.6824
 7517TIP3    H244043   4.362   3.758  16.336  1.0496 -0.1887 -1.4080
 7518TIP3   OH244044   5.492   2.927  16.659 -0.2524 -0.0618 -0.0987
 7518TIP3    H144045   5.583   2.920  16.689 -0.3421  1.4969  0.6206
 7518TIP3    H244046   5.482   2.854  16.598  1.5895 -0.0718 -0.4584
 7519TIP3   OH244047   4.035   1.349   0.032 -0.1655  0.0324  0.3624
 7519TIP3    H144048   4.042   1.444   0.019  1.8782  0.0033  0.9984
 7519TIP3    H244049   4.019   1.339   0.126 -2.1377 -0.2425  0.0527
 7520TIP3   OH244050   3.932   5.243  14.384  0.0904 -0.0230 -0.2847
 7520TIP3    H144051   3.936   5.250  14.288  1.2365 -0.0580 -0.2521
 7520TIP3    H244052   3.840   5.223  14.403 -0.1042 -0.2399 -1.3915
 7521TIP3   OH244053   1.322   1.742  15.227 -0.4622 -0.0889 -0.1686
 7521TIP3    H144054   1.252   1.725  15.290 -0.9480  1.0026 -0.4006
 7521TIP3    H244055   1.344   1.656  15.192  0.4211 -0.8788  2.1182
 7522TIP3   OH244056   2.525   3.980  13.905  0.2631 -0.2722 -0.6871
 7522TIP3    H144057   2.535   3.952  13.996  0.1986  1.8473  0.0327
 7522TIP3    H244058   2.443   3.941  13.876 -0.0496 -0.4296  0.3800
 7523TIP3   OH244059   6.497   2.649  15.187 -0.4902 -0.4263 -1.0763
 7523TIP3    H144060   6.405   2.654  15.210 -0.2847  2.1171 -0.5215
 7523TIP3    H244061   6.520   2.556  15.200 -2.5878 -0.8419  0.1717
 7524TIP3   OH244062   1.269   6.106  11.098 -0.4903  0.2072  0.2891
 7524TIP3    H144063   1.336   6.040  11.120  0.3470  1.0370  0.2720
 7524TIP3    H244064   1.230   6.074  11.017 -0.0658 -0.2547  0.2630
 7525TIP3   OH244065   5.191   6.330   3.597 -0.0023 -0.7500  0.3602
 7525TIP3    H144066   5.159   6.279   3.672 -0.5490  1.2320  1.5772
 7525TIP3    H244067   5.202   6.418   3.632  1.3424 -0.1120 -1.5246
 7526TIP3   OH244068   1.565   6.408   6.500 -0.3233 -0.1286 -0.0352
 7526TIP3    H144069   1.509   6.485   6.514 -0.7900 -0.3791 -0.4727
 7526TIP3    H244070   1.526   6.365   6.424  2.6780  1.7577 -2.9223
 7527TIP3   OH244071   1.690   0.152   5.153  0.1455  0.3683 -0.0367
 7527TIP3    H144072   1.720   0.134   5.063  0.0794 -1.0995  0.2046
 7527TIP3    H244073   1.653   0.068   5.183 -1.5094  1.3208  0.7275
 7528TIP3   OH244074   1.573   6.314  15.325  0.1664 -0.4657  0.4599
 7528TIP3    H144075   1.631   6.389  15.342  0.1104 -0.1544 -0.6770
 7528TIP3    H244076   1.497   6.330  15.381 -0.2582  0.8295 -0.4371
 7529TIP3   OH244077   0.369   2.033  15.378  0.3512  0.6928  0.1036
 7529TIP3    H144078   0.377   1.994  15.466  0.4523  0.4090 -0.0288
 7529TIP3    H244079   0.443   2.092  15.372  0.5394  0.4570  0.0832
 7530TIP3   OH244080   2.569   0.049  12.547  0.1849 -0.2854 -0.0631
 7530TIP3    H144081   2.526   0.085  12.470  0.4600 -0.6107 -0.3780
 7530TIP3    H244082   2.662   0.046  12.523  0.1882 -1.0382  0.0142
 7531TIP3   OH244083   4.322   0.132  14.353 -0.1419  0.6266 -0.4575
 7531TIP3    H144084   4.399   0.190  14.348  0.8513 -0.7046 -1.1147
 7531TIP3    H244085   4.328   0.078  14.274 -1.4370  0.1000 -0.2095
 7532TIP3   OH244086   4.332   0.224   0.975 -0.0311  0.2836 -0.0352
 7532TIP3    H144087   4.245   0.232   0.935 -0.5904 -0.2244  1.0219
 7532TIP3    H244088   4.348   0.309   1.016  0.2243  0.5648 -0.7138
 7533TIP3   OH244089   2.770   0.378  12.414  0.2520 -0.2123 -0.5699
 7533TIP3    H144090   2.778   0.310  12.481  0.7047  0.7273  0.3599
 7533TIP3    H244091   2.860   0.398  12.389  0.1524  0.4506 -0.4145
 7534TIP3   OH244092   0.816   5.370  14.192 -0.7351 -0.0396 -0.4199
 7534TIP3    H144093   0.806   5.425  14.114 -0.6237 -2.0437 -1.9111
 7534TIP3    H244094   0.813   5.281  14.159 -0.4375 -0.9562  1.8723
 7535TIP3   OH244095   2.535   4.158  14.832 -0.2776  0.0684  0.1262
 7535TIP3    H144096   2.517   4.207  14.752  0.0364 -1.1221 -0.7131
 7535TIP3    H244097   2.449   4.148  14.874 -0.7236 -0.7360 -0.9415
 7536TIP3   OH244098   0.353   4.401  12.446 -0.1744 -0.3263 -0.3938
 7536TIP3    H144099   0.436   4.444  12.467  0.3371 -0.2521 -2.3980
 7536TIP3    H244100   0.378   4.327  12.390 -1.3278 -1.3288  0.3694
 7537TIP3   OH244101   0.502   6.318   5.844  0.2143  0.0577  0.5320
 7537TIP3    H144102   0.495   6.407   5.879 -1.6626 -0.1117  0.7122
 7537TIP3    H244103   0.485   6.261   5.919  0.7120 -0.4436  0.2732
 7538TIP3   OH244104   4.445   6.504   4.660 -0.1037 -0.7867 -0.0775
 7538TIP3    H144105   4.532   6.531   4.688 -0.9307  3.1472 -0.6843
 7538TIP3    H244106   4.456   6.472   4.571  0.5523  1.9657 -1.0803
 7539TIP3   OH244107   5.101   1.360   3.511 -0.0991  0.2842 -0.2357
 7539TIP3    H144108   5.187   1.376   3.473 -0.1413  1.6849  0.2174
 7539TIP3    H244109   5.042   1.357   3.435  0.0226  1.6597 -0.4047
 7540TIP3   OH244110   6.744   0.926  13.794 -0.0106  0.2662 -0.2046
 7540TIP3    H144111   6.749   1.004  13.850 -0.2934  0.6979 -0.7716
 7540TIP3    H244112   6.651   0.902  13.796  0.2114 -0.5526  0.6307
 7541TIP3   OH244113   2.207   2.177  16.908  0.5881  0.5299 -0.2531
 7541TIP3    H144114   2.271   2.248  16.897  3.4408 -1.5123  1.7043
 7541TIP3    H244115   2.227   2.140  16.994  1.0398 -4.1896 -2.1154
 7542TIP3   OH244116   5.954   0.828   0.021 -0.4152 -0.5993 -0.1535
 7542TIP3    H144117   5.872   0.873   0.042  0.1672  0.5359 -0.2172
 7542TIP3    H244118   5.944   0.803  -0.071 -1.5025 -2.3269  0.3957
 7543TIP3   OH244119   2.812   3.676  16.478 -0.0163  0.1439  0.0148
 7543TIP3    H144120   2.878   3.617  16.441 -0.5920 -0.7502  0.3569
 7543TIP3    H244121   2.842   3.693  16.567  0.6867  1.2241 -0.4179
 7544TIP3   OH244122   3.164   0.687  10.962 -0.1800 -0.0402  0.0062
 7544TIP3    H144123   3.240   0.688  10.903  0.8637 -0.7179  1.2854
 7544TIP3    H244124   3.176   0.764  11.018  1.4503 -1.9203  2.4278
 7545TIP3   OH244125   2.318   3.034   1.119 -0.3790 -0.2945  0.3001
 7545TIP3    H144126   2.339   3.112   1.171 -1.1511  0.8001 -0.9503
 7545TIP3    H244127   2.355   2.961   1.168 -2.8798  0.3808  3.5503
 7546TIP3   OH244128   5.872   2.506   5.290 -0.6188 -0.5872 -0.3009
 7546TIP3    H144129   5.780   2.514   5.263 -0.8822 -1.4114  0.3058
 7546TIP3    H244130   5.918   2.481   5.210 -0.9479 -0.3309 -0.5756
 7547TIP3   OH244131   6.652   3.243   3.465  0.3171  0.3640 -0.5774
 7547TIP3    H144132   6.705   3.166   3.485  1.4204  1.0592 -0.7583
 7547TIP3    H244133   6.568   3.225   3.508  1.2425 -0.0319  1.1621
 7548TIP3   OH244134   5.712   1.676   4.956  0.3948  0.1939 -0.6803
 7548TIP3    H144135   5.645   1.608   4.957 -0.8394  1.3665  0.5176
 7548TIP3    H244136   5.794   1.629   4.962 -0.4640 -1.1738  1.2656
 7549TIP3   OH244137   4.965   0.218   3.408 -0.2866 -0.7824 -0.4411
 7549TIP3    H144138   4.943   0.303   3.372 -0.4609 -0.4825  0.3435
 7549TIP3    H244139   5.061   0.218   3.414 -0.2845 -0.6566 -0.4873
 7550TIP3   OH244140   4.456   6.195   4.524 -0.0781  0.1686 -0.5590
 7550TIP3    H144141   4.449   6.262   4.456  0.7963 -0.6194 -1.4453
 7550TIP3    H244142   4.368   6.158   4.529 -0.3347  0.7433 -0.7289
 7551TIP3   OH244143   2.355   4.565   3.098 -0.3937  0.2751  0.2051
 7551TIP3    H144144   2.348   4.481   3.052  0.9570 -0.0341  0.5140
 7551TIP3    H244145   2.360   4.541   3.190  0.1073  0.6784  0.2883
 7552TIP3   OH244146   3.145   3.744  12.819 -0.1597  0.0426  0.1844
 7552TIP3    H144147   3.211   3.717  12.882 -2.2814 -0.4467  2.3451
 7552TIP3    H244148   3.086   3.801  12.868 -1.5637  0.1757 -1.5292
 7553TIP3   OH244149   4.920   4.574   3.130 -0.5396  0.4927  0.5034
 7553TIP3    H144150   4.953   4.486   3.110  0.2092  1.2545 -1.8212
 7553TIP3    H244151   4.845   4.558   3.187 -0.8752 -1.7097 -0.4440
 7554TIP3   OH244152   2.497   6.391  17.045 -0.2909 -0.6256  0.9278
 7554TIP3    H144153   2.405   6.412  17.061 -0.5947 -0.8308 -0.3765
 7554TIP3    H244154   2.546   6.460  17.090 -1.1449  0.5347  0.1454
 7555TIP3   OH244155   1.209   4.494   5.970  0.4464 -0.1586 -0.3991
 7555TIP3    H144156   1.138   4.490   5.906  0.3240  1.5460 -0.4019
 7555TIP3    H244157   1.230   4.402   5.988 -0.6198 -0.6755 -1.6470
 7556TIP3   OH244158   3.833   5.739   5.875 -0.5423 -0.9863 -0.6700
 7556TIP3    H144159   3.928   5.726   5.876 -0.4197 -1.0366 -3.9556
 7556TIP3    H244160   3.797   5.655   5.903  0.3388 -0.9337  0.7244
 7557TIP3   OH244161   0.762   4.722  12.139 -0.4064 -0.6507 -0.1614
 7557TIP3    H144162   0.775   4.816  12.130 -0.1617 -0.8441 -2.2641
 7557TIP3    H244163   0.844   4.691  12.179  0.4967 -0.2398 -1.6139
 7558TIP3   OH244164   6.242   0.980   5.924 -0.2331 -0.2109  0.7762
 7558TIP3    H144165   6.201   0.895   5.910  2.2168 -1.2837 -0.4691
 7558TIP3    H244166   6.316   0.962   5.983  0.2666  1.0737  0.5771
 7559TIP3   OH244167   5.228   5.977   4.186  0.0832  0.3903  0.6221
 7559TIP3    H144168   5.211   5.936   4.101 -2.3802  3.3757 -0.4777
 7559TIP3    H244169   5.216   5.906   4.250  1.1134 -1.7160 -1.3793
 7560TIP3   OH244170   5.219   5.334  13.337  0.2272 -0.4596 -0.2512
 7560TIP3    H144171   5.200   5.428  13.347  0.1790 -0.6014  1.1941
 7560TIP3    H244172   5.133   5.292  13.346  0.5119 -0.7666  1.1791
 7561TIP3   OH244173   5.422   1.956  15.337 -0.5231  1.0048  0.0367
 7561TIP3    H144174   5.513   1.942  15.365 -1.1067 -0.6006  1.2190
 7561TIP3    H244175   5.396   2.038  15.380  0.7119  2.1722 -1.3119
 7562TIP3   OH244176   5.456   1.967  12.771  0.1163 -0.1656 -0.1834
 7562TIP3    H144177   5.463   2.023  12.849  0.9877  2.3875 -1.9452
 7562TIP3    H244178   5.453   1.878  12.805 -2.7004  0.8962  2.9115
 7563TIP3   OH244179   0.514   5.544   3.116 -0.3598 -0.0819  0.3060
 7563TIP3    H144180   0.521   5.620   3.175  1.1375 -0.8030  1.1159
 7563TIP3    H244181   0.568   5.477   3.158  0.4037 -0.7596 -1.6745
 7564TIP3   OH244182   5.519   2.169   6.014  0.0710 -0.4227 -0.2178
 7564TIP3    H144183   5.606   2.149   5.978 -0.5825 -1.8951 -1.0615
 7564TIP3    H244184   5.528   2.155   6.108  0.8298 -0.2354 -0.2546
 7565TIP3   OH244185   0.295   4.025   2.118  0.1734 -0.0762  0.0959
 7565TIP3    H144186   0.247   4.027   2.200  1.8801 -2.8711  1.2920
 7565TIP3    H244187   0.386   4.013   2.143  0.6830 -1.6493 -2.1998
 7566TIP3   OH244188   2.194   2.819   5.196 -0.0853 -0.4619 -0.4833
 7566TIP3    H144189   2.216   2.753   5.129  0.2189 -2.6459  1.6265
 7566TIP3    H244190   2.104   2.843   5.176 -0.6018 -2.3831 -0.7059
 7567TIP3   OH244191   2.066   6.420   3.758 -0.2761 -0.3339  0.1741
 7567TIP3    H144192   2.117   6.500   3.768  1.1805 -1.2655  0.4773
 7567TIP3    H244193   2.007   6.419   3.833 -1.1269  0.9915 -0.4301
 7568TIP3   OH244194   2.444   0.833  17.219 -0.1805 -0.5500 -0.4210
 7568TIP3    H144195   2.464   0.876  17.136  0.9223  2.5383  1.2478
 7568TIP3    H244196   2.529   0.829  17.264 -0.8684 -1.4836  0.8545
 7569TIP3   OH244197   5.090   0.739  13.017  0.5027  0.1838 -0.0895
 7569TIP3    H144198   5.001   0.722  12.988 -0.6054  1.2338  2.4503
 7569TIP3    H244199   5.106   0.831  12.995  0.0294  0.6878  1.5231
 7570TIP3   OH244200   0.174   1.901   1.159  0.2217 -0.8256 -0.1009
 7570TIP3    H144201   0.243   1.956   1.197 -1.0042  1.0742 -0.4822
 7570TIP3    H244202   0.221   1.835   1.108  1.7760  1.0000 -1.1719
 7571TIP3   OH244203   5.919   5.920   3.605 -0.3697  0.2925  0.9556
 7571TIP3    H144204   5.910   6.007   3.567  0.2174  1.0027  2.3445
 7571TIP3    H244205   5.978   5.874   3.545 -0.1910  1.0601  0.5175
 7572TIP3   OH244206   4.720   3.403  11.798 -0.1899 -0.1326 -0.8912
 7572TIP3    H144207   4.743   3.361  11.715  1.5990  3.1458 -2.2220
 7572TIP3    H244208   4.670   3.481  11.773  2.0883  2.0438  0.8248
 7573TIP3   OH244209   0.423   2.123  17.262 -0.9267  0.4117  0.0431
 7573TIP3    H144210   0.510   2.099  17.295 -2.3176 -2.1846  2.1963
 7573TIP3    H244211   0.398   2.200  17.313 -0.9725 -0.5247  1.4860
 7574TIP3   OH244212   1.319   4.453   1.262  0.0976 -0.3607 -0.1638
 7574TIP3    H144213   1.258   4.508   1.311 -0.1043 -0.5441 -0.2109
 7574TIP3    H244214   1.342   4.382   1.322  2.0270  0.8992  0.7033
 7575TIP3   OH244215   3.554   3.302   0.167  0.0610  0.7878  0.0148
 7575TIP3    H144216   3.538   3.377   0.223  2.0332 -0.2574  2.1439
 7575TIP3    H244217   3.481   3.242   0.184  0.2111  0.8402  0.8813
 7576TIP3   OH244218   1.120   6.308   1.423 -0.2286  0.1053 -0.3483
 7576TIP3    H144219   1.150   6.229   1.379  0.3902 -0.4587  1.0565
 7576TIP3    H244220   1.036   6.284   1.462 -2.1817  1.3759 -3.3676
 7577TIP3   OH244221   3.845   4.580   3.352  0.5808  0.3445  0.1833
 7577TIP3    H144222   3.827   4.549   3.441 -3.0740  0.1081 -0.4724
 7577TIP3    H244223   3.832   4.503   3.297  1.0158  0.8906 -0.7023
 7578TIP3   OH244224   2.614   3.574   2.403 -0.3430 -0.0807 -0.5575
 7578TIP3    H144225   2.635   3.530   2.486 -1.1949 -0.1620 -0.3762
 7578TIP3    H244226   2.593   3.663   2.428  1.8720  0.6322 -0.9786
 7579TIP3   OH244227   4.010   4.489   6.020 -0.2650  0.2450 -0.5022
 7579TIP3    H144228   4.071   4.549   6.063 -0.7813  0.6260 -0.2843
 7579TIP3    H244229   3.924   4.518   6.050 -0.4341 -2.7194  2.4415
 7580TIP3   OH244230   2.520   4.615  14.489 -0.5352  0.0143 -0.3541
 7580TIP3    H144231   2.593   4.652  14.439 -0.2033 -0.8831 -0.5635
 7580TIP3    H244232   2.529   4.653  14.576  0.7214 -0.7394 -0.1234
 7581TIP3   OH244233   0.982   4.478   5.799 -0.0444  0.3126  0.4704
 7581TIP3    H144234   0.899   4.448   5.837  0.7219 -0.7541  1.3625
 7581TIP3    H244235   0.973   4.461   5.706 -0.3303 -1.0745  0.7326
 7582TIP3   OH244236   4.401   2.881  12.858  0.1595  0.0770 -0.3504
 7582TIP3    H144237   4.448   2.935  12.921 -2.1284  1.3251  0.3638
 7582TIP3    H244238   4.470   2.835  12.810  2.0036 -1.1207  3.1665
 7583TIP3   OH244239   1.172   5.160  16.443  0.4700  0.1289 -0.1630
 7583TIP3    H144240   1.258   5.134  16.409  1.3049 -0.5434  2.2840
 7583TIP3    H244241   1.154   5.097  16.513 -0.2246  2.5340  1.9643
 7584TIP3   OH244242   3.391   6.100   0.284 -0.1131  0.2207  0.3211
 7584TIP3    H144243   3.464   6.150   0.247 -0.0509  0.6969  1.0714
 7584TIP3    H244244   3.404   6.011   0.252  0.2461  0.5062 -0.3470
 7585TIP3   OH244245   2.525   3.971   4.993  0.0470 -0.6191  0.4193
 7585TIP3    H144246   2.472   3.950   5.070  1.1741  1.2848  1.8261
 7585TIP3    H244247   2.470   4.027   4.940 -0.2865 -0.8603  0.5095
 7586TIP3   OH244248   5.550   6.238  11.847 -0.1240 -0.1713  0.1457
 7586TIP3    H144249   5.455   6.235  11.836 -0.0330  1.0989 -1.3829
 7586TIP3    H244250   5.565   6.300  11.918 -0.4335 -0.1227  0.1674
 7587TIP3   OH244251   3.566   4.209   1.597 -0.3524  0.0645  0.6839
 7587TIP3    H144252   3.606   4.123   1.606 -2.1159 -0.9788 -0.6658
 7587TIP3    H244253   3.515   4.203   1.516 -0.4225  2.4397  0.4813
 7588TIP3   OH244254   6.674   6.728  16.509 -0.0925  0.3557 -0.2245
 7588TIP3    H144255   6.584   6.746  16.483 -0.5403 -1.2654  0.1264
 7588TIP3    H244256   6.704   6.660  16.449 -0.0413 -1.0791  1.3548
 7589TIP3   OH244257   0.901   6.470  16.986  0.2734  0.2455 -0.2140
 7589TIP3    H144258   0.978   6.525  16.978 -0.4508  1.5525  1.1921
 7589TIP3    H244259   0.920   6.412  17.060 -0.4531  1.3009  0.8454
 7590TIP3   OH244260   4.005   3.694  14.965 -0.2215 -0.1920 -0.6528
 7590TIP3    H144261   3.983   3.716  15.055 -0.2810  0.9571 -0.9356
 7590TIP3    H244262   4.032   3.602  14.969  0.4760  0.0440  0.6477
 7591TIP3   OH244263   3.546   4.432  13.686 -0.2583  0.7250  0.3994
 7591TIP3    H144264   3.568   4.431  13.779 -0.6697  2.1292  0.5362
 7591TIP3    H244265   3.622   4.473  13.644 -0.5209  1.0648  0.2541
 7592TIP3   OH244266   0.596   1.512  14.541 -0.0842  0.0833  0.3648
 7592TIP3    H144267   0.569   1.585  14.597 -0.1829  0.9267 -0.7601
 7592TIP3    H244268   0.658   1.462  14.595  1.1745  1.8634  0.6296
 7593TIP3   OH244269   5.954   1.779  13.665  0.2276 -0.1490  0.1155
 7593TIP3    H144270   5.882   1.783  13.602 -0.7656 -0.2361  1.2330
 7593TIP3    H244271   6.013   1.850  13.637 -1.6620  1.8080  0.8350
 7594TIP3   OH244272   5.928   5.117  13.653  0.0395 -0.3039 -1.1136
 7594TIP3    H144273   5.840   5.112  13.692  1.3205  0.7140  2.2293
 7594TIP3    H244274   5.914   5.160  13.569 -2.4364  2.3351  0.4371
 7595TIP3   OH244275   3.865   1.551  12.597  0.2845 -0.1610  0.2207
 7595TIP3    H144276   3.851   1.477  12.655  0.1258 -0.9636 -0.7999
 7595TIP3    H244277   3.778   1.585  12.579  0.2581 -0.4036 -0.1390
 7596TIP3   OH244278   3.082   5.526  11.706  0.0607 -0.3295  0.1339
 7596TIP3    H144279   2.989   5.518  11.728  0.1771 -1.3348  0.3030
 7596TIP3    H244280   3.089   5.488  11.619  0.2778 -0.0166  0.0136
 7597TIP3   OH244281   1.791   2.247  11.975  0.2896 -0.0519  0.0836
 7597TIP3    H144282   1.886   2.239  11.960  0.6153  0.3223  1.7751
 7597TIP3    H244283   1.757   2.159  11.957  1.1612 -0.5512  0.7863
 7598TIP3   OH244284   6.187   4.759   1.679  0.2605 -0.3433  0.1830
 7598TIP3    H144285   6.116   4.695   1.669  0.4638 -0.9058  1.8770
 7598TIP3    H244286   6.162   4.832   1.623 -3.9206  1.3283  3.6568
 7599TIP3   OH244287   2.512   5.505  13.040 -0.4701  0.8792  0.1183
 7599TIP3    H144288   2.526   5.587  13.086 -0.4437  0.3929  0.9985
 7599TIP3    H244289   2.487   5.443  13.108  1.7467 -0.4250 -0.1658
 7600TIP3   OH244290   4.818   1.435   0.697 -0.2790 -0.4560  0.5638
 7600TIP3    H144291   4.795   1.505   0.636  0.7050 -0.8766 -0.3291
 7600TIP3    H244292   4.793   1.354   0.651 -0.6297 -0.7394  1.2314
 7601TIP3   OH244293   2.304   2.031  17.144  0.5044 -0.0120  0.1418
 7601TIP3    H144294   2.251   1.958  17.175  0.4962 -0.6520 -1.3399
 7601TIP3    H244295   2.318   2.085  17.222 -1.3479 -0.4248  0.7999
 7602TIP3   OH244296   6.692   3.953  16.084  0.5615 -0.3030  0.2339
 7602TIP3    H144297   6.715   3.861  16.092 -3.3386 -1.4391  0.5849
 7602TIP3    H244298   6.725   3.980  15.999  1.9540 -1.9338  0.2208
 7603TIP3   OH244299   3.094   5.013   4.645 -0.4668 -0.2206  0.2897
 7603TIP3    H144300   3.123   5.078   4.709  0.6146  0.0122 -0.4059
 7603TIP3    H244301   3.041   4.952   4.695 -2.7658  1.9672  0.7154
 7604TIP3   OH244302   3.449   2.470  14.652 -0.6081  0.3869 -0.4523
 7604TIP3    H144303   3.373   2.447  14.599 -0.5563 -0.5159 -0.1586
 7604TIP3    H244304   3.507   2.516  14.591 -0.2221 -1.2714 -1.4089
 7605TIP3   OH244305   0.823   5.298   3.114  0.0235 -0.5340  0.4940
 7605TIP3    H144306   0.895   5.240   3.140  0.7354 -0.4049 -1.0566
 7605TIP3    H244307   0.801   5.346   3.194  2.8624  0.6998  0.6462
 7606TIP3   OH244308   1.283   5.841   0.430  0.4721  0.1545  0.0520
 7606TIP3    H144309   1.280   5.936   0.427 -1.5215  0.1170 -1.8446
 7606TIP3    H244310   1.340   5.817   0.357 -1.1704 -0.0833 -1.2141
 7607TIP3   OH244311   6.305   6.584  16.414  0.1003  0.1333 -0.7406
 7607TIP3    H144312   6.314   6.568  16.508  1.1078 -1.1872 -1.0287
 7607TIP3    H244313   6.214   6.562  16.395 -0.1059  0.3886 -0.0768
 7608TIP3   OH244314   0.268   6.240   5.633  0.9794  1.1329  0.3121
 7608TIP3    H144315   0.342   6.295   5.659  2.2367  0.3860 -1.4674
 7608TIP3    H244316   0.283   6.157   5.677  0.9016  1.1468  0.3658
 7609TIP3   OH244317   5.978   1.458  14.387  0.0901  0.3146  0.0118
 7609TIP3    H144318   5.940   1.537  14.350  1.7946  1.4914  0.6193
 7609TIP3    H244319   6.015   1.486  14.471  1.3533 -0.9400 -0.0747
 7610TIP3   OH244320   2.488   1.666  16.341 -0.5357  0.7108 -1.1487
 7610TIP3    H144321   2.565   1.641  16.290  0.1847  1.4582 -0.4522
 7610TIP3    H244322   2.421   1.684  16.275 -0.1360  0.0006 -1.7614
 7611TIP3   OH244323   2.597   3.436  12.806  0.1983 -0.6940  0.5700
 7611TIP3    H144324   2.525   3.494  12.831 -0.2947 -0.8766 -0.3885
 7611TIP3    H244325   2.556   3.368  12.752  1.3212  0.1555 -1.4653
 7612TIP3   OH244326   3.051   2.098  17.279  0.0905  0.3079 -0.2030
 7612TIP3    H144327   2.991   2.089  17.353 -1.4869  2.3705 -1.1320
 7612TIP3    H244328   2.994   2.106  17.202  1.6760 -2.3151 -1.8189
 7613TIP3   OH244329   5.628   0.451  15.414  0.0418  0.6661  0.1456
 7613TIP3    H144330   5.683   0.512  15.365  0.1979  0.7574  0.4267
 7613TIP3    H244331   5.639   0.367  15.369  0.3593  0.7003  0.1523
 7614TIP3   OH244332   1.828   5.521  11.704  0.2031  0.0490  0.1688
 7614TIP3    H144333   1.742   5.519  11.662  0.0314  1.2083  0.4324
 7614TIP3    H244334   1.817   5.582  11.777  0.3842 -2.1870  2.1731
 7615TIP3   OH244335   2.920   5.982  15.118  0.4093 -0.0830 -0.0138
 7615TIP3    H144336   2.925   6.027  15.033 -0.8021  1.2337  0.5737
 7615TIP3    H244337   2.894   5.893  15.096  0.4712  0.1430 -1.0573
 7616TIP3   OH244338   6.660   1.401   5.616  0.1150 -0.5117 -0.1198
 7616TIP3    H144339   6.626   1.319   5.580  0.2926 -0.4963 -0.3259
 7616TIP3    H244340   6.604   1.469   5.577  0.8533 -0.4203 -1.0782
 7617TIP3   OH244341   1.731   3.451   2.029 -0.3829  0.2533  0.1843
 7617TIP3    H144342   1.706   3.433   1.938 -1.3710  0.6107  0.3753
 7617TIP3    H244343   1.770   3.538   2.027  0.6983 -0.2184 -0.0793
 7618TIP3   OH244344   4.097   5.890  17.265  0.3198 -0.6313 -0.3334
 7618TIP3    H144345   4.187   5.858  17.273  0.3100 -0.2015  1.9718
 7618TIP3    H244346   4.066   5.901  17.355 -1.7670  0.0489 -1.0613
 7619TIP3   OH244347   4.445   0.709  16.640 -0.2693  0.0145 -0.2276
 7619TIP3    H144348   4.404   0.796  16.639 -2.3962 -0.9099  0.7437
 7619TIP3    H244349   4.387   0.655  16.585  1.2400 -0.7325 -1.1536
 7620TIP3   OH244350   0.292   1.188  17.515 -0.0479  0.0562  0.0390
 7620TIP3    H144351   0.300   1.120  17.448  0.8658  2.0221 -1.9970
 7620TIP3    H244352   0.347   1.158  17.587  2.0112 -0.4694 -1.6567
 7621TIP3   OH244353   0.308   6.520   2.282 -0.0039  0.5647 -0.7883
 7621TIP3    H144354   0.370   6.461   2.326  0.3161  0.6700 -1.0974
 7621TIP3    H244355   0.339   6.608   2.305  1.5220  0.6960 -3.0122
 7622TIP3   OH244356   4.213   3.496  14.761  0.0371  0.2813 -0.4915
 7622TIP3    H144357   4.241   3.533  14.677  0.6542 -2.2647 -1.5133
 7622TIP3    H244358   4.123   3.466  14.744  0.0407  0.0680 -0.1359
 7623TIP3   OH244359   2.517   2.249   4.906 -0.3729  0.0886  0.1138
 7623TIP3    H144360   2.591   2.299   4.873 -0.0879 -0.2954  0.1703
 7623TIP3    H244361   2.476   2.211   4.828 -2.6355  3.1056 -0.3684
 7624TIP3   OH244362   6.458   5.218  13.928  0.2715 -0.5952 -0.5398
 7624TIP3    H144363   6.496   5.285  13.984  0.8881 -0.8066 -0.6962
 7624TIP3    H244364   6.386   5.262  13.882 -0.2500 -0.4268  0.4170
 7625TIP3   OH244365   1.069   0.553  16.178  0.1469  0.3552  0.2536
 7625TIP3    H144366   1.125   0.593  16.244  0.9340 -0.6461  0.2336
 7625TIP3    H244367   0.988   0.603  16.180  1.2284  2.2208 -0.1002
 7626TIP3   OH244368   1.411   6.535   3.975 -0.0924  0.6981  0.4689
 7626TIP3    H144369   1.351   6.592   3.926 -1.3638  0.0609  1.2238
 7626TIP3    H244370   1.365   6.517   4.057 -1.1801 -3.7844 -0.8347
 7627TIP3   OH244371   5.800   5.040   5.336  0.6452  0.4907  1.5295
 7627TIP3    H144372   5.810   4.950   5.306  1.3685  0.0474  2.9655
 7627TIP3    H244373   5.707   5.050   5.355  0.2924  0.5670 -0.0707
 7628TIP3   OH244374   2.474   0.892  13.348  0.1930  0.4125  0.4780
 7628TIP3    H144375   2.462   0.867  13.439 -0.6453  1.5611  0.7125
 7628TIP3    H244376   2.407   0.843  13.300 -0.0020  0.5299  0.6271
 7629TIP3   OH244377   2.129   2.735   5.467  0.2447 -0.3430  0.0076
 7629TIP3    H144378   2.158   2.765   5.381  0.2067 -1.4125 -0.3835
 7629TIP3    H244379   2.163   2.801   5.528  0.1679  0.4896 -0.8279
 7630TIP3   OH244380   5.924   5.936   4.071  0.3057 -0.3949  0.4132
 7630TIP3    H144381   5.935   6.018   4.120 -0.1847 -1.1099  1.7791
 7630TIP3    H244382   5.997   5.936   4.009 -0.4495  1.6934 -0.5555
 7631TIP3   OH244383   4.360   5.953  14.284  0.1196 -0.2301 -0.2548
 7631TIP3    H144384   4.440   5.939  14.235  0.2295 -0.6832  0.0509
 7631TIP3    H244385   4.290   5.941  14.220  0.2583 -0.8903 -0.2801
 7632TIP3   OH244386   5.966   6.115  11.610 -0.3588 -0.4621  0.1194
 7632TIP3    H144387   5.975   6.210  11.620 -1.0478 -0.1887 -1.5607
 7632TIP3    H244388   5.882   6.103  11.567 -0.7818 -1.9306  1.2833
 7633TIP3   OH244389   4.624   2.207  16.747  0.4616  0.1503  0.1219
 7633TIP3    H144390   4.546   2.190  16.693  0.1089  2.3227 -0.1440
 7633TIP3    H244391   4.697   2.198  16.686  0.3183 -0.4434  0.0268
 7634TIP3   OH244392   5.265   6.138  13.962  0.1222  0.4738 -0.4892
 7634TIP3    H144393   5.235   6.223  13.930  0.9247  0.6541 -0.7854
 7634TIP3    H244394   5.282   6.087  13.883  0.2872  0.2733 -0.3253
 7635TIP3   OH244395   1.714   4.100   5.889  0.2938 -0.2441  0.2976
 7635TIP3    H144396   1.711   4.008   5.913  0.3085 -0.3732 -0.1848
 7635TIP3    H244397   1.633   4.137   5.923  1.3087  0.0820  2.5256
 7636TIP3   OH244398   0.156   1.363  12.679  0.2698  0.5649 -0.0973
 7636TIP3    H144399   0.230   1.304  12.691  0.5555  0.9247 -0.0601
 7636TIP3    H244400   0.122   1.343  12.592 -0.9583 -1.1185  0.7290
 7637TIP3   OH244401   2.489   2.697   5.336 -0.5048  0.8697  0.5731
 7637TIP3    H144402   2.415   2.668   5.390 -0.9912 -1.3118 -1.0881
 7637TIP3    H244403   2.449   2.723   5.253  0.4952  0.7595  0.0428
 7638TIP3   OH244404   1.060   4.094   3.332 -0.2918 -0.2406  0.2242
 7638TIP3    H144405   1.097   4.091   3.420  1.1064  0.6860 -0.2963
 7638TIP3    H244406   1.056   4.188   3.311  2.8542 -0.4689 -2.0518
 7639TIP3   OH244407   6.247   5.291  11.545 -0.1347  0.3903 -0.3572
 7639TIP3    H144408   6.194   5.333  11.614  0.1424  0.2847 -0.0789
 7639TIP3    H244409   6.207   5.321  11.463  0.6406  1.9868 -0.1902
 7640TIP3   OH244410   2.118   5.270  12.285 -0.1326 -0.7542 -0.3407
 7640TIP3    H144411   2.128   5.282  12.379  2.1263  0.3160 -0.6431
 7640TIP3    H244412   2.024   5.267  12.270 -0.5365 -0.2147  1.8612
 7641TIP3   OH244413   5.335   0.179  13.666  0.4209  0.8704  0.0687
 7641TIP3    H144414   5.276   0.217  13.600  0.9925  1.8569  0.1044
 7641TIP3    H244415   5.293   0.097  13.691 -0.4600  1.1020 -0.5921
 7642TIP3   OH244416   3.944   1.909   3.552 -0.0380  0.2918 -0.1552
 7642TIP3    H144417   4.013   1.947   3.499 -0.4282  2.8142  0.9779
 7642TIP3    H244418   3.939   1.817   3.524  1.0314  1.0141 -3.0507
 7643TIP3   OH244419   2.034   6.714  15.960  0.1635 -0.0891 -0.2465
 7643TIP3    H144420   2.097   6.764  16.012  1.7564 -2.3670  0.1404
 7643TIP3    H244421   1.992   6.655  16.023 -1.3309  0.3441 -0.7774
 7644TIP3   OH244422   3.268   4.483  11.956 -0.5785  0.0696 -0.4653
 7644TIP3    H144423   3.205   4.538  12.003  0.1847  0.3871  0.1958
 7644TIP3    H244424   3.331   4.456  12.022  0.0598 -0.1397 -1.1467
 7645TIP3   OH244425   1.521   0.210   1.696  0.1915  0.8281 -0.3449
 7645TIP3    H144426   1.494   0.301   1.681 -0.2487  0.6048 -0.9229
 7645TIP3    H244427   1.564   0.184   1.616 -2.2893 -0.4055 -1.3966
 7646TIP3   OH244428   0.689   5.817   5.171  0.0291 -0.3080 -0.3584
 7646TIP3    H144429   0.634   5.757   5.121  0.2396 -0.3139 -0.5866
 7646TIP3    H244430   0.648   5.821   5.258  1.1761 -2.4657  0.3682
 7647TIP3   OH244431   5.533   6.001  15.227 -0.3629  0.3375  0.0334
 7647TIP3    H144432   5.516   6.091  15.253 -1.7054 -0.0089  0.4714
 7647TIP3    H244433   5.503   5.949  15.302  0.5329 -0.4654 -0.1459
 7648TIP3   OH244434   1.356   1.403  12.123 -0.1265  0.1102 -0.4629
 7648TIP3    H144435   1.387   1.331  12.068  0.0355 -1.6308  1.7130
 7648TIP3    H244436   1.277   1.368  12.165  0.1387  1.0633  0.8971
 7649TIP3   OH244437   2.075   1.621   2.785  0.0814 -0.3441 -0.4706
 7649TIP3    H144438   2.011   1.598   2.851  1.3797 -0.0740  0.9349
 7649TIP3    H244439   2.158   1.628   2.832  0.9703  0.3565 -2.0288
 7650TIP3   OH244440   0.006   0.552   3.488 -0.0916 -0.2022  0.2708
 7650TIP3    H144441   0.047   0.481   3.537  0.8625  0.9488  1.2024
 7650TIP3    H244442  -0.002   0.518   3.399  1.4872 -1.0295  0.4083
 7651TIP3   OH244443   0.121   3.750  13.173 -0.5325  0.7341 -0.2726
 7651TIP3    H144444   0.088   3.718  13.089 -0.0073  0.8584 -0.5361
 7651TIP3    H244445   0.216   3.737  13.167 -0.4529  1.1029  0.1466
 7652TIP3   OH244446   1.070   6.036  16.262  0.1134 -0.4487 -0.2574
 7652TIP3    H144447   1.145   5.990  16.300 -1.0822 -1.7183  0.6327
 7652TIP3    H244448   1.023   6.072  16.337 -0.9228 -0.8535 -0.7000
 7653TIP3   OH244449   4.784   4.243  12.778 -0.1001 -0.3887 -0.8525
 7653TIP3    H144450   4.804   4.244  12.871  1.3414  0.7270 -1.1369
 7653TIP3    H244451   4.797   4.152  12.751 -0.1741 -0.6431 -0.0421
 7654TIP3   OH244452   3.385   0.685   1.937  0.1020  0.0340  0.0772
 7654TIP3    H144453   3.344   0.770   1.920  4.2808  2.7692  1.8406
 7654TIP3    H244454   3.428   0.662   1.855  0.6569  0.7684  0.1481
 7655TIP3   OH244455   0.950   3.989  16.271  0.2844  0.1880 -0.1805
 7655TIP3    H144456   1.045   3.980  16.267  0.1893 -0.3948 -2.3210
 7655TIP3    H244457   0.918   3.900  16.288  0.1230  0.3418  0.3150
 7656TIP3   OH244458   5.964   0.739  13.109  0.0146 -0.1366 -0.2908
 7656TIP3    H144459   5.922   0.796  13.044 -0.6605 -1.5493 -1.1347
 7656TIP3    H244460   6.052   0.724  13.075  0.2922  0.6030  0.0774
 7657TIP3   OH244461   5.060   5.909   0.148 -0.5576 -0.0764  0.1163
 7657TIP3    H144462   5.110   5.849   0.203 -0.3270  0.9498  1.0708
 7657TIP3    H244463   5.015   5.966   0.210 -2.9268 -0.9447 -0.7006
 7658TIP3   OH244464   6.486   6.624   4.077  0.1882  0.5403 -0.4508
 7658TIP3    H144465   6.496   6.613   4.172  0.4425  0.5097 -0.4807
 7658TIP3    H244466   6.392   6.641   4.064  0.1351  0.4328 -0.2045
 7659TIP3   OH244467   1.424   2.123   1.927  0.0544  0.2214 -0.0974
 7659TIP3    H144468   1.502   2.071   1.946  0.3542 -0.3557 -2.6023
 7659TIP3    H244469   1.459   2.206   1.895 -0.3164 -0.1580 -1.5398
 7660TIP3   OH244470   6.224   0.751  11.775  0.3829 -0.2577  0.0800
 7660TIP3    H144471   6.257   0.787  11.693  1.2445  0.5045  0.7348
 7660TIP3    H244472   6.266   0.665  11.783  1.6217  0.3558  0.5026
 7661TIP3   OH244473   3.319   1.513  13.828 -0.3427  0.6900  0.5180
 7661TIP3    H144474   3.351   1.513  13.738 -0.0555  1.1856  0.6113
 7661TIP3    H244475   3.251   1.580  13.830 -0.1432  0.8902  0.7337
 7662TIP3   OH244476   6.505   4.902   0.781 -0.4750 -0.0347  0.1721
 7662TIP3    H144477   6.599   4.918   0.775 -0.3682 -1.0562 -1.6138
 7662TIP3    H244478   6.470   4.931   0.696 -2.2189  2.7442  1.6918
 7663TIP3   OH244479   5.822   6.417   1.230 -0.5258 -0.2996  0.1228
 7663TIP3    H144480   5.905   6.385   1.193 -0.9733 -1.6547  0.2371
 7663TIP3    H244481   5.767   6.339   1.237 -1.9095  0.6056 -0.1582
 7664TIP3   OH244482   0.033   2.456   2.560  0.0357 -0.3339  0.1333
 7664TIP3    H144483   0.031   2.391   2.490 -1.5016 -1.1137  0.8678
 7664TIP3    H244484  -0.006   2.413   2.635 -0.7525  1.3345  0.7442
 7665TIP3   OH244485   0.082   0.387   1.869 -0.1911 -0.0965 -0.4500
 7665TIP3    H144486   0.118   0.355   1.786  0.5148  0.7236 -0.4727
 7665TIP3    H244487   0.074   0.482   1.857  0.9797  0.1899  0.7943
 7666TIP3   OH244488   1.239   4.194   2.211 -0.1492 -0.1873 -0.2180
 7666TIP3    H144489   1.334   4.184   2.219 -0.2298 -1.0401 -0.1539
 7666TIP3    H244490   1.226   4.285   2.188  0.5921  0.3620  1.3794
 7667TIP3   OH244491   4.188   4.088  16.721  0.2405  0.4468 -0.6409
 7667TIP3    H144492   4.206   4.102  16.628  1.4070  0.3024 -0.4521
 7667TIP3    H244493   4.196   4.175  16.760  1.8355  0.2082 -0.3674
 7668TIP3   OH244494   3.288   5.106  14.973  0.6373  0.0044  0.4637
 7668TIP3    H144495   3.239   5.184  14.999 -0.4205 -0.4966  0.0478
 7668TIP3    H244496   3.322   5.126  14.886 -1.1077 -0.5966 -0.4123
 7669TIP3   OH244497   2.668   4.690   2.095  0.6715  0.1047  0.0436
 7669TIP3    H144498   2.583   4.723   2.066  0.4244 -0.9647 -0.5196
 7669TIP3    H244499   2.714   4.767   2.129 -0.1837  0.8543 -0.4611
 7670TIP3   OH244500   1.400   1.005   4.289 -0.3982 -0.3534  0.2256
 7670TIP3    H144501   1.456   0.974   4.218 -0.3804  1.1421 -0.4464
 7670TIP3    H244502   1.376   0.926   4.338  1.5684 -1.1209  0.0031
 7671TIP3   OH244503   0.913   1.220   3.665 -0.1690  0.0825  0.5987
 7671TIP3    H144504   0.910   1.146   3.725  0.1895 -0.8862 -0.5337
 7671TIP3    H244505   1.006   1.239   3.655  0.0016 -1.4890 -1.6165
 7672TIP3   OH244506   1.989   2.138   4.570  0.1394  0.2758  0.1814
 7672TIP3    H144507   1.929   2.140   4.644  0.3337  1.5608  0.3192
 7672TIP3    H244508   2.005   2.045   4.555 -3.1691 -0.2359 -0.9304
 7673TIP3   OH244509   2.672   2.511   5.963 -0.3818 -0.4575 -0.1202
 7673TIP3    H144510   2.628   2.435   5.924 -0.1546 -1.3420  1.2821
 7673TIP3    H244511   2.759   2.512   5.922 -0.9448  0.0371 -1.3431
 7674TIP3   OH244512   0.802   1.254   2.267 -0.1867 -0.2923 -0.3577
 7674TIP3    H144513   0.741   1.196   2.222  0.7262 -2.1193  0.6680
 7674TIP3    H244514   0.850   1.198   2.328 -1.3676  2.0103  3.0041
 7675TIP3   OH244515   5.516   3.592  14.345 -0.2933  0.0125 -0.1817
 7675TIP3    H144516   5.473   3.645  14.277  0.2178  1.5168  0.6093
 7675TIP3    H244517   5.459   3.516  14.355 -1.5628  0.8295 -0.7616
 7676TIP3   OH244518   0.729   0.422   3.817 -0.9753  1.0417 -0.1997
 7676TIP3    H144519   0.686   0.343   3.851 -0.4575 -0.3817 -2.6168
 7676TIP3    H244520   0.676   0.448   3.742  1.0639  0.5385 -1.9036
 7677TIP3   OH244521   2.854   0.087  12.483  0.1403 -0.3696  0.8975
 7677TIP3    H144522   2.882   0.102  12.393 -1.1477 -1.0813  0.3422
 7677TIP3    H244523   2.915   0.023  12.518 -0.0703 -0.9970  0.1217
 7678TIP3   OH244524   5.776   2.836   3.720 -0.6740  0.7982  0.2424
 7678TIP3    H144525   5.786   2.920   3.674 -0.9019  0.6437 -0.0849
 7678TIP3    H244526   5.854   2.831   3.776  0.7997 -0.0544 -1.7659
 7679TIP3   OH244527   0.026   0.814  12.177 -0.5482 -0.5005  0.1099
 7679TIP3    H144528  -0.036   0.758  12.132  0.5080 -1.1532 -0.5713
 7679TIP3    H244529   0.017   0.899  12.134  0.0630 -0.9772 -0.9863
 7680TIP3   OH244530   5.572   6.007  16.255  0.3297 -0.5105  0.0749
 7680TIP3    H144531   5.516   5.929  16.259  0.2449 -0.6740 -2.4161
 7680TIP3    H244532   5.643   5.981  16.196  0.9575  0.9322  0.1666
 7681TIP3   OH244533   1.848   1.737   1.352 -0.2514  0.0974  0.0263
 7681TIP3    H144534   1.845   1.685   1.273 -1.6002 -1.5760  1.1195
 7681TIP3    H244535   1.935   1.720   1.389  0.0832  0.2733 -0.6693
 7682TIP3   OH244536   2.542   3.381  12.341 -0.5820 -0.3227  0.2249
 7682TIP3    H144537   2.615   3.442  12.331  0.6604 -1.9365 -1.5972
 7682TIP3    H244538   2.570   3.322  12.412 -1.2678  0.5016  1.2061
 7683TIP3   OH244539   6.589   5.668  15.562  0.3280 -0.2176 -0.2908
 7683TIP3    H144540   6.519   5.621  15.608 -1.5031  1.5290 -1.1375
 7683TIP3    H244541   6.635   5.716  15.631 -1.4004  1.1396  0.0166
 7684TIP3   OH244542   5.549   3.418  13.340 -0.1603  0.2344  0.0558
 7684TIP3    H144543   5.626   3.475  13.333 -0.0616  0.0993  0.0313
 7684TIP3    H244544   5.495   3.459  13.407  0.1658  0.0646  0.4302
 7685TIP3   OH244545   6.198   0.014   1.130 -0.2421  0.1918 -0.4139
 7685TIP3    H144546   6.176   0.053   1.046  1.5553  0.8576 -0.6298
 7685TIP3    H244547   6.292  -0.007   1.122 -0.5581 -1.8609  0.6018
 7686TIP3   OH244548   2.976   5.383   5.689 -0.5826 -0.0868 -0.1351
 7686TIP3    H144549   3.011   5.383   5.600  0.4849  2.8575  0.1617
 7686TIP3    H244550   2.954   5.474   5.706 -0.8690 -0.5663  2.5835
 7687TIP3   OH244551   4.503   2.996  13.069  0.3036  0.1238 -0.3478
 7687TIP3    H144552   4.523   2.933  13.139 -0.4015  1.2707  0.9360
 7687TIP3    H244553   4.518   3.081  13.110 -2.3514  0.8937 -0.8570
 7688TIP3   OH244554   5.195   2.361   5.341  0.0114  0.5246  0.5749
 7688TIP3    H144555   5.120   2.421   5.345 -0.0912  0.3973  0.5786
 7688TIP3    H244556   5.216   2.344   5.433 -0.3932  0.0194  0.5779
 7689TIP3   OH244557   3.592   3.808   3.077  0.4060 -0.4199 -0.1952
 7689TIP3    H144558   3.676   3.763   3.070 -0.6285 -2.8375  1.3871
 7689TIP3    H244559   3.603   3.865   3.154  0.5188 -0.9463  0.1857
 7690TIP3   OH244560   1.329   0.879   4.970  0.2793 -0.3631  0.2999
 7690TIP3    H144561   1.275   0.904   5.045 -2.5628 -1.7603 -1.1384
 7690TIP3    H244562   1.419   0.887   5.002 -0.7720  0.0076  3.5284
 7691TIP3   OH244563   3.764   1.166   0.322 -0.0945 -0.3345 -0.4623
 7691TIP3    H144564   3.849   1.207   0.303 -0.6059  0.4492 -1.1210
 7691TIP3    H244565   3.700   1.230   0.293 -0.9242 -0.6545  0.6161
 7692TIP3   OH244566   0.637   3.640  17.009  0.2126 -0.1330 -0.5422
 7692TIP3    H144567   0.608   3.641  17.100 -3.0299  0.6997 -1.4423
 7692TIP3    H244568   0.666   3.550  16.994 -0.7822 -0.7310  0.8801
 7693TIP3   OH244569   0.328   3.479  12.882  0.0727 -0.9596 -0.1268
 7693TIP3    H144570   0.278   3.398  12.871  0.1851 -1.1148  0.4988
 7693TIP3    H244571   0.265   3.549  12.863  0.0583 -1.1895 -0.9903
 7694TIP3   OH244572   3.053   5.251  15.454 -0.2238  0.6670  0.4523
 7694TIP3    H144573   3.009   5.281  15.533 -2.2965  1.0250 -0.7753
 7694TIP3    H244574   3.074   5.331  15.407 -0.5641  0.4022 -0.1563
 7695TIP3   OH244575   1.307   2.830   5.874  0.4802 -0.7029 -0.8225
 7695TIP3    H144576   1.382   2.864   5.825 -0.0552  1.6752 -0.1542
 7695TIP3    H244577   1.339   2.823   5.964  0.2601 -0.8840 -0.7577
 7696TIP3   OH244578   3.256   0.098  14.468  0.6449 -0.3103  0.1823
 7696TIP3    H144579   3.221   0.031  14.527  0.8316 -0.7582 -0.2018
 7696TIP3    H244580   3.227   0.069  14.381 -1.7199  1.6138  0.2135
 7697TIP3   OH244581   4.617   5.014   1.374 -0.6414 -0.2382 -0.1519
 7697TIP3    H144582   4.540   5.029   1.429 -0.0180  0.1204  0.6442
 7697TIP3    H244583   4.674   5.089   1.391  0.2429 -0.9055 -0.1061
 7698TIP3   OH244584   1.075   4.711   6.668  0.5885 -0.4726 -0.0763
 7698TIP3    H144585   1.165   4.690   6.644  0.1741 -0.5050 -1.6700
 7698TIP3    H244586   1.080   4.798   6.708  1.5233 -1.1472  1.3824
 7699TIP3   OH244587   4.189   6.754  11.543  0.1377  0.7003  0.3319
 7699TIP3    H144588   4.196   6.703  11.462  1.3932  2.5127 -0.7948
 7699TIP3    H244589   4.276   6.746  11.583 -0.0238  0.9835  0.7382
 7700TIP3   OH244590   0.974   5.126   4.037 -0.0417 -0.7905  0.2180
 7700TIP3    H144591   1.044   5.184   4.008 -0.3947 -0.1491  0.6152
 7700TIP3    H244592   0.916   5.120   3.961  0.1710 -0.8930  0.0638
 7701TIP3   OH244593   4.158   3.436  15.144 -0.1875  0.1154 -0.3223
 7701TIP3    H144594   4.100   3.406  15.074 -0.7359  0.5019 -0.0395
 7701TIP3    H244595   4.196   3.517  15.110 -1.7638  1.2539  0.4627
 7702TIP3   OH244596   0.992   1.893   4.624 -0.0845 -0.1188 -0.4399
 7702TIP3    H144597   0.973   1.942   4.544 -1.7999 -0.6351 -0.3958
 7702TIP3    H244598   0.905   1.873   4.660  0.6508 -0.4917  1.1806
 7703TIP3   OH244599   3.905   2.392  15.792  0.3025  0.0175  0.7906
 7703TIP3    H144600   3.917   2.482  15.822  0.9353 -0.0761  0.8431
 7703TIP3    H244601   3.988   2.369  15.750 -0.5124  0.0958 -0.9490
 7704TIP3   OH244602   0.187   6.213  12.739  0.2478  0.1089 -0.0519
 7704TIP3    H144603   0.273   6.255  12.750  0.1581  0.0518  0.9333
 7704TIP3    H244604   0.202   6.145  12.673  0.8668  0.3595 -0.1760
 7705TIP3   OH244605   3.733   5.457  15.806 -0.0460  0.0843  0.4302
 7705TIP3    H144606   3.810   5.486  15.758 -1.3675  0.4198 -1.6603
 7705TIP3    H244607   3.724   5.520  15.877  0.7622  0.9407 -0.1974
 7706TIP3   OH244608   2.406   5.311  13.250  0.2021  0.0284 -0.2580
 7706TIP3    H144609   2.412   5.338  13.341  0.0496  1.8774 -0.7535
 7706TIP3    H244610   2.438   5.220  13.249 -1.3155 -0.5825  1.8433
 7707TIP3   OH244611   4.796   1.918   0.323 -0.5660  0.1704 -0.1054
 7707TIP3    H144612   4.724   1.977   0.298 -0.5046 -0.4634 -1.9137
 7707TIP3    H244613   4.805   1.930   0.418 -0.4417  3.2122 -0.3794
 7708TIP3   OH244614   0.033   3.790  15.190  0.3296 -0.2654 -0.5140
 7708TIP3    H144615   0.093   3.716  15.187 -0.4520 -1.0051  0.9848
 7708TIP3    H244616  -0.053   3.752  15.168  0.0683  0.3649 -0.6115
 7709TIP3   OH244617   6.613   4.211  13.395  0.7001 -0.6125  0.4056
 7709TIP3    H144618   6.528   4.167  13.388 -0.3489  1.3910 -0.4579
 7709TIP3    H244619   6.630   4.218  13.489 -2.3519  2.7781  0.9512
 7710TIP3   OH244620   1.776   1.803  12.711 -0.3001  0.4597 -0.0152
 7710TIP3    H144621   1.710   1.867  12.736  0.8005  1.9118 -0.7044
 7710TIP3    H244622   1.731   1.745  12.649 -1.4584  0.2066  1.0289
 7711TIP3   OH244623   5.050   3.368   4.184 -0.2842 -0.2607 -0.4969
 7711TIP3    H144624   4.976   3.308   4.186  0.3565 -1.0628 -0.2801
 7711TIP3    H244625   5.102   3.339   4.109  2.5365 -3.1485  2.2471
 7712TIP3   OH244626   5.408   4.876  15.964  0.5284 -0.3988 -0.1334
 7712TIP3    H144627   5.339   4.892  15.900  0.5666 -0.1682 -0.1185
 7712TIP3    H244628   5.489   4.874  15.912  0.8065  1.7528  0.1116
 7713TIP3   OH244629   0.426   6.588   5.821  0.0583 -0.1329 -0.2770
 7713TIP3    H144630   0.477   6.639   5.884  1.9004 -2.0763 -0.1123
 7713TIP3    H244631   0.369   6.533   5.875  0.3413 -0.5082 -0.3613
 7714TIP3   OH244632   5.957   2.456  16.700  0.5977 -0.6294  0.2066
 7714TIP3    H144633   5.980   2.370  16.665 -2.8147 -1.9072  0.7985
 7714TIP3    H244634   5.959   2.445  16.795 -0.3957 -0.2261  0.2803
 7715TIP3   OH244635   2.566   4.447   5.387  0.1937 -0.0078 -0.3897
 7715TIP3    H144636   2.600   4.376   5.443 -0.7848  0.1074  0.3686
 7715TIP3    H244637   2.527   4.509   5.448  0.4474  0.8768 -1.1052
 7716TIP3   OH244638   2.438   2.518  15.038  0.4879  0.3367  0.0465
 7716TIP3    H144639   2.468   2.555  15.122  0.6674 -0.3615  0.2923
 7716TIP3    H244640   2.355   2.475  15.060 -0.1286  1.2533 -0.3990
 7717TIP3   OH244641   0.380   2.734  16.646 -0.2403 -0.3084 -0.3154
 7717TIP3    H144642   0.317   2.754  16.715  0.2632  1.4573 -0.3233
 7717TIP3    H244643   0.409   2.819  16.614  0.8502 -1.0851 -1.5127
 7718TIP3   OH244644   3.769   0.867  16.182  0.0254 -0.1382 -0.2075
 7718TIP3    H144645   3.695   0.847  16.240  0.3729 -1.1454 -0.0979
 7718TIP3    H244646   3.731   0.869  16.094 -0.5621  1.6844  0.0339
 7719TIP3   OH244647   4.155   2.026   1.211 -0.0337  0.2815 -0.2541
 7719TIP3    H144648   4.133   2.104   1.263  1.4044  0.0428  0.7870
 7719TIP3    H244649   4.238   1.996   1.249 -0.3005 -1.4487 -0.9914
 7720TIP3   OH244650   6.297   2.940   6.145  0.6180  0.1654 -0.2709
 7720TIP3    H144651   6.311   2.862   6.198 -0.9770 -0.9297 -1.3616
 7720TIP3    H244652   6.352   2.926   6.068  1.5044  0.8717  0.2151
 7721TIP3   OH244653   5.991   1.962  17.178  1.1363 -0.2987 -0.0503
 7721TIP3    H144654   5.910   1.960  17.229 -0.0922 -0.2091 -1.8972
 7721TIP3    H244655   6.059   1.938  17.241 -0.3723 -0.8910  1.4484
 7722TIP3   OH244656   3.793   3.690  12.161  0.3695  0.4426  0.1921
 7722TIP3    H144657   3.725   3.623  12.166  1.4421 -0.8643 -1.3108
 7722TIP3    H244658   3.864   3.656  12.216  0.6257  0.7350  0.0443
 7723TIP3   OH244659   2.868   6.515  13.157  0.0442 -0.7291 -0.3889
 7723TIP3    H144660   2.777   6.488  13.174 -0.0452 -0.8492 -1.0569
 7723TIP3    H244661   2.917   6.433  13.161 -0.0887 -0.8722 -1.4558
 7724TIP3   OH244662   2.598   2.951  15.059 -0.5735 -0.0747  0.2942
 7724TIP3    H144663   2.674   3.003  15.088 -0.4866  1.3989 -2.2450
 7724TIP3    H244664   2.633   2.896  14.989 -1.9025  1.1554 -1.4266
 7725TIP3   OH244665   3.484   6.218  13.741  0.2231  0.3205 -0.7817
 7725TIP3    H144666   3.412   6.231  13.803  0.8650 -0.3609  0.1271
 7725TIP3    H244667   3.506   6.306  13.711 -0.4624  0.6095 -0.4581
 7726TIP3   OH244668   6.236   2.773   4.979  0.2610  0.3549  0.0739
 7726TIP3    H144669   6.154   2.821   4.972  0.7290  1.7930  3.0623
 7726TIP3    H244670   6.304   2.840   4.976  1.0703 -0.3211  1.9072
 7727TIP3   OH244671   1.612   4.290   3.262 -0.0272 -0.4354 -0.1587
 7727TIP3    H144672   1.688   4.307   3.207  1.1787  0.8318  1.7839
 7727TIP3    H244673   1.616   4.357   3.330 -2.9731 -0.2568 -0.0366
 7728TIP3   OH244674   0.476   4.509  14.439  0.1854 -0.0679  0.1720
 7728TIP3    H144675   0.518   4.427  14.414  0.8113 -0.2174  1.6388
 7728TIP3    H244676   0.385   4.499  14.410  1.0874  0.3458 -3.2357
 7729TIP3   OH244677   0.990   1.923  16.763 -0.7500  0.2528 -0.1955
 7729TIP3    H144678   0.949   1.856  16.817 -0.0114 -0.8753 -0.9872
 7729TIP3    H244679   1.042   1.975  16.825  0.6151 -1.4227  0.1462
 7730TIP3   OH244680   0.779   2.674   0.576 -0.5756 -0.2826  0.4445
 7730TIP3    H144681   0.788   2.752   0.522 -3.3719 -0.1888 -0.0365
 7730TIP3    H244682   0.697   2.688   0.625 -0.6818 -2.4976  1.0237
 7731TIP3   OH244683   6.555   2.540   2.714  0.4683 -0.2279 -0.2722
 7731TIP3    H144684   6.498   2.617   2.717  0.4454 -0.2628  0.3383
 7731TIP3    H244685   6.573   2.520   2.806  1.1397 -0.4611 -0.4495
 7732TIP3   OH244686   3.465   3.483   1.659 -0.0613  0.1629  0.4479
 7732TIP3    H144687   3.522   3.558   1.678 -0.0476 -0.1076  1.5352
 7732TIP3    H244688   3.409   3.475   1.736 -1.9335  0.7177 -0.7960
 7733TIP3   OH244689   2.004   4.597  14.498 -0.6037 -0.1406  0.6694
 7733TIP3    H144690   2.025   4.540  14.572  0.7388 -0.2641  0.2142
 7733TIP3    H244691   1.915   4.570  14.472 -0.7362 -0.6961  1.6657
 7734TIP3   OH244692   0.442   5.423  14.798 -0.4293 -0.6394 -0.0705
 7734TIP3    H144693   0.351   5.425  14.827 -0.1256  1.7626  0.9472
 7734TIP3    H244694   0.493   5.437  14.877  0.5069  3.8798 -1.1681
 7735TIP3   OH244695   6.317   4.201  16.288 -0.3199 -0.1016 -0.3606
 7735TIP3    H144696   6.382   4.262  16.324 -0.5158 -0.1814  0.1414
 7735TIP3    H244697   6.368   4.124  16.263 -0.0853  0.2277 -0.9021
 7736TIP3   OH244698   2.057   5.476   6.154 -0.1786 -0.3163  0.3180
 7736TIP3    H144699   2.081   5.400   6.101 -0.9252 -2.3967  2.7281
 7736TIP3    H244700   1.982   5.445   6.206 -0.4698  2.0696  1.4395
 7737TIP3   OH244701   0.940   1.719  17.220  0.3757  0.3424 -0.1670
 7737TIP3    H144702   0.976   1.687  17.137  3.2371  1.3078  0.6039
 7737TIP3    H244703   0.918   1.811  17.203 -1.5906 -0.1411 -0.5255
 7738TIP3   OH244704   5.240   5.078  12.336 -0.0439  0.4677  0.0586
 7738TIP3    H144705   5.178   5.018  12.295  1.5670 -2.4038  1.5019
 7738TIP3    H244706   5.223   5.071  12.430  1.0657  1.2524  0.3500
 7739TIP3   OH244707   6.374   3.223  15.280  0.2722 -0.1717  0.1911
 7739TIP3    H144708   6.403   3.312  15.302 -0.3846  1.2886 -3.9671
 7739TIP3    H244709   6.438   3.192  15.217 -3.0862  0.4729 -4.0126
 7740TIP3   OH244710   2.835   5.805  17.325  0.2869  0.1759 -0.6293
 7740TIP3    H144711   2.783   5.830  17.248  1.1456 -1.1629 -1.6980
 7740TIP3    H244712   2.793   5.725  17.357  0.9587 -0.2362 -0.7664
 7741TIP3   OH244713   1.871   0.672   5.385 -0.1684  0.4199  0.3513
 7741TIP3    H144714   1.954   0.628   5.405 -0.1178 -0.2316 -1.1275
 7741TIP3    H244715   1.804   0.617   5.425 -0.0059 -0.2250 -0.2437
 7742TIP3   OH244716   1.503   5.787   2.350 -0.1240 -0.4878  0.4450
 7742TIP3    H144717   1.580   5.804   2.295  1.3733 -1.8826  1.9825
 7742TIP3    H244718   1.479   5.696   2.331 -1.7288  0.0666 -0.3482
 7743TIP3   OH244719   3.620   4.593   4.319  0.2612  0.6343 -0.1171
 7743TIP3    H144720   3.676   4.644   4.260 -0.0633  0.7843 -0.2992
 7743TIP3    H244721   3.564   4.659   4.361 -0.4573  0.3932 -0.6686
 7744TIP3   OH244722   5.464   5.483   3.895  0.0416 -0.2321 -0.4564
 7744TIP3    H144723   5.437   5.566   3.855  1.5923  0.1143 -0.8781
 7744TIP3    H244724   5.556   5.498   3.919 -0.0387 -1.4092  0.6403
 7745TIP3   OH244725   6.582   4.872   4.012 -0.3371  0.7554 -0.0876
 7745TIP3    H144726   6.523   4.837   3.945  0.3318 -0.4274 -0.0831
 7745TIP3    H244727   6.627   4.795   4.048 -0.7116  1.3488  1.7698
 7746TIP3   OH244728   0.417   4.544   2.901 -0.1274  0.4041  0.0160
 7746TIP3    H144729   0.481   4.615   2.900 -0.2909  0.6094  1.3766
 7746TIP3    H244730   0.443   4.486   2.830  0.9973  0.9740 -0.0527
 7747TIP3   OH244731   5.775   2.546  15.509 -0.5455 -0.0350  0.1770
 7747TIP3    H144732   5.801   2.530  15.419  1.1270 -0.2988  0.6702
 7747TIP3    H244733   5.816   2.474  15.559 -0.6295  0.6459  1.2601
 7748TIP3   OH244734   3.945   5.401  13.353  0.1049  0.7429 -0.3007
 7748TIP3    H144735   3.854   5.408  13.384  0.5729  1.6510  0.9313
 7748TIP3    H244736   3.986   5.339  13.413  0.3599  0.5332 -0.6936
 7749TIP3   OH244737   5.162   4.284   3.689  0.0671  0.1909 -0.0741
 7749TIP3    H144738   5.204   4.359   3.732  0.6741  0.9403 -1.8624
 7749TIP3    H244739   5.234   4.231   3.657 -0.3673 -0.4820  0.0438
 7750TIP3   OH244740   4.135   2.111   2.921 -0.2665  0.2458  0.1928
 7750TIP3    H144741   4.053   2.132   2.876 -0.7931  1.1814  1.5321
 7750TIP3    H244742   4.119   2.027   2.963 -0.3937  0.2350  0.1221
 7751TIP3   OH244743   6.001   2.623  16.293 -0.4223 -0.2537  0.0700
 7751TIP3    H144744   5.925   2.595  16.242  0.7662 -0.3204 -1.7950
 7751TIP3    H244745   6.042   2.542  16.322 -0.9384 -0.2208  0.9292
 7752TIP3   OH244746   0.287   5.375   3.516  0.2954 -0.5015  0.5392
 7752TIP3    H144747   0.197   5.372   3.550  0.2898  0.0663  0.5787
 7752TIP3    H244748   0.280   5.422   3.434  0.7079  0.4317  1.0327
 7753TIP3   OH244749   2.997   2.882   5.182 -0.1419  0.9154  0.0534
 7753TIP3    H144750   2.944   2.828   5.242 -0.1132  2.4674  1.5748
 7753TIP3    H244751   3.087   2.859   5.203 -0.1619  0.0082 -0.8324
 7754TIP3   OH244752   0.345   1.543   2.845 -0.0588 -0.0382 -0.7712
 7754TIP3    H144753   0.385   1.463   2.809 -0.0560  0.3731 -1.7154
 7754TIP3    H244754   0.417   1.589   2.887 -0.6870 -2.4397  3.6003
 7755TIP3   OH244755   4.045   1.255  15.016  0.6613  0.3907 -0.3351
 7755TIP3    H144756   4.030   1.274  15.109  1.8755 -0.3831  0.0415
 7755TIP3    H244757   3.966   1.287  14.972  1.0963  3.0560  0.6354
 7756TIP3   OH244758   1.808   6.190   3.337 -0.1663  0.1361 -0.1498
 7756TIP3    H144759   1.885   6.134   3.331 -0.9090 -0.9968  0.4230
 7756TIP3    H244760   1.751   6.145   3.399 -1.0733  1.2053 -0.1801
 7757TIP3   OH244761   3.299   3.455   1.905 -0.4228  0.1513  0.1206
 7757TIP3    H144762   3.338   3.443   1.992  3.5505 -0.7085 -1.5614
 7757TIP3    H244763   3.221   3.400   1.906  0.4904 -1.2670  2.5676
 7758TIP3   OH244764   1.545   1.215   4.266 -0.9025  0.0921 -0.3410
 7758TIP3    H144765   1.486   1.141   4.276 -0.9346  0.0023 -1.0753
 7758TIP3    H244766   1.572   1.238   4.355 -0.5349 -1.0925 -0.1261
 7759TIP3   OH244767   0.736   1.288  11.775 -0.4329 -0.3994 -0.3091
 7759TIP3    H144768   0.661   1.250  11.729 -2.1093  0.8124  1.3099
 7759TIP3    H244769   0.727   1.257  11.865 -0.5992  1.9684  0.5453
 7760TIP3   OH244770   5.929   4.734   5.072  0.2218 -0.1928 -0.0688
 7760TIP3    H144771   6.018   4.703   5.056 -0.5175 -0.9475 -3.5879
 7760TIP3    H244772   5.888   4.736   4.985 -3.9084 -2.0525  1.5628
 7761TIP3   OH244773   3.906   1.567  16.738  0.0680 -0.3525 -0.3749
 7761TIP3    H144774   3.890   1.648  16.690  1.3593  0.4524  0.4856
 7761TIP3    H244775   3.842   1.505  16.703 -1.5617  1.2771 -0.4182
 7762TIP3   OH244776   5.959   4.609  16.397  0.1283  0.2677  0.0723
 7762TIP3    H144777   5.870   4.641  16.410  0.0556 -0.2813  1.0135
 7762TIP3    H244778   5.953   4.553  16.320 -0.0887  1.1645 -0.5757
 7763TIP3   OH244779   5.735   5.424   4.596 -0.0489 -0.8354 -0.3898
 7763TIP3    H144780   5.677   5.413   4.671  0.6266  0.2208  0.3107
 7763TIP3    H244781   5.822   5.408   4.631  0.1601 -1.8399 -1.3062
 7764TIP3   OH244782   1.402   3.943   4.175 -0.1824  0.0634 -0.5810
 7764TIP3    H144783   1.423   3.849   4.180 -0.0979  0.0662 -0.8550
 7764TIP3    H244784   1.485   3.984   4.150 -0.0503  0.2869  0.1885
 7765TIP3   OH244785   2.262   1.544  17.025 -0.1946 -0.1149 -0.0935
 7765TIP3    H144786   2.171   1.551  17.055 -0.0637  0.8130  0.0975
 7765TIP3    H244787   2.257   1.560  16.930 -0.5604 -2.6997 -0.6001
 7766TIP3   OH244788   4.900   1.205  10.977 -0.4065 -0.4244 -0.1484
 7766TIP3    H144789   4.900   1.129  10.919  0.4985  0.1516 -0.9398
 7766TIP3    H244790   4.952   1.270  10.931 -0.4308  0.3760  0.9107
 7767TIP3   OH244791   3.471   1.848  12.526 -0.3835  0.0177 -0.9237
 7767TIP3    H144792   3.505   1.891  12.448  0.5917  0.5652 -0.2271
 7767TIP3    H244793   3.510   1.760  12.524 -0.6938 -0.1110 -1.2683
 7768TIP3   OH244794   2.611   4.754  12.997 -0.2028  0.2137  0.2090
 7768TIP3    H144795   2.553   4.741  13.072 -1.9935  2.1410 -0.6925
 7768TIP3    H244796   2.631   4.848  12.999  1.8218 -0.1770 -0.2920
 7769TIP3   OH244797   5.420   5.003   5.178 -0.2707 -0.7409  0.2756
 7769TIP3    H144798   5.464   4.923   5.150  1.8915 -0.1490  1.6942
 7769TIP3    H244799   5.330   4.977   5.195 -0.1262 -2.3872 -1.2659
 7770TIP3   OH244800   0.475   1.304   2.387  0.1675 -0.6956 -0.1490
 7770TIP3    H144801   0.439   1.244   2.452  1.9622 -0.4106  1.1800
 7770TIP3    H244802   0.548   1.256   2.348  0.2103 -0.2083 -0.6814
 7771TIP3   OH244803   4.715   6.759   0.218 -0.1043  0.0334 -0.3492
 7771TIP3    H144804   4.738   6.844   0.183  1.2832 -0.1854 -0.0111
 7771TIP3    H244805   4.666   6.716   0.148 -1.0130  1.1765 -0.4306
 7772TIP3   OH244806   0.202   4.598  15.180 -0.2213  0.7424  0.3566
 7772TIP3    H144807   0.241   4.512  15.189 -0.0865  0.8606  0.9235
 7772TIP3    H244808   0.126   4.584  15.124  0.4284  0.4528 -0.4647
 7773TIP3   OH244809   5.740   4.469  11.074  0.3412 -0.2439 -0.1912
 7773TIP3    H144810   5.781   4.518  11.004  0.5272 -2.8255 -2.0443
 7773TIP3    H244811   5.646   4.470  11.054  0.3792 -0.8710 -0.4285
 7774TIP3   OH244812   5.342   5.227  16.670  0.0078  0.8836  0.5432
 7774TIP3    H144813   5.398   5.250  16.596  1.1765 -0.2146  1.0408
 7774TIP3    H244814   5.391   5.159  16.717 -0.8565  1.2869  2.1164
 7775TIP3   OH244815   2.675   1.939  13.318 -0.0566 -0.2704 -0.0543
 7775TIP3    H144816   2.629   1.963  13.399 -1.4211 -0.5949 -0.7087
 7775TIP3    H244817   2.605   1.931  13.253  0.7593 -2.2854 -0.7252
 7776TIP3   OH244818   2.572   0.715   4.248  0.2742  0.1299 -0.0601
 7776TIP3    H144819   2.630   0.773   4.200 -0.9319  0.8886 -0.6458
 7776TIP3    H244820   2.487   0.723   4.204 -0.5114 -0.2465  1.3059
 7777TIP3   OH244821   5.113   2.284   1.022  0.6913  0.1735  0.0071
 7777TIP3    H144822   5.117   2.270   0.928  0.9650  0.0468  0.0349
 7777TIP3    H244823   5.023   2.262   1.047  0.0557  2.0127 -0.5036
 7778TIP3   OH244824   4.714   2.203  11.018  0.1406  0.2080  0.1933
 7778TIP3    H144825   4.724   2.204  10.923 -0.7038 -0.2805  0.0896
 7778TIP3    H244826   4.623   2.227  11.032  0.1404 -0.1640  0.8584
 7779TIP3   OH244827   4.750   4.739  14.408 -0.3439 -0.5384 -1.1592
 7779TIP3    H144828   4.677   4.690  14.446  0.1639 -1.1145 -0.9125
 7779TIP3    H244829   4.714   4.826  14.393 -0.4042 -0.0786  1.2383
 7780TIP3   OH244830   1.781   0.740   6.256  0.1018  0.1569 -0.6534
 7780TIP3    H144831   1.861   0.787   6.278  0.3580  0.4885 -2.1583
 7780TIP3    H244832   1.737   0.797   6.192 -0.1653 -1.0903 -1.6248
 7781TIP3   OH244833   4.263   0.383  14.130  0.1807 -0.1465  0.0567
 7781TIP3    H144834   4.249   0.450  14.063 -1.0060 -0.3704  0.0573
 7781TIP3    H244835   4.297   0.432  14.206 -0.9513  0.5220  0.1617
 7782TIP3   OH244836   0.307   1.570   4.361  0.3081  0.3882 -0.2451
 7782TIP3    H144837   0.296   1.545   4.453  0.6704  0.9653 -0.0394
 7782TIP3    H244838   0.388   1.527   4.334  0.8221  1.1398  0.0501
 7783TIP3   OH244839   3.782   5.142   5.627  0.4704  0.1210 -0.2946
 7783TIP3    H144840   3.841   5.138   5.552  1.7574  0.8111  0.6352
 7783TIP3    H244841   3.808   5.067   5.681  0.7258  0.6051  0.2676
 7784TIP3   OH244842   1.906   5.917  12.990  0.4706  0.0070 -0.3696
 7784TIP3    H144843   1.956   5.969  12.926  0.7795  0.2305  0.0519
 7784TIP3    H244844   1.893   5.833  12.946 -0.6044  0.6371 -1.3354
 7785TIP3   OH244845   2.387   2.388   0.218 -0.0095 -0.3339 -0.3550
 7785TIP3    H144846   2.303   2.379   0.264 -0.9819 -2.2605 -2.2973
 7785TIP3    H244847   2.363   2.430   0.135  1.7011  3.1262  0.7181
 7786TIP3   OH244848   3.543   0.028  14.530 -0.4137 -0.2622 -0.3906
 7786TIP3    H144849   3.600   0.050  14.456 -0.0635  0.3161  0.0447
 7786TIP3    H244850   3.455   0.045  14.497 -0.4346 -2.0257 -1.3739
 7787TIP3   OH244851   4.930   3.806  15.110  0.0599 -0.2308  0.6251
 7787TIP3    H144852   4.963   3.862  15.040 -1.2360  2.1382  1.7944
 7787TIP3    H244853   4.983   3.727  15.104  1.2510  0.6563 -1.8076
 7788TIP3   OH244854   2.553   0.492  17.497  0.0276  0.3628  0.5959
 7788TIP3    H144855   2.504   0.516  17.418  1.5847  1.5109 -0.0832
 7788TIP3    H244856   2.579   0.576  17.536 -0.0541 -0.1990  1.9010
 7789TIP3   OH244857   2.447   1.110   4.829 -0.0225  0.0462  0.4008
 7789TIP3    H144858   2.380   1.131   4.764  0.6579 -0.1944 -0.3889
 7789TIP3    H244859   2.402   1.053   4.891 -0.5943  0.0169 -0.0333
 7790TIP3   OH244860   3.882   6.213  11.246  0.2550 -0.3817  0.1064
 7790TIP3    H144861   3.854   6.285  11.302 -0.8298 -0.9114  0.2703
 7790TIP3    H244862   3.915   6.146  11.306 -0.4638 -0.7582  0.0889
 7791TIP3   OH244863   3.154   4.133   1.428  0.2277  0.0775  0.2526
 7791TIP3    H144864   3.190   4.205   1.478  0.2625 -1.7669  3.1205
 7791TIP3    H244865   3.126   4.069   1.494 -1.6774 -1.6778 -2.0480
 7792TIP3   OH244866   3.560   5.752  15.848  0.2823 -0.2970  0.0043
 7792TIP3    H144867   3.617   5.746  15.771 -0.5786 -2.5768 -0.5212
 7792TIP3    H244868   3.473   5.732  15.815 -0.7274  1.9718  1.0219
 7793TIP3   OH244869   4.057   5.074  16.771  0.1792  0.3316 -0.4422
 7793TIP3    H144870   4.003   5.119  16.837  0.1888  0.1072 -0.2789
 7793TIP3    H244871   3.994   5.042  16.706 -0.0667 -1.2655  0.5302
 7794TIP3   OH244872   0.245   2.775   4.400 -0.2647  0.1417  0.4144
 7794TIP3    H144873   0.163   2.734   4.425 -0.6621  0.3058 -0.5534
 7794TIP3    H244874   0.220   2.860   4.363 -0.0158 -0.9409 -2.5855
 7795TIP3   OH244875   4.230   1.646   1.325 -0.1750 -0.3102 -0.4438
 7795TIP3    H144876   4.234   1.682   1.236 -0.9416 -2.2151 -1.3070
 7795TIP3    H244877   4.233   1.551   1.312  2.8115 -0.6666  1.7590
 7796TIP3   OH244878   6.761   5.197  17.024 -0.7791 -0.4663  0.4008
 7796TIP3    H144879   6.706   5.256  16.972 -2.9990 -1.3789  1.5769
 7796TIP3    H244880   6.848   5.204  16.985 -1.9175  0.3218 -2.1969
 7797TIP3   OH244881   0.008   2.856  15.742  0.3778  0.0883 -0.7982
 7797TIP3    H144882   0.084   2.900  15.780 -0.9953  2.3561 -0.5320
 7797TIP3    H244883  -0.051   2.842  15.817  0.6002 -1.9770 -0.9365
 7798TIP3   OH244884   2.496   5.603  16.919  0.2226 -0.2806  0.0909
 7798TIP3    H144885   2.411   5.604  16.964  0.1062  0.5451 -0.1309
 7798TIP3    H244886   2.560   5.609  16.989  0.0366  1.1905  0.1608
 7799TIP3   OH244887   2.749   3.868   4.331  0.0831 -0.4055  0.1459
 7799TIP3    H144888   2.818   3.802   4.331 -0.8907 -1.4563 -0.4464
 7799TIP3    H244889   2.671   3.822   4.300  0.0197  1.7267 -3.3779
 7800TIP3   OH244890   6.227   0.021  15.914  0.3588  0.4156 -0.2179
 7800TIP3    H144891   6.156   0.063  15.866  0.4378 -0.2448 -0.9373
 7800TIP3    H244892   6.199  -0.070  15.923  1.0516  0.1756 -0.4070
 7801TIP3   OH244893   1.433   4.298   3.889 -0.2999 -0.3934 -0.3980
 7801TIP3    H144894   1.437   4.384   3.847 -1.4507 -1.2681 -2.5004
 7801TIP3    H244895   1.496   4.245   3.840  0.6343 -0.6898  1.0848
 7802TIP3   OH244896   3.310   2.356  16.180  0.2299 -0.1826  0.0587
 7802TIP3    H144897   3.234   2.415  16.181  0.3387  0.0221 -1.5012
 7802TIP3    H244898   3.343   2.358  16.270 -1.6414 -0.3213  0.7917
 7803TIP3   OH244899   2.048   6.730  13.693 -0.2820  0.2216 -0.4541
 7803TIP3    H144900   1.998   6.810  13.682 -1.0521 -0.2247 -0.3191
 7803TIP3    H244901   2.043   6.687  13.608  1.1636  0.8808 -0.8909
 7804TIP3   OH244902   4.289   4.257  12.907 -0.0238 -0.0414 -0.4685
 7804TIP3    H144903   4.258   4.171  12.879  1.7069 -1.6977  2.1597
 7804TIP3    H244904   4.382   4.257  12.885 -0.3027  1.8649 -1.8372
 7805TIP3   OH244905   6.619   0.814   6.230 -0.5748  0.1918  0.0132
 7805TIP3    H144906   6.705   0.851   6.210 -0.2772  1.0057  2.4717
 7805TIP3    H244907   6.624   0.789   6.322 -2.7819 -0.3661  0.0528
 7806TIP3   OH244908   1.742   3.062   2.736 -0.5812  0.1438  0.6920
 7806TIP3    H144909   1.699   2.978   2.721 -0.3604  0.0690  0.4655
 7806TIP3    H244910   1.805   3.069   2.664 -0.4342  0.3923  0.8459
 7807TIP3   OH244911   2.827   2.871   1.783  0.3736  0.0871 -0.8073
 7807TIP3    H144912   2.859   2.959   1.803  2.4724 -0.5316 -1.1977
 7807TIP3    H244913   2.805   2.874   1.690  1.9424 -0.1545 -1.2283
 7808TIP3   OH244914   3.909   3.994  11.754  0.1497  0.0779 -0.8913
 7808TIP3    H144915   3.823   4.003  11.795  0.0609 -1.9821 -0.5583
 7808TIP3    H244916   3.893   4.003  11.660 -0.4389 -0.3992 -0.8358
 7809TIP3   OH244917   6.100   0.332   0.174  0.2386  0.1490  0.2336
 7809TIP3    H144918   6.056   0.417   0.165  0.6126  0.5758  2.0493
 7809TIP3    H244919   6.180   0.352   0.222  1.0287 -1.0443 -0.5540
 7810TIP3   OH244920   5.924   1.898  16.217 -0.6007 -0.5380  0.0168
 7810TIP3    H144921   5.939   1.906  16.311 -0.1801 -5.4110  0.6560
 7810TIP3    H244922   5.829   1.886  16.209 -0.4816 -1.7798  0.1424
 7811TIP3   OH244923   1.335   4.725   0.205 -0.0945  0.0007 -0.0160
 7811TIP3    H144924   1.272   4.756   0.270 -0.4871 -1.0153  0.1002
 7811TIP3    H244925   1.355   4.803   0.153  0.9275  1.0596  1.8528
 7812TIP3   OH244926   0.261   1.122   0.724  0.1986  0.1130  0.3178
 7812TIP3    H144927   0.324   1.189   0.695  0.6503 -0.0758  0.8363
 7812TIP3    H244928   0.293   1.041   0.684 -1.7229  0.5439 -2.3533
 7813TIP3   OH244929   3.601   5.580  12.836  0.3761  1.1325  0.6812
 7813TIP3    H144930   3.660   5.534  12.896  0.4645 -0.9500 -0.8823
 7813TIP3    H244931   3.513   5.551  12.861  0.4700 -0.4869 -0.6932
 7814TIP3   OH244932   0.282   0.776  11.588  0.0107 -0.5164  0.0204
 7814TIP3    H144933   0.342   0.823  11.647 -1.2285  0.6394  0.4069
 7814TIP3    H244934   0.279   0.830  11.509 -2.4848  0.8841  0.9836
 7815TIP3   OH244935   3.245   3.359   5.973  0.5829 -0.6841  0.5545
 7815TIP3    H144936   3.176   3.405   5.924  1.4266 -1.2899 -1.3018
 7815TIP3    H244937   3.203   3.334   6.056 -1.6616 -1.5476 -0.7447
 7816TIP3   OH244938   0.156   1.165   4.674  0.6740 -0.1434  0.2211
 7816TIP3    H144939   0.123   1.215   4.600  1.1761 -1.2383 -0.7779
 7816TIP3    H244940   0.250   1.156   4.657  1.2161  1.4002  2.0962
 7817TIP3   OH244941   2.037   2.254   0.734  0.0413 -0.3654  1.0346
 7817TIP3    H144942   1.966   2.296   0.685 -1.0899 -2.0725  1.1297
 7817TIP3    H244943   2.028   2.290   0.822 -0.6390 -0.4712  1.0171
 7818TIP3   OH244944   3.163   6.605   0.893 -0.7431 -0.0944  0.1992
 7818TIP3    H144945   3.153   6.689   0.848  0.6495 -0.0600 -0.0852
 7818TIP3    H244946   3.136   6.623   0.983 -3.0633 -0.0369 -0.4267
 7819TIP3   OH244947   4.091   2.585  15.643  0.5940  0.0208 -0.1476
 7819TIP3    H144948   4.014   2.583  15.586 -0.9666  1.1914  1.8130
 7819TIP3    H244949   4.162   2.616  15.587 -0.8251  0.9449 -1.4995
 7820TIP3   OH244950   0.240   5.207  16.384  0.3454 -0.0509  0.1897
 7820TIP3    H144951   0.301   5.133  16.389 -0.3359 -0.6814 -0.5185
 7820TIP3    H244952   0.159   5.168  16.350 -0.9695  0.4626  2.5604
 7821TIP3   OH244953   3.062   2.015   0.018  0.0542 -0.1852 -0.6752
 7821TIP3    H144954   3.135   2.051  -0.032  0.4126  0.5803  0.3860
 7821TIP3    H244955   3.090   1.925   0.038  1.6490  0.7020  1.4538
 7822TIP3   OH244956   5.290   1.569  16.921  0.8670  0.8308  0.2125
 7822TIP3    H144957   5.348   1.504  16.883  0.0529 -0.9630  1.8372
 7822TIP3    H244958   5.327   1.587  17.007 -0.0322  0.9170  0.5992
 7823TIP3   OH244959   1.576   0.912  11.260  0.2069  0.3565 -0.5018
 7823TIP3    H144960   1.542   0.946  11.343 -0.6264  0.1889 -0.7672
 7823TIP3    H244961   1.566   0.817  11.267  1.1705  0.2499 -0.3599
 7824TIP3   OH244962   6.071   2.942   1.187 -0.7413 -0.2053 -0.4379
 7824TIP3    H144963   6.154   2.937   1.233 -0.6999  3.1604  0.1045
 7824TIP3    H244964   6.010   2.893   1.242  0.5620 -1.5871 -0.1562
 7825TIP3   OH244965   4.838   6.456  15.776  0.0411 -0.7064  0.2211
 7825TIP3    H144966   4.785   6.528  15.742 -1.2468 -1.4048  0.6697
 7825TIP3    H244967   4.868   6.409  15.698 -0.5081 -0.6469 -0.0298
 7826TIP3   OH244968   4.915   2.943  16.567  0.1611  0.1952  0.0640
 7826TIP3    H144969   4.853   3.008  16.601 -1.2287 -0.8103 -0.4186
 7826TIP3    H244970   5.001   2.978  16.587 -0.5168  2.4353 -0.6580
 7827TIP3   OH244971   4.021   4.873  14.969 -0.2909 -0.3420  0.0235
 7827TIP3    H144972   4.075   4.885  15.047  0.9164 -0.2521 -0.8082
 7827TIP3    H244973   4.041   4.784  14.940 -1.3798 -0.6831  0.2874
 7828TIP3   OH244974   2.443   2.704  15.556 -0.4497 -0.4613 -0.0993
 7828TIP3    H144975   2.385   2.761  15.606 -1.5843 -0.9612 -0.7996
 7828TIP3    H244976   2.476   2.759  15.485 -0.1423 -0.1980  0.2474
 7829TIP3   OH244977   1.477   0.892  14.559 -0.5514 -0.1183  0.4142
 7829TIP3    H144978   1.469   0.895  14.463 -2.2832  0.3138  0.5357
 7829TIP3    H244979   1.486   0.984  14.584 -0.3621 -0.2115  0.6815
 7830TIP3   OH244980   4.192   5.662  12.579 -0.2736 -0.3206  0.2566
 7830TIP3    H144981   4.187   5.609  12.658  1.5432 -1.2257 -0.1917
 7830TIP3    H244982   4.216   5.749  12.611 -2.2782  0.0563  0.9016
 7831TIP3   OH244983   3.373   5.315   0.137  0.5507  0.3630  0.5373
 7831TIP3    H144984   3.447   5.375   0.141  1.5453 -0.4256 -2.6625
 7831TIP3    H244985   3.299   5.370   0.109 -0.3345  1.2275  4.1127
 7832TIP3   OH244986   1.431   2.861   2.951 -0.2257 -0.3806  0.0907
 7832TIP3    H144987   1.493   2.799   2.989  0.4400  0.7617  0.9634
 7832TIP3    H244988   1.364   2.807   2.910  0.6222 -1.6555  0.3366
 7833TIP3   OH244989   1.334   1.121   1.023  0.2340 -0.3823 -0.3127
 7833TIP3    H144990   1.376   1.114   1.109 -0.2079  0.4228 -0.0209
 7833TIP3    H244991   1.406   1.115   0.961  0.4725 -1.9448  0.0526
 7834TIP3   OH244992   1.857   5.071  11.263 -0.0185 -0.5308 -0.3567
 7834TIP3    H144993   1.923   5.113  11.208 -0.4687 -1.0618 -1.3150
 7834TIP3    H244994   1.802   5.022  11.202 -1.1984 -0.2438  0.4351
 7835TIP3   OH244995   1.575   0.593   5.163  0.0749  0.1991 -0.1152
 7835TIP3    H144996   1.635   0.518   5.159  0.1534  0.2951 -0.7884
 7835TIP3    H244997   1.584   0.626   5.252  1.3167  0.4571 -0.3193
 7836TIP3   OH244998   3.174   6.330   1.048 -0.6091 -0.5221 -0.2889
 7836TIP3    H144999   3.107   6.268   1.019 -0.4392 -0.8407  0.0066
 7836TIP3    H245000   3.123   6.404   1.083 -0.8507 -1.6213  1.8403
 7837TIP3   OH245001   0.576   2.500   4.453 -0.4438  0.5688 -0.5166
 7837TIP3    H145002   0.590   2.426   4.511  2.6978 -0.6465 -2.5747
 7837TIP3    H245003   0.573   2.576   4.511 -1.3073 -0.8733  1.4549
 7838TIP3   OH245004   3.112   0.535   5.728  0.0827  0.3569 -0.3307
 7838TIP3    H145005   3.090   0.532   5.821  0.4296  0.9740 -0.2267
 7838TIP3    H245006   3.028   0.553   5.685 -0.0990 -0.0394 -0.1551
 7839TIP3   OH245007   1.774   4.340   5.566 -0.5674 -0.3015  0.2176
 7839TIP3    H145008   1.704   4.277   5.549  0.1786 -0.8883 -0.8021
 7839TIP3    H245009   1.853   4.299   5.530  0.1505  0.7125  0.5764
 7840TIP3   OH245010   2.485   1.427   4.087 -0.1329 -0.3969 -0.0756
 7840TIP3    H145011   2.521   1.397   4.171 -0.3687 -0.2355  0.0831
 7840TIP3    H245012   2.545   1.392   4.022  0.2834 -0.1776  0.1860
 7841TIP3   OH245013   0.754   2.488   5.192 -0.1756  0.3086 -0.4941
 7841TIP3    H145014   0.840   2.470   5.152 -1.0241 -1.1093 -1.7687
 7841TIP3    H245015   0.715   2.554   5.134 -1.0754 -1.1464 -1.5955
 7842TIP3   OH245016   5.497   1.290   4.949 -0.1578 -0.2135 -0.0666
 7842TIP3    H145017   5.437   1.242   4.893  0.6237 -0.9108 -0.3398
 7842TIP3    H245018   5.582   1.282   4.905  0.1411  0.7170  0.3219
 7843TIP3   OH245019   0.697   0.238  13.335 -0.2545  0.7173  0.3601
 7843TIP3    H145020   0.653   0.159  13.303  1.7039 -0.9517  1.6248
 7843TIP3    H245021   0.743   0.272  13.258  2.4862 -1.9371  0.6416
 7844TIP3   OH245022   0.807   4.869   6.857  0.0173 -0.1722  0.7795
 7844TIP3    H145023   0.746   4.936   6.888 -1.3875 -0.3584 -1.4003
 7844TIP3    H245024   0.893   4.908   6.869 -0.7699  2.6699 -1.6053
 7845TIP3   OH245025   0.745   2.445  11.331 -0.0179  0.1313 -0.5682
 7845TIP3    H145026   0.804   2.372  11.350  2.0394  1.9052  0.3795
 7845TIP3    H245027   0.658   2.410  11.346  0.8480 -2.2117 -0.5057
 7846TIP3   OH245028   5.655   3.032   1.914 -0.2164  0.7097  0.2976
 7846TIP3    H145029   5.730   3.091   1.902  1.3550 -1.4020 -0.8241
 7846TIP3    H245030   5.612   3.030   1.829 -1.8196  2.1683  1.0245
 7847TIP3   OH245031   5.398   3.739  11.911  0.9540  0.0620  0.1858
 7847TIP3    H145032   5.372   3.818  11.864  0.8618 -1.0345 -1.7616
 7847TIP3    H245033   5.316   3.692  11.928  0.9794  0.4820  1.5787
 7848TIP3   OH245034   4.611   3.747   5.450  0.3451 -0.0835 -0.8069
 7848TIP3    H145035   4.554   3.708   5.383 -0.1717 -1.2351  0.2507
 7848TIP3    H245036   4.555   3.753   5.528  1.2335  0.2339 -0.1808
 7849TIP3   OH245037   3.943   6.001  11.901 -0.4742  0.3387 -0.0697
 7849TIP3    H145038   4.004   6.073  11.887  1.5552 -1.6662 -2.7247
 7849TIP3    H245039   3.984   5.946  11.967 -0.2187 -0.1516 -0.6254
 7850TIP3   OH245040   3.402   4.932   0.893  0.2024 -0.2399  0.3462
 7850TIP3    H145041   3.447   4.924   0.809  0.3642 -2.1833  0.5710
 7850TIP3    H245042   3.394   5.026   0.907 -0.0503  0.1456 -1.9528
 7851TIP3   OH245043   6.434   4.415   5.292  0.2784 -0.3075 -0.3409
 7851TIP3    H145044   6.353   4.396   5.338 -0.4590  0.0385 -1.4423
 7851TIP3    H245045   6.417   4.386   5.202 -0.0124  3.1360 -1.5286
 7852TIP3   OH245046   1.438   0.443  16.021 -0.3011 -0.3031 -0.0115
 7852TIP3    H145047   1.512   0.384  16.028 -0.4546 -0.6002 -0.8364
 7852TIP3    H245048   1.376   0.412  16.088 -0.1484 -0.7347 -0.0696
 7853TIP3   OH245049   2.687   4.628  16.341 -0.3817 -0.0524  0.2082
 7853TIP3    H145050   2.742   4.625  16.263 -0.7314  0.4999 -0.0617
 7853TIP3    H245051   2.622   4.696  16.323 -0.9784 -0.4948  0.6452
 7854TIP3   OH245052   0.757   2.245   5.322 -0.3259  0.1377  0.0072
 7854TIP3    H145053   0.727   2.324   5.277 -0.2093 -0.2592 -0.7815
 7854TIP3    H245054   0.852   2.252   5.322 -0.1274 -1.3137 -2.5946
 7855TIP3   OH245055   6.600   2.697  11.556  0.7871 -0.0731 -0.2536
 7855TIP3    H145056   6.680   2.747  11.540  0.9074  0.3445  1.4636
 7855TIP3    H245057   6.530   2.754  11.525  0.9288  1.1915  1.5756
 7856TIP3   OH245058   1.568   1.197  12.254  0.2430 -0.0624  0.0303
 7856TIP3    H145059   1.525   1.234  12.332 -0.5373 -1.0209  0.0761
 7856TIP3    H245060   1.567   1.102  12.269  1.3461 -0.1744 -0.5201
 7857TIP3   OH245061   2.000   5.479   3.033 -0.1803  0.0909 -0.0184
 7857TIP3    H145062   1.940   5.404   3.035 -1.7780  1.2994 -0.8579
 7857TIP3    H245063   2.087   5.439   3.027 -0.8638 -1.7152  1.0251
 7858TIP3   OH245064   5.169   0.431   0.628 -0.0412 -0.3009  0.3620
 7858TIP3    H145065   5.224   0.491   0.678  0.4336  0.2961 -0.8357
 7858TIP3    H245066   5.210   0.427   0.542 -0.0945 -2.3155  0.3871
 7859TIP3   OH245067   3.866   6.400  14.651 -0.3822 -0.0790  0.0298
 7859TIP3    H145068   3.837   6.408  14.560  0.7245 -0.2143 -0.3604
 7859TIP3    H245069   3.821   6.470  14.697  0.2969  1.0551 -0.9673
 7860TIP3   OH245070   4.722   2.818   5.139  0.1855  0.0285  0.1303
 7860TIP3    H145071   4.742   2.725   5.150  1.3864  0.3760  1.2116
 7860TIP3    H245072   4.657   2.836   5.207 -0.2198 -0.0690 -0.2309
 7861TIP3   OH245073   5.898   5.397  11.643  0.1873 -0.1027 -0.3080
 7861TIP3    H145074   5.952   5.387  11.721 -0.0018 -1.4407 -0.3288
 7861TIP3    H245075   5.816   5.435  11.675 -0.0472 -1.0353  0.2228
 7862TIP3   OH245076   2.492   2.582   0.477  0.2699  0.3947  0.3603
 7862TIP3    H145077   2.399   2.600   0.470  0.2582  0.2057  0.0445
 7862TIP3    H245078   2.519   2.557   0.389  0.3216 -0.9993  0.7555
 7863TIP3   OH245079   4.993   1.770   3.912 -0.1448 -0.5616 -0.1144
 7863TIP3    H145080   4.985   1.757   4.006 -0.2231 -2.5151 -0.3554
 7863TIP3    H245081   5.061   1.708   3.885 -2.3715 -2.4660 -1.7841
 7864TIP3   OH245082   1.103   1.566   0.363  0.4349 -0.2635  0.9182
 7864TIP3    H145083   1.009   1.553   0.377  0.4780  1.0351  2.8446
 7864TIP3    H245084   1.142   1.547   0.448  1.7290  0.8099  0.5878
 7865TIP3   OH245085   6.577   1.360  17.038 -0.1077  0.3097  0.6129
 7865TIP3    H145086   6.498   1.413  17.035 -1.9246 -2.1049 -3.7595
 7865TIP3    H245087   6.552   1.281  17.085  0.5466  0.5730  1.4276
 7866TIP3   OH245088   0.783   5.606  13.409 -0.4592 -1.0367 -0.2856
 7866TIP3    H145089   0.798   5.682  13.354 -1.2258  0.7246  1.8057
 7866TIP3    H245090   0.718   5.554  13.362 -1.7309  0.8287 -0.6973
 7867TIP3   OH245091   0.494   3.774  16.107 -0.1603 -0.7560  0.7699
 7867TIP3    H145092   0.409   3.739  16.082 -0.2467 -0.9227  1.2943
 7867TIP3    H245093   0.538   3.792  16.024 -1.5806  1.5246  0.4381
 7868TIP3   OH245094   2.876   3.766  17.357  0.2627  0.6431  0.5134
 7868TIP3    H145095   2.927   3.734  17.431 -0.3598 -0.8630  0.3166
 7868TIP3    H245096   2.831   3.844  17.392 -0.3679 -0.2829  1.8757
 7869TIP3   OH245097   3.393   5.406  15.913  0.4069 -0.3802 -0.1669
 7869TIP3    H145098   3.338   5.425  15.989 -0.7484 -0.4257 -0.9626
 7869TIP3    H245099   3.478   5.383  15.950 -0.0784 -0.2214  1.1003
 7870TIP3   OH245100   6.578   2.422  12.522  0.6515  0.1951  0.2286
 7870TIP3    H145101   6.661   2.374  12.510  1.0874  1.2071 -1.1235
 7870TIP3    H245102   6.510   2.355  12.514  1.2977 -0.4383 -0.0517
 7871TIP3   OH245103   1.357   6.103  15.699 -0.5191  0.6746 -0.2411
 7871TIP3    H145104   1.293   6.146  15.755 -0.5054  2.2758 -1.3820
 7871TIP3    H245105   1.372   6.018  15.741 -0.8848  1.5763  1.8821
 7872TIP3   OH245106   4.145   1.288   1.912  0.1437  0.0667  0.1634
 7872TIP3    H145107   4.200   1.267   1.836 -0.3128  0.5733 -0.3068
 7872TIP3    H245108   4.097   1.207   1.929 -2.8675  1.0600 -2.6808
 7873TIP3   OH245109   3.331   4.228   2.803 -0.6244  0.2232  0.1615
 7873TIP3    H145110   3.349   4.304   2.858  2.5461 -1.3224  1.5663
 7873TIP3    H245111   3.275   4.172   2.858 -1.0446  0.5433  0.0601
 7874TIP3   OH245112   2.245   4.964  17.016  0.1859 -0.6061 -0.1099
 7874TIP3    H145113   2.234   4.880  16.972  1.1211 -0.0978 -1.3994
 7874TIP3    H245114   2.327   4.999  16.980 -0.3504  0.9943  0.1291
 7875TIP3   OH245115   4.610   6.100   0.327 -0.3842  0.1754 -0.3986
 7875TIP3    H145116   4.543   6.034   0.344  0.1152  0.1897  2.0123
 7875TIP3    H245117   4.595   6.167   0.394  2.1005  0.0906  0.3421
 7876TIP3   OH245118   2.849   5.329  13.754 -0.5743  0.4189  0.1963
 7876TIP3    H145119   2.823   5.409  13.797 -2.0189  0.1967 -0.2035
 7876TIP3    H245120   2.802   5.330  13.670 -0.7265 -0.8951  0.2402
 7877TIP3   OH245121   6.119   1.985   0.842 -0.3766 -0.1719  0.0485
 7877TIP3    H145122   6.041   1.930   0.832 -1.9931  2.0882 -0.7687
 7877TIP3    H245123   6.108   2.027   0.927 -0.2579  0.4618 -0.2440
 7878TIP3   OH245124   0.825   5.240   6.239 -0.1991  0.4896 -0.2062
 7878TIP3    H145125   0.911   5.234   6.197 -0.0689  1.6914 -0.1240
 7878TIP3    H245126   0.825   5.324   6.283 -1.1708  0.1978  0.3785
 7879TIP3   OH245127   4.286   4.168   0.633  0.0407 -0.3500  0.2695
 7879TIP3    H145128   4.233   4.201   0.560 -0.9650 -1.0948  0.6418
 7879TIP3    H245129   4.364   4.223   0.632 -1.1077  1.3552  0.2174
 7880TIP3   OH245130   5.437   3.940  17.490 -0.0794 -0.0816 -0.3580
 7880TIP3    H145131   5.421   3.849  17.514  0.8132  0.3077  2.0327
 7880TIP3    H245132   5.373   3.959  17.422 -2.2871 -1.6482  1.1506
 7881TIP3   OH245133   3.731   4.186   0.504 -0.0247  0.5515 -0.0184
 7881TIP3    H145134   3.756   4.210   0.593 -0.1274 -0.0634  0.1816
 7881TIP3    H245135   3.812   4.155   0.463 -0.0398  0.5440 -0.0428
 7882TIP3   OH245136   1.381   4.737  14.099  0.3127 -0.3861  0.1209
 7882TIP3    H145137   1.369   4.826  14.129 -0.2440 -0.6075  0.5800
 7882TIP3    H245138   1.473   4.731  14.074 -0.2423  1.1833 -2.7384
 7883TIP3   OH245139   1.664   5.521   1.707  0.3889  0.0431  0.6418
 7883TIP3    H145140   1.631   5.500   1.794 -1.1471  0.3803  0.1612
 7883TIP3    H245141   1.734   5.457   1.693 -0.9883 -1.6687  1.1289
 7884TIP3   OH245142   3.637   6.767  12.265  0.2682 -0.0501 -0.0984
 7884TIP3    H145143   3.655   6.757  12.171 -0.4536  0.9054 -0.3539
 7884TIP3    H245144   3.704   6.714  12.308  1.6008  0.7808 -1.0898
 7885TIP3   OH245145   4.465   5.261   3.328  0.2052 -0.0275  0.6884
 7885TIP3    H145146   4.499   5.209   3.255  0.4919 -0.6198  1.2293
 7885TIP3    H245147   4.412   5.329   3.286 -2.8375 -2.5764 -0.0066
 7886TIP3   OH245148   5.782   5.658  16.561  0.3559  0.1084  0.1483
 7886TIP3    H145149   5.756   5.572  16.595 -1.4415  0.9750  1.0532
 7886TIP3    H245150   5.770   5.651  16.466 -0.5626 -0.3869  0.2922
 7887TIP3   OH245151   4.694   5.145  14.008  0.3506  0.0078 -0.2175
 7887TIP3    H145152   4.653   5.181  13.929 -0.5479  1.2359  0.7800
 7887TIP3    H245153   4.785   5.130  13.982 -0.3394 -1.4551 -2.0573
 7888TIP3   OH245154   3.718   2.110  11.761  0.3378  0.0847  0.5045
 7888TIP3    H145155   3.647   2.047  11.778  0.8267 -0.0694  2.1519
 7888TIP3    H245156   3.792   2.076  11.810  1.1037  1.0728  0.0569
 7889TIP3   OH245157   6.329   5.839   3.611  0.1665  0.1825  0.1865
 7889TIP3    H145158   6.327   5.866   3.520  0.0883  2.9993  0.9246
 7889TIP3    H245159   6.244   5.866   3.646  0.1691 -0.9042  1.0915
 7890TIP3   OH245160   6.090   3.741   6.852 -0.0991  0.1390 -0.1336
 7890TIP3    H145161   6.005   3.742   6.808 -0.5745  1.8408  0.7298
 7890TIP3    H245162   6.154   3.751   6.782 -0.7071  0.4817 -0.6527
 7891TIP3   OH245163   4.663   0.882  16.706  0.5610  0.4486 -0.4314
 7891TIP3    H145164   4.593   0.821  16.680  1.0102 -1.1416  1.7992
 7891TIP3    H245165   4.619   0.967  16.713 -0.2572  0.3101 -2.8412
 7892TIP3   OH245166   2.321   5.570  11.845 -0.5663 -0.9924  0.1325
 7892TIP3    H145167   2.290   5.539  11.760 -0.6431 -0.3901 -0.0687
 7892TIP3    H245168   2.275   5.654  11.858  0.2980 -0.5228  0.2424
 7893TIP3   OH245169   6.202   4.349   5.422 -0.3017  0.2483 -0.3259
 7893TIP3    H145170   6.157   4.433   5.422 -0.3588  0.2192 -0.7863
 7893TIP3    H245171   6.138   4.287   5.387 -0.5687 -0.1625  0.8166
 7894TIP3   OH245172   3.749   1.733   4.270  0.4790  0.1151 -0.0305
 7894TIP3    H145173   3.754   1.699   4.180  0.1565 -1.7311  0.5934
 7894TIP3    H245174   3.662   1.772   4.277  0.7094  0.7659 -0.6644
 7895TIP3   OH245175   4.659   3.260   3.831  0.4902  0.1988 -0.3853
 7895TIP3    H145176   4.567   3.235   3.824  0.7584 -1.3896  1.1256
 7895TIP3    H245177   4.677   3.311   3.751 -2.1937  2.2769  0.2110
 7896TIP3   OH245178   1.448   1.835   2.075 -0.2131  0.0354  0.1486
 7896TIP3    H145179   1.458   1.923   2.110 -1.2844 -0.0264  0.6224
 7896TIP3    H245180   1.531   1.818   2.030  0.2250  1.0562  0.5455
 7897TIP3   OH245181   2.465   0.956   5.422  0.2771 -0.1634  0.9479
 7897TIP3    H145182   2.399   0.888   5.439 -1.2887  0.7624 -0.9902
 7897TIP3    H245183   2.527   0.914   5.362 -1.3616  0.3467 -1.2541
 7898TIP3   OH245184   1.164   3.877  15.102  0.2249  0.1544 -0.3006
 7898TIP3    H145185   1.149   3.861  15.195 -0.3194  0.4386 -0.3326
 7898TIP3    H245186   1.139   3.795  15.059  0.4074  0.0476 -0.2012
 7899TIP3   OH245187   2.665   1.598   0.416 -0.3680  0.0595  0.2126
 7899TIP3    H145188   2.589   1.546   0.443  0.2014 -2.1991 -2.1562
 7899TIP3    H245189   2.627   1.680   0.383 -1.7520 -0.8023 -0.4237
 7900TIP3   OH245190   2.344   2.441   5.489  0.0232 -0.2973  0.1420
 7900TIP3    H145191   2.375   2.369   5.543 -0.1355  0.1754  0.8769
 7900TIP3    H245192   2.259   2.464   5.526  0.6338  1.1036  0.7280
 7901TIP3   OH245193   1.130   2.669   0.948  0.0406 -0.8746  0.0930
 7901TIP3    H145194   1.079   2.618   0.885 -2.2955 -0.8187  1.8206
 7901TIP3    H245195   1.159   2.604   1.012 -2.8783 -0.1818  2.2617
 7902TIP3   OH245196   1.970   4.883   6.615  0.3716 -0.3980  0.2718
 7902TIP3    H145197   1.909   4.955   6.632 -0.8936 -0.7107 -2.3351
 7902TIP3    H245198   1.913   4.807   6.600  1.3830 -0.8779 -1.4906
 7903TIP3   OH245199   2.597   3.615   4.447 -0.3497  0.2608 -0.4091
 7903TIP3    H145200   2.601   3.547   4.514  1.5372 -1.1050 -1.7865
 7903TIP3    H245201   2.552   3.688   4.489 -1.8870 -1.5864  1.3559
 7904TIP3   OH245202   3.687   2.648   0.222 -0.2609 -0.1459 -0.3285
 7904TIP3    H145203   3.692   2.615   0.133 -1.3947 -1.3141  0.0042
 7904TIP3    H245204   3.593   2.653   0.241 -0.0435 -0.8679  1.1132
 7905TIP3   OH245205   1.229   5.186   6.354 -0.1072 -0.2498  0.0401
 7905TIP3    H145206   1.253   5.255   6.417  0.1857  0.0529 -0.4002
 7905TIP3    H245207   1.196   5.115   6.409 -0.5945  0.3119  0.4876
 7906TIP3   OH245208   6.479   1.568  15.816 -0.1477 -0.3786 -0.2158
 7906TIP3    H145209   6.561   1.518  15.816  1.1535  1.6416 -1.1236
 7906TIP3    H245210   6.456   1.577  15.908  0.7307 -0.8410  0.0567
 7907TIP3   OH245211   3.671   3.971   1.658  0.0553  0.7391  0.3708
 7907TIP3    H145212   3.736   4.018   1.709  0.7511  0.5471 -0.3106
 7907TIP3    H245213   3.722   3.917   1.598 -0.7306 -0.1445  0.4663
 7908TIP3   OH245214   1.796   3.939  16.639 -0.2342  0.2169 -0.2411
 7908TIP3    H145215   1.736   4.012  16.623 -3.3378 -1.3019  3.1215
 7908TIP3    H245216   1.853   3.970  16.709 -0.0184  0.1667 -0.3947
 7909TIP3   OH245217   4.533   4.945  12.506  0.5655  0.3132 -0.1956
 7909TIP3    H145218   4.565   4.855  12.509 -0.0894  0.0612 -0.4269
 7909TIP3    H245219   4.560   4.983  12.590 -0.0348 -0.4147  0.3454
 7910TIP3   OH245220   5.834   1.360   6.021 -0.6004 -0.1955  0.0024
 7910TIP3    H145221   5.846   1.266   6.007  0.5258  0.2933 -2.9989
 7910TIP3    H245222   5.827   1.369   6.116 -0.7269 -3.2861  0.3932
 7911TIP3   OH245223   6.213   0.442  11.874 -0.4139  0.5443 -0.0797
 7911TIP3    H145224   6.220   0.384  11.798  1.7005 -0.0178  0.4973
 7911TIP3    H245225   6.302   0.475  11.889 -0.5855  0.0290  2.6059
 7912TIP3   OH245226   1.464   0.038   4.782 -0.3780 -0.9130  0.1339
 7912TIP3    H145227   1.495  -0.032   4.725  0.3034 -0.2453 -0.3493
 7912TIP3    H245228   1.507   0.117   4.748 -3.3717  0.2803 -1.2038
 7913TIP3   OH245229   4.650   1.899   3.112  0.4610  0.4717 -0.1442
 7913TIP3    H145230   4.719   1.965   3.109  0.6737  0.2257 -1.6905
 7913TIP3    H245231   4.597   1.917   3.035 -0.8605  0.2719  0.6907
 7914TIP3   OH245232   4.247   6.187  13.917 -0.1970  0.1999  0.5601
 7914TIP3    H145233   4.215   6.181  13.827 -2.0442 -2.1695  1.2646
 7914TIP3    H245234   4.260   6.280  13.932  0.2289  0.6594 -2.1481
 7915TIP3   OH245235   6.529   4.964  13.955 -0.0549  0.2532 -0.0973
 7915TIP3    H145236   6.619   4.961  13.924 -0.1252 -0.5402 -0.2567
 7915TIP3    H245237   6.505   5.056  13.952  0.6684  0.4406 -0.2874
 7916TIP3   OH245238   3.073   2.252  15.816 -0.0892 -0.1245 -0.0102
 7916TIP3    H145239   3.049   2.332  15.770 -0.7693 -0.4311 -0.1875
 7916TIP3    H245240   3.159   2.272  15.854 -1.4440  1.7520  2.3875
 7917TIP3   OH245241   2.871   6.034  12.842 -0.1488  0.2846  0.3720
 7917TIP3    H145242   2.782   5.999  12.849 -0.7654  1.6406 -0.2639
 7917TIP3    H245243   2.874   6.074  12.755  0.6563  1.3699  0.8739
 7918TIP3   OH245244   0.007   4.490  12.891  0.3027  0.0330  0.1482
 7918TIP3    H145245  -0.011   4.529  12.806  0.6164 -0.6801 -0.2517
 7918TIP3    H245246  -0.040   4.407  12.890 -0.7083  0.5619  1.1556
 7919TIP3   OH245247   5.567   1.790   5.834  0.9695  0.2888  0.2094
 7919TIP3    H145248   5.472   1.781   5.841  0.9430 -0.2489 -0.7407
 7919TIP3    H245249   5.600   1.747   5.913  0.3726  2.1895  1.5532
 7920TIP3   OH245250   2.193   6.048  16.729 -0.0267  0.4147  0.1495
 7920TIP3    H145251   2.206   6.098  16.648 -1.8879 -0.0598 -0.4945
 7920TIP3    H245252   2.281   6.024  16.757  0.6491 -0.0289 -2.1377
 7921TIP3   OH245253   3.186   3.284   4.516 -0.0323  0.3853  0.0338
 7921TIP3    H145254   3.147   3.325   4.593 -2.9967  0.9121 -1.5895
 7921TIP3    H245255   3.136   3.203   4.504 -0.4691  0.8890 -1.9422
 7922TIP3   OH245256   3.808   5.459   1.835  0.1487  1.1648  0.5385
 7922TIP3    H145257   3.805   5.375   1.790 -0.7943  1.3210  0.2756
 7922TIP3    H245258   3.898   5.469   1.864  0.9273  1.2883 -1.7422
 7923TIP3   OH245259   6.636   6.652  17.153  0.4244 -0.2914  0.0455
 7923TIP3    H145260   6.665   6.741  17.173 -1.3042  0.3275  0.0439
 7923TIP3    H245261   6.703   6.617  17.096  1.3148  0.8975  0.3201
 7924TIP3   OH245262   0.859   4.416  12.433  0.0065  0.3906  0.0387
 7924TIP3    H145263   0.950   4.447  12.437 -0.1360  0.9319 -0.6367
 7924TIP3    H245264   0.824   4.457  12.354 -1.7027  2.5175  1.7688
 7925TIP3   OH245265   2.413   3.876   0.583  0.3646 -0.6955 -0.0433
 7925TIP3    H145266   2.508   3.887   0.577  0.4837 -2.0158 -1.1586
 7925TIP3    H245267   2.397   3.845   0.672  1.2412 -2.4245 -0.4361
 7926TIP3   OH245268   5.060   5.922  13.968  0.2014  0.2640  0.6259
 7926TIP3    H145269   5.124   5.852  13.982 -0.7626 -0.8026 -0.1443
 7926TIP3    H245270   5.050   5.961  14.055 -0.8707 -2.0233  1.6371
 7927TIP3   OH245271   0.890   5.161  11.645  0.1007  0.3569  0.6970
 7927TIP3    H145272   0.811   5.108  11.646 -0.4685  1.1187 -0.9193
 7927TIP3    H245273   0.946   5.121  11.578 -0.6981  2.2023 -1.1759
 7928TIP3   OH245274   5.763   0.763   0.947 -0.0379  0.0605  0.3147
 7928TIP3    H145275   5.717   0.682   0.926 -0.6112  0.3778  0.3395
 7928TIP3    H245276   5.695   0.822   0.980  0.3391  0.6271  0.0946
 7929TIP3   OH245277   5.737   4.917   5.618 -0.0749 -0.0963  0.0378
 7929TIP3    H145278   5.732   4.885   5.709  0.0908 -1.3661 -0.3742
 7929TIP3    H245279   5.828   4.901   5.593 -0.3516 -0.6585 -0.6511
 7930TIP3   OH245280   3.378   1.565  17.170 -0.0690 -0.0314 -0.0492
 7930TIP3    H145281   3.342   1.479  17.193  0.7360 -0.7496 -1.3316
 7930TIP3    H245282   3.461   1.545  17.127 -0.6355  1.2777 -1.8776
 7931TIP3   OH245283   4.178   1.073   5.006  0.1920 -0.3145  0.1776
 7931TIP3    H145284   4.152   1.099   4.917  0.5583  0.7653  0.3786
 7931TIP3    H245285   4.100   1.089   5.059  0.1350 -0.4903  0.1500
 7932TIP3   OH245286   0.704   1.928   3.965  0.2405  0.1902  0.1163
 7932TIP3    H145287   0.661   1.846   3.989 -0.8400  0.9837  1.0268
 7932TIP3    H245288   0.637   1.995   3.978  0.7654  1.1223 -1.6272
 7933TIP3   OH245289   3.323   2.957  16.421 -0.2986 -0.7404  0.3458
 7933TIP3    H145290   3.263   2.961  16.496 -1.3581  2.4125 -0.4995
 7933TIP3    H245291   3.265   2.952  16.345  0.4488  1.2533 -0.4396
 7934TIP3   OH245292   1.294   3.775  12.661 -0.2190 -0.4257 -0.3478
 7934TIP3    H145293   1.201   3.792  12.654 -0.4589 -2.0576 -1.5741
 7934TIP3    H245294   1.302   3.712  12.733  0.2306  1.4045  1.3093
 7935TIP3   OH245295   2.264   0.333  12.427 -0.0041 -0.0176 -0.5665
 7935TIP3    H145296   2.182   0.372  12.459  0.9080  1.4861  0.0688
 7935TIP3    H245297   2.329   0.357  12.492  0.5708 -3.2155  0.1775
 7936TIP3   OH245298   4.543   4.951   6.136  0.1047  0.5101 -0.3777
 7936TIP3    H145299   4.568   4.879   6.077  2.2125 -0.8148  1.9544
 7936TIP3    H245300   4.507   4.907   6.213 -0.3735  2.0839  0.3367
 7937TIP3   OH245301   0.348   4.604   1.368 -0.2220 -0.1852 -0.9256
 7937TIP3    H145302   0.367   4.560   1.286 -1.8573 -1.6795 -0.5729
 7937TIP3    H245303   0.254   4.591   1.381  0.1886 -1.1222  1.7995
 7938TIP3   OH245304   3.901   1.540   6.224  0.6200  0.2481  0.5263
 7938TIP3    H145305   3.853   1.623   6.218 -1.0587 -0.7475 -0.5342
 7938TIP3    H245306   3.896   1.516   6.317  0.5549  0.9990  0.7250
 7939TIP3   OH245307   0.821   2.003  14.604 -0.1207 -0.3833  0.2452
 7939TIP3    H145308   0.797   2.013  14.512  1.9989 -1.2525 -0.4545
 7939TIP3    H245309   0.890   1.937  14.604  1.1650  0.8481  2.2524
 7940TIP3   OH245310   1.096   5.723  13.145 -0.1322  0.5046  0.3402
 7940TIP3    H145311   1.117   5.753  13.234 -0.6119 -1.5803  1.2232
 7940TIP3    H245312   1.124   5.631  13.144 -2.6656 -0.3377 -0.7304
 7941TIP3   OH245313   6.143   2.842   3.671 -0.5230 -0.1576 -0.1435
 7941TIP3    H145314   6.232   2.810   3.686 -0.3656 -0.6995 -1.9606
 7941TIP3    H245315   6.092   2.763   3.655 -0.4233  0.2693 -3.2642
 7942TIP3   OH245316   1.150   2.808  11.108 -0.0201 -0.5405  0.0755
 7942TIP3    H145317   1.128   2.897  11.137 -0.6295 -0.7459  0.2600
 7942TIP3    H245318   1.225   2.783  11.162 -1.1875 -0.9485  1.5865
 7943TIP3   OH245319   5.537   5.185   3.783 -0.0148  0.0883 -0.4538
 7943TIP3    H145320   5.518   5.216   3.872 -0.6516  0.2137 -0.6262
 7943TIP3    H245321   5.516   5.092   3.786 -1.2821  0.3451 -0.8036
 7944TIP3   OH245322   3.079   2.528  14.795  0.0643 -0.2874  0.7859
 7944TIP3    H145323   3.007   2.544  14.857 -0.9287 -1.2053 -0.0877
 7944TIP3    H245324   3.149   2.491  14.849  0.2966  1.5615  1.8329
 7945TIP3   OH245325   2.617   2.291  14.738  0.2951 -0.5524  0.0545
 7945TIP3    H145326   2.626   2.229  14.810 -2.5418 -0.0328  1.0061
 7945TIP3    H245327   2.580   2.239  14.666 -1.0788 -0.2325  0.5011
 7946TIP3   OH245328   0.089   5.261  13.065 -0.3912  0.0204  0.3799
 7946TIP3    H145329   0.128   5.327  13.008  1.1239 -0.8149  0.3926
 7946TIP3    H245330   0.059   5.310  13.141  0.4983  0.7479  0.2824
 7947TIP3   OH245331   2.262   1.662  17.468  0.1553  0.0944 -0.7531
 7947TIP3    H145332   2.266   1.587  17.528 -2.3918  0.1335 -0.4000
 7947TIP3    H245333   2.234   1.735  17.523  0.8812  0.8910 -1.4251
 7948TIP3   OH245334   3.172   0.944  15.591 -0.0089  0.2353  0.1041
 7948TIP3    H145335   3.124   0.872  15.632  1.2864 -0.5493  0.3115
 7948TIP3    H245336   3.222   0.983  15.663  0.0439  0.7257 -0.1939
 7949TIP3   OH245337   5.379   6.146  12.208  0.1253 -0.1971 -0.2309
 7949TIP3    H145338   5.473   6.152  12.190 -0.0801 -1.1975 -1.8194
 7949TIP3    H245339   5.351   6.067  12.161 -2.0253  1.5971 -2.1733
 7950TIP3   OH245340   2.897   4.858  17.207 -0.2908 -0.0007 -0.1284
 7950TIP3    H145341   2.833   4.852  17.278 -0.2406 -1.1512 -0.1636
 7950TIP3    H245342   2.953   4.781  17.219  0.5527  0.5291 -0.6103
 7951TIP3   OH245343   6.466   0.728   4.372 -0.1184  0.2286 -0.0570
 7951TIP3    H145344   6.403   0.739   4.301 -1.1505  0.8535  0.9464
 7951TIP3    H245345   6.429   0.774   4.446  0.6447 -0.9278  1.0987
 7952TIP3   OH245346   3.044   4.875  13.066  0.1400  0.3138 -0.3723
 7952TIP3    H145347   3.030   4.867  12.972 -0.7999 -0.1192 -0.2141
 7952TIP3    H245348   3.120   4.820  13.084 -0.6501 -0.9291 -0.6648
 7953TIP3   OH245349   4.609   5.168  14.401 -0.0487 -0.6139  0.8259
 7953TIP3    H145350   4.624   5.098  14.337 -0.9396 -1.1996  1.2473
 7953TIP3    H245351   4.697   5.199  14.422  0.2619 -0.1460 -0.9477
 7954TIP3   OH245352   6.735   0.384   0.706 -0.0873  0.5302  0.4125
 7954TIP3    H145353   6.743   0.378   0.801 -0.7519  0.4769  0.4699
 7954TIP3    H245354   6.642   0.370   0.689 -0.4031  2.7252 -0.0562
 7955TIP3   OH245355   0.470   4.577   4.106  0.7878  1.1916 -0.0948
 7955TIP3    H145356   0.400   4.585   4.042  0.1037  0.6080  0.5718
 7955TIP3    H245357   0.469   4.661   4.153 -0.2354  0.7637  0.6798
 7956TIP3   OH245358   3.321   4.104  13.859 -0.3197 -0.3463 -0.3892
 7956TIP3    H145359   3.358   4.031  13.809  1.6270  0.7035 -0.5807
 7956TIP3    H245360   3.282   4.160  13.793 -0.2289 -0.3272 -0.4266
 7957TIP3   OH245361   3.743   0.254   2.119  0.3195 -0.3932 -0.4174
 7957TIP3    H145362   3.737   0.193   2.193 -0.6189  0.3622  0.1673
 7957TIP3    H245363   3.812   0.218   2.063  1.4734 -0.6707  1.1137
 7958TIP3   OH245364   1.636   3.651  13.222 -0.0986 -0.5260 -0.1294
 7958TIP3    H145365   1.559   3.678  13.173 -0.6584 -1.3106  0.2852
 7958TIP3    H245366   1.643   3.714  13.293  1.1899  1.1033 -1.6248
 7959TIP3   OH245367   1.555   2.831  16.101  0.0167 -0.0941  0.0842
 7959TIP3    H145368   1.636   2.882  16.096  0.6465 -1.0363  0.3443
 7959TIP3    H245369   1.563   2.767  16.031 -0.4845 -0.2316  0.1475
 7960TIP3   OH245370   2.086   3.387   3.006 -0.4110 -0.0924 -0.8862
 7960TIP3    H145371   2.070   3.460   3.066  1.1829 -0.3583 -0.0795
 7960TIP3    H245372   2.170   3.408   2.965 -1.3509 -0.0396 -2.9060
 7961TIP3   OH245373   2.559   3.260  14.400 -0.3286 -0.4258  0.4045
 7961TIP3    H145374   2.471   3.227  14.383 -0.3533 -1.1087  1.6912
 7961TIP3    H245375   2.545   3.351  14.426 -0.3695  0.3283 -2.0252
 7962TIP3   OH245376   3.179   4.507  17.024 -0.6311  0.2297 -0.0945
 7962TIP3    H145377   3.162   4.427  17.075 -0.7689  1.5392  2.0439
 7962TIP3    H245378   3.265   4.491  16.984  0.8139  0.1211  2.7853
 7963TIP3   OH245379   2.300   3.510   4.469  0.5379 -0.6166  0.2889
 7963TIP3    H145380   2.309   3.444   4.400  0.3300 -0.0380 -0.3039
 7963TIP3    H245381   2.323   3.592   4.426 -0.2151 -0.1609  0.7413
 7964TIP3   OH245382   1.109   1.383   2.949 -0.3190  0.3646 -0.1602
 7964TIP3    H145383   1.034   1.422   2.994 -0.5826  2.3493 -2.1162
 7964TIP3    H245384   1.075   1.359   2.863  1.0421  0.3491 -0.7236
 7965TIP3   OH245385   1.676   6.426  12.844  0.3852  0.0359 -0.3055
 7965TIP3    H145386   1.720   6.350  12.882  1.8751  1.3592  0.7134
 7965TIP3    H245387   1.746   6.480  12.809 -0.5309  1.4604 -0.0440
 7966TIP3   OH245388   3.309   0.714   4.482 -0.3659 -0.4243 -0.9381
 7966TIP3    H145389   3.262   0.632   4.496 -2.1044  0.4975 -1.0149
 7966TIP3    H245390   3.303   0.759   4.567 -0.6744  0.2217 -1.2994
 7967TIP3   OH245391   0.080   0.794  10.863 -0.3887 -0.0973  0.2872
 7967TIP3    H145392   0.059   0.729  10.796 -0.9954  0.3954 -0.0096
 7967TIP3    H245393   0.059   0.751  10.946  1.3246 -1.0926  0.2694
 7968TIP3   OH245394   3.785   3.552   2.105 -0.1859 -0.1144  0.2300
 7968TIP3    H145395   3.801   3.478   2.046 -0.9582  1.2692 -1.8285
 7968TIP3    H245396   3.872   3.589   2.122  0.2933 -1.8168  1.8391
 7969TIP3   OH245397   4.915   6.263  13.732 -0.0576 -0.2215  0.7438
 7969TIP3    H145398   4.863   6.200  13.783 -0.4453  0.9089  1.7765
 7969TIP3    H245399   4.975   6.302  13.795  0.7393 -0.1178 -0.0542
 7970TIP3   OH245400   4.518   2.598   1.702  0.7454 -0.1051  0.4183
 7970TIP3    H145401   4.500   2.544   1.625  2.0384 -1.1842  0.8463
 7970TIP3    H245402   4.442   2.657   1.707 -0.3353 -1.3431 -0.5099
 7971TIP3   OH245403   0.009   6.397   2.620  0.6092 -0.0378 -0.4816
 7971TIP3    H145404  -0.046   6.405   2.697  0.4568 -1.2053 -0.4527
 7971TIP3    H245405  -0.050   6.414   2.546  0.4593 -0.2284 -0.4045
 7972TIP3   OH245406   3.963   2.361   5.610 -0.3014 -0.7246 -0.2016
 7972TIP3    H145407   4.021   2.298   5.566 -1.6617 -0.9707 -1.7321
 7972TIP3    H245408   4.022   2.427   5.645  0.9192 -0.9702 -1.6876
 7973TIP3   OH245409   4.839   4.321  16.335 -0.4490 -0.2708  0.1610
 7973TIP3    H145410   4.891   4.259  16.284 -1.9536 -1.1329 -0.3626
 7973TIP3    H245411   4.854   4.406  16.293  1.0814 -0.3536  0.4728
 7974TIP3   OH245412   0.526   4.649   3.823 -0.4731 -0.0850  0.1947
 7974TIP3    H145413   0.555   4.568   3.781  0.4852  0.9719 -1.2755
 7974TIP3    H245414   0.556   4.641   3.913 -0.6294 -1.4637  0.1554
 7975TIP3   OH245415   2.027   6.470  15.705  0.3921  0.3126  0.1633
 7975TIP3    H145416   2.121   6.468  15.686  0.8489 -0.1663  2.2808
 7975TIP3    H245417   2.019   6.434  15.793 -1.7172  1.0156  0.3124
 7976TIP3   OH245418   1.115   5.672   4.691 -0.9731  0.0166  0.4357
 7976TIP3    H145419   1.155   5.749   4.650  0.2981 -0.5852  0.4817
 7976TIP3    H245420   1.157   5.667   4.777 -1.9186 -0.0557  0.8965
 7977TIP3   OH245421   1.698   5.728  11.912 -0.1637  0.1550 -0.2076
 7977TIP3    H145422   1.663   5.766  11.832 -0.6709  0.4579  0.1473
 7977TIP3    H245423   1.732   5.803  11.961  0.5279 -0.0793 -0.3252
 7978TIP3   OH245424   1.514   2.479   2.429  0.2971 -0.0979  0.6420
 7978TIP3    H145425   1.536   2.446   2.342  0.3059 -0.0122  0.6108
 7978TIP3    H245426   1.567   2.427   2.489  0.8553  0.3357  0.5414
 7979TIP3   OH245427   3.165   0.338   5.459  0.1515  0.2048  0.2764
 7979TIP3    H145428   3.110   0.309   5.532 -0.5546  1.3403  0.2057
 7979TIP3    H245429   3.110   0.396   5.408  0.6795 -0.4777 -1.1160
 7980TIP3   OH245430   3.927   1.467  11.574  0.1804 -0.2581  0.5998
 7980TIP3    H145431   3.990   1.483  11.505 -1.4159 -0.3479 -0.9592
 7980TIP3    H245432   3.860   1.534  11.563 -0.9268 -1.2389  1.0133
 7981TIP3   OH245433   0.719   5.037   1.967 -0.1085  0.4512  0.3604
 7981TIP3    H145434   0.633   5.014   1.932  0.6293  0.8124 -1.8555
 7981TIP3    H245435   0.780   5.021   1.895  1.6633  0.5095  1.7631
 7982TIP3   OH245436   4.957   5.674   5.966 -0.2822 -0.0239 -0.1953
 7982TIP3    H145437   5.050   5.650   5.963 -0.1661  0.2053  1.0453
 7982TIP3    H245438   4.932   5.683   5.874  0.5840 -1.3860 -0.5979
 7983TIP3   OH245439   2.491   4.416  13.181 -0.1373  0.2274 -0.0622
 7983TIP3    H145440   2.399   4.404  13.204 -0.7678  1.3988 -1.8024
 7983TIP3    H245441   2.522   4.483  13.242  0.0881 -1.3361  1.6445
 7984TIP3   OH245442   3.424   3.920  14.117 -0.1654  0.5121  0.6628
 7984TIP3    H145443   3.489   3.991  14.118  1.1593 -0.6721  0.9114
 7984TIP3    H245444   3.389   3.921  14.028  1.2211  0.2806  0.0897
 7985TIP3   OH245445   4.795   6.072   0.770  0.3882  0.3014 -0.0606
 7985TIP3    H145446   4.891   6.072   0.770  0.4062 -0.5036  1.1022
 7985TIP3    H245447   4.771   6.136   0.837  0.1761 -1.3757  1.5404
 7986TIP3   OH245448   5.104   5.792   1.126 -0.0669 -0.5064  0.0593
 7986TIP3    H145449   5.115   5.792   1.030  0.4728 -1.6298  0.0982
 7986TIP3    H245450   5.040   5.861   1.143  0.8804  0.6790 -0.9738
 7987TIP3   OH245451   1.525   3.320  16.049 -0.0725  0.6761  0.3000
 7987TIP3    H145452   1.592   3.289  15.987  0.1109 -0.0671  0.8550
 7987TIP3    H245453   1.468   3.377  15.997 -0.1266 -0.2130 -0.6346
 7988TIP3   OH245454   2.925   2.677  11.790 -0.2272  1.1987  0.1578
 7988TIP3    H145455   2.857   2.662  11.724 -0.4522  0.8113  0.4660
 7988TIP3    H245456   2.934   2.772  11.795 -0.6401  1.2483  0.0005
 7989TIP3   OH245457   5.856   2.023  14.382 -0.3089 -0.2233 -0.1140
 7989TIP3    H145458   5.832   2.049  14.471 -1.7394  1.2925 -0.8793
 7989TIP3    H245459   5.798   1.949  14.362  0.8908 -1.4090  0.6073
 7990TIP3   OH245460   1.747   6.523   5.874 -0.9446 -0.1149  0.2352
 7990TIP3    H145461   1.658   6.489   5.874 -1.1750  0.3622 -1.5072
 7990TIP3    H245462   1.765   6.546   5.965 -2.1526 -1.3156  0.8107
 7991TIP3   OH245463   6.571   5.157  12.351  0.2109  0.1390 -0.1361
 7991TIP3    H145464   6.502   5.111  12.399  0.3587 -2.5276 -2.2355
 7991TIP3    H245465   6.611   5.215  12.416 -2.1044 -0.3471  1.8778
 7992TIP3   OH245466   6.305   0.771   4.150  0.0718  0.4391 -0.1857
 7992TIP3    H145467   6.345   0.691   4.114 -0.7746 -0.5892  1.0800
 7992TIP3    H245468   6.211   0.758   4.137 -0.0765  1.2289  0.0593
 7993TIP3   OH245469   2.311   4.145  14.990  0.6276 -0.1059 -0.0610
 7993TIP3    H145470   2.236   4.088  14.971  1.0022 -0.7931  0.4409
 7993TIP3    H245471   2.345   4.112  15.074  2.9525 -1.4290 -1.4010
 7994TIP3   OH245472   2.132   1.052  14.546  0.0141  0.3804 -0.1077
 7994TIP3    H145473   2.186   0.975  14.560  1.0785  1.3254  1.2074
 7994TIP3    H245474   2.141   1.071  14.452  2.0561  0.5575  0.0782
 7995TIP3   OH245475   2.482   4.101  11.546 -0.5411  0.0414 -0.3212
 7995TIP3    H145476   2.454   4.019  11.505 -0.6055 -0.2142  0.2326
 7995TIP3    H245477   2.577   4.102  11.535 -0.1369 -1.5722  2.2710
 7996TIP3   OH245478   0.520   4.840   1.328 -0.5360  0.3319 -0.7117
 7996TIP3    H145479   0.507   4.901   1.401  0.1022 -0.2180 -0.1191
 7996TIP3    H245480   0.501   4.754   1.366  1.3131 -0.1230 -0.7551
 7997TIP3   OH245481   4.566   4.498   2.081 -0.2853  0.2008 -0.3770
 7997TIP3    H145482   4.605   4.417   2.046 -0.2243 -0.4439  1.1164
 7997TIP3    H245483   4.512   4.469   2.154  1.8558  1.6828  1.9925
 7998TIP3   OH245484   1.070   5.345  13.157  0.1949  0.3912  0.6348
 7998TIP3    H145485   1.045   5.287  13.229  0.3000 -0.5309 -0.0566
 7998TIP3    H245486   1.144   5.300  13.116 -0.3652  0.5176 -0.5254
 7999TIP3   OH245487   3.579   4.790   1.456  0.0906 -0.1374 -0.0314
 7999TIP3    H145488   3.663   4.748   1.474  0.4033  0.4645 -0.0385
 7999TIP3    H245489   3.563   4.774   1.363 -0.0106 -0.6072  0.0630
 8000TIP3   OH245490   0.946   4.421   2.465  0.3305  0.1036  0.2049
 8000TIP3    H145491   0.986   4.495   2.419 -0.0959  0.9118  1.1037
 8000TIP3    H245492   1.016   4.386   2.520  0.3931  0.1424  0.1513
 8001TIP3   OH245493   1.365   6.113   1.486  0.0322 -0.8340  0.4866
 8001TIP3    H145494   1.386   6.047   1.419  0.7888  0.1082 -0.2307
 8001TIP3    H245495   1.272   6.101   1.502 -0.2214 -0.9329 -0.9176
 8002TIP3   OH245496   4.922   2.734  15.418 -0.2290 -0.9102 -0.3322
 8002TIP3    H145497   4.914   2.701  15.507 -0.1787 -0.6000 -0.2128
 8002TIP3    H245498   4.950   2.825  15.428 -1.9590 -0.3116 -0.5981
 8003TIP3   OH245499   1.092   1.135   0.844 -0.1670  0.3902  0.0989
 8003TIP3    H145500   1.162   1.122   0.908  1.3764  0.1709 -1.5537
 8003TIP3    H245501   1.028   1.189   0.889  0.2943 -0.7326  2.2105
 8004TIP3   OH245502   0.467   6.568   1.890  0.3108 -0.4658  0.0549
 8004TIP3    H145503   0.416   6.523   1.958  0.7825 -1.9592 -0.5319
 8004TIP3    H245504   0.554   6.528   1.896 -0.3596 -2.7605 -3.2578
 8005TIP3   OH245505   6.659   4.614  15.112  0.3173  0.4122 -0.1984
 8005TIP3    H145506   6.629   4.524  15.101 -1.4897  0.7648  1.3614
 8005TIP3    H245507   6.688   4.640  15.024 -2.0083 -0.6890 -1.3875
 8006TIP3   OH245508   5.596   2.038   3.944 -0.1012 -0.1558  0.5222
 8006TIP3    H145509   5.515   2.071   3.983 -0.9720  1.1154 -2.1212
 8006TIP3    H245510   5.605   2.087   3.863  1.5147 -2.7017 -0.9671
 8007TIP3   OH245511   2.942   0.546   2.710  0.8039  0.5850  0.0927
 8007TIP3    H145512   2.971   0.625   2.664 -3.5526  1.6731 -1.3524
 8007TIP3    H245513   2.948   0.477   2.644  0.3099  0.7785 -0.1619
 8008TIP3   OH245514   6.014   2.537  14.458  0.8096  0.2201 -0.2159
 8008TIP3    H145515   5.945   2.526  14.392 -1.3618  1.6348  1.6712
 8008TIP3    H245516   6.051   2.623  14.439  0.1030  0.6793  0.4377
 8009TIP3   OH245517   3.286   4.629   5.366  0.4093 -0.2326  0.0555
 8009TIP3    H145518   3.368   4.607   5.322 -0.1357  0.2379 -1.2479
 8009TIP3    H245519   3.221   4.631   5.296 -0.3946  1.0717  0.7962
 8010TIP3   OH245520   4.857   2.749  13.898  0.5676 -0.4565  0.1959
 8010TIP3    H145521   4.776   2.699  13.893 -1.0129  1.9245 -0.1285
 8010TIP3    H245522   4.882   2.765  13.807 -1.2484  2.5752  0.0801
 8011TIP3   OH245523   1.467   3.982  16.069  0.1845  0.1714 -0.2324
 8011TIP3    H145524   1.501   3.952  16.153  1.2202  1.2334 -0.2373
 8011TIP3    H245525   1.506   3.922  16.005  1.1427  0.6491 -0.1236
 8012TIP3   OH245526   5.735   6.500  11.691 -0.0150 -0.4799  0.2871
 8012TIP3    H145527   5.670   6.432  11.709  0.9481 -1.5461 -0.1443
 8012TIP3    H245528   5.694   6.555  11.624 -1.1118 -0.1593  1.2011
 8013TIP3   OH245529   2.203   1.719  14.180  0.4314 -0.1292  0.6330
 8013TIP3    H145530   2.286   1.699  14.223  1.0070 -0.1416 -0.4537
 8013TIP3    H245531   2.189   1.812  14.198  1.1258  0.0880  0.1046
 8014TIP3   OH245532   2.465   5.857  16.751  0.1069  0.3214 -0.4654
 8014TIP3    H145533   2.504   5.907  16.822  1.0833 -1.5630  0.4085
 8014TIP3    H245534   2.460   5.768  16.785 -2.1197 -0.1010 -1.7275
 8015TIP3   OH245535   5.282   2.537  12.095 -0.8039  0.0968  0.0420
 8015TIP3    H145536   5.250   2.458  12.049 -0.6203  0.7595 -1.2759
 8015TIP3    H245537   5.377   2.533  12.087 -0.8056  0.5768 -0.2603
 8016TIP3   OH245538   2.666   6.449  14.046  0.9519 -0.1078  0.6304
 8016TIP3    H145539   2.634   6.537  14.068  2.1159  0.4876  0.0340
 8016TIP3    H245540   2.682   6.408  14.132 -0.6636 -0.1824  0.9350
 8017TIP3   OH245541   1.542   0.593  13.002  0.2325  0.6778 -1.0956
 8017TIP3    H145542   1.491   0.569  13.079 -0.0566  2.4236 -0.6954
 8017TIP3    H245543   1.578   0.511  12.970 -1.4569 -0.3737 -0.4022
 8018TIP3   OH245544   3.671   5.807  15.581 -0.0743 -0.2416 -0.0869
 8018TIP3    H145545   3.737   5.865  15.619  0.0274  0.0839 -0.7358
 8018TIP3    H245546   3.597   5.865  15.562 -0.5535 -0.6070  0.6443
 8019TIP3   OH245547   2.574   2.773  13.316  0.4758  0.1324  0.1983
 8019TIP3    H145548   2.575   2.687  13.357 -0.1530  0.3163  0.6312
 8019TIP3    H245549   2.631   2.827  13.372  1.7672 -0.2644 -0.7062
 8020TIP3   OH245550   5.644   1.423   1.670 -0.0309  0.3081  0.0097
 8020TIP3    H145551   5.734   1.413   1.703  0.6674  0.2035 -1.8436
 8020TIP3    H245552   5.643   1.374   1.589 -1.7231  0.5136 -0.1140
 8021TIP3   OH245553   0.349   6.165  11.992 -0.1678 -0.9642  0.2993
 8021TIP3    H145554   0.316   6.248  12.024 -1.3967 -1.3867  0.1660
 8021TIP3    H245555   0.445   6.174  11.995 -0.2787 -0.0467  1.5314
 8022TIP3   OH245556   3.446   6.132   3.103 -0.2962  0.0173 -0.2293
 8022TIP3    H145557   3.498   6.208   3.129  0.9923 -1.0071  0.2447
 8022TIP3    H245558   3.371   6.133   3.162 -1.9333  2.5812 -2.1056
 8023TIP3   OH245559   2.878   3.739   2.952  0.2838 -0.2710  0.0276
 8023TIP3    H145560   2.966   3.704   2.966  0.1368 -1.0658 -0.8945
 8023TIP3    H245561   2.866   3.738   2.857 -0.8638 -0.5616  0.1540
 8024TIP3   OH245562   4.741   2.553   5.149 -0.0321  0.4039 -0.2145
 8024TIP3    H145563   4.754   2.480   5.208 -2.1415  0.9117  0.9523
 8024TIP3    H245564   4.813   2.546   5.086 -0.2577 -2.7087 -0.2326
 8025TIP3   OH245565   5.846   3.266  14.596  0.4865  0.2199 -0.0395
 8025TIP3    H145566   5.835   3.355  14.628  1.4638  0.2424  0.2557
 8025TIP3    H245567   5.915   3.229  14.650  1.1036 -0.2460 -1.1153
 8026TIP3   OH245568   4.016   0.596  11.001  0.3569  0.3921  0.3000
 8026TIP3    H145569   4.074   0.671  11.015  0.7166  0.2996 -0.6468
 8026TIP3    H245570   4.010   0.587  10.906  0.3655 -0.8045  0.3953
 8027TIP3   OH245571   1.410   6.176  17.357  0.3020  0.2734  0.0064
 8027TIP3    H145572   1.391   6.232  17.432  0.6421 -0.2856  0.5255
 8027TIP3    H245573   1.499   6.198  17.331  0.2182  0.4006 -0.1749
 8028TIP3   OH245574   6.411   3.565  11.122 -0.0532 -0.3886  0.2764
 8028TIP3    H145575   6.367   3.594  11.042 -0.9574  0.2361  0.9821
 8028TIP3    H245576   6.483   3.627  11.133 -0.2247 -0.1764  0.2132
 8029TIP3   OH245577   2.389   1.367  16.203  0.4141  0.0914 -0.3266
 8029TIP3    H145578   2.351   1.454  16.199  2.1320  1.0067  1.5183
 8029TIP3    H245579   2.325   1.315  16.251  0.3388  0.9374  0.5109
 8030TIP3   OH245580   4.852   1.047   0.083 -0.2957  0.2729  0.1636
 8030TIP3    H145581   4.760   1.037   0.060 -0.0655  0.7920 -1.1101
 8030TIP3    H245582   4.885   1.111   0.020  1.0524 -0.3025  0.2479
 8031TIP3   OH245583   2.112   0.975  16.544  0.2926  0.0264  0.0232
 8031TIP3    H145584   2.205   0.956  16.554  0.4090 -0.2567 -1.4449
 8031TIP3    H245585   2.093   0.956  16.452 -1.2733 -0.1671  0.3574
 8032TIP3   OH245586   5.685   6.121  15.638  0.1464 -0.0104 -0.0162
 8032TIP3    H145587   5.647   6.206  15.617 -0.9547 -0.1657  1.2566
 8032TIP3    H245588   5.617   6.074  15.685  1.9048 -0.3038  2.4165
 8033TIP3   OH245589   2.387   1.235  13.027 -0.5471 -0.1359 -0.2241
 8033TIP3    H145590   2.426   1.236  13.115  0.1484 -3.6630 -0.3312
 8033TIP3    H245591   2.439   1.170  12.979 -2.9608 -0.7210 -2.2197
 8034TIP3   OH245592   0.445   4.706  13.049 -0.2107 -0.2989 -0.4893
 8034TIP3    H145593   0.423   4.613  13.040  1.0354 -0.6253 -0.3522
 8034TIP3    H245594   0.431   4.743  12.962 -0.5857 -0.6408 -0.5770
 8035TIP3   OH245595   0.147   5.273  12.480  0.1351  0.0544 -0.7122
 8035TIP3    H145596   0.229   5.316  12.457 -0.9206  1.2492 -2.4759
 8035TIP3    H245597   0.085   5.345  12.494 -1.3497 -0.8113 -2.4423
 8036TIP3   OH245598   3.329   2.769  11.574  0.5227  0.2749  0.4247
 8036TIP3    H145599   3.419   2.774  11.607  1.1394  0.1925 -1.1121
 8036TIP3    H245600   3.319   2.848  11.521 -0.4989  0.5293  0.9762
 8037TIP3   OH245601   2.748   0.860   4.116  0.1613 -0.1800  0.0268
 8037TIP3    H145602   2.806   0.894   4.185  0.1901 -1.9651  0.9396
 8037TIP3    H245603   2.729   0.936   4.061  0.5963  1.1773  1.6794
 8038TIP3   OH245604   6.194   5.791  15.399  0.0679 -0.4925 -0.2701
 8038TIP3    H145605   6.154   5.706  15.418  0.7790 -0.3529  2.0530
 8038TIP3    H245606   6.127   5.855  15.423 -0.9947 -0.3220 -3.2874
 8039TIP3   OH245607   4.068   2.127   4.409 -0.5587 -0.1800  0.3947
 8039TIP3    H145608   3.988   2.075   4.419 -0.5970 -0.4719 -1.2069
 8039TIP3    H245609   4.116   2.084   4.338 -0.0301  1.2884 -0.1752
 8040TIP3   OH245610   0.034   3.289   5.288  0.2389 -0.2396  0.0509
 8040TIP3    H145611   0.032   3.382   5.310  2.2560 -0.8138  3.1164
 8040TIP3    H245612   0.125   3.262   5.300 -0.5530 -2.9449  0.8459
 8041TIP3   OH245613   2.991   0.627  12.990  0.1322 -0.5514 -0.0721
 8041TIP3    H145614   2.939   0.686  12.935 -1.0428 -2.5161 -1.1786
 8041TIP3    H245615   2.999   0.673  13.073  1.2263  2.1599 -1.5447
 8042TIP3   OH245616   3.661   5.303  12.368 -0.5386 -0.0565  0.2889
 8042TIP3    H145617   3.607   5.376  12.399 -1.5019  1.2144 -3.7665
 8042TIP3    H245618   3.738   5.345  12.329  1.6227 -1.6508  2.5719
 8043TIP3   OH245619   3.706   2.076   0.327 -0.4390 -0.7122 -0.5756
 8043TIP3    H145620   3.764   2.105   0.257 -0.1536  4.2037  1.3336
 8043TIP3    H245621   3.756   2.009   0.374  1.1391 -0.9056 -2.4163
 8044TIP3   OH245622   0.559   0.075   5.631 -0.1141 -0.9469 -0.2397
 8044TIP3    H145623   0.469   0.090   5.658 -0.7206 -3.7190 -0.3954
 8044TIP3    H245624   0.603   0.045   5.711 -0.1947 -2.6676 -0.7947
 8045TIP3   OH245625   5.456   4.569  14.334  0.1613  0.1586 -0.1427
 8045TIP3    H145626   5.521   4.612  14.389  0.1229 -1.7096  1.4923
 8045TIP3    H245627   5.492   4.574  14.245  1.2095  1.5053  0.3289
 8046TIP3   OH245628   6.061   0.837   3.158 -0.3852 -0.0586 -0.6621
 8046TIP3    H145629   5.998   0.860   3.226 -1.0629 -0.6450 -1.0782
 8046TIP3    H245630   6.062   0.912   3.098 -0.6001 -0.0007 -0.5913
 8047TIP3   OH245631   0.760   6.560  13.777 -0.1568 -0.6634  0.4972
 8047TIP3    H145632   0.730   6.649  13.759 -0.9727 -0.6195  1.9353
 8047TIP3    H245633   0.725   6.508  13.705 -1.5027 -0.1697  0.7609
 8048TIP3   OH245634   0.349   0.559   2.584 -0.0843 -0.9544  0.0461
 8048TIP3    H145635   0.345   0.573   2.679  0.5377 -1.9517  0.2349
 8048TIP3    H245636   0.412   0.624   2.554 -0.3677 -0.5566  0.2933
 8049TIP3   OH245637   3.482   1.875   1.431  0.3953  0.1401  0.3918
 8049TIP3    H145638   3.469   1.816   1.357  1.3596 -1.1956  1.2443
 8049TIP3    H245639   3.523   1.953   1.394  2.1804 -1.0788 -0.2910
 8050TIP3   OH245640   6.276   4.159   6.155 -0.2060 -0.3208 -0.1924
 8050TIP3    H145641   6.340   4.126   6.092  0.1980  0.7739 -0.3777
 8050TIP3    H245642   6.209   4.201   6.101 -1.0241 -1.3310  0.0076
 8051TIP3   OH245643   5.695   1.773  11.686 -0.0964  0.1200  0.3329
 8051TIP3    H145644   5.774   1.825  11.700  0.0843  1.2861 -3.7271
 8051TIP3    H245645   5.713   1.722  11.607 -3.5380  0.9799 -1.2284
 8052TIP3   OH245646   1.829   6.085   2.424  0.1847  0.0547 -0.1676
 8052TIP3    H145647   1.791   6.151   2.367 -1.0492  1.1739  1.8562
 8052TIP3    H245648   1.810   6.002   2.380  0.1676  0.9085 -1.8539
 8053TIP3   OH245649   1.139   2.340  14.186 -0.6319  0.8100  0.4727
 8053TIP3    H145650   1.189   2.313  14.108  0.2894  0.4880  1.1519
 8053TIP3    H245651   1.109   2.258  14.225 -2.4417  1.0330 -0.3777
 8054TIP3   OH245652   0.566   1.698  11.305 -0.0436 -0.2100  0.3915
 8054TIP3    H145653   0.590   1.751  11.380 -1.2367 -0.7159  1.1599
 8054TIP3    H245654   0.649   1.678  11.262  0.4589  2.0244  0.2218
 8055TIP3   OH245655   6.219   6.213   0.414 -0.0302 -0.0076  0.1755
 8055TIP3    H145656   6.127   6.190   0.401 -0.0117  0.3941 -0.7053
 8055TIP3    H245657   6.258   6.209   0.327  0.7203  0.1334  0.4925
 8056TIP3   OH245658   1.673   2.827  17.467  0.2520  0.1087  0.6180
 8056TIP3    H145659   1.601   2.779  17.426 -0.4154  2.3135 -0.9870
 8056TIP3    H245660   1.692   2.778  17.547 -2.1116 -1.3036  0.4184
 8057TIP3   OH245661   0.148   4.978   4.684 -0.2579  0.3412 -0.3489
 8057TIP3    H145662   0.071   4.963   4.738 -0.4422 -0.9739 -0.9173
 8057TIP3    H245663   0.206   4.904   4.704 -0.5170 -0.4387 -2.1938
 8058TIP3   OH245664   6.548   0.361  14.412 -0.3267 -0.0998  0.1393
 8058TIP3    H145665   6.600   0.310  14.351 -0.7095  0.6906 -0.8748
 8058TIP3    H245666   6.612   0.397  14.474 -0.1197 -2.3942  1.3809
 8059TIP3   OH245667   2.752   4.798   2.451  0.0308  0.2651  0.5517
 8059TIP3    H145668   2.723   4.757   2.369 -0.8576  1.3159  0.3168
 8059TIP3    H245669   2.718   4.741   2.520 -1.0009  0.4592  0.2213
 8060TIP3   OH245670   0.273   5.350  15.201  0.5484  0.2212 -0.3202
 8060TIP3    H145671   0.346   5.411  15.211 -0.7144  1.5132  2.0961
 8060TIP3    H245672   0.294   5.277  15.260 -0.1251  0.6920  0.5414
 8061TIP3   OH245673   0.874   2.674  16.877  0.0837 -0.3886 -0.2013
 8061TIP3    H145674   0.865   2.677  16.972 -0.3845  1.5036 -0.2627
 8061TIP3    H245675   0.799   2.622  16.847 -1.1226  0.9597  0.3579
 8062TIP3   OH245676   0.148   4.049  11.737 -0.3537  0.3639 -0.4170
 8062TIP3    H145677   0.113   4.060  11.649  1.2956  2.4940 -0.8738
 8062TIP3    H245678   0.103   4.115  11.790 -0.3249  0.0337  0.0290
 8063TIP3   OH245679   4.522   6.590   6.332  0.7567 -0.1338  0.1573
 8063TIP3    H145680   4.605   6.636   6.344  0.0826  1.0886  0.2580
 8063TIP3    H245681   4.480   6.594   6.417  0.0849  0.3023 -0.1823
 8064TIP3   OH245682   1.516   4.399   0.651 -0.1817 -0.0234 -0.1926
 8064TIP3    H145683   1.563   4.319   0.674  0.8397  0.1601 -1.4966
 8064TIP3    H245684   1.425   4.381   0.674  0.4419 -0.5223  2.0653
 8065TIP3   OH245685   0.557   5.728   0.261  0.0484 -0.5710  0.0072
 8065TIP3    H145686   0.495   5.679   0.314  0.9766 -0.4965  1.1880
 8065TIP3    H245687   0.637   5.677   0.263  0.8386  0.6489  0.7285
 8066TIP3   OH245688   4.179   2.774   3.100 -0.2661 -0.1231 -0.1731
 8066TIP3    H145689   4.100   2.779   3.046  0.4868 -1.5943 -1.4852
 8066TIP3    H245690   4.248   2.812   3.045  0.4682 -1.4196 -0.1727
 8067TIP3   OH245691   2.798   4.970   5.645  0.2198 -0.6967  0.0367
 8067TIP3    H145692   2.788   5.024   5.566 -1.6034 -0.4774  0.3908
 8067TIP3    H245693   2.890   4.981   5.669  0.4708  0.3476 -1.2508
 8068TIP3   OH245694   4.471   4.121   4.633  0.0954  0.4105 -0.3769
 8068TIP3    H145695   4.506   4.135   4.721  0.3158  1.8441 -0.6647
 8068TIP3    H245696   4.531   4.167   4.575  0.1350 -0.7826 -1.3397
 8069TIP3   OH245697   2.723   4.449   3.011  0.4027  0.0496 -0.1139
 8069TIP3    H145698   2.702   4.431   3.103 -0.4771  0.2450 -0.2660
 8069TIP3    H245699   2.745   4.542   3.009 -0.3321  0.2236 -0.2259
 8070TIP3   OH245700   3.332   6.082   2.526  0.1169 -0.2907 -0.2161
 8070TIP3    H145701   3.300   5.992   2.516 -0.3780 -0.0357 -0.9921
 8070TIP3    H245702   3.404   6.089   2.465  0.6760 -0.3885  0.4167
 8071TIP3   OH245703   6.456   2.755   1.561 -1.1181  0.5684  0.2177
 8071TIP3    H145704   6.410   2.735   1.642  1.9132 -2.2055  1.4808
 8071TIP3    H245705   6.534   2.804   1.590 -0.3805  0.1957 -1.0600
 8072TIP3   OH245706   1.960   1.847  17.296  0.0976 -0.0023  0.0950
 8072TIP3    H145707   2.025   1.842  17.226  1.0129  0.3130  0.9082
 8072TIP3    H245708   2.010   1.835  17.376 -0.8661  0.1632  0.7348
 8073TIP3   OH245709   5.113   4.867  10.832  0.3930  0.5185 -0.1593
 8073TIP3    H145710   5.025   4.837  10.856  0.0984  1.1545 -0.4041
 8073TIP3    H245711   5.146   4.801  10.772  0.0725  0.2862 -0.0822
 8074TIP3   OH245712   0.946   0.307   3.600  0.5141 -0.2209  0.3216
 8074TIP3    H145713   0.857   0.281   3.624  0.6382 -0.3406  0.6558
 8074TIP3    H245714   0.935   0.385   3.546  0.2614  0.3989  1.2482
 8075TIP3   OH245715   6.061   5.871   5.697 -0.3443  0.1098 -0.4593
 8075TIP3    H145716   6.109   5.849   5.617  0.2888  0.7833 -0.2763
 8075TIP3    H245717   5.984   5.814   5.696  0.1841 -0.6061 -1.0322
 8076TIP3   OH245718   4.178   6.148  13.376  0.5648 -0.7319 -1.6385
 8076TIP3    H145719   4.160   6.057  13.397  0.9835 -0.1562  1.8294
 8076TIP3    H245720   4.267   6.148  13.341 -0.4571 -1.8832 -4.5105
 8077TIP3   OH245721   1.837   0.438  14.576  0.4861  0.3998  0.0112
 8077TIP3    H145722   1.785   0.491  14.516 -1.0050 -1.1049 -0.0900
 8077TIP3    H245723   1.909   0.406  14.521 -0.6277 -0.6193 -0.9288
 8078TIP3   OH245724   1.644   6.554  15.642 -0.1355  0.3909  0.1609
 8078TIP3    H145725   1.627   6.647  15.657 -0.2140  0.5557 -0.9041
 8078TIP3    H245726   1.569   6.523  15.592  0.2638 -0.0519 -0.1825
 8079TIP3   OH245727   5.688   0.744  12.078  0.1390 -0.0318 -0.1179
 8079TIP3    H145728   5.712   0.652  12.090  0.7379  0.3012  1.4474
 8079TIP3    H245729   5.592   0.744  12.081  0.1560 -0.5254  0.5676
 8080TIP3   OH245730   5.957   3.604  13.539  0.0979 -0.2944  0.6525
 8080TIP3    H145731   5.961   3.694  13.571 -1.3342 -0.9306  2.8032
 8080TIP3    H245732   5.889   3.563  13.591 -0.9519 -2.0302 -1.9072
 8081TIP3   OH245733   2.358   1.734   5.112 -0.6736 -0.1361  0.0439
 8081TIP3    H145734   2.271   1.717   5.074 -0.9077  1.0018  0.0314
 8081TIP3    H245735   2.398   1.798   5.052  0.2277 -0.7293 -0.0079
 8082TIP3   OH245736   3.760   3.210  14.687 -0.2581  0.3699  0.4749
 8082TIP3    H145737   3.762   3.199  14.782 -2.4858 -1.4818  0.4054
 8082TIP3    H245738   3.798   3.129  14.652 -3.5551 -1.1108 -0.0978
 8083TIP3   OH245739   0.070   4.925  13.947  0.2502 -0.5841  0.4052
 8083TIP3    H145740   0.161   4.934  13.922  0.2496 -0.9068  0.2767
 8083TIP3    H245741   0.039   5.014  13.960 -0.7254 -0.0446 -4.0740
 8084TIP3   OH245742   1.886   0.802   3.301  0.4799  0.0107 -0.4045
 8084TIP3    H145743   1.793   0.815   3.321  0.5003  0.1081 -0.3732
 8084TIP3    H245744   1.909   0.875   3.245  0.2914 -0.5402 -1.2165
 8085TIP3   OH245745   5.457   2.910   0.131 -0.0755  0.1276  0.1164
 8085TIP3    H145746   5.461   2.960   0.213  2.1783  0.0161  0.1335
 8085TIP3    H245747   5.530   2.942   0.079 -1.4202  0.1346 -1.8754
 8086TIP3   OH245748   5.461   1.912   5.258 -0.2391 -0.3011  0.0146
 8086TIP3    H145749   5.538   1.954   5.295 -0.6055 -0.2124  0.6995
 8086TIP3    H245750   5.432   1.971   5.188  1.2061 -1.1015 -1.3311
 8087TIP3   OH245751   3.312   0.750  14.925  0.1210 -0.1417 -0.5208
 8087TIP3    H145752   3.241   0.750  14.861  0.9462  1.6983 -1.5327
 8087TIP3    H245753   3.392   0.737  14.873  0.7571  0.8257  0.1564
 8088TIP3   OH245754   3.448   1.921  14.900  0.5305 -0.3460  0.2462
 8088TIP3    H145755   3.510   1.968  14.956  0.7884  0.0573 -0.3705
 8088TIP3    H245756   3.377   1.898  14.959  0.8587 -0.0454  0.7772
 8089TIP3   OH245757   6.059   5.770   3.390  0.3300  0.5327 -0.4345
 8089TIP3    H145758   6.038   5.688   3.435  0.0436  0.3392 -0.9081
 8089TIP3    H245759   6.153   5.767   3.378  0.4985  0.8668  0.6792
 8090TIP3   OH245760   3.639   0.052   5.097  0.4896  0.8002  0.2678
 8090TIP3    H145761   3.653  -0.020   5.158  0.4931  0.4042 -0.1953
 8090TIP3    H245762   3.703   0.118   5.123  0.2265  0.8055  0.9425
 8091TIP3   OH245763   2.606   3.502   1.293  0.0308  0.0448 -0.0738
 8091TIP3    H145764   2.695   3.478   1.269  0.9240  0.9958  1.9752
 8091TIP3    H245765   2.592   3.588   1.253  0.8801  0.8675  1.3178
 8092TIP3   OH245766   6.115   4.233  15.001  0.5032 -0.1790  0.2249
 8092TIP3    H145767   6.108   4.270  15.089 -3.1449  0.3572 -0.1391
 8092TIP3    H245768   6.052   4.161  15.001  1.2141 -0.8447 -1.6644
 8093TIP3   OH245769   0.195   0.495  15.613 -0.2123 -0.1488  0.5103
 8093TIP3    H145770   0.260   0.545  15.662 -0.9022 -0.3320  1.6538
 8093TIP3    H245771   0.246   0.444  15.550  0.7675 -0.3545  1.4395
 8094TIP3   OH245772   4.031   6.369   4.919 -0.1769  0.1264  0.6855
 8094TIP3    H145773   4.092   6.311   4.873 -1.5351 -0.8702  0.1025
 8094TIP3    H245774   3.953   6.316   4.934 -1.1397  1.5449  0.9131
 8095TIP3   OH245775   4.680   4.280   3.064  0.1285  0.8008 -0.4067
 8095TIP3    H145776   4.741   4.242   3.000 -0.4068 -0.7205 -0.0362
 8095TIP3    H245777   4.734   4.296   3.141  0.1386 -0.2441 -0.1881
 8096TIP3   OH245778   0.432   1.040   4.653  0.1395 -0.0885  0.6452
 8096TIP3    H145779   0.512   1.086   4.626 -0.0621  2.1702  3.4541
 8096TIP3    H245780   0.463   0.963   4.700  0.5208 -1.4308 -1.6601
 8097TIP3   OH245781   2.893   2.549   5.788 -0.1375 -0.6368 -0.3072
 8097TIP3    H145782   2.847   2.602   5.724  1.6046 -0.0696 -1.1469
 8097TIP3    H245783   2.922   2.472   5.739 -0.2034 -1.0081  0.2190
 8098TIP3   OH245784   0.722   0.992  16.565 -0.6673 -0.3543 -0.2007
 8098TIP3    H145785   0.636   1.035  16.568 -0.6027 -0.1246 -1.2093
 8098TIP3    H245786   0.735   0.971  16.472  1.7808  2.5202 -0.6502
 8099TIP3   OH245787   2.149   1.201   2.851 -0.5509  0.3420 -0.2699
 8099TIP3    H145788   2.218   1.258   2.816  1.1222 -1.1399  0.4708
 8099TIP3    H245789   2.101   1.171   2.775 -1.0974  2.2420 -0.7231
 8100TIP3   OH245790   3.687   1.152  16.382 -1.1248 -0.3479  0.1647
 8100TIP3    H145791   3.607   1.123  16.337  0.4286 -2.3688 -1.4783
 8100TIP3    H245792   3.692   1.096  16.459 -0.5800 -1.2487 -0.5063
 8101TIP3   OH245793   1.407   6.489  16.692  0.1787  0.0786  0.4987
 8101TIP3    H145794   1.438   6.471  16.603 -0.6333  0.6520  0.0911
 8101TIP3    H245795   1.475   6.545  16.730 -0.0492  0.8421 -0.1860
 8102TIP3   OH245796   3.486   5.860  15.139 -0.6346  0.1060 -0.0317
 8102TIP3    H145797   3.441   5.945  15.140 -0.1072  0.3823  0.4756
 8102TIP3    H245798   3.573   5.879  15.106 -0.7109 -0.3448 -0.4993
 8103TIP3   OH245799   2.210   5.514  12.592  0.0351 -0.4935 -0.5340
 8103TIP3    H145800   2.211   5.426  12.554  1.1832 -0.5700 -0.3772
 8103TIP3    H245801   2.250   5.503  12.679  0.8947  0.2967 -0.8101
 8104TIP3   OH245802   5.772   1.230  12.570 -0.0041  0.0186 -0.6002
 8104TIP3    H145803   5.742   1.247  12.481  0.4572 -0.9324 -0.9463
 8104TIP3    H245804   5.812   1.312  12.598  0.8592 -0.0157 -1.6836
 8105TIP3   OH245805   3.412   4.440  12.202 -0.0383  0.1055 -0.1864
 8105TIP3    H145806   3.478   4.477  12.261  0.5570 -0.9856 -0.1352
 8105TIP3    H245807   3.336   4.425  12.258  0.0192  0.4215 -0.0203
 8106TIP3   OH245808   3.281   6.014  14.814 -0.1996  0.0726 -0.0772
 8106TIP3    H145809   3.291   5.967  14.897  1.6658  2.1278  0.9648
 8106TIP3    H245810   3.298   5.947  14.747  0.0258 -1.2520  1.2438
 8107TIP3   OH245811   2.640   5.629   4.573  0.0208 -0.4452 -0.5508
 8107TIP3    H145812   2.727   5.591   4.583 -0.7814 -2.6331 -1.2970
 8107TIP3    H245813   2.623   5.674   4.656  1.5754 -0.5743 -0.1415
 8108TIP3   OH245814   1.717   3.253  13.041 -0.1281  0.2966 -0.0830
 8108TIP3    H145815   1.706   3.339  12.999  0.3292  0.4990  0.2056
 8108TIP3    H245816   1.768   3.271  13.120 -2.2198  0.1337  1.3720
 8109TIP3   OH245817   6.353   3.785  13.970  0.1494  0.0348  0.3761
 8109TIP3    H145818   6.291   3.716  13.949 -0.1966  0.2243  0.7577
 8109TIP3    H245819   6.418   3.743  14.027  0.1868 -0.0838  0.2460
 8110TIP3   OH245820   5.104   5.271   4.067 -0.6552 -0.4173  0.0038
 8110TIP3    H145821   5.172   5.223   4.020 -1.1912 -0.4161 -0.7866
 8110TIP3    H245822   5.125   5.258   4.160  0.3775 -0.4719 -0.2292
 8111TIP3   OH245823   4.882   1.516   2.727 -0.3112  0.0907  0.0550
 8111TIP3    H145824   4.825   1.491   2.654 -2.6062 -0.3162  1.8799
 8111TIP3    H245825   4.892   1.611   2.717 -1.3604  0.1851 -0.2945
 8112TIP3   OH245826   5.628   0.961   4.057 -0.1679 -0.2474 -0.5189
 8112TIP3    H145827   5.639   0.866   4.064 -0.2041 -0.1568  1.1969
 8112TIP3    H245828   5.716   0.995   4.041  0.1460 -0.4558  0.6670
 8113TIP3   OH245829   5.728   3.405   3.999  0.9386  0.4519  0.0322
 8113TIP3    H145830   5.769   3.325   3.965  0.6341  0.0449  0.5965
 8113TIP3    H245831   5.682   3.442   3.924 -0.9613 -1.2250  0.2645
 8114TIP3   OH245832   4.401   2.656  15.206 -0.1081 -0.2153 -0.2493
 8114TIP3    H145833   4.373   2.610  15.126 -0.4110  0.2460 -0.4215
 8114TIP3    H245834   4.335   2.725  15.216  1.7657  1.9036 -1.5285
 8115TIP3   OH245835   5.973   4.365   3.651  0.5462  0.2461  0.8705
 8115TIP3    H145836   5.886   4.333   3.673 -1.3943  2.3433 -2.8277
 8115TIP3    H245837   5.980   4.352   3.556  3.6260  1.6801  0.7868
 8116TIP3   OH245838   4.821   0.898   4.819 -0.0699  0.0722 -0.1876
 8116TIP3    H145839   4.746   0.893   4.878 -0.6296  0.2261 -0.8688
 8116TIP3    H245840   4.869   0.976   4.848 -0.2011  0.0088  0.2103
 8117TIP3   OH245841   2.027   5.813  11.533  0.0140 -0.1254 -0.3898
 8117TIP3    H145842   2.067   5.844  11.452  1.2633 -1.8041 -0.4805
 8117TIP3    H245843   2.036   5.718  11.529  0.3766 -0.2337  1.8564
 8118TIP3   OH245844   4.955   0.792  15.917  0.1124 -1.0906  0.2231
 8118TIP3    H145845   4.880   0.733  15.923  0.4435 -1.8654 -2.1115
 8118TIP3    H245846   5.013   0.750  15.854  2.4365 -0.3922  1.7812
 8119TIP3   OH245847   4.210   2.538  17.048 -0.0691 -0.3501  0.7531
 8119TIP3    H145848   4.263   2.613  17.018  1.0299 -0.6539  1.8523
 8119TIP3    H245849   4.259   2.461  17.020  0.1343 -0.6375  1.8485
 8120TIP3   OH245850   1.097   6.029   5.022 -0.2866 -0.0024  0.5918
 8120TIP3    H145851   1.038   6.103   5.009  0.2181  0.7093  2.1698
 8120TIP3    H245852   1.043   5.963   5.064 -1.1504 -1.2054 -2.1520
 8121TIP3   OH245853   5.764   6.311   1.535 -0.8188  0.1428 -0.7704
 8121TIP3    H145854   5.789   6.374   1.602 -0.6999 -0.2851 -0.4050
 8121TIP3    H245855   5.736   6.234   1.584  2.0573 -1.2791 -1.1544
 8122TIP3   OH245856   5.190   4.614  14.003  0.0272  0.0062 -0.7534
 8122TIP3    H145857   5.246   4.652  13.935  0.7629  1.7345  0.7563
 8122TIP3    H245858   5.157   4.689  14.052 -1.1193 -1.1563  0.3171
 8123TIP3   OH245859   0.366   1.131  12.456 -0.2097  0.2203  0.6263
 8123TIP3    H145860   0.321   1.063  12.506  0.0225  0.8501  1.7147
 8123TIP3    H245861   0.455   1.098  12.445  0.1054  0.6537  1.7850
 8124TIP3   OH245862   4.207   3.170  14.391 -0.2632  0.0936 -0.6379
 8124TIP3    H145863   4.274   3.218  14.343 -0.7959  2.9231  1.2376
 8124TIP3    H245864   4.126   3.218  14.375 -1.3048 -1.5309 -0.4835
 8125TIP3   OH245865   6.368   4.905   6.158  0.1217  0.1115  0.1579
 8125TIP3    H145866   6.382   4.847   6.083 -1.3261  1.2089 -1.0355
 8125TIP3    H245867   6.455   4.922   6.192  0.5813 -3.3468  1.0986
 8126TIP3   OH245868   4.516   0.870  13.909 -0.6727 -0.1146  0.4967
 8126TIP3    H145869   4.453   0.808  13.947 -0.9500 -1.0391 -1.3711
 8126TIP3    H245870   4.473   0.955  13.919 -1.3562 -0.4949  0.9750
 8127TIP3   OH245871   4.899   4.486  12.917  0.6834  0.2049 -0.1834
 8127TIP3    H145872   4.923   4.409  12.867  1.2439 -0.1321  0.5865
 8127TIP3    H245873   4.949   4.479  12.999 -0.7465  0.3531  0.7479
 8128TIP3   OH245874   0.925   4.376  11.894 -0.2534 -0.9320  0.8330
 8128TIP3    H145875   0.861   4.447  11.904  1.2750  0.2368  3.4157
 8128TIP3    H245876   0.964   4.392  11.808 -0.8951  0.5315  0.7696
 8129TIP3   OH245877   3.494   0.561   2.699 -0.4632 -0.6593  0.4181
 8129TIP3    H145878   3.451   0.514   2.770 -2.3929  0.1738 -0.1244
 8129TIP3    H245879   3.464   0.652   2.709 -1.2534 -0.6295 -1.7436
 8130TIP3   OH245880   3.531   5.602   5.879 -0.4243  0.4722 -0.3242
 8130TIP3    H145881   3.511   5.683   5.927 -1.7639 -0.1192  0.1686
 8130TIP3    H245882   3.458   5.594   5.817 -0.6552 -0.6918  0.0872
 8131TIP3   OH245883   3.048   5.003  14.148 -0.2014  0.3847 -0.3250
 8131TIP3    H145884   3.132   4.958  14.150 -0.3043  0.2043  0.1052
 8131TIP3    H245885   3.028   5.020  14.240 -0.6274  0.4409 -0.4262
 8132TIP3   OH245886   3.968   4.780   2.398 -0.4011  0.1456  0.3213
 8132TIP3    H145887   3.999   4.800   2.486  0.8175 -0.3618  0.0236
 8132TIP3    H245888   4.026   4.711   2.367 -0.5885  0.5582 -1.0202
 8133TIP3   OH245889   0.864   3.319   4.033 -0.5772  0.5170 -0.1017
 8133TIP3    H145890   0.896   3.320   3.942  0.6067  0.2415  0.2925
 8133TIP3    H245891   0.925   3.376   4.080  0.2801 -1.2043  0.9685
 8134TIP3   OH245892   2.507   5.319  17.250  0.2166 -0.0684 -0.3584
 8134TIP3    H145893   2.550   5.242  17.287  3.6905  1.5933 -0.5325
 8134TIP3    H245894   2.523   5.312  17.156  0.5730  0.8474 -0.3699
 8135TIP3   OH245895   4.801   0.309   5.348  0.7947  1.0081 -0.4409
 8135TIP3    H145896   4.739   0.236   5.342 -0.4622  1.8313  1.5291
 8135TIP3    H245897   4.781   0.363   5.271  1.5564 -0.4989 -1.7774
 8136TIP3   OH245898   4.543   4.359  12.812  0.1415  0.0824 -0.7630
 8136TIP3    H145899   4.562   4.453  12.812  0.5091  0.0160 -0.1551
 8136TIP3    H245900   4.630   4.318  12.809 -0.0356 -0.2428 -1.5653
 8137TIP3   OH245901   1.197   0.101  16.341  0.3073  0.4730  0.6605
 8137TIP3    H145902   1.118   0.060  16.376 -0.5202  0.1021 -1.4870
 8137TIP3    H245903   1.269   0.054  16.383 -0.5482  1.1125  2.9995
 8138TIP3   OH245904   1.015   2.855  11.471  0.8595 -0.0950 -0.4010
 8138TIP3    H145905   0.970   2.809  11.400 -1.6706  3.4480 -1.3955
 8138TIP3    H245906   0.986   2.811  11.551 -1.7200 -0.0676 -1.2440
 8139TIP3   OH245907   3.500   4.030  11.529 -0.2726 -0.6643  0.2637
 8139TIP3    H145908   3.585   3.991  11.509 -1.1289 -2.1170 -0.7751
 8139TIP3    H245909   3.518   4.123  11.544  1.6107 -1.1210  1.0540
 8140TIP3   OH245910   1.873   6.426  17.277  0.4110  0.1161 -0.0091
 8140TIP3    H145911   1.869   6.514  17.239 -0.2252  0.0817 -0.0233
 8140TIP3    H245912   1.904   6.441  17.367  1.4919  0.2343 -0.3840
 8141TIP3   OH245913   5.487   6.367   0.693 -0.1548 -0.0084  0.6584
 8141TIP3    H145914   5.517   6.432   0.756 -2.2317  0.6994  0.9942
 8141TIP3    H245915   5.459   6.418   0.617  1.3231 -0.7844 -0.4561
 8142TIP3   OH245916   1.717   1.994   2.517  0.1614 -0.4720 -0.0688
 8142TIP3    H145917   1.755   1.907   2.531  0.3884 -0.6632 -1.7096
 8142TIP3    H245918   1.624   1.983   2.535  0.2115 -1.0204 -0.1378
 8143TIP3   OH245919   2.665   6.319  15.404 -0.0802  0.5147 -0.2090
 8143TIP3    H145920   2.730   6.379  15.441  1.0614 -0.2436 -0.9302
 8143TIP3    H245921   2.708   6.233  15.405 -1.7168 -0.3589  0.9115
 8144TIP3   OH245922   5.774   4.936  14.216 -0.4389 -0.6146  0.5868
 8144TIP3    H145923   5.845   4.875  14.235  1.0621  0.7237 -0.4320
 8144TIP3    H245924   5.784   4.956  14.123 -0.4605  1.6337  1.0134
 8145TIP3   OH245925   0.815   0.591   0.868  0.4267  0.1381  0.3737
 8145TIP3    H145926   0.871   0.649   0.817 -0.2522  0.6466  0.1932
 8145TIP3    H245927   0.838   0.503   0.838  0.7780  0.3710 -0.0510
 8146TIP3   OH245928   0.367   3.079   3.063  1.1422 -0.0595 -0.3566
 8146TIP3    H145929   0.290   3.049   3.111  2.0962 -1.5767  0.3070
 8146TIP3    H245930   0.340   3.162   3.024  0.5925  1.8847  3.6378
 8147TIP3   OH245931   4.649   1.559   0.494 -0.5104  0.0060 -0.2476
 8147TIP3    H145932   4.575   1.581   0.551  0.2186  0.4339  0.5606
 8147TIP3    H245933   4.620   1.582   0.406 -1.1838  0.5836  0.1175
 8148TIP3   OH245934   2.577   2.086  16.663  0.2154  0.6947  0.5089
 8148TIP3    H145935   2.530   2.106  16.744  0.4211 -0.6787  0.9976
 8148TIP3    H245936   2.655   2.038  16.692  1.8312  2.6854 -0.3014
 8149TIP3   OH245937   4.292   4.473   3.372 -0.2758 -0.0416  0.3402
 8149TIP3    H145938   4.226   4.430   3.427  0.2066 -0.9600  0.2149
 8149TIP3    H245939   4.316   4.407   3.308 -0.4309  0.8351 -0.6536
 8150TIP3   OH245940   1.080   0.293  11.680  0.0669  0.0112 -0.2254
 8150TIP3    H145941   1.083   0.380  11.719  1.2642 -0.0872 -0.0727
 8150TIP3    H245942   1.031   0.240  11.743  2.0765 -0.1794  1.2709
 8151TIP3   OH245943   0.296   1.677  17.281  0.0516  0.2626 -0.2406
 8151TIP3    H145944   0.390   1.664  17.295  0.2178  1.7972  0.2782
 8151TIP3    H245945   0.256   1.655  17.365  0.1596  1.3956  0.1206
 8152TIP3   OH245946   4.434   5.411  13.132 -0.0511  0.0307  0.1839
 8152TIP3    H145947   4.438   5.368  13.217 -0.1512 -0.9847 -0.3189
 8152TIP3    H245948   4.523   5.443  13.118  0.1711 -0.5314  0.2922
 8153TIP3   OH245949   1.595   1.795  13.878 -0.4261 -0.2005  0.4122
 8153TIP3    H145950   1.583   1.701  13.862 -0.3122 -0.1365 -0.0500
 8153TIP3    H245951   1.513   1.822  13.920 -0.8985 -0.2836 -0.4462
 8154TIP3   OH245952   4.142   3.076   1.403  0.3270  0.7861  0.7181
 8154TIP3    H145953   4.205   3.125   1.457 -0.4336  0.0886  2.2708
 8154TIP3    H245954   4.162   2.984   1.420  2.3005  0.3804 -2.8199
 8155TIP3   OH245955   4.954   3.164  17.448 -0.6394  0.3061 -0.1381
 8155TIP3    H145956   4.878   3.107  17.445 -1.5286  1.2549  2.2180
 8155TIP3    H245957   5.029   3.105  17.441 -1.5538 -1.0066  0.8531
 8156TIP3   OH245958   3.515   0.734  15.692 -0.4116  0.0674 -0.1047
 8156TIP3    H145959   3.592   0.762  15.742 -0.3662  0.5826 -0.4639
 8156TIP3    H245960   3.463   0.684  15.756  0.0092  0.0771  0.2534
 8157TIP3   OH245961   6.230   4.929   1.242 -0.7320 -0.3371 -0.1987
 8157TIP3    H145962   6.262   4.846   1.277  0.3186 -0.9626 -2.4688
 8157TIP3    H245963   6.270   4.936   1.155 -3.3760  0.9611 -1.4262
 8158TIP3   OH245964   4.338   0.367   6.236 -0.2054  0.0797  0.1034
 8158TIP3    H145965   4.387   0.428   6.292 -0.2309 -0.4318  0.6907
 8158TIP3    H245966   4.275   0.423   6.190 -0.6209  0.4405  1.0679
 8159TIP3   OH245967   6.499   6.646   2.600  0.0914  0.1653 -0.1707
 8159TIP3    H145968   6.531   6.556   2.601 -0.9356 -0.2466  1.6408
 8159TIP3    H245969   6.405   6.638   2.584  0.1264  0.9935 -0.8616
 8160TIP3   OH245970   0.581   3.681   1.216  0.2942  0.0459 -0.0951
 8160TIP3    H145971   0.660   3.696   1.164 -0.3915  1.9290 -0.6822
 8160TIP3    H245972   0.525   3.756   1.197 -0.4488  0.2612  2.5612
 8161TIP3   OH245973   5.960   3.397  13.808 -0.0750  0.0268 -0.4100
 8161TIP3    H145974   5.884   3.432  13.855  0.6351  1.8788 -0.5166
 8161TIP3    H245975   5.924   3.350  13.734 -1.1565 -0.9201  0.6897
 8162TIP3   OH245976   3.627   0.601  15.234  0.1075  0.0287  0.1606
 8162TIP3    H145977   3.721   0.584  15.237  0.5335  1.7075 -1.4699
 8162TIP3    H245978   3.609   0.651  15.313  0.0390 -2.3904  1.7660
 8163TIP3   OH245979   6.729   3.522  16.508  0.4830 -0.2500 -0.4814
 8163TIP3    H145980   6.733   3.608  16.550  0.4441 -0.4029 -0.1560
 8163TIP3    H245981   6.818   3.487  16.516  0.4956 -0.2446 -0.6017
 8164TIP3   OH245982   5.803   6.232  14.729  0.3657  0.2264 -0.0808
 8164TIP3    H145983   5.736   6.301  14.734  2.0978  1.9698  0.6362
 8164TIP3    H245984   5.801   6.202  14.639 -0.2724  1.4429 -0.4943
 8165TIP3   OH245985   4.518   2.318  14.991 -0.2789 -0.8693 -0.9342
 8165TIP3    H145986   4.454   2.249  14.973 -1.5428 -0.2381  0.8869
 8165TIP3    H245987   4.541   2.306  15.083 -1.6654  1.9688 -0.1233
 8166TIP3   OH245988   6.531   2.327   0.159  0.5216 -0.5220  0.9543
 8166TIP3    H145989   6.584   2.302   0.084  1.7458 -1.0996  1.9784
 8166TIP3    H245990   6.547   2.421   0.170  0.6013 -0.5078  0.7078
 8167TIP3   OH245991   5.031   3.385   2.725  0.5316 -0.8647 -0.2275
 8167TIP3    H145992   5.102   3.322   2.740  1.0009 -0.5795 -1.1394
 8167TIP3    H245993   4.962   3.333   2.683 -0.1143 -1.3002  1.3156
 8168TIP3   OH245994   3.444   4.704   5.856 -0.3996  0.0142 -0.0439
 8168TIP3    H145995   3.516   4.641   5.854  0.2608  0.7292  0.5188
 8168TIP3    H245996   3.487   4.789   5.865 -1.3321  0.3800  1.1880
 8169TIP3   OH245997   5.512   3.767  16.015  0.0916 -0.3442 -0.2530
 8169TIP3    H145998   5.451   3.709  15.970  0.1096 -0.2299 -0.4249
 8169TIP3    H245999   5.508   3.739  16.107 -1.2752  0.5684  0.0025
 8170TIP3   OH246000   4.810   3.837  16.608  0.0288  0.7505  0.1238
 8170TIP3    H146001   4.816   3.783  16.528  2.1441 -1.5029  1.6471
 8170TIP3    H246002   4.717   3.838  16.629 -0.2486 -1.2043 -0.7559
 8171TIP3   OH246003   1.328   1.522   3.893 -0.0873  0.3886 -0.2778
 8171TIP3    H146004   1.299   1.600   3.940  0.6670  1.5051 -1.5893
 8171TIP3    H246005   1.392   1.481   3.951 -0.6903  0.5916  0.5396
 8172TIP3   OH246006   0.179   2.005  16.053  0.1794  0.3744  0.1401
 8172TIP3    H146007   0.116   1.999  16.124  0.4446 -1.1790  0.2757
 8172TIP3    H246008   0.255   2.048  16.092  0.0444  0.2163  0.5773
 8173TIP3   OH246009   0.395   1.778   2.259  0.2923 -0.0672 -0.7347
 8173TIP3    H146010   0.487   1.775   2.286 -0.6801 -0.0379  3.2511
 8173TIP3    H246011   0.355   1.845   2.315 -2.6408 -1.9530 -0.3054
 8174TIP3   OH246012   2.772   4.510  14.898 -0.6895  0.1954  0.2419
 8174TIP3    H146013   2.773   4.554  14.984 -1.2475 -0.5270  0.6275
 8174TIP3    H246014   2.864   4.507  14.873 -0.6611  2.0323 -0.0458
 8175TIP3   OH246015   1.990   3.449   1.238 -0.0952  0.0081 -0.0283
 8175TIP3    H146016   1.903   3.479   1.263  0.0533  1.3695 -1.0534
 8175TIP3    H246017   2.002   3.367   1.286 -3.0091 -1.6742 -1.8790
 8176TIP3   OH246018   6.144   1.680   0.263 -0.2671  0.3547  0.2691
 8176TIP3    H146019   6.091   1.611   0.224 -1.2733  0.8381  0.7326
 8176TIP3    H246020   6.192   1.637   0.334 -1.7934  0.3347  1.3387
 8177TIP3   OH246021   5.880   4.477   6.108 -0.3800  0.0519 -0.3283
 8177TIP3    H146022   5.844   4.415   6.171  1.2292 -0.4735  0.1204
 8177TIP3    H246023   5.858   4.563   6.144  1.2274 -0.2188  1.4557
 8178TIP3   OH246024   4.587   1.273  12.693 -0.2387 -0.8200 -0.0272
 8178TIP3    H146025   4.537   1.353  12.679  2.8176  1.1263 -0.9722
 8178TIP3    H246026   4.532   1.203  12.658 -2.7972  0.8918  0.3039
 8179TIP3   OH246027   5.518   5.182   4.656  0.1422 -0.7299 -0.1021
 8179TIP3    H146028   5.542   5.207   4.746  0.7225  2.5499 -1.0577
 8179TIP3    H246029   5.600   5.150   4.618 -0.2802 -2.9516  0.6725
 8180TIP3   OH246030   3.697   0.801  12.230 -0.2853 -0.2747 -0.2385
 8180TIP3    H146031   3.773   0.746  12.212 -1.3200 -1.6331 -0.6103
 8180TIP3    H246032   3.644   0.751  12.292 -0.0878  1.4056  1.3834
 8181TIP3   OH246033   1.573   5.868   2.794 -0.1410 -0.3415 -0.0536
 8181TIP3    H146034   1.554   5.777   2.817  0.0040 -0.8980 -1.9752
 8181TIP3    H246035   1.582   5.912   2.878 -0.7107 -1.9915  0.9237
 8182TIP3   OH246036   0.276   2.959   5.852  0.2420  0.4250  0.1242
 8182TIP3    H146037   0.333   2.946   5.775  0.6627 -0.3774  0.5611
 8182TIP3    H246038   0.329   2.930   5.926 -0.4895  0.3270  0.6191
 8183TIP3   OH246039   3.604   3.903  13.831  0.1561  0.0850 -0.1728
 8183TIP3    H146040   3.613   3.825  13.885  0.1612  0.2322  0.0365
 8183TIP3    H246041   3.538   3.879  13.765 -0.0077 -0.0181  0.0291
 8184TIP3   OH246042   5.380   1.878  14.692  0.1454  0.4537 -0.2028
 8184TIP3    H146043   5.456   1.861  14.747 -0.1937  0.7065  0.3578
 8184TIP3    H246044   5.323   1.932  14.747 -1.3482 -1.3834  0.1574
 8185TIP3   OH246045   5.380   1.238   2.635  0.2711 -0.2661 -0.4966
 8185TIP3    H146046   5.428   1.316   2.609  0.6720 -0.5068 -0.4891
 8185TIP3    H246047   5.302   1.271   2.680 -1.0739  0.1967 -3.0015
 8186TIP3   OH246048   2.378   2.116   1.324  0.4118 -0.2974  0.5141
 8186TIP3    H146049   2.384   2.022   1.342 -0.9145 -0.6466 -0.7420
 8186TIP3    H246050   2.285   2.135   1.323  0.6077  0.7097 -0.8205
 8187TIP3   OH246051   5.309   5.764  14.659 -0.2953  0.2800  0.2531
 8187TIP3    H146052   5.299   5.735  14.568  0.8994  0.3499  0.0803
 8187TIP3    H246053   5.310   5.859  14.653 -2.1601  0.3616  0.5882
 8188TIP3   OH246054   0.231   1.069  13.704 -0.1925 -0.0037  0.1183
 8188TIP3    H146055   0.144   1.036  13.729 -0.2577  0.4056  0.4452
 8188TIP3    H246056   0.268   1.000  13.649 -0.4735 -0.4587  0.4900
 8189TIP3   OH246057   4.098   1.593  15.691  0.1044 -0.0904 -0.6409
 8189TIP3    H146058   4.129   1.520  15.639  1.2930 -3.6852  4.3944
 8189TIP3    H246059   4.003   1.579  15.699 -0.3901  1.4317 -2.8230
 8190TIP3   OH246060   6.078   1.216   0.070  0.1396  0.3274  0.0346
 8190TIP3    H146061   6.041   1.186  -0.014 -0.3681  0.7666  0.0946
 8190TIP3    H246062   6.120   1.138   0.107 -1.9578 -0.5818  0.6351
 8191TIP3   OH246063   4.287   1.782   0.765  0.8063 -0.1215 -0.0299
 8191TIP3    H146064   4.335   1.859   0.796  1.3639 -1.0184  1.4021
 8191TIP3    H246065   4.232   1.816   0.694  0.2227  1.8264  1.2609
 8192TIP3   OH246066   2.927   5.567  16.466  0.0667 -0.3118  0.1039
 8192TIP3    H146067   2.885   5.649  16.440  0.9743  0.0646 -0.2114
 8192TIP3    H246068   2.898   5.552  16.556 -1.0070 -0.2503 -0.2073
 8193TIP3   OH246069   2.421   3.485   6.175  0.0506 -0.0193 -0.7283
 8193TIP3    H146070   2.378   3.441   6.248  1.0447  0.5936  0.2542
 8193TIP3    H246071   2.380   3.571   6.172 -1.6943 -0.8190 -2.4728
 8194TIP3   OH246072   6.625   6.382   5.587 -0.6168  0.3429  0.3123
 8194TIP3    H146073   6.651   6.369   5.678  0.8968  0.5075 -0.0816
 8194TIP3    H246074   6.660   6.468   5.563 -1.2727  0.4452 -0.3362
 8195TIP3   OH246075   0.983   3.292  12.106 -0.2756 -0.4444  0.3672
 8195TIP3    H146076   0.924   3.298  12.031  0.1620 -0.8260 -0.0167
 8195TIP3    H246077   0.926   3.273  12.180 -0.5707 -1.7031 -0.1423
 8196TIP3   OH246078   0.665   3.552  14.316 -0.0770  0.3819  0.4119
 8196TIP3    H146079   0.591   3.585  14.266  0.8922  1.2779 -0.4835
 8196TIP3    H246080   0.725   3.626  14.322  0.7905 -0.3440  1.0552
 8197TIP3   OH246081   3.878   6.539   1.807  0.0416 -0.3717  0.8219
 8197TIP3    H146082   3.950   6.587   1.766 -0.9642  1.0103  0.5908
 8197TIP3    H246083   3.915   6.505   1.889  0.4753  1.9978  1.6975
 8198TIP3   OH246084   0.527   5.507  11.344  0.2890  0.7657  0.2750
 8198TIP3    H146085   0.461   5.529  11.410  2.8622  0.9318  3.0054
 8198TIP3    H246086   0.585   5.583  11.342  1.2441  0.0389 -0.9320
 8199TIP3   OH246087   3.180   4.554   5.070 -0.3143  0.3115 -0.6095
 8199TIP3    H146088   3.121   4.519   5.003 -0.3838 -2.2252  0.6387
 8199TIP3    H246089   3.253   4.492   5.071 -0.5741 -0.0754  1.9774
 8200TIP3   OH246090   5.608   2.123  16.305 -0.2156 -0.1359 -0.3703
 8200TIP3    H146091   5.580   2.208  16.272 -1.6911 -0.4743 -0.0803
 8200TIP3    H246092   5.662   2.144  16.381  0.4457  0.5597 -1.0196
 8201TIP3   OH246093   1.906   4.386   4.350 -0.0052 -0.2081  0.5171
 8201TIP3    H146094   1.850   4.402   4.274 -0.2355 -1.4717  0.3979
 8201TIP3    H246095   1.852   4.332   4.408  0.2445  0.5659  1.5018
 8202TIP3   OH246096   0.956   4.989   0.321  0.2640  0.5266  0.2916
 8202TIP3    H146097   0.878   4.975   0.268  0.8932 -1.0545 -0.2775
 8202TIP3    H246098   0.937   5.068   0.371 -2.1267 -0.3891  0.9699
 8203TIP3   OH246099   5.612   0.786  14.980  0.4427  0.7408 -0.2875
 8203TIP3    H146100   5.522   0.753  14.977  0.8933 -0.5084 -0.8912
 8203TIP3    H246101   5.649   0.763  14.895  0.4658  3.9585 -1.2677
 8204TIP3   OH246102   5.180   4.907  17.035  0.1481 -0.1118 -0.0278
 8204TIP3    H146103   5.254   4.859  17.073  0.6540 -0.1521 -1.0250
 8204TIP3    H246104   5.177   4.989  17.084  0.3211 -0.4662  0.5896
 8205TIP3   OH246105   4.094   2.049  11.720  0.1893 -0.0400 -0.1888
 8205TIP3    H146106   4.136   2.012  11.642 -1.4476 -1.1896 -0.5742
 8205TIP3    H246107   4.053   1.974  11.763 -1.2043  0.9625  0.3187
 8206TIP3   OH246108   1.707   6.314  16.691 -0.3082 -0.2151 -0.1724
 8206TIP3    H146109   1.646   6.256  16.737 -1.0807  0.6896 -0.0432
 8206TIP3    H246110   1.743   6.371  16.759 -0.8085  0.5609 -0.5471
 8207TIP3   OH246111   5.675   3.899  12.000  0.2845  0.0432  0.5358
 8207TIP3    H146112   5.611   3.929  11.936  1.6003 -1.9811 -1.9020
 8207TIP3    H246113   5.623   3.881  12.079 -1.8224  0.2499 -0.7269
 8208TIP3   OH246114   5.550   0.408   2.943 -0.2270  0.2035  0.1500
 8208TIP3    H146115   5.457   0.392   2.926 -0.4837  0.8221  0.9251
 8208TIP3    H246116   5.578   0.333   2.995  0.2283 -1.0057 -1.7318
 8209TIP3   OH246117   2.365   6.484   2.937  0.4111  0.0812 -0.4383
 8209TIP3    H146118   2.322   6.448   2.860  1.0979  0.4911 -1.0217
 8209TIP3    H246119   2.452   6.442   2.937  0.3679 -0.0198  0.1899
 8210TIP3   OH246120   4.450   5.955  11.478 -0.4337 -0.2848 -0.9131
 8210TIP3    H146121   4.528   5.973  11.425  0.4898  0.6804  0.6883
 8210TIP3    H246122   4.438   5.861  11.472  1.0684 -0.4972 -0.9285
 8211TIP3   OH246123   6.716   6.407   5.827  0.0535  0.1469  0.2786
 8211TIP3    H146124   6.760   6.343   5.883 -0.9287  1.4695  2.7032
 8211TIP3    H246125   6.744   6.492   5.860  0.1182  1.0300 -1.8642
 8212TIP3   OH246126   0.985   0.071   4.333 -0.1907  0.2143 -0.3700
 8212TIP3    H146127   1.059   0.048   4.389 -0.3432 -2.1780 -1.0744
 8212TIP3    H246128   0.968   0.163   4.354  1.5855  0.2198  1.3698
 8213TIP3   OH246129   1.962   4.999  17.042  0.4496 -0.2605  0.2121
 8213TIP3    H146130   1.971   5.015  16.948  0.1579  0.5586  0.3203
 8213TIP3    H246131   2.042   5.035  17.080 -0.6186  1.9248  0.5579
 8214TIP3   OH246132   5.663   2.536   0.996  0.0154 -0.9017 -0.0972
 8214TIP3    H146133   5.677   2.490   1.079  0.2227  1.1511  1.0759
 8214TIP3    H246134   5.699   2.623   1.011  0.8256 -0.7214 -2.6610
 8215TIP3   OH246135   6.670   2.161   3.987 -0.1075  1.0534  0.2981
 8215TIP3    H146136   6.759   2.181   3.957  0.3632  0.3212  1.1337
 8215TIP3    H246137   6.677   2.072   4.022 -1.0307  1.2184  0.9193
 8216TIP3   OH246138   0.630   0.679   4.961 -0.3872  0.2739 -0.2655
 8216TIP3    H146139   0.672   0.742   5.020  1.9656 -1.0236 -0.4342
 8216TIP3    H246140   0.563   0.638   5.015  0.1640  0.7284  0.8146
 8217TIP3   OH246141   0.273   5.601   4.991  0.0336  0.3451  0.3267
 8217TIP3    H146142   0.248   5.686   5.026 -0.0791 -0.1016  1.3549
 8217TIP3    H246143   0.274   5.543   5.067 -0.6592 -0.7538 -0.4830
 8218TIP3   OH246144   5.473   3.156  12.329 -0.4491  0.3215 -0.2300
 8218TIP3    H146145   5.402   3.209  12.366  0.8642  0.1840  2.7521
 8218TIP3    H246146   5.436   3.068  12.324 -0.6054  0.3014  1.0493
 8219TIP3   OH246147   4.063   0.463   1.644 -0.2582  0.3566 -0.7264
 8219TIP3    H146148   4.107   0.404   1.705  0.8452 -0.4607 -2.2304
 8219TIP3    H246149   3.983   0.490   1.690  1.5565  1.6115  1.9581
 8220TIP3   OH246150   1.470   6.585  12.907 -0.3303 -0.2946  0.6171
 8220TIP3    H146151   1.558   6.557  12.882  0.9693  1.8059  2.4945
 8220TIP3    H246152   1.451   6.535  12.987  0.2495  0.9929  1.6022
 8221TIP3   OH246153   4.453   3.183  11.799 -0.2384  0.1769 -0.7040
 8221TIP3    H146154   4.531   3.174  11.744  1.1161 -0.2840  1.1969
 8221TIP3    H246155   4.401   3.104  11.779  0.8345 -0.6244 -0.4193
 8222TIP3   OH246156   0.046   0.810   3.532 -0.0489  0.3833 -0.4769
 8222TIP3    H146157   0.130   0.856   3.539 -0.1864  0.4773  0.9409
 8222TIP3    H246158   0.069   0.718   3.527  0.1657  0.2112  2.0940
 8223TIP3   OH246159   5.250   0.037  16.748  0.5405 -0.0602  0.0794
 8223TIP3    H146160   5.200   0.074  16.675 -0.4082 -0.1904  0.6521
 8223TIP3    H246161   5.259  -0.056  16.726  2.6823  0.3916 -1.2229
 8224TIP3   OH246162   0.896   0.800   6.501  0.1703 -0.0915 -0.1580
 8224TIP3    H146163   0.969   0.829   6.445  1.7179 -3.5998 -0.1936
 8224TIP3    H246164   0.937   0.781   6.586 -0.7537 -1.7225 -0.0402
 8225TIP3   OH246165   0.439   1.530   5.225  0.3345 -0.0629  0.2203
 8225TIP3    H146166   0.508   1.492   5.280  1.3222  0.1412 -0.8359
 8225TIP3    H246167   0.484   1.557   5.145 -0.6481  1.7453  0.2173
 8226TIP3   OH246168   6.151   3.875   2.135 -0.3892  0.3545  0.4498
 8226TIP3    H146169   6.137   3.783   2.111  2.0219 -0.5202  2.0573
 8226TIP3    H246170   6.109   3.884   2.220  1.3482  0.0269  1.3849
 8227TIP3   OH246171   1.854   2.534   1.129  0.2288  0.8412  0.5526
 8227TIP3    H146172   1.905   2.574   1.059  1.5099 -0.4403  0.7068
 8227TIP3    H246173   1.841   2.605   1.193  2.6894  1.0019  0.9677
 8228TIP3   OH246174   2.291   4.455  15.377  0.0260  0.1641  0.2825
 8228TIP3    H146175   2.367   4.498  15.416 -0.5923 -0.1845  1.9407
 8228TIP3    H246176   2.318   4.435  15.288  0.9486  2.4112 -0.0120
 8229TIP3   OH246177   6.034   1.151   6.051  0.4512  0.0523 -0.2879
 8229TIP3    H146178   6.022   1.131   6.144  0.3114  1.6474  0.0574
 8229TIP3    H246179   6.098   1.086   6.021  1.5033  0.3334  1.2421
 8230TIP3   OH246180   5.938   2.987   4.603 -0.7032 -0.3626  0.0665
 8230TIP3    H146181   6.010   2.978   4.666 -0.8404  0.5061  0.3657
 8230TIP3    H246182   5.975   2.959   4.520 -0.6873 -2.1021  0.6201
 8231TIP3   OH246183   4.787   6.584   4.537  0.5042 -0.3136  0.0545
 8231TIP3    H146184   4.811   6.590   4.445  1.2249 -0.2451  0.2412
 8231TIP3    H246185   4.772   6.491   4.552  1.4972 -0.4764  0.1303
 8232TIP3   OH246186   5.360   2.181  15.464  0.6438  0.2232 -0.5256
 8232TIP3    H146187   5.329   2.189  15.554  0.8366 -0.9909 -0.3433
 8232TIP3    H246188   5.423   2.253  15.454  2.2058 -0.8780  0.9816
 8233TIP3   OH246189   5.422   0.675   2.919 -0.3355  0.0256  0.0360
 8233TIP3    H146190   5.487   0.605   2.915 -0.2628  0.1199 -0.4831
 8233TIP3    H246191   5.433   0.723   2.837 -0.1494  0.8596  0.5355
 8234TIP3   OH246192   4.130   6.356   1.671  0.2348 -0.1437  0.9732
 8234TIP3    H146193   4.131   6.447   1.643  1.9098 -0.5882 -0.6417
 8234TIP3    H246194   4.042   6.325   1.652  0.1277  0.7158  0.0051
 8235TIP3   OH246195   4.416   4.797  15.925  0.2866  0.3377 -0.2193
 8235TIP3    H146196   4.431   4.704  15.913  1.7240  0.1801  2.1652
 8235TIP3    H246197   4.377   4.805  16.012 -2.2881  1.8354 -1.3611
 8236TIP3   OH246198   4.215   4.524  15.218  0.5020 -0.7679  0.6915
 8236TIP3    H146199   4.160   4.451  15.191 -0.7199  0.9469 -1.8799
 8236TIP3    H246200   4.155   4.598  15.226  2.1309  0.7449 -0.3146
 8237TIP3   OH246201   2.445   4.045   3.075 -0.5411 -0.2855  0.0148
 8237TIP3    H146202   2.351   4.028   3.074 -0.4328 -1.4934  2.2808
 8237TIP3    H246203   2.478   3.988   3.145  1.8923  0.0390 -0.7826
 8238TIP3   OH246204   4.871   3.572  15.274  0.0154  0.1664  0.1489
 8238TIP3    H146205   4.801   3.592  15.336 -1.7803 -0.9971 -1.4095
 8238TIP3    H246206   4.828   3.567  15.189  2.2492  0.7728 -1.1131
 8239TIP3   OH246207   3.645   3.704  12.511  0.3726  0.0104  0.2641
 8239TIP3    H146208   3.585   3.739  12.446  0.1326 -1.3601 -0.2910
 8239TIP3    H246209   3.731   3.738  12.486  0.0652  0.6955  0.1226
 8240TIP3   OH246210   2.112   2.675  11.802  0.0055 -0.0871  0.3871
 8240TIP3    H146211   2.117   2.752  11.859 -1.1631  0.2328  0.0711
 8240TIP3    H246212   2.203   2.662  11.773 -0.0874  2.6403 -1.4833
 8241TIP3   OH246213   2.995   6.142   3.943  0.2845  0.5063  0.0717
 8241TIP3    H146214   2.939   6.108   3.873 -0.7593  0.2812  0.9856
 8241TIP3    H246215   2.940   6.139   4.022  0.9983  1.9423  0.6749
 8242TIP3   OH246216   6.041   6.501  16.321 -0.7119  0.2139  1.0573
 8242TIP3    H146217   5.969   6.563  16.308 -1.1170 -0.4307  0.0888
 8242TIP3    H246218   5.999   6.415  16.326 -0.0361 -0.1517  0.7086
 8243TIP3   OH246219   1.117   2.571   5.883  0.2260  0.0685  0.2103
 8243TIP3    H146220   1.128   2.506   5.814 -1.3816  1.5429 -1.5439
 8243TIP3    H246221   1.202   2.615   5.887  0.2974  0.0866 -0.9963
 8244TIP3   OH246222   4.045   4.829  11.979 -0.5704  0.0270  0.7295
 8244TIP3    H146223   3.955   4.801  11.999 -0.0808 -0.6828  2.0532
 8244TIP3    H246224   4.092   4.747  11.966  0.2447  0.3267  1.6946
 8245TIP3   OH246225   5.074   2.183  15.316  0.2435 -0.0754  0.1007
 8245TIP3    H146226   5.076   2.132  15.397 -0.8352  0.4092  0.4563
 8245TIP3    H246227   5.166   2.204  15.298  0.5492 -0.7278  0.8521
 8246TIP3   OH246228   6.003   0.434  16.612  0.0025  0.2573  0.0002
 8246TIP3    H146229   5.999   0.500  16.682 -0.3852  0.6980 -0.4319
 8246TIP3    H246230   5.912   0.420  16.587  0.0554 -0.6989  0.3171
 8247TIP3   OH246231   0.366   5.707   3.973 -0.2470  0.2745 -0.1366
 8247TIP3    H146232   0.343   5.673   4.059  0.3800 -0.9979 -0.4420
 8247TIP3    H246233   0.365   5.630   3.915  0.5547  0.8769 -1.0012
 8248TIP3   OH246234   2.304   3.924   0.337  1.1239 -0.5418  0.0866
 8248TIP3    H146235   2.352   3.903   0.418 -1.3679  0.5314  1.9828
 8248TIP3    H246236   2.284   4.017   0.346  0.8301 -0.3940 -1.8409
 8249TIP3   OH246237   0.458   2.023  16.155  0.1368 -0.4313  0.3176
 8249TIP3    H146238   0.524   1.982  16.210  0.7542 -0.9824 -0.7965
 8249TIP3    H246239   0.504   2.044  16.074 -0.3846  1.7135  0.5300
 8250TIP3   OH246240   4.303   2.081   3.903 -0.3145 -0.6010 -0.2781
 8250TIP3    H146241   4.367   2.018   3.937  2.0227  0.4884 -2.2922
 8250TIP3    H246242   4.310   2.156   3.962  1.0405 -0.1263 -0.9969
 8251TIP3   OH246243   5.753   0.025   5.665  0.4820  0.1514 -0.2094
 8251TIP3    H146244   5.796   0.099   5.622  0.0951  0.6511  0.2579
 8251TIP3    H246245   5.661   0.033   5.640  0.2876  0.3281  0.5290
 8252TIP3   OH246246   3.605   2.586   2.015  0.2704  0.4535  0.0426
 8252TIP3    H146247   3.563   2.580   1.929  0.4265  1.2106 -0.0919
 8252TIP3    H246248   3.540   2.626   2.072 -0.3400 -1.2688  0.6460
 8253TIP3   OH246249   6.389   6.457   5.366 -0.3247 -0.9492  0.0972
 8253TIP3    H146250   6.336   6.387   5.403  0.0649 -1.2719  0.0405
 8253TIP3    H246251   6.362   6.462   5.274 -2.1626  0.6444  0.6393
 8254TIP3   OH246252   3.488   3.495  13.715  0.3193 -0.2733  0.3411
 8254TIP3    H146253   3.571   3.475  13.758  1.0906  0.4933 -0.7616
 8254TIP3    H246254   3.454   3.409  13.688 -0.3469 -0.8195  2.6796
 8255TIP3   OH246255   5.653   1.595   2.773 -0.3386  0.2708  0.2218
 8255TIP3    H146256   5.683   1.664   2.832 -0.3055  2.7919 -2.5284
 8255TIP3    H246257   5.562   1.617   2.754 -0.2333 -0.2531 -0.9398
 8256TIP3   OH246258   0.092   5.215  14.822  1.0640 -0.2719 -0.2749
 8256TIP3    H146259   0.184   5.191  14.811  1.2555 -1.3942  2.7775
 8256TIP3    H246260   0.094   5.293  14.877  0.1963  0.2266 -0.9395
 8257TIP3   OH246261   6.374   1.147   3.249  0.2514 -0.1157 -0.6491
 8257TIP3    H146262   6.286   1.179   3.269 -0.4357 -1.9486 -0.5251
 8257TIP3    H246263   6.383   1.160   3.155 -0.2968 -0.2039 -0.7191
 8258TIP3   OH246264   5.282   4.521   3.327  0.0485  0.6525  0.4870
 8258TIP3    H146265   5.188   4.526   3.343 -0.3622 -0.1970 -1.4014
 8258TIP3    H246266   5.297   4.578   3.252  0.5701 -1.1196 -0.8278
 8259TIP3   OH246267   2.649   2.585   6.387  0.2044 -0.2066 -0.0491
 8259TIP3    H146268   2.564   2.612   6.423 -0.9671 -0.6512 -2.2826
 8259TIP3    H246269   2.661   2.496   6.418 -0.0266 -0.0608  0.4695
 8260TIP3   OH246270   3.012   0.586   1.489  0.2643 -0.0465  0.2785
 8260TIP3    H146271   2.975   0.662   1.446 -5.6568 -2.9614 -0.7433
 8260TIP3    H246272   3.048   0.533   1.418  2.2144  0.5589  0.7279
 8261TIP3   OH246273   2.273   5.429   3.544  0.5962  0.2325  0.3149
 8261TIP3    H146274   2.323   5.417   3.463  0.9053  3.3634 -0.0602
 8261TIP3    H246275   2.207   5.494   3.523 -1.7565 -1.5629  1.6640
 8262TIP3   OH246276   3.408   6.270   0.901  0.2788  0.1437 -0.1497
 8262TIP3    H146277   3.339   6.322   0.943  0.6785  0.4743  0.0960
 8262TIP3    H246278   3.385   6.271   0.808 -0.1122  0.1587 -0.0538
 8263TIP3   OH246279   6.047   0.994   4.961  0.2456 -0.2616 -0.3732
 8263TIP3    H146280   6.071   0.941   5.037 -1.6946 -1.7225 -0.6757
 8263TIP3    H246281   6.130   1.027   4.927  1.1054  2.4837  3.6761
 8264TIP3   OH246282   1.322   5.166  13.410  0.1075 -0.1002 -0.0386
 8264TIP3    H146283   1.358   5.157  13.322  1.2998  0.9989  0.3074
 8264TIP3    H246284   1.242   5.217  13.398  1.6052  2.3208 -0.2490
 8265TIP3   OH246285   2.063   6.280  11.977  0.3663 -0.1943  0.5994
 8265TIP3    H146286   2.136   6.288  12.037  1.7174  0.8976 -1.1068
 8265TIP3    H246287   2.004   6.352  12.000  1.1555  0.5676  0.2770
 8266TIP3   OH246288   4.665   0.600  13.904  0.2283 -0.0980 -0.3369
 8266TIP3    H146289   4.746   0.585  13.953  0.5903  0.6734 -0.6890
 8266TIP3    H246290   4.635   0.687  13.931  0.0981  0.0770 -1.0129
 8267TIP3   OH246291   4.395   4.472  13.592  0.1988 -0.0848  0.2320
 8267TIP3    H146292   4.348   4.522  13.659 -0.7134 -1.7648  0.9126
 8267TIP3    H246293   4.382   4.521  13.512 -3.2775 -0.6990  0.2575
 8268TIP3   OH246294   5.603   6.651   2.625  0.6060  0.9210  0.5139
 8268TIP3    H146295   5.526   6.618   2.673  0.6536  0.4115  0.2535
 8268TIP3    H246296   5.647   6.709   2.687  0.1217  1.0546  0.7393
 8269TIP3   OH246297   0.135   4.032   2.344 -0.4058 -0.3090  0.2460
 8269TIP3    H146298   0.107   3.945   2.316 -1.1512 -0.0219  0.0725
 8269TIP3    H246299   0.072   4.092   2.303  0.4245  0.3539 -0.0769
 8270TIP3   OH246300   0.479   1.634  11.662  0.3509 -0.5428  0.4593
 8270TIP3    H146301   0.423   1.622  11.738 -2.3355  1.1621 -1.0566
 8270TIP3    H246302   0.489   1.546  11.625 -1.2580 -0.9324  0.8773
 8271TIP3   OH246303   1.176   3.848   3.859 -0.2737 -0.2613 -0.1715
 8271TIP3    H146304   1.146   3.927   3.815 -0.7712 -0.1479  0.3662
 8271TIP3    H246305   1.145   3.857   3.949 -0.9194 -1.3852 -0.2695
 8272TIP3   OH246306   1.217   4.177   1.064  0.4025 -0.4189  0.2920
 8272TIP3    H146307   1.129   4.139   1.066 -0.2587  1.0501  0.1483
 8272TIP3    H246308   1.242   4.184   1.156 -0.8052  1.6865  0.5264
 8273TIP3   OH246309   5.728   3.837  15.627  0.0479  0.3292 -0.0021
 8273TIP3    H146310   5.755   3.911  15.683 -0.9372  1.1890 -0.6341
 8273TIP3    H246311   5.693   3.878  15.549  0.5586 -0.8523 -0.8777
 8274TIP3   OH246312   3.379   0.909   6.222 -0.1484  0.4095  0.3879
 8274TIP3    H146313   3.328   0.934   6.299 -1.0500 -2.0602  0.6885
 8274TIP3    H246314   3.313   0.888   6.156  0.5652  0.0370 -0.2154
 8275TIP3   OH246315   4.186   1.716   3.271  0.8185  0.1868  0.6877
 8275TIP3    H146316   4.230   1.797   3.246 -0.1169  0.4309 -0.2098
 8275TIP3    H246317   4.258   1.654   3.289  1.5438  0.4944 -1.0099
 8276TIP3   OH246318   2.896   2.974   0.079 -0.6036 -0.4384 -0.2167
 8276TIP3    H146319   2.905   2.909   0.010  0.0563  0.9483 -1.4930
 8276TIP3    H246320   2.816   3.022   0.057  1.1108  1.9211 -1.7932
 8277TIP3   OH246321   0.063   2.436  16.740 -0.7588  0.5188 -0.2392
 8277TIP3    H146322   0.052   2.503  16.671 -1.8704  0.0949 -0.4940
 8277TIP3    H246323   0.090   2.486  16.817 -1.5359  1.2604 -0.4387
 8278TIP3   OH246324   0.418   4.096   2.435  0.4683  0.2043 -0.5835
 8278TIP3    H146325   0.477   4.166   2.462 -0.1947  1.8042 -2.9773
 8278TIP3    H246326   0.466   4.047   2.369 -0.0670  0.1559 -0.9475
 8279TIP3   OH246327   4.053   5.262  16.462  0.3356 -0.0173  0.0042
 8279TIP3    H146328   4.003   5.181  16.476 -0.8516  0.9855  2.1255
 8279TIP3    H246329   3.996   5.315  16.407  1.7317 -1.0829 -2.6119
 8280TIP3   OH246330   6.188   5.558   1.958  0.4243 -0.2707 -0.3252
 8280TIP3    H146331   6.267   5.600   1.992  0.2696 -0.7486  0.6534
 8280TIP3    H246332   6.166   5.492   2.023 -1.1723  0.2962 -0.2423
 8281TIP3   OH246333   2.792   4.504  14.384 -0.0997  0.5088  0.3218
 8281TIP3    H146334   2.779   4.476  14.474 -2.1038  0.7097  0.1581
 8281TIP3    H246335   2.708   4.485  14.341  0.5467  1.1262 -1.2952
 8282TIP3   OH246336   3.856   5.607  12.561  0.5613 -0.3991  0.4089
 8282TIP3    H146337   3.926   5.542  12.566  1.3895  0.4956  0.6129
 8282TIP3    H246338   3.775   5.555  12.570  1.2119 -1.3375  1.1019
 8283TIP3   OH246339   1.982   2.780   2.700 -0.0677  0.5734 -0.1074
 8283TIP3    H146340   1.917   2.813   2.637 -1.8011 -0.2979  1.1449
 8283TIP3    H246341   1.978   2.842   2.773 -2.0982 -1.2873  1.4996
 8284TIP3   OH246342   1.977   1.990  14.173 -0.4452  0.3270  0.1526
 8284TIP3    H146343   2.056   1.979  14.226 -0.3909  0.6058  0.1300
 8284TIP3    H246344   1.949   1.900  14.154 -0.1397  0.2266  0.1668
 8285TIP3   OH246345   0.998   2.322  17.399  0.4074 -0.1940 -0.2855
 8285TIP3    H146346   0.913   2.315  17.355  0.4415 -1.5164 -0.1882
 8285TIP3    H246347   1.059   2.344  17.328  0.1321 -0.2270 -0.5373
 8286TIP3   OH246348   5.636   3.504  15.336 -0.2835 -0.5584 -0.1378
 8286TIP3    H146349   5.702   3.439  15.363  0.1650 -0.7017 -1.4989
 8286TIP3    H246350   5.584   3.518  15.414  0.6914 -1.2681  0.6772
 8287TIP3   OH246351   5.660   1.848   1.812  0.5146  0.5147  0.1380
 8287TIP3    H146352   5.609   1.840   1.731 -2.8302  0.1636  2.0759
 8287TIP3    H246353   5.632   1.772   1.865  2.5182  0.7689  1.6743
 8288TIP3   OH246354   5.811   4.987   1.462 -0.4867  0.4614 -0.7407
 8288TIP3    H146355   5.818   5.050   1.534  0.0145 -2.5093  1.9907
 8288TIP3    H246356   5.721   4.956   1.465 -0.7405  0.9938 -2.0854
 8289TIP3   OH246357   6.617   3.447   6.515  0.9254 -0.0223 -0.0177
 8289TIP3    H146358   6.682   3.392   6.560  0.7397 -0.5654 -0.4062
 8289TIP3    H246359   6.618   3.530   6.564 -0.5722 -1.1916  2.1661
 8290TIP3   OH246360   3.839   1.788  14.327  0.1959 -0.0152 -0.1527
 8290TIP3    H146361   3.792   1.829  14.254  1.4686 -0.8475 -1.4835
 8290TIP3    H246362   3.870   1.705  14.292  1.5169 -0.0751  1.0859
 8291TIP3   OH246363   1.697   5.321  15.513 -0.3091 -0.6711 -0.3446
 8291TIP3    H146364   1.622   5.325  15.573 -0.5500  1.4617 -0.6812
 8291TIP3    H246365   1.773   5.338  15.569 -0.4262  0.2515 -0.4428
 8292TIP3   OH246366   6.356   5.966   3.365 -0.7215  0.1261 -0.1846
 8292TIP3    H146367   6.353   5.875   3.336 -0.3676 -0.3389  1.1651
 8292TIP3    H246368   6.282   6.008   3.321 -1.9457 -1.2191  0.4964
 8293TIP3   OH246369   4.612   3.613  15.210  0.3186  0.5849 -0.2979
 8293TIP3    H146370   4.609   3.539  15.270  2.2060  0.7277  0.0484
 8293TIP3    H246371   4.644   3.577  15.128  0.7708  0.9287 -0.2753
 8294TIP3   OH246372   2.034   5.846   0.889 -0.3027  0.3662 -0.0170
 8294TIP3    H146373   2.045   5.752   0.908  1.1327  0.7384  1.1324
 8294TIP3    H246374   1.968   5.848   0.819 -1.7771 -1.3832  1.2199
 8295TIP3   OH246375   0.155   5.475  15.686 -0.2574  0.1226 -0.2197
 8295TIP3    H146376   0.204   5.400  15.721 -1.2046 -0.5799 -0.3549
 8295TIP3    H246377   0.134   5.450  15.596  1.7900  1.7323 -1.2240
 8296TIP3   OH246378   5.919   6.216   0.492 -0.2801 -0.3730 -0.1477
 8296TIP3    H146379   5.862   6.258   0.427 -0.1996 -0.1755 -0.0923
 8296TIP3    H246380   5.868   6.219   0.573  0.1112  0.5001  0.0782
 8297TIP3   OH246381   6.376   5.015  12.463  0.6361 -0.0593 -0.1308
 8297TIP3    H146382   6.385   4.921  12.477  0.5840  0.0413  0.5989
 8297TIP3    H246383   6.337   5.048  12.543  0.7084  0.5975 -0.3579
 8298TIP3   OH246384   1.054   4.147  13.343 -0.1655 -0.8558  0.3073
 8298TIP3    H146385   1.082   4.227  13.387  1.4674 -0.4987 -1.2471
 8298TIP3    H246386   0.970   4.169  13.304  1.1025  0.8149 -1.6949
 8299TIP3   OH246387   3.910   2.603  11.586 -0.6961  0.1350  0.2790
 8299TIP3    H146388   3.923   2.545  11.511  0.5408 -1.5493  1.7104
 8299TIP3    H246389   3.960   2.682  11.565 -0.8088 -0.0857 -0.8837
 8300TIP3   OH246390   1.066   4.190  16.528  0.6683  0.4072  0.1269
 8300TIP3    H146391   1.028   4.229  16.449 -0.7583  1.6618  1.3795
 8300TIP3    H246392   1.049   4.096  16.518 -1.5203  0.7659 -0.0607
 8301TIP3   OH246393   1.072   4.177  12.450 -0.3538  0.6103  0.2865
 8301TIP3    H146394   0.988   4.186  12.406  0.6237  0.8318 -1.6508
 8301TIP3    H246395   1.093   4.084  12.444  0.2316  0.7882 -0.6476
 8302TIP3   OH246396   2.565   3.251  13.133  0.3323 -0.4850 -0.3710
 8302TIP3    H146397   2.497   3.305  13.173  0.7227  0.2889 -0.7434
 8302TIP3    H246398   2.543   3.161  13.160 -1.6722 -0.4388 -1.6531
 8303TIP3   OH246399   6.605   4.347   3.793 -0.2856  0.0423  0.1151
 8303TIP3    H146400   6.579   4.397   3.870 -1.6568 -0.5126  0.0435
 8303TIP3    H246401   6.544   4.376   3.724  0.2325 -0.2406 -0.4707
 8304TIP3   OH246402   1.735   1.092  11.956  0.5256  0.3739 -1.0138
 8304TIP3    H146403   1.821   1.059  11.933 -0.2881 -1.7545 -1.1951
 8304TIP3    H246404   1.675   1.019  11.939 -1.2966  1.7061 -0.6880
 8305TIP3   OH246405   6.487   4.680  13.985 -0.3874 -0.1118  0.1321
 8305TIP3    H146406   6.495   4.679  13.889 -0.2875 -1.6675  0.1431
 8305TIP3    H246407   6.543   4.753  14.012 -0.2360  0.2048 -0.9713
 8306TIP3   OH246408   4.455   3.194   2.637 -0.4167 -0.0126 -0.3160
 8306TIP3    H146409   4.444   3.099   2.642 -1.4944  0.1526  1.0531
 8306TIP3    H246410   4.420   3.218   2.551 -0.3797 -0.8161 -0.5638
 8307TIP3   OH246411   3.324   2.100  16.833 -0.0707 -0.5111 -0.0297
 8307TIP3    H146412   3.253   2.035  16.832  0.3753 -0.9963 -0.5358
 8307TIP3    H246413   3.376   2.080  16.755  0.6717 -0.2015  0.3786
 8308TIP3   OH246414   0.106   1.752   2.179 -0.1888  0.5549  0.0489
 8308TIP3    H146415   0.053   1.677   2.206 -0.9654  0.0434 -2.5842
 8308TIP3    H246416   0.193   1.715   2.163  0.0865  0.7266  1.0753
 8309TIP3   OH246417   0.941   3.716   2.174 -0.0447  0.0746  0.5169
 8309TIP3    H146418   1.003   3.643   2.174 -0.4692 -0.3412 -1.4271
 8309TIP3    H246419   0.991   3.789   2.210  1.2647 -0.4935 -0.0642
 8310TIP3   OH246420   1.867   2.234  16.108 -0.1747  0.0897  0.3344
 8310TIP3    H146421   1.819   2.253  16.028  0.0812  0.1976  0.2079
 8310TIP3    H246422   1.892   2.142  16.100 -1.6314 -0.4108  1.0572
 8311TIP3   OH246423   0.093   2.659  15.132  0.1923 -0.4518  0.2569
 8311TIP3    H146424   0.163   2.594  15.123  1.3994  0.5583  1.7232
 8311TIP3    H246425   0.136   2.742  15.112 -0.5878  0.1852  1.1956
 8312TIP3   OH246426   0.374   6.179   2.273  0.9156  0.1746 -0.4629
 8312TIP3    H146427   0.383   6.113   2.204  1.4453 -0.5324  0.2700
 8312TIP3    H246428   0.309   6.142   2.333  0.5533  0.7292 -0.5059
 8313TIP3   OH246429   0.250   6.162   6.955 -0.2567  0.5536  0.4292
 8313TIP3    H146430   0.325   6.117   6.916  0.9714  0.2857  2.8782
 8313TIP3    H246431   0.211   6.097   7.014 -1.6237  1.1114  0.1617
 8314TIP3   OH246432   2.420   4.840  13.937 -0.7443 -0.1174  0.2366
 8314TIP3    H146433   2.458   4.814  14.021 -1.6051 -1.0518  0.3518
 8314TIP3    H246434   2.495   4.865  13.884 -0.1045 -0.4189  0.9785
 8315TIP3   OH246435   1.087   6.418  11.651  0.1929  0.1982 -0.1685
 8315TIP3    H146436   1.006   6.459  11.618 -0.2591  0.9854  1.7976
 8315TIP3    H246437   1.131   6.487  11.700 -0.0535 -1.3030  2.3373
 8316TIP3   OH246438   6.323   1.688  14.594  0.1852 -0.2577 -0.5242
 8316TIP3    H146439   6.254   1.754  14.596  0.7121  0.3727  2.7104
 8316TIP3    H246440   6.296   1.627  14.525 -2.8984  0.6700 -0.2983
 8317TIP3   OH246441   4.668   0.469  12.519 -0.2415  0.0783 -0.1009
 8317TIP3    H146442   4.625   0.511  12.594  2.6821 -0.3422  1.9791
 8317TIP3    H246443   4.599   0.416  12.478 -1.9522  0.2386  2.3516
 8318TIP3   OH246444   4.652   4.909  13.417  0.2359  0.3664  0.7034
 8318TIP3    H146445   4.661   4.814  13.424 -0.6097  0.1998 -0.2259
 8318TIP3    H246446   4.583   4.931  13.480  1.7305  0.6459  2.3166
 8319TIP3   OH246447   0.413   6.262   0.894  0.5762 -0.0606  0.1039
 8319TIP3    H146448   0.336   6.284   0.842 -0.4655 -2.8617  0.2884
 8319TIP3    H246449   0.385   6.268   0.985  1.2346  0.9849  0.2527
 8320TIP3   OH246450   2.920   3.375   0.589  0.0946 -0.0739  0.1140
 8320TIP3    H146451   2.871   3.376   0.506  0.1584  0.3168  0.0835
 8320TIP3    H246452   2.894   3.292   0.630 -0.0316 -0.2124 -0.2390
 8321TIP3   OH246453   6.565   5.514   3.318  0.0226 -0.3323  0.2789
 8321TIP3    H146454   6.582   5.533   3.226  1.8360  0.0295  0.6468
 8321TIP3    H246455   6.619   5.577   3.366  0.5935 -1.7552  1.5713
 8322TIP3   OH246456   6.302   1.511   1.013 -0.0910 -0.2172 -0.2572
 8322TIP3    H146457   6.299   1.421   0.981 -1.2858 -0.2555 -0.0708
 8322TIP3    H246458   6.339   1.561   0.941  2.7355 -1.1593  0.4249
 8323TIP3   OH246459   5.126   4.929   0.700  0.2022  1.0001  0.0164
 8323TIP3    H146460   5.175   4.910   0.780  2.0503  2.4358 -0.7231
 8323TIP3    H246461   5.162   4.870   0.634 -0.8218  0.3269  0.0276
 8324TIP3   OH246462   2.869   0.903   3.612  0.1941 -0.5276 -0.3274
 8324TIP3    H146463   2.929   0.919   3.685 -1.5555 -1.6488  1.4446
 8324TIP3    H246464   2.916   0.936   3.535  2.2048  0.5032  1.2401
 8325TIP3   OH246465   5.985   6.240   1.813 -0.1263  0.1879 -0.4738
 8325TIP3    H146466   5.942   6.319   1.781  0.6705  1.5941  1.7600
 8325TIP3    H246467   5.986   6.249   1.908 -0.5501 -2.8288 -0.0799
 8326TIP3   OH246468   0.691   0.422  15.809  0.4265  0.0832 -0.7169
 8326TIP3    H146469   0.667   0.449  15.720 -0.6166  1.4053 -0.0560
 8326TIP3    H246470   0.683   0.327  15.808 -1.6336  0.2199 -1.4845
 8327TIP3   OH246471   2.309   4.334  12.594 -0.3162  0.4464 -0.3338
 8327TIP3    H146472   2.360   4.295  12.665 -0.3776  0.0168 -0.5201
 8327TIP3    H246473   2.218   4.319  12.618 -0.3698  1.4853  0.1503
 8328TIP3   OH246474   2.973   2.435  17.267 -0.5738 -0.3494  0.2345
 8328TIP3    H146475   2.938   2.523  17.251 -1.8229 -0.8812 -0.0458
 8328TIP3    H246476   2.899   2.385  17.300 -0.1452 -1.5992 -0.6297
 8329TIP3   OH246477   2.211   6.209  11.472  0.0027  0.5050 -0.1502
 8329TIP3    H146478   2.179   6.193  11.561  2.3645  1.7532  1.0237
 8329TIP3    H246479   2.292   6.159  11.466  0.8161  1.8454 -0.9197
 8330TIP3   OH246480   3.139   6.692   3.142  0.1855 -0.1685  0.3191
 8330TIP3    H146481   3.068   6.686   3.080  0.4101  0.9730 -0.0826
 8330TIP3    H246482   3.103   6.660   3.225 -0.8454  0.5425  0.1559
 8331TIP3   OH246483   3.835   2.830   2.724 -0.3202 -0.3698 -0.0871
 8331TIP3    H146484   3.764   2.788   2.774 -0.4299  0.1821  0.2299
 8331TIP3    H246485   3.814   2.923   2.728  0.0067 -0.2735 -0.6575
 8332TIP3   OH246486   5.180   1.484  14.367 -0.4060 -0.3296 -0.4564
 8332TIP3    H146487   5.188   1.526  14.453  0.1944  2.4593 -1.7911
 8332TIP3    H246488   5.092   1.447  14.367 -0.1404 -1.1125  1.6258
 8333TIP3   OH246489   1.085   2.302  13.137 -0.1115 -0.0479 -0.0924
 8333TIP3    H146490   0.992   2.290  13.118 -0.0483  0.6272 -0.8971
 8333TIP3    H246491   1.104   2.392  13.110  0.8416 -0.2884 -0.2692
 8334TIP3   OH246492   6.695   1.396  13.650  0.3653 -0.3593  0.7422
 8334TIP3    H146493   6.639   1.470  13.628  1.8013  0.5275 -0.0594
 8334TIP3    H246494   6.691   1.339  13.573  0.5561 -0.3032  0.6909
 8335TIP3   OH246495   2.691   5.948  13.983  0.0817  0.4625 -0.2094
 8335TIP3    H146496   2.768   5.980  14.029  0.6763 -1.1735  0.0014
 8335TIP3    H246497   2.630   6.022  13.984  1.2969  1.4979  0.3867
 8336TIP3   OH246498   1.847   2.754   0.460  0.1351  0.8610 -0.4544
 8336TIP3    H146499   1.911   2.682   0.460 -0.6886  0.1022  0.3631
 8336TIP3    H246500   1.884   2.819   0.519 -0.0527  0.2065  0.4106
 8337TIP3   OH246501   3.495   6.388  14.396  0.2502 -0.0472 -0.5535
 8337TIP3    H146502   3.407   6.405  14.364 -1.7045 -2.6089  2.7667
 8337TIP3    H246503   3.492   6.412  14.488  3.2813  0.3821 -0.4709
 8338TIP3   OH246504   3.261   0.716  13.325  0.3407  0.3108 -0.0167
 8338TIP3    H146505   3.197   0.754  13.265  0.5602 -0.6222 -0.8682
 8338TIP3    H246506   3.291   0.790  13.377 -0.0622  1.1026 -0.8691
 8339TIP3   OH246507   6.749   5.722  11.711 -0.4935  0.1975  0.0118
 8339TIP3    H146508   6.690   5.793  11.685 -1.2284 -1.0407 -1.9025
 8339TIP3    H246509   6.799   5.703  11.632 -0.0024 -1.1211  0.6230
 8340TIP3   OH246510   2.956   4.142  14.605 -0.1314  0.3283  0.1034
 8340TIP3    H146511   2.973   4.132  14.511 -2.2466 -1.4194 -0.1778
 8340TIP3    H246512   3.043   4.144  14.645  0.8433 -1.6302 -1.7089
 8341TIP3   OH246513   3.700   0.123  13.869 -0.0662  0.5322  0.5399
 8341TIP3    H146514   3.646   0.058  13.824  0.7597  0.1991  0.0286
 8341TIP3    H246515   3.705   0.196  13.808  0.1904  0.5021  0.5252
 8342TIP3   OH246516   6.259   5.984  13.530  0.6992  0.2651 -0.9384
 8342TIP3    H146517   6.329   5.962  13.469  0.1723  0.3135 -1.5673
 8342TIP3    H246518   6.178   5.965  13.483  0.2835  0.0744 -0.1685
 8343TIP3   OH246519   3.895   2.253  12.047  0.0214 -0.0214  0.1475
 8343TIP3    H146520   3.855   2.254  11.960  0.0047 -0.9882  0.1378
 8343TIP3    H246521   3.977   2.302  12.037 -0.2558  0.3610 -0.2700
 8344TIP3   OH246522   4.083   5.234   0.116  0.1579 -0.1315  0.1161
 8344TIP3    H146523   3.994   5.248   0.083 -0.2122 -0.0521  1.0992
 8344TIP3    H246524   4.127   5.185   0.047  0.8654  3.8623 -2.6031
 8345TIP3   OH246525   2.198   4.845  11.808 -0.1676  0.0578  0.2933
 8345TIP3    H146526   2.260   4.771  11.808 -2.2552 -1.8514 -1.2882
 8345TIP3    H246527   2.158   4.843  11.895 -0.0520 -0.5838  0.3419
 8346TIP3   OH246528   1.668   6.330   2.293  0.1764 -0.1399  0.3811
 8346TIP3    H146529   1.738   6.300   2.234 -0.7520 -0.3443 -0.6483
 8346TIP3    H246530   1.685   6.423   2.304  0.0442  0.0229 -0.6832
 8347TIP3   OH246531   4.414   1.952   5.930  0.1464  0.2541 -0.0347
 8347TIP3    H146532   4.467   1.952   5.850  0.2855 -1.7624  0.0044
 8347TIP3    H246533   4.326   1.931   5.901  0.3270 -1.1657  0.3787
 8348TIP3   OH246534   3.067   4.148  15.122 -0.4126  0.7263 -0.6791
 8348TIP3    H146535   3.101   4.134  15.034 -0.2599 -0.3872 -0.4599
 8348TIP3    H246536   3.024   4.065  15.145 -1.6293  1.4588 -0.2151
 8349TIP3   OH246537   4.620   6.661   3.993 -0.1660  0.4438  0.4789
 8349TIP3    H146538   4.637   6.753   3.974 -1.7815  0.8964  1.0474
 8349TIP3    H246539   4.637   6.616   3.910 -0.6827  1.4477 -0.1876
 8350TIP3   OH246540   2.114   4.585  16.497  0.0529 -0.3860 -0.4134
 8350TIP3    H146541   2.188   4.525  16.513  1.2312  1.1700  0.2775
 8350TIP3    H246542   2.125   4.614  16.407  1.3776  1.1788  0.1991
 8351TIP3   OH246543   2.545   4.445   4.358  0.1478  0.2289  0.3612
 8351TIP3    H146544   2.539   4.512   4.290  0.6999 -0.7872 -0.7286
 8351TIP3    H246545   2.455   4.415   4.370  0.2149 -0.7388 -1.1704
 8352TIP3   OH246546   4.022   0.759  11.949  0.5168 -0.0614  0.0357
 8352TIP3    H146547   4.095   0.807  11.910 -0.5530 -0.2282 -2.4099
 8352TIP3    H246548   3.944   0.806  11.918 -0.4693 -1.5771  0.1190
 8353TIP3   OH246549   1.909   0.942  12.783  0.1229  0.1037 -0.3643
 8353TIP3    H146550   1.908   1.030  12.747  0.7165  0.1872 -0.1918
 8353TIP3    H246551   1.969   0.893  12.726  0.9867  0.2120  0.4130
 8354TIP3   OH246552   5.905   0.358   6.612  0.1141 -0.6000  0.4003
 8354TIP3    H146553   5.992   0.320   6.598 -1.1413 -3.1758 -1.3257
 8354TIP3    H246554   5.882   0.333   6.702  0.4802 -1.5328  0.2522
 8355TIP3   OH246555   1.004   6.038  15.404  0.2691  0.2406 -0.2848
 8355TIP3    H146556   1.087   6.086  15.399 -0.0252  0.8098  0.1584
 8355TIP3    H246557   0.937   6.106  15.397 -0.1673 -0.2368 -0.8526
 8356TIP3   OH246558   3.437   5.697  17.290 -0.2061  0.7022  0.1510
 8356TIP3    H146559   3.474   5.640  17.357 -0.4504  1.4621  0.9520
 8356TIP3    H246560   3.417   5.638  17.217 -0.8020 -0.2964  1.0852
 8357TIP3   OH246561   3.091   2.620  12.001  0.1572 -0.0534  0.1192
 8357TIP3    H146562   3.019   2.646  11.944  0.0975 -0.2630  0.0992
 8357TIP3    H246563   3.169   2.658  11.960  0.1828 -0.6667 -0.3990
 8358TIP3   OH246564   6.549   3.612  14.598  0.1202  0.1228 -1.0443
 8358TIP3    H146565   6.633   3.649  14.571  0.7955 -1.4748 -1.2297
 8358TIP3    H246566   6.564   3.578  14.686 -0.2863 -0.3134 -1.1372
 8359TIP3   OH246567   3.423   0.221   0.020  0.0290 -0.0972  0.3035
 8359TIP3    H146568   3.473   0.176   0.088 -0.9353 -0.7271  0.6063
 8359TIP3    H246569   3.420   0.313   0.049 -2.0993 -0.6878  2.2028
 8360TIP3   OH246570   4.387   4.778   6.711 -0.1423  0.0740  0.7609
 8360TIP3    H146571   4.419   4.865   6.688 -2.3434  1.0090  0.9484
 8360TIP3    H246572   4.386   4.730   6.629 -0.1498  0.6653  0.4078
 8361TIP3   OH246573   1.658   4.988  17.387 -0.3859  0.0851 -0.3267
 8361TIP3    H146574   1.746   5.011  17.358 -0.6978  1.2249 -0.4324
 8361TIP3    H246575   1.672   4.931  17.463  0.4409 -0.0557 -0.5790
 8362TIP3   OH246576   5.542   2.368  11.168 -0.2536  0.6986 -0.4029
 8362TIP3    H146577   5.539   2.453  11.211  1.7894  0.6587 -0.0397
 8362TIP3    H246578   5.520   2.386  11.077 -1.5386  1.3133  0.0158
 8363TIP3   OH246579   3.262   2.790   5.399 -0.0301  0.3801 -0.2985
 8363TIP3    H146580   3.349   2.827   5.410  0.0839  0.2277 -0.6857
 8363TIP3    H246581   3.276   2.697   5.384 -0.2907  0.2624  0.1633
 8364TIP3   OH246582   2.715   6.053  11.855 -0.5077  0.2884 -0.4088
 8364TIP3    H146583   2.770   5.988  11.811 -0.6467 -0.4652  0.5088
 8364TIP3    H246584   2.675   6.006  11.928 -1.1235  1.2414 -0.1117
 8365TIP3   OH246585   6.442   2.793   4.184  0.1233 -0.5214  1.0175
 8365TIP3    H146586   6.448   2.786   4.279  1.0999  0.6024  1.0642
 8365TIP3    H246587   6.532   2.792   4.154 -0.0998  0.6797  0.2440
 8366TIP3   OH246588   0.393   3.110   2.600 -0.0364  0.0790  0.4415
 8366TIP3    H146589   0.423   3.024   2.628 -0.7002 -0.4691 -0.4433
 8366TIP3    H246590   0.299   3.110   2.618 -0.5307 -0.3572 -1.7578
 8367TIP3   OH246591   0.027   2.950   5.434  0.4783  0.7897 -0.4111
 8367TIP3    H146592   0.103   2.950   5.491 -0.4545 -0.2492  0.9200
 8367TIP3    H246593   0.059   2.983   5.351  2.6642 -0.6919 -0.2555
 8368TIP3   OH246594   3.670   5.501   1.158 -0.3633  0.0684 -0.2233
 8368TIP3    H146595   3.605   5.435   1.182  0.3500 -0.1397  1.2198
 8368TIP3    H246596   3.699   5.475   1.071 -0.2594 -1.4174  0.2186
 8369TIP3   OH246597   0.388   3.135  15.925 -0.6418  0.0236 -0.2026
 8369TIP3    H146598   0.338   3.212  15.898 -1.3449 -0.8684 -1.5318
 8369TIP3    H246599   0.372   3.071  15.857  1.0342 -0.8533  0.1730
 8370TIP3   OH246600   0.961   0.386  14.587  0.0222 -0.1440  0.2324
 8370TIP3    H146601   1.003   0.459  14.541 -1.2202  0.3406 -0.1480
 8370TIP3    H246602   0.926   0.331  14.518  1.2750 -1.3450  0.5010
 8371TIP3   OH246603   0.457   0.911  13.893 -0.0018 -0.7009  0.8105
 8371TIP3    H146604   0.451   0.840  13.829 -0.7753 -0.2008  0.3054
 8371TIP3    H246605   0.473   0.867  13.976  0.5035 -1.3954  0.3542
 8372TIP3   OH246606   1.761   5.377  17.501 -0.0958  0.2867  0.4768
 8372TIP3    H146607   1.717   5.461  17.490 -1.8192 -0.8461 -2.2285
 8372TIP3    H246608   1.825   5.374  17.430  0.2942 -0.4993  0.8458
 8373TIP3   OH246609   4.063   4.619   5.739  0.2953  0.0832  0.1868
 8373TIP3    H146610   4.075   4.562   5.815 -0.0753  0.0204  0.2006
 8373TIP3    H246611   4.151   4.630   5.702  0.3496 -0.6356  0.0862
 8374TIP3   OH246612   4.982   5.681   1.449 -0.5560 -0.1219 -0.2299
 8374TIP3    H146613   5.062   5.638   1.419  0.7368  1.1544  1.1550
 8374TIP3    H246614   4.965   5.749   1.384  0.7806  1.0043  0.5369
 8375TIP3   OH246615   3.285   5.638   3.217  0.5624 -0.9647  0.4534
 8375TIP3    H146616   3.340   5.696   3.270  0.9764 -1.2072  0.2973
 8375TIP3    H246617   3.256   5.569   3.278  1.6571 -1.6671  0.2095
 8376TIP3   OH246618   0.596   5.644  15.982  0.0961  0.2723  0.3547
 8376TIP3    H146619   0.626   5.564  16.027  1.2943  0.3379 -0.2686
 8376TIP3    H246620   0.546   5.691  16.048 -2.3477 -1.8728  0.2036
 8377TIP3   OH246621   5.491   5.491  11.602  0.9901  0.2453  0.3633
 8377TIP3    H146622   5.477   5.485  11.696 -0.0080  1.8471  0.3623
 8377TIP3    H246623   5.515   5.583  11.587 -0.5533  0.4645 -1.0971
 8378TIP3   OH246624   5.732   2.133  15.066  0.2629 -0.0313 -0.1124
 8378TIP3    H146625   5.684   2.103  14.988  0.5032 -0.0100 -0.2680
 8378TIP3    H246626   5.772   2.215  15.039  0.9131 -0.3686 -0.1787
 8379TIP3   OH246627   3.372   5.610  11.659  0.1078 -0.4408 -0.6070
 8379TIP3    H146628   3.373   5.671  11.732  0.7037 -1.1574  0.0110
 8379TIP3    H246629   3.286   5.568  11.663 -0.0216 -0.1705 -0.5781
 8380TIP3   OH246630   5.343   4.464  13.173 -0.1756 -0.6118  0.6454
 8380TIP3    H146631   5.294   4.480  13.254  0.8030 -0.8856  1.3173
 8380TIP3    H246632   5.339   4.369  13.161 -0.5951 -0.5386  0.1861
 8381TIP3   OH246633   3.391   6.122  14.408 -0.0736 -0.1923  0.0976
 8381TIP3    H146634   3.429   6.069  14.479 -0.8812  0.5838  1.1424
 8381TIP3    H246635   3.433   6.208  14.418 -0.3629 -0.0126 -0.2181
 8382TIP3   OH246636   4.723   3.786   2.518  0.0418  0.2552 -0.0952
 8382TIP3    H146637   4.810   3.824   2.515  0.1080  0.1350  0.2412
 8382TIP3    H246638   4.665   3.860   2.536  0.2724  0.0650  1.5841
 8383TIP3   OH246639   6.638   6.264  14.709  0.1282 -0.6790 -0.4171
 8383TIP3    H146640   6.664   6.323  14.780 -0.2724 -0.9026 -0.0813
 8383TIP3    H246641   6.695   6.189  14.718 -1.2774 -1.6380  0.9660
 8384TIP3   OH246642   0.483   3.703   5.569  0.0510  0.2329  0.4881
 8384TIP3    H146643   0.475   3.673   5.660 -0.0115 -0.3270  0.3029
 8384TIP3    H246644   0.517   3.792   5.577  2.1112 -0.5186  1.0258
 8385TIP3   OH246645   1.272   5.015   5.026  0.3541 -0.1014 -0.4758
 8385TIP3    H146646   1.219   4.956   5.080  2.6559 -1.2865  0.6204
 8385TIP3    H246647   1.358   5.016   5.069  1.6189  0.7606 -2.8585
 8386TIP3   OH246648   1.731   0.557   3.798 -0.1777 -0.9565  0.0046
 8386TIP3    H146649   1.807   0.591   3.752  2.1544  0.6830  4.4406
 8386TIP3    H246650   1.673   0.633   3.808  0.0509 -0.8864  0.9187
 8387TIP3   OH246651   0.896   2.347  14.956  0.0280 -0.3934  0.3095
 8387TIP3    H146652   0.990   2.331  14.949 -0.1028 -0.6468 -1.0162
 8387TIP3    H246653   0.856   2.261  14.946 -0.3736 -0.2198  0.3894
 8388TIP3   OH246654   6.568   1.309   5.857  0.1787  0.0689  0.5046
 8388TIP3    H146655   6.538   1.396   5.884 -0.7375  0.1493 -0.6533
 8388TIP3    H246656   6.598   1.322   5.767 -0.7042 -0.9485  0.0453
 8389TIP3   OH246657   0.614   1.710  16.291 -0.1061 -0.7809  0.0438
 8389TIP3    H146658   0.653   1.798  16.291 -2.9678  0.6100  0.2258
 8389TIP3    H246659   0.629   1.677  16.380 -1.7094  0.8929  0.9888
 8390TIP3   OH246660   5.247   4.540  12.280  0.1525 -0.4480  0.5014
 8390TIP3    H146661   5.264   4.462  12.331 -1.0092 -0.7752  0.4182
 8390TIP3    H246662   5.330   4.588  12.280  0.7830 -1.5193  0.8130
 8391TIP3   OH246663   6.547   3.554  14.866  0.1051  0.3084  0.2902
 8391TIP3    H146664   6.529   3.583  14.955  1.3068 -0.5821  0.8519
 8391TIP3    H246665   6.511   3.465  14.862  1.3692 -0.2284  0.3878
 8392TIP3   OH246666   0.498   1.692   4.585  0.0396  0.4008 -0.5135
 8392TIP3    H146667   0.497   1.622   4.519 -1.3608 -0.6020  0.5124
 8392TIP3    H246668   0.574   1.746   4.562 -0.5430  0.2395 -3.0955
 8393TIP3   OH246669   0.446   3.207   5.801  0.1345 -0.6917 -0.1998
 8393TIP3    H146670   0.495   3.200   5.883  0.4545  0.4797 -0.2744
 8393TIP3    H246671   0.481   3.137   5.747  0.6379 -0.8429  0.3103
 8394TIP3   OH246672   1.954   0.413  16.175  0.3003  0.0628  0.3557
 8394TIP3    H146673   1.919   0.340  16.226  1.1786 -0.1834  0.6174
 8394TIP3    H246674   1.968   0.483  16.239  0.5951  0.0468  0.3085
 8395TIP3   OH246675   2.122   1.774   3.260 -0.3442  0.1135 -0.2287
 8395TIP3    H146676   2.049   1.798   3.203 -0.8511  0.0543  0.3944
 8395TIP3    H246677   2.119   1.679   3.265 -1.1288  0.1910  0.9773
 8396TIP3   OH246678   5.003   5.231   2.033 -0.5006  0.3896  0.3598
 8396TIP3    H146679   5.027   5.141   2.012 -4.8964 -0.5905 -1.6235
 8396TIP3    H246680   5.056   5.285   1.975 -0.4903 -1.2596 -1.2512
 8397TIP3   OH246681   2.009   5.526  11.495  0.0612 -0.4906  0.1929
 8397TIP3    H146682   1.983   5.445  11.451 -1.9789  0.5777 -0.7438
 8397TIP3    H246683   1.948   5.533  11.569  0.3931  0.0735  0.4183
 8398TIP3   OH246684   0.494   5.864   0.024  0.4275  0.2218  0.3113
 8398TIP3    H146685   0.500   5.810   0.103 -0.2055 -0.7838 -0.3052
 8398TIP3    H246686   0.568   5.835  -0.030 -0.5602 -0.8673 -0.5025
 8399TIP3   OH246687   4.019   5.567  11.900  0.1042  0.6220 -0.3128
 8399TIP3    H146688   4.066   5.502  11.953 -0.5128  0.8357  0.5137
 8399TIP3    H246689   3.993   5.519  11.821  1.5819  0.4674 -0.7345
 8400TIP3   OH246690   0.374   3.322   2.133 -0.0803  0.5981  0.2782
 8400TIP3    H146691   0.374   3.258   2.205 -0.5948 -1.5795 -1.5477
 8400TIP3    H246692   0.459   3.366   2.141  0.5485 -0.7112  1.2895
 8401TIP3   OH246693   0.898   3.021  11.801  0.3889 -0.2103  0.8539
 8401TIP3    H146694   0.845   3.029  11.722 -1.5263  1.8405  2.2268
 8401TIP3    H246695   0.924   2.929  11.803 -1.3668 -0.8152 -0.9882
 8402TIP3   OH246696   1.244   0.144  11.317  0.0583  0.0954 -0.4679
 8402TIP3    H146697   1.331   0.109  11.300 -0.3346 -0.6067 -1.0800
 8402TIP3    H246698   1.230   0.129  11.410 -0.5050 -2.3640 -0.8840
 8403TIP3   OH246699   6.282   5.012   1.933 -0.0437  0.3400 -0.0750
 8403TIP3    H146700   6.318   5.006   2.022  1.1419 -0.4650 -0.5750
 8403TIP3    H246701   6.264   4.921   1.909  0.5378  0.4560 -0.9845
 8404TIP3   OH246702   0.511   6.707  17.411 -0.2574  0.9995  0.8219
 8404TIP3    H146703   0.471   6.702  17.498 -0.1748 -0.3706  0.8017
 8404TIP3    H246704   0.437   6.698  17.350 -0.0883 -0.4327  0.7840
 8405TIP3   OH246705   0.534   1.375  15.335  0.8802  0.2947  0.2434
 8405TIP3    H146706   0.491   1.402  15.416  0.5857  1.9945 -0.4367
 8405TIP3    H246707   0.625   1.359  15.360  0.5859 -0.1366  1.0774
 8406TIP3   OH246708   1.670   1.052  17.279 -0.1560 -0.2342 -0.5464
 8406TIP3    H146709   1.664   1.091  17.366  0.1711  0.3724 -0.7946
 8406TIP3    H246710   1.647   0.960  17.293 -0.1547 -0.1323  0.1710
 8407TIP3   OH246711   2.043   0.445   5.243 -0.4809  0.2489 -0.2472
 8407TIP3    H146712   2.118   0.403   5.285 -1.8614 -1.6451  0.4706
 8407TIP3    H246713   2.073   0.463   5.154  0.0686 -2.8816 -0.8084
 8408TIP3   OH246714   0.246   4.260   3.941  0.1595  0.0960  0.1878
 8408TIP3    H146715   0.263   4.175   3.902 -1.0362 -0.1066  0.0534
 8408TIP3    H246716   0.330   4.305   3.940  0.7134 -0.9246 -0.1208
 8409TIP3   OH246717   5.357   0.643   3.908 -0.2715  0.3558  0.0544
 8409TIP3    H146718   5.442   0.624   3.870  1.2366  1.7543  2.5007
 8409TIP3    H246719   5.294   0.618   3.840  2.0229 -1.1327 -1.6567
 8410TIP3   OH246720   2.733   5.458   2.721  0.4833  0.4286  0.0064
 8410TIP3    H146721   2.695   5.518   2.784  0.4281  1.4214 -0.9442
 8410TIP3    H246722   2.667   5.390   2.710  0.6150  0.0824  1.2071
 8411TIP3   OH246723   0.605   0.883   5.617  0.0196  0.4918  0.5884
 8411TIP3    H146724   0.619   0.946   5.546  2.2849  0.1030  0.6200
 8411TIP3    H246725   0.614   0.797   5.575 -0.0739  0.2376  1.0780
 8412TIP3   OH246726   6.606   5.307  16.830  0.3258 -0.4190 -0.3747
 8412TIP3    H146727   6.622   5.253  16.753 -0.1812 -0.1759 -0.6536
 8412TIP3    H246728   6.523   5.275  16.866  0.7154 -0.7485  0.2649
 8413TIP3   OH246729   0.359   4.378  14.039  0.0672  0.5088 -0.3163
 8413TIP3    H146730   0.282   4.325  14.019 -0.8023  0.0207  3.4280
 8413TIP3    H246731   0.423   4.315  14.073 -0.1013  1.4332  1.9414
 8414TIP3   OH246732   1.016   3.291   3.809  0.0422  0.1991 -0.3935
 8414TIP3    H146733   1.063   3.242   3.741  1.4264  0.1501  0.5536
 8414TIP3    H246734   1.052   3.379   3.805  1.5157 -0.2473  1.4418
 8415TIP3   OH246735   3.208   0.503  15.606 -0.4152 -0.0160  0.4836
 8415TIP3    H146736   3.237   0.498  15.515  0.4948  0.0594  0.7605
 8415TIP3    H246737   3.264   0.441  15.653 -0.7615  0.0715  1.0240
 8416TIP3   OH246738   4.330   6.676  16.136 -0.1730  0.4019  0.1358
 8416TIP3    H146739   4.244   6.657  16.098 -0.2690  0.6515  0.2297
 8416TIP3    H246740   4.373   6.732  16.071  0.6576 -1.2365 -0.8167
 8417TIP3   OH246741   4.293   6.481   6.122  0.1919  0.1457  0.1824
 8417TIP3    H146742   4.370   6.520   6.082 -0.7131  1.9293  0.0755
 8417TIP3    H246743   4.299   6.505   6.215  0.0777 -0.2426  0.2922
 8418TIP3   OH246744   6.731   3.101  16.431  0.2865 -0.0655  0.2372
 8418TIP3    H146745   6.801   3.118  16.495  1.3601 -1.3012 -0.5567
 8418TIP3    H246746   6.760   3.147  16.352 -0.8913  1.2107  0.5197
 8419TIP3   OH246747   3.635   4.794  16.518  0.1753  0.1077 -0.2312
 8419TIP3    H146748   3.728   4.782  16.536  0.1354 -0.7579 -0.5523
 8419TIP3    H246749   3.593   4.781  16.602  0.2484 -0.8394 -0.3228
 8420TIP3   OH246750   1.671   6.575  11.677  0.2891 -0.9550 -0.7557
 8420TIP3    H146751   1.580   6.596  11.656  0.6489  0.6591 -0.7872
 8420TIP3    H246752   1.684   6.609  11.765  1.0418 -0.5657 -1.0070
 8421TIP3   OH246753   3.588   5.946  14.515 -0.5527 -0.1572  0.4184
 8421TIP3    H146754   3.684   5.952  14.519 -0.4725  1.4087 -1.7619
 8421TIP3    H246755   3.567   5.869  14.568  1.9010 -0.5244  1.0135
 8422TIP3   OH246756   0.575   0.201   4.850 -0.3640 -0.3109  0.4330
 8422TIP3    H146757   0.659   0.199   4.804  0.7072 -1.3972  2.3181
 8422TIP3    H246758   0.517   0.149   4.795  0.2698  0.1120 -0.6986
 8423TIP3   OH246759   5.342   5.296   0.378 -0.5579  0.0977 -0.4445
 8423TIP3    H146760   5.434   5.321   0.384 -0.4512 -0.3346 -0.2148
 8423TIP3    H246761   5.336   5.251   0.293 -0.0874 -1.7088  0.4326
 8424TIP3   OH246762   3.151   6.496  11.638 -0.3902 -0.2353  0.2783
 8424TIP3    H146763   3.225   6.543  11.598 -0.0094 -0.9922  0.0758
 8424TIP3    H246764   3.117   6.441  11.568 -0.9304 -0.1530  0.4736
 8425TIP3   OH246765   6.283   2.578  13.648 -0.3512  0.7810  0.5084
 8425TIP3    H146766   6.270   2.617  13.562  0.6635 -0.0789 -0.0616
 8425TIP3    H246767   6.203   2.527  13.663  0.7579 -1.7275 -1.4361
 8426TIP3   OH246768   2.556   6.745  11.715  0.3090 -0.1102 -0.1435
 8426TIP3    H146769   2.561   6.819  11.775 -1.4353  1.9274 -2.3120
 8426TIP3    H246770   2.481   6.694  11.745 -0.5037  0.8534 -0.4800
 8427TIP3   OH246771   5.343   5.820   6.054 -0.1218 -0.0158 -0.4073
 8427TIP3    H146772   5.411   5.780   6.000  0.3991 -1.6238  1.3652
 8427TIP3    H246773   5.382   5.902   6.085  0.6817 -0.4839 -0.1501
 8428TIP3   OH246774   1.966   5.642  13.486 -0.1119 -0.1822  0.3151
 8428TIP3    H146775   1.958   5.586  13.408  1.0796 -1.4054  1.0252
 8428TIP3    H246776   1.889   5.699  13.482 -0.8494 -1.1905 -0.9808
 8429TIP3   OH246777   0.566   5.117   0.418  0.2473  0.1359  0.3375
 8429TIP3    H146778   0.531   5.182   0.357 -2.2437 -1.0745  0.3650
 8429TIP3    H246779   0.552   5.156   0.505 -0.8850 -0.2466  0.3364
 8430TIP3   OH246780   3.726   6.130  13.792 -0.0653  0.1963 -0.5735
 8430TIP3    H146781   3.633   6.150  13.782 -0.7335 -0.0430  3.3242
 8430TIP3    H246782   3.761   6.203  13.844  0.4964 -2.1466  2.6993
 8431TIP3   OH246783   5.371   4.277   3.421 -0.4896 -0.4097  0.3578
 8431TIP3    H146784   5.313   4.354   3.423 -0.4574 -0.3940  1.2264
 8431TIP3    H246785   5.416   4.283   3.337 -2.0057 -0.6106 -0.5101
 8432TIP3   OH246786   5.337   6.235   5.526 -0.5930  0.4841  0.5055
 8432TIP3    H146787   5.353   6.240   5.431 -1.6337  0.0916  0.2944
 8432TIP3    H246788   5.386   6.309   5.562  0.7840 -0.0539 -0.2018
 8433TIP3   OH246789   2.563   5.055  17.242  0.0530 -0.2302  0.1529
 8433TIP3    H146790   2.473   5.035  17.266  0.3017 -0.8083  0.6323
 8433TIP3    H246791   2.616   4.993  17.293  0.9809  2.7282  3.1259
 8434TIP3   OH246792   5.954   3.386  12.057 -0.8775 -0.0512  0.2737
 8434TIP3    H146793   5.986   3.297  12.068 -1.5392 -0.3045  0.2226
 8434TIP3    H246794   5.976   3.429  12.139 -0.3825 -0.2071  0.2239
 8435TIP3   OH246795   3.873   2.954   6.330 -0.6495 -0.0490 -0.3564
 8435TIP3    H146796   3.859   2.887   6.397 -0.2549  0.1065 -0.1141
 8435TIP3    H246797   3.963   2.984   6.344 -1.1543  1.2715  0.2159
 8436TIP3   OH246798   2.830   3.242  12.590  0.2412  0.7203 -0.5767
 8436TIP3    H146799   2.860   3.259  12.680 -2.1115  2.6422 -0.0504
 8436TIP3    H246800   2.845   3.324  12.544  0.9539 -0.0918 -1.8524
 8437TIP3   OH246801   3.836   1.824  15.503  0.2129  0.2479 -0.0614
 8437TIP3    H146802   3.834   1.756  15.570  0.4559 -0.2495 -0.5467
 8437TIP3    H246803   3.785   1.897  15.540 -1.8387 -0.9624 -0.3642
 8438TIP3   OH246804   6.161   6.167  14.659  0.4764  0.0990  0.0948
 8438TIP3    H146805   6.241   6.126  14.691  0.0090  0.9009  2.4473
 8438TIP3    H246806   6.095   6.147  14.726 -0.6208  1.7353 -0.4349
 8439TIP3   OH246807   2.430   5.281  11.542  0.0137  0.3563 -0.2706
 8439TIP3    H146808   2.490   5.236  11.483  0.0524  0.7785 -0.5625
 8439TIP3    H246809   2.451   5.248  11.629 -0.6453 -0.9414 -0.5816
 8440TIP3   OH246810   2.791   4.753  12.036 -0.4493 -0.1904 -0.0038
 8440TIP3    H146811   2.755   4.686  11.979 -0.8324 -0.4749  0.5684
 8440TIP3    H246812   2.714   4.795  12.075 -0.1833 -0.9170  1.3611
 8441TIP3   OH246813   5.166   0.813   0.983  0.1647 -0.0089 -0.6480
 8441TIP3    H146814   5.071   0.825   0.978  0.2626  1.1121  0.0052
 8441TIP3    H246815   5.177   0.720   1.005 -0.9447  0.6828  3.6509
 8442TIP3   OH246816   1.268   6.764  14.463 -0.6589 -0.7165 -0.4891
 8442TIP3    H146817   1.328   6.803  14.399  0.9359 -1.7595  0.3159
 8442TIP3    H246818   1.187   6.751  14.415 -0.2186  0.6043 -1.6592
 8443TIP3   OH246819   6.175   3.082   3.816 -0.3192  0.3880  0.1966
 8443TIP3    H146820   6.196   3.041   3.900  0.7846 -1.8181 -1.0626
 8443TIP3    H246821   6.144   3.009   3.761 -0.5517  1.6704 -1.4577
 8444TIP3   OH246822   1.952   5.891   6.001 -0.6547  0.5314  0.2200
 8444TIP3    H146823   1.892   5.824   5.969 -0.0063 -0.2697  0.6455
 8444TIP3    H246824   1.906   5.931   6.075 -1.6204  1.5195 -0.8689
 8445TIP3   OH246825   3.742   5.147   0.916  0.4334  0.2703 -0.2176
 8445TIP3    H146826   3.769   5.060   0.887  1.6341  0.3166  0.6751
 8445TIP3    H246827   3.731   5.139   1.010 -0.6139  0.8050 -0.2837
 8446TIP3   OH246828   5.285   2.243   2.820  0.0249  0.1058 -0.1971
 8446TIP3    H146829   5.342   2.168   2.802 -0.6305 -1.3143  2.9240
 8446TIP3    H246830   5.218   2.239   2.752  0.0027 -2.2254 -0.1231
 8447TIP3   OH246831   6.432   0.099   5.687  0.1929 -0.4616  0.1337
 8447TIP3    H146832   6.385   0.056   5.759 -3.1573  1.3542 -0.7318
 8447TIP3    H246833   6.449   0.029   5.624  0.0488 -1.4709  1.1823
 8448TIP3   OH246834   0.700   1.787  11.575  0.3094 -0.2813 -0.5417
 8448TIP3    H146835   0.626   1.737  11.608  1.4503 -0.7646  1.4862
 8448TIP3    H246836   0.736   1.831  11.652 -0.6645  3.8630 -2.2184
 8449TIP3   OH246837   6.334   1.043   5.377  0.0734  0.4624  0.1664
 8449TIP3    H146838   6.347   0.992   5.456  1.3562  0.1237 -0.2473
 8449TIP3    H246839   6.266   0.996   5.328  0.7641 -0.4756  0.1027
 8450TIP3   OH246840   0.124   2.831   3.818  0.2495 -0.1144  0.0287
 8450TIP3    H146841   0.217   2.811   3.817 -0.2173 -2.7855  0.9801
 8450TIP3    H246842   0.086   2.773   3.752 -0.9701 -0.8189  1.2831
 8451TIP3   OH246843   1.338   5.715  12.345 -0.0937  0.4017  0.5109
 8451TIP3    H146844   1.347   5.660  12.268 -1.4667  0.6353  0.1472
 8451TIP3    H246845   1.425   5.752  12.359 -0.2907  2.3754 -2.4757
 8452TIP3   OH246846   4.593   5.836   5.204  0.5874 -0.3816 -1.1195
 8452TIP3    H146847   4.659   5.899   5.171 -1.1465  2.0846 -0.1680
 8452TIP3    H246848   4.520   5.845   5.143 -0.2234 -0.4285 -0.1706
 8453TIP3   OH246849   4.107   3.724  15.308 -0.0796  0.1232 -0.3418
 8453TIP3    H146850   4.138   3.789  15.372 -1.4734  1.0447 -0.5760
 8453TIP3    H246851   4.185   3.702  15.257  1.3148 -1.3155  2.1943
 8454TIP3   OH246852   2.176   4.137   2.514 -0.4383  0.0218  0.1875
 8454TIP3    H146853   2.164   4.049   2.551 -1.3064  0.0896  0.0776
 8454TIP3    H246854   2.098   4.185   2.538  0.5126  1.1300  1.1870
 8455TIP3   OH246855   0.434   4.621  14.971 -0.2126  0.9854 -0.4392
 8455TIP3    H146856   0.391   4.538  14.991  0.9046 -0.3210 -2.9617
 8455TIP3    H246857   0.461   4.656  15.056  1.0759 -2.2716  0.6469
 8456TIP3   OH246858   5.481   5.462  11.875 -0.2860 -0.1543  0.4105
 8456TIP3    H146859   5.456   5.524  11.943  1.6481  1.5637 -0.3466
 8456TIP3    H246860   5.570   5.435  11.899 -0.4110 -1.2142 -0.2732
 8457TIP3   OH246861   0.179   3.015  13.551 -0.6387 -0.3049  0.1086
 8457TIP3    H146862   0.270   3.022  13.582  0.0461 -2.7115 -1.0730
 8457TIP3    H246863   0.147   2.934  13.592 -1.9047 -0.0360 -0.3207
 8458TIP3   OH246864   4.589   4.513  16.523 -0.1745 -0.4199 -0.4569
 8458TIP3    H146865   4.569   4.442  16.462 -0.0401 -0.4057 -0.5173
 8458TIP3    H246866   4.645   4.473  16.590 -1.1225 -0.6806  0.2064
 8459TIP3   OH246867   3.034   1.018   2.941  0.3390  0.4271 -0.0584
 8459TIP3    H146868   3.062   1.106   2.914 -0.8565  0.5725 -0.9196
 8459TIP3    H246869   3.009   1.028   3.032  1.5834  0.6394  0.2783
 8460TIP3   OH246870   0.463   2.286   5.123 -0.2325  0.5402 -0.2966
 8460TIP3    H146871   0.451   2.192   5.130  0.4164  0.4691 -0.0870
 8460TIP3    H246872   0.554   2.297   5.099 -0.6800  1.0653 -1.8277
 8461TIP3   OH246873   4.386   1.000   0.580  0.0180 -0.0391  0.0166
 8461TIP3    H146874   4.396   1.041   0.666  1.7721 -0.8214  0.2300
 8461TIP3    H246875   4.294   0.972   0.577 -0.0055 -0.2389  1.7452
 8462TIP3   OH246876   3.957   5.585   1.137  0.0424  0.7211  0.1105
 8462TIP3    H146877   3.861   5.594   1.131  0.0313  0.5429 -0.0042
 8462TIP3    H246878   3.975   5.502   1.093  0.4674  1.7472 -1.7283
 8463TIP3   OH246879   1.601   0.649   4.412 -0.0858 -0.0468 -0.4737
 8463TIP3    H146880   1.515   0.678   4.381 -0.5081 -1.1398 -0.3772
 8463TIP3    H246881   1.590   0.555   4.426 -0.3236  0.4721  4.1827
 8464TIP3   OH246882   3.979   5.193  13.783  0.4381  0.1802  0.1229
 8464TIP3    H146883   3.948   5.283  13.780  1.8300  0.6609 -0.1385
 8464TIP3    H246884   3.966   5.166  13.874  0.5209  0.8280  0.3271
 8465TIP3   OH246885   5.775   3.708  12.847 -0.2732 -0.4319 -0.4666
 8465TIP3    H146886   5.703   3.771  12.842  0.7207  0.8279  0.3985
 8465TIP3    H246887   5.832   3.732  12.774  0.2129 -0.2002 -0.0088
 8466TIP3   OH246888   1.721   4.600  13.928  0.2137  0.7635 -0.1318
 8466TIP3    H146889   1.737   4.627  14.019  1.4892  0.2889 -0.1957
 8466TIP3    H246890   1.775   4.522  13.917 -0.0179  0.7571 -1.2695
 8467TIP3   OH246891   4.782   1.157  14.691 -0.2354  0.2541  0.5468
 8467TIP3    H146892   4.802   1.074  14.648 -0.5945  0.2580  0.3750
 8467TIP3    H246893   4.689   1.171  14.676  0.2294  1.8094 -1.3720
 8468TIP3   OH246894   2.662   1.741  12.635 -0.2208 -0.3694 -0.0180
 8468TIP3    H146895   2.649   1.836  12.636 -0.2027 -0.3567 -0.4372
 8468TIP3    H246896   2.728   1.727  12.567 -0.3585 -0.6941 -0.0876
 8469TIP3   OH246897   5.033   1.678   1.096  0.0543  0.2621 -0.5433
 8469TIP3    H146898   4.953   1.697   1.145 -0.2681 -0.3774 -0.8089
 8469TIP3    H246899   5.102   1.676   1.162  0.0796  2.0874 -0.4679
 8470TIP3   OH246900   3.214   1.717  12.385  0.0606  0.1821  0.0083
 8470TIP3    H146901   3.150   1.766  12.334 -0.2270 -0.4632 -0.2601
 8470TIP3    H246902   3.288   1.705  12.326  0.6604  1.3688  0.4818
 8471TIP3   OH246903   2.917   2.140  14.027  0.6868  0.2369  0.4508
 8471TIP3    H146904   2.877   2.102  14.105  1.6733  0.8712  1.3013
 8471TIP3    H246905   2.844   2.156  13.967 -0.0790 -0.3200  1.2185
 8472TIP3   OH246906   6.426   4.498   4.971 -0.1502  0.0409 -0.0476
 8472TIP3    H146907   6.486   4.555   5.019  1.0174 -0.8610 -0.3842
 8472TIP3    H246908   6.456   4.502   4.880  0.3310 -1.5095  0.0067
 8473TIP3   OH246909   2.050   2.592   3.770 -0.1372  0.6642 -0.1059
 8473TIP3    H146910   2.028   2.555   3.855 -2.2316  0.4720 -0.6837
 8473TIP3    H246911   2.132   2.549   3.746 -0.1120 -0.1340  1.3050
 8474TIP3   OH246912   5.616   1.837   4.441  0.4975 -0.2821 -0.0436
 8474TIP3    H146913   5.705   1.809   4.464  0.3929 -0.0680  0.6569
 8474TIP3    H246914   5.563   1.812   4.516  0.0877  0.2107 -0.1627
 8475TIP3   OH246915   1.156   0.617   1.859  0.2961  0.0456  0.2290
 8475TIP3    H146916   1.119   0.694   1.903 -1.0815 -0.1047 -0.5980
 8475TIP3    H246917   1.085   0.553   1.858  1.0675 -0.8419 -0.0821
 8476TIP3   OH246918   1.748   2.282  15.392  0.0378  0.2508  0.4928
 8476TIP3    H146919   1.766   2.261  15.300  0.2592 -2.6451  1.0896
 8476TIP3    H246920   1.807   2.354  15.412  3.5540 -2.0962 -0.4519
 8477TIP3   OH246921   2.865   3.367   4.632 -0.1530  0.2803 -0.1415
 8477TIP3    H146922   2.777   3.391   4.603  0.1654  1.3591 -0.2578
 8477TIP3    H246923   2.902   3.448   4.668  0.5710 -0.3022  0.4785
 8478TIP3   OH246924   3.449   2.617  14.237 -0.0198 -0.0146 -0.0923
 8478TIP3    H146925   3.513   2.673  14.192 -0.5025  2.8586  2.4538
 8478TIP3    H246926   3.365   2.661  14.224 -0.4807 -0.2758  1.7541
 8479TIP3   OH246927   3.784   0.798  14.171 -0.1512  0.0825  0.5902
 8479TIP3    H146928   3.766   0.796  14.265  1.6455 -1.1005  0.9569
 8479TIP3    H246929   3.865   0.848  14.164  0.1638 -0.5235 -0.2305
 8480TIP3   OH246930   5.085   3.819  13.917 -0.2572 -0.0015  0.1119
 8480TIP3    H146931   5.066   3.901  13.872  1.0985  0.0179 -0.4796
 8480TIP3    H246932   4.999   3.787  13.946 -0.9480  0.9766 -0.7668
 8481TIP3   OH246933   1.277   6.038   2.528  0.2614  0.6137  0.4684
 8481TIP3    H146934   1.372   6.031   2.540  0.0924 -1.1470  1.2073
 8481TIP3    H246935   1.263   6.015   2.436  0.5308  0.5751  0.4348
 8482TIP3   OH246936   4.580   0.857   0.443  0.4203  0.0743  0.2929
 8482TIP3    H146937   4.614   0.773   0.472 -0.5395 -0.5543 -0.3200
 8482TIP3    H246938   4.532   0.892   0.518 -0.7293 -0.8089  0.0022
 8483TIP3   OH246939   0.250   2.367   3.368  0.1408  0.0546  0.6526
 8483TIP3    H146940   0.327   2.385   3.314 -0.8916 -0.3415 -1.0371
 8483TIP3    H246941   0.230   2.275   3.351 -0.1086 -0.1387  1.8918
 8484TIP3   OH246942   2.978   1.135   5.189  0.1310  0.0509  0.0642
 8484TIP3    H146943   3.063   1.157   5.149  0.6487  0.1839  1.1792
 8484TIP3    H246944   2.914   1.187   5.141  0.7374  0.2573 -0.5302
 8485TIP3   OH246945   5.174   4.405   4.737 -0.6736  0.0579  0.1481
 8485TIP3    H146946   5.159   4.464   4.664  0.5791 -0.0195 -0.1916
 8485TIP3    H246947   5.094   4.352   4.743 -2.0730  2.1307  0.8263
 8486TIP3   OH246948   5.455   4.562  15.670  0.5380 -0.0064 -0.4218
 8486TIP3    H146949   5.550   4.563  15.678  0.7815  2.6451 -2.3661
 8486TIP3    H246950   5.439   4.522  15.584 -0.2353 -1.4022  0.3260
 8487TIP3   OH246951   4.708   4.025   5.409  0.0247  0.2198 -0.4972
 8487TIP3    H146952   4.684   3.938   5.442 -0.2176 -0.6169 -2.7254
 8487TIP3    H246953   4.797   4.014   5.374 -0.4362  0.5416 -1.8311
 8488TIP3   OH246954   3.393   4.788   5.060  0.0854 -0.3147  0.2720
 8488TIP3    H146955   3.356   4.701   5.048 -0.0849 -0.1856 -0.1504
 8488TIP3    H246956   3.323   4.839   5.102 -0.4482  0.0926 -1.0612
 8489TIP3   OH246957   1.971   4.611  14.845 -0.3129 -0.0866  0.0431
 8489TIP3    H146958   1.995   4.703  14.843 -0.8764  0.0659 -1.7731
 8489TIP3    H246959   2.051   4.564  14.823 -0.3511  0.0788 -0.4693
 8490TIP3   OH246960   2.072   6.069  16.310 -0.0921 -0.1792 -0.1365
 8490TIP3    H146961   2.110   6.113  16.387 -1.7239  1.6297 -0.2940
 8490TIP3    H246962   2.038   5.987  16.344 -0.2215  0.3134  0.9662
 8491TIP3   OH246963   6.661   4.614  16.699 -0.1893  0.0997 -0.5235
 8491TIP3    H146964   6.599   4.640  16.630 -0.9979 -1.4529 -0.4256
 8491TIP3    H246965   6.612   4.552  16.753  1.7174 -1.9909 -1.0219
 8492TIP3   OH246966   1.153   0.520   2.144  0.5563  0.3110 -0.2042
 8492TIP3    H146967   1.151   0.455   2.074  1.0690  0.5839 -0.4784
 8492TIP3    H246968   1.242   0.515   2.179  0.2711  0.0889  0.5206
 8493TIP3   OH246969   6.467   4.178   1.684 -0.4804 -0.1956 -0.2817
 8493TIP3    H146970   6.379   4.143   1.694 -0.6978  0.5941  0.8142
 8493TIP3    H246971   6.455   4.273   1.681  0.4861  0.0787  2.2995
 8494TIP3   OH246972   1.465   3.948  17.227 -0.4228 -0.0738  0.0077
 8494TIP3    H146973   1.458   3.970  17.134 -0.6953  1.0884  0.2915
 8494TIP3    H246974   1.527   3.876  17.230  1.1523  1.1772 -0.8921
 8495TIP3   OH246975   4.475   5.651  12.519  0.4982 -0.1259 -0.2643
 8495TIP3    H146976   4.414   5.677  12.451 -0.0716 -0.8089 -0.0253
 8495TIP3    H246977   4.420   5.626  12.593  0.9704 -2.1976 -0.5519
 8496TIP3   OH246978   5.444   2.192   1.019 -0.4249 -0.0932  0.3468
 8496TIP3    H146979   5.421   2.273   0.974  0.5450 -0.9006 -1.7475
 8496TIP3    H246980   5.497   2.144   0.956 -2.2194 -3.0426  0.8663
 8497TIP3   OH246981   2.511   2.128  14.550 -0.2294 -0.4002 -0.7168
 8497TIP3    H146982   2.570   2.064  14.590 -1.4610 -1.3296 -0.3255
 8497TIP3    H246983   2.429   2.081  14.538 -0.8936  0.8471 -1.2972
 8498TIP3   OH246984   0.043   1.883  11.147 -0.6901  0.3480 -0.4788
 8498TIP3    H146985   0.048   1.976  11.128  1.9599  0.2858 -0.3875
 8498TIP3    H246986   0.017   1.843  11.063 -0.8066  1.0568 -0.7910
 8499TIP3   OH246987   2.403   4.430   1.470  0.0355  0.1479 -0.3297
 8499TIP3    H146988   2.451   4.512   1.458 -0.6208  0.5465 -0.3098
 8499TIP3    H246989   2.421   4.379   1.391  0.5168  0.2770 -0.3030
 8500TIP3   OH246990   0.146   6.209   4.665 -0.1276  0.7837 -0.1567
 8500TIP3    H146991   0.149   6.115   4.683  1.0630  0.7611 -0.3895
 8500TIP3    H246992   0.221   6.245   4.713 -1.1057  1.7627  0.6926
 8501TIP3   OH246993   5.456   0.124   1.222 -0.4217  0.1708 -0.1853
 8501TIP3    H146994   5.390   0.099   1.158  0.1446 -1.3438 -0.2339
 8501TIP3    H246995   5.496   0.203   1.185  2.0183 -2.2677 -3.4399
 8502TIP3   OH246996   6.493   4.220  17.383  0.2622  0.5867  0.3339
 8502TIP3    H146997   6.471   4.311  17.363  0.0331  0.6310  0.7865
 8502TIP3    H246998   6.409   4.175  17.386  0.4650 -0.0569 -1.8052
 8503TIP3   OH246999   5.369   0.080  12.472  0.3214 -0.2440  0.1010
 8503TIP3    H147000   5.422   0.001  12.470  0.0971 -0.4204  0.7689
 8503TIP3    H247001   5.421   0.143  12.523  0.8311  0.2963 -1.0470
 8504TIP3   OH247002   1.388   1.159  11.337 -0.4510  0.0575  0.4033
 8504TIP3    H147003   1.381   1.116  11.422 -0.6534 -1.4143 -0.3292
 8504TIP3    H247004   1.300   1.154  11.299  0.0055 -0.8210 -0.5893
 8505TIP3   OH247005   3.894   0.303   3.518  0.0002  0.5729 -0.1808
 8505TIP3    H147006   3.807   0.332   3.546 -0.4224 -0.4213 -0.4165
 8505TIP3    H247007   3.953   0.334   3.586 -0.6335  0.6795  0.3283
 8506TIP3   OH247008   0.387   6.022  16.049 -0.2828 -0.6399  0.1028
 8506TIP3    H147009   0.466   5.987  16.007  1.4723  0.4216  2.3085
 8506TIP3    H247010   0.411   6.030  16.141 -3.4118 -1.3830  1.1036
 8507TIP3   OH247011   6.531   1.913  13.683  0.2156 -0.3087 -0.1466
 8507TIP3    H147012   6.449   1.950  13.717  0.0351  1.5803 -2.4128
 8507TIP3    H247013   6.533   1.939  13.591  3.0862 -0.8223 -0.3161
 8508TIP3   OH247014   5.037   2.200   4.068  0.2188 -0.0262 -0.3163
 8508TIP3    H147015   5.116   2.243   4.101  0.3630 -0.7499  0.3018
 8508TIP3    H247016   4.995   2.266   4.013  0.9453  0.5673 -0.1713
 8509TIP3   OH247017   3.952   1.918   2.139 -0.0398 -0.1950  0.4359
 8509TIP3    H147018   3.868   1.939   2.180  0.3948  1.1057  0.6923
 8509TIP3    H247019   3.990   2.003   2.116  0.7060 -0.8152 -0.7039
 8510TIP3   OH247020   5.416   5.263  15.602 -0.3053 -0.2125  0.3486
 8510TIP3    H147021   5.370   5.212  15.668  0.4930 -2.0965 -0.4888
 8510TIP3    H247022   5.399   5.218  15.520  2.4198 -0.5972 -0.0820
 8511TIP3   OH247023   2.547   2.570   2.066 -0.1985  0.5204 -0.3852
 8511TIP3    H147024   2.586   2.483   2.061  0.9030  0.7690  2.1723
 8511TIP3    H247025   2.607   2.620   2.121 -2.1917  2.0910  0.5110
 8512TIP3   OH247026   4.687   2.200   2.428 -0.5179  0.2039 -0.0496
 8512TIP3    H147027   4.727   2.158   2.504 -1.4463 -1.8351 -0.6113
 8512TIP3    H247028   4.713   2.292   2.435  0.9189 -0.2709  1.7222
 8513TIP3   OH247029   6.540   5.344  13.205  0.5614 -0.0885  0.4630
 8513TIP3    H147030   6.548   5.428  13.159 -0.4612  0.1058  0.6243
 8513TIP3    H247031   6.581   5.360  13.290 -0.2850  0.4929  0.7798
 8514TIP3   OH247032   5.560   4.988   4.939 -0.5820 -0.0829 -0.0793
 8514TIP3    H147033   5.561   5.040   5.019 -2.5450  0.5309 -0.4016
 8514TIP3    H247034   5.626   4.920   4.954 -0.0291  0.7478  1.5364
 8515TIP3   OH247035   1.454   4.642   5.270 -0.3843 -0.1024 -0.3924
 8515TIP3    H147036   1.523   4.576   5.282 -0.4285 -0.3582 -1.4449
 8515TIP3    H247037   1.395   4.603   5.205 -1.7079 -0.0227  0.7167
 8516TIP3   OH247038   1.753   1.660  12.958  0.3671 -0.3273  0.5314
 8516TIP3    H147039   1.842   1.628  12.972 -0.3606 -2.1718  1.2767
 8516TIP3    H247040   1.735   1.641  12.866  0.5950 -0.3314  0.4871
 8517TIP3   OH247041   0.061   2.128  11.032  0.5840 -0.0512  0.3601
 8517TIP3    H147042   0.066   2.220  11.060  1.1542 -0.1935  0.7334
 8517TIP3    H247043   0.068   2.132  10.937 -0.9008  0.4031  0.2425
 8518TIP3   OH247044   0.378   0.874  15.167  0.4461  0.4675 -0.0608
 8518TIP3    H147045   0.317   0.801  15.174  1.2778 -0.1518  1.1102
 8518TIP3    H247046   0.366   0.924  15.248  2.1018 -0.1886  0.6257
 8519TIP3   OH247047   2.030   0.844  16.302 -0.0944  0.0851  0.3406
 8519TIP3    H147048   2.056   0.861  16.211  1.0843  1.6968  0.9245
 8519TIP3    H247049   1.939   0.815  16.296  0.2021 -0.6429 -1.3991
 8520TIP3   OH247050   1.105   2.058  12.942 -0.1942 -0.3062  0.4425
 8520TIP3    H147051   1.178   2.081  12.999  0.0771  0.3021 -0.1307
 8520TIP3    H247052   1.028   2.064  12.998  0.0833  0.1181  0.7891
 8521TIP3   OH247053   4.094   4.207   3.397  0.2258  0.0303 -0.0005
 8521TIP3    H147054   4.133   4.244   3.477  1.0732 -1.6268  0.4123
 8521TIP3    H247055   4.037   4.137   3.429 -0.8856  0.5600 -0.7741
 8522TIP3   OH247056   0.007   4.871   1.439  0.3160  0.2893  0.2899
 8522TIP3    H147057  -0.073   4.825   1.464  0.4266  0.1234  0.3396
 8522TIP3    H247058  -0.002   4.959   1.475 -0.6805  0.8723 -1.2599
 8523TIP3   OH247059   1.958   4.742   0.748 -0.0159 -0.3556  0.0830
 8523TIP3    H147060   2.042   4.700   0.769  0.0924 -0.2729 -0.1749
 8523TIP3    H247061   1.953   4.737   0.652  0.8844  1.8660 -0.1431
 8524TIP3   OH247062   6.435   3.399   0.387 -0.4088 -0.5423  0.2209
 8524TIP3    H147063   6.405   3.373   0.475 -3.3441  1.7006  0.0300
 8524TIP3    H247064   6.530   3.408   0.396 -0.6444 -0.0360  3.3107
 8525TIP3   OH247065   1.258   6.162  11.707 -1.0213  0.6788  0.1294
 8525TIP3    H147066   1.333   6.180  11.651 -0.2412  0.0489  0.9553
 8525TIP3    H247067   1.205   6.242  11.701  1.2264  2.4567  1.9270
 8526TIP3   OH247068   1.757   4.791  16.778 -0.3055  0.3300  0.0202
 8526TIP3    H147069   1.852   4.783  16.763  0.7761  3.4762  3.5819
 8526TIP3    H247070   1.742   4.744  16.860 -2.0744 -0.7083 -0.8426
 8527TIP3   OH247071   4.814   3.012   3.909 -0.0199  0.2362  0.5393
 8527TIP3    H147072   4.795   3.104   3.891  0.1577  0.7201  2.5029
 8527TIP3    H247073   4.865   3.014   3.990 -1.8358 -1.6872  1.8422
 8528TIP3   OH247074   6.594   3.280   2.790  0.4345  0.0710 -0.6713
 8528TIP3    H147075   6.617   3.371   2.773  0.7409 -0.2452 -2.0230
 8528TIP3    H247076   6.520   3.262   2.733  0.5426 -0.6033 -0.6092
 8529TIP3   OH247077   3.788   6.000   1.701 -0.4209 -0.1393  0.0975
 8529TIP3    H147078   3.803   6.089   1.672 -2.1757  0.5334  1.1178
 8529TIP3    H247079   3.736   5.960   1.632 -0.5758 -0.0166  0.1422
 8530TIP3   OH247080   2.322   2.883  16.005  0.1840  0.0789 -0.3786
 8530TIP3    H147081   2.254   2.917  16.063  0.8885 -1.1850  1.2561
 8530TIP3    H247082   2.404   2.913  16.044  0.6950 -1.2066 -0.4287
 8531TIP3   OH247083   4.758   4.129   5.058 -0.4871  0.1044 -0.0139
 8531TIP3    H147084   4.842   4.136   5.102 -0.6105  1.5576  0.0333
 8531TIP3    H247085   4.763   4.047   5.009 -0.4505 -1.8239  2.9125
 8532TIP3   OH247086   2.838   1.988  15.625 -0.5187 -0.1444  0.2336
 8532TIP3    H147087   2.766   1.925  15.621 -0.0103 -0.7094 -0.2380
 8532TIP3    H247088   2.805   2.064  15.576 -0.2747 -0.9604 -1.2546
 8533TIP3   OH247089   5.796   1.185   0.126 -0.1970 -0.2863 -0.0585
 8533TIP3    H147090   5.885   1.169   0.095 -0.0355 -2.2453  1.2251
 8533TIP3    H247091   5.770   1.266   0.083  1.7020 -0.3748 -1.5104
 8534TIP3   OH247092   0.579   2.569  12.374  0.3515  0.1270 -0.6005
 8534TIP3    H147093   0.500   2.590  12.325  0.8459  0.7308 -1.1576
 8534TIP3    H247094   0.650   2.604  12.321  0.9125  0.6590  0.4756
 8535TIP3   OH247095   5.172   4.155   1.437 -0.1775  0.1160  0.7631
 8535TIP3    H147096   5.090   4.106   1.445  0.1018 -0.5474 -0.1969
 8535TIP3    H247097   5.154   4.239   1.480 -0.9434 -0.4957  1.6814
 8536TIP3   OH247098   5.448   5.789   3.940  0.4865  0.7969 -0.5208
 8536TIP3    H147099   5.467   5.848   3.867  0.1904  0.0138 -1.2525
 8536TIP3    H247100   5.530   5.784   3.989  1.3071 -0.1774 -1.9256
 8537TIP3   OH247101   5.293   4.736  10.999 -0.2223 -0.3645  0.0356
 8537TIP3    H147102   5.211   4.707  11.039  0.2430 -3.0984 -0.7970
 8537TIP3    H247103   5.267   4.803  10.936 -1.3146  1.6317  2.4161
 8538TIP3   OH247104   1.215   4.073  12.187  0.1261  0.4457 -0.0744
 8538TIP3    H147105   1.144   4.009  12.190 -1.0011  1.6931  0.6500
 8538TIP3    H247106   1.172   4.157  12.198  1.5378  1.3901 -1.4097
 8539TIP3   OH247107   3.113   6.683  12.480 -0.5328 -0.1619  0.2903
 8539TIP3    H147108   3.158   6.728  12.409  0.0440  0.4368  1.0188
 8539TIP3    H247109   3.179   6.673  12.549 -0.9413 -1.1748  0.5613
 8540TIP3   OH247110   2.096   0.476  17.447 -0.0139 -0.3335  0.3304
 8540TIP3    H147111   2.137   0.539  17.387 -0.8243  2.6435  2.6571
 8540TIP3    H247112   2.127   0.503  17.534 -1.9991 -1.9377  1.6020
 8541TIP3   OH247113   1.846   2.687  12.199  0.0653  0.0897  0.5876
 8541TIP3    H147114   1.826   2.674  12.106 -2.5163 -0.3738  1.1195
 8541TIP3    H247115   1.772   2.647  12.245  1.4065  0.0691  2.8753
 8542TIP3   OH247116   4.540   4.621  14.558 -0.0709 -0.4814  0.1310
 8542TIP3    H147117   4.530   4.549  14.620 -0.3205 -0.3365  0.2589
 8542TIP3    H247118   4.475   4.604  14.491 -0.6833  0.0538  0.5740
 8543TIP3   OH247119   6.668   3.320  17.244 -0.3115  0.4862 -0.7110
 8543TIP3    H147120   6.763   3.328  17.241 -0.3357  1.7841  0.6709
 8543TIP3    H247121   6.647   3.255  17.177  1.4461  0.9827 -1.8068
 8544TIP3   OH247122   6.317   3.026   5.421  0.3412  0.1861 -0.2906
 8544TIP3    H147123   6.288   2.975   5.345 -0.7571 -1.5679  1.2078
 8544TIP3    H247124   6.249   3.011   5.487  1.1234  1.8738  0.9638
 8545TIP3   OH247125   3.109   5.436   5.061 -0.0697 -0.1390 -0.3597
 8545TIP3    H147126   3.173   5.398   5.121  0.6817 -0.2640 -1.2179
 8545TIP3    H247127   3.039   5.371   5.056  0.2262 -0.4706 -0.2138
 8546TIP3   OH247128   2.281   5.593   0.291  0.0451 -0.3429  0.7924
 8546TIP3    H147129   2.240   5.608   0.206  0.5616 -2.2882  0.1334
 8546TIP3    H247130   2.211   5.606   0.355 -0.7990 -0.5468 -0.0690
 8547TIP3   OH247131   0.217   5.784   1.151 -0.5700 -0.1865 -0.4728
 8547TIP3    H147132   0.312   5.778   1.144 -0.5984 -1.7821 -0.0149
 8547TIP3    H247133   0.200   5.873   1.181  0.8262 -0.0905  0.0989
 8548TIP3   OH247134   5.419   3.528  16.491 -0.2624 -0.1775  0.2616
 8548TIP3    H147135   5.389   3.577  16.568 -0.3764  0.0162  0.0941
 8548TIP3    H247136   5.490   3.473  16.524  0.3295  0.5981  0.3104
 8549TIP3   OH247137   4.734   5.986  16.829  0.5720  0.7449  0.3117
 8549TIP3    H147138   4.649   5.949  16.851  1.5899 -2.1416 -0.2628
 8549TIP3    H247139   4.793   5.955  16.897  2.4588 -3.1172 -2.6573
 8550TIP3   OH247140   5.157   0.557   3.707 -0.0037  0.0810 -0.2210
 8550TIP3    H147141   5.140   0.464   3.717 -1.6482  0.1687 -1.5941
 8550TIP3    H247142   5.075   0.599   3.733 -0.2873  0.9196 -2.2723
 8551TIP3   OH247143   1.210   4.042   0.001 -0.5014  0.4415 -0.2443
 8551TIP3    H147144   1.283   4.096  -0.031  0.6665  0.1056  1.6521
 8551TIP3    H247145   1.137   4.103   0.008  0.7427  1.8288  1.6841
 8552TIP3   OH247146   3.986   0.516   0.662 -0.1381 -0.3596 -0.6694
 8552TIP3    H147147   3.927   0.448   0.693  1.1599 -1.0314  0.4318
 8552TIP3    H247148   3.972   0.590   0.721  1.4520 -1.2068  0.8698
 8553TIP3   OH247149   2.392   0.833   3.400  0.1917  0.4013 -0.5402
 8553TIP3    H147150   2.337   0.850   3.324 -0.9920  0.1529  0.2313
 8553TIP3    H247151   2.394   0.738   3.408 -1.2069  0.4266  0.7499
 8554TIP3   OH247152   6.556   2.737  13.174 -0.5254 -0.0923  0.4771
 8554TIP3    H147153   6.546   2.824  13.136 -1.3705 -0.6452 -0.6252
 8554TIP3    H247154   6.619   2.693  13.118  0.1761 -0.0956  1.2464
 8555TIP3   OH247155   5.481   0.518   4.336 -0.0595  0.7542 -0.0483
 8555TIP3    H147156   5.391   0.505   4.308 -0.0828  0.0810  0.3010
 8555TIP3    H247157   5.533   0.466   4.274  0.2948  2.6982 -1.4795
 8556TIP3   OH247158   5.466   1.449   3.126 -0.1249 -0.4409 -0.2985
 8556TIP3    H147159   5.556   1.440   3.096 -0.1726 -0.3065 -0.4877
 8556TIP3    H247160   5.417   1.473   3.047 -0.1393  0.6237  0.0191
 8557TIP3   OH247161   1.671   0.002  15.964 -0.4212  0.3127  0.0970
 8557TIP3    H147162   1.606   0.003  15.893  1.3991  1.7520 -1.6596
 8557TIP3    H247163   1.646  -0.073  16.018 -3.0280  0.3072 -0.9422
 8558TIP3   OH247164   6.200   5.355  14.472  0.4026  0.5561  0.3585
 8558TIP3    H147165   6.229   5.322  14.387 -1.3994  0.4215 -0.2537
 8558TIP3    H247166   6.135   5.290  14.502 -1.7706  2.4642  0.0404
 8559TIP3   OH247167   2.898   0.892   4.560  0.4545 -0.2796 -0.5023
 8559TIP3    H147168   2.823   0.927   4.608  0.1010  0.3322 -1.4703
 8559TIP3    H247169   2.878   0.799   4.548  0.1000 -0.2316 -0.2945
 8560TIP3   OH247170   2.059   0.592  11.740  0.4914  0.3343 -0.2624
 8560TIP3    H147171   2.037   0.575  11.831  0.3328  0.2531 -0.3156
 8560TIP3    H247172   2.114   0.518  11.714  0.2461  0.1773 -0.3360
 8561TIP3   OH247173   2.242   3.777   3.287 -0.2401  0.2425  0.3859
 8561TIP3    H147174   2.261   3.684   3.301  1.6020  0.8386  2.2388
 8561TIP3    H247175   2.328   3.816   3.267 -0.8202  1.7222  0.6895
 8562TIP3   OH247176   5.497   4.976   0.188 -0.2855 -0.0513  0.0566
 8562TIP3    H147177   5.443   5.054   0.179  0.6353  0.9524  2.3610
 8562TIP3    H247178   5.526   4.956   0.099 -0.9237  1.9690 -0.6562
 8563TIP3   OH247179   3.137   6.614   2.146 -0.4889  0.3628  0.0007
 8563TIP3    H147180   3.117   6.701   2.180 -0.2804  0.3969  0.0319
 8563TIP3    H247181   3.070   6.599   2.079  0.8174  1.4744 -1.6295
 8564TIP3   OH247182   5.535   4.925  12.391  0.0984 -0.0835  0.6407
 8564TIP3    H147183   5.447   4.920  12.428 -0.0867 -1.5807  0.0823
 8564TIP3    H247184   5.528   4.879  12.307  0.6241  2.7164 -1.0594
 8565TIP3   OH247185   4.886   2.982   5.001 -0.6129  0.5686  0.0724
 8565TIP3    H147186   4.864   2.972   4.909 -4.7874  2.4435  0.6516
 8565TIP3    H247187   4.821   2.929   5.048  2.0246 -1.2170  2.0757
 8566TIP3   OH247188   4.013   6.124  10.477  0.4667 -0.2105  0.2129
 8566TIP3    H147189   4.010   6.072  10.397  3.0324 -0.0267 -0.0942
 8566TIP3    H247190   4.012   6.060  10.548 -3.7768 -0.3382  0.2855
 8567TIP3   OH247191   4.731   2.795   1.984  0.0676  0.0920  0.4640
 8567TIP3    H147192   4.765   2.822   1.899 -0.1300  1.2960  0.7531
 8567TIP3    H247193   4.805   2.755   2.029  0.1516 -0.6275 -0.2953
 8568TIP3   OH247194   0.005   3.949   0.116 -0.1406 -0.0240  0.6587
 8568TIP3    H147195   0.028   4.000   0.038 -0.1049 -1.7410 -0.5162
 8568TIP3    H247196  -0.087   3.927   0.103  0.4031 -2.0885 -0.0009
 8569TIP3   OH247197   1.052   1.628  12.146 -0.5527  0.3727 -0.1235
 8569TIP3    H147198   1.024   1.712  12.110  0.7575  0.4986 -0.9088
 8569TIP3    H247199   0.983   1.567  12.122 -2.0655  1.3930  1.3897
 8570TIP3   OH247200   2.984   5.058  11.616  0.6298  0.1345 -0.6069
 8570TIP3    H147201   2.962   5.013  11.698  0.3597  0.0014 -0.7527
 8570TIP3    H247202   3.079   5.070  11.621  0.5740  0.4313 -0.1197
 8571TIP3   OH247203   6.441   1.089  10.758  0.3112  0.3680  0.1416
 8571TIP3    H147204   6.445   1.017  10.695  0.6009  0.2751  0.2607
 8571TIP3    H247205   6.532   1.114  10.771  0.0931  2.4073 -1.7352
 8572TIP3   OH247206   1.667   0.562  16.819  0.5140 -0.6020 -0.3189
 8572TIP3    H147207   1.712   0.503  16.758  1.4398 -0.5925  0.3368
 8572TIP3    H247208   1.636   0.634  16.764  1.5620 -0.4628 -0.7464
 8573TIP3   OH247209   0.674   6.443   4.119 -0.5314  0.0012  0.0799
 8573TIP3    H147210   0.654   6.511   4.183 -0.2674 -0.0856  0.2556
 8573TIP3    H247211   0.769   6.443   4.112 -0.3471 -1.8288  1.7186
 8574TIP3   OH247212   3.270   6.350  15.043  0.2326  0.5048  0.6460
 8574TIP3    H147213   3.177   6.372  15.047 -0.0275 -0.3300 -0.3020
 8574TIP3    H247214   3.312   6.428  15.006 -0.5014 -0.0719 -1.5676
 8575TIP3   OH247215   4.927   0.384  17.036  0.1988  0.7566  0.6296
 8575TIP3    H147216   4.876   0.306  17.013  0.1784  0.3381  1.9534
 8575TIP3    H247217   4.873   0.458  17.008  0.0890  0.3062 -0.3847
 8576TIP3   OH247218   4.067   5.213  15.806  0.1424  0.1746  0.0122
 8576TIP3    H147219   4.122   5.265  15.865  0.7044 -0.9100  0.4755
 8576TIP3    H247220   3.978   5.229  15.835  0.3967 -0.1566  1.0218
 8577TIP3   OH247221   0.081   5.515   5.823 -0.6644  0.1588  0.1572
 8577TIP3    H147222   0.145   5.540   5.890 -0.0991 -2.4986  0.7496
 8577TIP3    H247223   0.125   5.445   5.774 -1.9746  0.4304 -1.4636
 8578TIP3   OH247224   1.712   0.736  17.086  0.1318 -0.3980  0.6554
 8578TIP3    H147225   1.681   0.657  17.042  1.1128 -0.3721 -0.1300
 8578TIP3    H247226   1.749   0.790  17.016  0.1199  0.4424  1.2773
 8579TIP3   OH247227   0.359   1.364  15.584 -0.4030 -0.1867  0.3756
 8579TIP3    H147228   0.389   1.281  15.621  1.0035  0.4139  0.6206
 8579TIP3    H247229   0.327   1.414  15.659 -2.3344 -0.8887  0.1010
 8580TIP3   OH247230   0.638   1.827  12.044 -0.1679 -0.2546 -0.5667
 8580TIP3    H147231   0.722   1.833  11.998  0.1405  0.9582  0.1092
 8580TIP3    H247232   0.655   1.866  12.130 -1.5996  0.6405 -0.6671
 8581TIP3   OH247233   3.423   1.810   3.934 -0.2533  0.3191  0.3310
 8581TIP3    H147234   3.364   1.795   4.008 -2.2937 -0.7596 -1.3791
 8581TIP3    H247235   3.376   1.873   3.879 -0.3557 -1.3093 -1.5590
 8582TIP3   OH247236   4.715   5.291  15.675  0.2447 -0.5875  0.8126
 8582TIP3    H147237   4.791   5.265  15.727 -0.2594 -2.5882  0.6345
 8582TIP3    H247238   4.640   5.271  15.732 -0.2527 -1.4430 -0.1169
 8583TIP3   OH247239   6.032   0.273  11.990 -0.4296 -0.2888  0.0263
 8583TIP3    H147240   6.080   0.349  11.958 -0.6757 -0.7640 -1.5593
 8583TIP3    H247241   6.098   0.203  11.995 -0.0522  0.1592  2.1477
 8584TIP3   OH247242   6.507   0.317  12.497 -0.3770 -0.2240  0.3538
 8584TIP3    H147243   6.475   0.257  12.430 -0.5532  0.2930 -0.0329
 8584TIP3    H247244   6.568   0.265  12.549  2.5986  0.2413 -2.3424
 8585TIP3   OH247245   2.703   6.100  11.391  0.3278 -0.7425  0.2154
 8585TIP3    H147246   2.639   6.155  11.347  2.4427  1.5430 -0.1851
 8585TIP3    H247247   2.720   6.029  11.329  0.1256  0.0988 -0.8328
 8586TIP3   OH247248   1.575   5.085   6.496 -0.0875  0.1472  0.0316
 8586TIP3    H147249   1.491   5.069   6.539  0.0232  0.3658  0.3310
 8586TIP3    H247250   1.632   5.118   6.566  0.3701 -0.3945 -0.0725
 8587TIP3   OH247251   2.592   3.617   5.636 -0.7737  0.7042  0.0563
 8587TIP3    H147252   2.608   3.523   5.642 -0.6099  0.8166  2.1172
 8587TIP3    H247253   2.639   3.644   5.556  0.3887 -0.7191  0.2030
 8588TIP3   OH247254   4.160   2.876   4.830  0.0602  0.1981  0.2432
 8588TIP3    H147255   4.232   2.922   4.873 -0.6621  0.7159  0.9206
 8588TIP3    H247256   4.173   2.784   4.854 -0.2766  0.4653  1.5092
 8589TIP3   OH247257   5.794   2.506   5.913  0.0198  0.3742 -0.4075
 8589TIP3    H147258   5.750   2.591   5.910  0.1337  0.4223 -0.7431
 8589TIP3    H247259   5.805   2.482   5.821 -4.2129 -2.1529 -0.5610
 8590TIP3   OH247260   4.444   4.114  16.537  0.1663 -0.2506 -0.5613
 8590TIP3    H147261   4.536   4.135  16.526  0.7711 -1.9432  0.7515
 8590TIP3    H247262   4.436   4.023  16.509 -1.8512  0.7970 -3.8581
 8591TIP3   OH247263   0.047   6.655  14.127 -0.2508  0.1399 -0.1126
 8591TIP3    H147264  -0.014   6.692  14.063  1.1703  0.9208 -1.0742
 8591TIP3    H247265   0.014   6.566  14.143 -1.7076  0.5937 -0.4794
 8592TIP3   OH247266   0.236   5.259  17.219  0.1880  0.2223  0.8176
 8592TIP3    H147267   0.305   5.234  17.281  2.0413  2.7942 -0.0285
 8592TIP3    H247268   0.260   5.215  17.138  0.3823  0.4765  0.7362
 8593TIP3   OH247269   3.363   2.432   5.504 -0.0081 -0.3824 -0.4577
 8593TIP3    H147270   3.428   2.498   5.525 -0.5983 -0.2318  1.0808
 8593TIP3    H247271   3.376   2.363   5.570 -1.8558  0.0201  0.4280
 8594TIP3   OH247272   2.891   4.227   2.332 -0.4613  0.0363 -0.0124
 8594TIP3    H147273   2.811   4.277   2.317 -1.1555 -0.8079  0.7866
 8594TIP3    H247274   2.912   4.189   2.246  0.0793  1.6447 -0.6309
 8595TIP3   OH247275   0.874   4.980   0.635 -0.1189 -0.0428  0.4669
 8595TIP3    H147276   0.829   4.903   0.602 -1.5963  0.5504  0.9897
 8595TIP3    H247277   0.923   5.014   0.560 -0.4316 -0.8025 -0.0861
 8596TIP3   OH247278   2.880   4.892   0.921  0.0886  0.3926  0.1166
 8596TIP3    H147279   2.886   4.806   0.961 -1.2034 -0.4237 -1.3104
 8596TIP3    H247280   2.960   4.937   0.946  1.9425 -2.0620 -0.9967
 8597TIP3   OH247281   6.641   5.373  15.453 -0.4764 -0.2259  0.5343
 8597TIP3    H147282   6.600   5.395  15.536 -0.6937  1.4828  0.0165
 8597TIP3    H247283   6.720   5.427  15.451  0.2066 -1.2144  0.1855
 8598TIP3   OH247284   5.383   2.151  15.738  0.2963 -0.1215 -0.1033
 8598TIP3    H147285   5.339   2.101  15.808 -0.4493 -0.3361 -0.7125
 8598TIP3    H247286   5.450   2.091  15.705  1.1271  0.2384  0.8905
 8599TIP3   OH247287   0.269   1.501   3.702 -0.2087  0.0232  0.2258
 8599TIP3    H147288   0.325   1.540   3.636  1.1462  0.3183  1.4939
 8599TIP3    H247289   0.184   1.544   3.691 -0.4580 -0.9286 -2.1901
 8600TIP3   OH247290   5.652   3.219   0.397  0.1313  0.3437  0.2844
 8600TIP3    H147291   5.703   3.285   0.350  1.4899  1.2692  2.8314
 8600TIP3    H247292   5.585   3.269   0.443 -0.2881 -0.3425  0.4361
 8601TIP3   OH247293   6.252   3.041   2.616  0.1727  0.3407 -0.1323
 8601TIP3    H147294   6.216   3.124   2.585 -0.2047 -0.0145 -0.6628
 8601TIP3    H247295   6.223   2.977   2.552 -0.0679 -0.3065  0.6117
 8602TIP3   OH247296   1.271   2.894  14.407  0.7255  0.7985 -0.4881
 8602TIP3    H147297   1.190   2.921  14.364  1.0566  1.0100 -0.9921
 8602TIP3    H247298   1.243   2.859  14.492  0.1051  0.7998 -0.6889
 8603TIP3   OH247299   1.281   5.295   5.014 -0.3363 -0.5393 -0.2097
 8603TIP3    H147300   1.376   5.306   5.017 -0.2541 -1.1690 -0.2233
 8603TIP3    H247301   1.269   5.203   4.991 -0.9524 -0.3753 -0.5630
 8604TIP3   OH247302   4.017   6.121  14.698  0.3983 -0.9290 -0.4815
 8604TIP3    H147303   3.987   6.138  14.787  0.9583 -1.1610 -0.2382
 8604TIP3    H247304   4.086   6.055  14.708  0.9575 -0.4501 -1.0079
 8605TIP3   OH247305   2.070   1.816  12.789 -0.5994  0.1669 -0.1230
 8605TIP3    H147306   2.111   1.729  12.791  0.5290  0.6690 -0.7209
 8605TIP3    H247307   1.977   1.798  12.775  0.0304 -0.8856 -4.1769
 8606TIP3   OH247308   1.416   2.056   0.723 -0.0300  0.2628 -0.3512
 8606TIP3    H147309   1.342   2.031   0.778  0.8564  1.0145  1.2776
 8606TIP3    H247310   1.411   1.998   0.648 -2.1415  0.1567 -0.1930
 8607TIP3   OH247311   3.169   5.680  11.285 -0.3150  0.0396  0.1230
 8607TIP3    H147312   3.138   5.593  11.261 -0.8246 -0.1841  1.5173
 8607TIP3    H247313   3.263   5.668  11.302 -0.5216 -0.3889  0.9787
 8608TIP3   OH247314   6.028   0.970  16.909 -0.0362 -0.5006 -0.3034
 8608TIP3    H147315   6.007   0.899  16.848 -2.0654  0.7664 -1.1783
 8608TIP3    H247316   6.095   1.021  16.864  0.3426 -0.9958 -0.3166
 8609TIP3   OH247317   6.705   6.406  14.188  0.1152 -0.4880 -0.0669
 8609TIP3    H147318   6.695   6.315  14.159 -0.0172 -0.4589 -0.1124
 8609TIP3    H247319   6.720   6.399  14.282  2.1846 -0.6878 -0.3688
 8610TIP3   OH247320   5.131   2.665   2.752  0.2429  0.5930  0.2667
 8610TIP3    H147321   5.074   2.588   2.754  1.0832 -0.0859  3.0061
 8610TIP3    H247322   5.076   2.737   2.782  0.1431  0.4959  0.3162
 8611TIP3   OH247323   1.331   0.108  10.712 -0.7937 -0.5828  0.6121
 8611TIP3    H147324   1.392   0.105  10.786  0.4795 -0.2776 -0.3949
 8611TIP3    H247325   1.320   0.016  10.686 -0.2892 -0.5923  0.4252
 8612TIP3   OH247326   3.051   5.651   1.643  0.0834  0.4657 -0.0102
 8612TIP3    H147327   3.019   5.640   1.554  1.2399  0.7950 -0.4896
 8612TIP3    H247328   3.091   5.738   1.644  0.1788  0.4287  0.8038
 8613TIP3   OH247329   1.310   5.079  12.036  0.0814  0.3092 -0.7200
 8613TIP3    H147330   1.255   5.086  11.958 -1.6431  0.4645  0.4534
 8613TIP3    H247331   1.261   5.123  12.105  1.0064 -0.8291  0.7457
 8614TIP3   OH247332   3.786   5.437   5.210 -0.4629  0.5833  0.0757
 8614TIP3    H147333   3.863   5.401   5.164 -0.4782 -0.6165  0.9420
 8614TIP3    H247334   3.717   5.438   5.144 -0.6196 -1.5746  0.1333
 8615TIP3   OH247335   6.452   1.640   4.695  0.0887 -0.2964 -0.1216
 8615TIP3    H147336   6.495   1.714   4.654  1.1774 -1.9784 -2.1660
 8615TIP3    H247337   6.520   1.573   4.704 -0.9349 -1.2287  1.3119
 8616TIP3   OH247338   6.623   5.254  12.929  0.0843  0.0009  0.1399
 8616TIP3    H147339   6.701   5.246  12.984  0.5995 -0.8150 -0.6739
 8616TIP3    H247340   6.585   5.338  12.952  1.2818  0.4670  0.4699
 8617TIP3   OH247341   2.173   0.846  11.714 -0.1839  0.8297  0.1999
 8617TIP3    H147342   2.091   0.797  11.711 -1.5273  2.8291  1.6503
 8617TIP3    H247343   2.228   0.805  11.647 -1.2100 -2.5034  1.2171
 8618TIP3   OH247344   1.643   0.053   2.236 -0.3188  0.2380  0.3238
 8618TIP3    H147345   1.563   0.028   2.189  0.2786  0.3581 -0.7858
 8618TIP3    H247346   1.614   0.119   2.298 -0.9142  1.1163 -0.8457
 8619TIP3   OH247347   4.245   1.769   3.875 -0.2777  0.1914  0.5653
 8619TIP3    H147348   4.310   1.779   3.945 -0.1840 -3.3113  1.2097
 8619TIP3    H247349   4.297   1.761   3.795 -0.1671  0.9330  0.5594
 8620TIP3   OH247350   0.084   4.250  10.665  0.2682  0.2749 -0.2206
 8620TIP3    H147351   0.067   4.156  10.655  0.1867  0.1748  0.7811
 8620TIP3    H247352   0.128   4.275  10.584  2.1005 -1.0619  0.3063
 8621TIP3   OH247353   0.050   5.474   3.623  0.3571 -0.3348  0.0783
 8621TIP3    H147354   0.047   5.535   3.549  0.0363 -0.0201  0.3489
 8621TIP3    H247355   0.051   5.530   3.701  0.5117 -0.6669  0.3224
 8622TIP3   OH247356   4.264   6.673   3.244  0.3627 -0.2248 -0.4424
 8622TIP3    H147357   4.302   6.694   3.158  1.6037  0.7520  0.2991
 8622TIP3    H247358   4.206   6.747   3.263 -0.2760 -0.6692 -0.6284
 8623TIP3   OH247359   1.114   1.584  15.337  0.0530  0.1600  0.1490
 8623TIP3    H147360   1.047   1.606  15.402  1.1124  0.0914  1.2972
 8623TIP3    H247361   1.145   1.497  15.362 -0.4671 -0.4719 -1.2803
 8624TIP3   OH247362   0.451   3.458  16.748 -0.1148  0.0087  0.2790
 8624TIP3    H147363   0.536   3.414  16.745 -0.0205  0.2106 -0.0126
 8624TIP3    H247364   0.447   3.509  16.667 -1.7168 -2.2248 -1.1686
 8625TIP3   OH247365   5.882   2.198   5.199  0.3153 -0.0473 -0.1873
 8625TIP3    H147366   5.944   2.125   5.191 -0.8566 -1.1456  0.2942
 8625TIP3    H247367   5.904   2.257   5.127  1.6690 -0.5911 -0.2310
 8626TIP3   OH247368   6.718   5.772  15.239  0.5332 -0.0274 -0.0099
 8626TIP3    H147369   6.720   5.811  15.151 -2.3762 -0.4192 -0.3520
 8626TIP3    H247370   6.690   5.843  15.296  1.0575 -0.1300  0.3756
 8627TIP3   OH247371   4.880   2.635  15.738  0.2354 -0.0319  0.1251
 8627TIP3    H147372   4.818   2.606  15.805 -0.8791  0.6021 -0.6090
 8627TIP3    H247373   4.959   2.584  15.755 -0.6996 -1.3605  0.6549
 8628TIP3   OH247374   3.556   0.457   5.939  0.8626 -0.3616 -0.1268
 8628TIP3    H147375   3.501   0.457   5.861  0.8965  0.5755 -0.1552
 8628TIP3    H247376   3.538   0.372   5.981 -1.7339  0.4660  0.6518
 8629TIP3   OH247377   3.461   3.405  11.915  0.2545 -0.1320 -0.8506
 8629TIP3    H147378   3.373   3.368  11.919  0.4595 -0.5723  1.8165
 8629TIP3    H247379   3.453   3.484  11.862 -1.7065 -0.2756 -0.8194
 8630TIP3   OH247380   4.281   6.582   2.513  0.2489  0.7087 -0.0314
 8630TIP3    H147381   4.267   6.506   2.457 -2.2759 -0.4327  1.9348
 8630TIP3    H247382   4.271   6.657   2.454  0.9991 -0.4340 -1.6903
 8631TIP3   OH247383   0.263   3.071  15.440  0.5624 -0.0964  0.0285
 8631TIP3    H147384   0.310   3.000  15.396  0.5764  0.4534 -0.8873
 8631TIP3    H247385   0.170   3.051  15.426  0.4026 -1.8124  2.8443
 8632TIP3   OH247386   2.140   1.779   0.423 -0.3769 -0.1373 -0.5106
 8632TIP3    H147387   2.092   1.765   0.341  1.8004 -1.2931 -1.6961
 8632TIP3    H247388   2.215   1.833   0.398  0.1342 -0.2161  0.7889
 8633TIP3   OH247389   4.793   6.326  13.488 -0.6703 -0.2499  0.0360
 8633TIP3    H147390   4.865   6.376  13.450 -0.3743 -1.1100 -0.5570
 8633TIP3    H247391   4.826   6.298  13.574  0.2353 -1.7397 -0.7503
 8634TIP3   OH247392   1.563   2.926   1.458  0.5825  0.1630  0.1617
 8634TIP3    H147393   1.499   2.956   1.522 -0.5866 -0.5448 -0.6457
 8634TIP3    H247394   1.543   2.833   1.446  0.3426  0.4334 -1.7113
 8635TIP3   OH247395   5.368   6.736  11.181  0.2854  0.6539  0.7670
 8635TIP3    H147396   5.285   6.765  11.144  1.3268  3.0371  0.1148
 8635TIP3    H247397   5.424   6.813  11.179  1.8749 -0.3234  3.1594
 8636TIP3   OH247398   5.685   2.372  14.623 -0.1069  0.3407  0.0399
 8636TIP3    H147399   5.687   2.449  14.566  1.8554 -0.1437 -0.6352
 8636TIP3    H247400   5.617   2.316  14.586  1.0245  0.1068 -1.8039
 8637TIP3   OH247401   3.759   4.336  14.635  0.0988  0.1889 -0.2388
 8637TIP3    H147402   3.830   4.344  14.572 -1.6689  0.0031 -2.3509
 8637TIP3    H247403   3.799   4.294  14.711  2.1718 -0.1669 -1.4546
 8638TIP3   OH247404   6.418   4.480  16.066 -0.5784 -0.0546 -0.2021
 8638TIP3    H147405   6.327   4.509  16.063 -1.0110 -1.3402  0.0936
 8638TIP3    H247406   6.418   4.395  16.023  0.2423 -0.6849  0.9909
 8639TIP3   OH247407   6.393   5.784  12.018  0.5032 -0.1645  0.3289
 8639TIP3    H147408   6.429   5.723  11.955  1.7554  0.2507  0.6230
 8639TIP3    H247409   6.358   5.856  11.965 -1.1518 -1.1614 -0.0302
 8640TIP3   OH247410   5.497   0.279   2.137 -0.4037 -0.0749  0.2725
 8640TIP3    H147411   5.581   0.324   2.131 -0.0600 -0.7197  0.1281
 8640TIP3    H247412   5.478   0.251   2.048 -1.9086  2.0337 -0.1518
 8641TIP3   OH247413   5.817   3.886  16.261 -0.4955  0.4203 -0.2484
 8641TIP3    H147414   5.881   3.911  16.328  0.0018 -1.6467  0.1372
 8641TIP3    H247415   5.853   3.805  16.223 -3.0679 -1.1158  0.3104
 8642TIP3   OH247416   2.079   2.815  12.933  1.2504  0.6235 -0.1133
 8642TIP3    H147417   2.135   2.886  12.901  1.8319 -0.4246 -1.5568
 8642TIP3    H247418   1.995   2.857  12.953  1.8657  1.8549 -0.0399
 8643TIP3   OH247419   0.116   6.683  14.649 -0.6219  0.1583  1.5446
 8643TIP3    H147420   0.124   6.778  14.640  2.9094 -0.0113  1.5509
 8643TIP3    H247421   0.101   6.651  14.560 -1.1356  0.6721  1.4460
 8644TIP3   OH247422   0.566   5.237  15.347  0.6164 -0.9978 -0.0368
 8644TIP3    H147423   0.619   5.216  15.270 -0.0192 -0.7664 -0.5429
 8644TIP3    H247424   0.482   5.195  15.331  0.0897  0.0061 -0.0111
 8645TIP3   OH247425   3.073   1.829   3.806  0.0072 -0.9023  0.3249
 8645TIP3    H147426   2.985   1.791   3.807  1.1663 -3.9300 -0.6204
 8645TIP3    H247427   3.109   1.803   3.721  1.8298  0.2179  0.7067
 8646TIP3   OH247428   6.434   2.996  10.540 -0.5258  0.1106  0.0990
 8646TIP3    H147429   6.437   2.990  10.635 -1.5523  1.6400  0.2545
 8646TIP3    H247430   6.496   2.929  10.510  1.3261  0.9065  1.8666
 8647TIP3   OH247431   5.209   0.939   3.100 -0.0446 -0.3360 -0.0667
 8647TIP3    H147432   5.215   1.007   3.167  0.5092  0.0189 -0.4723
 8647TIP3    H247433   5.286   0.953   3.044 -1.1627  0.1826 -1.5299
 8648TIP3   OH247434   2.975   3.483  16.995  0.2262 -0.0705 -0.7480
 8648TIP3    H147435   2.993   3.570  17.029 -0.2500  0.0807 -0.8713
 8648TIP3    H247436   2.990   3.424  17.069 -0.0545  0.1788 -0.4892
 8649TIP3   OH247437   2.627   1.956   4.756  0.1833 -0.3183 -0.6853
 8649TIP3    H147438   2.668   2.000   4.681  0.6931 -2.5588 -1.8087
 8649TIP3    H247439   2.700   1.914   4.802 -0.2128  0.4781  0.7160
 8650TIP3   OH247440   4.974   5.615   5.455 -0.0321  0.0786  0.2115
 8650TIP3    H147441   4.979   5.533   5.406  1.8684 -0.8975  1.9288
 8650TIP3    H247442   4.969   5.683   5.387 -0.5558 -1.3607 -1.2562
 8651TIP3   OH247443   3.555   0.927   3.910 -0.2815  0.4146  0.8274
 8651TIP3    H147444   3.515   0.849   3.870  1.3306 -1.0712  1.9363
 8651TIP3    H247445   3.599   0.971   3.838 -2.3510  1.1334 -0.0859
 8652TIP3   OH247446   3.526   1.890  16.044  0.1185  0.8489  0.8293
 8652TIP3    H147447   3.434   1.870  16.025  0.3561 -0.3939  0.9002
 8652TIP3    H247448   3.530   1.902  16.139  0.3307 -0.9315  1.0724
 8653TIP3   OH247449   0.066   1.837  15.848  0.4655  0.3161 -0.0782
 8653TIP3    H147450   0.123   1.893  15.901  2.8591 -2.0081  0.0458
 8653TIP3    H247451   0.041   1.765  15.906 -2.0098  0.8574 -0.3936
 8654TIP3   OH247452   0.560   2.869  17.401  0.0077 -0.5645 -0.2034
 8654TIP3    H147453   0.534   2.914  17.481  0.1398 -1.0635  0.1223
 8654TIP3    H247454   0.651   2.844  17.415 -0.1655 -1.2344 -0.2422
 8655TIP3   OH247455   3.269   0.147   1.809  0.4089  0.6821 -0.2485
 8655TIP3    H147456   3.332   0.219   1.798  0.0988  1.0622  0.4234
 8655TIP3    H247457   3.323   0.070   1.827  0.7597  0.6686 -1.2586
 8656TIP3   OH247458   6.630   0.533  10.893  0.1982  0.0039 -0.5053
 8656TIP3    H147459   6.707   0.504  10.941  1.3778  1.7216 -1.2711
 8656TIP3    H247460   6.570   0.566  10.960  0.9213  0.4065 -0.0516
 8657TIP3   OH247461   4.048   3.402   1.070  0.2293  0.2903 -0.0785
 8657TIP3    H147462   4.134   3.392   1.112  0.3234  0.0377 -0.3220
 8657TIP3    H247463   4.068   3.438   0.984  0.1024  0.1205 -0.1790
 8658TIP3   OH247464   5.532   2.564  16.814  0.6112  0.8463 -0.4627
 8658TIP3    H147465   5.474   2.568  16.739  1.5461 -1.8021 -1.4399
 8658TIP3    H247466   5.474   2.556  16.889 -0.3061  0.3592 -1.2101
 8659TIP3   OH247467   5.722   2.284  14.310  0.4088 -0.0554 -0.6887
 8659TIP3    H147468   5.636   2.258  14.344 -1.1941  1.7049 -3.0405
 8659TIP3    H247469   5.777   2.207  14.321 -1.7814 -1.6261 -0.1000
 8660TIP3   OH247470   3.380   0.828   2.915  0.0153  0.3796  0.5352
 8660TIP3    H147471   3.409   0.757   2.972 -1.5251  0.4627  1.4631
 8660TIP3    H247472   3.434   0.818   2.836  1.6369 -0.2155  1.6613
 8661TIP3   OH247473   2.494   6.140   4.846  0.1069 -0.6461  0.6086
 8661TIP3    H147474   2.473   6.080   4.918  1.2407 -1.2546  0.4587
 8661TIP3    H247475   2.572   6.102   4.805  1.7273  1.6567  1.3579
 8662TIP3   OH247476   5.803   3.594   6.259  0.0569 -0.0663 -0.6186
 8662TIP3    H147477   5.715   3.563   6.282  0.0380  0.4247 -0.0060
 8662TIP3    H247478   5.796   3.690   6.265  0.8596 -0.0526  0.2837
 8663TIP3   OH247479   4.265   2.065   5.026 -0.6307 -0.0699  0.4578
 8663TIP3    H147480   4.246   2.112   5.107  0.3768 -0.6880  1.0724
 8663TIP3    H247481   4.350   2.099   4.998  0.1510 -1.5341  0.9513
 8664TIP3   OH247482   4.235   1.318  11.061  0.2764 -0.7459 -0.6186
 8664TIP3    H147483   4.217   1.393  11.004 -1.1498 -1.0931 -0.6589
 8664TIP3    H247484   4.302   1.268  11.014 -0.3256 -0.6268 -1.6285
 8665TIP3   OH247485   2.352   6.357   1.080 -0.4933 -0.0383 -0.0945
 8665TIP3    H147486   2.352   6.436   1.135 -0.4917  0.7043 -1.1384
 8665TIP3    H247487   2.301   6.294   1.129 -2.2110  1.2563 -0.1380
 8666TIP3   OH247488   5.505   5.803   1.076 -0.1077 -0.1824 -0.0658
 8666TIP3    H147489   5.493   5.740   1.005 -1.5175 -1.8540  1.5428
 8666TIP3    H247490   5.539   5.751   1.149  0.2585  1.2448  0.8226
 8667TIP3   OH247491   2.884   1.463   4.781  0.1778 -0.0378  0.6117
 8667TIP3    H147492   2.852   1.419   4.860  0.4158 -0.0958  0.6779
 8667TIP3    H247493   2.840   1.548   4.780  1.0192  0.4154  1.4071
 8668TIP3   OH247494   6.709   0.577  15.804  0.1897 -0.1223 -0.4790
 8668TIP3    H147495   6.686   0.668  15.785  0.5020 -0.2412 -1.4820
 8668TIP3    H247496   6.630   0.540  15.843 -0.6652  0.0383 -1.9628
 8669TIP3   OH247497   6.657   6.708   5.080  0.0249  0.5470  0.1182
 8669TIP3    H147498   6.628   6.723   5.170 -0.5744  2.6312 -0.3609
 8669TIP3    H247499   6.713   6.784   5.060  0.2287  0.0710 -1.2388
 8670TIP3   OH247500   0.231   2.389   2.949 -0.0308  0.0364  0.4094
 8670TIP3    H147501   0.268   2.474   2.974  0.5403  0.0774 -0.5380
 8670TIP3    H247502   0.304   2.327   2.959 -0.2527 -0.2270  0.4161
 8671TIP3   OH247503   3.801   1.783  11.250  0.1295  0.6513 -0.0529
 8671TIP3    H147504   3.790   1.700  11.204 -0.8245 -0.6468  2.3163
 8671TIP3    H247505   3.896   1.793  11.260  0.3381  0.7422 -1.7786
 8672TIP3   OH247506   1.331   0.317  14.932  0.1836  0.4931 -0.0956
 8672TIP3    H147507   1.385   0.391  14.902  0.0171  0.9243  0.6465
 8672TIP3    H247508   1.368   0.293  15.017 -1.1603  1.1983  0.7200
 8673TIP3   OH247509   2.211   5.248  17.248  0.0531  0.3480  0.1216
 8673TIP3    H147510   2.267   5.321  17.272 -0.6022  0.7068  0.5996
 8673TIP3    H247511   2.262   5.170  17.270 -0.0583  0.6706  1.5912
 8674TIP3   OH247512   6.023   1.244   3.270  0.1759 -0.3558 -0.2514
 8674TIP3    H147513   6.067   1.300   3.206  2.5979 -3.1480 -1.2566
 8674TIP3    H247514   6.089   1.227   3.337 -0.9421 -0.9756  0.7439
 8675TIP3   OH247515   1.855   2.808   6.072 -0.1490 -0.3519  0.3951
 8675TIP3    H147516   1.870   2.753   5.995  0.7882  0.3010  0.0975
 8675TIP3    H247517   1.898   2.762   6.143  1.3784  0.3808 -0.0169
 8676TIP3   OH247518   4.562   0.310   1.366 -0.3852 -0.0894  0.4064
 8676TIP3    H147519   4.586   0.268   1.448  1.1423 -0.7552 -0.3313
 8676TIP3    H247520   4.595   0.251   1.298 -1.8952  0.2834 -0.7010
 8677TIP3   OH247521   4.333   4.041   5.297 -0.0122  0.1370  0.9018
 8677TIP3    H147522   4.336   4.052   5.392 -0.1864  1.1138  0.8087
 8677TIP3    H247523   4.354   4.128   5.263 -3.2759  0.7164  0.0765
 8678TIP3   OH247524   1.765   3.674   4.204 -0.2073 -0.1761 -0.1679
 8678TIP3    H147525   1.682   3.666   4.157  0.6301 -1.2175 -1.5374
 8678TIP3    H247526   1.755   3.617   4.280 -1.1634  0.6513  0.3629
 8679TIP3   OH247527   5.077   4.623   5.061 -0.1213  0.1961  0.5680
 8679TIP3    H147528   4.988   4.592   5.079 -0.9124  1.9683  0.0373
 8679TIP3    H247529   5.121   4.549   5.021 -0.8291 -1.2520  2.3595
 8680TIP3   OH247530   5.239   4.377   5.005 -1.0345 -0.2258  0.3061
 8680TIP3    H147531   5.304   4.307   5.006 -0.9359 -0.1346  0.2569
 8680TIP3    H247532   5.216   4.387   4.913 -1.3951 -0.5157  0.3637
 8681TIP3   OH247533   5.450   2.288   4.715 -0.1216  0.0645  0.0087
 8681TIP3    H147534   5.470   2.194   4.720  1.3395  0.3188 -0.6145
 8681TIP3    H247535   5.402   2.297   4.633 -1.5637 -0.3274  0.7737
 8682TIP3   OH247536   5.089   6.149  16.369 -0.0210 -0.2590  0.3652
 8682TIP3    H147537   5.099   6.161  16.275 -0.0877  0.0789  0.3990
 8682TIP3    H247538   5.014   6.203  16.393  0.1427 -0.1534  0.6511
 8683TIP3   OH247539   4.573   2.771  15.851  0.1196 -0.0209  0.4665
 8683TIP3    H147540   4.621   2.807  15.925  1.0337  1.5032 -0.7952
 8683TIP3    H247541   4.520   2.701  15.888  1.5015 -0.1497  2.3232
 8684TIP3   OH247542   5.537   3.928  11.561  0.1493  0.6374 -0.4703
 8684TIP3    H147543   5.446   3.899  11.555  0.5297 -0.7638  0.2345
 8684TIP3    H247544   5.549   3.952  11.652  0.7511 -0.1535 -0.3298
 8685TIP3   OH247545   6.406   3.341   3.868 -0.5240  0.4708  0.0085
 8685TIP3    H147546   6.421   3.408   3.936 -0.5558  2.6011 -1.9645
 8685TIP3    H247547   6.464   3.269   3.893 -1.2616  0.7146  2.8204
 8686TIP3   OH247548   3.246   1.769  16.155  1.3279 -0.0519 -0.1611
 8686TIP3    H147549   3.218   1.857  16.180 -0.3777 -0.2329 -1.3259
 8686TIP3    H247550   3.196   1.711  16.212  1.6378 -0.3149 -0.1541
 8687TIP3   OH247551   1.426   3.866  11.539  0.3536  0.0487 -0.6643
 8687TIP3    H147552   1.363   3.794  11.537  1.0033 -0.8028  2.8639
 8687TIP3    H247553   1.448   3.881  11.447 -1.1381 -3.0387 -1.6697
 8688TIP3   OH247554   0.131   0.355  11.677 -0.3108 -0.1094 -0.2200
 8688TIP3    H147555   0.191   0.294  11.721 -1.4924 -0.8073  0.4796
 8688TIP3    H247556   0.101   0.307  11.600  0.0191  0.2376 -0.5673
 8689TIP3   OH247557   1.161   4.826   3.462 -0.0334 -0.3920  0.5003
 8689TIP3    H147558   1.226   4.768   3.421  2.2179  0.4895  2.5799
 8689TIP3    H247559   1.110   4.769   3.519 -1.3141 -1.1285 -1.2847
 8690TIP3   OH247560   0.292   5.736   5.629 -0.4501 -0.3487  0.2587
 8690TIP3    H147561   0.272   5.708   5.540  0.0478  1.1146 -0.3485
 8690TIP3    H247562   0.325   5.657   5.673  0.7055 -0.7686 -1.2886
 8691TIP3   OH247563   1.405   3.997   0.594  0.2249 -0.4986 -0.5555
 8691TIP3    H147564   1.384   4.084   0.628 -0.6849 -0.0809 -2.0686
 8691TIP3    H247565   1.333   3.977   0.533  1.2748 -1.5797 -1.4920
 8692TIP3   OH247566   4.872   4.506   4.776 -0.0395  0.7453  0.0395
 8692TIP3    H147567   4.875   4.462   4.861 -0.4316 -1.3044 -0.9250
 8692TIP3    H247568   4.804   4.458   4.728 -0.1862  2.1914 -1.2609
 8693TIP3   OH247569   5.407   1.470  11.448  0.3085 -0.4784 -0.1954
 8693TIP3    H147570   5.503   1.476  11.446  0.3106  0.0386 -2.7277
 8693TIP3    H247571   5.380   1.545  11.501  1.3040 -0.5150  0.3844
 8694TIP3   OH247572   4.246   2.629  14.415  0.0363  0.0435  0.3766
 8694TIP3    H147573   4.262   2.714  14.374  1.3040  0.0884  0.9087
 8694TIP3    H247574   4.327   2.580  14.401  1.1544  0.5839  3.9983
 8695TIP3   OH247575   2.677   0.226  10.808 -0.3254 -0.3897 -0.3596
 8695TIP3    H147576   2.667   0.256  10.718  0.7331 -0.1606 -0.4203
 8695TIP3    H247577   2.665   0.131  10.803  0.6148 -0.4895 -0.9046
 8696TIP3   OH247578   3.929   0.938  12.555 -0.1363  0.5017 -0.1095
 8696TIP3    H147579   3.895   1.026  12.570 -0.4198  0.3849 -0.0673
 8696TIP3    H247580   3.859   0.879  12.585  1.0197  0.2206  2.3107
 8697TIP3   OH247581   4.468   5.350  14.598  0.0689 -0.4612  0.4647
 8697TIP3    H147582   4.493   5.283  14.534 -1.9231 -1.4503  0.6329
 8697TIP3    H247583   4.461   5.430  14.547  0.3346 -0.8468 -0.1929
 8698TIP3   OH247584   1.732   4.751   4.072 -0.6049 -0.2180  0.3372
 8698TIP3    H147585   1.667   4.807   4.030  2.0782  2.4630 -0.5832
 8698TIP3    H247586   1.741   4.787   4.161  0.9760  0.8166 -0.1899
 8699TIP3   OH247587   2.419   6.516   3.464  0.1030  1.0666 -0.3344
 8699TIP3    H147588   2.487   6.450   3.457 -0.7656  0.0812  0.3104
 8699TIP3    H247589   2.339   6.473   3.433 -0.0653  2.5449 -2.1885
 8700TIP3   OH247590   2.116   0.243   4.125  0.2434 -0.3572 -0.9974
 8700TIP3    H147591   2.046   0.303   4.097 -0.4017 -0.5272  0.2001
 8700TIP3    H247592   2.072   0.178   4.180  1.2676 -0.7598 -0.6269
 8701TIP3   OH247593   1.778   5.095  14.562 -0.0776  0.4834 -0.8046
 8701TIP3    H147594   1.691   5.112  14.525 -0.0824  2.4678  0.0322
 8701TIP3    H247595   1.788   5.000  14.555 -2.4335  0.1579 -0.6558
 8702TIP3   OH247596   3.415   4.940   1.568  0.4073 -0.5081 -0.2676
 8702TIP3    H147597   3.485   4.896   1.520  1.0255 -0.0527  0.2006
 8702TIP3    H247598   3.433   4.922   1.660 -0.1835 -0.5232 -0.1522
 8703TIP3   OH247599   6.668   1.980  13.211 -0.3695 -0.1776 -0.1336
 8703TIP3    H147600   6.722   2.058  13.200  0.1156 -0.4468  0.3177
 8703TIP3    H247601   6.661   1.942  13.124 -0.0745  0.0150 -0.2407
 8704TIP3   OH247602   4.022   0.412  12.342 -0.4196 -0.2555  0.1871
 8704TIP3    H147603   3.982   0.349  12.402 -0.7147 -1.0034 -0.7715
 8704TIP3    H247604   4.035   0.363  12.260  1.2191  0.3464  0.0438
 8705TIP3   OH247605   1.469   5.698   5.043  0.4727  0.0150 -0.3713
 8705TIP3    H147606   1.500   5.664   4.959 -1.1056  1.1262 -1.4666
 8705TIP3    H247607   1.522   5.776   5.059  1.9532 -1.1191  0.5889
 8706TIP3   OH247608   6.193   6.676   4.041  0.1211 -0.0222 -0.1343
 8706TIP3    H147609   6.138   6.657   3.964 -0.1988 -1.1056  0.3401
 8706TIP3    H247610   6.148   6.747   4.086 -2.3999 -2.5108  1.6220
 8707TIP3   OH247611   6.629   2.016  14.943 -0.6295 -0.3613 -0.7637
 8707TIP3    H147612   6.627   1.932  14.897  0.5210 -0.8125 -0.0382
 8707TIP3    H247613   6.720   2.026  14.971 -1.0163  0.5220  0.2600
 8708TIP3   OH247614   5.069   5.506   3.939 -0.2510 -0.1111  0.3254
 8708TIP3    H147615   5.083   5.440   4.007 -1.8709 -0.1601  0.6346
 8708TIP3    H247616   5.099   5.463   3.859 -0.4802 -0.9004  0.6563
 8709TIP3   OH247617   6.575   4.906   1.800 -0.0133 -0.0563  0.4662
 8709TIP3    H147618   6.485   4.918   1.831  0.1651 -0.6751  1.2206
 8709TIP3    H247619   6.564   4.878   1.709 -0.5424  1.2003  0.1117
 8710TIP3   OH247620   3.307   2.043   1.551 -0.8294  0.0719 -0.3242
 8710TIP3    H147621   3.378   1.981   1.534  0.3291  1.0255  0.7784
 8710TIP3    H247622   3.272   2.016   1.636 -1.1635  0.1504 -0.4383
 8711TIP3   OH247623   2.276   1.982  16.738  0.3030 -0.0292 -0.3472
 8711TIP3    H147624   2.224   2.028  16.804 -0.8533 -1.6383 -0.0913
 8711TIP3    H247625   2.366   1.989  16.770  0.1433  1.7236 -0.1543
 8712TIP3   OH247626   0.100   0.096   4.741 -0.4492  0.0307 -0.0509
 8712TIP3    H147627   0.106   0.081   4.646 -0.4328 -2.0448  0.2390
 8712TIP3    H247628   0.186   0.072   4.775  0.6093  3.6281  0.2459
 8713TIP3   OH247629   5.806   1.714  12.906  0.0755 -0.6573  0.1415
 8713TIP3    H147630   5.857   1.795  12.909  0.9984 -1.1996 -0.2529
 8713TIP3    H247631   5.836   1.670  12.826 -0.4506 -1.3583  0.3219
 8714TIP3   OH247632   6.192   0.985   4.490  0.8218  0.7787 -0.2082
 8714TIP3    H147633   6.286   0.970   4.501  0.7714 -0.5714 -1.3603
 8714TIP3    H247634   6.151   0.906   4.524  0.4014 -0.9393 -4.1839
 8715TIP3   OH247635   1.405   5.055  15.003  0.4876  0.0101  0.0963
 8715TIP3    H147636   1.370   4.973  15.039  1.7177 -1.6239 -2.1355
 8715TIP3    H247637   1.485   5.028  14.956  0.6537  2.4127 -1.1546
 8716TIP3   OH247638   1.908   3.944  13.848 -0.3707  0.5350  0.3225
 8716TIP3    H147639   1.945   3.857  13.857  0.0435  0.3303 -2.4668
 8716TIP3    H247640   1.890   3.973  13.938 -0.0234 -2.1719  1.3351
 8717TIP3   OH247641   5.151   1.861  15.353 -0.1200  0.1545  0.3863
 8717TIP3    H147642   5.140   1.840  15.446 -1.6853  0.8582  0.3899
 8717TIP3    H247643   5.236   1.906  15.348 -0.5786  1.2244  1.6808
 8718TIP3   OH247644   2.221   0.386   6.749  0.0583 -0.0664  0.3377
 8718TIP3    H147645   2.230   0.446   6.675 -0.6234  0.7417  0.8891
 8718TIP3    H247646   2.297   0.406   6.804 -1.1546  1.6998  1.4706
 8719TIP3   OH247647   4.942   0.894   3.074 -0.1201  0.4606  0.1958
 8719TIP3    H147648   5.037   0.897   3.077 -0.0796 -0.4892  2.6217
 8719TIP3    H247649   4.920   0.804   3.099 -1.6069  1.3861  2.6624
 8720TIP3   OH247650   2.878   1.599   3.406 -0.3890 -0.2935 -0.2042
 8720TIP3    H147651   2.909   1.517   3.368 -0.4447 -0.1297 -0.6089
 8720TIP3    H247652   2.870   1.581   3.499  0.5236 -0.4667 -0.1489
 8721TIP3   OH247653   5.977   2.119  13.476 -0.9046  0.2553 -0.0950
 8721TIP3    H147654   5.956   2.083  13.390 -2.1394 -0.2697  0.3980
 8721TIP3    H247655   6.044   2.185  13.458 -2.3689  1.4341 -1.7230
 8722TIP3   OH247656   1.893   0.614  14.977 -0.6832 -0.7278 -0.4456
 8722TIP3    H147657   1.920   0.554  14.908 -0.9105 -0.6165 -0.6301
 8722TIP3    H247658   1.911   0.566  15.058  2.9243  0.4519 -0.3876
 8723TIP3   OH247659   3.859   3.595   2.540 -0.2776 -0.5319  0.2419
 8723TIP3    H147660   3.823   3.681   2.520 -0.3036 -0.2096  1.5445
 8723TIP3    H247661   3.939   3.613   2.590  0.5184 -1.2651 -0.7151
 8724TIP3   OH247662   0.336   1.363   4.570 -0.5869  0.1990  0.3542
 8724TIP3    H147663   0.358   1.387   4.661 -1.3037  0.1770  0.5366
 8724TIP3    H247664   0.413   1.316   4.539  0.1562  1.2415  0.5546
 8725TIP3   OH247665   5.076   1.206  14.050  0.1309  0.1355 -0.1054
 8725TIP3    H147666   5.160   1.184  14.089 -0.0465 -0.7179 -0.1747
 8725TIP3    H247667   5.088   1.293  14.013  0.6384  0.4899  0.8743
 8726TIP3   OH247668   1.820   6.653   4.364  0.5595  0.4281  0.4267
 8726TIP3    H147669   1.882   6.605   4.309  0.1569  0.2230  0.1491
 8726TIP3    H247670   1.734   6.636   4.324 -0.0780 -1.7859  2.5512
 8727TIP3   OH247671   2.132   3.547  16.731  0.1538  1.0051  0.1759
 8727TIP3    H147672   2.098   3.626  16.772 -0.1140  1.7292 -1.3559
 8727TIP3    H247673   2.056   3.507  16.689  0.1942 -0.3489  1.3196
 8728TIP3   OH247674   0.367   0.351  13.635  0.1887 -0.3903 -0.3617
 8728TIP3    H147675   0.316   0.364  13.555  0.0141  2.7714  0.1413
 8728TIP3    H247676   0.302   0.346  13.705  0.4108 -1.3869 -0.2143
 8729TIP3   OH247677   1.932   4.009  11.343 -0.1801 -0.2122  0.3571
 8729TIP3    H147678   1.893   3.941  11.287 -0.1330 -0.1768  0.2812
 8729TIP3    H247679   1.974   4.069  11.282 -0.5376  0.0861  0.3981
 8730TIP3   OH247680   6.700   1.287  15.404 -0.4647 -0.1620 -0.4756
 8730TIP3    H147681   6.638   1.326  15.343 -1.8037  2.9979  2.6084
 8730TIP3    H247682   6.647   1.230  15.460 -0.5543  1.7337  1.4990
 8731TIP3   OH247683   0.823   5.958  11.920 -0.2032  0.3458 -0.4199
 8731TIP3    H147684   0.896   5.997  11.967 -0.5995 -0.6507  1.1227
 8731TIP3    H247685   0.843   5.971  11.828 -0.2433  3.9805 -0.0587
 8732TIP3   OH247686   2.773   1.780   1.005  0.0111 -0.2960 -0.0642
 8732TIP3    H147687   2.808   1.822   1.084 -1.1399  0.5555  0.0201
 8732TIP3    H247688   2.834   1.709   0.987  2.3131  1.6651 -0.4749
 8733TIP3   OH247689   3.455   3.664  14.940 -0.3038  0.3024 -0.0038
 8733TIP3    H147690   3.418   3.636  14.856 -0.4501 -0.3146  0.2646
 8733TIP3    H247691   3.532   3.609  14.952 -0.8827 -0.3473  0.7705
 8734TIP3   OH247692   0.338   5.325   6.069  0.2766  0.3010 -0.1999
 8734TIP3    H147693   0.426   5.309   6.101  0.1154 -0.9030 -0.2864
 8734TIP3    H247694   0.346   5.399   6.009  1.3541 -0.2546 -0.7514
 8735TIP3   OH247695   0.538   1.941  12.540 -0.1124 -0.0005  0.4666
 8735TIP3    H147696   0.454   1.971  12.506 -0.1600  0.9719  1.3902
 8735TIP3    H247697   0.563   1.868  12.483 -1.5565 -0.2686  0.1585
 8736TIP3   OH247698   2.893   4.565   5.000  0.3201  0.2476 -0.0155
 8736TIP3    H147699   2.881   4.524   5.086  1.0715  1.8940  0.9185
 8736TIP3    H247700   2.850   4.505   4.939 -1.3790 -0.3297  1.6517
 8737TIP3   OH247701   1.167   2.342   3.430 -0.2538  0.1880  0.3246
 8737TIP3    H147702   1.261   2.333   3.417 -0.4789 -1.5239 -0.3172
 8737TIP3    H247703   1.157   2.364   3.523  0.7197 -0.4957  0.6012
 8738TIP3   OH247704   0.798   6.096   3.883  0.0577  0.1773 -0.3878
 8738TIP3    H147705   0.798   6.182   3.841  1.4225  0.9370  1.0272
 8738TIP3    H247706   0.729   6.101   3.949 -1.9200 -0.9298 -2.2450
 8739TIP3   OH247707   0.124   0.039  17.063 -0.4363 -0.2408  0.2437
 8739TIP3    H147708   0.118  -0.002  16.977  2.6436  1.1933 -0.7720
 8739TIP3    H247709   0.049   0.099  17.066  1.5736  2.9076 -3.4054
 8740TIP3   OH247710   2.018   4.606   5.810  0.1962 -0.0367  0.3683
 8740TIP3    H147711   1.968   4.593   5.890 -1.8103  1.0854 -0.6270
 8740TIP3    H247712   1.960   4.656   5.753  1.6178 -0.6313 -1.7296
 8741TIP3   OH247713   2.179   2.641  15.942 -0.1168  0.0528 -0.0390
 8741TIP3    H147714   2.088   2.646  15.973 -0.3242 -1.1345 -0.3951
 8741TIP3    H247715   2.217   2.726  15.964 -0.6749 -0.2028  2.1223
 8742TIP3   OH247716   0.471   5.183  11.869  0.1723 -0.2416  0.2634
 8742TIP3    H147717   0.479   5.088  11.859  1.6731 -0.3018  1.7023
 8742TIP3    H247718   0.429   5.211  11.787 -0.1454 -2.1048 -0.2748
 8743TIP3   OH247719   3.077   5.375  13.953 -0.4360  0.3476  0.7571
 8743TIP3    H147720   3.022   5.331  14.018 -0.5492  0.1453  0.5231
 8743TIP3    H247721   3.027   5.371  13.872 -0.2983  0.6099  0.6560
 8744TIP3   OH247722   2.128   6.225  16.534  0.1494  0.3054 -0.1255
 8744TIP3    H147723   2.175   6.307  16.518 -0.1109  0.0153 -2.7161
 8744TIP3    H247724   2.036   6.247  16.525  0.1004 -0.3632 -1.4791
 8745TIP3   OH247725   2.666   0.495  11.624 -0.3594 -0.6892  0.2593
 8745TIP3    H147726   2.687   0.549  11.700 -0.2386  0.5113 -0.5985
 8745TIP3    H247727   2.729   0.522  11.557 -1.3306 -0.7263 -0.6984
 8746TIP3   OH247728   5.329   6.039   0.933  0.6506  0.5049 -0.1080
 8746TIP3    H147729   5.334   5.944   0.925 -0.1841  0.2017  2.0519
 8746TIP3    H247730   5.361   6.057   1.021  1.6071  2.3395 -0.7873
 8747TIP3   OH247731   0.399   3.696  16.551  0.4886  0.4736 -0.3930
 8747TIP3    H147732   0.395   3.788  16.528  1.0186  0.5718 -0.1145
 8747TIP3    H247733   0.309   3.672  16.572  0.1285  0.5938 -1.7165
 8748TIP3   OH247734   6.393   6.360   4.547  0.0657 -0.0473 -0.2378
 8748TIP3    H147735   6.338   6.301   4.496  0.1746 -0.3876  0.0338
 8748TIP3    H247736   6.331   6.417   4.593 -0.0685 -0.6123  0.2866
 8749TIP3   OH247737   0.510   2.079   3.625  0.3412  0.3661  0.5648
 8749TIP3    H147738   0.560   2.102   3.703  0.7658  2.3703 -0.2261
 8749TIP3    H247739   0.418   2.079   3.654  0.5143  0.7849  1.1324
 8750TIP3   OH247740   2.061   1.179   2.586 -0.7873  0.1234  0.3708
 8750TIP3    H147741   2.057   1.091   2.550 -0.3848  0.1973  0.1405
 8750TIP3    H247742   2.027   1.235   2.516 -1.2500  0.1252  0.5992
 8751TIP3   OH247743   6.550   1.568  13.334 -0.2134  0.1072 -0.4028
 8751TIP3    H147744   6.514   1.552  13.246  0.0316  0.8054 -0.6419
 8751TIP3    H247745   6.620   1.504  13.344  1.6625  1.8079 -1.8781
 8752TIP3   OH247746   3.180   2.566  17.003 -0.0032 -0.0645 -0.1617
 8752TIP3    H147747   3.124   2.624  16.951  0.0887  0.1626 -0.0090
 8752TIP3    H247748   3.204   2.495  16.943 -2.4709 -1.5405  0.4352
 8753TIP3   OH247749   5.791   5.478   2.690 -0.2410  0.1233  0.3417
 8753TIP3    H147750   5.783   5.400   2.634 -1.1061  0.4871 -0.0642
 8753TIP3    H247751   5.843   5.539   2.639  0.6320 -0.2604  0.7538
 8754TIP3   OH247752   1.407   6.265   6.312 -0.1234  0.0914 -0.2172
 8754TIP3    H147753   1.330   6.282   6.365  0.0841  0.6061 -0.0747
 8754TIP3    H247754   1.399   6.173   6.287 -0.2411 -0.1538  0.6764
 8755TIP3   OH247755   6.131   6.508   0.287  0.1262 -0.5417  0.5749
 8755TIP3    H147756   6.123   6.514   0.382  1.3384  1.6828  0.5882
 8755TIP3    H247757   6.048   6.542   0.254  0.4995  0.7106  0.8632
 8756TIP3   OH247758   2.381   6.728  16.521  0.3433 -0.3067 -0.4593
 8756TIP3    H147759   2.340   6.810  16.495  0.1044 -0.3417 -0.2044
 8756TIP3    H247760   2.475   6.746  16.519  0.2900 -0.0066 -0.3422
 8757TIP3   OH247761   1.595   6.643  13.250  0.3282  0.4735  0.3610
 8757TIP3    H147762   1.520   6.602  13.294 -0.4625  0.4824 -0.9365
 8757TIP3    H247763   1.565   6.733  13.233  0.2455  0.1905 -1.0479
 8758TIP3   OH247764   4.880   0.938   3.918  0.3360  0.4918  0.3749
 8758TIP3    H147765   4.912   1.025   3.896 -0.7135  0.7209 -0.2572
 8758TIP3    H247766   4.798   0.928   3.870 -0.5539 -0.1080  1.9193
 8759TIP3   OH247767   3.881   2.891   3.630  0.4843 -0.3886  0.3717
 8759TIP3    H147768   3.848   2.949   3.561  1.5664  0.0647  0.2256
 8759TIP3    H247769   3.809   2.886   3.693  0.6758  1.8759  0.8527
 8760TIP3   OH247770   2.802   0.129  15.232  0.0475  0.2422  0.2920
 8760TIP3    H147771   2.882   0.127  15.180  0.1077  2.4957  0.1923
 8760TIP3    H247772   2.732   0.107  15.170  0.5421 -1.5660  0.3418
 8761TIP3   OH247773   4.356   3.206  15.165  0.2194 -0.2440  0.2253
 8761TIP3    H147774   4.324   3.179  15.079 -1.4650 -1.0659  1.0648
 8761TIP3    H247775   4.301   3.281  15.188 -1.1248 -1.5917  1.6371
 8762TIP3   OH247776   4.266   0.442  12.417 -0.0567  0.6597 -0.0932
 8762TIP3    H147777   4.282   0.512  12.480 -0.0023  0.5320  0.0359
 8762TIP3    H247778   4.177   0.458  12.385  0.0938  1.0108 -0.3515
 8763TIP3   OH247779   3.996   4.948   0.287 -0.1702  0.5234 -0.0190
 8763TIP3    H147780   4.085   4.972   0.262  0.5170 -3.8702 -2.6098
 8763TIP3    H247781   3.943   4.968   0.210 -0.8907  0.2857  0.4052
 8764TIP3   OH247782   2.482   1.622   2.504  0.5132  0.3131 -0.6447
 8764TIP3    H147783   2.509   1.684   2.572 -0.7921  0.0234  0.1907
 8764TIP3    H247784   2.558   1.613   2.447  1.3823  1.1664  0.3449
 8765TIP3   OH247785   0.122   1.909  14.269 -0.5815 -0.0630 -0.7057
 8765TIP3    H147786   0.067   1.859  14.209 -0.4325 -1.5569  0.3554
 8765TIP3    H247787   0.184   1.846  14.305  1.1727  1.3790 -1.0739
 8766TIP3   OH247788   0.668   5.511  14.640 -0.2675 -0.4185  0.1484
 8766TIP3    H147789   0.740   5.474  14.589 -1.3805 -1.3332 -0.8210
 8766TIP3    H247790   0.645   5.442  14.702 -1.7164 -1.0177 -1.0131
 8767TIP3   OH247791   2.796   6.571   4.747  0.1457  0.4286 -0.2304
 8767TIP3    H147792   2.739   6.500   4.776  1.1260  0.0749  0.8880
 8767TIP3    H247793   2.814   6.622   4.826  0.6646  1.0556 -0.7385
 8768TIP3   OH247794   2.198   2.684  10.596  0.7873 -0.1282 -0.3482
 8768TIP3    H147795   2.207   2.590  10.608 -0.1465 -0.2746 -0.7377
 8768TIP3    H247796   2.211   2.721  10.684 -3.9355 -1.0232  0.9782
 8769TIP3   OH247797   1.402   2.375   5.420 -0.0814 -0.5829 -0.0849
 8769TIP3    H147798   1.467   2.374   5.490 -2.8424  1.1043  2.7665
 8769TIP3    H247799   1.365   2.287   5.420 -0.2527 -0.5226  0.8216
 8770TIP3   OH247800   5.103   1.532  12.562  0.4140 -0.2054 -0.5652
 8770TIP3    H147801   5.135   1.460  12.615 -1.1172 -0.4989  0.0097
 8770TIP3    H247802   5.116   1.503  12.472 -0.1419 -1.1921 -0.3404
 8771TIP3   OH247803   6.571   4.431  12.192 -0.4542 -0.1771 -0.5793
 8771TIP3    H147804   6.491   4.484  12.195 -1.8356 -1.9365 -3.1061
 8771TIP3    H247805   6.595   4.429  12.100  1.5117 -1.1820 -0.0984
 8772TIP3   OH247806   5.550   3.802   4.228 -0.4854 -0.1512  0.3196
 8772TIP3    H147807   5.609   3.760   4.290  0.1603 -1.7871 -1.3111
 8772TIP3    H247808   5.535   3.890   4.265  3.1171  0.4400  0.7377
 8773TIP3   OH247809   0.989   2.986  14.852  0.1267  0.4148 -0.0505
 8773TIP3    H147810   0.962   2.895  14.845  1.2489  0.0493  0.2689
 8773TIP3    H247811   1.018   3.009  14.764 -0.1299  0.4559 -0.1245
 8774TIP3   OH247812   2.915   3.380  13.780 -0.2373  0.4033  0.4787
 8774TIP3    H147813   2.923   3.341  13.867  0.9665  1.8896  1.0927
 8774TIP3    H247814   2.821   3.383  13.763 -0.5148  0.4865  1.9296
 8775TIP3   OH247815   5.476   4.486  16.892  0.2004 -0.1523  0.0861
 8775TIP3    H147816   5.446   4.577  16.883  1.7529  0.2578 -1.5925
 8775TIP3    H247817   5.549   4.479  16.830  2.8229 -1.3824  3.0775
 8776TIP3   OH247818   0.336   4.218  16.334 -0.4558 -0.0660  0.8273
 8776TIP3    H147819   0.268   4.170  16.286  0.6178  0.2477 -1.1075
 8776TIP3    H247820   0.330   4.308  16.301 -0.2609  0.3691  1.9540
 8777TIP3   OH247821   0.941   0.597  16.963  0.9512  0.1979 -0.1152
 8777TIP3    H147822   0.910   0.669  16.908  1.2861  1.1850  0.9623
 8777TIP3    H247823   0.987   0.639  17.035  1.9363 -1.1256  0.0768
 8778TIP3   OH247824   0.843   2.699  17.445  0.0041 -0.6344  0.2825
 8778TIP3    H147825   0.793   2.649  17.509  0.2879 -0.9669  0.2427
 8778TIP3    H247826   0.934   2.683  17.467  0.1459  1.3928  1.4998
 8779TIP3   OH247827   2.924   2.860   4.882 -0.1337 -0.0719  0.1792
 8779TIP3    H147828   2.910   2.953   4.863  0.1886  0.2382  1.3485
 8779TIP3    H247829   2.914   2.854   4.977 -2.0606 -1.5912 -0.0717
 8780TIP3   OH247830   1.315   6.024   5.194  0.0627 -0.6556 -0.0096
 8780TIP3    H147831   1.392   6.033   5.139 -0.5058 -2.9804 -1.3143
 8780TIP3    H247832   1.241   6.035   5.134 -0.5950 -1.0727  0.7000
 8781TIP3   OH247833   5.231   3.911  12.196  0.2958 -0.2602 -0.2944
 8781TIP3    H147834   5.240   3.862  12.278 -2.8332 -2.1011 -0.8893
 8781TIP3    H247835   5.180   3.989  12.219 -1.2529 -1.1621 -0.5323
 8782TIP3   OH247836   5.945   3.840   4.263 -0.1361 -0.2926  0.5925
 8782TIP3    H147837   5.979   3.764   4.311 -0.5421 -0.5645  0.4622
 8782TIP3    H247838   5.893   3.801   4.192 -1.3987  0.1097  1.2746
 8783TIP3   OH247839   4.333   5.849   1.838  0.3929  0.0080  0.3545
 8783TIP3    H147840   4.337   5.860   1.933  1.0609 -1.4001  0.5141
 8783TIP3    H247841   4.420   5.873   1.807  0.3798 -0.1730  0.1715
 8784TIP3   OH247842   5.247   6.030  12.815  0.1659  1.0494 -0.1384
 8784TIP3    H147843   5.304   6.073  12.751  2.5606  0.8051  1.6860
 8784TIP3    H247844   5.264   6.077  12.897 -1.9847  0.6637  0.5924
 8785TIP3   OH247845   6.715   2.203  15.717 -0.0874 -0.3300 -0.0277
 8785TIP3    H147846   6.808   2.224  15.729 -0.2482  0.6350 -0.3934
 8785TIP3    H247847   6.673   2.236  15.796 -0.5389  2.1352 -1.1944
 8786TIP3   OH247848   3.886   3.923  14.470  0.4537  0.1322  0.7819
 8786TIP3    H147849   3.844   4.002  14.437 -0.1678 -0.3991  0.2775
 8786TIP3    H247850   3.972   3.921  14.427 -0.5853 -0.8964 -1.4303
 8787TIP3   OH247851   1.499   6.231  13.308 -0.1978 -1.0991  0.5336
 8787TIP3    H147852   1.434   6.287  13.266 -0.3747 -1.1265  0.7714
 8787TIP3    H247853   1.581   6.280  13.302 -0.1525 -1.2445 -0.1378
 8788TIP3   OH247854   3.884   2.352  15.130 -0.6227  0.3438 -0.1028
 8788TIP3    H147855   3.964   2.397  15.158  0.1018 -1.7207  1.3921
 8788TIP3    H247856   3.821   2.422  15.116  1.7793  2.1961 -2.7955
 8789TIP3   OH247857   6.395   0.487   5.871 -0.0922  0.3469 -0.3371
 8789TIP3    H147858   6.367   0.526   5.788 -0.1840 -4.5537 -3.0029
 8789TIP3    H247859   6.331   0.418   5.888  0.7267  0.2695  3.1641
 8790TIP3   OH247860   4.713   2.601  14.663 -0.2389  0.3828 -0.3289
 8790TIP3    H147861   4.644   2.666  14.679  0.0832  0.7569 -0.4404
 8790TIP3    H247862   4.685   2.524  14.712  0.0314  1.0420  0.9280
 8791TIP3   OH247863   2.549   5.882  12.722  0.0334  0.1498  0.5425
 8791TIP3    H147864   2.477   5.873  12.660  0.1397  2.0880  0.0830
 8791TIP3    H247865   2.627   5.891  12.667  0.2552  0.8906  0.9714
 8792TIP3   OH247866   1.878   0.275  12.845  0.3472  0.1584 -0.0767
 8792TIP3    H147867   1.881   0.283  12.749  0.7381  1.9421  0.0546
 8792TIP3    H247868   1.875   0.180  12.860  1.6605 -0.2312 -1.8196
 8793TIP3   OH247869   1.293   4.348  16.360 -0.5611  0.1348  0.1017
 8793TIP3    H147870   1.380   4.343  16.398 -0.4531 -0.1544 -0.1758
 8793TIP3    H247871   1.258   4.259  16.368 -1.1524  0.4362  0.9483
 8794TIP3   OH247872   5.761   0.794  11.718 -0.5690 -0.0691 -0.7478
 8794TIP3    H147873   5.708   0.714  11.709 -0.1087 -0.7468  1.7260
 8794TIP3    H247874   5.702   0.857  11.759  0.2826 -0.6791  1.5824
 8795TIP3   OH247875   0.901   4.044   4.768 -0.4345  0.0564  0.6084
 8795TIP3    H147876   0.815   4.048   4.726 -1.1868 -2.3382  1.7611
 8795TIP3    H247877   0.883   4.017   4.858  1.5182 -0.1371  0.9905
 8796TIP3   OH247878   5.910   0.548  11.445 -0.0818 -0.3525  0.1049
 8796TIP3    H147879   5.825   0.593  11.447 -0.7335 -1.5404  0.3633
 8796TIP3    H247880   5.922   0.516  11.535  1.1444  0.6717  0.3336
 8797TIP3   OH247881   3.661   1.039   0.804  0.1652  0.2136  0.4552
 8797TIP3    H147882   3.720   0.982   0.854 -0.3210  0.5635  1.4621
 8797TIP3    H247883   3.577   0.993   0.806 -0.4987  1.4156  2.1767
 8798TIP3   OH247884   2.397   2.673   5.036 -0.2666 -0.7832 -0.1427
 8798TIP3    H147885   2.492   2.684   5.033 -0.1326 -2.0687 -1.6018
 8798TIP3    H247886   2.383   2.593   5.085 -0.9019  1.5958  4.0328
 8799TIP3   OH247887   5.084   1.742   0.545  0.1766  0.5050 -0.0904
 8799TIP3    H147888   5.077   1.836   0.562  0.4771  0.6155 -0.5773
 8799TIP3    H247889   5.051   1.702   0.625 -1.9552  1.0149 -0.6532
 8800TIP3   OH247890   0.402   5.115   0.965 -0.2885  0.1895 -0.7700
 8800TIP3    H147891   0.474   5.059   0.934  0.3447  1.1745 -1.1214
 8800TIP3    H247892   0.444   5.177   1.023 -1.0908 -0.0779  0.1144
 8801TIP3   OH247893   4.618   2.656  13.632 -0.1677  1.0411  0.1717
 8801TIP3    H147894   4.557   2.605  13.578  1.6868 -1.3309  0.1299
 8801TIP3    H247895   4.565   2.686  13.706 -1.8166  0.7913 -0.8588
 8802TIP3   OH247896   1.387   4.786   5.622 -0.1459 -0.5996  0.1466
 8802TIP3    H147897   1.414   4.861   5.674  0.2733 -0.3214 -0.4618
 8802TIP3    H247898   1.293   4.780   5.636 -0.0601 -0.4348  0.8116
 8803TIP3   OH247899   4.839   2.207  11.746 -0.4469  0.0766  0.0104
 8803TIP3    H147900   4.878   2.120  11.756 -1.6383 -0.2303  3.1780
 8803TIP3    H247901   4.910   2.262  11.713  0.6560 -1.8163 -0.9596
 8804TIP3   OH247902   2.154   1.942  13.675 -0.3332 -0.0629 -0.1958
 8804TIP3    H147903   2.166   1.867  13.733 -0.4173 -0.7048 -1.0040
 8804TIP3    H247904   2.089   1.997  13.720 -1.1176 -1.0232 -0.1399
 8805TIP3   OH247905   5.615   3.250  15.962  0.1100 -0.3320 -0.4241
 8805TIP3    H147906   5.695   3.221  16.006  0.3181  0.4383 -0.2720
 8805TIP3    H247907   5.645   3.320  15.904 -0.8040  1.9230  1.6333
 8806TIP3   OH247908   3.641   4.362  12.620 -0.1384 -0.2643 -0.2758
 8806TIP3    H147909   3.678   4.324  12.540  0.0704 -1.4234  0.3639
 8806TIP3    H247910   3.712   4.417  12.655 -0.6532  1.3017 -1.5319
 8807TIP3   OH247911   1.456   3.244  15.080 -0.1560  0.2329  0.0235
 8807TIP3    H147912   1.390   3.311  15.061 -0.4214  0.0260  0.2029
 8807TIP3    H247913   1.406   3.171  15.117  0.0660 -0.2624 -0.6331
 8808TIP3   OH247914   0.545   4.841   0.045  0.0756 -0.0011 -0.1408
 8808TIP3    H147915   0.549   4.748   0.026 -0.1354 -0.4484  1.7710
 8808TIP3    H247916   0.495   4.879  -0.027 -0.2649 -1.4364 -0.6767
 8809TIP3   OH247917   4.143   5.188   3.824 -0.5832  0.2009 -0.1445
 8809TIP3    H147918   4.225   5.172   3.870 -1.1080 -1.6903  0.2265
 8809TIP3    H247919   4.104   5.101   3.812 -2.2798  0.9861 -0.7874
 8810TIP3   OH247920   2.197   4.090  17.163  0.7781  0.5434 -0.2468
 8810TIP3    H147921   2.162   4.084  17.252  0.4699 -0.4960 -0.4313
 8810TIP3    H247922   2.192   4.001  17.129  2.8208  0.5216 -0.5864
 8811TIP3   OH247923   3.226   5.205   2.155 -0.5449  0.5310  0.3171
 8811TIP3    H147924   3.273   5.280   2.192 -0.9119  1.3515 -0.8187
 8811TIP3    H247925   3.245   5.208   2.062 -1.8912  0.1953  0.0099
 8812TIP3   OH247926   2.551   2.572   2.930 -0.1334 -0.2717  0.2207
 8812TIP3    H147927   2.567   2.633   2.858  0.7041 -1.6477 -0.8096
 8812TIP3    H247928   2.634   2.570   2.978 -1.1780  1.9035  2.2999
 8813TIP3   OH247929   3.987   5.025  16.367  0.2721 -0.4776  0.4834
 8813TIP3    H147930   3.984   4.933  16.393  0.4585 -1.5497 -2.8290
 8813TIP3    H247931   4.016   5.024  16.276  1.7112  2.9931  0.7178
 8814TIP3   OH247932   2.813   0.305   4.304  0.7096 -0.2643 -0.1655
 8814TIP3    H147933   2.805   0.400   4.313  0.9046  0.0574 -2.5698
 8814TIP3    H247934   2.751   0.269   4.367  1.3875  1.3917  1.5632
 8815TIP3   OH247935   5.470   2.747  16.406  0.3007  0.1740 -0.0014
 8815TIP3    H147936   5.449   2.653  16.414  1.7609 -0.1476  0.3505
 8815TIP3    H247937   5.535   2.750  16.335 -0.6246  1.0906 -0.8464
 8816TIP3   OH247938   2.448   5.248  14.769  0.2438 -0.2582 -0.4062
 8816TIP3    H147939   2.379   5.314  14.770 -0.2399 -0.7519  0.2919
 8816TIP3    H247940   2.402   5.165  14.783  0.8761 -0.7100 -0.9364
 8817TIP3   OH247941   5.479   3.766   0.221  0.0546  0.4989 -0.8630
 8817TIP3    H147942   5.409   3.751   0.158  0.9899 -0.3687 -1.7327
 8817TIP3    H247943   5.483   3.684   0.272 -0.9801  1.3366  0.6753
 8818TIP3   OH247944   4.106   5.747   3.614  0.2491 -0.4889 -0.0030
 8818TIP3    H147945   4.148   5.754   3.699  0.6770  1.0066 -0.3031
 8818TIP3    H247946   4.070   5.659   3.612  2.8278 -1.6466  0.5363
 8819TIP3   OH247947   1.864   1.821  16.743 -0.2708  0.0085 -0.6878
 8819TIP3    H147948   1.857   1.728  16.763 -0.5000  0.0194 -0.7180
 8819TIP3    H247949   1.899   1.860  16.823 -1.6299  0.1247 -0.1228
 8820TIP3   OH247950   6.053   3.537  15.909  0.1951  0.2182  0.9161
 8820TIP3    H147951   6.105   3.500  15.838 -0.5186  0.8441  0.0567
 8820TIP3    H247952   6.078   3.630  15.911 -2.2385  1.0005 -0.8003
 8821TIP3   OH247953   3.586   2.230  12.453  0.0821  0.0440  0.2141
 8821TIP3    H147954   3.665   2.223  12.508 -0.4351 -0.2965  0.9314
 8821TIP3    H247955   3.611   2.290  12.383  0.9906 -0.0782  0.4178
 8822TIP3   OH247956   5.695   6.289   4.385 -0.0003  0.2406  0.0808
 8822TIP3    H147957   5.642   6.225   4.433  0.6418  0.6322  1.3689
 8822TIP3    H247958   5.644   6.369   4.389  1.1590  0.9561  2.4270
 8823TIP3   OH247959   5.264   3.385  16.051  0.2963 -0.0161 -0.2678
 8823TIP3    H147960   5.323   3.438  16.105  1.3354 -1.4909  0.0913
 8823TIP3    H247961   5.192   3.362  16.110  0.3138  0.1993 -0.1591
 8824TIP3   OH247962   4.929   3.346   1.830 -0.6976 -0.1698 -0.5820
 8824TIP3    H147963   4.865   3.275   1.837 -0.8661  0.0988  0.9947
 8824TIP3    H247964   4.881   3.419   1.792 -1.4368  0.1165  0.8439
 8825TIP3   OH247965   6.353   5.580   5.393  0.6309 -0.0930  0.1713
 8825TIP3    H147966   6.360   5.614   5.482  1.8089  1.1776 -0.3635
 8825TIP3    H247967   6.303   5.500   5.402 -0.6141  0.8053  1.7713
 8826TIP3   OH247968   0.061   3.701   5.548  0.7299 -0.2031  0.3740
 8826TIP3    H147969   0.127   3.732   5.486  1.0359 -0.8518  0.3644
 8826TIP3    H247970   0.111   3.652   5.613  0.3048 -0.3243  0.6114
 8827TIP3   OH247971   3.332   3.686  13.544  0.3573 -0.4790  0.3677
 8827TIP3    H147972   3.277   3.628  13.491 -1.1080 -0.5600  1.8993
 8827TIP3    H247973   3.381   3.627  13.601  1.1888 -0.3393 -0.1803
 8828TIP3   OH247974   3.613   4.623  12.414  0.0139  0.4842 -0.4238
 8828TIP3    H147975   3.658   4.550  12.455 -0.8535 -0.3749 -0.9589
 8828TIP3    H247976   3.684   4.681  12.385  0.6670  0.7388  1.5202
 8829TIP3   OH247977   4.452   1.133  15.761  0.4581 -0.7744  0.4564
 8829TIP3    H147978   4.473   1.181  15.681  2.2973 -0.7900  0.8879
 8829TIP3    H247979   4.517   1.063  15.765 -0.4294 -1.5901  1.3029
 8830TIP3   OH247980   1.170   3.536  16.484  0.6699 -0.0732 -0.0697
 8830TIP3    H147981   1.122   3.544  16.401  1.1933 -1.2828 -0.5171
 8830TIP3    H247982   1.259   3.513  16.458  0.6200 -1.4147  0.8362
 8831TIP3   OH247983   1.341   0.036  15.148  0.0836  0.7793 -0.1518
 8831TIP3    H147984   1.393  -0.014  15.211  1.3650  0.7529 -1.1618
 8831TIP3    H247985   1.345   0.126  15.179 -2.9323  0.2505  2.1391
 8832TIP3   OH247986   4.427   0.536  15.230 -0.4750  0.3860 -0.4545
 8832TIP3    H147987   4.411   0.542  15.324 -0.1367  0.9405 -0.4301
 8832TIP3    H247988   4.401   0.447  15.207 -0.4695  0.2176  0.1800
 8833TIP3   OH247989   1.095   0.221  15.397 -0.0115 -0.0607 -0.2630
 8833TIP3    H147990   1.101   0.225  15.302  1.4269 -1.3962 -0.2638
 8833TIP3    H247991   1.155   0.289  15.428 -0.2467  0.1663 -0.3022
 8834TIP3   OH247992   1.258   1.018  12.452  0.1378  0.0184 -0.3186
 8834TIP3    H147993   1.331   1.079  12.457 -0.9058  1.2364  0.5948
 8834TIP3    H247994   1.206   1.035  12.531 -1.3477 -0.5189 -1.1288
 8835TIP3   OH247995   0.609   4.463  12.555  0.7367  0.3619  0.1623
 8835TIP3    H147996   0.680   4.423  12.505 -0.5378  1.5482 -2.8486
 8835TIP3    H247997   0.647   4.545  12.587  0.7316  1.1883 -1.7655
 8836TIP3   OH247998   6.552   6.244   4.749 -0.1044 -0.1116  0.5025
 8836TIP3    H147999   6.567   6.306   4.821 -0.7425 -0.3695  0.8698
 8836TIP3    H248000   6.482   6.284   4.697  0.8604  0.4319 -0.4130
 8837TIP3   OH248001   5.474   6.196   3.317 -0.3038  0.6263 -0.1927
 8837TIP3    H148002   5.460   6.199   3.412 -0.2657 -0.5349 -0.1438
 8837TIP3    H248003   5.417   6.125   3.287  1.3537 -0.5147 -0.7346
 8838TIP3   OH248004   0.167   6.760   1.090  0.5508  0.2658  0.1523
 8838TIP3    H148005   0.184   6.789   1.180 -0.0173  3.4390 -0.6161
 8838TIP3    H248006   0.254   6.756   1.050  0.6488  2.4926 -0.0254
 8839TIP3   OH248007   6.263   1.232  16.888  0.2001 -0.2356  0.4436
 8839TIP3    H148008   6.281   1.323  16.912  2.1866 -0.1336 -1.1284
 8839TIP3    H248009   6.304   1.181  16.957  0.8809  0.0657  0.2723
 8840TIP3   OH248010   0.336   3.291  12.256  0.1876  0.5475  0.4884
 8840TIP3    H148011   0.257   3.296  12.309 -0.3712  3.6353 -0.4006
 8840TIP3    H248012   0.306   3.305  12.166  1.6031  0.3186 -0.0538
 8841TIP3   OH248013   4.758   3.232   2.287  0.0099  0.6173 -0.5184
 8841TIP3    H148014   4.829   3.256   2.227  0.8955  1.8236  0.9364
 8841TIP3    H248015   4.775   3.283   2.366 -1.9119  0.1370  0.2646
 8842TIP3   OH248016   1.496   1.055  11.726  0.3322  0.1221  0.2057
 8842TIP3    H148017   1.434   1.089  11.662 -1.0422  1.0467  1.9287
 8842TIP3    H248018   1.514   1.130  11.784  0.7485 -0.9115  1.4627
 8843TIP3   OH248019   0.323   0.124   3.483  0.2810 -0.3403  0.3492
 8843TIP3    H148020   0.287   0.045   3.522 -1.1049  0.2655  0.3560
 8843TIP3    H248021   0.259   0.150   3.416  0.3559  1.1355  0.8084
 8844TIP3   OH248022   2.315   2.709  14.687 -0.3025  0.4416 -0.0904
 8844TIP3    H148023   2.331   2.615  14.693  2.7171  0.6583 -2.2610
 8844TIP3    H248024   2.224   2.717  14.657 -1.6122 -1.5690  2.9348
 8845TIP3   OH248025   2.589   3.006  15.820 -0.3302 -0.1481 -0.1786
 8845TIP3    H148026   2.594   3.077  15.884 -0.0291 -1.3682  1.1929
 8845TIP3    H248027   2.563   3.049  15.738 -0.2623  1.5106  0.6427
 8846TIP3   OH248028   5.193   3.882   3.392  0.7135 -0.0150 -0.0138
 8846TIP3    H148029   5.207   3.795   3.355 -0.8149 -0.3948  0.2695
 8846TIP3    H248030   5.121   3.872   3.454  0.6342  1.4133  0.1757
 8847TIP3   OH248031   0.069   6.456   0.893 -0.0820  0.2656 -0.9485
 8847TIP3    H148032   0.067   6.390   0.823  0.2030 -1.1753  0.3579
 8847TIP3    H248033  -0.023   6.479   0.906 -0.2941 -0.6857 -0.6954
 8848TIP3   OH248034   3.554   6.259  14.945 -0.5293 -0.1491 -0.0669
 8848TIP3    H148035   3.465   6.243  14.978 -1.9108  2.7013 -1.9563
 8848TIP3    H248036   3.562   6.203  14.868 -0.2460 -1.2143  0.7280
 8849TIP3   OH248037   5.959   0.411   5.329 -0.0551  0.2827  0.2668
 8849TIP3    H148038   5.889   0.400   5.265 -0.2923 -0.1242  0.5923
 8849TIP3    H248039   6.001   0.494   5.305 -1.8866  1.5471  1.2553
 8850TIP3   OH248040   5.840   0.265  12.637 -0.0083 -0.0658 -0.0679
 8850TIP3    H148041   5.831   0.291  12.545 -1.2310 -1.6065 -0.4300
 8850TIP3    H248042   5.826   0.170  12.637  0.5212 -0.1862  1.6466
 8851TIP3   OH248043   1.995   1.237  14.962 -0.1733  0.1500  0.1801
 8851TIP3    H148044   1.992   1.169  15.029  1.4484  0.0880  0.2335
 8851TIP3    H248045   2.067   1.294  14.988  1.2033 -0.4509 -2.0054
 8852TIP3   OH248046   5.523   5.615  14.016 -0.4526 -0.2115 -0.2699
 8852TIP3    H148047   5.510   5.615  14.110 -1.0426 -0.5983 -0.3466
 8852TIP3    H248048   5.515   5.707  13.990  1.7053  0.2043  0.3038
 8853TIP3   OH248049   1.826   4.628   5.549 -0.3799  0.1706 -0.0122
 8853TIP3    H148050   1.851   4.564   5.482 -0.9586  0.1047 -0.1804
 8853TIP3    H248051   1.767   4.580   5.607 -0.6838  0.5029 -0.0418
 8854TIP3   OH248052   3.796   2.846  13.301  0.4282  0.2882  0.3335
 8854TIP3    H148053   3.821   2.894  13.222  3.1715  0.4041  1.1517
 8854TIP3    H248054   3.875   2.796  13.325 -1.4229 -2.5330  1.0707
 8855TIP3   OH248055   2.457   0.286  11.678  0.0124 -0.3357 -0.8025
 8855TIP3    H148056   2.394   0.226  11.636  0.0634  1.3115 -3.5151
 8855TIP3    H248057   2.461   0.360  11.618  1.7299  1.3202  1.2401
 8856TIP3   OH248058   5.537   4.510  14.065 -0.0238  0.0350 -0.9053
 8856TIP3    H148059   5.616   4.547  14.103 -1.1232  1.3938  0.1430
 8856TIP3    H248060   5.512   4.571  13.996 -1.4156  0.8878  0.3128
 8857TIP3   OH248061   3.556   1.846  15.740 -0.1431 -0.1383  0.5754
 8857TIP3    H148062   3.501   1.854  15.818 -1.2367  1.8040 -0.3220
 8857TIP3    H248063   3.645   1.847  15.773 -0.6027 -0.5438  1.8796
 8858TIP3   OH248064   5.443   1.836   0.228  0.0817 -0.0145 -0.2247
 8858TIP3    H148065   5.413   1.780   0.299  0.0319  1.1318  0.6893
 8858TIP3    H248066   5.463   1.775   0.156 -1.2670 -1.0649  0.2516
 8859TIP3   OH248067   6.661   3.411  15.167  0.8128 -0.1355  0.1501
 8859TIP3    H148068   6.591   3.473  15.146 -0.6558 -1.0554  1.9687
 8859TIP3    H248069   6.642   3.334  15.114  0.3145 -0.4444  0.7602
 8860TIP3   OH248070   6.356   0.051   4.712  0.6953  0.5266  0.0027
 8860TIP3    H148071   6.318  -0.004   4.781 -1.3661 -0.8974 -2.0961
 8860TIP3    H248072   6.446   0.020   4.704  0.0118 -1.6509 -0.1000
 8861TIP3   OH248073   0.581   0.430  15.083  0.0934  0.3809  0.6170
 8861TIP3    H148074   0.649   0.487  15.047 -0.1676  0.2720 -0.0433
 8861TIP3    H248075   0.574   0.358  15.021 -0.1132  0.0121  1.0598
 8862TIP3   OH248076   4.386   3.306   2.894  0.2570 -0.6140 -0.1403
 8862TIP3    H148077   4.354   3.256   2.970 -0.6908 -0.3693 -0.3592
 8862TIP3    H248078   4.384   3.243   2.822  1.5791 -0.9681  0.1148
 8863TIP3   OH248079   3.272   5.095  12.586  0.2512  0.1760  0.4433
 8863TIP3    H148080   3.295   5.176  12.632  0.4996  0.5199 -0.2824
 8863TIP3    H248081   3.207   5.122  12.521 -0.1599 -0.3259  0.6340
 8864TIP3   OH248082   6.569   2.857  17.184 -0.6500 -0.2303 -1.0278
 8864TIP3    H148083   6.648   2.827  17.229  0.4494  1.9126 -1.3828
 8864TIP3    H248084   6.570   2.810  17.101  0.2400 -0.2463 -1.0180
 8865TIP3   OH248085   1.371   0.824  16.249 -0.6279  0.3717  0.1038
 8865TIP3    H148086   1.323   0.905  16.266 -0.7534  0.0719  1.2458
 8865TIP3    H248087   1.456   0.852  16.217 -1.4677  0.9165 -1.7859
 8866TIP3   OH248088   3.204   2.073   6.484 -0.3723 -0.4904 -0.1610
 8866TIP3    H148089   3.231   2.164   6.495  0.0489 -0.3800 -1.9024
 8866TIP3    H248090   3.108   2.076   6.484 -0.3905 -0.2773  1.3018
 8867TIP3   OH248091   2.233   3.860   4.861  0.0304  0.2170 -0.1142
 8867TIP3    H148092   2.294   3.787   4.848 -1.1259 -0.6885 -0.5680
 8867TIP3    H248093   2.187   3.839   4.942 -0.2679  0.4619 -0.2185
 8868TIP3   OH248094   3.661   3.038  15.176 -0.1275 -0.1911 -0.1348
 8868TIP3    H148095   3.721   3.028  15.250  1.0834  1.1255 -0.8888
 8868TIP3    H248096   3.579   2.999  15.207  1.2116 -2.5144  0.7595
 8869TIP3   OH248097   1.236   0.607   5.739  0.0896 -0.3601  0.1830
 8869TIP3    H148098   1.245   0.685   5.794 -0.1184 -0.5449  0.4825
 8869TIP3    H248099   1.299   0.545   5.775 -0.2366 -0.5776  0.3873
 8870TIP3   OH248100   4.133   1.684  11.426  0.8458  0.3926 -0.2663
 8870TIP3    H148101   4.165   1.750  11.364  0.9104 -0.7823 -1.5304
 8870TIP3    H248102   4.128   1.603  11.375  2.5504 -1.0434  1.6739
 8871TIP3   OH248103   1.128   0.910  14.552 -0.2609  0.3483  0.1353
 8871TIP3    H148104   1.143   0.951  14.637  0.7971 -0.7893  0.5307
 8871TIP3    H248105   1.179   0.963  14.490  1.1812 -0.3638  0.6539
 8872TIP3   OH248106   4.155   1.581  17.386  0.2123 -0.0266  0.5575
 8872TIP3    H148107   4.139   1.675  17.393 -4.6504 -0.7222  2.8678
 8872TIP3    H248108   4.109   1.554  17.306  0.5518 -0.6295  0.5532
 8873TIP3   OH248109   4.737   6.603   0.472 -0.3238 -0.0376  0.1643
 8873TIP3    H148110   4.671   6.626   0.537 -0.0411 -1.7553  1.1221
 8873TIP3    H248111   4.730   6.672   0.406 -1.9189  0.7306  1.0596
 8874TIP3   OH248112   3.763   5.207   0.167 -0.1685 -0.4703  0.1787
 8874TIP3    H148113   3.729   5.222   0.255  2.0484 -0.1840  1.0404
 8874TIP3    H248114   3.789   5.293   0.136  2.7208 -1.0049  0.8768
 8875TIP3   OH248115   0.768   6.386   5.420  0.0732  0.2120 -0.2368
 8875TIP3    H148116   0.810   6.327   5.357 -0.1630  0.3471 -0.5212
 8875TIP3    H248117   0.779   6.342   5.504 -1.9398 -1.2909 -0.6805
 8876TIP3   OH248118   1.733   3.727   5.178  0.3646  0.3949 -0.3634
 8876TIP3    H148119   1.704   3.696   5.092 -0.2244  0.8335 -0.3345
 8876TIP3    H248120   1.824   3.754   5.164  1.2914 -2.3000 -0.1286
 8877TIP3   OH248121   2.436   0.703   2.733  0.0587 -0.0164 -0.6502
 8877TIP3    H148122   2.458   0.635   2.669 -1.9648 -0.8772 -0.4848
 8877TIP3    H248123   2.408   0.778   2.681  0.1833 -0.0704 -0.7949
 8878TIP3   OH248124   4.275   3.819  14.847  0.5010 -0.0456  0.6105
 8878TIP3    H148125   4.249   3.757  14.916 -2.4022  2.2737  1.8170
 8878TIP3    H248126   4.198   3.824  14.790  0.5770  2.4467  0.6330
 8879TIP3   OH248127   3.786   2.788  12.783  0.7909 -0.5861 -0.1820
 8879TIP3    H148128   3.796   2.767  12.876 -1.2071  2.1660  0.7833
 8879TIP3    H248129   3.737   2.715  12.747  0.1888 -0.9649  1.3232
 8880TIP3   OH248130   6.673   3.090  14.614 -0.0450  0.7138  0.3974
 8880TIP3    H148131   6.673   2.997  14.637  0.6879  0.1229 -1.7335
 8880TIP3    H248132   6.730   3.131  14.679  3.4617 -1.1445 -1.2110
 8881TIP3   OH248133   1.511   4.202   2.789 -0.3999  0.0940 -0.4366
 8881TIP3    H148134   1.504   4.223   2.882 -3.9502 -1.8638 -0.0643
 8881TIP3    H248135   1.497   4.285   2.744  1.1109  1.0223  0.7095
 8882TIP3   OH248136   5.658   6.154   4.145  0.0924 -0.4125  0.3763
 8882TIP3    H148137   5.705   6.206   4.211  2.3275 -1.2898 -0.4371
 8882TIP3    H248138   5.659   6.065   4.180  0.8388 -0.7923 -0.5817
 8883TIP3   OH248139   1.906   0.795  17.328 -0.2680  0.3649  0.2287
 8883TIP3    H148140   1.871   0.795  17.238 -1.2754  0.0185  0.6075
 8883TIP3    H248141   1.991   0.753  17.320 -1.2047 -1.5500 -0.2727
 8884TIP3   OH248142   2.544   0.187  16.983  0.3245 -0.0994  0.4781
 8884TIP3    H148143   2.476   0.122  17.002 -1.6233  1.4825 -0.6313
 8884TIP3    H248144   2.595   0.148  16.912 -0.5790 -0.5885  0.0809
 8885TIP3   OH248145   6.622   1.268  14.130 -0.1141  0.9039  0.1946
 8885TIP3    H148146   6.686   1.301  14.193 -0.0047  2.8617 -0.8938
 8885TIP3    H248147   6.666   1.196  14.085  1.4972  2.4611 -0.8018
 8886TIP3   OH248148   1.030   1.300  11.944  0.9334  0.1410 -0.1476
 8886TIP3    H148149   0.990   1.233  11.888 -0.8370  0.4336  0.7147
 8886TIP3    H248150   0.956   1.351  11.978  1.9458  0.1268  2.2736
 8887TIP3   OH248151   2.852   3.649   4.743  0.2116 -0.2584  0.0320
 8887TIP3    H148152   2.870   3.657   4.836  0.3414 -0.6167  0.0390
 8887TIP3    H248153   2.764   3.685   4.732  0.5837  0.6962  0.1351
 8888TIP3   OH248154   4.369   3.099  12.666  0.2750 -0.1556  0.1446
 8888TIP3    H148155   4.368   3.042  12.742  0.0430  1.1392  1.1613
 8888TIP3    H248156   4.278   3.105  12.639  0.5184 -1.7916 -1.2062
 8889TIP3   OH248157   4.591   4.418   4.661 -0.4497  0.3348 -0.1325
 8889TIP3    H148158   4.614   4.351   4.725  3.5483  0.3758 -1.2347
 8889TIP3    H248159   4.579   4.370   4.579 -1.2905  0.6566 -0.2077
 8890TIP3   OH248160   3.622   3.584  17.050 -0.0903  0.8271  0.3133
 8890TIP3    H148161   3.592   3.620  17.133  0.2584  4.0079 -0.7943
 8890TIP3    H248162   3.717   3.577  17.060 -0.0739  0.9933  0.2843
 8891TIP3   OH248163   1.556   6.656   4.251 -0.1809 -0.6602 -0.0183
 8891TIP3    H148164   1.535   6.563   4.249 -0.3389 -0.6337  0.3528
 8891TIP3    H248165   1.472   6.700   4.242 -0.0222 -0.5491 -1.0451
 8892TIP3   OH248166   0.747   0.349  17.300 -0.0153  0.1927  0.1034
 8892TIP3    H148167   0.768   0.267  17.255  0.0079 -0.9922  2.1391
 8892TIP3    H248168   0.686   0.394  17.241  3.3544  0.9446 -3.1732
 8893TIP3   OH248169   5.708   5.776   4.999  0.4978 -0.7926 -0.2605
 8893TIP3    H148170   5.618   5.806   4.984  0.0150 -2.8049 -1.7472
 8893TIP3    H248171   5.736   5.741   4.914  1.7824 -2.4666  0.8091
 8894TIP3   OH248172   1.574   4.818  11.499  0.3567  0.0958  0.0871
 8894TIP3    H148173   1.624   4.852  11.574  0.4495 -0.9185  0.5096
 8894TIP3    H248174   1.641   4.783  11.440  0.3144  1.2570 -0.6918
 8895TIP3   OH248175   4.090   5.300  15.307  0.4784  0.3417  0.0014
 8895TIP3    H148176   4.106   5.211  15.273 -4.2616 -1.1442  0.8557
 8895TIP3    H248177   4.071   5.352  15.228  0.4476 -0.1777 -0.3405
 8896TIP3   OH248178   2.283   5.141   0.591 -0.1559  0.2590  0.0747
 8896TIP3    H148179   2.292   5.213   0.653 -1.4475  1.6905 -1.3212
 8896TIP3    H248180   2.237   5.179   0.516 -0.8044 -2.0031 -0.7579
 8897TIP3   OH248181   6.440   0.644  11.376  0.5384  0.6206  0.4230
 8897TIP3    H148182   6.396   0.714  11.423 -1.0176 -0.8997  1.3252
 8897TIP3    H248183   6.441   0.570  11.437  2.9772  0.0835 -0.1444
 8898TIP3   OH248184   3.766   5.055  12.407 -0.2075  0.1200  0.6425
 8898TIP3    H148185   3.813   5.057  12.323  0.3317  1.1176  0.9496
 8898TIP3    H248186   3.720   5.138  12.411  1.0581  0.8009  2.0311
 8899TIP3   OH248187   3.254   3.641  16.797 -0.0389  0.1471  0.4778
 8899TIP3    H148188   3.321   3.708  16.786 -0.2766  0.3412  0.1818
 8899TIP3    H248189   3.278   3.595  16.877 -0.3222  1.1050  1.1250
 8900TIP3   OH248190   6.636   2.426  11.630  0.0893  0.4065 -0.0318
 8900TIP3    H148191   6.627   2.519  11.609  2.5928  0.7365  0.0941
 8900TIP3    H248192   6.603   2.418  11.719 -2.0192  0.7498 -0.7357
 8901TIP3   OH248193   4.989   0.206  14.394 -0.3152 -0.2292  0.6648
 8901TIP3    H148194   4.993   0.151  14.316 -1.2962 -1.6796  1.5878
 8901TIP3    H248195   5.039   0.158  14.460 -1.4466 -0.1992  1.5778
 8902TIP3   OH248196   2.028   3.926  11.944 -0.0474  0.1397  0.6653
 8902TIP3    H148197   2.048   3.835  11.924  0.4719  0.5880 -0.9648
 8902TIP3    H248198   2.113   3.971  11.942 -0.4905  0.9723 -0.3741
 8903TIP3   OH248199   5.984   0.700   5.439 -0.3087  0.1371 -0.2807
 8903TIP3    H148200   5.989   0.783   5.487  0.3599  0.8855 -1.5620
 8903TIP3    H248201   5.919   0.648   5.486 -1.1989  1.6317  0.1985
 8904TIP3   OH248202   4.461   1.342   0.641 -0.1798  0.1381  0.4262
 8904TIP3    H148203   4.472   1.316   0.549  1.8884  0.1098  0.6488
 8904TIP3    H248204   4.377   1.388   0.642  1.0739  2.7991 -2.1220
 8905TIP3   OH248205   0.050   6.592   6.472  0.2832 -0.3495  0.6310
 8905TIP3    H148206   0.036   6.584   6.566  0.3862 -0.3120  0.6496
 8905TIP3    H248207   0.134   6.638   6.464  0.4404 -0.6512  0.5205
 8906TIP3   OH248208   1.542   6.632  11.146  0.1515  0.1487  0.5055
 8906TIP3    H148209   1.617   6.581  11.116  0.3267  0.6265  0.1190
 8906TIP3    H248210   1.466   6.586  11.112  0.3528  0.8119 -0.9053
 8907TIP3   OH248211   1.703   2.957   2.079  0.9204 -1.0468  0.1295
 8907TIP3    H148212   1.772   2.944   2.014  2.1333  1.2537  0.8611
 8907TIP3    H248213   1.690   2.869   2.117  4.3596 -1.4142  0.8161
 8908TIP3   OH248214   2.725   3.680  12.192  0.3163  0.4977  0.1607
 8908TIP3    H148215   2.806   3.730  12.203  0.0655  0.4563  2.9254
 8908TIP3    H248216   2.657   3.735  12.232 -1.1198  0.5812 -2.1793
 8909TIP3   OH248217   0.080   4.888  15.313  0.4182  0.3255 -0.4130
 8909TIP3    H148218   0.054   4.958  15.253  2.8018  1.5950 -0.0644
 8909TIP3    H248219   0.149   4.841  15.266  0.4971 -0.3131  0.3193
 8910TIP3   OH248220   6.510   3.433  16.393  0.7868  0.3765  0.3360
 8910TIP3    H148221   6.528   3.409  16.302 -0.3303  2.5959 -0.5406
 8910TIP3    H248222   6.593   3.468  16.425  1.1470 -0.2817  0.1452
 8911TIP3   OH248223   5.270   4.171  11.927 -0.5891  0.1127  0.1891
 8911TIP3    H148224   5.205   4.139  11.989 -1.9655  1.0390 -0.7300
 8911TIP3    H248225   5.339   4.209  11.982 -1.6783  0.7408  1.1579
 8912TIP3   OH248226   4.645   0.620  16.259 -0.7050  0.0207 -0.2003
 8912TIP3    H148227   4.617   0.637  16.169 -1.0510  0.5346  0.0005
 8912TIP3    H248228   4.614   0.531  16.277  1.3216 -1.0062 -1.3403
 8913TIP3   OH248229   3.634   1.866  17.376 -0.0737  0.1239  0.1619
 8913TIP3    H148230   3.678   1.826  17.451  0.7595  2.2163  0.8597
 8913TIP3    H248231   3.647   1.804  17.304  0.4150 -1.2181  1.3615
 8914TIP3   OH248232   0.236   6.250   0.679  0.3077 -0.1939  0.0003
 8914TIP3    H148233   0.254   6.186   0.611  0.0141 -2.6050  2.0475
 8914TIP3    H248234   0.180   6.315   0.637 -0.4196 -1.9440 -1.8822
 8915TIP3   OH248235   4.198   5.639   0.317  0.1053  0.1061  0.8232
 8915TIP3    H148236   4.175   5.582   0.243 -0.3415  0.0180  1.0282
 8915TIP3    H248237   4.254   5.585   0.372 -0.2113 -0.0922  0.9507
 8916TIP3   OH248238   4.228   3.288  13.751 -0.0323 -0.1636 -0.9880
 8916TIP3    H148239   4.232   3.302  13.656 -1.8177 -3.1897 -1.6107
 8916TIP3    H248240   4.159   3.347  13.781  1.9762  2.4517 -1.0625
 8917TIP3   OH248241   6.038   3.213   3.217 -0.5536  0.2014 -0.2604
 8917TIP3    H148242   6.119   3.216   3.267 -0.9432 -0.3872  0.4241
 8917TIP3    H248243   6.027   3.302   3.183  0.1480  0.3927 -0.0009
 8918TIP3   OH248244   3.088   5.466  11.098 -0.3099  0.1175 -0.1916
 8918TIP3    H148245   3.117   5.375  11.094 -2.3618 -0.5781 -0.7476
 8918TIP3    H248246   3.039   5.479  11.016 -1.5539  1.1452  0.6650
 8919TIP3   OH248247   1.888   2.174   3.520  0.0847 -0.6593 -0.1226
 8919TIP3    H148248   1.935   2.098   3.485 -0.4306 -1.2270  0.3848
 8919TIP3    H248249   1.797   2.146   3.523 -0.0160 -0.2866  0.7380
 8920TIP3   OH248250   4.643   4.293  11.437  0.0278 -0.8577  0.1651
 8920TIP3    H148251   4.580   4.224  11.417 -1.1270  0.1881  0.0947
 8920TIP3    H248252   4.699   4.298  11.359 -0.9031 -0.6283 -0.5064
 8921TIP3   OH248253   3.049   0.526  12.342  0.4504  0.2559 -0.1815
 8921TIP3    H148254   2.989   0.470  12.293  0.2398  0.7807 -0.5301
 8921TIP3    H248255   3.126   0.472  12.356  0.7225  0.2555 -1.5343
 8922TIP3   OH248256   5.853   3.110  17.350  0.2588  0.4924 -0.2165
 8922TIP3    H148257   5.799   3.040  17.314 -0.8605  0.2410  1.7813
 8922TIP3    H248258   5.849   3.097  17.445 -0.3317  3.4650  0.2698
 8923TIP3   OH248259   0.620   4.736   2.886 -0.1452  0.2458 -0.5876
 8923TIP3    H148260   0.622   4.826   2.854  1.5067  0.3106 -0.3856
 8923TIP3    H248261   0.707   4.701   2.868 -0.4506 -1.0170  0.1946
 8924TIP3   OH248262   3.745   3.235   5.556 -0.4432 -0.6963 -0.4495
 8924TIP3    H148263   3.809   3.246   5.485 -0.5649  0.3054 -0.4250
 8924TIP3    H248264   3.732   3.324   5.590 -1.0396 -1.0436  0.2565
 8925TIP3   OH248265   5.977   2.356   5.526  0.2311 -0.0855  0.1994
 8925TIP3    H148266   5.962   2.424   5.460  1.2012 -0.4127 -0.3812
 8925TIP3    H248267   5.890   2.329   5.553 -0.1705  0.7712 -0.2088
 8926TIP3   OH248268   6.418   5.023   2.183  0.1769 -0.2213 -0.8127
 8926TIP3    H148269   6.444   5.007   2.274  0.9496 -0.3834 -1.0502
 8926TIP3    H248270   6.498   5.057   2.142 -0.5825  1.3747 -1.0491
 8927TIP3   OH248271   0.957   5.035  16.931  0.1717  0.1837  0.4086
 8927TIP3    H148272   1.007   4.974  16.986 -0.8030 -1.3067 -0.3026
 8927TIP3    H248273   0.943   5.111  16.988  1.2951 -0.2968  1.3793
 8928TIP3   OH248274   5.674   6.198   4.795  1.0393  0.6831 -0.2236
 8928TIP3    H148275   5.726   6.276   4.774  2.1263  0.2366  0.7341
 8928TIP3    H248276   5.647   6.211   4.886 -0.6039  0.9214 -0.7106
 8929TIP3   OH248277   1.151   5.786   5.987  0.1445  0.3770 -0.1842
 8929TIP3    H148278   1.070   5.814   6.030  1.0707  1.6847  0.7986
 8929TIP3    H248279   1.147   5.825   5.900 -1.1949 -1.2917 -0.9344
 8930TIP3   OH248280   5.684   3.554   5.323  0.7118 -0.2890  0.0695
 8930TIP3    H148281   5.692   3.647   5.345  2.9140 -0.5253  0.5647
 8930TIP3    H248282   5.698   3.551   5.229 -1.4219  0.0399 -0.2934
 8931TIP3   OH248283   2.602   3.913  17.433  0.2731 -0.0455 -0.0794
 8931TIP3    H148284   2.544   3.904  17.509  2.5467  1.0596  1.9388
 8931TIP3    H248285   2.560   3.861  17.365 -0.8469 -2.9144  2.5466
 8932TIP3   OH248286   0.904   3.619  13.780 -0.2873 -0.0823 -0.2532
 8932TIP3    H148287   0.954   3.575  13.712 -1.6846 -2.2091  0.0092
 8932TIP3    H248288   0.957   3.610  13.860 -1.1325 -2.5940  0.0930
 8933TIP3   OH248289   2.314   6.051   4.185 -0.5377 -0.1823  0.1896
 8933TIP3    H148290   2.248   6.120   4.187 -1.4537 -1.0621  1.0819
 8933TIP3    H248291   2.265   5.969   4.190  0.5830 -0.8807  0.2797
 8934TIP3   OH248292   1.154   1.669   0.107 -0.3526 -0.0899 -0.3075
 8934TIP3    H148293   1.174   1.762   0.118  1.5349 -0.5710  0.7735
 8934TIP3    H248294   1.114   1.643   0.190  1.2730 -0.7139  0.3260
 8935TIP3   OH248295   2.413   5.406   1.392 -0.3412  0.1816 -0.8660
 8935TIP3    H148296   2.322   5.413   1.421 -0.4515  0.2201 -1.2180
 8935TIP3    H248297   2.425   5.313   1.376 -0.4599  0.2343 -1.2691
 8936TIP3   OH248298   2.796   3.983  13.595  0.2302  0.2859 -0.1325
 8936TIP3    H148299   2.862   3.913  13.591  0.9513  0.9597 -0.2688
 8936TIP3    H248300   2.766   3.982  13.686  0.9183  0.4020  0.1058
 8937TIP3   OH248301   3.379   4.097   5.330 -0.2307 -0.5349 -0.9458
 8937TIP3    H148302   3.432   4.050   5.395 -0.6947 -1.6479 -1.3333
 8937TIP3    H248303   3.362   4.031   5.262 -1.2614  0.0971 -1.3160
 8938TIP3   OH248304   5.223   0.444  15.337  0.0235  0.0778  0.2239
 8938TIP3    H148305   5.253   0.535  15.346  1.0534  0.1325 -2.7227
 8938TIP3    H248306   5.282   0.394  15.393 -0.6068  1.1808  1.9567
 8939TIP3   OH248307   5.751   3.555   7.085 -0.3569 -0.4383  0.5589
 8939TIP3    H148308   5.695   3.629   7.110 -1.7045 -1.4388  0.5925
 8939TIP3    H248309   5.732   3.541   6.992 -1.4738 -1.8713  0.9843
 8940TIP3   OH248310   4.313   3.719  16.756  0.5841  0.6025 -0.2077
 8940TIP3    H148311   4.247   3.664  16.714  0.7910  1.1727 -1.3234
 8940TIP3    H248312   4.271   3.805  16.763  0.7894  0.6740  0.1363
 8941TIP3   OH248313   0.762   3.045  11.546 -0.0777  0.2388  0.4093
 8941TIP3    H148314   0.804   3.059  11.461 -1.7106  1.8319 -0.2005
 8941TIP3    H248315   0.715   2.962  11.535 -0.9898  0.8475 -0.6075
 8942TIP3   OH248316   2.850   6.061  16.071 -0.0113  0.5431  0.1293
 8942TIP3    H148317   2.918   5.999  16.096  0.3897 -0.2325 -2.6370
 8942TIP3    H248318   2.772   6.008  16.056 -0.5981  1.1412  0.9589
 8943TIP3   OH248319   1.467   1.545  13.862 -0.5346 -1.2704 -0.3636
 8943TIP3    H148320   1.485   1.498  13.780  0.1725 -1.4860 -0.0890
 8943TIP3    H248321   1.380   1.583  13.849  0.8814  1.6147 -2.6026
 8944TIP3   OH248322   6.374   5.234   2.807  0.2559 -0.6664  0.2183
 8944TIP3    H148323   6.371   5.212   2.900 -0.1797  0.2391  0.4289
 8944TIP3    H248324   6.465   5.259   2.792 -0.0189  0.7717  0.8001
 8945TIP3   OH248325   0.532   3.913  14.037  0.2819  0.0932 -0.1149
 8945TIP3    H148326   0.571   3.833  14.003  0.2679 -0.2923  0.7527
 8945TIP3    H248327   0.481   3.885  14.113 -1.2567  0.6666 -0.8952
 8946TIP3   OH248328   0.508   5.225   3.494 -0.7642 -0.2808  0.0132
 8946TIP3    H148329   0.494   5.131   3.501 -2.1524 -0.0441  0.7187
 8946TIP3    H248330   0.428   5.264   3.528 -1.5742  1.1758 -3.1873
 8947TIP3   OH248331   3.200   3.997  11.433 -0.4215  0.1404 -0.3378
 8947TIP3    H148332   3.178   4.037  11.349  0.2440  0.9786 -0.1293
 8947TIP3    H248333   3.294   4.007  11.441 -0.2764 -1.2012 -0.1157
 8948TIP3   OH248334   5.501   1.596  15.920 -0.0117  0.7037  0.3268
 8948TIP3    H148335   5.472   1.561  15.836  0.0735  0.2108  0.5012
 8948TIP3    H248336   5.427   1.582  15.979 -0.7263  2.5585 -0.0483
 8949TIP3   OH248337   5.333   4.931   4.265 -0.1879 -0.0789 -0.4383
 8949TIP3    H148338   5.346   4.961   4.355 -1.3778  1.4371 -0.7339
 8949TIP3    H248339   5.242   4.901   4.262 -0.9016  2.0203 -1.6583
 8950TIP3   OH248340   4.560   1.262  13.325  1.2599 -0.1925  0.3385
 8950TIP3    H148341   4.595   1.245  13.412 -0.5076  0.2732  1.1683
 8950TIP3    H248342   4.581   1.354  13.309 -2.3738  1.1911  2.3218
 8951TIP3   OH248343   6.714   2.757  15.346  0.1330 -0.1460  0.2206
 8951TIP3    H148344   6.625   2.740  15.316  0.0180  1.7614 -0.6549
 8951TIP3    H248345   6.770   2.719  15.277 -0.0335 -0.3829  0.2183
 8952TIP3   OH248346   4.221   5.124  17.429 -0.2618 -0.1550 -0.1109
 8952TIP3    H148347   4.230   5.045  17.482 -0.9060  0.2177  0.5666
 8952TIP3    H248348   4.311   5.153  17.412 -0.0379 -0.7148  0.1041
 8953TIP3   OH248349   2.747   5.982   1.844 -0.4631 -0.1513 -0.1304
 8953TIP3    H148350   2.839   5.967   1.865 -0.4843  1.1881  1.0427
 8953TIP3    H248351   2.721   5.903   1.795  1.8383  0.3746 -2.4286
 8954TIP3   OH248352   6.697   2.571   4.029 -0.6553  0.3015 -0.5257
 8954TIP3    H148353   6.669   2.568   4.120 -1.9055 -0.5436 -0.9283
 8954TIP3    H248354   6.672   2.659   3.999 -4.2886 -0.8263 -1.2582
 8955TIP3   OH248355   5.457   1.361   6.117  0.4494  0.0083  0.4169
 8955TIP3    H148356   5.379   1.308   6.135  1.3538 -1.7831 -0.6691
 8955TIP3    H248357   5.482   1.337   6.028  0.0751  3.4206 -0.7524
 8956TIP3   OH248358   2.559   4.661  13.301  0.2467  0.3712 -0.2199
 8956TIP3    H148359   2.646   4.673  13.339  0.0136  3.7516 -0.3788
 8956TIP3    H248360   2.500   4.706  13.362 -1.1073 -0.2045 -1.0608
 8957TIP3   OH248361   5.486   1.028  13.175 -0.4308 -0.3210 -0.3786
 8957TIP3    H148362   5.471   1.043  13.082  0.3743  1.3348 -0.2789
 8957TIP3    H248363   5.441   1.100  13.219  1.5733  0.5961  0.3069
 8958TIP3   OH248364   4.320   4.821   1.418  0.0116 -0.6165 -0.1186
 8958TIP3    H148365   4.385   4.754   1.396  0.5454 -1.1918  2.7220
 8958TIP3    H248366   4.372   4.897   1.444 -0.5096 -0.2062 -0.2579
 8959TIP3   OH248367   4.971   0.635  12.071 -0.4978 -0.2563 -0.0759
 8959TIP3    H148368   4.948   0.542  12.065 -0.1236 -0.2626 -3.2293
 8959TIP3    H248369   4.890   0.678  12.101 -0.5826 -1.5728  1.7279
 8960TIP3   OH248370   1.337   1.426   1.065  0.4145 -0.1387 -0.4340
 8960TIP3    H148371   1.363   1.374   0.989  0.7514  0.4942 -0.7531
 8960TIP3    H248372   1.413   1.481   1.084  0.1380  0.0860  0.0385
 8961TIP3   OH248373   6.718   0.836   4.280  0.5012  0.2179  0.0553
 8961TIP3    H148374   6.774   0.907   4.312  3.0628 -0.9497 -1.5798
 8961TIP3    H248375   6.774   0.758   4.280 -0.8915 -0.9037 -2.2315
 8962TIP3   OH248376   2.041   4.190  12.523 -0.4918 -0.0184  0.0537
 8962TIP3    H148377   2.063   4.126  12.591 -0.0298  0.2269  0.1383
 8962TIP3    H248378   1.984   4.142  12.463  1.7212 -1.2448 -1.1882
 8963TIP3   OH248379   3.081   4.525  13.630 -0.5700  0.6481 -0.1335
 8963TIP3    H148380   3.156   4.563  13.583 -0.1269 -0.9462 -0.7881
 8963TIP3    H248381   3.050   4.595  13.687  1.5793  1.2806  0.3435
 8964TIP3   OH248382   4.555   3.413   1.549 -0.1500 -0.1951  0.0155
 8964TIP3    H148383   4.495   3.339   1.533  1.3660 -1.7845  1.2785
 8964TIP3    H248384   4.516   3.460   1.622  0.7203 -2.0404  1.7877
 8965TIP3   OH248385   0.462   2.097   1.574  0.2340  0.1020  0.5405
 8965TIP3    H148386   0.546   2.142   1.578 -0.6874  2.0029 -0.0969
 8965TIP3    H248387   0.424   2.110   1.661  1.1197 -1.9761  1.3095
 8966TIP3   OH248388   5.859   2.950  15.443 -0.1430 -0.0074 -0.0488
 8966TIP3    H148389   5.797   3.019  15.419 -0.6461 -0.7912 -1.1012
 8966TIP3    H248390   5.839   2.930  15.534 -0.2038  1.0077  0.1696
 8967TIP3   OH248391   4.248   0.818   1.736 -0.4080  0.4412 -0.6761
 8967TIP3    H148392   4.271   0.795   1.647  1.5864  1.0184 -0.3595
 8967TIP3    H248393   4.249   0.735   1.784 -0.5404  0.2557 -0.9913
 8968TIP3   OH248394   1.902   3.884  13.015  0.2197 -0.5093  0.4066
 8968TIP3    H148395   1.975   3.946  13.013  0.4266 -0.7194  1.1609
 8968TIP3    H248396   1.904   3.841  12.929  0.1087  0.4798 -0.1025
 8969TIP3   OH248397   0.780   1.201   4.972  0.3146  0.0053 -0.1554
 8969TIP3    H148398   0.807   1.271   4.913  1.9994 -0.4038  0.0817
 8969TIP3    H248399   0.757   1.245   5.054  0.9236  0.3283 -0.1531
 8970TIP3   OH248400   2.062   0.434   5.947 -0.0685 -0.1905 -0.0064
 8970TIP3    H148401   2.018   0.420   5.864 -2.6768  0.2551  1.2019
 8970TIP3    H248402   2.089   0.526   5.945  1.6638 -0.6775 -1.0846
 8971TIP3   OH248403   4.341   5.782  17.300 -0.2268 -0.2105 -0.5592
 8971TIP3    H148404   4.380   5.707  17.255  0.8422  0.1723 -0.3104
 8971TIP3    H248405   4.415   5.825  17.342 -0.8638  0.8434 -0.4876
 8972TIP3   OH248406   3.498   2.227   0.216 -0.7094  0.3034  0.2843
 8972TIP3    H148407   3.495   2.192   0.127  1.3242  1.7356 -0.4217
 8972TIP3    H248408   3.578   2.190   0.254 -1.2370  0.1915  1.3511
 8973TIP3   OH248409   3.879   2.463  16.258  0.3334  0.5005 -0.3289
 8973TIP3    H148410   3.798   2.447  16.210  1.5550  0.2675 -2.4240
 8973TIP3    H248411   3.929   2.382  16.248  1.2570  1.0179  0.0534
 8974TIP3   OH248412   2.559   1.528   5.079 -0.6670  0.0543 -0.1387
 8974TIP3    H148413   2.549   1.495   4.990  2.4828  1.9997 -1.3685
 8974TIP3    H248414   2.473   1.566   5.100 -1.4739 -0.4115 -2.3195
 8975TIP3   OH248415   1.328   1.385  10.753  0.4491  0.2467  0.4291
 8975TIP3    H148416   1.402   1.384  10.691 -1.0037 -1.7078 -1.4586
 8975TIP3    H248417   1.252   1.409  10.699 -0.8152 -1.1183  1.5186
 8976TIP3   OH248418   1.607   5.115  17.129 -0.1941 -0.3915  0.8719
 8976TIP3    H148419   1.590   5.086  17.039 -1.0288 -1.3226  1.3117
 8976TIP3    H248420   1.567   5.048  17.183 -0.0661  0.3880  1.9503
 8977TIP3   OH248421   1.070   0.805  16.488 -0.2581  0.1856 -0.2733
 8977TIP3    H148422   1.133   0.743  16.524  0.0237 -0.4072 -1.7171
 8977TIP3    H248423   1.123   0.869  16.441 -0.5882  1.1919  0.7000
 8978TIP3   OH248424   2.155   4.185  13.920 -0.0979 -0.1680  0.1719
 8978TIP3    H148425   2.220   4.115  13.927 -0.0847 -0.0985  0.8503
 8978TIP3    H248426   2.083   4.155  13.976 -0.2811  0.1573  0.1103
 8979TIP3   OH248427   0.887   0.193   6.288  0.4205 -0.0555 -0.2103
 8979TIP3    H148428   0.957   0.244   6.328  0.6602 -0.7043  0.2137
 8979TIP3    H248429   0.932   0.120   6.245 -0.0321 -0.9099  0.7224
 8980TIP3   OH248430   0.143   4.284   0.791 -0.6106  0.2495 -0.3809
 8980TIP3    H148431   0.066   4.316   0.746  0.2856  0.1786 -2.0198
 8980TIP3    H248432   0.215   4.338   0.759 -0.0279  0.7803  1.6306
 8981TIP3   OH248433   4.984   0.319  12.425 -0.1674 -0.1731 -0.1114
 8981TIP3    H148434   4.948   0.343  12.511  1.5529  0.2575  0.5232
 8981TIP3    H248435   5.035   0.395  12.398 -1.7753  0.2442 -2.1992
 8982TIP3   OH248436   4.720   0.112  12.026  0.5007  0.4966 -0.0436
 8982TIP3    H148437   4.724   0.023  12.060 -0.7093 -0.0145 -1.1782
 8982TIP3    H248438   4.629   0.140  12.041  0.5536  1.0985 -0.7638
 8983TIP3   OH248439   6.768   2.763  14.378  0.3913 -0.2821 -0.5881
 8983TIP3    H148440   6.806   2.728  14.459  1.4373  0.0987 -0.8987
 8983TIP3    H248441   6.738   2.851  14.402 -0.4138 -0.6227 -0.3154
 8984TIP3   OH248442   4.101   3.464   3.860  0.2408 -0.3640 -0.0309
 8984TIP3    H148443   4.086   3.556   3.882 -0.3007 -0.6695  0.9481
 8984TIP3    H248444   4.133   3.465   3.770 -1.1792  0.6729 -0.5427
 8985TIP3   OH248445   2.328   4.817  13.640  0.0118 -0.8874  0.7011
 8985TIP3    H148446   2.338   4.725  13.664 -1.4635 -1.1339  0.4700
 8985TIP3    H248447   2.414   4.844  13.609  0.5701 -2.0608  1.1964
 8986TIP3   OH248448   6.432   1.196  15.998  0.1230  0.0741  0.0374
 8986TIP3    H148449   6.440   1.111  16.041  1.7362  0.7618  1.1922
 8986TIP3    H248450   6.520   1.234  16.003 -0.5890  1.8600 -0.3183
 8987TIP3   OH248451   5.981   1.996  13.205 -0.2549  0.4073  1.0094
 8987TIP3    H148452   5.918   1.924  13.216 -1.0398  1.3385  3.1525
 8987TIP3    H248453   6.019   1.981  13.118 -3.3163 -0.3110 -0.3603
 8988TIP3   OH248454   3.260   3.586  15.114  0.3064  0.3943 -0.2640
 8988TIP3    H148455   3.340   3.596  15.061  1.0009  1.6951  0.9578
 8988TIP3    H248456   3.280   3.515  15.175  0.6538  0.9153  0.2349
 8989TIP3   OH248457   4.962   4.834   3.684  0.2058 -0.7449  0.4167
 8989TIP3    H148458   4.956   4.760   3.624  0.0793 -1.1772  0.9574
 8989TIP3    H248459   5.028   4.892   3.644 -0.6236 -0.5057 -0.6784
 8990TIP3   OH248460   2.620   0.717  15.579 -0.2586 -0.3071  0.3511
 8990TIP3    H148461   2.535   0.761  15.574  0.1478  0.3640 -1.0845
 8990TIP3    H248462   2.624   0.663  15.500  1.1952  0.7261 -0.3168
 8991TIP3   OH248463   5.786   1.815  12.158 -0.1731  0.3266 -0.2285
 8991TIP3    H148464   5.797   1.727  12.122 -0.5030  0.4318 -0.5978
 8991TIP3    H248465   5.868   1.833  12.203 -0.3553 -0.4317  0.4276
 8992TIP3   OH248466   2.907   2.647   6.475 -0.1229 -0.4149  0.4951
 8992TIP3    H148467   2.902   2.742   6.487  1.1733 -0.2969  0.2648
 8992TIP3    H248468   2.821   2.622   6.443 -0.6985  0.5832  1.2061
 8993TIP3   OH248469   4.482   1.612  16.164  0.0830 -0.0066 -0.1618
 8993TIP3    H148470   4.408   1.669  16.185  0.9633  0.5845  1.5338
 8993TIP3    H248471   4.522   1.652  16.087 -0.1525  0.8567  0.1511
 8994TIP3   OH248472   3.624   6.013   3.940 -0.2095 -0.1193 -0.1459
 8994TIP3    H148473   3.615   6.108   3.939 -0.6867 -0.0933  2.2411
 8994TIP3    H248474   3.700   5.996   3.996 -1.3829 -1.1689  1.1971
 8995TIP3   OH248475   3.861   2.675  17.490 -0.0243 -0.0865 -0.0082
 8995TIP3    H148476   3.861   2.709  17.401 -1.7851 -0.9583 -0.3864
 8995TIP3    H248477   3.850   2.753  17.545  1.0944  0.4543 -0.5197
 8996TIP3   OH248478   4.003   4.933   4.977 -0.1158 -0.7237 -0.2940
 8996TIP3    H148479   4.094   4.905   4.991 -0.4998 -2.5825 -1.2971
 8996TIP3    H248480   3.970   4.950   5.065  1.5616  1.3036  0.0248
 8997TIP3   OH248481   5.669   3.819   5.344  0.4920  0.2355  0.0472
 8997TIP3    H148482   5.694   3.858   5.428 -0.3862 -0.7599  0.7923
 8997TIP3    H248483   5.585   3.859   5.322  0.8510  0.6971 -0.4992
 8998TIP3   OH248484   0.760   2.724  15.884 -0.0269  0.4733 -0.2949
 8998TIP3    H148485   0.730   2.741  15.795  0.3101  0.6224 -0.3777
 8998TIP3    H248486   0.722   2.638  15.905 -1.6843  1.2704  0.1195
 8999TIP3   OH248487   4.842   1.413  12.233 -0.0132  0.3818  0.5392
 8999TIP3    H148488   4.834   1.365  12.316 -0.3784 -0.0698  0.2528
 8999TIP3    H248489   4.787   1.363  12.172  1.3347 -0.1063 -0.3332
 9000TIP3   OH248490   5.000   0.588  16.719 -0.5446  0.1623  0.2322
 9000TIP3    H148491   4.905   0.577  16.717 -0.8004  2.0120 -2.1245
 9000TIP3    H248492   5.014   0.680  16.738  0.7457  0.1116 -0.3357
 9001TIP3   OH248493   4.329   1.781   0.092 -0.6698  0.2790  0.3108
 9001TIP3    H148494   4.393   1.760   0.023 -0.4239  1.2668  0.2230
 9001TIP3    H248495   4.259   1.826   0.046  0.1271  2.1776  0.8820
 9002TIP3   OH248496   2.428   3.857   0.114 -0.2738  0.4457 -0.2981
 9002TIP3    H148497   2.352   3.828   0.064 -0.6801  2.1796 -0.7208
 9002TIP3    H248498   2.393   3.882   0.199  0.2867 -1.5858  0.6061
 9003TIP3   OH248499   6.318   2.413   6.062  0.0416 -0.3102 -0.3559
 9003TIP3    H148500   6.384   2.445   5.999 -0.4792  0.7720 -0.3798
 9003TIP3    H248501   6.252   2.371   6.008  0.3435 -0.7354 -0.3968
 9004TIP3   OH248502   3.802   1.673   5.886  0.0445 -0.5304 -0.1131
 9004TIP3    H148503   3.710   1.675   5.912  0.0380 -2.6690  0.2333
 9004TIP3    H248504   3.801   1.691   5.792 -0.7414 -0.6393 -0.1262
 9005TIP3   OH248505   5.541   3.177   2.118 -0.0204  0.3784  0.9300
 9005TIP3    H148506   5.567   3.100   2.067 -1.4719  0.5465 -0.1382
 9005TIP3    H248507   5.618   3.234   2.117  0.3058 -0.0495 -0.2709
 9006TIP3   OH248508   4.028   2.642   6.148  0.6846 -0.2880 -0.1519
 9006TIP3    H148509   3.996   2.726   6.117 -1.6313 -0.6709  0.9989
 9006TIP3    H248510   4.042   2.655   6.242 -1.0565 -1.4989  0.3212
 9007TIP3   OH248511   4.796   0.087   4.788  0.1048  0.1996 -0.0861
 9007TIP3    H148512   4.706   0.074   4.758  0.4135  0.7838 -1.3346
 9007TIP3    H248513   4.847   0.100   4.708  1.2430  0.2688  0.6183
 9008TIP3   OH248514   3.879   2.214  16.008  0.1494  0.2727  0.3203
 9008TIP3    H148515   3.967   2.185  16.031  0.2226  0.6800  0.5634
 9008TIP3    H248516   3.893   2.288  15.949 -0.0268 -1.0346 -1.4600
 9009TIP3   OH248517   5.190   4.786   0.987 -0.4525 -0.3257  0.0328
 9009TIP3    H148518   5.194   4.851   1.057  2.4582 -0.9088  0.5673
 9009TIP3    H248519   5.203   4.702   1.032  0.8267 -0.7712 -1.0868
 9010TIP3   OH248520   3.510   4.984  16.388 -0.3997  0.1094 -0.6941
 9010TIP3    H148521   3.585   5.027  16.347  0.6195 -0.2514  0.7328
 9010TIP3    H248522   3.546   4.905  16.429 -1.7786 -0.7281 -1.0122
 9011TIP3   OH248523   1.630   6.024  16.055 -0.4268  0.2441 -0.1358
 9011TIP3    H148524   1.680   6.041  16.135  1.0964  0.2855 -1.0508
 9011TIP3    H248525   1.556   6.085  16.060  0.9438  1.9837  0.1337
 9012TIP3   OH248526   5.894   5.358   6.114 -0.2619 -0.5847  0.3254
 9012TIP3    H148527   5.940   5.298   6.173 -0.5087  0.8455  2.0760
 9012TIP3    H248528   5.954   5.431   6.103 -0.9042 -0.0761  0.1753
 9013TIP3   OH248529   5.343   5.036   4.505 -0.3553  0.2129  0.0723
 9013TIP3    H148530   5.267   5.038   4.563  0.6723 -1.7958  1.6307
 9013TIP3    H248531   5.418   5.052   4.562  0.5751 -0.2700 -0.9675
 9014TIP3   OH248532   5.049   1.393  16.961  0.8535  0.0869 -0.0955
 9014TIP3    H148533   5.101   1.472  16.972  2.0092 -0.3941 -1.6421
 9014TIP3    H248534   4.986   1.415  16.892  0.4417 -0.0043  0.2484
 9015TIP3   OH248535   2.642   1.554   1.125 -0.3673  0.0719  0.0261
 9015TIP3    H148536   2.656   1.649   1.126 -0.2730  0.0548  0.8332
 9015TIP3    H248537   2.548   1.544   1.113 -0.4532  0.2769  0.5268
 9016TIP3   OH248538   0.467   3.031  16.584 -0.0928  0.3421 -0.1153
 9016TIP3    H148539   0.491   3.104  16.526  1.3434 -0.4334 -0.5416
 9016TIP3    H248540   0.533   3.034  16.654 -0.5582 -0.0045  0.3425
 9017TIP3   OH248541   1.059   5.838  12.059  0.1138  0.1119 -0.3038
 9017TIP3    H148542   1.108   5.855  11.978 -0.3587  1.4317 -0.3492
 9017TIP3    H248543   0.983   5.788  12.031  0.2720  0.0216 -0.5802
 9018TIP3   OH248544   5.180   2.644  13.922  0.5747  0.4885 -0.1896
 9018TIP3    H148545   5.103   2.592  13.898 -0.1905  1.7341 -0.5494
 9018TIP3    H248546   5.146   2.734  13.929  2.0627  1.1032 -0.6321
 9019TIP3   OH248547   5.379   5.462   2.964 -0.0334 -0.0690  0.5059
 9019TIP3    H148548   5.403   5.554   2.971 -1.2034  0.2204  0.8670
 9019TIP3    H248549   5.425   5.431   2.886 -0.6781  1.1548 -0.3815
 9020TIP3   OH248550   3.952   1.397   1.403  0.0304  0.0672 -0.0202
 9020TIP3    H148551   3.975   1.371   1.314 -0.5563  0.6294 -0.3424
 9020TIP3    H248552   3.932   1.490   1.396  1.5367  0.5079  0.9977
 9021TIP3   OH248553   5.758   5.272  15.463 -0.2858 -0.4399  0.0434
 9021TIP3    H148554   5.697   5.282  15.390 -0.7157  1.3942  0.5991
 9021TIP3    H248555   5.719   5.204  15.517 -1.5451  0.2543  0.0629
 9022TIP3   OH248556   3.571   0.737   2.385  0.3397 -0.2041 -0.4829
 9022TIP3    H148557   3.552   0.667   2.323 -1.6436 -0.3741  0.2233
 9022TIP3    H248558   3.524   0.813   2.350  1.2137  0.3795 -0.4336
 9023TIP3   OH248559   5.365   0.459   6.844 -0.6086 -0.1507 -1.4691
 9023TIP3    H148560   5.454   0.495   6.841 -0.6852  0.2244 -0.1668
 9023TIP3    H248561   5.374   0.379   6.897 -1.3286  0.9255  0.3775
 9024TIP3   OH248562   0.299   1.748  16.209  0.2676 -0.4956 -0.0117
 9024TIP3    H148563   0.390   1.763  16.186 -0.0246 -0.8281 -1.5224
 9024TIP3    H248564   0.250   1.804  16.148 -0.5398 -0.4796  0.6396
 9025TIP3   OH248565   6.182   0.198   0.468  0.6412  0.3380  0.1530
 9025TIP3    H148566   6.169   0.173   0.376 -0.7639 -0.6725  0.5942
 9025TIP3    H248567   6.170   0.117   0.517  2.8854  0.5403  1.1582
 9026TIP3   OH248568   4.685   2.468   0.082 -0.2284 -0.0984  0.6033
 9026TIP3    H148569   4.764   2.520   0.098 -0.9365  1.3306 -0.3138
 9026TIP3    H248570   4.652   2.447   0.169  1.3995 -1.1450  1.0164
 9027TIP3   OH248571   5.759   2.801  16.505 -0.3575  0.2651 -0.2380
 9027TIP3    H148572   5.840   2.793  16.555 -1.1295 -1.0903  0.8740
 9027TIP3    H248573   5.706   2.725  16.532 -1.0077 -0.2834 -2.8002
 9028TIP3   OH248574   2.737   0.430   3.950  0.0195 -0.1106 -0.1519
 9028TIP3    H148575   2.652   0.417   3.993 -0.1096 -2.6578 -1.0254
 9028TIP3    H248576   2.775   0.506   3.994 -1.7668 -0.2612  1.7834
 9029TIP3   OH248577   5.385   3.756   3.551  0.7945 -0.4608 -0.1558
 9029TIP3    H148578   5.299   3.785   3.521  1.2122 -0.6919 -1.6793
 9029TIP3    H248579   5.447   3.800   3.492  1.8056  0.4980  1.5452
 9030TIP3   OH248580   3.429   3.970  14.859 -0.0454 -0.2537  0.1998
 9030TIP3    H148581   3.502   4.011  14.906 -0.0162  0.9073 -0.8133
 9030TIP3    H248582   3.424   3.881  14.896 -1.2201  1.0970  3.7748
 9031TIP3   OH248583   1.138   6.132   5.983  0.4404 -0.0184 -0.1186
 9031TIP3    H148584   1.111   6.103   6.070 -0.3094  2.2053  0.4676
 9031TIP3    H248585   1.212   6.075   5.960  0.6196 -0.7025  1.9480
 9032TIP3   OH248586   4.148   3.517  11.377  0.5350  0.4630  0.4040
 9032TIP3    H148587   4.225   3.536  11.323 -0.4226  1.2033 -0.7551
 9032TIP3    H248588   4.140   3.422  11.374  0.2030  0.5213 -1.2211
 9033TIP3   OH248589   3.451   0.900   2.674 -0.0648 -0.0779 -0.2536
 9033TIP3    H148590   3.485   0.925   2.588  0.3781 -0.7510 -0.2797
 9033TIP3    H248591   3.366   0.944   2.680  0.4321  0.9493 -0.5348
 9034TIP3   OH248592   3.359   2.376   2.847 -1.0149 -0.0328  0.3582
 9034TIP3    H148593   3.408   2.414   2.920 -2.4457  2.0194  0.3613
 9034TIP3    H248594   3.424   2.360   2.780 -0.1580  1.6668  0.7224
 9035TIP3   OH248595   2.254   3.498   3.297  0.4949  0.1386  0.1372
 9035TIP3    H148596   2.295   3.419   3.333  0.4051  0.0023 -0.0576
 9035TIP3    H248597   2.263   3.489   3.202  0.9928  0.6435  0.1360
 9036TIP3   OH248598   0.422   4.157  12.331 -0.2591  1.0153  0.2792
 9036TIP3    H148599   0.401   4.064  12.328 -2.1805  1.4238 -0.0791
 9036TIP3    H248600   0.504   4.161  12.381 -1.4012 -0.6849  2.4611
 9037TIP3   OH248601   0.805   2.853  16.603  0.1258 -0.1010  0.4229
 9037TIP3    H148602   0.898   2.833  16.588 -0.0629 -0.8348  0.2042
 9037TIP3    H248603   0.774   2.886  16.519  0.3460  0.7915  0.6789
 9038TIP3   OH248604   0.621   6.547  14.555  0.2200 -0.5112 -0.3845
 9038TIP3    H148605   0.685   6.501  14.609  3.0176 -0.2087 -3.1654
 9038TIP3    H248606   0.583   6.479  14.499 -0.8287 -0.4350  0.2034
 9039TIP3   OH248607   6.392   5.709  12.485  0.6394 -0.2961 -0.8343
 9039TIP3    H148608   6.320   5.736  12.542  1.4050 -2.3458  1.2299
 9039TIP3    H248609   6.356   5.716  12.396 -2.3278 -1.7230  0.1249
 9040TIP3   OH248610   4.701   1.902   0.635 -0.1441 -0.2667  0.2443
 9040TIP3    H148611   4.712   1.809   0.654 -1.7228 -0.5030  0.1630
 9040TIP3    H248612   4.692   1.944   0.721 -2.6359 -0.6857  0.2726
 9041TIP3   OH248613   2.845   6.336  14.914 -0.3455  0.8710 -0.2941
 9041TIP3    H148614   2.905   6.272  14.951  0.1787 -0.0389 -2.5680
 9041TIP3    H248615   2.902   6.403  14.876 -0.8808  2.6208  1.7864
 9042TIP3   OH248616   3.503   4.014   2.776 -0.2467  0.1684  0.2693
 9042TIP3    H148617   3.535   4.006   2.686 -0.8872 -0.2685  0.0749
 9042TIP3    H248618   3.465   4.102   2.780  0.2862  0.4001  0.2807
 9043TIP3   OH248619   2.340   0.834  15.537 -0.0981 -0.4022  0.2084
 9043TIP3    H148620   2.253   0.821  15.574 -0.2791 -2.4902 -0.8138
 9043TIP3    H248621   2.325   0.842  15.443  0.9144 -2.6651 -0.1933
 9044TIP3   OH248622   2.996   4.512   0.416 -0.3371  0.0397 -0.1324
 9044TIP3    H148623   2.996   4.584   0.353 -0.4653 -0.7367 -1.0413
 9044TIP3    H248624   2.904   4.491   0.429 -0.2801 -0.2794 -0.2423
 9045TIP3   OH248625   5.684   5.770   6.422  0.0137 -0.2492 -0.3781
 9045TIP3    H148626   5.646   5.850   6.459  0.3392  0.4297 -1.4396
 9045TIP3    H248627   5.775   5.771   6.452 -0.1509 -0.5647  0.1359
 9046TIP3   OH248628   3.832   0.682  14.563 -0.1833  0.4297 -0.1617
 9046TIP3    H148629   3.823   0.767  14.606 -2.1707  0.6670 -0.9431
 9046TIP3    H248630   3.771   0.686  14.490  0.9094 -1.0808 -1.2148
 9047TIP3   OH248631   5.684   5.737   2.462 -0.1456  0.3497  0.1185
 9047TIP3    H148632   5.713   5.783   2.541  3.1880 -2.9541  1.0748
 9047TIP3    H248633   5.729   5.781   2.390  1.9086 -0.4542  0.8545
 9048TIP3   OH248634   6.220   5.043  14.852 -0.6123 -0.1032 -0.1993
 9048TIP3    H148635   6.138   5.003  14.881  0.3235 -0.8151  1.6669
 9048TIP3    H248636   6.250   5.092  14.928  0.9513 -0.2908 -0.6718
 9049TIP3   OH248637   2.135   0.705   5.889 -0.1097 -0.7645  1.1469
 9049TIP3    H148638   2.181   0.768   5.945 -0.3350  1.4216 -0.9997
 9049TIP3    H248639   2.043   0.726   5.900 -0.1399 -0.0789 -0.2706
 9050TIP3   OH248640   3.175   6.157   1.587  0.1547 -1.1540  0.7577
 9050TIP3    H148641   3.227   6.174   1.666 -0.2507 -1.3491  1.0677
 9050TIP3    H248642   3.205   6.071   1.558  1.2664 -0.5177 -0.0701
 9051TIP3   OH248643   1.443   5.917   4.037 -0.8544 -1.0140 -0.4600
 9051TIP3    H148644   1.381   5.879   4.099  0.6522 -2.7456  0.1134
 9051TIP3    H248645   1.451   6.008   4.063 -0.6148 -1.5774  1.6519
 9052TIP3   OH248646   6.410   1.685  13.878 -0.0938  0.3699 -0.6879
 9052TIP3    H148647   6.467   1.713  13.807 -0.0038  2.2526  0.0749
 9052TIP3    H248648   6.397   1.763  13.931  0.3681 -1.0909  1.7413
 9053TIP3   OH248649   5.570   1.957  15.653 -0.0313 -0.3977 -0.1234
 9053TIP3    H148650   5.645   1.947  15.712  0.3184  2.8109  0.1736
 9053TIP3    H248651   5.609   1.986  15.570 -0.8987  1.3017  0.0353
 9054TIP3   OH248652   4.201   4.405   4.573 -0.7698  0.2243 -0.6166
 9054TIP3    H148653   4.129   4.457   4.539  0.6529  0.4914 -3.5555
 9054TIP3    H248654   4.260   4.469   4.612 -1.3797  0.1746  0.4178
 9055TIP3   OH248655   4.106   0.635  14.056  0.3036  0.3689 -0.5889
 9055TIP3    H148656   4.022   0.633  14.102 -0.0091  0.6310 -1.1458
 9055TIP3    H248657   4.097   0.705  13.992  1.0649  0.6090 -0.4361
 9056TIP3   OH248658   1.388   2.572   4.054  0.5109 -0.5466  0.2202
 9056TIP3    H148659   1.426   2.557   3.968 -0.2805 -3.3744  0.2724
 9056TIP3    H248660   1.451   2.534   4.115  1.0906  1.4743  0.9665
 9057TIP3   OH248661   2.256   3.968  15.827  0.5690  0.0201  0.0890
 9057TIP3    H148662   2.217   3.886  15.857  1.3602 -0.2622  0.3889
 9057TIP3    H248663   2.190   4.008  15.771  0.1206 -0.7536  0.0605
 9058TIP3   OH248664   5.782   3.596  13.291  0.1154  0.6576 -0.2189
 9058TIP3    H148665   5.831   3.660  13.239  1.0256  0.7472  0.7217
 9058TIP3    H248666   5.815   3.607  13.380 -0.9774  0.0784  0.2737
 9059TIP3   OH248667   4.333   2.876   0.290  0.2415  0.3273  0.2713
 9059TIP3    H148668   4.309   2.833   0.208 -0.1798  3.0854 -1.1730
 9059TIP3    H248669   4.341   2.805   0.353  1.3059 -2.0228 -2.2886
 9060TIP3   OH248670   2.324   4.621  17.358 -0.4262  0.5075  0.2814
 9060TIP3    H148671   2.231   4.619  17.380 -0.3888  3.1479  1.1234
 9060TIP3    H248672   2.357   4.535  17.385 -2.5088 -0.3166  0.3894
 9061TIP3   OH248673   4.365   5.147  15.202 -0.3428  0.4116 -0.4354
 9061TIP3    H148674   4.413   5.192  15.271 -1.0375 -0.1042  0.4084
 9061TIP3    H248675   4.357   5.211  15.132  0.0528  1.0672  0.1112
 9062TIP3   OH248676   3.430   5.540   5.361  0.0558  0.2918 -0.1662
 9062TIP3    H148677   3.404   5.477   5.294 -0.5248 -0.4921  0.7563
 9062TIP3    H248678   3.525   5.531   5.369 -0.1440 -1.4532  0.8534
 9063TIP3   OH248679   4.915   5.716   0.643 -0.1714 -0.2747  0.3069
 9063TIP3    H148680   4.999   5.683   0.676 -0.1953 -0.7347 -0.0907
 9063TIP3    H248681   4.855   5.643   0.653 -0.6211  0.1711  0.9356
 9064TIP3   OH248682   5.255   0.909  16.805 -0.0895 -0.0223  0.8208
 9064TIP3    H148683   5.159   0.914  16.799 -0.0402  0.4120  0.3731
 9064TIP3    H248684   5.272   0.890  16.897 -0.6849 -2.0846  0.5567
 9065TIP3   OH248685   6.676   2.652   4.913  0.4333 -0.1708 -0.2825
 9065TIP3    H148686   6.762   2.654   4.872  1.0279 -1.9126  0.7718
 9065TIP3    H248687   6.692   2.624   5.003 -0.5648  5.4977  2.1074
 9066TIP3   OH248688   3.299   0.028   4.679 -0.0498  0.2651 -0.2356
 9066TIP3    H148689   3.254   0.003   4.598  0.3530  1.1762 -0.7587
 9066TIP3    H248690   3.359  -0.045   4.697 -1.3066 -0.6950  0.1586
 9067TIP3   OH248691   0.116   2.208  11.999  0.1942 -0.2921  0.0083
 9067TIP3    H148692   0.103   2.175  12.088 -2.2432 -2.3538 -0.9976
 9067TIP3    H248693   0.028   2.216  11.963  1.1380 -1.1769 -2.7795
 9068TIP3   OH248694   4.991   1.385   1.516 -1.1299  0.0906 -0.0106
 9068TIP3    H148695   4.976   1.327   1.591 -0.4097 -1.5570 -1.0785
 9068TIP3    H248696   4.965   1.333   1.440  1.0419  0.5212 -1.1378
 9069TIP3   OH248697   3.245   0.127  13.896  0.0574 -0.1217 -0.3521
 9069TIP3    H148698   3.282   0.041  13.879 -0.3182 -0.4680  0.5036
 9069TIP3    H248699   3.232   0.166  13.809  3.6302  0.5799 -0.7101
 9070TIP3   OH248700   1.952   0.900  17.030 -0.5435  0.6476 -0.2738
 9070TIP3    H148701   1.989   0.983  17.000 -0.3877  0.3675 -0.8742
 9070TIP3    H248702   2.019   0.835  17.011 -1.1616  0.1956 -0.9966
 9071TIP3   OH248703   0.846   0.844   6.007  0.1548 -0.1887 -0.0130
 9071TIP3    H148704   0.773   0.902   5.986  0.9023  0.5996 -0.5062
 9071TIP3    H248705   0.868   0.802   5.923 -0.4881 -1.3218  0.3727
 9072TIP3   OH248706   4.386   3.217   3.789  0.3425  1.0714 -0.4363
 9072TIP3    H148707   4.319   3.156   3.820  0.5979  0.3554 -1.2434
 9072TIP3    H248708   4.341   3.271   3.724  0.5307  0.5764 -0.9941
 9073TIP3   OH248709   3.836   0.757   2.296 -0.6316  0.2327  0.4394
 9073TIP3    H148710   3.851   0.664   2.277  1.3224  0.4943  0.4844
 9073TIP3    H248711   3.752   0.758   2.342 -1.4601 -1.3189 -0.9206
 9074TIP3   OH248712   1.451   6.033   6.006 -0.1914  0.2760  0.1731
 9074TIP3    H148713   1.400   6.026   6.087 -0.5451  0.6627 -0.0146
 9074TIP3    H248714   1.532   5.986   6.025  0.1403  1.1850  1.0792
 9075TIP3   OH248715   4.714   1.906  16.316  0.1976  0.5716  0.1328
 9075TIP3    H148716   4.748   1.895  16.227  0.9102 -1.4867  0.5904
 9075TIP3    H248717   4.624   1.936  16.303 -0.0327 -0.5831 -1.3443
 9076TIP3   OH248718   2.755   3.297   3.516 -0.1971  0.6616  0.2689
 9076TIP3    H148719   2.810   3.266   3.445 -0.1773  1.9363 -0.2857
 9076TIP3    H248720   2.756   3.225   3.580 -0.6504 -0.7390 -1.2229
 9077TIP3   OH248721   0.335   6.238  14.963 -0.0870  0.3515 -0.6013
 9077TIP3    H148722   0.250   6.256  15.004  0.6830  0.6264  0.9579
 9077TIP3    H248723   0.350   6.312  14.906 -0.5630  0.6761 -0.3146
 9078TIP3   OH248724   4.158   1.109  15.956 -0.0182  0.4635 -0.9294
 9078TIP3    H148725   4.192   1.161  16.028 -1.2800  1.5484 -1.0957
 9078TIP3    H248726   4.231   1.050  15.933 -0.3089 -1.6379  2.7296
 9079TIP3   OH248727   5.651   5.590   5.418 -0.2247  0.1275  0.0316
 9079TIP3    H148728   5.562   5.599   5.384 -0.6200 -0.7691  0.7770
 9079TIP3    H248729   5.662   5.496   5.431  0.0962  0.3658  1.8343
 9080TIP3   OH248730   5.800   5.993  12.332 -0.0996 -0.1759  0.2333
 9080TIP3    H148731   5.739   6.053  12.288 -0.0597  0.0822  0.5281
 9080TIP3    H248732   5.784   6.007  12.425 -0.9083 -1.4473  0.3181
 9081TIP3   OH248733   1.950   2.292  16.787 -0.0097 -0.1702  0.0045
 9081TIP3    H148734   1.982   2.266  16.700  2.2426  1.1286  0.3616
 9081TIP3    H248735   1.977   2.220  16.844  0.4080 -0.0615 -0.0494
 9082TIP3   OH248736   5.537   5.541   2.738  0.2983  1.0046 -0.8389
 9082TIP3    H148737   5.554   5.628   2.773 -0.5886  0.8693 -0.0052
 9082TIP3    H248738   5.618   5.516   2.694  0.2065  2.6874 -2.0821
 9083TIP3   OH248739   3.586   5.349   4.365 -0.4795 -0.0094 -0.0379
 9083TIP3    H148740   3.655   5.320   4.426  0.4577  0.2272 -0.9518
 9083TIP3    H248741   3.556   5.268   4.324 -0.6493 -0.1014  0.2669
 9084TIP3   OH248742   6.328   6.727  13.148 -0.3375 -0.2864  0.1189
 9084TIP3    H148743   6.285   6.658  13.098 -1.0657 -1.6532  2.4732
 9084TIP3    H248744   6.421   6.704  13.147  0.1879  1.3614 -2.9637
 9085TIP3   OH248745   5.837   3.159  16.077 -0.2337  0.4868 -0.3375
 9085TIP3    H148746   5.909   3.217  16.103 -0.4841  0.8810 -0.5130
 9085TIP3    H248747   5.844   3.085  16.136  1.2664 -0.2133 -1.3080
 9086TIP3   OH248748   5.588   5.267  14.951 -0.7172  0.5752  0.3766
 9086TIP3    H148749   5.618   5.350  14.987 -0.4467  0.1524  1.1547
 9086TIP3    H248750   5.581   5.282  14.857 -0.5770  1.4452  0.4995
 9087TIP3   OH248751   6.714   5.370  13.442  0.0357 -0.3682  0.1595
 9087TIP3    H148752   6.723   5.311  13.517 -0.5002  2.1402  2.3508
 9087TIP3    H248753   6.779   5.438  13.456  0.1457  0.0232 -1.8889
 9088TIP3   OH248754   4.156   1.093   2.870 -0.1685  0.6558 -0.4081
 9088TIP3    H148755   4.229   1.106   2.932  0.6353  0.5471 -1.3167
 9088TIP3    H248756   4.096   1.035   2.917  0.3690  0.6606  0.3216
 9089TIP3   OH248757   4.567   3.162  14.498  0.0530  0.2422  0.2638
 9089TIP3    H148758   4.478   3.187  14.524  0.1319  0.1278  0.6524
 9089TIP3    H248759   4.614   3.150  14.581  0.2237 -0.4458  0.0738
 9090TIP3   OH248760   4.812   5.686  10.947  0.0710 -0.5620  0.3541
 9090TIP3    H148761   4.831   5.777  10.970  0.3611 -0.7760  0.9659
 9090TIP3    H248762   4.897   5.648  10.924 -0.4732  0.6925 -5.1775
 9091TIP3   OH248763   1.474   1.586   1.741  0.1258 -0.0822 -0.0174
 9091TIP3    H148764   1.450   1.594   1.649 -1.3132 -0.1680  0.3230
 9091TIP3    H248765   1.506   1.497   1.751 -0.4234 -0.3126 -0.2953
 9092TIP3   OH248766   3.768   2.657  10.947  0.2238 -0.3232  0.0378
 9092TIP3    H148767   3.700   2.714  10.910  2.0871  2.0298 -0.0519
 9092TIP3    H248768   3.771   2.582  10.888 -0.9468  0.4769 -1.1057
 9093TIP3   OH248769   1.369   3.905  15.455  0.2064 -0.5511  0.0393
 9093TIP3    H148770   1.402   3.849  15.385 -0.4204 -0.4509 -0.3401
 9093TIP3    H248771   1.295   3.858  15.491  0.2777 -0.4136  0.3647
 9094TIP3   OH248772   0.025   4.093   2.706  0.1017 -0.2071 -0.3256
 9094TIP3    H148773  -0.007   4.183   2.711  0.9164  0.0499  0.6863
 9094TIP3    H248774  -0.039   4.042   2.754 -0.0925 -0.0899 -0.4585
 9095TIP3   OH248775   5.629   4.098  17.340 -0.1269  0.4167 -0.1436
 9095TIP3    H148776   5.572   4.138  17.406  0.4994  0.7801  0.1782
 9095TIP3    H248777   5.614   4.004  17.349  0.9533  0.3624  1.4463
 9096TIP3   OH248778   0.997   5.755  11.666  0.4927  0.2891  0.1223
 9096TIP3    H148779   0.974   5.662  11.673  1.0794 -0.0614 -1.8672
 9096TIP3    H248780   0.913   5.801  11.667  0.0562 -0.4573 -0.9911
 9097TIP3   OH248781   6.540   0.334   5.275 -0.5223  0.2262  0.0233
 9097TIP3    H148782   6.475   0.265   5.264 -2.2530  1.5672  1.1559
 9097TIP3    H248783   6.537   0.354   5.369  2.2156 -0.2419  0.2930
 9098TIP3   OH248784   0.747   5.840  12.364 -0.5856 -0.6225 -0.5761
 9098TIP3    H148785   0.704   5.817  12.282 -1.6369 -1.4774  0.1904
 9098TIP3    H248786   0.838   5.812  12.352 -0.0890  1.5373 -2.3490
 9099TIP3   OH248787   2.543   6.634  16.219 -0.4767 -0.4089 -0.6437
 9099TIP3    H148788   2.469   6.596  16.172  1.4156 -1.2187 -3.1360
 9099TIP3    H248789   2.575   6.705  16.163  0.9918 -0.4428  0.0899
 9100TIP3   OH248790   0.301   4.583  13.887  0.0228  0.5446  0.0190
 9100TIP3    H148791   0.246   4.644  13.936  0.5310  2.2208 -1.4328
 9100TIP3    H248792   0.309   4.507  13.946 -2.4425  0.9005  0.9655
 9101TIP3   OH248793   5.305   4.693  16.893 -0.4811 -0.1075 -0.0558
 9101TIP3    H148794   5.236   4.754  16.919  1.8193  1.6928  2.4060
 9101TIP3    H248795   5.292   4.617  16.949  0.0791  0.6698  1.1782
 9102TIP3   OH248796   3.946   6.290  12.883  0.2993  0.2665  0.1649
 9102TIP3    H148797   3.958   6.380  12.915 -0.4179  0.3951  0.0873
 9102TIP3    H248798   4.013   6.240  12.929  0.0759  0.6703  0.9570
 9103TIP3   OH248799   3.733   0.255  16.092 -0.1852  0.1405  0.2008
 9103TIP3    H148800   3.693   0.168  16.086 -0.8921  0.5004 -0.4967
 9103TIP3    H248801   3.762   0.274  16.003 -1.1564  1.1300  0.0775
 9104TIP3   OH248802   3.853   2.014   5.819  0.3628 -0.6727  0.3149
 9104TIP3    H148803   3.863   2.054   5.905  0.4834 -1.6864  0.7888
 9104TIP3    H248804   3.943   1.998   5.790  0.3533  0.5651 -0.4474
 9105TIP3   OH248805   0.767   5.769  14.624 -0.5466  0.0738 -0.2465
 9105TIP3    H148806   0.719   5.804  14.548 -0.1813 -0.5727 -0.7785
 9105TIP3    H248807   0.790   5.680  14.599 -2.1808 -0.8729  1.4118
 9106TIP3   OH248808   4.009   5.786   5.078 -0.3412 -0.5011  0.4251
 9106TIP3    H148809   3.991   5.730   5.153 -0.7644 -1.7498 -0.5690
 9106TIP3    H248810   3.930   5.839   5.067 -0.8438 -1.3279  0.0120
 9107TIP3   OH248811   3.881   6.598  11.635  0.1305  0.0983  0.0850
 9107TIP3    H148812   3.926   6.514  11.644  0.8111  0.2347 -1.7181
 9107TIP3    H248813   3.899   6.626  11.546 -0.7725  1.7860  0.3857
 9108TIP3   OH248814   6.712   4.036  15.022 -0.1764 -0.1706 -0.0426
 9108TIP3    H148815   6.784   3.982  15.054  0.3955  0.8611  0.4295
 9108TIP3    H248816   6.661   4.057  15.100 -0.8378 -0.6289 -0.3301
 9109TIP3   OH248817   0.656   3.382  12.180 -0.1498 -0.5203 -0.4862
 9109TIP3    H148818   0.714   3.327  12.128  1.0382  0.4913 -0.2852
 9109TIP3    H248819   0.647   3.335  12.263 -1.2931 -1.6745 -1.2362
 9110TIP3   OH248820   0.039   1.807   5.243 -0.1402 -0.0243  0.0684
 9110TIP3    H148821   0.094   1.730   5.257 -2.0028 -1.1121  1.8455
 9110TIP3    H248822   0.093   1.881   5.272  0.3110 -1.0889  2.0675
 9111TIP3   OH248823   3.315   3.145   5.769 -0.4163  0.0470 -0.1780
 9111TIP3    H148824   3.341   3.237   5.771 -2.0708  0.5661  2.5663
 9111TIP3    H248825   3.377   3.104   5.708  0.2769  2.9527 -1.5989
 9112TIP3   OH248826   0.974   2.585  15.838  0.4298  0.4200  0.0347
 9112TIP3    H148827   0.910   2.634  15.890 -0.5026 -0.5606 -0.1554
 9112TIP3    H248828   0.938   2.585  15.750  0.8975  0.1964 -0.1590
 9113TIP3   OH248829   2.969   1.584   1.957  0.2582  0.1654 -0.5449
 9113TIP3    H148830   2.987   1.624   2.042 -1.0481 -0.3098 -0.0209
 9113TIP3    H248831   2.923   1.652   1.908  1.6146  0.6814 -1.1526
 9114TIP3   OH248832   1.068   2.176  17.052  0.4630  0.0948 -0.3686
 9114TIP3    H148833   1.036   2.174  16.961  0.7478 -0.5024 -0.4595
 9114TIP3    H248834   1.108   2.263  17.061  2.5846 -0.6598 -1.5902
 9115TIP3   OH248835   4.194   6.400  12.097  0.9652 -1.0841 -0.0869
 9115TIP3    H148836   4.115   6.451  12.082  3.0158  1.8320 -1.9571
 9115TIP3    H248837   4.189   6.374  12.189 -1.3061  0.4928  0.3085
 9116TIP3   OH248838   1.170   0.181  14.769  0.6717  0.0697 -0.0722
 9116TIP3    H148839   1.135   0.248  14.712 -1.4068  0.0862  1.1282
 9116TIP3    H248840   1.187   0.226  14.852 -3.0683 -1.1912  1.5671
 9117TIP3   OH248841   5.637   5.551  17.061  0.3182 -0.1114 -0.4588
 9117TIP3    H148842   5.542   5.550  17.045  0.4577  1.4251 -1.6271
 9117TIP3    H248843   5.645   5.551  17.157 -0.7593 -2.5721 -0.2894
 9118TIP3   OH248844   6.083   0.974   0.231  0.0879  0.2093 -0.3236
 9118TIP3    H148845   6.113   0.925   0.308  3.6131  0.6212 -1.2657
 9118TIP3    H248846   6.050   0.906   0.171  3.5475 -1.0407 -1.0270
 9119TIP3   OH248847   3.853   6.318  10.988  0.6386  0.4806 -0.6728
 9119TIP3    H148848   3.824   6.241  10.940  0.8844 -0.3935  0.5189
 9119TIP3    H248849   3.880   6.284  11.074  1.0280  1.8535 -0.2189
 9120TIP3   OH248850   1.590   5.591   1.178 -0.1129  0.6114  0.5746
 9120TIP3    H148851   1.600   5.499   1.204 -0.4665  0.4173  0.0342
 9120TIP3    H248852   1.679   5.620   1.156 -0.3446 -0.5401 -2.3367
 9121TIP3   OH248853   4.586   1.332   1.698  0.2784 -0.3576  1.1413
 9121TIP3    H148854   4.543   1.418   1.706 -0.3552 -0.4915 -0.5254
 9121TIP3    H248855   4.569   1.305   1.608  1.3579 -1.7825  1.3379
 9122TIP3   OH248856   6.257   2.317  10.489  0.0160 -0.0251 -0.4315
 9122TIP3    H148857   6.181   2.260  10.483  0.3789 -0.3786 -2.8211
 9122TIP3    H248858   6.221   2.404  10.505 -0.6918 -0.5425  0.9343
 9123TIP3   OH248859   1.159   1.126  15.833  0.0007 -0.0795  0.3702
 9123TIP3    H148860   1.124   1.036  15.832  0.4476 -0.2497 -0.3047
 9123TIP3    H248861   1.082   1.181  15.849 -0.6417 -0.4155 -1.3977
 9124TIP3   OH248862   2.997   2.778  14.323  0.3046 -0.2272  0.4637
 9124TIP3    H148863   2.956   2.810  14.243  1.0429 -1.2085 -0.3289
 9124TIP3    H248864   2.960   2.833  14.393 -1.7520 -0.5618 -0.3030
 9125TIP3   OH248865   2.271   4.296   4.064 -0.4193  0.2367  0.3292
 9125TIP3    H148866   2.308   4.359   4.001 -2.4551  0.1979 -1.0117
 9125TIP3    H248867   2.208   4.246   4.012  1.1170 -2.9625  1.3544
 9126TIP3   OH248868   3.517   0.815  14.531 -0.0520 -0.5347 -0.4739
 9126TIP3    H148869   3.425   0.829  14.508  0.2684 -0.2919 -1.6477
 9126TIP3    H248870   3.547   0.749  14.468  0.7850 -0.0390 -0.6026
 9127TIP3   OH248871   4.457   3.124   3.136  0.1823 -0.2634  0.3944
 9127TIP3    H148872   4.393   3.165   3.193 -0.2109 -0.0138 -0.2247
 9127TIP3    H248873   4.500   3.058   3.192 -0.1636  0.0045  0.9823
 9128TIP3   OH248874   4.691   3.479   6.677  0.2866  0.3319  0.4203
 9128TIP3    H148875   4.751   3.407   6.662 -0.3386 -0.2514  0.6663
 9128TIP3    H248876   4.616   3.461   6.621 -0.5883 -0.0908  1.6703
 9129TIP3   OH248877   2.779   1.818  11.481  0.0106 -0.4906  0.3260
 9129TIP3    H148878   2.841   1.807  11.409  0.1558 -0.6110  0.4687
 9129TIP3    H248879   2.777   1.733  11.524  0.2579 -0.2971  0.7313
 9130TIP3   OH248880   3.203   5.866   3.054  0.2368 -0.0451 -0.0046
 9130TIP3    H148881   3.239   5.808   3.121  0.8861 -0.5832 -0.8059
 9130TIP3    H248882   3.275   5.879   2.992  0.2274  1.8943  0.3162
 9131TIP3   OH248883   2.545   1.839   3.438 -0.1553  0.0543  0.3386
 9131TIP3    H148884   2.492   1.913   3.469  1.0701  0.9920  0.2569
 9131TIP3    H248885   2.481   1.779   3.400 -1.2106  0.9573  0.6186
 9132TIP3   OH248886   3.963   2.723  17.242 -0.0914 -0.4492  0.5017
 9132TIP3    H148887   3.904   2.753  17.173  1.5126 -0.4437 -0.9321
 9132TIP3    H248888   4.024   2.796  17.254  0.3867 -0.9313  1.0490
 9133TIP3   OH248889   3.768   0.945   1.443  0.3958 -0.4430 -0.0936
 9133TIP3    H148890   3.775   0.856   1.478 -0.5528 -0.8507 -0.9072
 9133TIP3    H248891   3.795   1.001   1.516 -0.0265 -1.3498  0.7800
 9134TIP3   OH248892   1.899   1.559   3.836  0.4219 -0.1821 -0.0336
 9134TIP3    H148893   1.949   1.480   3.857  1.3554  0.7628  1.4594
 9134TIP3    H248894   1.834   1.566   3.906 -0.1712 -0.0215 -0.5834
 9135TIP3   OH248895   2.876   3.180  13.986 -0.2263 -0.5287 -0.1973
 9135TIP3    H148896   2.940   3.231  14.037 -0.1988 -0.2375 -0.5220
 9135TIP3    H248897   2.794   3.191  14.033  0.2643 -2.2368  1.1591
 9136TIP3   OH248898   5.572   5.449   4.249 -0.1832 -0.7110  0.5211
 9136TIP3    H148899   5.610   5.458   4.162  0.5461 -0.3944  0.8639
 9136TIP3    H248900   5.638   5.485   4.308 -1.2814  0.5122  1.0742
 9137TIP3   OH248901   2.849   5.179  14.068 -0.0561  0.8496  0.3838
 9137TIP3    H148902   2.928   5.125  14.059 -1.3217 -0.8182 -1.5054
 9137TIP3    H248903   2.876   5.251  14.126  1.8724 -1.4852  2.6424
 9138TIP3   OH248904   1.530   6.732   3.797 -0.4157 -0.1710 -0.1242
 9138TIP3    H148905   1.445   6.734   3.752 -1.2902  1.4472  1.4888
 9138TIP3    H248906   1.516   6.675   3.872  0.0103 -0.1000  0.0113
 9139TIP3   OH248907   3.253   4.322  11.402  0.1389 -0.3433  0.1306
 9139TIP3    H148908   3.310   4.366  11.340  0.2427  1.0240  1.1591
 9139TIP3    H248909   3.164   4.339  11.369  0.1965  0.2972  0.2950
 9140TIP3   OH248910   3.497   0.015   3.865  0.3994  0.3503  0.1553
 9140TIP3    H148911   3.571   0.000   3.806  0.4920 -0.1340  0.3912
 9140TIP3    H248912   3.451  -0.069   3.868 -0.5679  0.8291 -0.5417
 9141TIP3   OH248913   4.705   4.035   1.827 -0.0719  0.3558 -0.3134
 9141TIP3    H148914   4.738   4.057   1.739 -3.1897  1.0663 -1.4188
 9141TIP3    H248915   4.651   3.957   1.813  0.5720 -0.4111  1.2889
 9142TIP3   OH248916   4.057   4.345   1.556 -0.3533  0.0962  0.4928
 9142TIP3    H148917   4.058   4.265   1.504 -0.8500  0.5133 -0.1732
 9142TIP3    H248918   4.035   4.414   1.494 -1.4062  0.5434  1.3189
 9143TIP3   OH248919   2.999   4.050  17.185 -0.1342 -0.1778  0.0062
 9143TIP3    H148920   2.914   4.079  17.218 -0.0245 -1.4092  1.4925
 9143TIP3    H248921   3.047   4.021  17.263  0.6221 -2.0579 -1.0758
 9144TIP3   OH248922   3.409   5.966   6.104 -0.0953 -0.3508  0.1036
 9144TIP3    H148923   3.419   5.873   6.080  1.4452  0.0497 -0.9605
 9144TIP3    H248924   3.476   5.981   6.171 -0.0071  0.1019 -0.0837
 9145TIP3   OH248925   4.208   2.362   2.481 -0.6035 -0.3645 -0.3125
 9145TIP3    H148926   4.162   2.379   2.398  0.7382  0.1761 -0.9744
 9145TIP3    H248927   4.294   2.330   2.455  0.4670  1.4254  0.8229
 9146TIP3   OH248928   1.173   5.504  12.473  0.2603  0.3758  0.0396
 9146TIP3    H148929   1.265   5.491  12.451  0.5499  1.8532  0.2570
 9146TIP3    H248930   1.132   5.418  12.460  1.6626 -0.3003 -0.0481
 9147TIP3   OH248931   6.705   6.036   3.104  0.0384  0.0623  0.2293
 9147TIP3    H148932   6.621   6.077   3.126  0.3462  1.2380 -0.7121
 9147TIP3    H248933   6.747   6.097   3.043  1.9863 -0.0290  1.3722
 9148TIP3   OH248934   2.387   0.342  12.679 -0.3986  0.0242  0.5349
 9148TIP3    H148935   2.459   0.295  12.720  0.2914  1.6743  1.2987
 9148TIP3    H248936   2.318   0.345  12.745 -1.2289 -1.5999 -0.2140
 9149TIP3   OH248937   2.771   6.064   3.777 -0.0567  0.0003  0.5580
 9149TIP3    H148938   2.729   6.149   3.773  0.3628  0.1889  0.0530
 9149TIP3    H248939   2.719   6.008   3.720 -0.3903 -0.1096  0.9677
 9150TIP3   OH248940   6.273   2.119  13.991 -0.1414  0.3256  0.4404
 9150TIP3    H148941   6.180   2.133  14.006 -0.0124  1.9173 -0.0437
 9150TIP3    H248942   6.310   2.207  13.987  1.2781 -0.2626 -0.0660
 9151TIP3   OH248943   5.923   6.162  16.503  0.5528  0.1129  0.3047
 9151TIP3    H148944   5.954   6.074  16.528  0.7276 -0.3087 -1.2733
 9151TIP3    H248945   5.895   6.201  16.585  0.6412 -1.3589  1.0828
 9152TIP3   OH248946   1.677   1.690  14.524  0.7427 -0.5551  0.0215
 9152TIP3    H148947   1.753   1.701  14.468 -0.5602  0.0536 -1.7086
 9152TIP3    H248948   1.650   1.780  14.546 -0.1015 -0.7242 -0.2866
 9153TIP3   OH248949   1.001   1.338  12.753  0.2347 -0.3193  0.0998
 9153TIP3    H148950   0.968   1.407  12.696 -0.0358 -1.0349 -0.6426
 9153TIP3    H248951   0.932   1.323  12.817  0.2623  0.0321  0.2136
 9154TIP3   OH248952   5.358   2.975   2.992  0.0809 -0.2869 -0.6676
 9154TIP3    H148953   5.346   2.895   3.043  2.4810 -1.3023 -1.5360
 9154TIP3    H248954   5.389   2.944   2.906  2.3072  1.5541 -0.6185
 9155TIP3   OH248955   6.674   3.804   3.818  0.1449 -0.2879  0.1249
 9155TIP3    H148956   6.579   3.796   3.821  0.1555 -1.6016 -1.4104
 9155TIP3    H248957   6.696   3.790   3.726  1.6882  1.9682  0.0752
 9156TIP3   OH248958   3.815   3.082  11.662  0.4942 -0.1457  0.1652
 9156TIP3    H148959   3.793   3.117  11.749 -0.8518 -0.6951  0.0671
 9156TIP3    H248960   3.847   2.994  11.679 -1.4416 -0.9112 -0.0073
 9157TIP3   OH248961   0.319   4.917  13.187  0.7126  0.4538 -0.0037
 9157TIP3    H148962   0.340   5.002  13.147 -2.1831  0.5820 -1.4912
 9157TIP3    H248963   0.357   4.852  13.127 -2.6675  0.6773 -2.7380
 9158TIP3   OH248964   2.083   6.466   5.309 -0.1578 -0.1633  0.0995
 9158TIP3    H148965   1.999   6.426   5.331 -1.1779  2.3843  1.2519
 9158TIP3    H248966   2.117   6.414   5.236 -1.8663 -2.3297  0.7617
 9159TIP3   OH248967   6.485   3.103  13.656  0.5178 -0.3966 -0.3745
 9159TIP3    H148968   6.523   3.105  13.568  1.1016 -1.0691 -0.1562
 9159TIP3    H248969   6.461   3.011  13.669  0.1666 -0.2480  0.0577
 9160TIP3   OH248970   3.075   5.063   6.223  0.5944 -0.1629  0.1181
 9160TIP3    H148971   3.169   5.054   6.209  1.2108  1.6728  2.3505
 9160TIP3    H248972   3.052   4.991   6.282  0.8931  0.1327  0.6017
 9161TIP3   OH248973   6.575   5.006  15.357 -0.2669 -0.2538  0.8928
 9161TIP3    H148974   6.562   4.911  15.358  0.5710 -0.3773  1.1504
 9161TIP3    H248975   6.544   5.034  15.272 -2.2633 -0.4883  1.5021
 9162TIP3   OH248976   4.279   0.944  13.167 -0.1533 -0.2901  0.1783
 9162TIP3    H148977   4.306   1.025  13.210 -0.2618 -1.3463  2.3747
 9162TIP3    H248978   4.352   0.884  13.180  0.0540 -0.4970 -1.6971
 9163TIP3   OH248979   2.471   0.193  13.368  0.4764  0.0979  0.3836
 9163TIP3    H148980   2.387   0.147  13.361  0.1288  0.6850  0.6206
 9163TIP3    H248981   2.533   0.126  13.397 -0.5217  0.2786  3.1595
 9164TIP3   OH248982   0.031   1.756  13.426  0.6712  0.4249 -0.0012
 9164TIP3    H148983  -0.058   1.775  13.395  0.5200 -1.4583 -0.8611
 9164TIP3    H248984   0.088   1.808  13.369  0.2013  0.1643 -0.7186
 9165TIP3   OH248985   4.171   0.614   4.390  0.4437  0.2253 -0.1665
 9165TIP3    H148986   4.214   0.614   4.304  0.6072  0.3973 -0.0858
 9165TIP3    H248987   4.079   0.595   4.371  0.5692 -0.2300 -0.3334
 9166TIP3   OH248988   2.338   1.217   2.491  0.2329  0.2280 -0.1935
 9166TIP3    H148989   2.412   1.223   2.551 -1.0252  1.2839  1.3232
 9166TIP3    H248990   2.263   1.249   2.541 -1.6197 -2.2989 -1.1140
 9167TIP3   OH248991   5.848   0.344  12.368  0.0130  0.0725  0.5426
 9167TIP3    H148992   5.935   0.378  12.386  0.2584  0.0926 -0.5817
 9167TIP3    H248993   5.820   0.390  12.289 -0.4431 -0.9203  0.0958
 9168TIP3   OH248994   5.222   2.762  15.399 -0.0668 -0.5730  0.1161
 9168TIP3    H148995   5.267   2.768  15.314  0.4301 -0.0038  0.4155
 9168TIP3    H248996   5.236   2.671  15.426  1.1876 -0.3359  0.3465
 9169TIP3   OH248997   0.108   6.571  15.809  0.1656 -0.2532 -0.5348
 9169TIP3    H148998   0.041   6.542  15.746 -0.1970  2.3722 -1.4618
 9169TIP3    H248999   0.158   6.638  15.762  1.8996 -0.3966  0.9837
 9170TIP3   OH249000   3.543   5.788   4.178  0.4558 -0.5031 -0.1340
 9170TIP3    H149001   3.634   5.816   4.183  0.3883 -0.3476  0.2757
 9170TIP3    H249002   3.494   5.868   4.157  0.3587 -0.4854  0.1598
 9171TIP3   OH249003   5.073   4.470   0.029 -0.6116  0.3846 -0.3885
 9171TIP3    H149004   5.047   4.544  -0.025  1.9229  1.4028 -0.3431
 9171TIP3    H249005   5.097   4.402  -0.034 -1.4347  0.1285 -0.4446
 9172TIP3   OH249006   5.340   0.612   0.461 -0.1696  0.5404  0.1277
 9172TIP3    H149007   5.267   0.619   0.400 -0.6073  0.7568  0.6660
 9172TIP3    H249008   5.369   0.702   0.475  0.8265  0.3875 -0.8084
 9173TIP3   OH249009   3.817   4.410   3.020  0.2101 -0.0717  0.1300
 9173TIP3    H149010   3.857   4.377   3.101  2.3886 -2.7727 -1.8293
 9173TIP3    H249011   3.758   4.341   2.992 -0.1707  0.6212 -0.8351
 9174TIP3   OH249012   3.642   1.287  17.260  0.8026  0.8480 -0.5039
 9174TIP3    H149013   3.605   1.345  17.326  4.9035 -0.2304  3.2445
 9174TIP3    H249014   3.591   1.206  17.268  0.0351  1.3677 -0.0263
 9175TIP3   OH249015   4.196   1.751  11.057 -0.2101  0.9321  0.9399
 9175TIP3    H149016   4.153   1.669  11.033  3.5158 -2.1183  3.4461
 9175TIP3    H249017   4.224   1.790  10.974  1.1172 -2.3402 -0.2725
 9176TIP3   OH249018   2.011   3.937  16.074  0.2373  0.0980  0.1072
 9176TIP3    H149019   2.045   3.890  16.149 -1.9022  0.3313  1.2881
 9176TIP3    H249020   2.007   3.872  16.004 -0.2516 -0.8320  0.9791
 9177TIP3   OH249021   5.925   0.670   1.723  0.0105  0.1179 -0.4442
 9177TIP3    H149022   6.015   0.697   1.741  0.4359 -1.4684  0.0251
 9177TIP3    H249023   5.921   0.579   1.754 -1.6626  0.0527 -0.7588
 9178TIP3   OH249024   1.026   5.194   2.713  0.2682  0.0146 -0.0070
 9178TIP3    H149025   1.093   5.227   2.653  0.2205 -1.8277 -1.1714
 9178TIP3    H249026   1.052   5.103   2.730 -1.2845 -0.3739  0.4741
 9179TIP3   OH249027   3.697   6.323   2.413  0.2386  0.5842 -0.4033
 9179TIP3    H149028   3.745   6.404   2.433  0.1014  0.7181 -0.6059
 9179TIP3    H249029   3.616   6.331   2.462 -0.7482  1.5850 -2.0800
 9180TIP3   OH249030   3.122   3.762   4.630 -0.3836 -0.0229  0.0007
 9180TIP3    H149031   3.078   3.842   4.602 -0.0498 -0.6106 -2.4062
 9180TIP3    H249032   3.101   3.697   4.562 -0.1180 -1.8214  1.5366
 9181TIP3   OH249033   2.010   3.691  13.218 -0.1167  0.4573  0.2576
 9181TIP3    H149034   1.992   3.766  13.161 -1.3548  0.0928  0.1614
 9181TIP3    H249035   1.985   3.720  13.305 -1.2022 -0.0499  0.1236
 9182TIP3   OH249036   5.031   4.234  14.438  0.1335 -0.1212  0.3898
 9182TIP3    H149037   5.081   4.155  14.461 -0.8004 -0.3830  1.6411
 9182TIP3    H249038   5.097   4.302  14.426  0.8101 -0.2155  2.9961
 9183TIP3   OH249039   5.823   6.138   1.229 -0.0319 -0.3751  0.5282
 9183TIP3    H149040   5.894   6.076   1.212  0.2979  0.0362  0.3989
 9183TIP3    H249041   5.793   6.165   1.143  0.2698  0.1512  0.5866
 9184TIP3   OH249042   2.355   0.024   0.243  0.1293  0.2698  0.2382
 9184TIP3    H149043   2.415   0.090   0.208 -0.8280  0.2277 -1.6160
 9184TIP3    H249044   2.279   0.027   0.184 -0.7551 -1.1768  1.2349
 9185TIP3   OH249045   4.103   3.203  12.836 -0.5091  0.4106  0.4159
 9185TIP3    H149046   4.050   3.190  12.757 -0.4299  1.5615  0.1596
 9185TIP3    H249047   4.162   3.274  12.814 -0.8939  1.1647  1.7071
 9186TIP3   OH249048   0.720   0.096   2.907 -0.3731 -0.3747 -0.4140
 9186TIP3    H149049   0.712   0.143   2.823  0.6910 -1.6532 -1.2736
 9186TIP3    H249050   0.788   0.143   2.954  0.6248 -0.9534 -1.2315
 9187TIP3   OH249051   5.668   1.848  16.263 -0.3949 -0.0729  0.0550
 9187TIP3    H149052   5.642   1.940  16.264  1.2576  0.4298  1.2042
 9187TIP3    H249053   5.643   1.817  16.176 -2.1089  1.0948  0.0925
 9188TIP3   OH249054   5.839   1.881   0.912  0.3116 -0.1086  0.0321
 9188TIP3    H149055   5.877   1.892   1.000 -0.4501 -0.4282  0.4069
 9188TIP3    H249056   5.773   1.812   0.922 -1.3987  1.4103 -0.2709
 9189TIP3   OH249057   2.139   0.090   4.766  0.1406  0.0405  0.2342
 9189TIP3    H149058   2.070   0.157   4.771  0.6606  0.6418 -0.4619
 9189TIP3    H249059   2.220   0.138   4.779  0.6810 -0.0944 -2.1651
 9190TIP3   OH249060   5.456   5.431   6.108 -0.2243 -0.5135  0.2120
 9190TIP3    H149061   5.434   5.340   6.130  2.5597 -0.8270  2.2370
 9190TIP3    H249062   5.481   5.427   6.015  1.5319 -2.2551  0.6835
 9191TIP3   OH249063   5.879   0.965   4.317  0.6021 -0.0448  0.1255
 9191TIP3    H149064   5.826   0.977   4.396  1.7917  1.4741  0.7401
 9191TIP3    H249065   5.939   0.894   4.340 -1.0245 -1.7032 -0.5384
 9192TIP3   OH249066   0.876   1.847  11.832 -0.0788 -0.4275 -0.2013
 9192TIP3    H149067   0.905   1.912  11.768 -2.4490 -1.0928 -2.1146
 9192TIP3    H249068   0.938   1.775  11.822  0.9177  0.3938 -0.0831
 9193TIP3   OH249069   3.457   3.023   4.148  0.1946 -0.9064 -0.4937
 9193TIP3    H149070   3.548   2.993   4.149 -0.2165 -2.2118 -1.0870
 9193TIP3    H249071   3.444   3.058   4.060  0.6285  1.0248  0.1399
 9194TIP3   OH249072   0.832   0.755  12.077  0.7676  0.8139 -0.7944
 9194TIP3    H149073   0.776   0.750  11.999  0.9215  0.8035 -0.9045
 9194TIP3    H249074   0.881   0.673  12.076  2.1251  1.5952 -1.7227
 9195TIP3   OH249075   1.725   6.619   1.655  0.7937 -0.3413  0.3494
 9195TIP3    H149076   1.786   6.684   1.689  0.6225 -0.4044  0.7723
 9195TIP3    H249077   1.711   6.645   1.564  1.7690 -0.5531  0.1266
 9196TIP3   OH249078   2.698   2.293   2.885  0.1563 -0.1228 -0.5603
 9196TIP3    H149079   2.624   2.251   2.929  0.0176  0.0219 -0.6534
 9196TIP3    H249080   2.718   2.368   2.941  2.8294 -2.3327  1.7127
 9197TIP3   OH249081   6.319   4.918  15.834 -0.5157 -0.9107  0.0018
 9197TIP3    H149082   6.226   4.904  15.819 -0.7942  0.9096 -0.1254
 9197TIP3    H249083   6.352   4.950  15.750 -0.1795  0.3168  0.5849
 9198TIP3   OH249084   3.952   5.871   6.494 -0.2419  0.3107  0.2948
 9198TIP3    H149085   3.945   5.780   6.521 -1.1313  0.5261  0.8284
 9198TIP3    H249086   4.046   5.888   6.491 -0.0829 -0.2824  1.3709
 9199TIP3   OH249087   6.160   2.655  13.136 -0.3312 -0.2874 -0.6023
 9199TIP3    H149088   6.239   2.619  13.176 -0.0144 -0.3215 -1.2540
 9199TIP3    H249089   6.191   2.723  13.076 -0.7705 -0.5323 -1.1167
 9200TIP3   OH249090   4.406   5.457   3.630 -0.2271 -0.0016  0.0509
 9200TIP3    H149091   4.365   5.471   3.715 -2.2479  0.6230 -0.9767
 9200TIP3    H249092   4.347   5.497   3.567  2.7636  2.4521 -1.4610
 9201TIP3   OH249093   5.724   2.847  12.768  0.1428 -0.0660  0.3954
 9201TIP3    H149094   5.659   2.829  12.700  1.1811 -1.0971 -0.3649
 9201TIP3    H249095   5.701   2.786  12.839 -0.7323  0.7735  0.8623
 9202TIP3   OH249096   2.403   3.633   4.842  0.2138  0.2799  0.0566
 9202TIP3    H149097   2.413   3.626   4.937  0.9123  1.9980  0.1333
 9202TIP3    H249098   2.340   3.565   4.820  0.3868 -0.4589  1.6831
 9203TIP3   OH249099   0.220   0.874  14.950  0.2559  0.2152  0.6322
 9203TIP3    H149100   0.307   0.839  14.970  1.0411  0.8812 -1.3620
 9203TIP3    H249101   0.234   0.967  14.936 -0.4344  0.0691 -1.3403
 9204TIP3   OH249102   4.948   6.042  11.502 -0.3297  0.0293  0.2271
 9204TIP3    H149103   4.939   6.017  11.410  1.3858  1.3743 -0.3663
 9204TIP3    H249104   4.879   6.106  11.516 -0.2642  0.2147 -0.2772
 9205TIP3   OH249105   4.308   0.083  17.084 -0.4034 -0.1170  0.0848
 9205TIP3    H149106   4.229   0.031  17.071 -0.4600 -0.5265  1.8081
 9205TIP3    H249107   4.379   0.018  17.089 -0.3679 -0.0020  1.4413
 9206TIP3   OH249108   0.105   1.016  11.008  0.0533  0.5235  0.0049
 9206TIP3    H149109   0.113   0.939  10.951  0.8836 -0.2611  1.1251
 9206TIP3    H249110   0.133   1.089  10.953  1.0081 -0.2354 -0.5666
 9207TIP3   OH249111   5.401   1.749  15.664  0.1590  0.4784  0.6625
 9207TIP3    H149112   5.459   1.701  15.724  0.7980  0.1213 -0.2284
 9207TIP3    H249113   5.438   1.837  15.661  1.1480  0.0520 -0.5016
 9208TIP3   OH249114   0.940   1.105   2.051  0.3559  0.5424 -0.0887
 9208TIP3    H149115   0.879   1.111   1.977 -0.0539 -2.0055 -0.0233
 9208TIP3    H249116   0.923   1.185   2.101 -1.3609  0.9683 -1.2514
 9209TIP3   OH249117   4.671   4.604  12.824 -0.1463  0.1997  0.2695
 9209TIP3    H149118   4.760   4.571  12.837 -0.4354 -0.3842  0.8200
 9209TIP3    H249119   4.681   4.699  12.816  0.5252  0.1345  0.2895
 9210TIP3   OH249120   4.811   6.655   5.631 -0.0500 -0.2447  0.0850
 9210TIP3    H149121   4.857   6.670   5.714 -1.1650  1.3048  0.4657
 9210TIP3    H249122   4.881   6.653   5.565  0.7814 -0.6557  0.9470
 9211TIP3   OH249123   4.319   3.940  13.498  0.0565  0.7805 -0.3969
 9211TIP3    H149124   4.382   3.996  13.543  0.5791 -1.5039  1.9263
 9211TIP3    H249125   4.352   3.851  13.512 -2.0171 -0.2924 -1.8464
 9212TIP3   OH249126   6.408   6.534  14.819  0.0073 -0.5207 -0.1147
 9212TIP3    H149127   6.364   6.486  14.748 -0.8371 -0.4308  0.3345
 9212TIP3    H249128   6.448   6.609  14.776  1.3322 -1.6010 -0.8311
 9213TIP3   OH249129   4.873   1.454   3.792 -0.1166  0.1404  0.4001
 9213TIP3    H149130   4.915   1.522   3.740 -1.3182 -0.3718 -1.3082
 9213TIP3    H249131   4.913   1.462   3.879  0.3070  2.5204  0.0500
 9214TIP3   OH249132   1.089   5.010  15.456  0.7847 -0.7731  0.0060
 9214TIP3    H149133   1.104   4.944  15.388  1.8782 -0.2361 -0.3023
 9214TIP3    H249134   1.032   5.074  15.415  0.5484 -1.0130 -0.0375
 9215TIP3   OH249135   6.313   1.860   2.051 -0.2481 -0.1052  0.4861
 9215TIP3    H149136   6.324   1.878   1.958 -0.1278  1.8774  0.8406
 9215TIP3    H249137   6.258   1.782   2.054 -0.7387  0.1334 -1.2613
 9216TIP3   OH249138   5.538   3.631  11.477  0.7485  0.1474  0.1992
 9216TIP3    H149139   5.517   3.683  11.399 -0.0514  0.6452  0.7304
 9216TIP3    H249140   5.596   3.687  11.528  2.3094 -0.6772 -0.6081
 9217TIP3   OH249141   0.961   6.595   4.970  0.1395  0.3021 -0.0146
 9217TIP3    H149142   1.054   6.617   4.980  0.3709 -0.8249  0.4943
 9217TIP3    H249143   0.959   6.499   4.975 -1.0015  0.2943 -0.4711
 9218TIP3   OH249144   1.512   2.560  12.756  0.1771 -0.0237 -1.0284
 9218TIP3    H149145   1.515   2.476  12.800 -0.4166  0.3221 -0.3115
 9218TIP3    H249146   1.599   2.569  12.716  1.5095  0.5217  1.7486
 9219TIP3   OH249147   4.845   4.896  15.599 -0.1308 -0.7736 -0.5269
 9219TIP3    H149148   4.847   4.833  15.671 -0.2607 -0.2577 -0.0691
 9219TIP3    H249149   4.848   4.842  15.520 -1.4868 -1.4356 -0.1632
 9220TIP3   OH249150   6.593   4.608  14.280  0.2707  0.6322 -0.1165
 9220TIP3    H149151   6.579   4.553  14.203  0.3037 -2.5029  1.9066
 9220TIP3    H249152   6.688   4.617  14.286  0.2209  2.1736 -1.2024
 9221TIP3   OH249153   3.136   3.998   3.334 -0.2133 -0.5342  0.5347
 9221TIP3    H149154   3.206   3.972   3.274  1.3539  0.0217  2.0342
 9221TIP3    H249155   3.075   4.048   3.280  2.2140  1.7968 -0.2546
 9222TIP3   OH249156   0.657   4.193   2.034 -0.1945 -0.0190 -0.0882
 9222TIP3    H149157   0.664   4.283   2.002 -1.8350  0.2581  0.2393
 9222TIP3    H249158   0.746   4.170   2.061  0.0784  1.8719  0.7868
 9223TIP3   OH249159   4.935   2.533   5.928 -0.0393 -0.2153 -0.1055
 9223TIP3    H149160   4.876   2.458   5.914  0.1995 -0.4625  0.2068
 9223TIP3    H249161   5.019   2.494   5.952 -0.1404  0.1688  0.9281
 9224TIP3   OH249162   5.233   2.620   4.082  0.0855 -0.1149  0.4179
 9224TIP3    H149163   5.237   2.531   4.047 -1.3582 -0.4067  0.9331
 9224TIP3    H249164   5.266   2.675   4.011 -0.9398 -0.8755 -0.6887
 9225TIP3   OH249165   0.016   2.686   3.625  0.0395  0.3277 -0.1375
 9225TIP3    H149166   0.078   2.685   3.552 -0.6820  0.0503 -0.7644
 9225TIP3    H249167  -0.055   2.629   3.596 -0.2684  0.2274  0.7850
 9226TIP3   OH249168   0.618   0.726   6.266  0.7099  0.3027  0.6011
 9226TIP3    H149169   0.660   0.811   6.253  0.8077  0.1111 -0.4171
 9226TIP3    H249170   0.685   0.672   6.309  0.7803  0.6187  0.8935
 9227TIP3   OH249171   6.045   3.787  12.755 -0.3085 -1.0157 -0.3720
 9227TIP3    H149172   6.038   3.736  12.835  2.8373 -0.3033  0.5078
 9227TIP3    H249173   6.131   3.829  12.761 -2.0314  3.2519 -1.6877
 9228TIP3   OH249174   2.490   3.366   3.466  0.7509  0.3928  0.0411
 9228TIP3    H149175   2.580   3.379   3.496 -0.0599  1.9713  2.0564
 9228TIP3    H249176   2.436   3.404   3.536 -1.4173  1.7936 -2.2276
 9229TIP3   OH249177   3.620   5.527  15.462 -0.9525 -0.3561 -0.4855
 9229TIP3    H149178   3.578   5.474  15.529 -0.4101 -0.0690  0.0874
 9229TIP3    H249179   3.638   5.611  15.505  2.2182 -1.1815 -0.0132
 9230TIP3   OH249180   4.342   4.901  12.304  0.2704  0.6129  0.2662
 9230TIP3    H149181   4.280   4.912  12.376 -0.2699 -2.5626  0.4568
 9230TIP3    H249182   4.426   4.930  12.339 -0.6641  3.0365  0.7057
 9231TIP3   OH249183   0.742   6.267   5.672 -0.3022 -0.2651 -0.1487
 9231TIP3    H149184   0.684   6.290   5.745 -0.7683 -1.7803 -0.0033
 9231TIP3    H249185   0.715   6.178   5.647  0.8793 -0.3682 -1.1551
 9232TIP3   OH249186   0.294   4.860   4.938 -0.3387 -0.0282 -0.3676
 9232TIP3    H149187   0.225   4.807   4.898  0.5812 -1.5520  0.0075
 9232TIP3    H249188   0.372   4.806   4.933  1.3667  2.4162 -2.5720
 9233TIP3   OH249189   3.755   5.427   0.876 -0.1090 -0.0295  0.5042
 9233TIP3    H149190   3.843   5.462   0.861 -0.3485  0.9025  1.2128
 9233TIP3    H249191   3.769   5.333   0.886  0.9436  0.1913  1.4418
 9234TIP3   OH249192   2.232   6.650  15.731 -0.3709  0.4211 -0.0008
 9234TIP3    H149193   2.232   6.653  15.635  0.0634 -0.9909 -0.0806
 9234TIP3    H249194   2.143   6.674  15.756 -1.3806 -1.9918 -0.9422
 9235TIP3   OH249195   1.510   3.533  12.067 -0.2323 -0.1772 -0.4419
 9235TIP3    H149196   1.519   3.452  12.016  0.2329 -0.1577 -0.3887
 9235TIP3    H249197   1.595   3.575  12.061 -0.8033  0.9091 -1.4543
 9236TIP3   OH249198   2.165   0.003  11.266  0.2566 -0.1653 -0.1319
 9236TIP3    H149199   2.255  -0.031  11.272  0.3271 -0.7564 -2.9460
 9236TIP3    H249200   2.176   0.095  11.240  0.0519 -0.0779  0.0908
 9237TIP3   OH249201   6.556   6.639   2.330 -0.4681 -0.2065 -0.0211
 9237TIP3    H149202   6.494   6.610   2.397 -0.2038 -3.4146 -0.9948
 9237TIP3    H249203   6.620   6.691   2.378 -1.7890 -0.0638  1.6864
 9238TIP3   OH249204   1.660   6.255   2.989  0.6435 -0.1055 -0.4609
 9238TIP3    H149205   1.647   6.266   2.894 -0.1425 -1.6679 -0.5814
 9238TIP3    H249206   1.714   6.176   2.996 -0.5444 -0.8801  0.3937
 9239TIP3   OH249207   5.692   3.237   2.555  0.2586 -0.2910  0.1034
 9239TIP3    H149208   5.712   3.319   2.510 -1.3487  0.4068  0.6031
 9239TIP3    H249209   5.695   3.171   2.486 -1.5952  0.6770 -0.9557
 9240TIP3   OH249210   3.571   6.545   2.840 -0.0367 -0.7234  0.1346
 9240TIP3    H149211   3.496   6.574   2.890  1.1963 -0.3951  1.8676
 9240TIP3    H249212   3.643   6.542   2.903  1.7753  0.4404 -1.7405
 9241TIP3   OH249213   4.357   1.997  13.820  0.0612 -0.0850 -0.1862
 9241TIP3    H149214   4.441   1.963  13.788 -0.2464  1.1993 -2.6253
 9241TIP3    H249215   4.378   2.085  13.852 -0.3965  0.4085 -1.2059
 9242TIP3   OH249216   3.419   0.102   6.096  0.6567  0.1175 -0.0038
 9242TIP3    H149217   3.385   0.025   6.142  1.6639 -1.1526 -1.3031
 9242TIP3    H249218   3.471   0.148   6.162 -0.3929 -0.0049  0.9324
 9243TIP3   OH249219   5.529   5.089  13.499  0.2064  0.3244 -0.2296
 9243TIP3    H149220   5.490   5.128  13.420 -1.1823  0.0071  0.2614
 9243TIP3    H249221   5.477   5.010  13.514  1.3655 -0.3658  0.2116
 9244TIP3   OH249222   5.177   6.766  10.973 -0.1608  0.0764  0.4677
 9244TIP3    H149223   5.159   6.735  10.884  1.2959  1.5186 -0.3755
 9244TIP3    H249224   5.090   6.781  11.010 -0.8164  1.0269 -1.3022
 9245TIP3   OH249225   3.342   4.513  14.585 -0.1953 -0.2269 -0.1936
 9245TIP3    H149226   3.429   4.550  14.599 -0.3493 -0.2040  0.7658
 9245TIP3    H249227   3.321   4.534  14.494  0.7486 -0.1257 -0.3936
 9246TIP3   OH249228   5.791   5.561  12.437 -0.0640 -0.3053 -0.1070
 9246TIP3    H149229   5.845   5.558  12.358 -2.7156  0.1896 -2.0832
 9246TIP3    H249230   5.779   5.654  12.455 -0.3988 -0.4049  0.2076
 9247TIP3   OH249231   4.016   0.210  15.400 -0.1233  0.2930 -0.0453
 9247TIP3    H149232   3.970   0.135  15.363  0.5964  0.1861 -0.7558
 9247TIP3    H249233   4.079   0.236  15.332 -0.9946  2.1331 -0.2102
 9248TIP3   OH249234   1.360   5.059   2.453 -0.0520 -0.3807  0.4220
 9248TIP3    H149235   1.368   5.071   2.358 -3.9891 -2.9049 -0.4589
 9248TIP3    H249236   1.298   5.126   2.481 -0.2340 -0.7320  0.8763
 9249TIP3   OH249237   4.413   2.066  11.157  0.3620 -0.2817 -0.2409
 9249TIP3    H149238   4.354   2.043  11.085  0.4145 -0.2120 -0.3073
 9249TIP3    H249239   4.445   2.153  11.134 -0.0349 -0.0339  0.1369
 9250TIP3   OH249240   6.356   1.578   4.018 -0.4872  0.1981 -0.3859
 9250TIP3    H149241   6.283   1.624   4.059 -0.3301 -1.3383  1.7827
 9250TIP3    H249242   6.381   1.510   4.081  2.7046  0.5284 -1.0792
 9251TIP3   OH249243   1.640   5.396  14.772  0.3735  0.7424 -0.3659
 9251TIP3    H149244   1.622   5.372  14.681 -0.4185  2.9573 -0.8620
 9251TIP3    H249245   1.729   5.430  14.771  0.3188  0.8895 -0.3630
 9252TIP3   OH249246   2.906   0.597   4.861 -0.4015 -0.1908  0.3050
 9252TIP3    H149247   2.841   0.660   4.893 -1.0100 -1.0652  0.8423
 9252TIP3    H249248   2.944   0.560   4.940  0.5738  0.1161 -0.0107
 9253TIP3   OH249249   4.609   0.287   0.190  0.0965  0.6768  0.3401
 9253TIP3    H149250   4.627   0.378   0.215 -0.0734  0.4872  1.1739
 9253TIP3    H249251   4.513   0.280   0.193  0.1712 -0.1651  2.6785
 9254TIP3   OH249252   4.912   1.214   4.253  0.3674  0.5614 -0.7017
 9254TIP3    H149253   4.925   1.295   4.205  0.1938 -0.0278 -1.7708
 9254TIP3    H249254   4.849   1.165   4.201  1.9578 -1.1054 -1.1530
 9255TIP3   OH249255   1.107   2.007  14.874 -0.1408  0.0067  0.5268
 9255TIP3    H149256   1.182   2.008  14.815 -0.6775  1.5047 -0.1775
 9255TIP3    H249257   1.127   1.937  14.936  1.2087 -0.5065 -0.4295
 9256TIP3   OH249258   2.317   0.443  11.387  0.5126 -0.3174  0.0569
 9256TIP3    H149259   2.315   0.489  11.471 -0.8346  1.1673 -0.7327
 9256TIP3    H249260   2.354   0.507  11.326 -0.9142 -0.4109 -0.9639
 9257TIP3   OH249261   3.331   5.750  12.904  0.5001 -0.3872 -0.3264
 9257TIP3    H149262   3.261   5.689  12.928 -0.3640  0.8980  0.5277
 9257TIP3    H249263   3.299   5.793  12.825  0.4943 -0.0749 -0.1554
 9258TIP3   OH249264   4.415   2.057  14.582 -0.3009  0.6083 -0.1150
 9258TIP3    H149265   4.497   2.019  14.615 -0.5407  0.0618 -0.1384
 9258TIP3    H249266   4.441   2.107  14.504 -0.1312 -0.4390 -0.7455
 9259TIP3   OH249267   0.327   4.810   3.731  0.0204 -0.6958 -0.3228
 9259TIP3    H149268   0.412   4.778   3.762  1.0976  1.5915 -0.6985
 9259TIP3    H249269   0.267   4.736   3.744  1.5164 -1.5745  2.3174
 9260TIP3   OH249270   5.886   2.123   1.079 -0.2689 -0.0594 -0.3104
 9260TIP3    H149271   5.971   2.129   1.123  0.2994 -0.0126 -1.3865
 9260TIP3    H249272   5.829   2.083   1.144  0.4271  0.4155  0.6319
 9261TIP3   OH249273   1.651   3.217  16.982 -0.3150 -0.4372 -0.3868
 9261TIP3    H149274   1.725   3.224  16.921  1.5841  0.3142  1.8509
 9261TIP3    H249275   1.655   3.127  17.014  0.3762 -0.0910  0.5523
 9262TIP3   OH249276   1.935   5.757   1.426 -0.0752 -0.0890 -0.1259
 9262TIP3    H149277   1.865   5.753   1.492 -0.1906 -0.4370 -0.2665
 9262TIP3    H249278   1.959   5.849   1.422 -0.9156  0.1181 -0.4837
 9263TIP3   OH249279   6.739   0.426   2.268 -0.0620 -0.2409  0.1837
 9263TIP3    H149280   6.825   0.386   2.286  0.1078  0.5906  1.3323
 9263TIP3    H249281   6.719   0.398   2.179  2.1720  0.8850 -0.7623
 9264TIP3   OH249282   3.761   3.726  13.632 -1.0486  0.2448 -0.4506
 9264TIP3    H149283   3.740   3.640  13.595  0.8109 -0.3170 -0.2810
 9264TIP3    H249284   3.715   3.727  13.716 -1.9187 -0.1595 -0.9106
 9265TIP3   OH249285   3.869   3.604  14.570 -0.5827 -0.1108  0.4114
 9265TIP3    H149286   3.905   3.518  14.592  0.6294  0.1939 -0.2910
 9265TIP3    H249287   3.813   3.626  14.644 -1.4114 -1.7718  0.3233
 9266TIP3   OH249288   1.177   1.271   6.173  0.6276  0.0285  0.7178
 9266TIP3    H149289   1.110   1.307   6.231 -0.1903 -1.5056  0.7843
 9266TIP3    H249290   1.204   1.345   6.119 -0.5853  0.8585  1.1955
 9267TIP3   OH249291   4.047   0.054  13.391  0.2139 -0.5423  0.5457
 9267TIP3    H149292   4.006  -0.020  13.349  0.6311 -0.3407 -0.2269
 9267TIP3    H249293   3.974   0.107  13.423 -0.1068 -0.6072 -0.0746
 9268TIP3   OH249294   3.303   5.622   1.160 -0.0588  0.2474  0.3502
 9268TIP3    H149295   3.232   5.676   1.195 -0.8158 -0.2658 -0.3379
 9268TIP3    H249296   3.343   5.675   1.091  0.1056  0.4579  0.6038
 9269TIP3   OH249297   1.863   2.924  15.299 -0.1944  0.4488 -0.1690
 9269TIP3    H149298   1.783   2.967  15.266  1.0776  2.2377 -1.1072
 9269TIP3    H249299   1.863   2.838  15.257 -1.8052  0.2746  0.1349
 9270TIP3   OH249300   2.609   4.127   5.596 -0.3565 -0.0587  0.0245
 9270TIP3    H149301   2.569   4.041   5.607  0.6936 -0.3466  2.3287
 9270TIP3    H249302   2.599   4.169   5.682  1.8307  0.8803 -0.1074
 9271TIP3   OH249303   0.725   3.922  12.930 -0.3427  0.5534 -0.1752
 9271TIP3    H149304   0.691   4.010  12.912  0.1189  0.6298 -0.7170
 9271TIP3    H249305   0.810   3.937  12.971  0.1536  0.3729 -1.1037
 9272TIP3   OH249306   6.488   1.564   3.529  0.0573 -0.4416 -0.2694
 9272TIP3    H149307   6.437   1.642   3.504 -0.1859 -0.3321  0.5439
 9272TIP3    H249308   6.506   1.576   3.622 -2.4855 -2.7021  0.6607
 9273TIP3   OH249309   2.920   0.471   1.926 -0.8374 -0.4004  0.0412
 9273TIP3    H149310   2.998   0.429   1.963  1.7478  2.9812 -1.0316
 9273TIP3    H249311   2.884   0.406   1.866  1.2872 -2.0350  0.4169
 9274TIP3   OH249312   1.241   1.258  13.970  0.6573  0.6512  0.1640
 9274TIP3    H149313   1.175   1.215  13.915  1.8102 -0.2127 -0.5750
 9274TIP3    H249314   1.255   1.196  14.042  0.9644  0.6377  0.0923
 9275TIP3   OH249315   4.237   4.519  16.319 -0.1388 -0.4578 -0.0838
 9275TIP3    H149316   4.228   4.461  16.243 -2.5886  1.7663 -1.6767
 9275TIP3    H249317   4.256   4.461  16.392 -2.9218 -3.3538 -1.4409
 9276TIP3   OH249318   2.565   2.976   6.018 -0.3950 -0.6206  0.2707
 9276TIP3    H149319   2.555   2.906   5.953 -0.2803  0.1623 -0.6214
 9276TIP3    H249320   2.523   2.942   6.097 -1.4703 -1.1944 -0.5219
 9277TIP3   OH249321   4.130   5.448  14.213 -0.3291 -0.3767  0.0486
 9277TIP3    H149322   4.210   5.406  14.245 -0.3098 -0.5778 -0.2651
 9277TIP3    H249323   4.084   5.379  14.166  0.0236  0.1133 -1.0556
 9278TIP3   OH249324   4.048   4.420  13.991 -0.3194 -0.3469  0.8232
 9278TIP3    H149325   3.993   4.380  13.923  1.6004  0.6057 -1.4071
 9278TIP3    H249326   4.009   4.506  14.005  0.1960  0.0853 -0.2942
 9279TIP3   OH249327   4.347   2.596   3.514 -0.4027 -0.2709  0.0550
 9279TIP3    H149328   4.346   2.512   3.559  1.1309 -0.1673  0.3363
 9279TIP3    H249329   4.292   2.653   3.568  0.4037 -0.4882  1.1387
 9280TIP3   OH249330   0.199   0.925  13.039  1.1951  0.3865  0.4344
 9280TIP3    H149331   0.221   0.839  13.004 -0.7301  0.0726 -0.1153
 9280TIP3    H249332   0.184   0.910  13.132 -2.8480 -0.7623 -0.2302
 9281TIP3   OH249333   3.823   5.772  12.778 -0.0042 -0.5754  0.1239
 9281TIP3    H149334   3.739   5.737  12.809  0.2568 -1.4598 -0.1145
 9281TIP3    H249335   3.857   5.703  12.721  1.2555 -0.5812  0.8620
 9282TIP3   OH249336   5.029   6.299   3.834 -0.6119  0.0677 -0.6327
 9282TIP3    H149337   4.943   6.283   3.797  0.5931  0.6395 -4.0439
 9282TIP3    H249338   5.061   6.212   3.860 -2.5676 -0.0146  1.8635
 9283TIP3   OH249339   0.037   2.776   1.307  0.0910  0.2268 -0.1034
 9283TIP3    H149340   0.098   2.754   1.378 -0.8669  1.0324  1.0021
 9283TIP3    H249341  -0.019   2.699   1.300  0.0099  0.2502  0.2287
 9284TIP3   OH249342   3.971   4.802   6.002 -0.3687 -0.5708  0.3631
 9284TIP3    H149343   3.956   4.867   6.071  1.8811  0.4338 -0.0118
 9284TIP3    H249344   4.063   4.777   6.013  0.5622  0.7708 -3.1831
 9285TIP3   OH249345   0.528   6.084   0.697  0.7783 -0.2695  0.2013
 9285TIP3    H149346   0.473   6.007   0.679  1.1977 -0.3663 -0.6720
 9285TIP3    H249347   0.475   6.136   0.758 -1.0443  0.4597 -1.8683
 9286TIP3   OH249348   6.510   6.426   2.146  0.3975  0.4490  0.0104
 9286TIP3    H149349   6.517   6.488   2.219 -1.2057 -0.4126  0.9691
 9286TIP3    H249350   6.421   6.437   2.114  0.6839 -0.0851 -1.0028
 9287TIP3   OH249351   2.258   5.694   3.738  0.5458  0.0414 -0.1358
 9287TIP3    H149352   2.199   5.660   3.805  1.8775  0.0239  1.0889
 9287TIP3    H249353   2.203   5.748   3.682 -0.6387 -0.0619  0.8859
 9288TIP3   OH249354   0.580   3.962  11.177  0.3500 -0.2371 -0.3869
 9288TIP3    H149355   0.590   4.037  11.117 -1.2353  0.8863  0.6642
 9288TIP3    H249356   0.649   3.901  11.151  0.2218  0.5464 -2.8371
 9289TIP3   OH249357   5.081   3.123   5.850  0.2002  0.5724  0.1399
 9289TIP3    H149358   5.013   3.186   5.873  0.3512  1.7821 -2.4101
 9289TIP3    H249359   5.133   3.113   5.930 -1.5623  1.4053  1.4440
 9290TIP3   OH249360   6.287   1.246  16.217 -0.3359  0.4137 -0.0268
 9290TIP3    H149361   6.328   1.223  16.133  0.3797  2.0711 -0.1734
 9290TIP3    H249362   6.196   1.265  16.194 -0.6151 -0.9188 -0.1025
 9291TIP3   OH249363   0.620   2.418   0.536  0.9140 -0.3448  0.7256
 9291TIP3    H149364   0.697   2.416   0.480  0.3122 -0.8985 -0.1165
 9291TIP3    H249365   0.570   2.495   0.507 -0.6691 -2.0096 -1.3469
 9292TIP3   OH249366   4.307   5.395   3.112  0.0606 -0.0145 -0.6466
 9292TIP3    H149367   4.253   5.473   3.101 -0.7512 -0.4041  0.3659
 9292TIP3    H249368   4.255   5.338   3.169  0.1499 -1.7571 -2.1990
 9293TIP3   OH249369   4.034   4.442  16.607  0.6311 -0.5622 -0.2071
 9293TIP3    H149370   4.122   4.407  16.596  0.8788 -0.1373  0.3606
 9293TIP3    H249371   4.047   4.527  16.651 -0.0854 -0.7199  0.3365
 9294TIP3   OH249372   0.277   0.374  14.171 -0.3498 -0.2719  0.2784
 9294TIP3    H149373   0.280   0.348  14.263  1.6593 -3.1850 -0.4881
 9294TIP3    H249374   0.263   0.292  14.123  0.9005  0.8328 -2.1354
 9295TIP3   OH249375   2.520   1.752  17.500  0.6629  0.4451 -0.0482
 9295TIP3    H149376   2.450   1.696  17.468  0.3722  1.5251 -1.3840
 9295TIP3    H249377   2.501   1.763  17.594 -0.0075 -0.5927 -0.0513
 9296TIP3   OH249378   2.701   6.765   3.546 -0.3826  0.0777  0.9961
 9296TIP3    H149379   2.793   6.744   3.559 -0.0546  0.7868 -0.0691
 9296TIP3    H249380   2.701   6.853   3.509 -1.2500 -1.2056 -2.4474
 9297TIP3   OH249381   2.946   3.693   4.228 -0.1160 -0.2400  0.4984
 9297TIP3    H149382   2.936   3.715   4.135 -0.3454  1.1271  0.8244
 9297TIP3    H249383   2.983   3.605   4.228  0.9811  0.1803 -0.9123
 9298TIP3   OH249384   3.798   1.575  15.709  0.1542 -0.4212  0.1341
 9298TIP3    H149385   3.738   1.507  15.678  1.9167 -1.3711 -1.4118
 9298TIP3    H249386   3.768   1.594  15.798 -2.0126 -1.2853 -0.3387
 9299TIP3   OH249387   1.553   4.982   3.963  0.6357  0.0384  0.0713
 9299TIP3    H149388   1.512   4.924   4.027 -0.1671  0.0196 -0.4523
 9299TIP3    H249389   1.480   5.032   3.926  1.1286  0.2527 -0.6201
 9300TIP3   OH249390   2.309   3.038   5.331  0.7710 -0.1127  0.1037
 9300TIP3    H149391   2.271   2.963   5.285 -2.0737  1.4131 -0.2214
 9300TIP3    H249392   2.317   3.009   5.422 -1.1065 -0.5765  0.1498
 9301TIP3   OH249393   5.678   0.609  14.128 -0.0029 -0.1855  0.1422
 9301TIP3    H149394   5.660   0.556  14.206  1.2077  0.6835  1.0500
 9301TIP3    H249395   5.682   0.699  14.161 -0.4806  0.3155 -1.1081
 9302TIP3   OH249396   1.662   5.242   3.959 -0.0785  0.5435  0.1063
 9302TIP3    H149397   1.613   5.159   3.956  0.0290  0.4970 -1.6270
 9302TIP3    H249398   1.735   5.224   4.018  0.6231 -1.0315 -1.1573
 9303TIP3   OH249399   5.640   1.710  14.088 -0.4131  0.4350 -0.4153
 9303TIP3    H149400   5.583   1.657  14.143 -0.0986 -0.4020 -0.8851
 9303TIP3    H249401   5.601   1.705  14.001 -0.3703  0.9664 -0.4676
 9304TIP3   OH249402   5.757   5.521  16.094 -0.0094 -0.1012 -0.8159
 9304TIP3    H149403   5.751   5.571  16.174  0.8525  0.3225 -1.0083
 9304TIP3    H249404   5.679   5.465  16.094  0.2554 -0.4916  0.5675
 9305TIP3   OH249405   1.227   3.233   0.397 -0.5098  0.0754  0.1794
 9305TIP3    H149406   1.219   3.309   0.454  1.2646  0.3037  0.1897
 9305TIP3    H249407   1.223   3.268   0.308 -0.3221  0.1053  0.1822
 9306TIP3   OH249408   4.448   5.862   2.286  0.1750 -0.0048  0.3795
 9306TIP3    H149409   4.364   5.820   2.271  0.4685 -0.0748 -1.3388
 9306TIP3    H249410   4.427   5.952   2.308 -0.3625 -0.1798  0.5822
 9307TIP3   OH249411   4.248   6.330   5.228  0.1172 -0.2258 -0.1970
 9307TIP3    H149412   4.244   6.362   5.138 -1.5275  0.2539 -0.0024
 9307TIP3    H249413   4.341   6.316   5.245  0.7541  2.3469 -1.0578
 9308TIP3   OH249414   4.033   1.789   2.785 -0.2786  0.0086  0.0254
 9308TIP3    H149415   4.099   1.811   2.720  0.3664 -0.5626  0.4774
 9308TIP3    H249416   3.969   1.860   2.780  0.4206  0.6132 -0.3431
 9309TIP3   OH249417   1.932   4.113  15.413  0.9360 -0.1444 -0.2053
 9309TIP3    H149418   1.925   4.186  15.352 -0.6711 -0.5577 -0.5477
 9309TIP3    H249419   1.842   4.086  15.430  1.4500 -1.4363  0.6734
 9310TIP3   OH249420   5.686   2.274  10.904  0.2070 -0.4999  0.0840
 9310TIP3    H149421   5.777   2.275  10.935 -0.3486 -0.2986  1.8014
 9310TIP3    H249422   5.663   2.366  10.895  0.4793 -0.5501 -1.4083
 9311TIP3   OH249423   5.181   4.452  14.444  0.3420 -0.2958  0.2503
 9311TIP3    H149424   5.098   4.493  14.418  0.4237  0.8329  1.6528
 9311TIP3    H249425   5.247   4.517  14.423  0.5556  0.0339  1.8289
 9312TIP3   OH249426   1.696   3.527  15.608  0.3276 -0.1269  0.7961
 9312TIP3    H149427   1.779   3.486  15.586 -0.1583  0.2582 -2.2442
 9312TIP3    H249428   1.630   3.473  15.566 -0.7509  0.8695  1.1368
 9313TIP3   OH249429   2.213   1.542  10.458  0.3414  0.5869  0.0693
 9313TIP3    H149430   2.148   1.549  10.528 -1.2266 -0.2553 -1.2232
 9313TIP3    H249431   2.210   1.626  10.413  0.8635  0.8883  0.5836
 9314TIP3   OH249432   5.135   0.294   1.799 -0.5114 -0.1754  0.4455
 9314TIP3    H149433   5.189   0.262   1.872  0.2657 -2.5096 -1.0612
 9314TIP3    H249434   5.112   0.216   1.750  2.8371  1.4474 -4.4649
 9315TIP3   OH249435   0.426   4.816  12.779  0.0303  0.0284  0.6743
 9315TIP3    H149436   0.473   4.774  12.707  0.0405 -2.2609  1.9441
 9315TIP3    H249437   0.338   4.831  12.744  0.6914  1.2983 -0.5987
 9316TIP3   OH249438   6.466   3.853   4.196 -0.1774 -0.7167 -0.5047
 9316TIP3    H149439   6.539   3.911   4.218 -0.8197 -0.5094  1.3058
 9316TIP3    H249440   6.479   3.831   4.104  1.5197  0.2210 -0.5286
 9317TIP3   OH249441   6.107   4.043   1.339  0.2609 -0.4928 -0.2950
 9317TIP3    H149442   6.073   4.109   1.278  1.4586  0.1367 -0.2980
 9317TIP3    H249443   6.108   3.962   1.288 -1.0563 -0.4988 -0.3464
 9318TIP3   OH249444   6.255   2.526   1.498 -0.2621 -0.5697  0.3059
 9318TIP3    H149445   6.261   2.560   1.409 -0.0649  1.3536  1.0082
 9318TIP3    H249446   6.280   2.600   1.554  1.7079 -2.3225  1.8953
 9319TIP3   OH249447   5.797   2.489  12.197  0.3022  0.4577 -0.2268
 9319TIP3    H149448   5.873   2.447  12.236  0.1571  0.0616 -0.3653
 9319TIP3    H249449   5.829   2.573  12.165  0.3179  1.0459  1.2189
 9320TIP3   OH249450   5.380   6.209   1.618 -0.5367 -0.4122 -0.6264
 9320TIP3    H149451   5.435   6.191   1.695 -1.0550 -0.9754 -0.3814
 9320TIP3    H249452   5.360   6.302   1.625  1.1753  0.0515 -1.2487
 9321TIP3   OH249453   1.328   3.689   5.679  0.2597 -0.0704  0.2797
 9321TIP3    H149454   1.358   3.722   5.764  0.0676  1.4162 -0.1966
 9321TIP3    H249455   1.407   3.684   5.626  0.3839 -1.0264  0.5277
 9322TIP3   OH249456   1.598   5.278   5.003  0.2142  0.3810 -0.1841
 9322TIP3    H149457   1.651   5.352   5.029  1.5648 -1.0285  1.2446
 9322TIP3    H249458   1.660   5.214   4.969 -0.5285 -1.2922  1.4604
 9323TIP3   OH249459   1.390   4.950  12.791 -0.2744  0.3071  0.2848
 9323TIP3    H149460   1.422   4.864  12.819  0.6400  0.8834  1.0613
 9323TIP3    H249461   1.469   4.999  12.770 -0.6536  1.6112  1.7685
 9324TIP3   OH249462   0.920   2.844   4.608  0.1020  0.7052 -0.4051
 9324TIP3    H149463   0.833   2.806   4.614  0.7113 -0.7584 -0.4635
 9324TIP3    H249464   0.905   2.939   4.608 -1.5138  0.4783 -0.9448
 9325TIP3   OH249465   1.627   0.878   3.739 -0.4163  0.2655 -0.2785
 9325TIP3    H149466   1.562   0.816   3.770  0.0377  0.3588  0.9078
 9325TIP3    H249467   1.576   0.950   3.701 -0.9539 -1.1909 -2.5600
 9326TIP3   OH249468   1.073   2.783  16.174 -0.7780  0.5910 -1.3384
 9326TIP3    H149469   1.165   2.781  16.198 -1.3808  0.2540  1.1889
 9326TIP3    H249470   1.063   2.862  16.122  0.6733  1.3805 -0.4721
 9327TIP3   OH249471   2.520   1.802  17.143  0.8580  0.5671 -0.1350
 9327TIP3    H149472   2.438   1.843  17.173  1.4759  0.8790  1.1789
 9327TIP3    H249473   2.511   1.710  17.168 -0.2739 -0.0715 -2.5571
 9328TIP3   OH249474   3.068   4.861   1.880 -0.4302 -0.0234 -0.2483
 9328TIP3    H149475   2.992   4.860   1.822  0.0804  0.8656 -0.9695
 9328TIP3    H249476   3.114   4.780   1.860 -0.2519  0.2802 -1.1238
 9329TIP3   OH249477   0.671   6.480  16.839 -0.4218 -0.3153 -0.1031
 9329TIP3    H149478   0.677   6.564  16.794 -0.3955 -0.0899  0.3117
 9329TIP3    H249479   0.737   6.485  16.908  0.2692 -1.0669 -0.6919
 9330TIP3   OH249480   5.830   2.936  11.705 -0.4321  0.3106  0.4112
 9330TIP3    H149481   5.773   2.867  11.737  0.3874 -1.4327 -1.6496
 9330TIP3    H249482   5.783   2.973  11.630 -0.2909  1.1220  0.7148
 9331TIP3   OH249483   1.716   6.419  13.321  0.0500  0.5186 -0.0564
 9331TIP3    H149484   1.684   6.509  13.318  0.0737  0.5445  0.5129
 9331TIP3    H249485   1.713   6.395  13.413  0.0993 -0.0466 -0.1982
 9332TIP3   OH249486   6.205   4.403   1.296  0.1904  0.1830 -0.0222
 9332TIP3    H149487   6.159   4.320   1.306  3.1419 -1.6752 -0.6795
 9332TIP3    H249488   6.216   4.414   1.202 -0.7379  1.7178  0.0166
 9333TIP3   OH249489   2.867   0.843  16.857  0.0277  0.3587 -0.0195
 9333TIP3    H149490   2.881   0.808  16.945  0.3839 -0.4481 -0.3868
 9333TIP3    H249491   2.871   0.938  16.868 -1.6194  0.3377  1.1149
 9334TIP3   OH249492   0.921   4.830   6.135  0.1625 -0.0812 -0.1932
 9334TIP3    H149493   1.005   4.803   6.173  0.3473  0.2598 -0.3493
 9334TIP3    H249494   0.939   4.835   6.041 -0.4291 -1.4292 -0.3954
 9335TIP3   OH249495   0.406   6.291   2.805 -0.0199 -0.1625  0.0770
 9335TIP3    H149496   0.406   6.361   2.739 -0.1088 -0.3898 -0.1650
 9335TIP3    H249497   0.386   6.212   2.756  1.9290 -0.6660  0.0411
 9336TIP3   OH249498   4.971   2.192  14.947  0.4214  0.1469  0.4688
 9336TIP3    H149499   5.049   2.247  14.956 -0.1192  1.0120  0.0243
 9336TIP3    H249500   4.935   2.187  15.035  0.5738  0.3636  0.5456
 9337TIP3   OH249501   0.866   3.061  15.347  0.2333  0.2631 -0.8010
 9337TIP3    H149502   0.781   3.042  15.307  0.2958  1.1224 -1.3625
 9337TIP3    H249503   0.908   2.975  15.355 -1.1957 -0.3715  0.7109
 9338TIP3   OH249504   3.689   0.909  11.565 -0.0316  0.2134  0.5445
 9338TIP3    H149505   3.742   0.869  11.496 -0.6596  0.4957 -0.1171
 9338TIP3    H249506   3.617   0.847  11.580 -0.4139  0.5870  0.2778
 9339TIP3   OH249507   1.788   6.513   3.588 -0.0615 -0.3905  0.4458
 9339TIP3    H149508   1.789   6.607   3.572 -1.1527 -0.6487 -1.4547
 9339TIP3    H249509   1.766   6.504   3.680 -0.2067  1.2086  0.5887
 9340TIP3   OH249510   1.122   1.825   0.732  0.3302  0.0346 -0.0066
 9340TIP3    H149511   1.169   1.809   0.650 -0.3252  0.1684 -0.4156
 9340TIP3    H249512   1.157   1.759   0.792 -0.2561 -1.0678 -0.8373
 9341TIP3   OH249513   2.299   1.911  16.018 -0.0264  0.3335 -0.0089
 9341TIP3    H149514   2.249   1.919  16.099  1.2042  0.8510  0.7133
 9341TIP3    H249515   2.283   1.993  15.972  2.1853  1.6456  1.4258
 9342TIP3   OH249516   2.500   2.451   2.488  0.1121  0.1165 -0.0185
 9342TIP3    H149517   2.464   2.471   2.575 -1.5782 -0.8153 -0.4660
 9342TIP3    H249518   2.586   2.412   2.506  0.7600  1.9469  1.1089
 9343TIP3   OH249519   3.447   5.395  13.301  0.2405  0.0054  0.3282
 9343TIP3    H149520   3.413   5.312  13.335 -1.4510  0.2481 -0.6285
 9343TIP3    H249521   3.477   5.442  13.379 -0.3928 -0.8014  1.0834
 9344TIP3   OH249522   1.225   0.691   3.267 -0.5777 -0.1763 -0.6047
 9344TIP3    H149523   1.224   0.701   3.362 -0.0768  0.0290 -0.6184
 9344TIP3    H249524   1.299   0.633   3.249 -1.8187 -1.8037 -0.7350
 9345TIP3   OH249525   1.667   4.414   0.188  1.3089 -0.4709 -0.4249
 9345TIP3    H149526   1.711   4.411   0.103  0.1323 -0.7850 -1.0523
 9345TIP3    H249527   1.737   4.401   0.252  2.1623 -0.6262 -1.3610
 9346TIP3   OH249528   0.822   6.483  14.278 -0.0621  0.1325 -0.1346
 9346TIP3    H149529   0.738   6.447  14.307  0.0893 -0.2731 -0.1906
 9346TIP3    H249530   0.803   6.523  14.193 -0.3645  0.7345  0.2130
 9347TIP3   OH249531   1.172   2.089   0.433  0.0642  0.0426 -0.1118
 9347TIP3    H149532   1.205   2.003   0.457  2.5006 -0.2929 -3.7881
 9347TIP3    H249533   1.121   2.073   0.353  1.7950  2.0658 -1.7275
 9348TIP3   OH249534   3.162   2.171  12.835 -0.0561 -0.7648 -0.3845
 9348TIP3    H149535   3.240   2.176  12.780  1.1338  1.4370  1.3251
 9348TIP3    H249536   3.106   2.242  12.804 -0.9138 -1.6115 -0.8460
 9349TIP3   OH249537   0.804   2.564  13.919  0.3057  0.2044 -0.5676
 9349TIP3    H149538   0.712   2.589  13.929  0.3723  0.2839 -0.1485
 9349TIP3    H249539   0.801   2.478  13.878  0.0521  0.3913 -0.9523
 9350TIP3   OH249540   3.936   3.159  17.420 -0.1485 -0.4944 -0.2620
 9350TIP3    H149541   4.021   3.140  17.459  0.4879  2.6667  0.1368
 9350TIP3    H249542   3.873   3.132  17.486  0.5363 -1.9511 -0.1491
 9351TIP3   OH249543   4.582   3.392  15.944  0.5473 -0.1107 -0.0158
 9351TIP3    H149544   4.545   3.350  15.867 -1.5976  1.3541  0.1356
 9351TIP3    H249545   4.617   3.320  15.996  0.9124 -1.2457 -1.7306
 9352TIP3   OH249546   3.350   0.399  14.902 -0.2658  0.3061 -0.7663
 9352TIP3    H149547   3.334   0.453  14.825 -1.3757  0.8867 -0.1518
 9352TIP3    H249548   3.264   0.362  14.924 -0.6860  2.6191  1.9850
 9353TIP3   OH249549   2.262   0.897  16.081  0.1120 -0.1785  0.6078
 9353TIP3    H149550   2.255   0.976  16.027 -0.0022 -2.3026 -2.7794
 9353TIP3    H249551   2.333   0.916  16.142  0.3160  2.4163 -0.3103
 9354TIP3   OH249552   1.193   0.261   1.218 -0.1185  0.1727  0.2228
 9354TIP3    H149553   1.232   0.345   1.243 -0.9382  0.6099  0.0663
 9354TIP3    H249554   1.109   0.259   1.263 -0.6984  0.0450 -0.8306
 9355TIP3   OH249555   2.373   0.938  16.587  0.5610 -0.0218 -0.2646
 9355TIP3    H149556   2.382   1.002  16.656  0.4437 -0.1333 -0.1437
 9355TIP3    H249557   2.425   0.863  16.616 -1.9749 -1.3674  1.2689
 9356TIP3   OH249558   0.952   0.602  13.357  0.0884 -0.0678  0.4326
 9356TIP3    H149559   0.905   0.684  13.346  0.2542  0.1022  1.0007
 9356TIP3    H249560   0.990   0.606  13.445  1.3554 -0.1084 -0.0858
 9357TIP3   OH249561   2.011   2.325  13.396  0.1239 -0.2954  0.0088
 9357TIP3    H149562   1.975   2.407  13.430 -0.0740 -0.5713  0.4681
 9357TIP3    H249563   1.986   2.259  13.461  2.0727 -0.3819  0.7093
 9358TIP3   OH249564   2.516   4.926  11.958  0.0833 -0.0366  0.3185
 9358TIP3    H149565   2.499   4.841  11.918  0.1156  0.7404 -1.4337
 9358TIP3    H249566   2.469   4.923  12.041 -0.2135 -1.6229  0.1225
 9359TIP3   OH249567   5.843   1.933  16.783  0.6741  0.4709  0.2206
 9359TIP3    H149568   5.776   1.884  16.829  1.3071  0.9157  1.6780
 9359TIP3    H249569   5.926   1.901  16.820  1.1933  1.0520 -0.4111
 9360TIP3   OH249570   5.550   3.967  13.927  0.2384  0.3024 -0.8911
 9360TIP3    H149571   5.626   3.932  13.972  1.0577 -0.2221 -2.5889
 9360TIP3    H249572   5.549   4.060  13.948  1.1873  0.2556 -0.6259
 9361TIP3   OH249573   0.590   3.285   2.513 -0.0879  0.0334  0.0321
 9361TIP3    H149574   0.660   3.235   2.556  0.4784  0.5099 -0.3139
 9361TIP3    H249575   0.509   3.244   2.543  0.3628 -1.2763 -0.4637
 9362TIP3   OH249576   1.822   0.786  11.995  0.4459  0.1166  0.0343
 9362TIP3    H149577   1.741   0.762  11.951 -0.1477  2.2196 -0.1493
 9362TIP3    H249578   1.846   0.709  12.046 -1.2266 -0.8338 -0.5416
 9363TIP3   OH249579   3.985   4.318  15.258  0.4606 -0.3344  0.1994
 9363TIP3    H149580   3.932   4.398  15.264  0.2035 -0.5528  0.8549
 9363TIP3    H249581   4.035   4.315  15.339 -1.5072 -2.2170  1.4527
 9364TIP3   OH249582   5.435   3.969   6.118 -0.3932 -0.1543 -0.3902
 9364TIP3    H149583   5.443   4.047   6.063 -1.5184  0.4854  0.3247
 9364TIP3    H249584   5.346   3.972   6.151  0.4955  0.0014  2.2339
 9365TIP3   OH249585   3.236   6.480  12.950  0.3152  0.0932 -0.4881
 9365TIP3    H149586   3.316   6.496  13.000  1.0975 -0.7167 -1.4458
 9365TIP3    H249587   3.267   6.451  12.864 -1.0110 -0.2699 -0.8614
 9366TIP3   OH249588   4.360   6.205  14.903 -0.5909  0.3949 -0.1372
 9366TIP3    H149589   4.372   6.111  14.910 -1.5590  0.2390 -0.4370
 9366TIP3    H249590   4.266   6.217  14.895 -0.4731  1.3852 -0.2031
 9367TIP3   OH249591   0.971   4.800   5.868 -0.6631  0.2813  0.5519
 9367TIP3    H149592   0.916   4.832   5.796 -1.5785 -0.2297  0.9992
 9367TIP3    H249593   1.017   4.724   5.831 -0.8164  0.2690  0.3820
 9368TIP3   OH249594   4.269   1.181   6.674 -0.1663 -0.1034  0.4341
 9368TIP3    H149595   4.210   1.163   6.747  0.1594  0.9640  0.9816
 9368TIP3    H249596   4.214   1.224   6.608  0.2411  2.2261  1.5293
 9369TIP3   OH249597   5.029   0.215  11.153  1.1464 -0.6209  0.7912
 9369TIP3    H149598   5.010   0.253  11.239  3.1072 -0.9450  1.4044
 9369TIP3    H249599   5.105   0.264  11.121  0.9411 -1.0554 -0.4080
 9370TIP3   OH249600   5.257   5.064  13.704 -0.2434 -0.2352  0.2909
 9370TIP3    H149601   5.245   5.138  13.645 -0.5571 -1.9368 -1.9278
 9370TIP3    H249602   5.266   4.988  13.646  0.4400 -1.9038  2.4325
 9371TIP3   OH249603   0.597   3.895   2.552  0.5068  0.2576 -0.2776
 9371TIP3    H149604   0.557   3.966   2.604 -0.2832  0.4586 -1.1367
 9371TIP3    H249605   0.691   3.905   2.566  0.3651  1.0598  0.1554
 9372TIP3   OH249606   0.842   1.172  14.635 -0.0949  0.5691 -0.0124
 9372TIP3    H149607   0.847   1.267  14.639  1.4702  0.4762  1.8028
 9372TIP3    H249608   0.924   1.145  14.593  0.7535 -0.0110  1.8797
 9373TIP3   OH249609   5.724   1.736   1.324 -0.3382  0.4820 -0.3226
 9373TIP3    H149610   5.765   1.805   1.272  0.2533 -0.0956 -0.6310
 9373TIP3    H249611   5.794   1.705   1.381 -1.0774  1.3908  1.1457
 9374TIP3   OH249612   2.178   1.922   5.886 -0.2218  0.1771  0.2323
 9374TIP3    H149613   2.098   1.946   5.934 -0.3419 -3.4529  2.2467
 9374TIP3    H249614   2.157   1.838   5.846  2.5749 -0.9946  0.9963
 9375TIP3   OH249615   6.142   2.560   3.636 -0.7458  0.3169  0.0794
 9375TIP3    H149616   6.167   2.548   3.545  0.4627  3.1302 -0.0473
 9375TIP3    H249617   6.191   2.492   3.683  2.0022  1.4415 -0.9547
 9376TIP3   OH249618   5.686   1.957   4.985  0.4791 -0.4646 -0.5847
 9376TIP3    H149619   5.776   1.977   5.011  1.1431 -1.3058 -2.1494
 9376TIP3    H249620   5.689   1.867   4.953 -1.2438 -1.0349  0.6786
 9377TIP3   OH249621   1.825   0.148   1.543  0.4152 -0.5337  0.5325
 9377TIP3    H149622   1.779   0.100   1.474  2.1182  1.0019 -1.8217
 9377TIP3    H249623   1.881   0.082   1.584 -0.8807 -1.5467  0.7577
 9378TIP3   OH249624   4.469   0.516  14.661  0.0465  0.2373  0.1020
 9378TIP3    H149625   4.482   0.427  14.695  1.0397  0.1650 -0.4497
 9378TIP3    H249626   4.552   0.560  14.676  0.3037  0.3946 -1.6463
 9379TIP3   OH249627   3.703   1.574  12.958 -0.0037 -0.4090  0.0297
 9379TIP3    H149628   3.616   1.613  12.971  1.2612  2.1674  1.5481
 9379TIP3    H249629   3.761   1.649  12.950  2.0612 -2.0593 -1.6349
 9380TIP3   OH249630   3.411   6.482  17.484 -0.1269 -1.1468  0.5581
 9380TIP3    H149631   3.360   6.563  17.475  0.0843 -1.1374 -0.8269
 9380TIP3    H249632   3.349   6.412  17.465  0.4788 -1.0987 -1.9266
 9381TIP3   OH249633   0.418   5.736  14.698 -0.9078  0.1604 -0.0792
 9381TIP3    H149634   0.509   5.757  14.720 -1.0728  1.5283 -0.6333
 9381TIP3    H249635   0.418   5.641  14.685  0.7017  0.2710 -1.2346
 9382TIP3   OH249636   6.636   5.993   4.824 -0.3276  0.3799  0.2716
 9382TIP3    H149637   6.720   5.994   4.869 -0.4141 -0.3178  0.4622
 9382TIP3    H249638   6.623   6.083   4.795 -0.2730  0.8584  1.6606
 9383TIP3   OH249639   2.255   3.728  15.384 -0.3470  0.7480 -0.4859
 9383TIP3    H149640   2.164   3.723  15.354  0.0187  1.1609 -1.7197
 9383TIP3    H249641   2.305   3.687  15.314  0.1800 -2.5340  1.6149
 9384TIP3   OH249642   6.088   6.502   2.263  0.0224  0.0060  0.4072
 9384TIP3    H149643   6.101   6.512   2.169 -1.4559  0.2231  0.1930
 9384TIP3    H249644   6.065   6.590   2.294  0.3778 -0.0881  0.9568
 9385TIP3   OH249645   0.402   4.384   2.316 -0.2549  0.2356  0.4107
 9385TIP3    H149646   0.372   4.473   2.296 -0.1988  0.7811  2.5741
 9385TIP3    H249647   0.433   4.350   2.232 -0.8881  2.0018 -0.5933
 9386TIP3   OH249648   4.426   6.059   2.800 -0.0387 -0.3445  0.1158
 9386TIP3    H149649   4.352   6.041   2.858 -0.4845  0.6582 -0.1289
 9386TIP3    H249650   4.474   5.976   2.797 -0.6560 -0.7524  0.9804
 9387TIP3   OH249651   5.619   5.262   5.193  0.2051  0.3123  0.5122
 9387TIP3    H149652   5.577   5.339   5.156  0.8320  1.1013  1.3988
 9387TIP3    H249653   5.562   5.235   5.264  1.1876  1.4500  1.7886
 9388TIP3   OH249654   0.180   5.579  17.388  0.2314 -0.0059 -1.0023
 9388TIP3    H149655   0.117   5.552  17.454 -0.3725  0.9329 -1.1833
 9388TIP3    H249656   0.132   5.577  17.306  1.0587 -1.4666 -1.5048
 9389TIP3   OH249657   1.410   1.354  13.659 -0.5050 -0.4542 -0.1813
 9389TIP3    H149658   1.474   1.338  13.589  0.0453 -1.4163  0.5091
 9389TIP3    H249659   1.402   1.270  13.703 -0.2339  0.3201  1.4002
 9390TIP3   OH249660   2.626   2.661  16.402  0.5579 -0.0015 -0.1431
 9390TIP3    H149661   2.543   2.693  16.367 -1.0756 -2.5438  1.1104
 9390TIP3    H249662   2.656   2.596  16.338  1.0950  0.2141 -0.1162
 9391TIP3   OH249663   4.729   4.737   5.560 -0.0982 -0.0227 -0.0077
 9391TIP3    H149664   4.649   4.712   5.513  0.2798 -1.0377 -0.1246
 9391TIP3    H249665   4.781   4.657   5.564  0.6188  0.4619  0.6712
 9392TIP3   OH249666   1.618   3.881   1.250  0.5997  0.0488 -0.1484
 9392TIP3    H149667   1.623   3.865   1.344  0.6558  1.4242  0.1110
 9392TIP3    H249668   1.558   3.814   1.217  1.3030 -1.0426  0.7010
 9393TIP3   OH249669   0.800   3.799   3.459 -0.2182  0.3182  0.1120
 9393TIP3    H149670   0.766   3.710   3.465 -0.6431  0.4182 -0.7636
 9393TIP3    H249671   0.891   3.788   3.432 -0.4245  0.1722 -0.5223
 9394TIP3   OH249672   1.495   6.457  16.421 -0.2683 -0.1387  0.1491
 9394TIP3    H149673   1.464   6.475  16.332 -0.1871  2.0837  0.5074
 9394TIP3    H249674   1.577   6.505  16.428 -1.0227  1.0376  1.8573
 9395TIP3   OH249675   4.601   0.904  11.461 -0.4074 -0.3503  0.0900
 9395TIP3    H149676   4.520   0.952  11.446  0.7141  2.2309  1.5636
 9395TIP3    H249677   4.641   0.895  11.374 -1.2274  0.3279 -0.3645
 9396TIP3   OH249678   5.609   3.553  15.069 -0.0620  0.1110 -0.1838
 9396TIP3    H149679   5.666   3.490  15.025 -0.5718 -1.3311  1.1219
 9396TIP3    H249680   5.629   3.543  15.162 -1.0661  0.9787  0.1509
 9397TIP3   OH249681   5.493   4.269  12.065 -0.1752  0.1676  0.4372
 9397TIP3    H149682   5.447   4.323  12.128  0.3672  0.7733  0.3282
 9397TIP3    H249683   5.580   4.255  12.104  0.1468  0.5039 -0.1419
 9398TIP3   OH249684   5.466   1.106  14.335 -0.0414 -0.2854 -0.2236
 9398TIP3    H149685   5.391   1.140  14.384  1.4403  0.3136  1.7417
 9398TIP3    H249686   5.532   1.088  14.401  1.7995 -0.2066 -1.9433
 9399TIP3   OH249687   0.953   6.654  12.051 -0.1451  0.3199  0.0185
 9399TIP3    H149688   0.969   6.641  12.144  1.8585  1.0435 -0.1926
 9399TIP3    H249689   0.936   6.566  12.017  0.3936 -0.1086  0.8378
 9400TIP3   OH249690   3.690   3.499   3.721  0.3232  0.0316 -0.4164
 9400TIP3    H149691   3.719   3.513   3.631 -0.4221  0.2139 -0.6367
 9400TIP3    H249692   3.745   3.557   3.774 -1.0963  2.1046 -1.0632
 9401TIP3   OH249693   0.341   1.302  16.000  0.2879 -0.0934 -0.0783
 9401TIP3    H149694   0.321   1.227  15.944 -1.7800  0.0402  0.3834
 9401TIP3    H249695   0.379   1.264  16.079 -2.8040 -1.0050  1.1304
 9402TIP3   OH249696   2.614   1.511  11.438 -0.0682  0.0371  0.6104
 9402TIP3    H149697   2.687   1.528  11.497 -1.5276  0.1494  2.4842
 9402TIP3    H249698   2.630   1.423  11.405  0.8400  0.0080  1.0927
 9403TIP3   OH249699   4.524   4.799   1.241  0.3624  0.0864  0.0359
 9403TIP3    H149700   4.556   4.882   1.276  2.3583 -0.5131 -0.2413
 9403TIP3    H249701   4.601   4.743   1.239 -1.0597 -1.9832  0.7562
 9404TIP3   OH249702   3.614   5.110   1.242 -0.3378  0.3373  0.2267
 9404TIP3    H149703   3.569   5.057   1.307  0.8406 -0.8521  0.1075
 9404TIP3    H249704   3.583   5.199   1.259 -0.3395  0.0110  2.1591
 9405TIP3   OH249705   5.591   6.459   7.039 -0.5032 -0.1074  0.1230
 9405TIP3    H149706   5.569   6.373   7.076 -0.1754  0.8867  2.8289
 9405TIP3    H249707   5.686   6.457   7.027 -0.4714 -0.0704  0.3614
 9406TIP3   OH249708   1.694   3.104   4.793 -0.3115 -0.1038  0.0375
 9406TIP3    H149709   1.722   3.096   4.702  0.1677 -0.8531  0.2454
 9406TIP3    H249710   1.765   3.065   4.844 -1.0446 -0.6386  0.6667
 9407TIP3   OH249711   0.424   2.906  15.267  0.4957 -0.5420  0.6680
 9407TIP3    H149712   0.424   2.810  15.276  0.0629 -0.5412  0.7141
 9407TIP3    H249713   0.514   2.928  15.243  0.1711 -1.1632 -1.3511
 9408TIP3   OH249714   0.620   4.981  13.960 -0.0492 -0.5592  0.0772
 9408TIP3    H149715   0.562   5.031  14.018 -0.0327 -0.8591  0.3535
 9408TIP3    H249716   0.602   5.016  13.873  0.3234  0.2804  0.3266
 9409TIP3   OH249717   3.941   1.794  12.765 -0.3100  0.2371  0.5180
 9409TIP3    H149718   4.029   1.830  12.769  1.0907 -2.9321  3.5604
 9409TIP3    H249719   3.941   1.739  12.687  1.5580 -1.9641  1.9361
 9410TIP3   OH249720   3.542   0.848   5.993 -0.0232 -0.4888  0.2255
 9410TIP3    H149721   3.470   0.843   6.056  0.3648  0.6007  0.8017
 9410TIP3    H249722   3.509   0.807   5.914 -1.4699  0.4412  0.3125
 9411TIP3   OH249723   1.047   0.038   0.105  0.4450 -0.4367 -0.0367
 9411TIP3    H149724   0.991  -0.036   0.125  0.3714 -0.2550  0.4429
 9411TIP3    H249725   0.987   0.113   0.099  0.5494 -0.3684 -0.2452
 9412TIP3   OH249726   4.482   0.711  11.657 -0.0229 -0.0999 -0.5660
 9412TIP3    H149727   4.414   0.730  11.593 -0.4015 -2.2267 -0.8734
 9412TIP3    H249728   4.445   0.640  11.710  1.2284 -0.0044  0.4786
 9413TIP3   OH249729   1.949   1.768  14.702  0.0708  0.7004 -0.2899
 9413TIP3    H149730   1.904   1.735  14.624  0.0255  0.1530 -0.0370
 9413TIP3    H249731   1.930   1.704  14.769  0.9079  0.6652 -0.0744
 9414TIP3   OH249732   0.370   3.084  16.214  0.0237 -0.7006 -0.2439
 9414TIP3    H149733   0.399   3.092  16.124 -0.5759 -2.0373 -0.5830
 9414TIP3    H249734   0.402   3.163  16.257  1.9526 -0.9227 -1.1713
 9415TIP3   OH249735   2.416   0.175   4.142  0.1699  0.2476  0.2128
 9415TIP3    H149736   2.446   0.229   4.215  2.3205 -0.2403 -0.2460
 9415TIP3    H249737   2.320   0.182   4.145  0.2731  1.7083  1.9293
 9416TIP3   OH249738   4.174   4.466   6.983  0.0675 -0.2763 -0.2310
 9416TIP3    H149739   4.163   4.560   6.963 -1.1760 -0.3994 -0.2152
 9416TIP3    H249740   4.269   4.454   6.991  0.2234  1.0787  0.2331
 9417TIP3   OH249741   0.848   4.734   2.196 -0.5519  0.2422 -0.1499
 9417TIP3    H149742   0.755   4.734   2.222 -0.2967  0.1801  0.7915
 9417TIP3    H249743   0.847   4.767   2.106 -1.7073 -1.8132 -0.9778
 9418TIP3   OH249744   2.702   3.730   0.805  0.5997  1.0580  0.4453
 9418TIP3    H149745   2.771   3.674   0.771 -1.7924 -1.1116 -1.2055
 9418TIP3    H249746   2.702   3.807   0.748 -0.4218 -0.4690 -1.7361
 9419TIP3   OH249747   4.237   2.385   1.810 -0.4685  0.4642  0.2820
 9419TIP3    H149748   4.311   2.402   1.752 -0.8797 -1.6644 -0.9752
 9419TIP3    H249749   4.160   2.413   1.760 -0.6589  1.3251  1.0143
 9420TIP3   OH249750   5.982   5.395  16.114 -0.2449  0.1377 -0.6416
 9420TIP3    H149751   6.034   5.417  16.191 -0.8453 -1.3091  0.2177
 9420TIP3    H249752   5.908   5.456  16.116  0.0232  0.4544 -0.3716
 9421TIP3   OH249753   5.845   0.990   1.148 -0.2327  0.1141 -0.1258
 9421TIP3    H149754   5.762   0.952   1.177 -0.3623  0.7216  0.3248
 9421TIP3    H249755   5.911   0.925   1.170 -0.4500  0.1481  0.6512
 9422TIP3   OH249756   5.480   5.606   4.675  0.6755 -0.2464  0.3097
 9422TIP3    H149757   5.435   5.553   4.741  0.1038 -1.2429 -0.8433
 9422TIP3    H249758   5.570   5.612   4.706  0.0358  0.8912  2.1236
 9423TIP3   OH249759   2.232   0.187   6.435 -0.2140  0.2082  0.5234
 9423TIP3    H149760   2.312   0.239   6.439 -1.2626  1.8535  1.0259
 9423TIP3    H249761   2.259   0.105   6.392  1.7363  0.6665  0.7732
 9424TIP3   OH249762   2.207   0.819  16.908  0.3346  0.4221  0.2341
 9424TIP3    H149763   2.289   0.857  16.940 -0.0876 -0.1824  2.1852
 9424TIP3    H249764   2.226   0.726  16.897 -0.3157  0.0724  1.7331
 9425TIP3   OH249765   4.736   1.068   1.335  0.4933  0.3531  0.7046
 9425TIP3    H149766   4.828   1.067   1.361  0.3076 -1.1845  1.4258
 9425TIP3    H249767   4.700   1.146   1.376  1.4991  1.0849  0.2581
 9426TIP3   OH249768   6.361   2.764   2.487 -0.3885  0.4283  0.0500
 9426TIP3    H149769   6.384   2.787   2.577  0.3319 -1.2014  0.3178
 9426TIP3    H249770   6.434   2.710   2.457 -1.6092 -0.8017 -0.7969
 9427TIP3   OH249771   0.647   4.073  13.414 -0.1533 -0.4364  0.0023
 9427TIP3    H149772   0.680   4.107  13.497  0.3795 -0.6000 -0.1386
 9427TIP3    H249773   0.705   4.001  13.392 -0.4765 -0.5917 -0.3623
 9428TIP3   OH249774   2.954   3.612  11.410  0.0680  0.1547  0.3608
 9428TIP3    H149775   2.953   3.566  11.325 -0.3753  0.2974  0.2896
 9428TIP3    H249776   3.037   3.586  11.449  0.1634 -0.1141 -0.0103
 9429TIP3   OH249777   0.923   3.917  11.441  0.1992  0.0391  0.6702
 9429TIP3    H149778   0.958   3.956  11.521  1.7904 -2.1866  1.1694
 9429TIP3    H249779   0.849   3.863  11.470 -0.2487  0.5122  0.4049
 9430TIP3   OH249780   3.415   6.384   2.675 -0.1826 -0.2929 -0.4573
 9430TIP3    H149781   3.469   6.438   2.733 -0.2667  1.0526 -1.5897
 9430TIP3    H249782   3.355   6.446   2.634 -1.0661 -1.4360 -0.9373
 9431TIP3   OH249783   4.508   0.645   5.300 -0.1725  0.1666  0.1555
 9431TIP3    H149784   4.428   0.631   5.251  0.6547  0.4955 -1.3349
 9431TIP3    H249785   4.515   0.740   5.309  0.1130  0.1443  0.1851
 9432TIP3   OH249786   0.123   3.580  12.345  0.3111 -0.0452  0.0500
 9432TIP3    H149787   0.123   3.617  12.257  0.1832 -0.0262  0.0578
 9432TIP3    H249788   0.161   3.649  12.400  0.7750 -0.2136 -0.0549
 9433TIP3   OH249789   6.602   5.997  15.640 -0.8033  0.1872 -0.1251
 9433TIP3    H149790   6.646   5.936  15.581 -0.0130 -1.0725  1.6786
 9433TIP3    H249791   6.515   5.960  15.653 -0.5157 -0.2644  0.5349
 9434TIP3   OH249792   2.138   2.143   2.811  0.1191  0.3780 -0.7401
 9434TIP3    H149793   2.195   2.083   2.859 -0.1679 -0.1609 -1.0545
 9434TIP3    H249794   2.192   2.172   2.737 -0.6387 -1.8006 -2.2757
 9435TIP3   OH249795   4.215   6.021   3.543 -0.2034 -0.3930  0.2243
 9435TIP3    H149796   4.182   5.932   3.555  0.6285 -0.8691 -0.8565
 9435TIP3    H249797   4.310   6.013   3.550 -0.0883  0.3278 -0.2998
 9436TIP3   OH249798   2.553   5.425   3.956  0.2035  0.1319 -0.2952
 9436TIP3    H149799   2.547   5.398   3.864 -1.0871 -2.4487  0.4300
 9436TIP3    H249800   2.507   5.509   3.959  0.8396  0.5827 -2.1017
 9437TIP3   OH249801   2.592   5.159  13.853  0.2113  0.4590 -0.3055
 9437TIP3    H149802   2.558   5.190  13.937  2.6681  0.1890  0.8677
 9437TIP3    H249803   2.686   5.173  13.859  0.8651 -2.5998 -1.6878
 9438TIP3   OH249804   2.453   5.309   5.663  0.1348  0.0280 -0.2185
 9438TIP3    H149805   2.532   5.325   5.715 -0.4665 -0.7216  0.9782
 9438TIP3    H249806   2.389   5.371   5.698 -0.7501 -1.5436  1.0891
 9439TIP3   OH249807   6.408   6.527   5.717 -0.8147  0.0971  0.0312
 9439TIP3    H149808   6.498   6.498   5.702 -0.7646 -0.4116  1.2239
 9439TIP3    H249809   6.354   6.463   5.671 -0.5924 -0.0561 -0.0182
 9440TIP3   OH249810   1.679   3.751   0.793 -0.5171  0.3015  0.4768
 9440TIP3    H149811   1.764   3.740   0.835 -0.3185  0.2622  0.0686
 9440TIP3    H249812   1.647   3.835   0.826 -0.4768  0.1529  0.9001
 9441TIP3   OH249813   4.821   4.534   5.065 -0.6398  0.0483  0.0375
 9441TIP3    H149814   4.816   4.591   5.141 -0.5315  1.4402 -0.9628
 9441TIP3    H249815   4.736   4.545   5.021  0.0639  0.9739 -1.1837
 9442TIP3   OH249816   5.623   6.706  16.566 -0.7287  0.1534  0.5214
 9442TIP3    H149817   5.609   6.622  16.610 -1.0946  0.0150  0.1477
 9442TIP3    H249818   5.541   6.723  16.519  0.0819 -0.3589 -1.1794
 9443TIP3   OH249819   4.821   1.432   2.151  0.0493 -0.7358 -0.0435
 9443TIP3    H149820   4.867   1.367   2.099  1.8337  0.5178 -0.1385
 9443TIP3    H249821   4.748   1.460   2.096  1.6681  0.2791 -1.7941
 9444TIP3   OH249822   0.581   4.477   6.441  0.2325  0.0643  0.0779
 9444TIP3    H149823   0.570   4.424   6.520  0.4984 -1.5012 -0.9055
 9444TIP3    H249824   0.494   4.478   6.401  0.5171 -0.7993 -0.5989
 9445TIP3   OH249825   4.730   6.509   4.246  0.4266 -0.0684 -0.0537
 9445TIP3    H149826   4.761   6.426   4.210  1.0729 -0.4727  1.3671
 9445TIP3    H249827   4.717   6.565   4.170  0.0130 -1.4602 -1.0347
 9446TIP3   OH249828   5.093   1.641   5.386  0.2327 -0.4058 -0.5867
 9446TIP3    H149829   5.177   1.686   5.376 -0.6846  1.4407 -0.4391
 9446TIP3    H249830   5.086   1.625   5.481 -1.5237  3.6732  0.1824
 9447TIP3   OH249831   2.933   3.214  14.307  0.0651  0.1538 -0.2006
 9447TIP3    H149832   2.908   3.288  14.363  1.3982  0.6036 -0.1610
 9447TIP3    H249833   3.006   3.248  14.254 -0.4438 -0.6096 -1.4214
 9448TIP3   OH249834   3.803   2.926   1.530  0.1407  0.1915 -0.1711
 9448TIP3    H149835   3.735   2.909   1.594 -1.6311  1.1908 -1.6960
 9448TIP3    H249836   3.874   2.966   1.580 -0.7591  0.0214  1.3073
 9449TIP3   OH249837   4.498   2.637   0.609 -0.8855 -0.3418 -0.0717
 9449TIP3    H149838   4.427   2.701   0.601 -1.5209 -1.2009 -1.9931
 9449TIP3    H249839   4.567   2.670   0.551 -0.2142 -0.1522  0.8275
 9450TIP3   OH249840   6.469   4.024   2.389 -0.1602  0.0482  0.8597
 9450TIP3    H149841   6.476   4.075   2.308 -3.3454 -1.1545 -0.3307
 9450TIP3    H249842   6.522   3.946   2.373  0.4445  0.5118  0.5573
 9451TIP3   OH249843   6.736   3.268   1.608  0.2332 -0.2935 -0.2652
 9451TIP3    H149844   6.781   3.323   1.672 -0.2863 -1.4925  1.1765
 9451TIP3    H249845   6.799   3.199   1.588 -0.2614 -0.9076  0.2981
 9452TIP3   OH249846   5.384   1.525   6.556 -0.5102 -0.0456 -0.0180
 9452TIP3    H149847   5.420   1.493   6.639 -1.2462 -0.6384  0.0754
 9452TIP3    H249848   5.412   1.461   6.491 -1.6243 -0.6792  0.1020
 9453TIP3   OH249849   6.707   1.331   3.919  0.3048 -0.1999 -0.1034
 9453TIP3    H149850   6.747   1.277   3.850 -1.9860  0.3188 -1.9473
 9453TIP3    H249851   6.615   1.304   3.920 -0.0378  0.8740  1.7626
 9454TIP3   OH249852   0.693   0.690  11.873 -0.8576  0.1158 -0.3513
 9454TIP3    H149853   0.713   0.677  11.781 -0.8128 -0.2833 -0.2845
 9454TIP3    H249854   0.712   0.606  11.915  2.3444  1.1485  0.6006
 9455TIP3   OH249855   4.424   3.232   0.875  0.5201  0.1436  0.4013
 9455TIP3    H149856   4.457   3.172   0.808 -0.3838 -0.2562  0.2974
 9455TIP3    H249857   4.333   3.207   0.887  0.4432  0.7467  1.1998
 9456TIP3   OH249858   6.523   4.398   0.124 -0.0528 -0.0300  0.5391
 9456TIP3    H149859   6.502   4.464   0.190 -1.4005 -0.0147  0.1349
 9456TIP3    H249860   6.538   4.448   0.044 -0.6807 -0.1797  0.3235
 9457TIP3   OH249861   0.801   1.473  12.025 -0.4564  0.7706  0.1107
 9457TIP3    H149862   0.768   1.393  12.065  0.0377  0.0050 -0.9685
 9457TIP3    H249863   0.722   1.521  12.001 -0.9110 -1.0994 -2.5463
 9458TIP3   OH249864   5.855   1.853   3.866 -0.2711  0.3028  0.0049
 9458TIP3    H149865   5.871   1.815   3.780 -1.1368 -0.8108  0.3194
 9458TIP3    H249866   5.775   1.904   3.855 -3.3298 -3.7266  1.1771
 9459TIP3   OH249867   5.250   3.437  11.768 -0.3876 -0.2676  0.0323
 9459TIP3    H149868   5.215   3.434  11.679 -1.8031 -0.8620  0.5784
 9459TIP3    H249869   5.211   3.515  11.807  0.9764  0.5340 -0.1317
 9460TIP3   OH249870   5.304   4.594  16.587  0.1306  0.4443 -0.4456
 9460TIP3    H149871   5.306   4.628  16.677  2.2972 -0.0499 -0.2598
 9460TIP3    H249872   5.288   4.500  16.598  0.6457  0.3428 -0.5532
 9461TIP3   OH249873   3.204   6.394  13.435 -0.0289 -0.7079  0.3129
 9461TIP3    H149874   3.264   6.468  13.436 -0.0855 -0.6683  0.8210
 9461TIP3    H249875   3.177   6.384  13.526 -0.1555 -1.2436  0.2166
 9462TIP3   OH249876   4.951   2.206   1.472  0.4334 -0.3333 -0.0407
 9462TIP3    H149877   4.898   2.272   1.516 -1.6486 -1.4400 -0.7230
 9462TIP3    H249878   5.031   2.200   1.523 -0.5356  0.7146  1.6610
 9463TIP3   OH249879   2.652   2.780   2.231  0.0509 -0.0606  0.2924
 9463TIP3    H149880   2.588   2.769   2.302 -1.1082 -1.1305 -0.8601
 9463TIP3    H249881   2.611   2.841   2.171  0.4915 -0.1008 -0.0525
 9464TIP3   OH249882   0.362   6.720   0.110  0.0903  0.0294 -0.0028
 9464TIP3    H149883   0.353   6.724   0.206 -1.2645  2.2568 -0.1317
 9464TIP3    H249884   0.333   6.806   0.081 -1.4071 -1.2531 -2.5746
 9465TIP3   OH249885   6.348   4.725  13.478 -0.5658  0.1046 -0.1225
 9465TIP3    H149886   6.390   4.639  13.482 -1.1786 -0.2628 -1.1025
 9465TIP3    H249887   6.384   4.766  13.398  0.1198  0.9837  0.6149
 9466TIP3   OH249888   2.669   0.797   2.946  0.0468  0.8287 -0.3649
 9466TIP3    H149889   2.734   0.864   2.926  0.3393  0.0003 -2.3691
 9466TIP3    H249890   2.626   0.780   2.863  0.8196 -2.3576 -0.2180
 9467TIP3   OH249891   0.621   1.285   5.485 -0.0829  0.0848  0.5670
 9467TIP3    H149892   0.677   1.207   5.487 -1.9721 -1.3556  0.5735
 9467TIP3    H249893   0.535   1.253   5.515 -0.5145  2.5518  2.2395
 9468TIP3   OH249894   3.766   5.464   5.787 -0.7481 -0.1904  0.2467
 9468TIP3    H149895   3.674   5.481   5.807 -1.2840  0.2445 -2.2462
 9468TIP3    H249896   3.765   5.416   5.704  1.2461 -1.4886  0.8866
 9469TIP3   OH249897   3.107   2.159  11.798 -0.2201  0.0901 -0.1524
 9469TIP3    H149898   3.147   2.178  11.713 -2.1396  2.0092 -0.6992
 9469TIP3    H249899   3.015   2.144  11.778 -0.7239  0.6814  1.5866
 9470TIP3   OH249900   3.358   5.046   3.510 -0.0213 -0.3309 -0.5541
 9470TIP3    H149901   3.451   5.030   3.497 -0.0696 -1.2069  0.0870
 9470TIP3    H249902   3.353   5.136   3.543  0.6977 -0.6750  0.5165
 9471TIP3   OH249903   3.152   0.719   3.593 -0.1018 -0.6488  0.1300
 9471TIP3    H149904   3.085   0.681   3.650  0.5894 -2.6552 -0.3249
 9471TIP3    H249905   3.235   0.694   3.633  0.4027  0.0823 -0.4202
 9472TIP3   OH249906   1.136   5.340  16.227  0.1814  0.5160  0.3364
 9472TIP3    H149907   1.224   5.321  16.193  0.0837 -0.2832  0.5062
 9472TIP3    H249908   1.121   5.273  16.293 -2.1547 -1.9708 -2.4362
 9473TIP3   OH249909   3.419   1.766   1.196  0.4720  0.0052 -0.1510
 9473TIP3    H149910   3.363   1.705   1.147 -2.1435 -1.1776  3.8339
 9473TIP3    H249911   3.400   1.851   1.158 -0.3624 -0.9588 -2.0394
 9474TIP3   OH249912   6.217   5.186  12.306 -0.0402  0.3507 -0.3880
 9474TIP3    H149913   6.268   5.115  12.344 -0.5745  0.0593 -0.2051
 9474TIP3    H249914   6.270   5.264  12.321  2.1576 -0.3453 -3.4440
 9475TIP3   OH249915   6.059   1.677   3.071  0.6063 -0.0658 -0.1097
 9475TIP3    H149916   6.073   1.690   2.977 -2.1202 -1.2227 -0.7832
 9475TIP3    H249917   6.027   1.761   3.103 -1.3836 -0.4503 -0.9423
 9476TIP3   OH249918   6.080   2.886  17.265 -0.3797  0.5878  0.1299
 9476TIP3    H149919   6.068   2.796  17.296  0.1987  0.4640  0.0008
 9476TIP3    H249920   6.171   2.889  17.235 -0.4365  1.1798  0.0122
 9477TIP3   OH249921   1.468   4.061   0.204  0.1021  0.7076  0.3705
 9477TIP3    H149922   1.414   3.982   0.211 -1.8696  1.9871  0.3689
 9477TIP3    H249923   1.501   4.059   0.114  1.4684 -0.9305  0.8628
 9478TIP3   OH249924   2.737   6.512   1.062  0.6788  0.0069  0.2408
 9478TIP3    H149925   2.792   6.576   1.107  1.7195  0.3679 -1.4457
 9478TIP3    H249926   2.665   6.562   1.026  0.1038 -0.2068  1.0633
 9479TIP3   OH249927   2.654   0.616   4.676  0.4867  0.3751 -1.1102
 9479TIP3    H149928   2.654   0.522   4.695 -0.2272  0.3896 -0.9786
 9479TIP3    H249929   2.570   0.647   4.710  1.4986  1.4318  0.5664
 9480TIP3   OH249930   5.904   0.458  11.696 -0.7294 -0.1513 -0.0771
 9480TIP3    H149931   5.976   0.439  11.756  0.0792 -1.9475 -1.5060
 9480TIP3    H249932   5.830   0.480  11.753  0.5262  0.2141  1.4754
 9481TIP3   OH249933   6.003   1.176   2.237 -0.1730  0.3877 -0.4648
 9481TIP3    H149934   6.076   1.232   2.212 -0.7072  0.3230 -2.3142
 9481TIP3    H249935   5.967   1.145   2.154 -1.3966 -0.7552  0.4479
 9482TIP3   OH249936   1.616   1.847  16.655 -0.0567  0.3869 -0.0990
 9482TIP3    H149937   1.592   1.758  16.631  0.1932  0.3654 -0.2829
 9482TIP3    H249938   1.702   1.838  16.697  0.9963  0.7458 -2.0265
 9483TIP3   OH249939   3.476   2.258  14.206 -0.1823 -0.0574  0.5501
 9483TIP3    H149940   3.470   2.187  14.270  0.3861 -1.7865 -1.1890
 9483TIP3    H249941   3.563   2.295  14.219 -1.1703  1.7112  2.7500
 9484TIP3   OH249942   3.282   4.928  12.005 -0.1863 -0.0862 -0.5165
 9484TIP3    H149943   3.213   4.867  12.031  0.1992  0.1558  1.2189
 9484TIP3    H249944   3.247   5.015  12.028  1.0306 -0.0311  1.3939
 9485TIP3   OH249945   1.026   6.684  15.921 -0.1508  0.3688  0.1982
 9485TIP3    H149946   1.105   6.634  15.943 -0.6493 -0.0621  1.0636
 9485TIP3    H249947   1.050   6.733  15.843  0.4207 -1.0884 -0.5800
 9486TIP3   OH249948   5.777   4.888  16.047  0.8534  0.4107 -0.5530
 9486TIP3    H149949   5.717   4.923  16.112  0.4603 -1.9994  0.4947
 9486TIP3    H249950   5.849   4.951  16.044 -0.2293  1.7503  0.4893
 9487TIP3   OH249951   0.001   2.929  12.726  0.3873  0.1453  0.6197
 9487TIP3    H149952  -0.059   2.855  12.719  2.4527 -1.6432  0.8440
 9487TIP3    H249953   0.003   2.949  12.820  0.6293 -0.2237  0.6945
 9488TIP3   OH249954   1.172   0.487   4.613 -0.1185  0.0889 -0.0210
 9488TIP3    H149955   1.221   0.561   4.648 -0.4979  0.6547 -0.6494
 9488TIP3    H249956   1.133   0.445   4.690  0.4888  0.2543  0.3805
 9489TIP3   OH249957   3.289   1.578   0.308  0.9100 -0.2233 -0.4032
 9489TIP3    H149958   3.310   1.493   0.347 -1.0698  0.5486  2.7038
 9489TIP3    H249959   3.341   1.641   0.357 -0.9214  0.7076  0.4489
 9490TIP3   OH249960   4.879   1.909   0.057 -0.3157  0.1940  0.0810
 9490TIP3    H149961   4.850   1.930   0.146 -2.1714  0.3718 -0.5292
 9490TIP3    H249962   4.975   1.915   0.062 -0.3553  0.0736  2.0815
 9491TIP3   OH249963   2.341   1.994   3.551 -0.2498 -0.3032  0.5706
 9491TIP3    H149964   2.325   1.915   3.602  0.2863 -0.6010  0.2999
 9491TIP3    H249965   2.372   2.058   3.614 -0.9891 -0.2104  0.8412
 9492TIP3   OH249966   4.973   1.285   1.230  0.0553  0.6716  0.3476
 9492TIP3    H149967   5.027   1.307   1.154 -1.3605 -2.3418 -1.7256
 9492TIP3    H249968   5.019   1.212   1.272 -0.1786  1.0198  1.2226
 9493TIP3   OH249969   6.543   0.851  16.998  0.7390  0.3711  0.0041
 9493TIP3    H149970   6.477   0.813  16.940  0.5053 -0.0616  0.5461
 9493TIP3    H249971   6.601   0.778  17.020  0.4317  0.3756  0.8505
 9494TIP3   OH249972   6.226   2.763  10.957  0.2078  0.3416 -0.2321
 9494TIP3    H149973   6.279   2.691  10.924 -0.2469  0.0223 -0.2628
 9494TIP3    H249974   6.290   2.825  10.992  0.5627 -0.6635  1.0014
 9495TIP3   OH249975   5.470   5.723   5.266  0.1168  0.1173 -0.2052
 9495TIP3    H149976   5.456   5.763   5.180  2.2797  0.2487 -0.5403
 9495TIP3    H249977   5.407   5.768   5.323  0.6664  2.1658 -1.1085
 9496TIP3   OH249978   2.066   5.751   5.757  0.4582 -0.0426 -0.2967
 9496TIP3    H149979   2.097   5.841   5.765  0.7561 -0.0696 -1.0745
 9496TIP3    H249980   2.012   5.751   5.678 -1.0660 -0.1291  0.6964
 9497TIP3   OH249981   4.580   6.129   3.481 -0.1152 -0.0329 -0.3216
 9497TIP3    H149982   4.550   6.064   3.544 -0.6799 -2.7956 -3.2169
 9497TIP3    H249983   4.623   6.078   3.412  0.4000  2.7751 -2.2461
 9498TIP3   OH249984   2.978   2.529  16.041 -0.0177 -0.2981  0.1419
 9498TIP3    H149985   2.939   2.520  15.954 -0.8714  1.6049  0.2665
 9498TIP3    H249986   2.911   2.577  16.091  1.0770 -0.0460  1.3860
 9499TIP3   OH249987   0.946   6.627   2.268  0.3592 -0.4476 -0.8773
 9499TIP3    H149988   0.952   6.712   2.313  0.8808 -0.6463 -0.5652
 9499TIP3    H249989   0.857   6.598   2.286 -0.0607  0.3612 -1.5868
 9500TIP3   OH249990   2.817   5.391  16.261 -0.1397 -0.0978  0.4683
 9500TIP3    H149991   2.795   5.320  16.322 -0.3115 -0.0858  0.4203
 9500TIP3    H249992   2.848   5.462  16.317 -0.6338  0.0401  0.5695
 9501TIP3   OH249993   4.640   1.522  15.170  0.0929 -0.4846  0.1234
 9501TIP3    H149994   4.608   1.580  15.101 -1.0620  0.1138  1.1134
 9501TIP3    H249995   4.605   1.560  15.251 -0.3222 -2.3006  0.8455
 9502TIP3   OH249996   2.235   5.357  15.510 -0.1592  0.6397  1.0780
 9502TIP3    H149997   2.225   5.274  15.555 -0.3960  0.1925  0.2117
 9502TIP3    H249998   2.155   5.406  15.532 -0.8290 -0.0278  0.2330
 9503TIP3   OH249999   3.453   0.379  12.703 -0.3459  0.0105 -0.3230
 9503TIP3    H150000   3.365   0.415  12.714 -0.6003 -0.2887 -1.2954
 9503TIP3    H250001   3.489   0.377  12.791 -1.7481 -0.9600  0.2517
 9504TIP3   OH250002   0.616   1.336  16.986 -0.7250 -0.1951 -0.4420
 9504TIP3    H150003   0.618   1.399  17.059 -1.4871 -0.5918 -0.0651
 9504TIP3    H250004   0.528   1.298  16.990 -0.4452 -0.9198 -0.9730
 9505TIP3   OH250005   5.782   1.681  12.481  0.0466 -0.3763 -0.6654
 9505TIP3    H150006   5.866   1.726  12.483  0.3955 -1.0326 -0.1745
 9505TIP3    H250007   5.717   1.751  12.486  0.4719  0.3247 -3.3888
 9506TIP3   OH250008   1.454   3.506  12.550  0.3485  0.3220 -0.5848
 9506TIP3    H150009   1.360   3.524  12.551  0.5118  1.4930  1.9483
 9506TIP3    H250010   1.461   3.415  12.520 -1.9575 -1.2375  2.9594
 9507TIP3   OH250011   4.188   6.592  17.157 -0.1891  0.2472  0.2306
 9507TIP3    H150012   4.214   6.508  17.195  0.6157 -0.5324 -1.9370
 9507TIP3    H250013   4.092   6.591  17.160 -0.1652 -0.0195  1.6497
 9508TIP3   OH250014   6.301   4.282   5.058  0.2046 -0.1616  0.2768
 9508TIP3    H150015   6.327   4.216   4.993  0.7017 -1.5887  1.8427
 9508TIP3    H250016   6.326   4.366   5.019 -1.9875 -0.6540 -2.5408
 9509TIP3   OH250017   0.544   5.197  14.405 -0.2463 -0.0311  0.5657
 9509TIP3    H150018   0.548   5.124  14.467  0.4696  0.7071  1.4173
 9509TIP3    H250019   0.487   5.166  14.335 -0.5099 -1.1457  1.2511
 9510TIP3   OH250020   4.121   2.530   3.354 -0.3552  0.5575  0.2655
 9510TIP3    H150021   4.119   2.460   3.419  2.4706 -1.5727 -1.7189
 9510TIP3    H250022   4.131   2.610   3.405  1.0809 -0.9373  2.4934
 9511TIP3   OH250023   0.565   2.462  16.449  0.1281  0.1929 -0.2054
 9511TIP3    H150024   0.601   2.523  16.513  1.7177 -0.8506 -0.0396
 9511TIP3    H250025   0.477   2.444  16.480  0.0753  1.4149  0.4291
 9512TIP3   OH250026   4.787   0.062  16.659  0.1222 -0.5855 -0.7098
 9512TIP3    H150027   4.715   0.059  16.597  0.5947  1.1137 -1.4075
 9512TIP3    H250028   4.764   0.133  16.720  0.4252 -1.1425  0.0778
 9513TIP3   OH250029   1.444   6.367  12.555  0.0201  0.2089 -0.1365
 9513TIP3    H150030   1.453   6.331  12.643 -0.0442 -1.2523 -0.6987
 9513TIP3    H250031   1.390   6.304  12.508  0.2813  0.8163 -1.3025
 9514TIP3   OH250032   3.143   1.747  15.246  0.4743 -0.5436  0.3825
 9514TIP3    H150033   3.210   1.713  15.305  0.4820  0.2056  0.8124
 9514TIP3    H250034   3.185   1.822  15.204  0.2858 -0.7560 -0.1883
 9515TIP3   OH250035   2.467   3.824   0.907 -0.0693  0.1461  0.3143
 9515TIP3    H150036   2.520   3.902   0.923  0.0697 -0.1242  1.2205
 9515TIP3    H250037   2.524   3.764   0.860 -0.3412  0.7755 -0.8872
 9516TIP3   OH250038   3.764   3.908   5.378  0.3811 -0.4368  0.1391
 9516TIP3    H150039   3.836   3.959   5.340  0.9863 -0.7194  0.8644
 9516TIP3    H250040   3.795   3.818   5.377  1.1528 -0.3056  2.7403
 9517TIP3   OH250041   0.125   6.080  12.202 -0.4081  0.3397  0.3905
 9517TIP3    H150042   0.150   5.993  12.233  0.0869  0.7075  1.0474
 9517TIP3    H250043   0.200   6.110  12.150  0.4839  1.3289  2.1324
 9518TIP3   OH250044   4.108   2.187   1.489 -0.4786 -0.1979 -0.3395
 9518TIP3    H150045   4.031   2.219   1.442 -1.9821 -1.2714  1.2600
 9518TIP3    H250046   4.157   2.266   1.511 -1.1686  0.5245 -1.3089
 9519TIP3   OH250047   4.410   1.084  12.553 -0.7349  0.0619  0.3693
 9519TIP3    H150048   4.341   1.071  12.619  0.2180 -2.6360  0.9595
 9519TIP3    H250049   4.450   0.998  12.544  0.2113  0.7210 -2.6380
 9520TIP3   OH250050   3.654   3.115  12.965 -0.0061 -0.1101 -0.2004
 9520TIP3    H150051   3.621   3.193  12.920 -1.0657  1.2482  2.6996
 9520TIP3    H250052   3.597   3.044  12.936 -0.0623  0.4823 -1.6391
 9521TIP3   OH250053   0.106   1.798   0.236  0.2006 -0.8821 -0.7367
 9521TIP3    H150054   0.162   1.779   0.160 -0.3905 -0.0052 -1.4124
 9521TIP3    H250055   0.158   1.770   0.311  2.3171  1.4687 -1.2021
 9522TIP3   OH250056   5.411   0.361   3.632  0.1352  0.8513  0.0705
 9522TIP3    H150057   5.466   0.374   3.709  0.1313 -0.1538  0.2527
 9522TIP3    H250058   5.329   0.407   3.652 -0.7479 -1.3009  1.6425
 9523TIP3   OH250059   5.562   0.850  16.187 -0.0046  0.2272 -0.2785
 9523TIP3    H150060   5.605   0.770  16.158  0.3729  0.2313  0.2496
 9523TIP3    H250061   5.497   0.821  16.251  0.1139  0.3385 -0.1063
 9524TIP3   OH250062   6.133   3.670   2.477 -0.0948 -0.4648  0.7441
 9524TIP3    H150063   6.143   3.624   2.394  0.4115  0.1994  0.4270
 9524TIP3    H250064   6.130   3.601   2.543  3.0443 -0.9354  0.5350
 9525TIP3   OH250065   4.555   0.751  14.840 -0.0380 -0.6747 -0.0695
 9525TIP3    H150066   4.580   0.831  14.886 -0.2450  0.7569 -2.2897
 9525TIP3    H250067   4.637   0.702  14.831  0.6585  0.5854 -0.9923
 9526TIP3   OH250068   3.173   2.047   4.871 -0.0920  0.3244  0.5508
 9526TIP3    H150069   3.242   2.113   4.882  1.3437 -1.2749  1.5263
 9526TIP3    H250070   3.121   2.080   4.798  2.5300  0.9609 -1.1793
 9527TIP3   OH250071   6.432   5.621   5.142  0.7819 -0.0873  0.3202
 9527TIP3    H150072   6.394   5.607   5.229  2.1976 -0.1886  0.9574
 9527TIP3    H250073   6.403   5.709   5.117 -1.1269 -0.7394  0.0645
 9528TIP3   OH250074   3.986   6.011  12.680  0.6145 -0.1757 -0.0051
 9528TIP3    H150075   3.951   5.942  12.735  1.0376  0.5049  1.1563
 9528TIP3    H250076   3.929   6.013  12.603 -0.9968 -0.0428  1.1697
 9529TIP3   OH250077   1.339   0.668  13.437  0.0507 -0.2285 -0.3218
 9529TIP3    H150078   1.405   0.696  13.500  0.6265  1.5138 -1.6278
 9529TIP3    H250079   1.270   0.627  13.490  0.2569  1.6403  1.4786
 9530TIP3   OH250080   3.609   2.047  15.543  0.3823 -0.3832  0.1611
 9530TIP3    H150081   3.681   2.083  15.595  1.0591 -1.2851 -0.1289
 9530TIP3    H250082   3.551   2.006  15.607  1.9328 -2.7571  0.1650
 9531TIP3   OH250083   2.877   5.505   1.299  0.2784  0.2372 -0.1188
 9531TIP3    H150084   2.802   5.480   1.353  0.2428 -1.1059 -0.7392
 9531TIP3    H250085   2.899   5.593   1.328 -0.3728 -0.0497  1.3709
 9532TIP3   OH250086   5.269   0.118  14.254 -0.1534  0.2230  0.2828
 9532TIP3    H150087   5.252   0.212  14.253 -2.1304 -0.1021 -1.0152
 9532TIP3    H250088   5.255   0.090  14.164  2.4879 -1.0357  0.1566
 9533TIP3   OH250089   0.759   2.651  12.198  0.1261 -0.3930  0.3019
 9533TIP3    H150090   0.851   2.665  12.174 -0.0402 -0.3831 -0.3286
 9533TIP3    H250091   0.714   2.730  12.167 -0.5691 -1.5986 -1.9130
 9534TIP3   OH250092   3.908   5.357   4.630 -0.1345 -0.4953  0.0015
 9534TIP3    H150093   3.826   5.308   4.633 -0.1100 -0.4971  1.8251
 9534TIP3    H250094   3.966   5.312   4.691  0.6405  0.4877  0.0272
 9535TIP3   OH250095   6.226   4.443  11.651  0.5952 -0.3277 -0.2433
 9535TIP3    H150096   6.304   4.492  11.624  0.1279  2.2302  2.5703
 9535TIP3    H250097   6.244   4.418  11.742 -1.4375 -0.5367  0.1516
 9536TIP3   OH250098   4.655   5.586   5.271  0.7227  0.5673  0.5310
 9536TIP3    H150099   4.615   5.664   5.233  1.5229  0.5076 -0.4646
 9536TIP3    H250100   4.736   5.574   5.222 -0.0798 -1.7222 -0.3674
 9537TIP3   OH250101   3.951   4.020   3.852  0.6674 -0.2266  0.0923
 9537TIP3    H150102   4.044   4.020   3.832  0.6795 -2.0861 -0.0208
 9537TIP3    H250103   3.945   4.060   3.939  1.5094  0.3170 -0.0887
 9538TIP3   OH250104   5.722   1.747  15.429  0.4413 -0.1172  0.4476
 9538TIP3    H150105   5.808   1.789  15.437  0.5583 -0.2278 -0.1469
 9538TIP3    H250106   5.683   1.785  15.350  2.0392 -3.5323 -2.3330
 9539TIP3   OH250107   5.159   0.161  13.245 -0.2312  0.1910  0.6117
 9539TIP3    H150108   5.254   0.169  13.244 -0.2118  0.2359  1.9086
 9539TIP3    H250109   5.127   0.249  13.223  0.0114  0.1807  0.1996
 9540TIP3   OH250110   5.679   2.017  15.321  0.0870  0.2889  0.0456
 9540TIP3    H150111   5.768   2.044  15.345 -0.2929  1.1624  0.5098
 9540TIP3    H250112   5.652   2.079  15.253 -0.7331  1.0100  1.0008
 9541TIP3   OH250113   2.253   2.217   4.541 -0.0072 -0.0580  0.0342
 9541TIP3    H150114   2.159   2.209   4.554 -0.4069 -0.1779 -2.3876
 9541TIP3    H250115   2.292   2.184   4.622 -2.0184  2.7828  2.3375
 9542TIP3   OH250116   1.558   1.516  16.238 -0.0347 -0.1462  0.1262
 9542TIP3    H150117   1.549   1.490  16.146 -2.0782  1.1275 -0.1010
 9542TIP3    H250118   1.468   1.525  16.269  0.6112 -0.6168  2.3017
 9543TIP3   OH250119   1.452   3.029   3.967 -0.0783  0.2949 -0.1553
 9543TIP3    H150120   1.497   2.992   3.891  0.1819  1.3136 -0.5024
 9543TIP3    H250121   1.398   2.957   3.999  0.4663 -0.4110 -0.7806
 9544TIP3   OH250122   2.989   4.865  12.311  0.4998 -0.6397  0.4285
 9544TIP3    H150123   2.907   4.819  12.325  1.1957 -1.4457  2.3210
 9544TIP3    H250124   2.965   4.957  12.307 -0.7764 -0.9952 -2.1216
 9545TIP3   OH250125   0.922   1.158  13.236 -0.4039  0.2759  0.0081
 9545TIP3    H150126   1.008   1.174  13.274  0.0234  0.0575 -0.8555
 9545TIP3    H250127   0.927   1.070  13.200 -0.9350  0.3301 -0.2084
 9546TIP3   OH250128   6.183   0.282   5.855  0.5299 -0.0859  0.1576
 9546TIP3    H150129   6.172   0.201   5.805  0.6926  0.2701 -0.4625
 9546TIP3    H250130   6.154   0.351   5.796  1.9229  0.4624  0.0859
 9547TIP3   OH250131   4.947   1.930   2.342 -0.1565 -0.0679  0.1159
 9547TIP3    H150132   4.944   1.839   2.313 -1.9885 -0.4161  1.2510
 9547TIP3    H250133   5.008   1.972   2.281 -1.0233 -1.5289 -1.8860
 9548TIP3   OH250134   6.453   2.391   4.838 -0.2915  0.2009 -0.3051
 9548TIP3    H150135   6.364   2.397   4.803 -1.1048 -0.3376  1.5686
 9548TIP3    H250136   6.456   2.456   4.908  0.6450 -0.1065 -0.0463
 9549TIP3   OH250137   5.808   2.746   5.399 -0.1371  0.0723  0.1399
 9549TIP3    H150138   5.814   2.655   5.370 -0.4153 -0.1548  0.7865
 9549TIP3    H250139   5.852   2.796   5.330 -0.1524 -0.5302 -0.3144
 9550TIP3   OH250140   1.848   4.421   5.296 -0.8118 -0.0425  0.1652
 9550TIP3    H150141   1.887   4.412   5.209  0.4022  1.6155  0.4918
 9550TIP3    H250142   1.906   4.371   5.354  0.5598  1.8618  0.5420
 9551TIP3   OH250143   0.942   3.809   4.399  0.1759 -0.4036 -0.0963
 9551TIP3    H150144   0.900   3.895   4.403 -0.4076 -0.4712 -2.6368
 9551TIP3    H250145   1.032   3.827   4.372 -0.2099 -0.5606 -1.6301
 9552TIP3   OH250146   5.051   3.931  17.095  0.1378 -0.0907  0.3228
 9552TIP3    H150147   5.004   3.933  17.012  0.1297  1.8879  0.3247
 9552TIP3    H250148   5.044   4.021  17.130  0.7930 -0.6679  2.0874
 9553TIP3   OH250149   5.839   3.588   2.858  0.3563  0.8753 -0.0492
 9553TIP3    H150150   5.856   3.670   2.813  0.4102  0.2084 -1.2888
 9553TIP3    H250151   5.754   3.601   2.901  0.0289  1.3491 -0.8211
 9554TIP3   OH250152   1.029   0.397   2.801 -0.6613 -0.0913 -0.2658
 9554TIP3    H150153   0.994   0.381   2.888  1.2224 -1.1532  0.3641
 9554TIP3    H250154   1.064   0.486   2.805 -0.6266 -0.1179  0.0363
 9555TIP3   OH250155   2.531   6.698   3.761 -0.7225  0.3421  0.5195
 9555TIP3    H150156   2.570   6.728   3.679 -1.1164  0.1165  0.2452
 9555TIP3    H250157   2.603   6.699   3.824 -0.7319  1.8691  0.5241
 9556TIP3   OH250158   2.825   4.058  12.305 -0.1874  0.5105 -0.1946
 9556TIP3    H150159   2.843   4.138  12.256  1.4939  0.1570 -0.2356
 9556TIP3    H250160   2.851   4.079  12.395 -1.8751  0.6965  0.2739
 9557TIP3   OH250161   2.038   4.253  16.492  0.4061  0.2687  0.7356
 9557TIP3    H150162   1.967   4.229  16.432 -0.0058  0.6208  1.0795
 9557TIP3    H250163   2.118   4.245  16.440  0.0350  0.7600  0.0856
 9558TIP3   OH250164   3.863   4.946  16.975  0.8414  0.3000 -0.2934
 9558TIP3    H150165   3.808   4.876  17.009  0.8133  1.5547  2.4659
 9558TIP3    H250166   3.802   5.016  16.951  0.7928 -0.7802 -3.8442
 9559TIP3   OH250167   0.683   0.913  14.422  0.1157  0.0500 -0.1403
 9559TIP3    H150168   0.593   0.933  14.397  0.5735  1.3555 -0.8257
 9559TIP3    H250169   0.691   0.949  14.511 -0.2243 -0.6611  0.1839
 9560TIP3   OH250170   0.377   1.883  11.929 -0.3349 -0.0831 -0.5040
 9560TIP3    H150171   0.461   1.872  11.973 -0.4277  0.6714 -0.1267
 9560TIP3    H250172   0.312   1.862  11.996 -0.4624 -0.0719 -0.6228
 9561TIP3   OH250173   0.059   4.570  12.226 -0.3533  0.0305 -0.4316
 9561TIP3    H150174   0.045   4.613  12.311 -0.3174  0.1102 -0.4663
 9561TIP3    H250175  -0.018   4.514  12.215  0.3494 -1.1474  0.3610
 9562TIP3   OH250176   0.381   2.341   0.202 -0.6766 -0.1009  0.1988
 9562TIP3    H150177   0.340   2.421   0.170 -1.0194  0.2825  1.5102
 9562TIP3    H250178   0.334   2.321   0.283  0.7094 -0.5018  0.9544
 9563TIP3   OH250179   2.441   0.523   3.788 -0.1416 -0.1755 -0.2873
 9563TIP3    H150180   2.414   0.562   3.705  0.9805 -0.9386 -1.0347
 9563TIP3    H250181   2.450   0.430   3.770 -1.2282 -0.5832  1.0739
 9564TIP3   OH250182   6.183   4.161   3.461  0.6344  0.4703  0.0850
 9564TIP3    H150183   6.174   4.216   3.539 -2.6270 -0.2390  0.3493
 9564TIP3    H250184   6.120   4.197   3.399  1.9260 -0.0573 -1.6083
 9565TIP3   OH250185   1.487   1.037  14.876  0.7233 -0.3180 -0.1990
 9565TIP3    H150186   1.469   0.944  14.893  0.1829 -0.2061 -0.1661
 9565TIP3    H250187   1.556   1.059  14.939  0.8034 -0.6724 -0.1548
 9566TIP3   OH250188   1.034   5.134   1.765 -0.3700 -0.0241 -0.1119
 9566TIP3    H150189   0.972   5.064   1.744  1.0800 -0.7267 -2.4610
 9566TIP3    H250190   0.979   5.211   1.778 -1.7961 -0.7480 -1.4846
 9567TIP3   OH250191   0.704   2.710  15.357  0.0531 -0.3538  0.4338
 9567TIP3    H150192   0.625   2.664  15.329  0.1578  0.6898 -1.8444
 9567TIP3    H250193   0.771   2.680  15.296  0.1281  2.6690 -1.1635
 9568TIP3   OH250194   5.070   0.673   5.325 -0.7515  0.9655  0.0086
 9568TIP3    H150195   5.116   0.610   5.270 -3.4807 -0.8565 -0.3961
 9568TIP3    H250196   5.138   0.732   5.356  2.1880 -2.5893  1.0451
 9569TIP3   OH250197   5.287   6.372  16.328 -0.6369  0.0804  0.0955
 9569TIP3    H150198   5.247   6.411  16.406 -1.2693 -0.2595 -0.0529
 9569TIP3    H250199   5.247   6.285  16.322 -1.9351  0.7706 -1.6367
 9570TIP3   OH250200   1.034   6.747   5.503  0.2200  0.0087 -0.0867
 9570TIP3    H150201   0.967   6.816   5.497 -0.4175 -0.7328 -2.3535
 9570TIP3    H250202   0.993   6.679   5.557 -1.6447 -1.1471 -2.7342
 9571TIP3   OH250203   5.130   2.721  16.827  0.1383 -0.2779  0.2119
 9571TIP3    H150204   5.051   2.721  16.880  0.4328 -0.4418  0.6501
 9571TIP3    H250205   5.150   2.814  16.814  0.3185 -0.2399  0.7630
 9572TIP3   OH250206   2.432   0.442   5.908 -0.3712  0.0027 -0.2828
 9572TIP3    H150207   2.522   0.469   5.926  0.3713 -1.7895 -1.0492
 9572TIP3    H250208   2.387   0.448   5.992 -0.0462  2.5579 -0.2096
 9573TIP3   OH250209   0.682   2.192   3.424 -0.3155  0.0388  0.5035
 9573TIP3    H150210   0.670   2.107   3.466 -1.2585  0.4289  1.0815
 9573TIP3    H250211   0.669   2.255   3.496  1.3816  0.6614  0.3155
 9574TIP3   OH250212   1.938   5.526  14.725  0.0420  0.2530  0.0112
 9574TIP3    H150213   1.937   5.461  14.655 -0.3532  0.8656 -0.5593
 9574TIP3    H250214   2.021   5.572  14.713  1.5645 -1.7233  1.9317
 9575TIP3   OH250215   3.252   6.057   3.965 -0.0842  0.0957  0.1949
 9575TIP3    H150216   3.280   6.121   4.030 -0.3415  1.8849 -1.3713
 9575TIP3    H250217   3.161   6.082   3.946 -0.4048 -1.1661  0.0276
 9576TIP3   OH250218   4.952   4.647  16.660 -0.2760  0.3129  0.2509
 9576TIP3    H150219   5.008   4.669  16.585  0.4793 -0.1933  0.6554
 9576TIP3    H250220   4.910   4.730  16.683 -0.8082  0.4093 -0.9605
 9577TIP3   OH250221   6.526   6.639   0.572  0.5100  0.0072  0.1638
 9577TIP3    H150222   6.608   6.641   0.523  1.3556  0.4515  1.5281
 9577TIP3    H250223   6.466   6.590   0.516  1.4588  0.3587 -1.2278
 9578TIP3   OH250224   4.167   6.511  13.199 -0.1178  0.1117  0.2185
 9578TIP3    H150225   4.111   6.544  13.269  1.3074 -2.0435  2.5584
 9578TIP3    H250226   4.241   6.571  13.196  0.5608 -0.5948  1.7122
 9579TIP3   OH250227   3.146   2.177  16.448 -0.1401  0.7414  0.6446
 9579TIP3    H150228   3.119   2.238  16.379 -1.9937 -1.2893 -0.5637
 9579TIP3    H250229   3.238   2.199  16.465  0.4044  1.4009 -2.4864
 9580TIP3   OH250230   5.753   4.827   2.932  0.3474  0.3532 -0.3550
 9580TIP3    H150231   5.730   4.862   3.018  0.2957  0.6137 -0.4735
 9580TIP3    H250232   5.822   4.885   2.900  1.6456 -0.8033  0.2634
 9581TIP3   OH250233   6.086   1.998  11.535  0.5686  0.4849 -0.5572
 9581TIP3    H150234   6.143   2.073  11.551 -0.0170  0.7488  0.3930
 9581TIP3    H250235   6.039   2.021  11.454  1.6578  0.3423 -1.2417
 9582TIP3   OH250236   2.676   1.337   3.896 -0.5141 -0.2937 -0.1528
 9582TIP3    H150237   2.732   1.337   3.818  1.2912  0.8608  1.0770
 9582TIP3    H250238   2.707   1.263   3.947 -1.0548 -0.4707 -0.0768
 9583TIP3   OH250239   3.506   3.921   5.501 -0.2503  0.0446  0.7764
 9583TIP3    H150240   3.496   3.834   5.540 -2.4072 -0.8320 -1.4915
 9583TIP3    H250241   3.591   3.918   5.457 -0.4510 -1.0353  0.4394
 9584TIP3   OH250242   4.577   3.979   0.007  0.3875  0.1277  0.0552
 9584TIP3    H150243   4.552   4.018  -0.077 -2.0071 -0.2796  0.5142
 9584TIP3    H250244   4.584   3.885  -0.011 -1.5884 -0.1569  0.5636
 9585TIP3   OH250245   5.702   1.526  16.151  0.1474 -0.0967 -0.0943
 9585TIP3    H150246   5.652   1.578  16.088 -0.7688  0.1549  0.8178
 9585TIP3    H250247   5.769   1.482  16.098 -0.4215  0.3246 -1.1918
 9586TIP3   OH250248   4.054   5.688  15.164  0.7834 -0.0414 -0.0004
 9586TIP3    H150249   3.985   5.659  15.223  0.1839  0.8872 -0.2300
 9586TIP3    H250250   4.041   5.637  15.084 -0.7042  1.3172 -0.6625
 9587TIP3   OH250251   2.634   0.055  15.783  0.0417  0.3105  0.0361
 9587TIP3    H150252   2.649   0.144  15.750  2.2351  0.5322  1.4203
 9587TIP3    H250253   2.667   0.057  15.873 -0.1946 -1.8146  0.2158
 9588TIP3   OH250254   1.066   4.258   4.631 -0.0044  0.5063 -0.1936
 9588TIP3    H150255   0.998   4.320   4.604 -0.8130  0.4757  1.5778
 9588TIP3    H250256   1.020   4.197   4.690  1.7182  1.1533  1.9621
 9589TIP3   OH250257   3.362   4.074   5.703 -0.5800 -0.2285  0.5484
 9589TIP3    H150258   3.308   4.012   5.754 -1.7609  0.5985  0.3452
 9589TIP3    H250259   3.399   4.021   5.633 -3.3143 -0.3910 -0.9416
 9590TIP3   OH250260   3.144   1.005   1.066 -0.3332  0.0973  0.0323
 9590TIP3    H150261   3.147   0.994   1.161 -1.4732 -0.3142  0.0424
 9590TIP3    H250262   3.214   0.948   1.033 -0.3235 -0.2277  0.5952
 9591TIP3   OH250263   2.873   1.221   4.489  0.1279  0.5170  0.2179
 9591TIP3    H150264   2.901   1.247   4.401 -0.2849  1.1763  0.2692
 9591TIP3    H250265   2.805   1.156   4.475 -0.4396  1.1374  0.0205
 9592TIP3   OH250266   0.571   0.489  14.151 -0.2964 -0.4142 -0.1891
 9592TIP3    H150267   0.598   0.555  14.087  1.7937 -0.7382  0.2905
 9592TIP3    H250268   0.484   0.462  14.122  0.8214 -1.0303 -3.3095
 9593TIP3   OH250269   3.140   0.755  16.433  0.2583 -0.5602  0.4671
 9593TIP3    H150270   3.088   0.796  16.502  0.4005  0.1056  0.1872
 9593TIP3    H250271   3.229   0.751  16.468  0.3043 -0.3431  0.3784
 9594TIP3   OH250272   4.291   3.881  13.073 -0.6081  0.2863 -0.2445
 9594TIP3    H150273   4.246   3.801  13.099 -1.1310  0.5300 -0.3769
 9594TIP3    H250274   4.268   3.944  13.141 -1.9589  0.9196 -1.2306
 9595TIP3   OH250275   0.890   0.070  15.570  0.3249 -0.6969  0.4692
 9595TIP3    H150276   0.973   0.114  15.549  0.5513 -1.0165  0.6831
 9595TIP3    H250277   0.840   0.074  15.489  0.0646  0.5597  0.6632
 9596TIP3   OH250278   1.076   4.518   0.504  0.3494  0.3343 -0.4376
 9596TIP3    H150279   1.038   4.494   0.588 -1.8018  2.3684 -0.6810
 9596TIP3    H250280   1.154   4.569   0.526 -0.3719  1.1261  0.3824
 9597TIP3   OH250281   5.962   2.723  12.768  0.2590 -0.7440 -0.0317
 9597TIP3    H150282   5.941   2.632  12.788  1.9290 -0.9575  1.0135
 9597TIP3    H250283   5.877   2.766  12.756 -0.5744 -2.3018  0.0453
 9598TIP3   OH250284   1.808   2.555  14.019 -0.2373  0.0963  0.6805
 9598TIP3    H150285   1.882   2.604  13.982  0.2274 -1.6195 -0.8297
 9598TIP3    H250286   1.731   2.589  13.972 -0.1788  0.6824  1.0042
 9599TIP3   OH250287   5.922   4.263   5.654 -0.2492 -0.4986 -0.0119
 9599TIP3    H150288   5.867   4.197   5.613 -1.7796  0.3859  0.5448
 9599TIP3    H250289   5.954   4.222   5.734 -0.6931 -0.7530  0.0331
 9600TIP3   OH250290   3.445   0.559  13.479  0.1446 -0.1724 -0.2074
 9600TIP3    H150291   3.475   0.502  13.409 -4.1988 -3.0296 -0.0710
 9600TIP3    H250292   3.385   0.621  13.437  1.0302  1.1535  0.3965
 9601TIP3   OH250293   5.146   6.309   0.808  0.6580  0.9455 -0.0691
 9601TIP3    H150294   5.121   6.282   0.720 -0.4895 -1.4174  0.9037
 9601TIP3    H250295   5.070   6.358   0.840  0.1990  0.0227  0.2997
 9602TIP3   OH250296   2.191   1.839  14.772 -0.1034 -0.2748  0.1113
 9602TIP3    H150297   2.206   1.879  14.857 -2.2058  0.7011  0.0837
 9602TIP3    H250298   2.096   1.831  14.765 -0.0319  0.0605 -2.3109
 9603TIP3   OH250299   0.586   4.012   1.180  0.4948 -0.3942  0.3028
 9603TIP3    H150300   0.530   4.026   1.104  1.3419 -1.6972 -0.5973
 9603TIP3    H250301   0.638   4.092   1.187  1.6782 -0.9397 -1.6165
 9604TIP3   OH250302   0.824   3.096   0.326  0.1444  0.8450 -0.2323
 9604TIP3    H150303   0.779   3.027   0.375  0.2301  1.9185  1.4444
 9604TIP3    H250304   0.889   3.049   0.273 -2.0364 -0.6309 -1.7898
 9605TIP3   OH250305   0.145   3.570   3.249 -0.8523 -0.0503  0.2997
 9605TIP3    H150306   0.075   3.581   3.184 -0.5330 -0.3420 -0.0988
 9605TIP3    H250307   0.145   3.476   3.268 -0.9910  0.0445  0.7764
 9606TIP3   OH250308   2.586   0.581  13.793  0.0208  0.6837 -0.1101
 9606TIP3    H150309   2.559   0.531  13.870 -0.4474  1.6895  0.3866
 9606TIP3    H250310   2.590   0.515  13.723 -0.7259 -0.0287  0.4916
 9607TIP3   OH250311   2.969   4.080   4.196 -0.2104  0.2457  0.1189
 9607TIP3    H150312   2.999   4.117   4.113  4.1445 -0.1956  1.2735
 9607TIP3    H250313   2.880   4.114   4.206  0.3176  3.1012 -3.0374
 9608TIP3   OH250314   4.480   5.562  12.855 -0.6004 -0.2718 -1.0254
 9608TIP3    H150315   4.570   5.534  12.866  0.2304  1.2402 -3.3445
 9608TIP3    H250316   4.479   5.653  12.885 -1.3999 -0.2979 -0.9409
 9609TIP3   OH250317   2.984   0.645  17.063  0.3304 -0.3325  0.4158
 9609TIP3    H150318   2.933   0.620  16.986  1.1461  0.4869 -0.4073
 9609TIP3    H250319   3.069   0.602  17.051  0.4178 -0.3150  0.9415
 9610TIP3   OH250320   3.867   5.028  15.234 -0.3156 -0.2473  0.6342
 9610TIP3    H150321   3.799   4.996  15.175  1.1683 -1.7199 -0.3571
 9610TIP3    H250322   3.948   5.025  15.183  0.6716  0.5522  2.0623
 9611TIP3   OH250323   5.347   5.956   3.278 -0.4837  0.5951 -0.2887
 9611TIP3    H150324   5.253   5.957   3.261 -0.6505  0.5436  0.5822
 9611TIP3    H250325   5.364   5.868   3.312  0.1491  0.0902 -1.8470
 9612TIP3   OH250326   4.196   4.726  15.644  0.3481  0.3527 -0.1175
 9612TIP3    H150327   4.101   4.737  15.642  0.3764  1.0038  1.0407
 9612TIP3    H250328   4.215   4.695  15.733  1.4580  3.0594  0.7004
 9613TIP3   OH250329   5.049   0.654  13.340 -0.5612 -0.2304  0.2035
 9613TIP3    H150330   5.057   0.723  13.406 -1.3660  0.1447 -0.0761
 9613TIP3    H250331   5.015   0.578  13.388  1.0592 -0.7058  0.6700
 9614TIP3   OH250332   4.087   4.832   2.658 -0.1268 -0.5907 -0.2177
 9614TIP3    H150333   4.078   4.855   2.750  1.4722 -0.3228 -0.0891
 9614TIP3    H250334   4.136   4.749   2.658 -0.2713 -0.6872 -0.8274
 9615TIP3   OH250335   3.513   3.190   2.603  0.4227  0.6858 -0.2932
 9615TIP3    H150336   3.446   3.234   2.549  0.6228  1.6845  0.2435
 9615TIP3    H250337   3.593   3.240   2.586  0.4936  0.9929  0.8853
 9616TIP3   OH250338   2.524   5.272   0.053 -0.3185 -0.0421  0.1979
 9616TIP3    H150339   2.590   5.280  -0.016  1.4279 -0.4864  1.7184
 9616TIP3    H250340   2.532   5.354   0.103 -1.5881  0.2947 -0.1213
 9617TIP3   OH250341   6.208   1.501   1.474 -0.0596 -0.1626 -0.2450
 9617TIP3    H150342   6.231   1.549   1.554 -1.0046 -0.6081  0.3100
 9617TIP3    H250343   6.211   1.409   1.500  2.4405 -0.5117 -1.4851
 9618TIP3   OH250344   4.227   1.524   0.722  0.1496  0.2185  0.1680
 9618TIP3    H150345   4.275   1.607   0.730  0.7986 -0.1707  0.3878
 9618TIP3    H250346   4.231   1.486   0.810  1.4776 -0.9227 -0.3578
 9619TIP3   OH250347   1.213   3.122   1.825  0.2802  0.2562  0.1643
 9619TIP3    H150348   1.184   3.209   1.798  0.0107  0.3568  0.7472
 9619TIP3    H250349   1.308   3.123   1.813  0.5880  1.4101  2.2022
 9620TIP3   OH250350   0.003   0.654   6.746 -0.0614  0.1250 -0.2182
 9620TIP3    H150351   0.062   0.720   6.710  0.3582 -0.0440  0.1537
 9620TIP3    H250352   0.046   0.570   6.728  0.6443  0.0771  1.5167
 9621TIP3   OH250353   5.749   3.729  16.874  0.0841  0.2533  0.1207
 9621TIP3    H150354   5.780   3.677  16.799  1.5577 -1.3133  1.6941
 9621TIP3    H250355   5.816   3.715  16.941 -0.1842  3.1604  1.1296
 9622TIP3   OH250356   4.024   1.996   2.460 -0.6273  0.4540  0.4102
 9622TIP3    H150357   4.076   2.052   2.518  0.1765 -0.4104  0.5580
 9622TIP3    H250358   4.090   1.948   2.409 -1.3003 -0.0376 -0.0023
 9623TIP3   OH250359   3.786   4.773   4.145  0.1468  0.3318 -0.3234
 9623TIP3    H150360   3.765   4.761   4.052  0.3030  0.7385 -0.4125
 9623TIP3    H250361   3.810   4.865   4.153 -2.5474  1.0572  0.6470
 9624TIP3   OH250362   2.472   6.268   1.561  0.0488  0.1752  0.1794
 9624TIP3    H150363   2.529   6.235   1.630 -0.0323  1.9187  1.1351
 9624TIP3    H250364   2.529   6.279   1.486  0.5644  0.1496  0.5629
 9625TIP3   OH250365   4.931   6.538  11.775  0.1976 -0.2052  0.3334
 9625TIP3    H150366   4.855   6.487  11.746  0.4437 -0.2596 -0.2437
 9625TIP3    H250367   4.912   6.627  11.746  0.2856 -0.1895  0.3236
 9626TIP3   OH250368   5.746   6.355   2.100  0.0724 -0.2910  0.3880
 9626TIP3    H150369   5.662   6.345   2.146  0.1444 -1.2819  0.3262
 9626TIP3    H250370   5.802   6.287   2.138  1.4303  1.4438  1.6536
 9627TIP3   OH250371   1.263   0.242   1.520 -0.3153 -0.5087  0.2933
 9627TIP3    H150372   1.315   0.248   1.440 -2.9087 -0.0537 -1.4830
 9627TIP3    H250373   1.272   0.328   1.561  0.0508 -0.3310 -0.1477
 9628TIP3   OH250374   4.052   0.770   4.756  0.3369 -0.3331 -0.4683
 9628TIP3    H150375   4.002   0.792   4.677  0.4703  1.9924  0.0255
 9628TIP3    H250376   3.990   0.783   4.827  0.6197 -1.0268 -0.0952
 9629TIP3   OH250377   5.341   4.082   3.614  0.2831  0.3296 -0.1530
 9629TIP3    H150378   5.354   4.143   3.542  0.1220 -1.1089 -1.4638
 9629TIP3    H250379   5.365   3.997   3.577  1.3435 -0.3025  1.8638
 9630TIP3   OH250380   1.596   5.105   1.627  0.2920 -0.0187 -0.3665
 9630TIP3    H150381   1.570   5.103   1.535 -0.0152  0.1366 -0.2824
 9630TIP3    H250382   1.519   5.137   1.674 -0.5410 -2.6445  0.2684
 9631TIP3   OH250383   2.336   3.398   5.260 -0.5336  0.6856  0.0212
 9631TIP3    H150384   2.397   3.328   5.236 -0.7315  0.1574  1.0053
 9631TIP3    H250385   2.334   3.396   5.356 -1.4150  1.2916  0.0263
 9632TIP3   OH250386   0.266   6.353   5.367 -0.1927 -0.4159 -0.3139
 9632TIP3    H150387   0.342   6.397   5.404  0.5412 -1.3984 -0.6133
 9632TIP3    H250388   0.233   6.299   5.439 -0.9921  0.4765  0.0042
 9633TIP3   OH250389   5.346   2.915  12.281 -0.7620  0.2794 -0.0794
 9633TIP3    H150390   5.295   2.964  12.216 -0.5900  1.0922  0.3840
 9633TIP3    H250391   5.281   2.878  12.340 -0.9561 -0.9904 -1.0573
 9634TIP3   OH250392   1.145   3.115  11.172 -0.7203 -1.0010 -0.0413
 9634TIP3    H150393   1.083   3.122  11.099 -0.3139  1.6044 -0.2164
 9634TIP3    H250394   1.226   3.153  11.139  0.0040 -1.3967  1.2248
 9635TIP3   OH250395   6.400   4.152   4.400 -0.1865  0.1446  0.9048
 9635TIP3    H150396   6.362   4.209   4.467 -1.4062 -1.0794  1.3005
 9635TIP3    H250397   6.325   4.126   4.347  0.6133  0.2417 -0.3106
 9636TIP3   OH250398   0.610   5.439  13.298 -0.6618 -0.0583  0.1197
 9636TIP3    H150399   0.611   5.407  13.208  0.6149  0.9854 -0.2816
 9636TIP3    H250400   0.615   5.360  13.352 -0.7995 -0.6668 -0.7339
 9637TIP3   OH250401   3.091   4.106   0.246  0.0479 -0.1615  0.0474
 9637TIP3    H150402   3.122   4.197   0.246 -1.8364  0.5233 -0.3089
 9637TIP3    H250403   3.046   4.096   0.330 -3.5037  0.7011 -1.5297
 9638TIP3   OH250404   4.130   1.409  16.318 -0.4137  0.1002  0.1804
 9638TIP3    H150405   4.190   1.481  16.340  0.5401 -0.1267 -1.5380
 9638TIP3    H250406   4.084   1.391  16.400 -0.8295  2.7765  0.6329
 9639TIP3   OH250407   4.064   3.248  17.192  0.3778 -0.6449  0.6566
 9639TIP3    H150408   3.995   3.231  17.256  0.0998  0.5881  0.6947
 9639TIP3    H250409   4.145   3.228  17.239  0.1945  0.5297  1.5167
 9640TIP3   OH250410   6.456   1.594  13.615  0.7829  0.2837 -0.1900
 9640TIP3    H150411   6.501   1.598  13.530  0.2185  1.4743 -0.4511
 9640TIP3    H250412   6.382   1.654  13.606 -0.1091 -0.6353  0.6809
 9641TIP3   OH250413   6.183   5.408  15.353  0.0096  0.2897  0.1600
 9641TIP3    H150414   6.174   5.425  15.447 -0.1027 -0.5786  0.3142
 9641TIP3    H250415   6.121   5.469  15.312 -0.4221  0.2145  0.6870
 9642TIP3   OH250416   3.196   3.468   1.255 -0.2394 -0.1888  0.0270
 9642TIP3    H150417   3.211   3.553   1.296  1.0020 -0.8285  0.9781
 9642TIP3    H250418   3.173   3.410   1.328  1.4222 -1.2192 -0.2222
 9643TIP3   OH250419   5.342   6.327   4.469 -0.4342  0.2449 -0.1521
 9643TIP3    H150420   5.405   6.270   4.514 -0.9753 -0.1964  0.0553
 9643TIP3    H250421   5.322   6.280   4.388 -0.2493  0.5421 -0.3691
 9644TIP3   OH250422   5.749   5.476   4.023  0.1135 -0.1074  0.3597
 9644TIP3    H150423   5.761   5.570   4.013 -0.6049 -0.0766 -0.2714
 9644TIP3    H250424   5.831   5.445   4.061  0.7618  0.6121 -0.4301
 9645TIP3   OH250425   3.508   1.806  12.893  0.0617 -0.6301 -0.2289
 9645TIP3    H150426   3.544   1.877  12.946  0.6557 -0.6664 -0.5754
 9645TIP3    H250427   3.433   1.845  12.848  0.2138 -0.2976 -0.1991
 9646TIP3   OH250428   1.379   3.227  16.932  0.1190 -0.1147  0.5814
 9646TIP3    H150429   1.336   3.142  16.937 -0.2441  0.0014 -0.5337
 9646TIP3    H250430   1.470   3.208  16.956  0.5523 -1.2209 -1.6982
 9647TIP3   OH250431   3.031   1.471   0.301  0.3004 -0.3389  0.5417
 9647TIP3    H150432   3.120   1.504   0.311 -0.1639  0.6980  1.4950
 9647TIP3    H250433   2.984   1.542   0.256  0.0134 -0.9883 -0.2010
 9648TIP3   OH250434   2.004   3.113  16.926 -0.1499 -0.3489  0.5394
 9648TIP3    H150435   2.035   3.026  16.903  1.3394  0.5711 -1.2635
 9648TIP3    H250436   2.034   3.128  17.015  2.7883 -0.3808 -0.3512
 9649TIP3   OH250437   1.613   4.667   0.281 -0.3979 -0.6554  0.1278
 9649TIP3    H150438   1.630   4.580   0.246  0.9303 -0.6314  0.6684
 9649TIP3    H250439   1.517   4.671   0.290 -0.5353 -1.7258 -0.7027
 9650TIP3   OH250440   5.433   2.649   0.020  0.3525 -0.1848 -0.2151
 9650TIP3    H150441   5.447   2.744   0.025  0.5393 -0.2240  0.0415
 9650TIP3    H250442   5.462   2.616   0.105 -2.8383 -0.1093  1.0002
 9651TIP3   OH250443   1.322   1.923  12.180 -0.0528 -0.2050 -0.4253
 9651TIP3    H150444   1.292   1.955  12.265  0.4147  2.4501 -1.1880
 9651TIP3    H250445   1.261   1.962  12.117  1.2953  0.1955 -1.5160
 9652TIP3   OH250446   0.131   5.740   1.509  0.0277 -0.2021 -0.2262
 9652TIP3    H150447   0.153   5.829   1.480 -0.3982 -0.2702 -0.7887
 9652TIP3    H250448   0.039   5.745   1.534 -0.0336 -0.5120 -0.3854
 9653TIP3   OH250449   3.013   4.517   5.788 -0.0953  0.0477  0.3727
 9653TIP3    H150450   2.921   4.543   5.799  0.4785  2.2542  0.4001
 9653TIP3    H250451   3.009   4.433   5.741 -2.1080  0.2196  0.1614
 9654TIP3   OH250452   3.098   5.949  16.802  0.5844 -0.7809  0.2607
 9654TIP3    H150453   3.169   6.010  16.782 -1.6541  3.1288  2.8837
 9654TIP3    H250454   3.140   5.864  16.808  4.9109  1.1509  1.0384
 9655TIP3   OH250455   6.138   6.024  14.408  0.2871 -0.1647 -0.1272
 9655TIP3    H150456   6.157   5.996  14.497  0.2103  0.3373  0.0542
 9655TIP3    H250457   6.155   5.947  14.353  2.1571  0.0500  0.0959
 9656TIP3   OH250458   4.725   2.855   0.060  0.4454  0.6831  0.1541
 9656TIP3    H150459   4.675   2.801   0.121 -0.8183 -2.2084 -3.1204
 9656TIP3    H250460   4.674   2.935   0.051 -0.8311 -0.0328  0.8221
 9657TIP3   OH250461   6.453   0.612   0.818 -0.5274 -0.4015  0.3036
 9657TIP3    H150462   6.522   0.573   0.873  0.2767 -1.7120 -1.5478
 9657TIP3    H250463   6.423   0.688   0.869  0.8652 -0.9535  2.0846
 9658TIP3   OH250464   5.513   0.825   4.791  0.2152  0.1440  0.1230
 9658TIP3    H150465   5.556   0.908   4.809  1.6915 -0.7848  1.0675
 9658TIP3    H250466   5.420   0.845   4.797  0.4683  2.0820 -1.3608
 9659TIP3   OH250467   0.518   4.582  13.706  0.3678 -0.0173  0.5797
 9659TIP3    H150468   0.447   4.579  13.771  0.1792 -2.5697  0.3830
 9659TIP3    H250469   0.534   4.490  13.686  0.9982  0.6527 -2.3686
 9660TIP3   OH250470   3.525   6.068   4.364 -0.2395 -0.0406 -0.0997
 9660TIP3    H150471   3.586   5.995   4.370  0.0727  0.2683  0.8205
 9660TIP3    H250472   3.579   6.145   4.385 -0.7056  0.3703 -0.3944
 9661TIP3   OH250473   5.132   5.560   1.247 -0.3207 -0.4911 -0.3632
 9661TIP3    H150474   5.131   5.486   1.186  1.1745 -1.0558  0.2316
 9661TIP3    H250475   5.119   5.637   1.192  1.8979 -0.9038 -1.5787
 9662TIP3   OH250476   0.600   1.443  14.036  0.5235 -0.2672  0.3032
 9662TIP3    H150477   0.598   1.483  14.123  0.8221  2.9680 -1.0535
 9662TIP3    H250478   0.676   1.482  13.993  0.9675 -2.5381 -1.1600
 9663TIP3   OH250479   6.136   3.295   4.015 -0.0800 -0.7608  0.2301
 9663TIP3    H150480   6.153   3.371   3.959 -0.1766  0.5113  1.8592
 9663TIP3    H250481   6.199   3.229   3.985  0.6228  0.2651 -0.6510
 9664TIP3   OH250482   0.318   5.096  15.324 -0.8089  0.0005 -0.4202
 9664TIP3    H150483   0.309   5.019  15.267 -0.6897  0.7568 -1.4817
 9664TIP3    H250484   0.250   5.085  15.390  1.1113 -2.5800  1.3260
 9665TIP3   OH250485   6.417   3.410   6.332 -0.2663  0.1547  0.0946
 9665TIP3    H150486   6.377   3.493   6.305 -2.3111 -0.5608  0.7080
 9665TIP3    H250487   6.488   3.436   6.392 -0.4330  1.4664 -0.2393
 9666TIP3   OH250488   3.166   1.348  13.207 -0.3412  0.3110 -0.1889
 9666TIP3    H150489   3.121   1.432  13.197  0.4854  0.7182 -0.6034
 9666TIP3    H250490   3.183   1.319  13.118 -0.5417 -0.2670 -0.0471
 9667TIP3   OH250491   6.182   4.222  12.203 -0.6151 -0.0404  0.5996
 9667TIP3    H150492   6.095   4.183  12.198 -0.1164 -1.0533 -2.7195
 9667TIP3    H250493   6.238   4.152  12.237 -0.8114  0.0793  1.1799
 9668TIP3   OH250494   5.606   4.366  16.445 -0.4276 -0.6973 -0.4212
 9668TIP3    H150495   5.548   4.372  16.521  0.1954  0.4638  0.0032
 9668TIP3    H250496   5.594   4.277  16.412 -0.2092 -1.4681  1.4447
 9669TIP3   OH250497   0.556   2.289   5.859 -0.1841  0.6743 -0.4469
 9669TIP3    H150498   0.575   2.201   5.893 -1.9240  0.0342 -0.9864
 9669TIP3    H250499   0.606   2.294   5.777  0.6199  0.5387  0.0284
 9670TIP3   OH250500   3.989   0.705   3.879 -0.8396 -0.1432 -0.4195
 9670TIP3    H150501   4.048   0.776   3.906 -1.2752 -0.3577  1.2118
 9670TIP3    H250502   3.933   0.690   3.956 -2.2141 -0.7687 -1.4986
 9671TIP3   OH250503   5.388   5.509  12.269  0.0098  0.1446  0.1228
 9671TIP3    H150504   5.299   5.530  12.299  0.5207  1.4841  0.8057
 9671TIP3    H250505   5.379   5.426  12.223 -1.3304 -0.5703  1.5645
 9672TIP3   OH250506   3.919   5.060  12.160  0.2827 -0.0683 -0.6291
 9672TIP3    H150507   3.989   5.097  12.213 -0.0361  1.7614 -1.4120
 9672TIP3    H250508   3.957   5.051  12.073 -0.1790  0.1113 -0.8544
 9673TIP3   OH250509   6.708   4.833  11.210  0.0710 -0.1700 -0.2005
 9673TIP3    H150510   6.753   4.795  11.134  0.5926  1.2563 -0.6457
 9673TIP3    H250511   6.768   4.819  11.283  0.6270  0.4498 -0.5171
 9674TIP3   OH250512   4.874   2.086  13.098 -0.8851 -0.2955 -0.9005
 9674TIP3    H150513   4.923   2.096  13.179 -2.8681  0.4720  0.2836
 9674TIP3    H250514   4.928   2.029  13.043  0.1579 -1.4753  1.2552
 9675TIP3   OH250515   6.574   1.726   3.101 -0.2921  0.2130 -0.0398
 9675TIP3    H150516   6.545   1.757   3.015 -1.0844  1.7183  0.7315
 9675TIP3    H250517   6.577   1.631   3.092 -0.8331  0.3085 -1.5867
 9676TIP3   OH250518   3.802   5.663   3.850 -0.5142  0.7319  0.1529
 9676TIP3    H150519   3.730   5.601   3.838  0.7925 -0.8867  0.3541
 9676TIP3    H250520   3.776   5.714   3.927 -0.6304 -1.1231  1.4289
 9677TIP3   OH250521   3.217   2.614   2.997 -0.1780  0.0740  0.2857
 9677TIP3    H150522   3.172   2.630   3.080  1.8499  1.7613  1.1632
 9677TIP3    H250523   3.277   2.542   3.015 -0.0152  0.1816  0.1851
 9678TIP3   OH250524   5.126   0.170   1.510  0.4263 -0.1206  0.5744
 9678TIP3    H150525   5.038   0.206   1.501  0.9312  1.2323  0.9148
 9678TIP3    H250526   5.182   0.246   1.523  1.9014 -0.7980 -1.3215
 9679TIP3   OH250527   3.101   1.052  10.534  0.2206 -0.0702  0.6036
 9679TIP3    H150528   3.063   0.999  10.463 -1.2851 -0.0912  1.3882
 9679TIP3    H250529   3.185   1.010  10.552  0.6712 -0.0292 -1.1889
 9680TIP3   OH250530   3.947   5.865  14.853  0.3014  0.1287  0.4358
 9680TIP3    H150531   3.955   5.930  14.783 -0.5897  0.0104  0.2048
 9680TIP3    H250532   4.032   5.823  14.857 -0.5572 -2.4074 -3.1000
 9681TIP3   OH250533   0.784   2.226   0.854  0.1451 -0.1623 -0.0823
 9681TIP3    H150534   0.823   2.192   0.774 -0.8069  1.9450 -1.5271
 9681TIP3    H250535   0.705   2.272   0.825 -0.6682  0.0136  2.1667
 9682TIP3   OH250536   0.754   3.799  11.774  0.3004 -0.3057 -0.0058
 9682TIP3    H150537   0.733   3.817  11.682  1.6311 -0.2026 -0.3084
 9682TIP3    H250538   0.682   3.742  11.804 -0.8256  0.6862 -0.7226
 9683TIP3   OH250539   0.840   6.673   2.588 -0.2154 -0.3399  0.3859
 9683TIP3    H150540   0.868   6.757   2.552 -0.8281  0.7870  2.3628
 9683TIP3    H250541   0.815   6.693   2.679  1.7100 -3.0716  1.6417
 9684TIP3   OH250542   2.077   3.167  11.388  0.0248 -0.0465  0.1702
 9684TIP3    H150543   2.166   3.133  11.382 -0.3053 -0.9973  0.5051
 9684TIP3    H250544   2.063   3.211  11.305  1.9252  2.9773  1.2922
 9685TIP3   OH250545   1.352   5.693  11.734 -0.3875 -0.4461  0.3461
 9685TIP3    H150546   1.437   5.732  11.714 -1.0437 -0.1676 -2.2297
 9685TIP3    H250547   1.311   5.755  11.794 -0.0871  1.2296 -1.0816
 9686TIP3   OH250548   5.885   1.796   0.203  0.2212  0.0765  0.3424
 9686TIP3    H150549   5.976   1.827   0.202  1.1779 -2.5118  0.4986
 9686TIP3    H250550   5.874   1.751   0.119  0.2491 -2.6008  1.6878
 9687TIP3   OH250551   2.585   5.317  12.394  0.4219 -0.0351 -0.3886
 9687TIP3    H150552   2.547   5.381  12.334  1.4919 -1.3516 -2.6037
 9687TIP3    H250553   2.658   5.364  12.435  0.4806  0.5163 -1.1002
 9688TIP3   OH250554   3.460   4.090   5.981 -0.3453 -0.0235  0.3696
 9688TIP3    H150555   3.406   4.025   5.937  1.8762 -3.1041  1.8444
 9688TIP3    H250556   3.405   4.125   6.051 -0.9545 -1.9175  0.8851
 9689TIP3   OH250557   6.267   4.342   4.008 -0.2144  0.2556  0.0774
 9689TIP3    H150558   6.351   4.387   4.010 -0.7609  1.3502 -0.7724
 9689TIP3    H250559   6.290   4.249   4.007  1.0543  0.5334 -2.1810
 9690TIP3   OH250560   2.266   1.362   5.206  0.4961 -0.5575 -0.5169
 9690TIP3    H150561   2.272   1.268   5.226 -1.7242 -0.7532 -0.5214
 9690TIP3    H250562   2.198   1.368   5.139  1.2025  0.9929 -1.1364
 9691TIP3   OH250563   1.312   6.767   4.235 -0.1478  0.5616 -0.1830
 9691TIP3    H150564   1.282   6.763   4.326  0.5638 -0.4507  0.0208
 9691TIP3    H250565   1.232   6.786   4.185 -0.9665 -0.9625  0.4577
 9692TIP3   OH250566   5.726   2.224  12.894  0.2211  0.3653 -0.5454
 9692TIP3    H150567   5.761   2.181  12.816 -2.1405  0.0497 -1.5127
 9692TIP3    H250568   5.670   2.158  12.935 -0.8486  1.4282 -0.2203
 9693TIP3   OH250569   6.754   1.490  17.513 -0.1793 -0.2336  0.1566
 9693TIP3    H150570   6.830   1.543  17.537  0.8530 -1.2405 -0.7793
 9693TIP3    H250571   6.678   1.545  17.536  0.7869  0.5298  1.7170
 9694TIP3   OH250572   4.431   2.496   3.014  0.6426  0.5873 -0.5847
 9694TIP3    H150573   4.448   2.572   2.959  0.9739 -0.3272 -1.7865
 9694TIP3    H250574   4.435   2.421   2.954 -1.1579 -0.2650  0.2777
 9695TIP3   OH250575   5.384   6.433  12.270  0.2552 -0.0311 -0.2125
 9695TIP3    H150576   5.312   6.495  12.254 -0.4385 -0.6549  0.4452
 9695TIP3    H250577   5.341   6.348  12.281  1.3019 -1.1431 -3.4183
 9696TIP3   OH250578   4.339   5.482   4.405 -0.7046 -0.1394 -0.1275
 9696TIP3    H150579   4.421   5.438   4.384  0.1073  0.1666  2.1539
 9696TIP3    H250580   4.288   5.415   4.451 -1.6485 -0.2203 -1.2329
 9697TIP3   OH250581   1.835   2.544   5.887 -0.5460 -0.1367  0.2935
 9697TIP3    H150582   1.868   2.467   5.841 -0.4148 -0.5990  1.1257
 9697TIP3    H250583   1.817   2.608   5.819 -0.0124 -0.6685 -0.3554
 9698TIP3   OH250584   0.265   2.472   0.577  0.5917 -0.7124 -0.0796
 9698TIP3    H150585   0.244   2.390   0.532 -0.0151 -0.1293 -0.9089
 9698TIP3    H250586   0.190   2.529   0.558  0.9587  0.0040  0.5624
 9699TIP3   OH250587   4.642   1.875   1.815 -0.1866 -0.1655 -0.2881
 9699TIP3    H150588   4.546   1.870   1.805 -0.5200  2.0974  1.1014
 9699TIP3    H250589   4.671   1.921   1.736 -0.6487  1.7127  0.5787
 9700TIP3   OH250590   3.133   1.321   0.804  0.2458 -0.2269  0.2443
 9700TIP3    H150591   3.139   1.411   0.772  2.1962 -0.2549  0.3840
 9700TIP3    H250592   3.070   1.325   0.876  0.0587  0.9674  0.0348
 9701TIP3   OH250593   3.080   1.138  15.152 -0.3405 -0.3011 -0.2765
 9701TIP3    H150594   3.106   1.228  15.171  1.7263 -1.2848  2.2004
 9701TIP3    H250595   3.113   1.088  15.226 -0.4034 -3.2763 -2.0952
 9702TIP3   OH250596   1.301   0.296  12.424 -0.2611  0.3156 -1.0429
 9702TIP3    H150597   1.241   0.221  12.423  1.8378 -1.4826 -2.1359
 9702TIP3    H250598   1.336   0.299  12.513 -3.3440  2.7116  0.2688
 9703TIP3   OH250599   2.413   1.908  13.585  0.0368 -0.4474  0.9969
 9703TIP3    H150600   2.377   1.863  13.508  1.2976  0.2124 -0.0224
 9703TIP3    H250601   2.336   1.946  13.628 -0.5480  1.0279 -1.1599
 9704TIP3   OH250602   2.072   6.679  16.413 -0.0874  0.2030 -0.1440
 9704TIP3    H150603   2.140   6.630  16.459 -0.0986  0.4075  0.0941
 9704TIP3    H250604   2.037   6.739  16.479 -1.3142 -0.7008  0.0628
 9705TIP3   OH250605   0.942   4.471  13.255  0.3611 -0.0116 -0.2583
 9705TIP3    H150606   0.883   4.399  13.232 -0.0459  0.6389 -1.3674
 9705TIP3    H250607   0.976   4.448  13.341 -2.3017  0.0718  0.9053
 9706TIP3   OH250608   4.489   5.701   4.488 -0.2919  0.2538  0.5951
 9706TIP3    H150609   4.398   5.729   4.499 -0.6513 -0.9369  0.7417
 9706TIP3    H250610   4.483   5.612   4.453  0.8119  1.2696 -2.5367
 9707TIP3   OH250611   5.736   4.527  15.670 -0.1366 -0.1654  0.5620
 9707TIP3    H150612   5.766   4.549  15.582  0.6603 -2.0562  0.3113
 9707TIP3    H250613   5.784   4.586  15.727  1.0232 -0.3982 -0.1370
 9708TIP3   OH250614   4.539   1.270  16.034 -0.1100  0.0319  0.4200
 9708TIP3    H150615   4.534   1.218  15.953  0.3667 -0.6775  0.8373
 9708TIP3    H250616   4.448   1.288  16.057 -0.2521  0.2196 -0.2603
 9709TIP3   OH250617   2.837   6.514   1.435 -0.3722 -0.0482  0.1824
 9709TIP3    H150618   2.861   6.459   1.360  0.2580  0.7592 -0.2229
 9709TIP3    H250619   2.765   6.467   1.477  1.4639 -2.2469  1.0519
 9710TIP3   OH250620   3.031   5.861  16.157  0.3179  0.1413 -0.3781
 9710TIP3    H150621   2.995   5.789  16.104  1.0109 -0.2187 -0.3825
 9710TIP3    H250622   3.024   5.829  16.247 -0.7472  0.7033 -0.2453
 9711TIP3   OH250623   3.313   2.664  16.087 -0.5975  0.6203  0.0676
 9711TIP3    H150624   3.257   2.621  16.152  1.4825 -2.5895 -0.0709
 9711TIP3    H250625   3.255   2.678  16.011 -1.9843  0.5190  1.0644
 9712TIP3   OH250626   6.140   6.663  14.377 -0.3866 -1.1005 -0.3210
 9712TIP3    H150627   6.057   6.697  14.410 -0.2661 -0.3325 -0.7637
 9712TIP3    H250628   6.116   6.593  14.317 -0.6431 -1.8626  0.6675
 9713TIP3   OH250629   0.147   1.286  12.413  0.3479  0.3748 -0.3766
 9713TIP3    H150630   0.190   1.310  12.331  1.4643 -0.4550 -0.0492
 9713TIP3    H250631   0.182   1.200  12.436 -0.1692  0.4531  0.8224
 9714TIP3   OH250632   0.396   1.278   1.334 -0.2028  0.1275  0.4887
 9714TIP3    H150633   0.488   1.301   1.340  0.2486 -1.0680 -1.0718
 9714TIP3    H250634   0.355   1.352   1.290  0.4331 -0.2243 -0.7283
 9715TIP3   OH250635   1.871   2.270   1.436  0.2043  0.5860 -0.3313
 9715TIP3    H150636   1.965   2.260   1.428  0.4885 -0.7171  3.2051
 9715TIP3    H250637   1.836   2.182   1.427 -0.5171  0.8389 -0.1050
 9716TIP3   OH250638   3.460   4.057   2.184  0.5247 -0.1414 -0.2890
 9716TIP3    H150639   3.495   4.077   2.098 -1.4381  1.4328 -0.7880
 9716TIP3    H250640   3.424   4.140   2.216  1.3690 -0.6170  2.1634
 9717TIP3   OH250641   5.372   5.067   0.864  0.3558 -0.2595  0.2963
 9717TIP3    H150642   5.277   5.072   0.855  0.2748 -1.0560  0.6726
 9717TIP3    H250643   5.398   5.154   0.895 -0.3364 -0.2841  0.9461
 9718TIP3   OH250644   2.287   4.447  14.337  0.3000 -0.1843 -0.1185
 9718TIP3    H150645   2.371   4.479  14.371  0.4785  0.4712 -1.1315
 9718TIP3    H250646   2.223   4.510  14.369  0.2510 -0.4393  0.2898
 9719TIP3   OH250647   2.853   0.759   0.022  0.2159 -0.3023  0.1573
 9719TIP3    H150648   2.810   0.750  -0.063 -1.0530 -0.2013  0.7634
 9719TIP3    H250649   2.934   0.807   0.003 -1.5179  2.5834 -0.6053
 9720TIP3   OH250650   5.573   2.341  15.505  0.2084 -0.0492 -0.1522
 9720TIP3    H150651   5.605   2.414  15.558 -0.3672 -0.3783  0.6681
 9720TIP3    H250652   5.652   2.295  15.478  0.5056 -0.0335  0.6601
 9721TIP3   OH250653   4.176   6.635   5.844 -0.4973 -0.3237  0.2737
 9721TIP3    H150654   4.174   6.707   5.781  0.4101 -1.5387 -1.1999
 9721TIP3    H250655   4.269   6.626   5.867 -0.2058 -2.5935 -1.4925
 9722TIP3   OH250656   5.959   3.490   1.448  0.3144  0.1865 -0.1463
 9722TIP3    H150657   6.008   3.539   1.382 -1.5547  0.7346 -1.1914
 9722TIP3    H250658   6.012   3.497   1.527  1.8131  0.8849 -1.1676
 9723TIP3   OH250659   1.845   6.083   6.200  0.4814  0.1191  0.4703
 9723TIP3    H150660   1.774   6.040   6.249  0.1211 -0.2743 -0.3760
 9723TIP3    H250661   1.918   6.085   6.262  0.2644 -1.0179  0.8019
 9724TIP3   OH250662   5.674   1.335  13.653  0.1534 -0.0125 -0.0192
 9724TIP3    H150663   5.606   1.295  13.708 -0.1265  0.3730 -0.0817
 9724TIP3    H250664   5.735   1.375  13.716  0.9657 -1.3494  0.0863
 9725TIP3   OH250665   5.555   3.927   4.953 -0.4292  0.1516  0.1916
 9725TIP3    H150666   5.530   3.852   5.006 -0.2842 -0.0231  0.0133
 9725TIP3    H250667   5.648   3.939   4.971 -0.1986 -0.3771 -0.5938
 9726TIP3   OH250668   5.198   4.047   4.802  0.3403  0.7887  0.5678
 9726TIP3    H150669   5.160   3.968   4.840 -0.7002 -0.1983 -2.2340
 9726TIP3    H250670   5.123   4.099   4.774  0.3631 -1.8300 -6.3895
 9727TIP3   OH250671   2.098   4.127   0.607  0.6226 -0.2871 -0.3148
 9727TIP3    H150672   2.152   4.167   0.539  1.8655  0.9820  1.3196
 9727TIP3    H250673   2.021   4.182   0.613  1.0756  0.3196  0.0886
 9728TIP3   OH250674   1.007   2.960  13.000  0.2928  0.5761  0.4372
 9728TIP3    H150675   1.069   3.032  12.998  0.1236  0.7101  0.0743
 9728TIP3    H250676   0.931   2.994  13.046  0.0438  0.7654 -0.1082
 9729TIP3   OH250677   4.387   6.215   5.770  0.6623  0.0103 -0.4756
 9729TIP3    H150678   4.481   6.210   5.756  0.5474 -1.1448 -0.9758
 9729TIP3    H250679   4.349   6.175   5.692 -0.2694  1.0219 -0.5624
 9730TIP3   OH250680   0.607   6.425   3.419  0.1616  0.0972  0.0205
 9730TIP3    H150681   0.669   6.409   3.490 -0.0192 -0.0087  0.1559
 9730TIP3    H250682   0.596   6.520   3.418 -0.5861  0.0291  0.7823
 9731TIP3   OH250683   0.866   3.989   2.440 -0.0422 -1.1320 -0.0946
 9731TIP3    H150684   0.918   3.983   2.361  0.2619  0.6048 -0.0691
 9731TIP3    H250685   0.800   4.055   2.420 -2.7887 -3.7633 -0.3873
 9732TIP3   OH250686   2.136   1.433   4.567 -0.0351  0.3014  0.0984
 9732TIP3    H150687   2.127   1.508   4.626  1.2061  0.3881  0.1880
 9732TIP3    H250688   2.056   1.435   4.515 -1.1241  0.2784  1.6951
 9733TIP3   OH250689   1.344   2.458   5.173 -0.0477 -0.0592  0.1888
 9733TIP3    H150690   1.435   2.483   5.160  0.3531 -0.8201  1.2759
 9733TIP3    H250691   1.341   2.429   5.265 -1.0836 -1.2410 -0.1938
 9734TIP3   OH250692   1.141   5.934  13.470 -0.1570 -0.0915 -0.7857
 9734TIP3    H150693   1.223   5.897  13.504 -0.8755 -1.2395 -0.2419
 9734TIP3    H250694   1.166   5.975  13.388  1.0919  0.1690 -0.2998
 9735TIP3   OH250695   3.900   6.250  15.372 -0.3191  0.8278  0.0113
 9735TIP3    H150696   3.933   6.336  15.400 -2.6585  1.1740  1.9947
 9735TIP3    H250697   3.827   6.270  15.314 -2.1357  0.3220  1.9903
 9736TIP3   OH250698   3.821   3.651   4.597 -0.3431  0.7345 -0.0596
 9736TIP3    H150699   3.773   3.576   4.563  0.2670  0.2595  0.1175
 9736TIP3    H250700   3.781   3.726   4.552  0.5104  0.1214 -1.9705
 9737TIP3   OH250701   4.798   3.488   4.417 -0.0214  0.2950  0.1920
 9737TIP3    H150702   4.761   3.416   4.366  2.1059 -0.6263 -0.1445
 9737TIP3    H250703   4.782   3.566   4.363 -3.5436  0.4350  1.1590
 9738TIP3   OH250704   1.910   5.221  11.686 -0.0320 -0.1866  0.1019
 9738TIP3    H150705   1.932   5.312  11.709 -0.2617 -0.4504  1.4951
 9738TIP3    H250706   1.992   5.183  11.656  0.1486  0.3837 -0.1314
 9739TIP3   OH250707   2.994   2.687  16.810  0.1876  0.0409 -0.5925
 9739TIP3    H150708   2.931   2.712  16.878  1.3783  0.0553  0.5493
 9739TIP3    H250709   2.945   2.692  16.729 -0.4497  3.3040 -0.1463
 9740TIP3   OH250710   4.066   1.057   2.618  0.2666  0.0433  0.4177
 9740TIP3    H150711   4.097   1.090   2.703 -1.2233  0.5827  0.7803
 9740TIP3    H250712   4.113   0.974   2.606  0.6034  0.0235  1.6968
 9741TIP3   OH250713   5.426   1.341   0.091  0.4559 -0.0552 -0.3318
 9741TIP3    H150714   5.369   1.305   0.158 -1.0665  0.0939 -1.4895
 9741TIP3    H250715   5.443   1.268   0.031  1.5425 -0.1120  0.0136
 9742TIP3   OH250716   3.777   5.932  16.768  0.2003  0.0869  0.4009
 9742TIP3    H150717   3.735   6.013  16.797 -0.7723 -0.2903  0.0826
 9742TIP3    H250718   3.809   5.891  16.849 -0.0201  0.3988  0.6478
 9743TIP3   OH250719   4.754   5.108  16.332  0.2594 -0.1745 -0.6412
 9743TIP3    H150720   4.696   5.032  16.324 -0.2703  0.0582  0.7852
 9743TIP3    H250721   4.717   5.159  16.404  2.1520  0.0545  0.2206
 9744TIP3   OH250722   0.368   1.296  13.338  0.2941 -0.4494  0.1357
 9744TIP3    H150723   0.289   1.349  13.328 -0.4468 -1.5506 -0.0072
 9744TIP3    H250724   0.341   1.208  13.311  1.4286 -0.9565  0.6147
 9745TIP3   OH250725   0.433   3.872  15.732  0.1110  0.4235  0.5506
 9745TIP3    H150726   0.498   3.900  15.796 -0.6256  0.5621  1.2564
 9745TIP3    H250727   0.399   3.790  15.767 -0.8573  0.8974  0.7614
 9746TIP3   OH250728   6.393   2.354   3.621 -0.1941  0.3720 -0.3247
 9746TIP3    H150729   6.398   2.297   3.698  0.9657  1.3809  0.3932
 9746TIP3    H250730   6.334   2.309   3.561  1.4062 -2.0453 -0.2004
 9747TIP3   OH250731   1.268   3.067   0.640 -0.1309 -0.1371 -0.1926
 9747TIP3    H150732   1.264   3.109   0.554  0.1436 -2.2502 -1.3032
 9747TIP3    H250733   1.327   3.122   0.691 -0.6466  1.4094 -1.1929
 9748TIP3   OH250734   5.564   4.305  16.053 -0.0944  0.0179 -0.3158
 9748TIP3    H150735   5.518   4.369  16.107 -1.3204 -1.2628  0.2232
 9748TIP3    H250736   5.597   4.355  15.978 -1.5270  1.1578 -0.2203
 9749TIP3   OH250737   6.519   1.971  16.327 -0.0051 -0.2041  0.3101
 9749TIP3    H150738   6.601   2.020  16.319  0.0875 -0.5363 -0.8772
 9749TIP3    H250739   6.498   1.944  16.238 -1.6978  0.3329  0.5156
 9750TIP3   OH250740   4.340   2.354   3.673 -0.0853  0.2605 -0.6901
 9750TIP3    H150741   4.247   2.337   3.665 -0.5534  3.0951 -2.4954
 9750TIP3    H250742   4.382   2.279   3.631 -1.4684 -1.1648  0.3505
 9751TIP3   OH250743   6.652   5.616   5.629  0.0939 -0.3653  0.0750
 9751TIP3    H150744   6.709   5.604   5.704  1.1723  2.0200 -0.2671
 9751TIP3    H250745   6.577   5.665   5.664 -0.0250 -0.3655 -0.1765
 9752TIP3   OH250746   0.450   4.072   3.348  0.6991  0.0847 -0.0789
 9752TIP3    H150747   0.375   4.082   3.406  0.9706  0.4206  0.2167
 9752TIP3    H250748   0.414   4.029   3.270  0.1809  0.3485  0.0125
 9753TIP3   OH250749   5.665   6.440  17.383  0.4351 -1.0845 -0.0609
 9753TIP3    H150750   5.699   6.529  17.393 -4.2185  0.8589  1.0713
 9753TIP3    H250751   5.640   6.434  17.291 -3.6644  0.9254  0.6846
 9754TIP3   OH250752   4.176   2.944   1.857  0.6768 -0.6768  0.7639
 9754TIP3    H150753   4.099   2.991   1.825  1.7259  0.2333 -0.5288
 9754TIP3    H250754   4.141   2.881   1.919 -0.9441  0.8128  1.4525
 9755TIP3   OH250755   4.329   1.164  16.538  0.4811  0.0557 -0.2063
 9755TIP3    H150756   4.385   1.200  16.469  0.4823  0.9547  0.2397
 9755TIP3    H250757   4.298   1.081  16.504  0.5449  0.4521 -1.2611
 9756TIP3   OH250758   0.251   3.995  11.140  0.0248  0.7687 -0.1604
 9756TIP3    H150759   0.303   3.949  11.074 -2.1550 -0.8020 -0.8759
 9756TIP3    H250760   0.260   4.087  11.118  1.2205  0.4263 -1.1963
 9757TIP3   OH250761   3.521   0.866   6.741  0.0136 -0.6212  0.5745
 9757TIP3    H150762   3.504   0.798   6.676  2.2139 -0.1864 -0.5531
 9757TIP3    H250763   3.615   0.862   6.755  0.0750  1.5901  1.1623
 9758TIP3   OH250764   2.758   4.077   2.536  0.1115 -0.2393 -0.4673
 9758TIP3    H150765   2.809   4.135   2.480  0.5749  1.1388  1.2905
 9758TIP3    H250766   2.667   4.098   2.516  0.2414  2.1244  1.0333
 9759TIP3   OH250767   0.509   4.650   6.190 -0.2064 -0.0403 -0.1572
 9759TIP3    H150768   0.486   4.573   6.139  0.0145 -0.4896  0.4214
 9759TIP3    H250769   0.445   4.652   6.262  0.3122 -0.1662  0.3141
 9760TIP3   OH250770   3.218   0.395   4.300 -0.7325 -0.1641 -0.0064
 9760TIP3    H150771   3.185   0.371   4.387 -0.1863 -0.2112  0.1900
 9760TIP3    H250772   3.141   0.388   4.243 -1.2170  0.3898  0.5635
 9761TIP3   OH250773   5.985   5.415   0.072  0.2998  0.0142  0.4812
 9761TIP3    H150774   5.957   5.449   0.157 -1.5134  1.0557 -0.4776
 9761TIP3    H250775   6.040   5.485   0.036  0.4383 -0.0982  0.4757
 9762TIP3   OH250776   3.389   0.410   2.396 -0.3335  0.1046  0.2322
 9762TIP3    H150777   3.325   0.473   2.427 -0.1358  0.2563  0.3366
 9762TIP3    H250778   3.440   0.457   2.330 -0.7543 -0.2173 -0.3263
 9763TIP3   OH250779   1.773   2.698   5.405  0.3773 -0.4902  0.4513
 9763TIP3    H150780   1.807   2.612   5.379 -1.1158 -0.7671 -0.6539
 9763TIP3    H250781   1.684   2.681   5.435 -0.3820  0.8128 -0.9412
 9764TIP3   OH250782   0.677   3.739   2.169  0.8734  0.5543  0.0011
 9764TIP3    H150783   0.648   3.692   2.091 -0.0498 -0.1786  0.7647
 9764TIP3    H250784   0.771   3.719   2.175  1.1612  1.3821 -1.4243
 9765TIP3   OH250785   6.255   1.205  15.243  0.7458 -0.2610 -0.0794
 9765TIP3    H150786   6.212   1.256  15.312 -0.0471 -0.8580 -0.1264
 9765TIP3    H250787   6.191   1.139  15.219  1.9289 -1.5704  0.2778
 9766TIP3   OH250788   5.857   5.367   1.145 -0.3235 -0.2246  0.0994
 9766TIP3    H150789   5.934   5.424   1.150 -0.7630  0.7092 -2.3036
 9766TIP3    H250790   5.894   5.279   1.136  0.3706 -0.2409  2.3607
 9767TIP3   OH250791   2.224   4.095  11.013 -0.1604 -0.4853  0.1587
 9767TIP3    H150792   2.309   4.052  11.002  0.2720  0.0554  1.3015
 9767TIP3    H250793   2.244   4.188  11.016 -0.9114 -0.2863 -0.5114
 9768TIP3   OH250794   2.181   3.743   1.196  0.3575  0.3077  0.3958
 9768TIP3    H150795   2.231   3.731   1.277  0.9694 -0.3952 -0.0740
 9768TIP3    H250796   2.144   3.657   1.177  1.0269  0.2111 -0.5817
 9769TIP3   OH250797   0.208   1.535  13.276  0.3336  0.0776 -0.0959
 9769TIP3    H150798   0.173   1.612  13.320  0.2692  0.0097 -0.0271
 9769TIP3    H250799   0.300   1.556  13.260  0.2991  0.1938 -0.1362
 9770TIP3   OH250800   5.298   1.104   4.139  0.3502 -0.2293  0.7877
 9770TIP3    H150801   5.262   1.102   4.228 -1.5154 -0.4508  0.0913
 9770TIP3    H250802   5.291   1.014   4.109 -0.1575  0.0582  0.0167
 9771TIP3   OH250803   4.837   4.273  17.479  0.4013 -0.3131 -0.3546
 9771TIP3    H150804   4.758   4.299  17.526  0.8860  1.5254 -0.4894
 9771TIP3    H250805   4.872   4.200  17.529  0.6842  1.3106  1.9380
 9772TIP3   OH250806   5.947   0.603  14.729  0.2694 -0.1324  0.2943
 9772TIP3    H150807   6.013   0.534  14.716 -0.8735 -0.9184 -1.9567
 9772TIP3    H250808   5.997   0.684  14.734  1.4351 -0.7163 -1.2533
 9773TIP3   OH250809   2.918   1.180  11.840  0.4628  0.2414 -0.2383
 9773TIP3    H150810   2.889   1.255  11.892 -0.4866 -0.3613  0.1298
 9773TIP3    H250811   2.887   1.104  11.888 -0.4276 -0.3357 -1.6650
 9774TIP3   OH250812   3.794   1.261  10.888 -0.1634  0.3982  0.4998
 9774TIP3    H150813   3.857   1.276  10.818  0.4105  0.4690  1.0245
 9774TIP3    H250814   3.731   1.333  10.880 -1.6159 -0.9866 -1.5546
 9775TIP3   OH250815   0.010   5.114  15.515  0.4135  0.3768  0.0056
 9775TIP3    H150816  -0.057   5.064  15.468  1.7094 -1.0235 -0.4415
 9775TIP3    H250817  -0.022   5.204  15.514 -1.3410 -0.2142 -0.3821
 9776TIP3   OH250818   2.587   2.609  13.018  0.1153  0.6306  0.5438
 9776TIP3    H150819   2.614   2.521  13.046 -0.8246 -0.4036 -1.6039
 9776TIP3    H250820   2.657   2.666  13.049  2.5107 -1.3231 -0.8635
 9777TIP3   OH250821   3.332   3.641   6.008 -0.4032 -0.0258 -0.0365
 9777TIP3    H150822   3.292   3.573   5.954  0.1154  1.0040 -1.7912
 9777TIP3    H250823   3.292   3.629   6.094 -1.5218 -1.5125 -0.7133
 9778TIP3   OH250824   4.290   1.772  13.388  0.3615  0.5665  0.3638
 9778TIP3    H150825   4.382   1.779  13.414  0.3393  1.1286  0.3103
 9778TIP3    H250826   4.274   1.851  13.336  0.9081 -1.3008 -2.9159
 9779TIP3   OH250827   3.357   5.641  16.684  0.0993 -0.0030 -0.2259
 9779TIP3    H150828   3.361   5.710  16.617  0.1200 -1.3376 -1.6649
 9779TIP3    H250829   3.328   5.563  16.636 -1.4658 -0.6492  1.6571
 9780TIP3   OH250830   1.676   0.044   5.472  0.0099  0.4442 -0.4559
 9780TIP3    H150831   1.723   0.016   5.551 -0.1355 -0.6679 -0.7450
 9780TIP3    H250832   1.682  -0.031   5.413 -0.3204  1.0775 -1.3158
 9781TIP3   OH250833   0.927   0.163   0.437  0.2837  0.2208  1.2455
 9781TIP3    H150834   0.936   0.067   0.438  0.3924  0.1265 -1.4397
 9781TIP3    H250835   0.851   0.179   0.382  1.8297  1.6836 -0.5985
 9782TIP3   OH250836   2.063   4.877   2.984  0.1207  0.0465 -0.4514
 9782TIP3    H150837   2.021   4.944   2.930 -0.6901 -0.5929 -0.6465
 9782TIP3    H250838   2.080   4.805   2.923 -0.6693 -0.6223  0.0891
 9783TIP3   OH250839   2.179   6.172  14.539  0.0346 -0.4072 -0.8232
 9783TIP3    H150840   2.125   6.239  14.580  1.3276  1.0908 -1.4415
 9783TIP3    H250841   2.175   6.191  14.445  1.5168 -0.2943 -0.8935
 9784TIP3   OH250842   5.821   2.317   2.470 -0.0693 -0.5562  0.5736
 9784TIP3    H150843   5.900   2.264   2.480 -0.2425 -0.8773  0.2600
 9784TIP3    H250844   5.851   2.396   2.425  0.6049  0.6411  2.9485
 9785TIP3   OH250845   5.185   5.189   4.311  0.5300 -0.9074 -0.1040
 9785TIP3    H150846   5.236   5.119   4.352 -0.2881 -0.5336  1.6846
 9785TIP3    H250847   5.191   5.261   4.373  1.8257  0.8621 -2.1737
 9786TIP3   OH250848   0.473   3.017  12.269  0.4878  0.1652 -0.5652
 9786TIP3    H150849   0.399   2.979  12.221  0.9134  2.3968 -3.2631
 9786TIP3    H250850   0.440   3.100  12.302  1.2479  0.2700 -0.0437
 9787TIP3   OH250851   6.563   6.160  12.510 -0.0511  0.3851 -0.7061
 9787TIP3    H150852   6.569   6.252  12.535  0.1011  0.5355 -1.2759
 9787TIP3    H250853   6.495   6.158  12.442  1.8100  0.5379 -2.6999
 9788TIP3   OH250854   4.993   1.522   4.471 -0.3662 -0.2511 -0.0663
 9788TIP3    H150855   5.059   1.461   4.438 -2.1550 -1.5249 -1.5768
 9788TIP3    H250856   4.945   1.471   4.537 -0.3549  0.3734  0.4335
 9789TIP3   OH250857   4.648   3.461  17.044  0.0644  0.1928  0.7193
 9789TIP3    H150858   4.679   3.460  16.954 -0.2633 -0.0505  0.6042
 9789TIP3    H250859   4.569   3.514  17.042  1.3184  2.1735  1.3166
 9790TIP3   OH250860   3.018   6.161  11.615  1.0256 -0.1749  0.1263
 9790TIP3    H150861   3.013   6.215  11.694  0.3076  0.2187 -0.1753
 9790TIP3    H250862   2.935   6.114  11.612  1.3660 -0.7790  0.0146
 9791TIP3   OH250863   5.743   0.072   1.228  0.2623 -0.2765 -0.5739
 9791TIP3    H150864   5.653   0.050   1.253  0.2275 -0.3082 -0.7303
 9791TIP3    H250865   5.759   0.157   1.270  0.0425 -0.1075 -0.8342
 9792TIP3   OH250866   3.656   2.999   0.848  0.2880  0.2120  0.2965
 9792TIP3    H150867   3.651   2.945   0.927 -0.4212  2.2512  1.7332
 9792TIP3    H250868   3.732   3.055   0.862 -0.4663  1.3312  0.0651
 9793TIP3   OH250869   0.173   1.995   2.282 -0.2723  0.5264 -0.4986
 9793TIP3    H150870   0.198   2.057   2.213  2.2769 -0.8487 -0.9342
 9793TIP3    H250871   0.177   1.910   2.240  0.6294 -0.2914  1.1354
 9794TIP3   OH250872   0.560   6.211   1.352  0.8554  0.7371  0.0196
 9794TIP3    H150873   0.558   6.121   1.318 -0.3416  0.4662  0.7563
 9794TIP3    H250874   0.616   6.205   1.430  1.8327  0.9160 -0.6474
 9795TIP3   OH250875   4.524   5.595  15.457 -0.2413  0.5749 -0.7312
 9795TIP3    H150876   4.439   5.615  15.418 -0.0070  2.4782 -0.3641
 9795TIP3    H250877   4.503   5.564  15.545 -0.6093 -0.6425 -1.2239
 9796TIP3   OH250878   2.409   0.450  12.020  0.2092 -0.9124 -0.3499
 9796TIP3    H150879   2.459   0.468  12.100 -0.1821  4.3215 -0.9386
 9796TIP3    H250880   2.473   0.460  11.950 -0.7111  2.6324 -0.9127
 9797TIP3   OH250881   5.031   1.067   1.373 -0.0427 -0.1992  0.0691
 9797TIP3    H150882   5.083   1.048   1.452 -1.2513 -2.4970  0.4157
 9797TIP3    H250883   5.085   1.035   1.301  0.3878  0.4489  0.0939
 9798TIP3   OH250884   0.316   5.630   4.483 -0.8706 -0.2376  0.1259
 9798TIP3    H150885   0.402   5.593   4.503 -0.0489  0.9115 -1.1276
 9798TIP3    H250886   0.271   5.635   4.567  1.6851  2.6518  1.4693
 9799TIP3   OH250887   4.233   1.735  13.657 -0.4746 -0.3219  0.6509
 9799TIP3    H150888   4.269   1.809  13.706 -0.9053 -0.6303  1.4445
 9799TIP3    H250889   4.238   1.763  13.566  4.4371 -1.3940  0.3341
 9800TIP3   OH250890   3.053   2.437   2.843  0.2070 -0.4272  0.0998
 9800TIP3    H150891   3.125   2.480   2.889  0.9900 -0.6643 -0.8641
 9800TIP3    H250892   3.068   2.344   2.856  2.2115 -0.6947 -3.0254
 9801TIP3   OH250893   6.296   5.858   0.343  0.5020 -0.2537  0.1286
 9801TIP3    H150894   6.255   5.891   0.423  3.0407 -1.6582  2.1709
 9801TIP3    H250895   6.287   5.930   0.280 -2.3374  0.5646  1.3284
 9802TIP3   OH250896   6.530   4.893   2.910 -0.0578 -0.0648 -0.2591
 9802TIP3    H150897   6.565   4.877   2.997 -2.4373  1.1000  1.0085
 9802TIP3    H250898   6.584   4.962   2.873  0.6414 -0.2033  0.5005
 9803TIP3   OH250899   4.590   0.766   5.037  0.4762 -0.3335 -0.1095
 9803TIP3    H150900   4.547   0.843   5.000  3.2852  0.8367 -1.1856
 9803TIP3    H250901   4.585   0.701   4.967  1.1902  0.1081 -0.5874
 9804TIP3   OH250902   3.877   5.265  16.020 -0.1381  0.3759  0.2402
 9804TIP3    H150903   3.872   5.295  16.111  1.3170  3.0031 -0.4325
 9804TIP3    H250904   3.798   5.300  15.979  1.2584  3.0030 -0.3998
 9805TIP3   OH250905   0.817   4.976   2.779  0.1650 -0.1891  0.3225
 9805TIP3    H150906   0.760   5.051   2.801 -1.0578 -1.0799  0.3082
 9805TIP3    H250907   0.779   4.941   2.699  1.3981 -0.1730 -0.2778
 9806TIP3   OH250908   3.179   4.940  17.037 -0.4581  0.2856 -0.2260
 9806TIP3    H150909   3.128   5.018  17.058  1.5480  1.9749 -1.2779
 9806TIP3    H250910   3.195   4.946  16.943 -0.6029 -1.6516 -0.4168
 9807TIP3   OH250911   1.602   2.418   1.169  0.0755  0.1931 -0.4904
 9807TIP3    H150912   1.580   2.347   1.110  1.4806 -0.8905  0.2113
 9807TIP3    H250913   1.693   2.440   1.147  0.0358  0.9731  0.0798
 9808TIP3   OH250914   2.631   2.348  13.143  0.6269  0.4776 -0.3224
 9808TIP3    H150915   2.655   2.283  13.077  1.0928  0.2908  0.0315
 9808TIP3    H250916   2.607   2.297  13.220 -1.1552  0.6319 -0.7138
 9809TIP3   OH250917   3.521   1.270  15.460  0.1125 -0.2684 -0.1570
 9809TIP3    H150918   3.530   1.231  15.374  0.0794  0.6894 -0.6100
 9809TIP3    H250919   3.432   1.305  15.462  1.2268  2.9959 -1.1975
 9810TIP3   OH250920   5.180   0.647   4.679 -0.3038 -0.2747 -0.5233
 9810TIP3    H150921   5.225   0.675   4.600 -0.3041  0.9522 -0.1107
 9810TIP3    H250922   5.146   0.728   4.717 -3.1016 -1.1138 -0.9474
 9811TIP3   OH250923   1.832   5.870  12.212  0.7333  0.0277  0.1102
 9811TIP3    H150924   1.898   5.938  12.197  0.1815  0.4434 -0.4732
 9811TIP3    H250925   1.791   5.857  12.127  0.2979 -0.4749  0.3914
 9812TIP3   OH250926   3.788   5.330  16.621  0.3122 -0.4801 -0.0869
 9812TIP3    H150927   3.697   5.327  16.649  0.5932  0.2368  0.9695
 9812TIP3    H250928   3.815   5.238  16.620  0.0361 -0.5961  1.2180
 9813TIP3   OH250929   3.240   1.257   3.226 -0.7114 -0.0127  0.5037
 9813TIP3    H150930   3.283   1.176   3.200  1.3322  0.8685  0.9199
 9813TIP3    H250931   3.147   1.243   3.205 -0.4796 -2.5383  0.8711
 9814TIP3   OH250932   3.444   1.215   1.709 -0.0037  0.1442 -0.0888
 9814TIP3    H150933   3.499   1.264   1.648 -0.4179  1.2021  0.3633
 9814TIP3    H250934   3.405   1.282   1.765  0.2871 -0.7866  1.2807
 9815TIP3   OH250935   0.744   3.584   1.710  0.2204  0.9629 -0.0566
 9815TIP3    H150936   0.772   3.636   1.785  2.1182  0.2404 -0.2313
 9815TIP3    H250937   0.672   3.635   1.672  1.5515  3.1342  0.1700
 9816TIP3   OH250938   2.341   6.579  11.797  0.2017  0.4726 -0.1240
 9816TIP3    H150939   2.390   6.517  11.743 -1.1561 -0.1815 -0.6721
 9816TIP3    H250940   2.342   6.541  11.885 -0.8951 -0.5285 -0.5238
 9817TIP3   OH250941   5.322   5.361   4.495 -0.1241  0.0430  0.0144
 9817TIP3    H150942   5.383   5.412   4.442  0.7391  1.4553  2.2164
 9817TIP3    H250943   5.377   5.296   4.539 -0.4831  0.1036  0.5724
 9818TIP3   OH250944   3.498   0.998  13.061 -0.2119  0.0944 -0.3153
 9818TIP3    H150945   3.488   1.092  13.074  1.3025  0.0706  1.4094
 9818TIP3    H250946   3.579   0.989  13.011  1.0759 -0.3211  1.7193
 9819TIP3   OH250947   4.628   3.448  16.278  0.1826 -0.9208  0.1212
 9819TIP3    H150948   4.701   3.391  16.301  0.0147 -1.2707 -0.2113
 9819TIP3    H250949   4.561   3.389  16.243 -0.4812 -0.6779  0.9418
 9820TIP3   OH250950   6.233   1.315   2.163 -0.0907  0.1319  0.1747
 9820TIP3    H150951   6.295   1.349   2.226 -0.0412 -1.3461  0.9824
 9820TIP3    H250952   6.285   1.297   2.084 -0.1916  2.1681 -0.3935
 9821TIP3   OH250953   2.146   6.317   5.612 -0.2770 -0.6268 -0.3213
 9821TIP3    H150954   2.214   6.372   5.651 -0.3279 -0.2873 -0.7097
 9821TIP3    H250955   2.091   6.378   5.563 -0.3823 -1.0190 -0.6918
 9822TIP3   OH250956   6.304   6.209  16.541  0.1023  0.1384 -0.5065
 9822TIP3    H150957   6.330   6.248  16.458  2.7895  1.7315  0.9607
 9822TIP3    H250958   6.302   6.115  16.524  1.8113  0.3362 -2.0857
 9823TIP3   OH250959   2.569   2.782   3.199 -0.2022  1.0768 -0.1855
 9823TIP3    H150960   2.506   2.854   3.204  0.7564  1.9297 -0.0748
 9823TIP3    H250961   2.527   2.710   3.246 -0.7751  1.8734  0.5570
 9824TIP3   OH250962   3.994   5.653   0.572 -0.0210  0.4090  0.5127
 9824TIP3    H150963   4.009   5.604   0.491  0.2619  0.1274  0.7335
 9824TIP3    H250964   4.005   5.745   0.546  3.5013  0.2334  0.8882
 9825TIP3   OH250965   3.237   4.539   2.718  0.0006  0.8982 -0.0895
 9825TIP3    H150966   3.172   4.479   2.681 -1.6532  2.7517 -0.3199
 9825TIP3    H250967   3.292   4.482   2.773 -1.7851 -0.7736  0.1027
 9826TIP3   OH250968   2.234   3.678  11.152  0.3466 -0.1390 -0.1793
 9826TIP3    H150969   2.166   3.613  11.170  1.3965 -1.4233 -0.7052
 9826TIP3    H250970   2.199   3.729  11.079 -0.2877 -0.4246 -0.0856
 9827TIP3   OH250971   1.473   0.229   5.460 -0.3124 -0.3451  0.1168
 9827TIP3    H150972   1.552   0.179   5.437 -0.6433 -1.3511  1.0947
 9827TIP3    H250973   1.401   0.180   5.421 -0.6091 -0.4575  0.7878
 9828TIP3   OH250974   2.127   0.595  15.670 -0.0065  0.2743 -0.1745
 9828TIP3    H150975   2.133   0.506  15.703  0.1215  0.5579  0.5861
 9828TIP3    H250976   2.215   0.631  15.682  0.0696  0.3612 -0.9154
 9829TIP3   OH250977   0.107   1.478  11.617 -0.0093  0.3040  0.8311
 9829TIP3    H150978   0.157   1.527  11.552  1.8595 -2.1401  0.2882
 9829TIP3    H250979   0.027   1.453  11.572  1.3357 -1.5196 -0.7482
 9830TIP3   OH250980   0.729   6.029   3.289 -0.2787 -0.2587  0.3537
 9830TIP3    H150981   0.730   6.093   3.218  0.5311  0.3765  0.9123
 9830TIP3    H250982   0.821   6.019   3.313 -0.4258 -1.3972  0.4961
 9831TIP3   OH250983   2.524   3.905  14.390  0.4265  0.2540 -0.3673
 9831TIP3    H150984   2.555   3.996  14.389  0.5260  0.2299 -1.9268
 9831TIP3    H250985   2.473   3.898  14.470  0.6197  1.6188 -0.0978
 9832TIP3   OH250986   1.333   3.162   6.279 -0.0485  0.2495 -0.1806
 9832TIP3    H150987   1.378   3.245   6.296 -1.3289  1.3947 -2.0058
 9832TIP3    H250988   1.343   3.148   6.185 -0.0340 -1.5895  0.0709
 9833TIP3   OH250989   2.497   0.825  15.022 -0.6809 -0.1512  0.3565
 9833TIP3    H150990   2.537   0.912  15.026 -1.0186  0.0159  0.0668
 9833TIP3    H250991   2.554   0.770  15.077 -0.6729  0.3326  0.8404
 9834TIP3   OH250992   3.412   3.226  13.740 -0.1238  0.3630  0.2147
 9834TIP3    H150993   3.386   3.227  13.832 -2.0995 -0.1479 -0.2826
 9834TIP3    H250994   3.482   3.161  13.736  1.7373  2.1637  1.7197
 9835TIP3   OH250995   4.508   1.718   2.594 -0.6155 -0.3185  0.2345
 9835TIP3    H150996   4.512   1.628   2.560 -2.3696  0.4913 -2.3439
 9835TIP3    H250997   4.582   1.762   2.552 -1.9542  0.3285 -1.5299
 9836TIP3   OH250998   0.204   1.201   3.568 -0.1494  0.1789  0.1944
 9836TIP3    H150999   0.131   1.189   3.628  0.5808  0.3583  1.1284
 9836TIP3    H251000   0.168   1.255   3.497 -1.3833 -1.1732 -0.2563
 9837TIP3   OH251001   2.152   1.129  13.901 -0.8375  0.1655  0.3526
 9837TIP3    H151002   2.234   1.168  13.872 -0.8181 -0.8393 -1.0736
 9837TIP3    H251003   2.178   1.048  13.946 -0.9887  0.6132  1.2762
 9838TIP3   OH251004   4.850   1.722  14.388 -0.3247 -0.2947  0.0221
 9838TIP3    H151005   4.919   1.752  14.447 -0.3383 -1.1379  0.4823
 9838TIP3    H251006   4.854   1.782  14.313  0.6079 -0.0597  0.2515
 9839TIP3   OH251007   4.342   2.157  14.864  0.9708  0.6926 -0.2942
 9839TIP3    H151008   4.301   2.085  14.910  1.0726  2.3236  2.6145
 9839TIP3    H251009   4.367   2.121  14.779 -1.8603 -1.7236 -0.2466
 9840TIP3   OH251010   1.294   1.259   1.833 -0.4883 -0.0567  0.4523
 9840TIP3    H151011   1.218   1.262   1.776  0.6619  0.5848 -1.1212
 9840TIP3    H251012   1.366   1.229   1.777  0.9321  1.6849  1.2374
 9841TIP3   OH251013   4.309   2.486  15.000  0.4715  0.0179  0.1338
 9841TIP3    H151014   4.349   2.408  15.037  0.3886  0.8188  1.9933
 9841TIP3    H251015   4.223   2.458  14.970  1.3025 -1.0956 -1.3942
 9842TIP3   OH251016   3.921   2.614  15.974  0.4671 -0.6161 -0.3886
 9842TIP3    H151017   3.873   2.536  16.000  0.8744 -1.5280 -2.2211
 9842TIP3    H251018   4.004   2.609  16.022  0.0349 -0.6823  0.3677
 9843TIP3   OH251019   3.136   5.036  15.615 -0.8552  0.0227  0.3817
 9843TIP3    H151020   3.094   5.111  15.573  0.5675  1.1387  0.8391
 9843TIP3    H251021   3.196   5.075  15.679  0.1909 -1.4971  0.3854
 9844TIP3   OH251022   1.329   0.063  17.384 -0.2987 -0.1124  0.4151
 9844TIP3    H151023   1.246   0.107  17.367 -0.5468  0.0372  1.9545
 9844TIP3    H251024   1.312  -0.029  17.362 -0.5705  0.0794 -0.2002
 9845TIP3   OH251025   2.416   1.861   2.363  0.1542 -0.6064  0.3703
 9845TIP3    H151026   2.354   1.863   2.436  0.0787 -1.7608  0.3593
 9845TIP3    H251027   2.440   1.769   2.354  0.8711 -0.3567 -0.4748
 9846TIP3   OH251028   1.065   0.881  15.855 -0.6551 -0.0846 -0.4056
 9846TIP3    H151029   1.115   0.826  15.915  1.4187  0.8233 -1.2204
 9846TIP3    H251030   1.056   0.829  15.775 -0.4094  0.0186 -0.4997
 9847TIP3   OH251031   2.523   0.687  11.863 -0.3711  0.3706  0.1329
 9847TIP3    H151032   2.554   0.775  11.840 -1.3147 -0.0270 -3.2925
 9847TIP3    H251033   2.603   0.635  11.871  0.1383  1.1710  0.3658
 9848TIP3   OH251034   2.456   4.424  15.000  0.2598  0.1941 -0.3842
 9848TIP3    H151035   2.535   4.392  14.956  0.3347 -0.4042  0.1902
 9848TIP3    H251036   2.413   4.346  15.033 -0.1019  0.5981  0.1058
 9849TIP3   OH251037   5.899   3.787   5.698  0.3531  0.6743 -0.7530
 9849TIP3    H151038   5.897   3.813   5.790  1.3917  1.5353 -0.9587
 9849TIP3    H251039   5.895   3.691   5.700  1.6716  0.6092  0.2612
 9850TIP3   OH251040   5.279   2.434   4.880 -0.7298  0.0030  0.0537
 9850TIP3    H151041   5.246   2.387   4.956  0.1130 -0.4044  0.1832
 9850TIP3    H251042   5.350   2.379   4.847  1.6014  2.0119  1.3120
 9851TIP3   OH251043   3.706   3.349   2.517 -0.1963 -0.2849  0.1248
 9851TIP3    H151044   3.741   3.332   2.429 -0.9579  1.1059 -0.4708
 9851TIP3    H251045   3.743   3.433   2.542 -0.7872 -0.1923  0.7236
 9852TIP3   OH251046   2.498   4.487   4.715  0.4420  0.1850 -0.3859
 9852TIP3    H151047   2.447   4.542   4.656 -0.1192 -0.1058 -0.1772
 9852TIP3    H251048   2.577   4.466   4.666  1.4365  2.4768  0.1064
 9853TIP3   OH251049   3.675   1.051   5.826 -0.0758  0.8667  0.3032
 9853TIP3    H151050   3.650   0.991   5.896  1.6465  0.7174  0.8510
 9853TIP3    H251051   3.694   0.994   5.751 -0.0779  0.8580  0.3093
 9854TIP3   OH251052   5.429   0.977  17.047 -0.2076 -0.1767  0.0568
 9854TIP3    H151053   5.358   1.042  17.048  0.1651  0.2320  0.7630
 9854TIP3    H251054   5.497   1.015  17.101  0.1864 -0.9853  0.1470
 9855TIP3   OH251055   5.088   3.033  11.459 -0.0964 -0.6340 -0.6516
 9855TIP3    H151056   5.002   2.999  11.484  1.1323 -3.1333  0.6084
 9855TIP3    H251057   5.085   3.039  11.364 -1.4789 -1.2786 -0.6768
 9856TIP3   OH251058   6.620   1.086  17.188  0.3946 -0.4355  0.5515
 9856TIP3    H151059   6.715   1.075  17.191  0.3591 -0.6777  0.7886
 9856TIP3    H251060   6.597   1.123  17.273  0.2470 -0.6170  0.5913
 9857TIP3   OH251061   2.548   3.723   3.527 -0.1355  0.8013  0.6655
 9857TIP3    H151062   2.629   3.686   3.494 -0.7257  0.3081 -0.2422
 9857TIP3    H251063   2.518   3.660   3.593 -1.2709 -0.5423 -1.0502
 9858TIP3   OH251064   0.882   0.243   0.053 -0.0577 -0.2371  0.3444
 9858TIP3    H151065   0.901   0.320   0.107 -0.1781 -1.1653  1.7746
 9858TIP3    H251066   0.820   0.274  -0.012 -1.1922  0.5892  1.7542
 9859TIP3   OH251067   1.170   4.759   1.272 -0.4835  0.0309 -0.1970
 9859TIP3    H151068   1.074   4.762   1.278 -0.3838  0.2037  2.3915
 9859TIP3    H251069   1.192   4.823   1.204 -2.1395  1.6203  0.6630
 9860TIP3   OH251070   2.087   1.218  12.066 -0.0958 -0.0534 -0.0615
 9860TIP3    H151071   2.037   1.188  11.991 -1.7653  0.3863  0.8354
 9860TIP3    H251072   2.093   1.313  12.056  1.1953 -0.1582 -0.5109
 9861TIP3   OH251073   0.801   5.037  13.648  0.3085  0.5771  0.5150
 9861TIP3    H151074   0.873   5.001  13.700 -1.2304 -1.5835  1.3172
 9861TIP3    H251075   0.814   5.002  13.560  0.1548  0.0365  0.7041
 9862TIP3   OH251076   2.345   1.379   2.260 -0.0296 -0.5006 -0.2905
 9862TIP3    H151077   2.416   1.442   2.275  1.3057 -1.5101 -2.0238
 9862TIP3    H251078   2.341   1.328   2.341 -0.2022  0.8848  0.6076
 9863TIP3   OH251079   5.177   0.475   1.402  0.2300  0.0425 -0.2286
 9863TIP3    H151080   5.222   0.462   1.485 -1.4117  0.3507  0.7600
 9863TIP3    H251081   5.193   0.567   1.380  0.1628  0.1265  0.0713
 9864TIP3   OH251082   6.467   4.507   3.601  0.0893 -0.3712  0.0924
 9864TIP3    H151083   6.540   4.562   3.570  0.7803 -1.1262  0.3387
 9864TIP3    H251084   6.389   4.561   3.586  0.5391 -0.1078 -1.5518
 9865TIP3   OH251085   6.082   0.892   2.142  0.0817  0.2658  0.4264
 9865TIP3    H151086   6.049   0.825   2.202  0.6550  0.4445  0.9488
 9865TIP3    H251087   6.174   0.868   2.128 -0.1661 -0.0313 -0.7366
 9866TIP3   OH251088   0.161   5.459  16.867 -0.2179 -0.5189  0.5708
 9866TIP3    H151089   0.139   5.388  16.807 -1.7605  0.8453 -0.5858
 9866TIP3    H251090   0.252   5.480  16.847 -0.0971 -1.3998  0.1345
 9867TIP3   OH251091   2.861   3.151   0.740 -0.5383  0.1732  0.6769
 9867TIP3    H151092   2.774   3.117   0.720 -0.1774  0.2309 -1.2011
 9867TIP3    H251093   2.852   3.194   0.825 -2.1197 -0.5535  0.9017
 9868TIP3   OH251094   0.234   3.541   2.776 -0.2123 -0.6001  0.1561
 9868TIP3    H151095   0.326   3.570   2.781 -0.7525  1.6382 -1.3464
 9868TIP3    H251096   0.228   3.494   2.693 -0.8875  1.4388 -1.0269
 9869TIP3   OH251097   3.644   0.756   1.012  0.3277 -0.0586  0.1106
 9869TIP3    H151098   3.666   0.663   1.013 -1.8179 -0.6202  0.3064
 9869TIP3    H251099   3.581   0.765   0.941 -0.8621  0.8691  1.2339
 9870TIP3   OH251100   6.661   5.703   0.081  0.0151  0.4530  0.5313
 9870TIP3    H151101   6.646   5.610   0.064 -0.3867  0.7120 -0.6278
 9870TIP3    H251102   6.633   5.715   0.172 -1.0963 -0.3057  0.3087
 9871TIP3   OH251103   0.766   2.553  10.872 -0.4131 -0.6160  0.3467
 9871TIP3    H151104   0.826   2.622  10.898 -1.4492  1.1325 -1.5993
 9871TIP3    H251105   0.688   2.567  10.927 -2.7889  3.3644 -3.3632
 9872TIP3   OH251106   6.576   2.212  13.517 -0.1319 -0.3623 -0.2335
 9872TIP3    H151107   6.523   2.270  13.463 -1.1234 -0.4213  0.6482
 9872TIP3    H251108   6.534   2.126  13.508 -0.7487 -0.2352  1.1571
 9873TIP3   OH251109   4.279   3.941  11.005  0.0378 -0.3824 -0.9909
 9873TIP3    H151110   4.362   3.894  11.013  0.9065  0.8809 -2.1186
 9873TIP3    H251111   4.217   3.876  10.972  0.8887 -1.0448 -1.3266
 9874TIP3   OH251112   3.787   1.336  12.804 -0.0553  0.4356 -0.2800
 9874TIP3    H151113   3.752   1.415  12.846  2.1136  1.3096  0.0188
 9874TIP3    H251114   3.754   1.264  12.857 -2.9396  0.9932 -1.1539
 9875TIP3   OH251115   1.025   6.149   0.702  0.3819  0.1997  0.3409
 9875TIP3    H151116   0.947   6.100   0.675 -0.2348  0.9775  0.6407
 9875TIP3    H251117   0.996   6.241   0.701  1.0141  0.4199  1.4029
 9876TIP3   OH251118   4.339   0.366   2.167  0.1927 -0.6838 -0.1225
 9876TIP3    H151119   4.248   0.385   2.146 -0.1023 -0.2103  1.4413
 9876TIP3    H251120   4.335   0.318   2.250  1.4044  1.1579  1.0994
 9877TIP3   OH251121   4.240   3.280   6.426 -0.0232  0.0540 -0.0590
 9877TIP3    H151122   4.157   3.320   6.400  0.5049  0.0872 -1.7901
 9877TIP3    H251123   4.227   3.186   6.414  0.1229  0.0421 -0.1247
 9878TIP3   OH251124   0.460   5.894   3.501 -0.6273 -0.3323 -0.6792
 9878TIP3    H151125   0.537   5.951   3.508  0.9194 -2.1963 -1.6228
 9878TIP3    H251126   0.419   5.899   3.588  0.4957  0.7769 -0.1801
 9879TIP3   OH251127   3.036   5.873  14.283 -0.2197 -0.3041  0.9058
 9879TIP3    H151128   2.985   5.892  14.362 -0.7783  1.5391  0.1410
 9879TIP3    H251129   2.999   5.929  14.215 -0.1710 -2.3041 -0.8808
 9880TIP3   OH251130   0.818   0.807  16.364 -0.4353 -0.0443  0.0344
 9880TIP3    H151131   0.910   0.806  16.391 -0.1041  2.1310 -0.7576
 9880TIP3    H251132   0.798   0.717  16.340  1.5270 -0.5307  0.0800
 9881TIP3   OH251133   2.681   1.023  15.033 -0.4315 -0.5938  0.2090
 9881TIP3    H151134   2.773   0.999  15.025 -0.6552 -1.2459 -0.5486
 9881TIP3    H251135   2.679   1.088  15.103  0.7365  0.2424 -0.4982
 9882TIP3   OH251136   3.566   1.108   1.330 -0.0184 -0.3111  0.3727
 9882TIP3    H151137   3.571   1.170   1.403  2.2881  0.2665 -0.1831
 9882TIP3    H251138   3.633   1.042   1.349 -1.1739 -1.6289  0.0326
 9883TIP3   OH251139   4.638   6.176  11.804 -0.0752 -0.1096  0.2744
 9883TIP3    H151140   4.714   6.133  11.844 -1.3718 -1.7107  1.1918
 9883TIP3    H251141   4.644   6.155  11.711 -0.2140 -1.6485  0.5790
 9884TIP3   OH251142   1.935   1.138  14.222 -0.3560 -0.0885 -0.2436
 9884TIP3    H151143   1.915   1.159  14.313  1.0262 -1.1815  0.3591
 9884TIP3    H251144   1.898   1.210  14.172  2.0298  2.5308  1.4579
 9885TIP3   OH251145   6.247   6.273  13.255  0.1702 -0.2825  0.3255
 9885TIP3    H151146   6.325   6.235  13.296  1.8439  0.6368 -1.8166
 9885TIP3    H251147   6.220   6.208  13.191  0.8770  0.5595 -0.8517
 9886TIP3   OH251148   6.660   6.713  12.422  0.0472  0.0402  0.3028
 9886TIP3    H151149   6.735   6.676  12.470 -0.7700 -1.1992  0.6750
 9886TIP3    H251150   6.637   6.792  12.471  1.2311  0.5527  0.0613
 9887TIP3   OH251151   4.221   0.839   2.630  0.3470 -0.2700 -0.2434
 9887TIP3    H151152   4.315   0.821   2.638 -0.0243 -1.9306  1.1767
 9887TIP3    H251153   4.201   0.822   2.538  1.8108  2.3892 -1.1527
 9888TIP3   OH251154   5.086   4.268  12.831 -0.0983 -0.7139 -0.2966
 9888TIP3    H151155   5.041   4.186  12.812 -0.0438 -1.1674  1.4286
 9888TIP3    H251156   5.177   4.250  12.810 -0.0884 -1.0901  0.0593
 9889TIP3   OH251157   4.559   0.810  11.918  0.3211 -0.8984 -0.3129
 9889TIP3    H151158   4.555   0.722  11.880  1.3722 -0.8734 -0.4931
 9889TIP3    H251159   4.543   0.869  11.845  1.4735 -0.8825 -0.5667
 9890TIP3   OH251160   0.646   5.052  11.594 -0.1658  0.1573 -0.3305
 9890TIP3    H151161   0.632   4.971  11.642  2.0071 -1.2855 -1.9686
 9890TIP3    H251162   0.604   5.038  11.509  3.8862 -1.2120 -2.3545
 9891TIP3   OH251163   6.384   0.579  15.103 -0.0368  0.4247  0.7573
 9891TIP3    H151164   6.304   0.630  15.092  0.2702  0.7196 -0.1841
 9891TIP3    H251165   6.393   0.529  15.022  1.5941  1.6651  0.0968
 9892TIP3   OH251166   5.500   3.109   1.251 -0.5255 -0.0781  0.5372
 9892TIP3    H151167   5.535   3.068   1.330 -2.4525 -1.1948  0.8593
 9892TIP3    H251168   5.405   3.109   1.263 -0.7581  2.1533 -0.6295
 9893TIP3   OH251169   1.001   4.529   4.222 -0.0083  0.2308 -0.3000
 9893TIP3    H151170   0.916   4.549   4.259  0.1936  1.9470 -0.6900
 9893TIP3    H251171   1.037   4.462   4.280 -0.9938  0.5759  0.7543
 9894TIP3   OH251172   5.694   0.753  14.707 -0.9165  0.2507 -0.4623
 9894TIP3    H151173   5.643   0.685  14.663 -0.2041 -0.9781  0.5471
 9894TIP3    H251174   5.783   0.717  14.711 -0.5996  1.1036  0.3768
 9895TIP3   OH251175   3.343   2.258  15.922  0.7597  0.8480  0.5800
 9895TIP3    H151176   3.320   2.321  15.990 -0.3457  0.9121  0.1749
 9895TIP3    H251177   3.435   2.238  15.937  1.4554  3.3620  0.0493
 9896TIP3   OH251178   6.628   1.006   2.882 -0.2935  0.0463  0.2256
 9896TIP3    H151179   6.624   1.097   2.855 -0.9844 -0.0544 -0.0543
 9896TIP3    H251180   6.615   0.956   2.801  0.6908 -0.3173  0.2775
 9897TIP3   OH251181   0.922   5.518   1.966 -0.3541 -0.0700  0.1052
 9897TIP3    H151182   0.835   5.558   1.952 -1.8769 -2.7951  1.0312
 9897TIP3    H251183   0.955   5.561   2.045 -0.6441  1.2605 -0.4560
 9898TIP3   OH251184   1.168   6.184  16.024  0.1875 -0.1802 -0.0431
 9898TIP3    H151185   1.155   6.119  15.955  0.5455 -1.0315  0.6673
 9898TIP3    H251186   1.115   6.152  16.098  0.8463 -0.0088  0.5209
 9899TIP3   OH251187   5.943   4.027  13.229  0.3752  0.7488 -0.5445
 9899TIP3    H151188   5.907   4.079  13.156  1.5223  0.8326 -1.0698
 9899TIP3    H251189   5.964   3.943  13.189  0.8914  0.7534 -0.2857
 9900TIP3   OH251190   3.518   4.970  11.794  0.1264  0.4682  0.4129
 9900TIP3    H151191   3.476   4.890  11.828  0.4197  0.1355  0.0025
 9900TIP3    H251192   3.566   5.005  11.869 -0.2911  0.4532  0.6915
 9901TIP3   OH251193   5.291   4.864  15.460 -0.3006 -0.0833 -0.6225
 9901TIP3    H151194   5.376   4.879  15.500 -0.3976 -0.7915 -0.1316
 9901TIP3    H251195   5.232   4.924  15.505 -0.4708 -1.0926  0.5431
 9902TIP3   OH251196   2.721   1.510  15.351 -0.3192 -0.5707  0.2831
 9902TIP3    H151197   2.778   1.439  15.321 -0.8211 -0.5715 -0.7017
 9902TIP3    H251198   2.723   1.574  15.280  0.2789  0.5075  1.2401
 9903TIP3   OH251199   2.122   3.972   6.501 -0.6597  0.0718  0.1432
 9903TIP3    H151200   2.204   3.924   6.509 -1.5714 -1.3991  1.0873
 9903TIP3    H251201   2.110   4.014   6.586 -0.6371  0.7220 -0.1687
 9904TIP3   OH251202   5.933   6.301   6.365  0.6692  0.3751  0.6641
 9904TIP3    H151203   5.923   6.212   6.398  1.4625  0.2903  0.7025
 9904TIP3    H251204   5.980   6.347   6.435  1.2172  0.5322  0.1978
 9905TIP3   OH251205   2.358   5.477  14.169  1.2947 -0.0357 -0.1871
 9905TIP3    H151206   2.307   5.510  14.095  0.4831  0.4162  0.5520
 9905TIP3    H251207   2.351   5.546  14.235  1.5342 -0.6770  0.5232
 9906TIP3   OH251208   2.981   4.515   6.210 -0.0848 -0.2166  0.4093
 9906TIP3    H151209   2.998   4.433   6.165  0.8777  0.2170 -0.0573
 9906TIP3    H251210   2.887   4.514   6.228 -0.7485  0.0281 -2.5363
 9907TIP3   OH251211   6.486   4.018  11.849  0.0711 -0.4805  0.4824
 9907TIP3    H151212   6.525   3.987  11.931 -1.9268 -0.4781  1.5035
 9907TIP3    H251213   6.467   4.110  11.865  1.0111 -0.0818 -0.5624
 9908TIP3   OH251214   2.274   1.976  11.400 -0.5546 -0.1648 -0.2463
 9908TIP3    H151215   2.367   1.982  11.423 -0.5852  1.0473 -0.4081
 9908TIP3    H251216   2.229   1.975  11.484 -0.3559 -2.3321 -0.0951
 9909TIP3   OH251217   2.380   4.655  14.892  0.6923 -0.5179  0.2803
 9909TIP3    H151218   2.415   4.567  14.904  0.1603 -0.7203  0.3758
 9909TIP3    H251219   2.302   4.658  14.947 -0.7238 -0.8357 -1.5769
 9910TIP3   OH251220   0.205   0.952   5.943  0.2039  0.4309  0.3649
 9910TIP3    H151221   0.236   0.933   5.854 -1.2065  0.9275 -0.2538
 9910TIP3    H251222   0.120   0.994   5.930  0.2401  1.0399  1.9354
 9911TIP3   OH251223   3.296   1.972  13.101 -0.6203  0.1474 -0.3573
 9911TIP3    H151224   3.390   1.985  13.088 -0.3863 -0.5810  0.4548
 9911TIP3    H251225   3.260   2.060  13.112  0.1812  0.3693  0.6408
 9912TIP3   OH251226   4.735   2.210  10.746  0.0270  0.3232  0.1580
 9912TIP3    H151227   4.745   2.302  10.723  2.1291  0.2703  0.6536
 9912TIP3    H251228   4.719   2.166  10.662  2.2580  0.7809 -0.5861
 9913TIP3   OH251229   3.318   6.352  12.441 -0.4141 -0.4859  0.2600
 9913TIP3    H151230   3.401   6.329  12.399 -0.3632 -0.0154  0.0961
 9913TIP3    H251231   3.301   6.442  12.412 -0.4934 -0.2340  1.0581
 9914TIP3   OH251232   1.836   3.637   5.504 -0.1883  0.2020  0.0638
 9914TIP3    H151233   1.803   3.596   5.424  0.8827 -0.1139 -0.2252
 9914TIP3    H251234   1.928   3.654   5.487 -0.1953  1.1271  0.8434
 9915TIP3   OH251235   1.474   6.327   4.764 -0.7641  0.5585  0.1488
 9915TIP3    H151236   1.415   6.251   4.760  1.3885 -1.1529 -1.4763
 9915TIP3    H251237   1.533   6.307   4.837  0.7231 -0.0920 -1.1965
 9916TIP3   OH251238   0.411   5.647   2.387 -0.3782  0.1586 -0.2911
 9916TIP3    H151239   0.480   5.582   2.377  0.0581  0.5594  0.0850
 9916TIP3    H251240   0.455   5.731   2.384 -1.0410  0.4887 -1.5879
 9917TIP3   OH251241   5.806   3.491  10.670  0.4992 -0.5851  0.8089
 9917TIP3    H151242   5.852   3.435  10.608  0.7520 -0.1302  0.5735
 9917TIP3    H251243   5.792   3.436  10.747  1.6967 -0.6598  0.9914
 9918TIP3   OH251244   1.145   2.060   3.564  0.2470 -0.0821  0.2894
 9918TIP3    H151245   1.064   2.030   3.606 -0.5783  0.4975 -0.8430
 9918TIP3    H251246   1.133   2.154   3.554  0.4456 -0.1917 -1.1668
 9919TIP3   OH251247   4.131   0.985  17.370 -0.0988 -0.0965  0.5797
 9919TIP3    H151248   4.156   0.954  17.283  0.9218  0.1044  0.7847
 9919TIP3    H251249   4.102   0.907  17.416  0.1124 -0.3353  0.3103
 9920TIP3   OH251250   3.328   6.307   0.643 -0.1827 -0.4676  0.3721
 9920TIP3    H151251   3.234   6.297   0.636 -0.2382 -0.2483  0.7565
 9920TIP3    H251252   3.344   6.398   0.614  0.0294 -0.8203 -0.6746
 9921TIP3   OH251253   0.277   3.090   0.264 -1.2463  0.0940  0.4995
 9921TIP3    H151254   0.294   3.178   0.298  0.3540 -0.0735  0.1921
 9921TIP3    H251255   0.248   3.104   0.174 -0.0567  0.2968  0.1233
 9922TIP3   OH251256   1.146   4.964   6.469  0.0858  0.0030  0.1249
 9922TIP3    H151257   1.103   4.966   6.554  0.4538  0.4826  0.3075
 9922TIP3    H251258   1.231   4.922   6.485 -0.0243 -0.3044 -0.0914
 9923TIP3   OH251259   2.176   4.572  13.120  0.0667  0.8476 -0.3270
 9923TIP3    H151260   2.107   4.573  13.186  0.6303  0.7702  0.2870
 9923TIP3    H251261   2.169   4.657  13.076 -0.1634  1.0039  0.0090
 9924TIP3   OH251262   6.594   3.715   0.483  0.3002  0.6110 -0.3908
 9924TIP3    H151263   6.616   3.683   0.570 -1.2700 -0.6215 -0.3919
 9924TIP3    H251264   6.660   3.678   0.425  0.3329 -0.0392  0.0532
 9925TIP3   OH251265   4.267   0.537  13.568 -0.1116 -0.6511  0.1743
 9925TIP3    H151266   4.356   0.528  13.602  0.2438 -0.5859 -0.6980
 9925TIP3    H251267   4.240   0.625  13.594  0.9040  0.1671 -1.3386
 9926TIP3   OH251268   6.005   3.842  14.121  0.0802  0.1220  0.2128
 9926TIP3    H151269   6.010   3.748  14.102 -0.7223 -0.1125  1.0604
 9926TIP3    H251270   6.073   3.856  14.187 -1.3158 -0.3502  1.8009
 9927TIP3   OH251271   5.956   3.047   2.849 -0.7250 -0.1025  0.4003
 9927TIP3    H151272   5.969   3.140   2.827  0.3750 -0.0234  1.2469
 9927TIP3    H251273   5.950   3.046   2.945  0.1454 -0.9824  0.4613
 9928TIP3   OH251274   3.233   5.040   3.127  0.7391 -0.1614 -0.0356
 9928TIP3    H151275   3.261   5.073   3.042  0.6864 -0.6950 -0.2643
 9928TIP3    H251276   3.155   4.989   3.109  1.3523 -1.2088  0.1646
 9929TIP3   OH251277   3.741   6.649  16.265 -0.1475  0.0846  0.4370
 9929TIP3    H151278   3.706   6.693  16.343 -0.9381  0.8730 -0.3411
 9929TIP3    H251279   3.686   6.570  16.256  0.5267 -0.4875  1.1728
 9930TIP3   OH251280   3.530   4.214   1.177  0.3707 -0.1874  0.2030
 9930TIP3    H151281   3.616   4.179   1.199  0.3671  0.6614  1.6606
 9930TIP3    H251282   3.484   4.140   1.136  1.2363 -1.1296  0.8676
 9931TIP3   OH251283   4.653   6.137   2.211  0.4653  0.4240  0.0686
 9931TIP3    H151284   4.641   6.140   2.116  2.3665  1.8658 -0.1913
 9931TIP3    H251285   4.719   6.069   2.225  2.2827  2.0864  0.0146
 9932TIP3   OH251286   6.390   3.971   1.454  0.5063 -0.5584  0.1670
 9932TIP3    H151287   6.301   4.002   1.437  1.1213  1.8381  1.0043
 9932TIP3    H251288   6.398   3.892   1.399 -2.1521 -0.9636  0.1943
 9933TIP3   OH251289   4.826   0.721  16.448  0.1110 -0.0830  0.0306
 9933TIP3    H151290   4.800   0.664  16.519 -3.1407 -0.8812 -1.6021
 9933TIP3    H251291   4.777   0.689  16.372  1.1725  2.4771 -1.8906
 9934TIP3   OH251292   0.451   2.304  13.533 -0.3975 -1.1762 -0.4501
 9934TIP3    H151293   0.487   2.391  13.514  0.1865 -1.5379 -1.0438
 9934TIP3    H251294   0.514   2.264  13.592 -1.3209 -0.7244  0.8901
 9935TIP3   OH251295   5.736   1.700  13.540  0.4286 -0.1236 -0.2429
 9935TIP3    H151296   5.689   1.749  13.473  1.2065  0.4455 -0.3846
 9935TIP3    H251297   5.767   1.621  13.495  2.2952  0.9784 -1.0232
 9936TIP3   OH251298   2.792   4.760  15.076 -0.4506 -0.4705  0.4362
 9936TIP3    H151299   2.860   4.789  15.137 -0.8119  1.5286 -0.0672
 9936TIP3    H251300   2.817   4.796  14.992 -2.1095  0.3184  0.2361
 9937TIP3   OH251301   6.471   4.866  12.169  0.2041  0.1678  0.8183
 9937TIP3    H151302   6.438   4.904  12.251 -0.0545  0.3090  0.6490
 9937TIP3    H251303   6.451   4.931  12.103  1.1432  0.4123  0.7652
 9938TIP3   OH251304   6.188   3.439   5.930  0.0301  0.2017  0.1562
 9938TIP3    H151305   6.147   3.353   5.941 -1.0390  0.8113  1.2842
 9938TIP3    H251306   6.176   3.460   5.838  0.7205 -1.0416 -0.2412
 9939TIP3   OH251307   3.312   1.913  10.996  0.2910  0.2446 -0.5198
 9939TIP3    H151308   3.290   1.930  10.905  1.0986  0.0122 -0.7672
 9939TIP3    H251309   3.307   1.818  11.005  0.9031  0.2090 -0.5109
 9940TIP3   OH251310   0.019   4.629  13.976 -0.6682 -0.2731 -0.2083
 9940TIP3    H151311  -0.018   4.604  14.060  1.1653 -2.0051  0.1585
 9940TIP3    H251312   0.039   4.722  13.985 -1.2718 -0.2399  0.9541
 9941TIP3   OH251313   2.464   5.626   4.341  0.3273  0.2247  0.4159
 9941TIP3    H151314   2.524   5.589   4.406  0.5615  1.8026  1.1237
 9941TIP3    H251315   2.389   5.656   4.392 -0.2681 -0.0670 -0.2617
 9942TIP3   OH251316   2.645   1.503  17.507  0.3603  0.2893 -0.2385
 9942TIP3    H151317   2.604   1.580  17.546  1.3465  1.8005 -2.0636
 9942TIP3    H251318   2.737   1.508  17.535  0.3664 -0.3960 -0.1249
 9943TIP3   OH251319   0.329   6.031  15.667  0.5681  0.5707 -0.2322
 9943TIP3    H151320   0.269   6.100  15.640  1.9051  1.3724 -1.3548
 9943TIP3    H251321   0.357   5.990  15.585  0.3387 -0.8619  0.3666
 9944TIP3   OH251322   2.159   4.773  11.109 -0.3776 -0.4538  0.0320
 9944TIP3    H151323   2.135   4.697  11.056 -2.7540  0.9083 -0.9944
 9944TIP3    H251324   2.077   4.820  11.123  1.1250  2.5556 -0.3969
 9945TIP3   OH251325   1.043   3.088   3.606  0.0145  0.3339 -0.3863
 9945TIP3    H151326   0.994   3.006   3.611  1.5604 -0.5830  0.5195
 9945TIP3    H251327   1.055   3.103   3.512  1.1056 -1.3760 -0.5643
 9946TIP3   OH251328   5.190   2.784  12.066  0.0343 -0.0925  0.1478
 9946TIP3    H151329   5.097   2.796  12.082  0.3055  1.4277  0.7063
 9946TIP3    H251330   5.205   2.690  12.080 -1.4401 -0.3936 -0.2137
 9947TIP3   OH251331   0.520   5.924   3.845 -0.6734 -0.2494  1.0033
 9947TIP3    H151332   0.435   5.893   3.876 -0.5011 -0.1325  1.5987
 9947TIP3    H251333   0.499   5.997   3.787 -1.0808 -1.3858 -0.3468
 9948TIP3   OH251334   3.397   5.656  13.751  0.0886 -0.0194  0.0531
 9948TIP3    H151335   3.354   5.593  13.809 -0.6134  0.8668  0.5244
 9948TIP3    H251336   3.327   5.713  13.720  0.5857  0.0533 -1.0110
 9949TIP3   OH251337   1.159   5.682  17.516 -0.0656  0.5820  0.0147
 9949TIP3    H151338   1.075   5.637  17.527  0.5216 -0.2087  1.4649
 9949TIP3    H251339   1.195   5.646  17.435  0.7067 -2.1557  1.4810
 9950TIP3   OH251340   1.520   3.513   3.552  0.0893 -0.0411 -1.2241
 9950TIP3    H151341   1.484   3.601   3.541 -0.1690  0.0478  0.1016
 9950TIP3    H251342   1.603   3.527   3.598 -1.0641 -0.5792  1.1854
 9951TIP3   OH251343   1.241   1.553   5.364  0.1284  0.1765 -0.4247
 9951TIP3    H151344   1.176   1.559   5.434  0.4547  1.8289 -0.2253
 9951TIP3    H251345   1.313   1.609   5.393  0.7513  0.0025 -1.5776
 9952TIP3   OH251346   2.728   2.853  11.621 -0.2362 -0.0185 -0.1483
 9952TIP3    H151347   2.702   2.945  11.633  0.6743  0.1747  0.4770
 9952TIP3    H251348   2.797   2.856  11.555  0.0249 -0.2086  0.1131
 9953TIP3   OH251349   6.757   0.457   3.204  0.8966 -0.0582 -0.7896
 9953TIP3    H151350   6.678   0.504   3.177  1.3705  1.2534  0.0127
 9953TIP3    H251351   6.762   0.383   3.144  0.1878  0.9836 -2.2073
 9954TIP3   OH251352   3.655   2.375  16.131  0.1981 -0.2266  0.1979
 9954TIP3    H151353   3.650   2.431  16.053  0.3680 -0.8083 -0.2391
 9954TIP3    H251354   3.675   2.288  16.097 -1.1512 -0.7905  0.7810
 9955TIP3   OH251355   5.195   3.181   1.739 -0.2940  0.9549 -0.0483
 9955TIP3    H151356   5.262   3.196   1.806 -1.8174  1.1323  1.4966
 9955TIP3    H251357   5.186   3.086   1.734 -0.0318  0.9351 -0.1722
 9956TIP3   OH251358   3.878   1.781  16.555 -0.2698 -0.1103  0.7464
 9956TIP3    H151359   3.959   1.821  16.587 -1.0298  0.2907  2.2970
 9956TIP3    H251360   3.872   1.808  16.463  0.1357  1.9266  1.2654
 9957TIP3   OH251361   5.137   0.660   2.980  0.9734  0.9386 -0.3671
 9957TIP3    H151362   5.224   0.691   3.005 -0.0667  3.8196  0.0682
 9957TIP3    H251363   5.114   0.713   2.903 -0.3962  0.2426 -0.4656
 9958TIP3   OH251364   2.523   2.999  17.323 -1.0940 -0.2632 -0.3475
 9958TIP3    H151365   2.472   3.076  17.298 -0.9330 -0.1800 -0.4224
 9958TIP3    H251366   2.495   2.979  17.412 -2.0566 -0.8746 -0.7730
 9959TIP3   OH251367   2.387   6.023  11.930 -0.5153 -0.7291  0.0453
 9959TIP3    H151368   2.435   5.944  11.955 -0.3960 -0.2922  1.2458
 9959TIP3    H251369   2.454   6.084  11.902 -0.6391 -1.1744 -1.3195
 9960TIP3   OH251370   6.061   0.153   5.368 -0.3662  0.1901 -0.5490
 9960TIP3    H151371   6.047   0.247   5.357  0.2432  0.1864 -1.5130
 9960TIP3    H251372   5.979   0.113   5.341 -0.6279  0.4456 -0.1348
 9961TIP3   OH251373   3.947   3.818   4.082 -0.0138 -0.1145  0.6079
 9961TIP3    H151374   3.986   3.836   4.167  0.0150  0.9231  0.3843
 9961TIP3    H251375   4.021   3.801   4.024 -0.0231 -0.5722  0.7214
 9962TIP3   OH251376   1.801   4.295   3.046 -0.0234 -0.4267 -0.2557
 9962TIP3    H151377   1.820   4.218   2.993  0.8630 -0.3727 -0.0479
 9962TIP3    H251378   1.792   4.366   2.983  0.3310 -0.4897 -0.3808
 9963TIP3   OH251379   5.399   0.294  13.907 -0.3604  0.1216  0.2027
 9963TIP3    H151380   5.400   0.262  13.817 -0.2291  0.3362  0.1259
 9963TIP3    H251381   5.392   0.389  13.897  1.7743  0.3360  0.3733
 9964TIP3   OH251382   3.283   3.006  15.690  0.5897 -0.2824  0.7207
 9964TIP3    H151383   3.230   3.058  15.750 -0.9853 -2.6345  1.5115
 9964TIP3    H251384   3.341   2.955  15.747  1.1468 -0.4139  0.0588
 9965TIP3   OH251385   3.564   0.688  14.791  0.7142 -0.1846 -0.1281
 9965TIP3    H151386   3.634   0.624  14.804  0.8380 -0.0244  0.0221
 9965TIP3    H251387   3.534   0.675  14.701 -0.6732 -1.8463  0.5116
 9966TIP3   OH251388   5.391   6.575   6.362  0.1594  0.9764 -0.0233
 9966TIP3    H151389   5.432   6.649   6.316 -0.3788  1.7939  0.7704
 9966TIP3    H251390   5.310   6.612   6.398 -1.7925 -0.8008 -2.2969
 9967TIP3   OH251391   4.999   5.522  10.622 -0.1839 -0.2215  0.1724
 9967TIP3    H151392   4.938   5.541  10.551  0.1668  0.0917 -0.0523
 9967TIP3    H251393   4.971   5.438  10.656  0.1567 -0.7909 -0.9048
 9968TIP3   OH251394   5.818   3.219   1.804  0.0220 -0.5587  0.0877
 9968TIP3    H151395   5.898   3.226   1.752  0.3965 -2.0133  0.4235
 9968TIP3    H251396   5.779   3.306   1.800  0.8254 -0.2386 -1.3561
 9969TIP3   OH251397   1.968   2.523   0.392  0.6704  0.1783 -0.5112
 9969TIP3    H151398   1.922   2.477   0.322 -0.6913 -0.0217  0.4689
 9969TIP3    H251399   2.020   2.456   0.435  0.2233 -0.0551 -0.3201
 9970TIP3   OH251400   0.935   2.766   5.949  0.1005 -0.1164  0.3795
 9970TIP3    H151401   0.855   2.716   5.966  0.0295  0.6975  2.8371
 9970TIP3    H251402   1.004   2.700   5.940 -0.7211 -0.8055 -1.3384
 9971TIP3   OH251403   4.540   2.443  14.025 -0.2835 -0.3770  0.0047
 9971TIP3    H151404   4.588   2.507  13.973 -0.8262  0.6192  0.6843
 9971TIP3    H251405   4.469   2.494  14.065 -1.4453 -1.6420 -0.3756
 9972TIP3   OH251406   0.380   1.641  13.591 -0.5664  0.0985 -0.3743
 9972TIP3    H151407   0.421   1.586  13.524  0.2680  0.1091  0.1124
 9972TIP3    H251408   0.286   1.625  13.582 -0.3329 -1.6828 -0.0253
 9973TIP3   OH251409   6.075   5.161   2.458 -0.3361  0.6360 -0.5953
 9973TIP3    H151410   6.032   5.170   2.374 -0.0581  1.2356 -0.6778
 9973TIP3    H251411   6.136   5.088   2.446 -2.1062 -1.0048 -0.1315
 9974TIP3   OH251412   1.961   3.405   0.981 -0.3398  0.2013 -0.2470
 9974TIP3    H151413   1.868   3.385   0.970  0.1817 -1.4671 -2.5646
 9974TIP3    H251414   1.968   3.443   1.068 -2.8717 -1.7657  0.9398
 9975TIP3   OH251415   0.483   3.837   0.448 -0.2006 -0.0699 -0.1453
 9975TIP3    H151416   0.551   3.904   0.442  1.0096 -1.2092  0.3449
 9975TIP3    H251417   0.510   3.769   0.387 -1.7472  0.1404 -1.1013
 9976TIP3   OH251418   4.301   1.199  13.256  0.2353 -0.4452  0.6156
 9976TIP3    H151419   4.249   1.254  13.316 -0.3058 -0.5310  0.2305
 9976TIP3    H251420   4.392   1.220  13.278  0.0403  0.7733  0.3334
 9977TIP3   OH251421   1.856   6.520  11.483 -0.1436  0.1475  0.7008
 9977TIP3    H151422   1.814   6.528  11.569 -0.6503  0.9131  0.3925
 9977TIP3    H251423   1.882   6.610  11.461 -2.2424  0.4142 -1.0342
 9978TIP3   OH251424   6.699   6.677  12.884 -0.0655  0.0095  0.0510
 9978TIP3    H151425   6.769   6.652  12.944 -0.8921 -2.0860  0.2047
 9978TIP3    H251426   6.735   6.661  12.796 -0.1737 -0.5472  0.1096
 9979TIP3   OH251427   0.723   4.667  10.917 -0.6218  0.2420 -0.2643
 9979TIP3    H151428   0.752   4.741  10.864 -0.9121  0.1469 -0.5515
 9979TIP3    H251429   0.781   4.595  10.892 -0.0582  0.4829  0.3241
 9980TIP3   OH251430   3.335   1.293  14.846 -0.3072 -0.7500 -0.2453
 9980TIP3    H151431   3.334   1.269  14.753 -1.2383 -0.3552 -0.3415
 9980TIP3    H251432   3.255   1.344  14.859 -0.5490 -1.3912  0.9340
 9981TIP3   OH251433   5.340   0.502  17.488  0.3933 -0.1681  1.2527
 9981TIP3    H151434   5.331   0.581  17.435  0.7328  0.7675  2.5274
 9981TIP3    H251435   5.277   0.441  17.451 -0.2440  0.8753  0.5500
 9982TIP3   OH251436   1.999   4.151   0.247  0.2422  0.2743 -0.3361
 9982TIP3    H151437   1.932   4.097   0.290 -1.4493  1.7545 -0.9522
 9982TIP3    H251438   2.062   4.171   0.316 -0.6877 -0.0426  0.6335
 9983TIP3   OH251439   1.266   4.058   5.429  0.5671  0.2890  0.4955
 9983TIP3    H151440   1.181   4.086   5.396  1.4660  1.0513 -1.2548
 9983TIP3    H251441   1.265   3.962   5.419 -0.1540  0.2676  0.7094
 9984TIP3   OH251442   5.935   6.316  14.400 -0.1735 -0.1245 -0.2978
 9984TIP3    H151443   5.847   6.287  14.425 -1.3575  1.4044 -2.3527
 9984TIP3    H251444   5.989   6.300  14.478 -2.1717 -1.3946  0.9222
 9985TIP3   OH251445   1.150   5.361  11.209  0.2673  0.0186 -0.1305
 9985TIP3    H151446   1.208   5.365  11.132  0.1160  1.6036 -0.1984
 9985TIP3    H251447   1.062   5.354  11.172  0.3227 -1.6187 -0.0346
 9986TIP3   OH251448   0.552   5.489  17.510  0.2855  0.5857  0.4312
 9986TIP3    H151449   0.485   5.456  17.569  1.2980 -1.4617  0.5124
 9986TIP3    H251450   0.613   5.416  17.498  1.7791  1.9255 -0.7107
 9987TIP3   OH251451   3.989   3.432  15.684 -0.1662 -0.2720 -0.0588
 9987TIP3    H151452   3.990   3.508  15.741  0.0441 -0.4648  0.1929
 9987TIP3    H251453   4.053   3.372  15.721  1.4946  0.4202 -1.6356
 9988TIP3   OH251454   4.935   1.743   2.581  0.1764  0.0417  0.1738
 9988TIP3    H151455   4.863   1.786   2.534  1.2744  0.8945 -0.7961
 9988TIP3    H251456   4.989   1.815   2.614  0.9098 -0.5719  0.3482
 9989TIP3   OH251457   2.137   6.228  12.600 -0.1470 -0.9667  0.2923
 9989TIP3    H151458   2.164   6.313  12.636 -0.1324 -0.6286 -0.4786
 9989TIP3    H251459   2.218   6.189  12.568  0.1836 -2.2439  2.5472
 9990TIP3   OH251460   6.160   1.937  15.608 -0.4360 -0.0499 -0.0627
 9990TIP3    H151461   6.253   1.915  15.615 -0.6808 -1.6040 -1.1109
 9990TIP3    H251462   6.130   1.942  15.699  0.6224  0.2617  0.2826
 9991TIP3   OH251463   0.329   5.711  14.972  0.6086  0.1113  0.0575
 9991TIP3    H151464   0.330   5.710  14.876 -1.7528  0.1599 -0.0308
 9991TIP3    H251465   0.350   5.802  14.995 -0.2836  0.4732 -0.4951
 9992TIP3   OH251466   0.270   5.822  13.710  0.2465 -0.0749  0.3857
 9992TIP3    H151467   0.324   5.893  13.676  1.2772 -0.8450  0.3876
 9992TIP3    H251468   0.186   5.864  13.731  0.2395  0.7987 -1.2394
 9993TIP3   OH251469   6.465   6.226   3.444  0.4363  0.6903  0.1821
 9993TIP3    H151470   6.477   6.166   3.371 -0.8109  0.4194  0.1692
 9993TIP3    H251471   6.381   6.199   3.483  0.3374  1.7960  0.7775
 9994TIP3   OH251472   6.466   0.580  12.584 -0.6986  0.8733 -0.6458
 9994TIP3    H151473   6.470   0.496  12.537 -0.4199  0.1297  0.6692
 9994TIP3    H251474   6.506   0.643  12.523  0.3017 -0.1925 -1.1274
 9995TIP3   OH251475   5.074   1.689  13.239 -0.2766 -0.3150 -0.0032
 9995TIP3    H151476   5.062   1.619  13.175  0.9776  0.5454 -1.2342
 9995TIP3    H251477   5.037   1.767  13.197 -2.9056 -0.3947  1.8845
 9996TIP3   OH251478   1.497   4.966   5.152 -0.2348 -0.8219 -0.1344
 9996TIP3    H151479   1.541   5.042   5.191 -2.5144  0.6072 -0.1971
 9996TIP3    H251480   1.540   4.890   5.191  1.6856  0.4843  0.4167
 9997TIP3   OH251481   3.112   3.280  14.103 -0.0292 -0.0603 -0.5883
 9997TIP3    H151482   3.172   3.233  14.045 -0.7066 -1.1042 -0.4635
 9997TIP3    H251483   3.163   3.355  14.134  1.2884 -1.0276 -0.3303
 9998TIP3   OH251484   2.671   1.054   6.928  0.5343 -0.0718 -0.3401
 9998TIP3    H151485   2.685   1.144   6.960  0.0907 -0.6089  1.4850
 9998TIP3    H251486   2.755   1.011   6.941  0.8378  0.1203 -1.5012
 9999TIP3   OH251487   5.000   4.004  16.837  0.1687 -0.2673  0.1574
 9999TIP3    H151488   4.971   3.972  16.752  1.4988 -1.6796  0.1914
 9999TIP3    H251489   4.943   4.079  16.855 -1.8293 -1.4520 -0.8165
10000TIP3   OH251490   4.080   4.273   0.791 -0.1957 -0.1683 -0.2660
10000TIP3    H151491   4.129   4.340   0.838 -1.2948 -0.2999  1.1365
10000TIP3    H251492   4.146   4.227   0.739  1.4640 -1.2099  2.5537
10001TIP3   OH251493   3.858   5.227   2.590  0.4722 -0.3640  0.2798
10001TIP3    H151494   3.945   5.200   2.619 -0.0131 -0.2854  1.8520
10001TIP3    H251495   3.845   5.313   2.630 -0.0231 -0.0169 -0.5999
10002TIP3   OH251496   0.323   1.448   4.873  0.2227  0.0095 -0.1340
10002TIP3    H151497   0.253   1.506   4.902  0.0418 -0.4087  0.2856
10002TIP3    H251498   0.299   1.362   4.908  0.7732 -0.2061 -0.2702
10003TIP3   OH251499   2.031   1.637   1.964  0.2185  0.0461 -0.4790
10003TIP3    H151500   2.081   1.596   2.035  0.7904  1.9467  0.3012
10003TIP3    H251501   1.976   1.702   2.009 -0.2310  0.5241 -1.6794
10004TIP3   OH251502   2.975   5.350  16.032  0.2017  0.1088  0.3032
10004TIP3    H151503   2.899   5.369  16.087 -0.4878  0.0665 -0.6272
10004TIP3    H251504   2.953   5.268  15.988  0.1839  0.8099 -1.0228
10005TIP3   OH251505   2.761   0.307  16.037 -0.0881 -0.3076 -0.2550
10005TIP3    H151506   2.828   0.364  16.000 -0.2637  0.5331  0.6811
10005TIP3    H251507   2.679   0.350  16.016 -0.2757 -0.6896 -0.3157
10006TIP3   OH251508   5.086   3.557  14.916 -0.1436  0.4904  0.0887
10006TIP3    H151509   5.169   3.578  14.958  1.2847  0.2648 -2.4044
10006TIP3    H251510   5.057   3.477  14.958  0.7018  0.7813  1.2725
10007TIP3   OH251511   1.311   5.311   5.651  0.1458 -0.1975 -0.6239
10007TIP3    H151512   1.355   5.277   5.729  0.5498  0.1119 -0.7118
10007TIP3    H251513   1.344   5.257   5.579  0.4424  0.0796 -0.6995
10008TIP3   OH251514   3.764   1.488   1.630 -0.3435  0.2625 -0.1516
10008TIP3    H151515   3.762   1.572   1.675  0.6495 -0.8400  2.1064
10008TIP3    H251516   3.852   1.454   1.646 -1.4284 -2.2504  1.1727
10009TIP3   OH251517   3.102   1.351   1.493 -0.0170  0.2703 -0.0119
10009TIP3    H151518   3.120   1.367   1.585 -0.9487  1.3523 -0.0001
10009TIP3    H251519   3.142   1.266   1.475  0.2573  0.0937  1.3515
10010TIP3   OH251520   3.237   0.491   0.353 -0.4046 -0.2986  1.2699
10010TIP3    H151521   3.292   0.460   0.282 -1.0904  1.3818 -0.0557
10010TIP3    H251522   3.298   0.529   0.416  0.0459  1.0069  0.0945
10011TIP3   OH251523   4.020   3.514   5.006  0.0329  0.4002  0.2523
10011TIP3    H151524   4.073   3.522   5.086  0.7837  2.0072 -0.3649
10011TIP3    H251525   4.083   3.519   4.934 -0.5256 -1.9672 -0.4952
10012TIP3   OH251526   6.015   3.280  16.306 -0.1303  0.3382  0.7073
10012TIP3    H151527   5.987   3.211  16.366  0.3073 -0.3825  0.0978
10012TIP3    H251528   6.090   3.322  16.350 -0.9035  0.9941  1.4518
10013TIP3   OH251529   3.685   0.190   5.919  0.1051 -0.0333 -0.0014
10013TIP3    H151530   3.752   0.140   5.874 -1.8931 -2.0158 -0.9924
10013TIP3    H251531   3.602   0.155   5.886 -1.4486  1.6885  1.7633
10014TIP3   OH251532   2.000   3.300   2.759  0.2295 -0.3636  0.8680
10014TIP3    H151533   1.964   3.388   2.763 -0.0097 -0.3953 -0.3060
10014TIP3    H251534   2.050   3.291   2.841  0.4496  0.9375  0.9021
10015TIP3   OH251535   0.148   4.273  14.885 -0.0420 -0.0115  0.3786
10015TIP3    H151536   0.055   4.279  14.907  0.3468  2.4140  1.7971
10015TIP3    H251537   0.155   4.198  14.826 -2.9560  0.0449 -0.1586
10016TIP3   OH251538   0.965   2.936   0.161 -0.1290 -0.6982  0.0293
10016TIP3    H151539   0.996   2.863   0.215 -0.5670 -0.7293  0.2372
10016TIP3    H251540   1.044   2.968   0.117 -0.0140 -1.6153 -0.4570
10017TIP3   OH251541   2.087   0.305  11.455  0.4961 -0.0182  0.2317
10017TIP3    H151542   2.160   0.363  11.434  0.6524 -0.4898 -0.5730
10017TIP3    H251543   2.014   0.337  11.402  0.2958  0.0621  0.5525
10018TIP3   OH251544   1.372   1.204  16.057 -0.3226 -0.0239 -0.4904
10018TIP3    H151545   1.433   1.268  16.019 -1.0406 -0.0398 -1.7214
10018TIP3    H251546   1.392   1.123  16.010 -0.5063 -0.3103 -0.0735
10019TIP3   OH251547   3.456   2.450   1.818  0.1172 -0.2748 -0.5909
10019TIP3    H151548   3.407   2.406   1.749  0.9120 -0.7027 -0.9009
10019TIP3    H251549   3.476   2.381   1.881 -1.8851  0.3802  0.8675
10020TIP3   OH251550   2.346   0.534   0.470 -0.2882  0.4983 -0.6004
10020TIP3    H151551   2.256   0.527   0.439 -1.2086 -0.8533  2.1061
10020TIP3    H251552   2.389   0.455   0.437 -0.9860 -0.4303  0.6314
10021TIP3   OH251553   0.431   2.016  12.273 -0.6480  0.6376 -0.1699
10021TIP3    H151554   0.525   2.003  12.260 -0.4511 -0.3476  1.8621
10021TIP3    H251555   0.419   2.110  12.268  0.4084  0.7618 -0.6918
10022TIP3   OH251556   0.900   2.073   3.648 -0.0115 -0.5087 -0.1428
10022TIP3    H151557   0.843   2.000   3.624  0.3533 -1.1653  0.8710
10022TIP3    H251558   0.841   2.139   3.684 -0.3280 -0.3590 -0.9223
10023TIP3   OH251559   4.582   1.004  11.727 -0.3059  0.0143 -0.3583
10023TIP3    H151560   4.608   0.944  11.657 -0.8840 -1.1202  0.3615
10023TIP3    H251561   4.645   1.075  11.723  0.9111 -1.0594 -0.7163
10024TIP3   OH251562   1.044   4.309  12.953 -0.4935  0.2394  0.2241
10024TIP3    H151563   1.118   4.249  12.959  0.5214  1.5515  1.2924
10024TIP3    H251564   0.970   4.259  12.987  0.3550 -0.3739  1.2416
10025TIP3   OH251565   2.192   1.221  12.634 -0.4334 -0.1184 -0.0992
10025TIP3    H151566   2.153   1.232  12.547 -1.3869 -1.2511  0.1547
10025TIP3    H251567   2.285   1.242  12.621 -0.3569 -1.1757 -1.6330
10026TIP3   OH251568   4.769   5.379  14.694  0.7143  0.1964 -0.0606
10026TIP3    H151569   4.695   5.415  14.743  0.5630 -1.2424  0.8286
10026TIP3    H251570   4.764   5.421  14.608 -0.0719  1.4434  0.5777
10027TIP3   OH251571   1.476   5.532  13.193  0.0308  0.1833 -0.3511
10027TIP3    H151572   1.522   5.532  13.277 -0.7695 -1.1351  0.1110
10027TIP3    H251573   1.528   5.590  13.137  0.6202  1.0237  1.0192
10028TIP3   OH251574   4.511   6.001  16.417 -0.2409  0.6019  0.2914
10028TIP3    H151575   4.570   6.070  16.386 -0.0446 -0.1052 -0.9997
10028TIP3    H251576   4.558   5.961  16.490  2.0321 -1.3812 -2.0467
10029TIP3   OH251577   2.387   6.371   3.922  0.6489  0.0400  0.3072
10029TIP3    H151578   2.350   6.446   3.874  0.6270  0.8913  1.6194
10029TIP3    H251579   2.338   6.296   3.890  0.4706  0.6145 -0.8265
10030TIP3   OH251580   5.183   5.950  15.958 -0.3759 -0.3028  0.0658
10030TIP3    H151581   5.231   5.871  15.934 -0.0929 -0.4445  1.0443
10030TIP3    H251582   5.133   5.973  15.880  0.0904 -1.0395 -0.4580
10031TIP3   OH251583   3.363   1.194   0.328 -0.5327  0.1534  0.9861
10031TIP3    H151584   3.431   1.261   0.319  0.0540 -0.7379 -2.6028
10031TIP3    H251585   3.400   1.131   0.391  1.9769 -0.2053 -0.6938
10032TIP3   OH251586   1.187   4.862  15.788  0.3672  0.2260 -0.6365
10032TIP3    H151587   1.177   4.816  15.705  1.6447 -0.2635 -0.5509
10032TIP3    H251588   1.164   4.953  15.769 -2.1148 -0.3916 -0.8340
10033TIP3   OH251589   6.427   3.468  16.670  0.1115  0.0961 -0.4395
10033TIP3    H151590   6.439   3.381  16.709  0.6486 -0.0924 -1.0152
10033TIP3    H251591   6.454   3.457  16.579 -1.3748  0.4710 -0.9508
10034TIP3   OH251592   2.502   4.193  14.363  0.4257 -0.4793  0.1105
10034TIP3    H151593   2.504   4.281  14.326  0.0487  0.9114  3.0486
10034TIP3    H251594   2.580   4.190  14.419  0.9267 -2.3856 -0.6317
10035TIP3   OH251595   5.799   0.074   2.036  0.3656  0.0005  0.3321
10035TIP3    H151596   5.713   0.104   2.007 -0.2862 -2.4986 -0.4961
10035TIP3    H251597   5.819   0.131   2.111 -1.3969  1.4702 -0.2170
10036TIP3   OH251598   0.551   4.863  10.947  0.1895 -0.0273  0.4388
10036TIP3    H151599   0.463   4.828  10.929  0.7372 -0.6363 -1.2190
10036TIP3    H251600   0.608   4.786  10.948  0.9819  0.5343 -0.4168
10037TIP3   OH251601   3.009   2.780   3.719 -0.2035 -0.7537  0.1105
10037TIP3    H151602   2.991   2.833   3.797 -1.8869 -1.6800  0.4022
10037TIP3    H251603   2.938   2.716   3.717 -0.0846 -0.8900 -2.0720
10038TIP3   OH251604   4.804   6.382  12.663 -0.4070 -0.0621 -0.7372
10038TIP3    H151605   4.891   6.350  12.685 -0.7101 -0.0412  0.5778
10038TIP3    H251606   4.748   6.351  12.734 -1.4616  0.0115 -1.5030
10039TIP3   OH251607   1.219   5.955   0.003  0.0500  0.7375 -0.8150
10039TIP3    H151608   1.166   5.876   0.015  1.0827  0.0182 -0.8419
10039TIP3    H251609   1.295   5.925  -0.047  0.7470  1.6170 -0.3136
10040TIP3   OH251610   3.078   0.936   3.434  0.2503  0.0392 -0.1687
10040TIP3    H151611   3.083   0.855   3.485  0.9622 -0.8326 -1.5768
10040TIP3    H251612   3.164   0.976   3.442 -0.5376  1.5435  1.8193
10041TIP3   OH251613   2.589   5.785   4.788  0.3094  0.7022  0.0926
10041TIP3    H151614   2.608   5.730   4.865 -0.0928  0.9513  0.3734
10041TIP3    H251615   2.495   5.803   4.794  0.4521  1.4939  0.0467
10042TIP3   OH251616   3.425   5.713  15.360 -0.5877  0.2378  0.0248
10042TIP3    H151617   3.452   5.734  15.271  1.6221 -2.3791 -0.0670
10042TIP3    H251618   3.459   5.624  15.375 -0.2589  0.8215  3.7158
10043TIP3   OH251619   5.130   6.194  16.083 -0.0311  0.3718 -0.1082
10043TIP3    H151620   5.047   6.206  16.037  0.9903 -1.2817 -2.5892
10043TIP3    H251621   5.162   6.110  16.053 -0.2414 -2.1836  5.4788
10044TIP3   OH251622   1.809   5.848   0.049 -0.6296 -0.1774  0.4235
10044TIP3    H151623   1.845   5.879   0.132  1.9462 -0.8679 -0.3689
10044TIP3    H251624   1.883   5.847  -0.012 -2.4555  0.5086 -1.9901
10045TIP3   OH251625   5.645   2.598  14.430  0.4478 -0.2748  0.4017
10045TIP3    H151626   5.615   2.668  14.371 -0.7465 -1.0117  0.1176
10045TIP3    H251627   5.572   2.538  14.435  1.5134 -1.5988  0.5330
10046TIP3   OH251628   3.941   6.261  15.714  0.1150 -0.1670  0.3547
10046TIP3    H151629   3.897   6.313  15.782 -2.3445  0.6996 -1.7414
10046TIP3    H251630   3.938   6.316  15.636 -1.3625 -2.8248 -1.6338
10047TIP3   OH251631   2.056   1.273  12.396 -0.1165  0.0086  0.0236
10047TIP3    H151632   1.974   1.298  12.354  0.3588 -1.7599 -2.1481
10047TIP3    H251633   2.123   1.286  12.329  1.0677 -0.6253  1.0354
10048TIP3   OH251634   5.466   0.236  14.782 -0.3193  0.2431  0.6007
10048TIP3    H151635   5.373   0.252  14.765 -0.0296  0.6453 -0.7313
10048TIP3    H251636   5.468   0.156  14.835 -1.3349 -1.1500 -1.3438
10049TIP3   OH251637   2.605   4.578   0.081 -0.6850 -0.1422 -0.1964
10049TIP3    H151638   2.564   4.529   0.010 -0.7181  1.5993 -1.4451
10049TIP3    H251639   2.564   4.664   0.078 -1.0962 -0.1618  2.3392
10050TIP3   OH251640   6.008   5.571  17.093 -0.0177  0.1604 -0.3937
10050TIP3    H151641   6.037   5.654  17.131  1.0563  0.6899 -2.2713
10050TIP3    H251642   5.937   5.595  17.034 -1.3671 -0.5972  0.8549
10051TIP3   OH251643   4.855   5.836  17.022 -0.4387  0.5639 -0.0611
10051TIP3    H151644   4.880   5.760  16.970  1.2928  1.0471  0.0074
10051TIP3    H251645   4.860   5.806  17.113 -1.4776  0.2932 -0.0779
10052TIP3   OH251646   2.666   3.146   4.776  0.4974  0.2474  0.3068
10052TIP3    H151647   2.751   3.190   4.779  0.2312  0.7396  0.7782
10052TIP3    H251648   2.637   3.145   4.867  0.5891 -1.0931  0.3301
10053TIP3   OH251649   5.111   0.853   6.139  0.7130  0.6880 -0.3754
10053TIP3    H151650   5.045   0.916   6.107 -0.5691 -0.5376 -0.2293
10053TIP3    H251651   5.167   0.905   6.197 -0.1907  1.7481 -0.4165
10054TIP3   OH251652   5.055   4.096  12.590 -0.0113 -0.5220 -0.1697
10054TIP3    H151653   5.022   4.185  12.590  0.9990 -0.1253  1.1722
10054TIP3    H251654   4.994   4.048  12.534 -1.2694  0.7375  0.0740
10055TIP3   OH251655   3.671   4.411  13.936  0.7002  0.1359  0.1942
10055TIP3    H151656   3.762   4.417  13.906  0.4584  2.1757 -0.2360
10055TIP3    H251657   3.672   4.450  14.023 -0.3185  3.6415 -1.2083
10056TIP3   OH251658   6.159   3.946   5.874  0.3053 -0.1146 -0.1277
10056TIP3    H151659   6.108   4.026   5.884 -0.6582 -0.3904 -2.2540
10056TIP3    H251660   6.101   3.877   5.908 -0.2089 -0.2593 -1.2525
10057TIP3   OH251661   3.560   3.543  12.140  0.2046 -0.0948 -0.4182
10057TIP3    H151662   3.545   3.526  12.233  2.0407 -0.5065 -0.1509
10057TIP3    H251663   3.507   3.478  12.095  1.4150 -1.7785  0.4490
10058TIP3   OH251664   5.247   0.523  11.427  0.4102 -0.1430 -0.6427
10058TIP3    H151665   5.200   0.606  11.434  1.8943  0.9011 -2.4266
10058TIP3    H251666   5.182   0.462  11.392 -0.4341  0.4886 -0.2214
10059TIP3   OH251667   4.196   2.364  12.476  0.5451 -0.5019 -0.1902
10059TIP3    H151668   4.137   2.368  12.401  1.0569 -3.1193 -0.8537
10059TIP3    H251669   4.144   2.326  12.546  0.7354 -0.4374 -0.0116
10060TIP3   OH251670   1.332   0.025  12.794  0.2022  0.2097  0.2165
10060TIP3    H151671   1.393  -0.042  12.825  1.6404  1.7510  0.9016
10060TIP3    H251672   1.309   0.074  12.873  0.9121  1.8561 -0.5609
10061TIP3   OH251673   5.306   1.254  15.854 -0.1715 -0.3312 -0.3142
10061TIP3    H151674   5.296   1.159  15.853  0.6117 -0.4182 -0.2621
10061TIP3    H251675   5.333   1.276  15.765 -1.0508 -0.0678 -0.5313
10062TIP3   OH251676   1.415   0.281   4.225  0.6139 -0.5200  0.2569
10062TIP3    H151677   1.387   0.327   4.146  0.9406 -0.2794  0.2808
10062TIP3    H251678   1.360   0.202   4.228 -0.6298  0.3382  0.7494
10063TIP3   OH251679   6.072   3.326   2.030 -0.4335  0.3736 -0.4146
10063TIP3    H151680   6.067   3.245   2.081 -1.4143 -0.7128 -2.1421
10063TIP3    H251681   6.140   3.310   1.965 -2.0748  0.0617 -2.1375
10064TIP3   OH251682   2.511   5.405  15.467 -1.1874  0.2194  0.1614
10064TIP3    H151683   2.503   5.362  15.382  0.8817  0.3680 -0.1538
10064TIP3    H251684   2.420   5.420  15.494 -1.9149 -0.9851 -1.4082
10065TIP3   OH251685   2.121   0.927  10.973 -0.7028 -0.4627 -0.1609
10065TIP3    H151686   2.152   0.935  10.883 -0.8050  0.1745 -0.1444
10065TIP3    H251687   2.041   0.979  10.976 -0.5081 -0.1833  0.3915
10066TIP3   OH251688   5.050   1.849   5.991 -0.2221  0.3961  0.5382
10066TIP3    H151689   5.068   1.877   6.081 -1.0439 -0.5351  1.0234
10066TIP3    H251690   4.983   1.781   6.001  0.5128 -0.5506 -0.6832
10067TIP3   OH251691   5.912   1.005  16.466 -0.0552 -0.2689  0.2075
10067TIP3    H151692   5.833   1.028  16.417 -1.6944 -0.4897  2.5993
10067TIP3    H251693   5.966   0.959  16.402 -0.8962  1.6562 -2.0679
10068TIP3   OH251694   3.166   5.555  14.524  0.0557 -0.8949  0.4521
10068TIP3    H151695   3.256   5.525  14.531  0.4962  0.6303  1.8078
10068TIP3    H251696   3.119   5.509  14.594 -0.5238 -2.5010 -0.9044
10069TIP3   OH251697   1.563   4.008   6.183  0.1628 -0.4519  0.1490
10069TIP3    H151698   1.505   4.038   6.253  1.7503  2.2297  0.4586
10069TIP3    H251699   1.518   4.035   6.102  0.2782  0.3136  0.3308
10070TIP3   OH251700   0.480   1.330   5.849  0.2004  0.0387 -0.3085
10070TIP3    H151701   0.416   1.333   5.921 -1.4402  2.1986 -1.7338
10070TIP3    H251702   0.534   1.408   5.862 -1.5747  1.7858 -2.5534
10071TIP3   OH251703   2.080   1.184  13.133 -0.1537 -0.2655 -0.3462
10071TIP3    H151704   2.150   1.234  13.091 -1.5306  0.4168 -1.9465
10071TIP3    H251705   2.115   1.163  13.220  1.1581  1.9646 -0.2439
10072TIP3   OH251706   3.125   0.770   2.981 -0.7113 -0.0421 -0.0511
10072TIP3    H151707   3.104   0.860   2.955  0.6545  0.5974  0.9462
10072TIP3    H251708   3.204   0.749   2.931 -0.4260 -0.2969  0.5024
10073TIP3   OH251709   2.387   2.452  14.763  0.0406 -0.0337  0.2822
10073TIP3    H151710   2.461   2.394  14.744  0.8156  1.4512 -1.6412
10073TIP3    H251711   2.389   2.464  14.858  2.0767 -0.3045  0.3209
10074TIP3   OH251712   3.233   5.654   4.940 -0.3829  0.3507 -0.1274
10074TIP3    H151713   3.184   5.642   4.859  0.8013 -2.0550 -0.6116
10074TIP3    H251714   3.190   5.596   5.003  0.4781 -0.1133  0.0566
10075TIP3   OH251715   5.017   3.923   0.855  0.2280  0.2057  0.1444
10075TIP3    H151716   5.032   3.880   0.939 -0.7307  1.5293  1.0457
10075TIP3    H251717   5.100   3.967   0.835  0.2554  0.4487  0.7614
10076TIP3   OH251718   3.136   3.985  17.411 -0.1143  0.1600  0.5272
10076TIP3    H151719   3.196   3.922  17.451 -1.9739 -1.6074  0.6433
10076TIP3    H251720   3.105   4.038  17.485 -0.0240 -0.0585  0.7228
10077TIP3   OH251721   5.752   3.708   4.470 -0.0203  0.3548  0.0585
10077TIP3    H151722   5.846   3.722   4.469  0.0121  0.1294 -0.0447
10077TIP3    H251723   5.740   3.627   4.520 -0.2674  1.1888  1.4126
10078TIP3   OH251724   6.215   0.079  16.961  0.5795  0.4546  0.3466
10078TIP3    H151725   6.183  -0.004  16.996  0.7943  1.0457  2.0267
10078TIP3    H251726   6.136   0.131  16.945  0.1585 -1.0956 -3.7579
10079TIP3   OH251727   6.341   1.327  13.391  0.0260  0.1704 -0.1155
10079TIP3    H151728   6.436   1.329  13.401  0.2096  0.1697 -1.6348
10079TIP3    H251729   6.313   1.253  13.446  1.0828 -0.8237 -0.8699
10080TIP3   OH251730   5.701   1.968   0.399 -0.2617  0.1126 -0.0730
10080TIP3    H151731   5.764   2.006   0.460 -1.4679  0.7664  0.8032
10080TIP3    H251732   5.625   2.026   0.404 -1.3971 -1.3275 -0.2003
10081TIP3   OH251733   2.972   1.157  13.457  0.3505  0.2351 -0.6005
10081TIP3    H151734   2.919   1.088  13.497  2.5560 -1.2440 -0.0413
10081TIP3    H251735   3.022   1.196  13.529  0.8967  0.7760 -1.2422
10082TIP3   OH251736   1.288   6.549  11.425  0.0617  0.0198  0.5875
10082TIP3    H151737   1.241   6.469  11.403  1.3598 -0.1951 -1.7973
10082TIP3    H251738   1.226   6.620  11.407 -0.0282 -0.3362 -0.5604
10083TIP3   OH251739   1.182   4.127   2.952  0.6453 -0.4408  0.1691
10083TIP3    H151740   1.220   4.163   3.032 -0.0315 -0.0948  0.3404
10083TIP3    H251741   1.208   4.189   2.884 -0.3208  0.2697  0.4263
10084TIP3   OH251742   6.338   5.747   1.499  0.4026  0.3719 -0.3460
10084TIP3    H151743   6.354   5.720   1.589 -2.2890  2.3344  0.8836
10084TIP3    H251744   6.307   5.837   1.507 -3.3116 -0.4653 -2.7977
10085TIP3   OH251745   3.670   0.625   4.058 -0.5385 -0.2241 -0.2102
10085TIP3    H151746   3.697   0.552   4.003  1.0726 -0.3934  0.7595
10085TIP3    H251747   3.613   0.677   4.001  2.5894  0.7051 -2.7869
10086TIP3   OH251748   6.345   1.424   4.519  0.0615 -0.3815  0.1183
10086TIP3    H151749   6.373   1.512   4.543 -0.5653 -0.1730  0.1114
10086TIP3    H251750   6.405   1.366   4.565 -0.4954  0.0256  1.4029
10087TIP3   OH251751   3.893   3.565   4.332  0.7034  0.2281  0.3664
10087TIP3    H151752   3.880   3.578   4.425  0.0683  0.6830  0.2183
10087TIP3    H251753   3.904   3.470   4.322 -0.7820  0.0012  0.7179
10088TIP3   OH251754   1.889   2.707  14.959 -0.1684 -0.0741 -0.2664
10088TIP3    H151755   1.861   2.693  14.868  0.2162 -0.6024 -0.3050
10088TIP3    H251756   1.950   2.780  14.954  0.4340 -0.5785 -0.5497
10089TIP3   OH251757   5.647   1.214  17.088  0.8213 -0.1500 -0.7251
10089TIP3    H151758   5.646   1.310  17.088  0.4982 -0.1279  0.9011
10089TIP3    H251759   5.645   1.190  17.181 -0.4772 -1.7438 -1.1215
10090TIP3   OH251760   0.771   5.529   5.345  0.1892  0.0546 -0.8399
10090TIP3    H151761   0.746   5.459   5.406 -0.3297  0.2102 -0.8757
10090TIP3    H251762   0.743   5.610   5.387 -0.3933  0.1466 -1.3884
10091TIP3   OH251763   6.196   0.400  12.552  0.0681 -0.0381 -0.4576
10091TIP3    H151764   6.220   0.313  12.519  0.4641  0.1239 -0.5991
10091TIP3    H251765   6.164   0.447  12.475 -0.0565 -0.0250 -0.3991
10092TIP3   OH251766   2.331   6.742   1.519  0.0246 -0.5397  0.2336
10092TIP3    H151767   2.402   6.680   1.507  0.5332 -0.0277  0.5196
10092TIP3    H251768   2.279   6.706   1.591 -0.0482 -0.9488 -0.0199
10093TIP3   OH251769   2.783   1.566  14.186 -0.1793  0.0521  0.9000
10093TIP3    H151770   2.801   1.478  14.152 -2.0090  0.0490 -0.1558
10093TIP3    H251771   2.712   1.554  14.248 -0.1607  0.7404  1.0661
10094TIP3   OH251772   5.101   1.962  13.476 -0.5888  0.5980 -0.2806
10094TIP3    H151773   5.178   2.010  13.507  0.0398 -0.5467  0.0328
10094TIP3    H251774   5.099   1.978  13.382  0.2826  0.3424 -0.3598
10095TIP3   OH251775   1.946   4.614   2.093 -0.1889  0.1644  0.3209
10095TIP3    H151776   1.911   4.638   2.178 -1.2366  1.3627 -0.4036
10095TIP3    H251777   1.900   4.533   2.071  0.8199 -0.7004  1.2955
10096TIP3   OH251778   5.767   3.281  14.210 -0.8402  0.0905 -0.2208
10096TIP3    H151779   5.830   3.224  14.253 -1.2967  0.5507  1.1122
10096TIP3    H251780   5.761   3.358  14.267 -2.9329 -0.1441 -0.0322
10097TIP3   OH251781   3.606   2.154  15.936  0.3351 -0.0689  0.8610
10097TIP3    H151782   3.697   2.174  15.960  1.3120  0.8499 -2.8664
10097TIP3    H251783   3.595   2.062  15.958  1.9911 -0.0620  1.9035
10098TIP3   OH251784   0.194   1.808   1.831  0.1840 -0.3276  0.0430
10098TIP3    H151785   0.256   1.849   1.891  1.6707  0.6970 -2.0624
10098TIP3    H251786   0.207   1.854   1.748 -4.0794  0.5763 -0.3459
10099TIP3   OH251787   3.320   2.528  13.802  0.2948 -0.1489  0.6271
10099TIP3    H151788   3.239   2.573  13.775  1.3676  1.8965  0.6236
10099TIP3    H251789   3.299   2.492  13.888 -0.6378  0.3369  0.6177
10100TIP3   OH251790   0.339   6.370   3.412  0.0986 -0.0820 -0.5686
10100TIP3    H151791   0.433   6.375   3.425  0.1594  1.2591 -1.3597
10100TIP3    H251792   0.324   6.412   3.327 -1.3865  1.4516  0.3916
10101TIP3   OH251793   3.376   0.099   0.762 -0.5874 -0.4499 -0.0298
10101TIP3    H151794   3.312   0.151   0.713  0.5859  0.8353 -0.2750
10101TIP3    H251795   3.372   0.134   0.851 -2.7153 -2.7821  0.9144
10102TIP3   OH251796   6.592   1.005   5.133 -0.3445 -0.1305  0.1502
10102TIP3    H151797   6.520   1.053   5.173 -1.2126 -0.4181 -1.0094
10102TIP3    H251798   6.633   0.958   5.206 -0.9571  0.5065  0.9203
10103TIP3   OH251799   4.047   3.854  16.661  0.3981 -0.5958  0.3654
10103TIP3    H151800   4.086   3.923  16.607 -2.7564 -0.0210 -1.4409
10103TIP3    H251801   4.079   3.773  16.624 -0.6648 -0.1666 -1.5971
10104TIP3   OH251802   1.438   1.957   5.881  0.2404 -0.4423 -0.4545
10104TIP3    H151803   1.413   1.964   5.973 -0.5940  1.3241 -0.7720
10104TIP3    H251804   1.533   1.953   5.882  0.2198 -1.2715  0.5015
10105TIP3   OH251805   5.151   3.123  12.554  0.4260  0.1666  0.3245
10105TIP3    H151806   5.058   3.114  12.573  1.1912  0.0784  5.2473
10105TIP3    H251807   5.179   3.035  12.527 -0.6533 -0.0831 -0.0411
10106TIP3   OH251808   5.444   6.621  14.932  0.3234 -0.2187  0.2837
10106TIP3    H151809   5.525   6.668  14.911  1.8201 -3.3897 -1.7164
10106TIP3    H251810   5.472   6.549  14.989 -0.9189 -1.7834 -0.9964
10107TIP3   OH251811   3.039   0.782   2.583 -0.0476 -0.1505  0.3139
10107TIP3    H151812   3.099   0.713   2.554 -0.9663 -0.5765 -0.6106
10107TIP3    H251813   3.097   0.852   2.613  1.0663  0.5197 -2.9626
10108TIP3   OH251814   0.671   3.312   0.383  0.0874  0.2597  0.0319
10108TIP3    H151815   0.714   3.245   0.330  1.7966  1.2726  0.0814
10108TIP3    H251816   0.596   3.340   0.329  1.0679  0.3845 -1.3059
10109TIP3   OH251817   5.700   0.540   1.356 -0.0927  0.7695  0.5409
10109TIP3    H151818   5.660   0.456   1.381  0.3719  0.5623  0.6005
10109TIP3    H251819   5.794   0.525   1.366 -0.0148  1.3332  0.6501
10110TIP3   OH251820   2.628   2.575   0.713 -0.0330 -0.2037  0.1557
10110TIP3    H151821   2.581   2.592   0.631  0.2458 -2.6404 -0.5684
10110TIP3    H251822   2.569   2.518   0.763  0.8669 -0.7965  0.5555
10111TIP3   OH251823   3.659   3.350  15.309 -0.5600 -0.1458  0.0071
10111TIP3    H151824   3.653   3.445  15.323  0.1726 -0.0523 -0.3240
10111TIP3    H251825   3.582   3.315  15.355 -2.4133  0.8335 -2.1509
10112TIP3   OH251826   0.521   2.328  11.528 -0.2848 -0.3858 -0.1585
10112TIP3    H151827   0.510   2.269  11.453 -0.5823 -0.9358  0.3040
10112TIP3    H251828   0.566   2.274  11.594 -0.7513 -0.1642  0.3480
10113TIP3   OH251829   4.523   1.934   5.672  0.6763 -0.0525 -0.5566
10113TIP3    H151830   4.473   1.864   5.630 -0.7069  0.6836 -0.1628
10113TIP3    H251831   4.615   1.908   5.658  0.2126 -1.7428 -0.7394
10114TIP3   OH251832   4.988   1.799   1.885  0.0277 -0.5825  0.2554
10114TIP3    H151833   4.983   1.812   1.790 -0.8622 -0.1730  0.3569
10114TIP3    H251834   4.901   1.771   1.911 -0.7150  2.4256  1.4039
10115TIP3   OH251835   3.909   5.836   2.206 -0.2020  0.1908 -0.0108
10115TIP3    H151836   3.957   5.904   2.158 -0.5896 -1.9029 -3.7850
10115TIP3    H251837   3.828   5.879   2.234 -0.9009  1.2229 -3.1700
10116TIP3   OH251838   2.603   5.166  12.082 -0.1454  0.3711  0.4952
10116TIP3    H151839   2.602   5.247  12.031  1.1868  0.6573  0.9076
10116TIP3    H251840   2.545   5.107  12.033  0.6952  0.8002 -1.0910
10117TIP3   OH251841   1.052   3.199  12.774  0.1171  0.5101  0.0826
10117TIP3    H151842   0.983   3.152  12.726 -0.0956  0.4202  0.4752
10117TIP3    H251843   1.133   3.174  12.729  0.4705 -3.0529  2.3443
10118TIP3   OH251844   5.287   3.086   2.608  0.1022  0.5119  0.7015
10118TIP3    H151845   5.275   3.118   2.519 -0.4878  0.1416  0.6371
10118TIP3    H251846   5.260   2.994   2.604 -1.6625  0.9474  1.6253
10119TIP3   OH251847   0.404   1.145  11.951 -0.1032  0.1030 -0.4114
10119TIP3    H151848   0.388   1.051  11.958 -1.1205  0.3247  0.7770
10119TIP3    H251849   0.370   1.170  11.866 -1.3018 -0.3607 -0.0872
10120TIP3   OH251850   3.448   5.703  11.231 -0.3008  0.0472  0.8502
10120TIP3    H151851   3.477   5.653  11.155 -0.3991 -0.9665  1.4690
10120TIP3    H251852   3.507   5.778  11.234 -0.9090  0.6451 -0.7902
10121TIP3   OH251853   5.023   0.397  13.163  0.0440 -0.1181  0.0662
10121TIP3    H151854   5.058   0.478  13.200 -0.3127 -0.5247  1.3443
10121TIP3    H251855   4.931   0.416  13.143  0.0461 -0.1171  0.0568
10122TIP3   OH251856   5.140   5.423   5.073 -0.0660 -0.5030  0.4134
10122TIP3    H151857   5.124   5.515   5.052  1.1927  0.1420  2.0671
10122TIP3    H251858   5.217   5.399   5.022  0.3523 -0.2531  0.9195
10123TIP3   OH251859   6.338   0.845  12.344 -0.0906  0.8001 -0.2742
10123TIP3    H151860   6.399   0.785  12.387  0.4370  1.2631 -0.3583
10123TIP3    H251861   6.385   0.874  12.265 -0.5539  0.9106 -0.5152
10124TIP3   OH251862   6.283   1.148   4.921 -0.4421  0.1146 -0.3361
10124TIP3    H151863   6.231   1.189   4.852  1.2391  2.0551 -0.5557
10124TIP3    H251864   6.367   1.193   4.918  0.7338 -1.8102  1.0349
10125TIP3   OH251865   4.333   4.613  11.878 -0.0556  0.1361  0.4026
10125TIP3    H151866   4.370   4.541  11.930  1.1373  0.5572  0.1580
10125TIP3    H251867   4.382   4.690  11.905 -0.6776  0.6986 -0.0321
10126TIP3   OH251868   5.588   4.866   4.423  0.3066 -0.0473 -0.1669
10126TIP3    H151869   5.607   4.884   4.331 -1.7861  1.1075 -0.4181
10126TIP3    H251870   5.633   4.936   4.470 -0.3678  0.5981 -0.4754
10127TIP3   OH251871   6.448   3.935  15.655 -0.3331 -0.3880  0.6131
10127TIP3    H151872   6.471   3.914  15.565  0.7516 -0.7383  0.9604
10127TIP3    H251873   6.413   4.024  15.650 -0.8444 -0.6218 -0.2289
10128TIP3   OH251874   5.312   2.980  15.913 -0.1604  0.3421 -0.1501
10128TIP3    H151875   5.329   2.931  15.994  1.7701  0.2111 -0.5891
10128TIP3    H251876   5.298   2.912  15.847  1.6186  0.3397 -0.5732
10129TIP3   OH251877   5.601   4.657   3.767 -0.6017  0.2262 -0.7656
10129TIP3    H151878   5.674   4.595   3.761  1.0591  2.1543 -1.4018
10129TIP3    H251879   5.525   4.602   3.786  0.7598 -2.0058 -1.4109
10130TIP3   OH251880   0.361   2.440  13.221 -0.2704 -0.3564  0.1716
10130TIP3    H151881   0.444   2.486  13.228 -0.1981 -0.5104  0.3312
10130TIP3    H251882   0.310   2.469  13.296 -0.4629 -0.0607 -0.0683
10131TIP3   OH251883   5.037   1.323  12.000 -0.3000  0.3845 -0.1290
10131TIP3    H151884   5.051   1.416  11.981 -1.7619  0.2508 -2.2263
10131TIP3    H251885   4.949   1.319  12.037  0.0534 -0.1055  0.6918
10132TIP3   OH251886   6.004   1.589  16.170 -0.3434 -0.2433 -0.0511
10132TIP3    H151887   5.918   1.623  16.194  0.1502  0.4843  0.7240
10132TIP3    H251888   5.998   1.495  16.183 -1.1548 -0.2504 -0.4405
10133TIP3   OH251889   5.400   0.908  10.880 -0.6868 -0.6688  0.0478
10133TIP3    H151890   5.487   0.898  10.918 -0.7334 -0.2261  0.2825
10133TIP3    H251891   5.361   0.821  10.885 -0.0942 -0.9719 -0.4710
10134TIP3   OH251892   6.226   2.975  13.279  0.0254  0.3103 -0.2190
10134TIP3    H151893   6.167   3.049  13.269  0.5513  0.8721  0.7513
10134TIP3    H251894   6.208   2.920  13.203 -0.5242  1.3220 -0.8413
10135TIP3   OH251895   2.741   4.607  16.609 -0.7285  0.1337 -0.5872
10135TIP3    H151896   2.677   4.540  16.583 -0.1752 -0.5457 -0.2038
10135TIP3    H251897   2.759   4.655  16.528 -0.4292 -0.7765 -1.0673
10136TIP3   OH251898   6.301   5.045   5.595  0.4604 -0.0778 -0.1886
10136TIP3    H151899   6.213   5.083   5.603  1.7880  3.1071  1.0769
10136TIP3    H251900   6.326   5.062   5.504 -0.9080 -2.9677 -1.2288
10137TIP3   OH251901   0.652   2.273  16.153  0.5140 -0.0281  0.7280
10137TIP3    H151902   0.566   2.233  16.167 -0.6163  2.8536  2.9436
10137TIP3    H251903   0.696   2.263  16.238  2.0954 -0.6805 -0.1208
10138TIP3   OH251904   1.052   2.169  13.715  0.5577 -0.4286  0.3949
10138TIP3    H151905   1.030   2.094  13.660  2.0808 -0.7027  0.1005
10138TIP3    H251906   1.139   2.196  13.685 -0.7715  2.8282 -0.9984
10139TIP3   OH251907   5.258   4.075  13.785 -0.1263  0.4686  0.2679
10139TIP3    H151908   5.308   4.157  13.787 -0.8462  0.9532 -0.7756
10139TIP3    H251909   5.167   4.102  13.773 -0.2794 -0.4839 -1.0001
10140TIP3   OH251910   3.696   3.123   1.820  0.9772  0.4681  0.4529
10140TIP3    H151911   3.687   3.035   1.858  1.3000 -0.5805 -1.7004
10140TIP3    H251912   3.608   3.143   1.788  0.6052  1.5275  2.0663
10141TIP3   OH251913   4.866   0.223  15.170 -0.0266 -0.1417 -0.7151
10141TIP3    H151914   4.789   0.180  15.207 -1.1082  1.5784 -0.8409
10141TIP3    H251915   4.844   0.316  15.170  2.9193  0.6824  1.2520
10142TIP3   OH251916   5.729   5.810   3.244  0.2491 -0.4402  0.9782
10142TIP3    H151917   5.721   5.809   3.340 -2.0098 -3.7639  0.9102
10142TIP3    H251918   5.654   5.863   3.215  1.5542  1.5062  0.9655
10143TIP3   OH251919   2.426   3.813  17.261  0.5826  0.5840 -0.0643
10143TIP3    H151920   2.382   3.802  17.177  1.7340 -0.3300 -0.5619
10143TIP3    H251921   2.385   3.747  17.318 -0.1421  1.1512  0.0842
10144TIP3   OH251922   1.802   3.027  15.634  0.1914 -0.2013 -0.5509
10144TIP3    H151923   1.889   3.056  15.606  0.0613  1.8335  0.9692
10144TIP3    H251924   1.747   3.040  15.556  1.1902 -1.4236 -1.4990
10145TIP3   OH251925   3.969   1.640   0.125  0.0423 -0.0884  0.9058
10145TIP3    H151926   3.879   1.650   0.155 -0.3585  1.1024 -0.5770
10145TIP3    H251927   3.973   1.689   0.043  1.8021 -0.9003  0.4496
10146TIP3   OH251928   3.583   4.389   5.947 -0.0676  0.2932 -0.4333
10146TIP3    H151929   3.552   4.412   6.035  0.0713 -0.6175 -0.1312
10146TIP3    H251930   3.656   4.329   5.962  0.0332  0.2230 -1.1719
10147TIP3   OH251931   1.619   1.836   4.689  0.2290  0.3638  0.3434
10147TIP3    H151932   1.684   1.906   4.680  0.6041 -0.0008  0.1528
10147TIP3    H251933   1.561   1.848   4.614 -0.7172  1.4791  1.2015
10148TIP3   OH251934   3.909   3.276  16.909 -0.2249  0.0408 -0.5077
10148TIP3    H151935   3.932   3.295  17.000 -1.1238  0.3707 -0.3408
10148TIP3    H251936   3.972   3.210  16.882 -1.1333 -1.5172  0.9679
10149TIP3   OH251937   3.516   5.905   2.946 -0.3915 -0.7924 -0.4824
10149TIP3    H151938   3.502   5.995   2.975 -0.3495 -0.3803 -1.6708
10149TIP3    H251939   3.587   5.873   3.002  1.1971  0.6911 -1.5308
10150TIP3   OH251940   4.331   2.854   4.189 -0.2859 -0.0839  0.4205
10150TIP3    H151941   4.280   2.894   4.119  0.5513  3.0648  1.4638
10150TIP3    H251942   4.301   2.898   4.269  1.9411 -0.2827  1.4327
10151TIP3   OH251943   4.423   6.719  11.703  0.1023  0.0791  0.0302
10151TIP3    H151944   4.380   6.730  11.788 -0.2330  1.1166 -0.2575
10151TIP3    H251945   4.459   6.630  11.706 -0.1951 -0.0255  1.1219
10152TIP3   OH251946   4.280   0.630   0.478 -0.5239 -0.6161 -0.2183
10152TIP3    H151947   4.320   0.690   0.416 -0.2860 -0.9799 -0.4212
10152TIP3    H251948   4.236   0.686   0.542  0.5217 -0.2004  0.1480
10153TIP3   OH251949   4.834   0.945   0.756 -0.1879 -0.3546  0.7199
10153TIP3    H151950   4.803   1.002   0.686  0.0287 -0.3102  0.6601
10153TIP3    H251951   4.860   0.864   0.712  1.1316  0.1236  0.5877
10154TIP3   OH251952   0.447   6.443   5.565  0.0356 -0.2264  0.6264
10154TIP3    H151953   0.537   6.425   5.537 -0.3106 -1.1117  0.0308
10154TIP3    H251954   0.455   6.465   5.657  0.8687 -0.2776  0.5762
10155TIP3   OH251955   2.567   2.741  11.848 -0.0992 -0.1061  0.0736
10155TIP3    H151956   2.633   2.737  11.779 -2.1573  0.4252 -2.0069
10155TIP3    H251957   2.494   2.689  11.815 -0.7597 -0.7495  2.3603
10156TIP3   OH251958   5.022   4.517  12.108 -0.3954 -0.5967  0.4765
10156TIP3    H151959   5.067   4.573  12.046  2.3835 -0.1681  2.6816
10156TIP3    H251960   5.086   4.501  12.177 -3.2199 -1.0722  3.2298
10157TIP3   OH251961   3.384   2.418   1.080 -0.1177 -0.0829  0.1695
10157TIP3    H151962   3.338   2.500   1.061  1.7908  1.4765  1.7645
10157TIP3    H251963   3.387   2.372   0.996 -0.3636  1.9868 -1.0523
10158TIP3   OH251964   6.377   3.616   3.290 -0.2219  0.9176 -0.1125
10158TIP3    H151965   6.413   3.705   3.288 -3.6929  2.4695 -1.7572
10158TIP3    H251966   6.294   3.625   3.337 -0.5924 -1.5307 -0.1611
10159TIP3   OH251967   1.943   2.164  12.723 -0.2443  0.7168 -0.2157
10159TIP3    H151968   1.876   2.120  12.671  0.5528 -0.4072 -0.3306
10159TIP3    H251969   2.024   2.121  12.698  0.2059  0.3815  1.7091
10160TIP3   OH251970   4.359   0.800   0.268  0.6268 -0.2036  0.0644
10160TIP3    H151971   4.433   0.824   0.323  0.2067  2.2406 -0.3245
10160TIP3    H251972   4.387   0.819   0.179 -0.4706  0.9938 -0.0744
10161TIP3   OH251973   4.764   5.179   0.867  0.1917  0.3613  0.4576
10161TIP3    H151974   4.761   5.091   0.904  0.5034  0.4749  0.7618
10161TIP3    H251975   4.833   5.175   0.801 -0.5656  0.0788 -0.3357
10162TIP3   OH251976   2.382   2.620   4.330  0.1895 -0.3871 -0.6656
10162TIP3    H151977   2.393   2.556   4.260  2.0875 -0.6049 -0.2251
10162TIP3    H251978   2.470   2.634   4.364 -0.6834 -0.4441  1.8241
10163TIP3   OH251979   1.451   2.020  16.988  0.3898  0.1884  0.6882
10163TIP3    H151980   1.541   2.051  16.987  0.9299 -1.2688  1.4090
10163TIP3    H251981   1.430   2.009  17.081  0.3327 -1.7602  0.4923
10164TIP3   OH251982   3.134   6.219   2.395  0.0613  0.0959 -0.4901
10164TIP3    H151983   3.212   6.181   2.435 -0.7226 -0.6479  0.3693
10164TIP3    H251984   3.167   6.290   2.340  1.1629  1.5333  1.8732
10165TIP3   OH251985   6.130   1.171  15.617  0.1016 -0.1973  0.3334
10165TIP3    H151986   6.216   1.131  15.602 -0.1548 -1.1612  1.2919
10165TIP3    H251987   6.118   1.231  15.544  2.5006  1.5418  1.2103
10166TIP3   OH251988   2.211   1.734   1.016 -0.5098 -0.0012 -0.3545
10166TIP3    H151989   2.198   1.825   1.040  0.2761 -0.0589  0.3536
10166TIP3    H251990   2.229   1.736   0.922  0.8180  0.7345 -0.1130
10167TIP3   OH251991   1.260   4.179  11.403  0.0606  0.0066  0.3020
10167TIP3    H151992   1.337   4.236  11.397 -0.8510  1.1904 -0.7588
10167TIP3    H251993   1.292   4.093  11.378  1.1351  0.3865  0.3130
10168TIP3   OH251994   3.989   0.619   1.917 -0.2613 -0.4607 -0.2801
10168TIP3    H151995   4.083   0.612   1.936 -0.2679 -0.4595 -0.2467
10168TIP3    H251996   3.977   0.710   1.890 -0.2488 -0.4664 -0.3045
10169TIP3   OH251997   3.190   1.317  15.765  0.2648 -0.2848  0.5432
10169TIP3    H151998   3.191   1.279  15.678  1.7772  1.7089 -0.3793
10169TIP3    H251999   3.275   1.294  15.803  0.3897  0.4578  0.7384
10170TIP3   OH252000   5.537   2.414   3.666  0.9088  0.5808  0.4980
10170TIP3    H152001   5.548   2.505   3.692 -0.5313  0.3036  2.2431
10170TIP3    H252002   5.503   2.370   3.744 -1.9847 -0.6883 -1.3093
10171TIP3   OH252003   0.216   6.560   2.662 -0.0950 -0.2874 -0.6612
10171TIP3    H152004   0.304   6.542   2.631 -0.0364 -2.1189  0.3824
10171TIP3    H252005   0.163   6.488   2.627 -0.4635 -1.1190  1.4386
10172TIP3   OH252006   2.422   3.134   6.447  0.2762 -0.2465  0.2061
10172TIP3    H152007   2.333   3.161   6.425 -0.6245 -2.0703  1.3639
10172TIP3    H252008   2.425   3.136   6.543  1.5251 -0.0906  0.1812
10173TIP3   OH252009   0.707   4.094  10.949 -0.1943 -0.2822 -0.8777
10173TIP3    H152010   0.758   4.117  10.872 -1.4553 -0.1423 -1.7148
10173TIP3    H252011   0.644   4.166  10.959 -1.6333 -1.4278 -1.2105
10174TIP3   OH252012   2.886   3.499   6.474  0.0152 -0.1106 -0.6571
10174TIP3    H152013   2.854   3.561   6.539  1.0290  0.3323 -0.5644
10174TIP3    H252014   2.873   3.542   6.390 -0.4566 -0.3077 -0.6885
10175TIP3   OH252015   2.931   3.358   2.187 -1.1442 -0.7326 -0.5911
10175TIP3    H152016   2.892   3.444   2.169 -1.5714 -0.4718  1.3723
10175TIP3    H252017   2.867   3.295   2.155 -1.3162 -0.3278 -1.0599
10176TIP3   OH252018   3.869   1.575  11.064 -0.4155 -0.3270  0.3153
10176TIP3    H152019   3.894   1.486  11.089  1.1539  0.1288  0.4667
10176TIP3    H252020   3.882   1.578  10.969 -0.9258 -0.3909  0.2402
10177TIP3   OH252021   4.451   0.879  12.850 -0.4021 -0.5280 -0.8648
10177TIP3    H152022   4.426   0.963  12.888 -2.8587 -0.8535 -1.6206
10177TIP3    H252023   4.428   0.814  12.916  1.2313 -0.6836 -0.3969
10178TIP3   OH252024   1.603   5.074   1.079 -0.1453  0.1169 -0.6046
10178TIP3    H152025   1.685   5.103   1.040  1.1239 -0.1615  1.7163
10178TIP3    H252026   1.587   4.988   1.040  0.5120  0.2800 -1.2496
10179TIP3   OH252027   5.911   2.196  16.561  0.5874 -0.0656 -0.8995
10179TIP3    H152028   5.828   2.150  16.548 -0.1885  0.6212  1.2203
10179TIP3    H252029   5.976   2.126  16.570 -0.4709 -0.8509  1.6114
10180TIP3   OH252030   6.163   3.554  14.310 -0.0611  0.3621 -0.1648
10180TIP3    H152031   6.231   3.488  14.298 -0.1493  0.0897  0.7434
10180TIP3    H252032   6.120   3.561  14.225 -2.5904 -3.5710  0.5189
10181TIP3   OH252033   2.881   2.763   2.800 -0.5990  0.2237 -0.0187
10181TIP3    H152034   2.816   2.776   2.869 -1.2922 -0.0837 -0.6029
10181TIP3    H252035   2.964   2.788   2.840 -1.1066  0.8407  0.6662
10182TIP3   OH252036   6.757   1.435  16.327 -0.3824 -0.5014 -0.5998
10182TIP3    H152037   6.746   1.341  16.317  1.2558 -0.9332  1.2385
10182TIP3    H252038   6.699   1.460  16.399 -1.6738  0.1393 -1.8121
10183TIP3   OH252039   5.077   2.871  16.098  0.3888  0.0520  0.1300
10183TIP3    H152040   5.085   2.955  16.143 -0.8521  0.1438  0.2207
10183TIP3    H252041   5.038   2.892  16.013 -1.0501 -0.5417  0.6203
10184TIP3   OH252042   3.598   1.390  15.697 -0.2069 -0.3106 -0.0694
10184TIP3    H152043   3.552   1.363  15.777 -0.6266  0.6941  0.0520
10184TIP3    H252044   3.574   1.324  15.632  2.1466 -2.6177  1.2136
10185TIP3   OH252045   5.406   3.261   1.022 -0.1811 -0.0352 -0.1086
10185TIP3    H152046   5.320   3.230   0.995 -0.5136 -0.3589  1.2471
10185TIP3    H252047   5.427   3.209   1.100  0.6200  0.9853  0.3856
10186TIP3   OH252048   2.819   4.011  15.475 -0.0593  0.6126 -0.0750
10186TIP3    H152049   2.766   3.932  15.464  1.0332 -0.1241 -0.1988
10186TIP3    H252050   2.780   4.056  15.550 -0.5785 -0.1318  0.1134
10187TIP3   OH252051   4.659   0.320   3.215  0.1329  0.0626  0.0141
10187TIP3    H152052   4.679   0.227   3.221  0.7085  0.2091  0.4424
10187TIP3    H252053   4.727   0.363   3.267  0.8506  0.8381 -1.4753
10188TIP3   OH252054   5.886   1.199   4.685 -0.0095  0.1749 -0.3536
10188TIP3    H152055   5.959   1.238   4.732  0.0819  1.8592 -1.7648
10188TIP3    H252056   5.880   1.109   4.718 -0.2717  1.3345  3.1593
10189TIP3   OH252057   2.688   5.324   4.468 -0.7000 -0.4154  0.1110
10189TIP3    H152058   2.615   5.305   4.409 -1.0915 -0.3281  0.5625
10189TIP3    H252059   2.744   5.246   4.462 -1.1437 -0.7466  0.2309
10190TIP3   OH252060   6.277   4.979  11.383  0.1389  0.0926 -0.5606
10190TIP3    H152061   6.265   4.928  11.303 -1.3156  1.4298 -1.2409
10190TIP3    H252062   6.188   4.996  11.414  0.6457  0.7881  0.5565
10191TIP3   OH252063   5.410   1.901  13.966 -0.6813 -0.0667 -0.3099
10191TIP3    H152064   5.416   1.842  14.041 -0.5843  0.6944  0.2931
10191TIP3    H252065   5.420   1.989  14.004  0.1937  0.2867 -1.3116
10192TIP3   OH252066   3.611   0.541   0.761 -0.4355 -0.2834 -0.3816
10192TIP3    H152067   3.517   0.528   0.749 -0.5149  0.5166 -0.6580
10192TIP3    H252068   3.647   0.543   0.672 -0.3472  0.7348 -0.3337
10193TIP3   OH252069   2.430   6.214   4.494 -0.1008  0.0501 -0.2194
10193TIP3    H152070   2.406   6.239   4.583 -1.0871 -0.5995 -0.2852
10193TIP3    H252071   2.413   6.291   4.441 -0.2709  0.1865  0.0325
10194TIP3   OH252072   5.728   3.258  12.003 -0.4147  0.3045 -0.1820
10194TIP3    H152073   5.730   3.249  11.908  0.1960  0.3189 -0.1747
10194TIP3    H252074   5.814   3.295  12.025 -0.4961  0.1560  0.3885
10195TIP3   OH252075   4.455   5.427  11.595 -0.7225  0.2257  0.3763
10195TIP3    H152076   4.446   5.464  11.684 -1.4917 -0.6710  0.6879
10195TIP3    H252077   4.542   5.388  11.594 -0.2704  1.1957  0.3580
10196TIP3   OH252078   6.720   5.950   3.802 -0.2833  0.1781 -0.3014
10196TIP3    H152079   6.628   5.932   3.822 -0.0439 -0.8771 -0.0706
10196TIP3    H252080   6.719   6.034   3.757 -1.3242  0.3569  0.0195
10197TIP3   OH252081   1.790   0.012   3.738  0.1299 -0.2301  0.0701
10197TIP3    H152082   1.821  -0.027   3.819 -2.0925  1.5302  1.9334
10197TIP3    H252083   1.701  -0.022   3.727 -0.1456  0.7047 -0.7973
10198TIP3   OH252084   6.557   3.511   3.497 -0.7749 -0.5954 -0.2278
10198TIP3    H152085   6.578   3.419   3.512 -0.4626 -0.8204 -1.8803
10198TIP3    H252086   6.523   3.514   3.407  0.6484  1.1030 -0.7597
10199TIP3   OH252087   1.773   4.392   1.919  0.2958  0.2057 -0.4614
10199TIP3    H152088   1.795   4.299   1.928  1.6466  0.3890 -1.4949
10199TIP3    H252089   1.678   4.395   1.930 -0.0326 -1.5666 -2.1691
10200TIP3   OH252090   2.316   6.008   3.124  0.1363  0.1142  0.3891
10200TIP3    H152091   2.382   6.076   3.112 -0.9405  1.2367  0.5718
10200TIP3    H252092   2.330   5.947   3.052  0.7413  0.8694 -0.1412
10201TIP3   OH252093   5.611   2.602  11.614  0.3615  0.2120 -0.2867
10201TIP3    H152094   5.581   2.683  11.572  2.2622 -0.2342 -2.7571
10201TIP3    H252095   5.673   2.631  11.680 -0.4078  0.8333  0.1767
10202TIP3   OH252096   6.621   3.560   0.797  0.7014  0.5531 -0.1305
10202TIP3    H152097   6.683   3.629   0.775  1.2546  0.6171  1.5419
10202TIP3    H252098   6.675   3.482   0.811 -0.0374 -1.0392 -4.4389
10203TIP3   OH252099   0.949   4.271  14.777  0.4542 -0.1254  0.0146
10203TIP3    H152100   0.910   4.317  14.852  1.0739 -1.0230  0.9183
10203TIP3    H252101   0.998   4.338  14.730 -0.4603  0.5846  0.0385
10204TIP3   OH252102   6.345   6.598   1.754 -0.1506  0.2018  0.3211
10204TIP3    H152103   6.391   6.540   1.693 -1.0644  0.4663 -0.6422
10204TIP3    H252104   6.403   6.673   1.764 -0.8935  1.1853 -1.9756
10205TIP3   OH252105   6.044   4.296  16.420  0.0589  1.0058  0.1355
10205TIP3    H152106   6.111   4.235  16.389  1.2930  1.9030  0.9287
10205TIP3    H252107   5.987   4.310  16.345  0.2823 -0.4179 -0.3164
10206TIP3   OH252108   1.289   0.049   6.381 -0.2821 -0.3875 -0.2247
10206TIP3    H152109   1.232   0.037   6.306  0.9271 -0.0930 -1.2278
10206TIP3    H252110   1.292   0.144   6.396  1.2904 -0.2155 -1.3231
10207TIP3   OH252111   0.127   0.692  13.777  0.3613  0.2080  0.1289
10207TIP3    H152112   0.070   0.652  13.711 -0.4217  1.0586  0.2663
10207TIP3    H252113   0.098   0.783  13.781 -0.4232 -0.0805  2.5021
10208TIP3   OH252114   3.756   2.878   5.232 -0.8821  0.3259 -0.3577
10208TIP3    H152115   3.847   2.904   5.245 -0.9517 -0.5455  2.4129
10208TIP3    H252116   3.734   2.912   5.145  2.3440 -0.2721 -1.5394
10209TIP3   OH252117   0.800   2.683  11.669 -0.3003 -0.4325 -0.2814
10209TIP3    H152118   0.707   2.662  11.683 -0.5354 -0.4038 -1.6641
10209TIP3    H252119   0.842   2.659  11.751 -1.6442  0.2694  0.6592
10210TIP3   OH252120   5.586   4.788   0.826  0.1204 -0.5508  0.5749
10210TIP3    H152121   5.521   4.739   0.777 -0.1364  0.8736 -0.5775
10210TIP3    H252122   5.536   4.832   0.895 -0.3487  1.2481 -0.8440
10211TIP3   OH252123   2.980   4.890  11.319 -0.2514  0.3876  0.7734
10211TIP3    H152124   3.064   4.856  11.289  0.0619  0.8872  1.0696
10211TIP3    H252125   3.003   4.963  11.377 -0.8976  0.7366  0.5986
10212TIP3   OH252126   0.604   0.127   1.553 -0.1942  0.5799 -0.5419
10212TIP3    H152127   0.627   0.067   1.624  0.8407 -0.4594 -1.7166
10212TIP3    H252128   0.508   0.120   1.546 -0.5362  1.8532  1.6963
10213TIP3   OH252129   2.774   2.433  11.927  0.0195  0.0334  0.3317
10213TIP3    H152130   2.794   2.499  11.861  0.4950  0.4205  0.8491
10213TIP3    H252131   2.699   2.386  11.892 -0.3133  0.8364 -0.0567
10214TIP3   OH252132   3.316   2.457  14.893 -0.2578 -0.3256  0.4275
10214TIP3    H152133   3.365   2.537  14.913 -1.3877  1.1439 -2.0973
10214TIP3    H252134   3.353   2.426  14.810 -3.0667  0.5622 -1.3150
10215TIP3   OH252135   6.435   4.646  16.464 -0.2624 -0.3131 -0.3986
10215TIP3    H152136   6.419   4.675  16.374 -0.5603  2.3694  0.4274
10215TIP3    H252137   6.350   4.653  16.507  0.3776  1.2292  0.7439
10216TIP3   OH252138   1.713   0.425   2.888  0.1693  0.4997  0.0081
10216TIP3    H152139   1.671   0.359   2.943  2.0802 -1.2293 -0.4769
10216TIP3    H252140   1.751   0.487   2.950 -1.7325  1.2804  0.4667
10217TIP3   OH252141   2.570   1.855  14.876  0.5457 -0.9437 -0.1277
10217TIP3    H152142   2.493   1.911  14.884  1.2946  0.0888  0.0896
10217TIP3    H252143   2.536   1.766  14.880 -0.9049 -0.5581 -2.5274
10218TIP3   OH252144   5.883   4.378  14.050  0.2158  0.2907 -0.1198
10218TIP3    H152145   5.872   4.296  14.099  0.4619 -1.3594 -2.6412
10218TIP3    H252146   5.977   4.381  14.032  0.2008  1.1419 -0.0739
10219TIP3   OH252147   4.770   6.239   3.753 -1.0178 -0.2935 -0.1767
10219TIP3    H152148   4.747   6.158   3.798  0.7457 -0.8887 -0.2927
10219TIP3    H252149   4.688   6.290   3.752 -1.9994 -1.7982  0.4213
10220TIP3   OH252150   6.300   4.578  12.752 -0.4474 -0.7004  0.1700
10220TIP3    H152151   6.314   4.589  12.846 -0.5449 -1.9848  0.3583
10220TIP3    H252152   6.249   4.655  12.726  0.0688 -0.0379  1.0424
10221TIP3   OH252153   0.922   4.851  17.289  0.4316 -0.2946 -0.4133
10221TIP3    H152154   0.964   4.817  17.368  1.3619  2.4876  0.4298
10221TIP3    H252155   0.994   4.889  17.239 -0.4681  0.1755 -1.3786
10222TIP3   OH252156   4.539   4.654   5.165 -0.1051  0.4043  0.0348
10222TIP3    H152157   4.605   4.690   5.224  1.5083 -0.4071 -1.2038
10222TIP3    H252158   4.582   4.650   5.080 -1.2015 -1.6265 -0.4965
10223TIP3   OH252159   2.254   5.900  15.601 -0.0937 -0.0158 -0.2540
10223TIP3    H152160   2.236   5.899  15.507 -0.0784  1.0811 -0.2888
10223TIP3    H252161   2.282   5.990  15.618 -1.3149  0.1535  1.0123
10224TIP3   OH252162   0.764   3.384  12.564 -0.5191  0.0110 -0.2932
10224TIP3    H152163   0.707   3.412  12.635 -0.6333  1.3174 -0.8743
10224TIP3    H252164   0.838   3.446  12.567 -0.5593  0.1302 -1.3329
10225TIP3   OH252165   2.313   5.026  12.390  0.4739  0.6271 -0.1033
10225TIP3    H152166   2.324   5.083  12.314  0.8014  0.3961 -0.2325
10225TIP3    H252167   2.303   4.938  12.354 -0.4533  0.6513  0.0782
10226TIP3   OH252168   6.522   6.447  16.878  0.2571 -0.2608  0.1076
10226TIP3    H152169   6.581   6.372  16.879  0.1155 -0.3955  2.1741
10226TIP3    H252170   6.579   6.522  16.857  0.8614 -0.6152  0.4564
10227TIP3   OH252171   6.336   1.233   1.055  0.5076  0.3284  0.0061
10227TIP3    H152172   6.301   1.184   1.130 -0.0724 -0.6707 -0.8821
10227TIP3    H252173   6.268   1.225   0.988  0.5322  2.1338 -0.2872
10228TIP3   OH252174   1.495   0.230  11.631 -0.2497 -0.2814  0.2834
10228TIP3    H152175   1.431   0.159  11.628 -0.3733 -0.1348 -1.8093
10228TIP3    H252176   1.548   0.211  11.708 -1.5984 -1.4623  0.9673
10229TIP3   OH252177   1.535   5.311   2.813 -0.4180  0.2886  0.1336
10229TIP3    H152178   1.515   5.226   2.774  0.8482 -0.5901  1.2998
10229TIP3    H252179   1.620   5.335   2.776 -0.6980  0.9886 -0.0697
10230TIP3   OH252180   6.454   0.925  13.832  0.1440 -0.0212  0.0332
10230TIP3    H152181   6.447   0.911  13.926  0.4223  0.1652  0.0839
10230TIP3    H252182   6.418   1.013  13.817  0.4414  0.1011  0.0182
10231TIP3   OH252183   6.633   4.529  16.227 -0.7249  0.8313  0.3566
10231TIP3    H152184   6.709   4.534  16.170 -0.9190 -0.8818 -0.1336
10231TIP3    H252185   6.566   4.486  16.174 -0.7974 -1.1706  1.9158
10232TIP3   OH252186   4.452   1.735  12.048 -0.2046  0.1353  0.2649
10232TIP3    H152187   4.438   1.756  11.956  0.6951 -0.2150  0.0430
10232TIP3    H252188   4.533   1.684  12.050  0.0389  0.5218  1.2956
10233TIP3   OH252189   4.567   1.636   5.765  0.0319  0.0481 -0.4336
10233TIP3    H152190   4.584   1.729   5.754 -0.9168  0.2784 -0.0620
10233TIP3    H252191   4.605   1.613   5.849  0.6239 -0.0010 -0.7085
10234TIP3   OH252192   6.254   1.083  14.196 -0.3501  0.0434 -0.0905
10234TIP3    H152193   6.196   1.072  14.271 -0.6721 -0.1734 -0.3707
10234TIP3    H252194   6.197   1.077  14.120 -0.6322  3.7339 -0.3503
10235TIP3   OH252195   0.915   1.598   2.514  0.0746 -0.2123  0.2599
10235TIP3    H152196   1.010   1.611   2.517  0.1518 -0.8159  0.7144
10235TIP3    H252197   0.896   1.584   2.421  0.4719 -0.3310  0.1942
10236TIP3   OH252198   4.377   6.008  17.087 -0.2784 -0.1181  0.2920
10236TIP3    H152199   4.375   6.030  17.180 -1.2672  0.3966  0.1525
10236TIP3    H252200   4.327   6.078  17.044  0.4163 -0.1866 -0.6627
10237TIP3   OH252201   1.093   2.779   2.595 -0.3696 -0.5318  0.7349
10237TIP3    H152202   1.171   2.833   2.609  0.0962 -1.5028  2.1192
10237TIP3    H252203   1.094   2.761   2.501  1.8177 -1.5278  0.8713
10238TIP3   OH252204   5.667   0.294   2.581 -0.0528 -0.4548  0.1554
10238TIP3    H152205   5.590   0.277   2.635 -1.3201  1.8079 -0.7932
10238TIP3    H252206   5.724   0.347   2.636  0.9262 -2.1188  0.8529
10239TIP3   OH252207   6.194   4.312  14.383 -0.0106 -0.6221  0.2073
10239TIP3    H152208   6.102   4.332  14.400  0.1895  0.5728 -0.0021
10239TIP3    H252209   6.240   4.393  14.403  0.4355  0.5192 -4.2527
10240TIP3   OH252210   0.284   6.655  11.413  0.5005 -0.0399  0.0261
10240TIP3    H152211   0.373   6.688  11.429  0.3527  0.3754 -0.0126
10240TIP3    H252212   0.240   6.725  11.366  0.2995 -0.4461 -0.3998
10241TIP3   OH252213   2.328   6.518  14.171 -0.3009 -0.1506  0.0213
10241TIP3    H152214   2.391   6.476  14.231 -1.5786  0.6600  2.0360
10241TIP3    H252215   2.348   6.480  14.085  1.5713 -1.4362  0.9471
10242TIP3   OH252216   6.264   2.302  15.258 -0.0700 -0.1651 -0.2875
10242TIP3    H152217   6.231   2.356  15.329 -2.0252 -0.5216 -0.8489
10242TIP3    H252218   6.345   2.264  15.292  0.2509  1.4456  0.8703
10243TIP3   OH252219   1.758   1.354  13.852  0.1098  0.1746  0.4456
10243TIP3    H152220   1.737   1.267  13.816  2.1964  0.0892 -0.6916
10243TIP3    H252221   1.773   1.408  13.775 -0.5692  1.4145  1.1628
10244TIP3   OH252222   1.846   5.677  16.629 -0.4533  0.1754  0.1102
10244TIP3    H152223   1.887   5.592  16.645  0.3303  0.7306  1.2207
10244TIP3    H252224   1.786   5.689  16.703  0.5423  1.2107  0.7989
10245TIP3   OH252225   5.106   3.982  12.995 -0.3872 -0.3622 -0.1208
10245TIP3    H152226   5.167   3.914  13.025 -0.6488  0.2600  1.9948
10245TIP3    H252227   5.159   4.062  12.995 -0.9592  0.0334  0.9040
10246TIP3   OH252228   3.871   6.691   3.279 -0.0377 -0.1403  0.4591
10246TIP3    H152229   3.944   6.752   3.266 -0.8407  0.6578 -0.4080
10246TIP3    H252230   3.801   6.745   3.316 -1.0892 -0.2975 -1.2381
10247TIP3   OH252231   1.343   0.977   5.648  0.2151 -0.2381 -0.2903
10247TIP3    H152232   1.410   1.026   5.599  1.9480 -1.2125  0.9973
10247TIP3    H252233   1.269   1.037   5.654  0.3824  0.3752 -3.0001
10248TIP3   OH252234   2.930   6.480  15.206  0.3315 -0.6882  0.3921
10248TIP3    H152235   2.990   6.555  15.212  1.2904 -1.4840  1.1815
10248TIP3    H252236   2.844   6.519  15.192  0.9909  0.5028 -0.5352
10249TIP3   OH252237   2.332   1.819  13.346  0.2559  0.2201  0.0186
10249TIP3    H152238   2.300   1.871  13.272 -0.4144  0.4955  0.4890
10249TIP3    H252239   2.384   1.749  13.306  0.1755  0.5539 -0.6888
10250TIP3   OH252240   5.346   5.145  14.945 -0.8591  0.5806  0.2547
10250TIP3    H152241   5.341   5.098  14.862 -2.2503 -0.1526  0.7256
10250TIP3    H252242   5.440   5.162  14.957 -0.4169 -1.1062 -0.4808
10251TIP3   OH252243   2.595   5.647  11.755  0.1330 -0.3018  0.3203
10251TIP3    H152244   2.522   5.599  11.795 -1.9724  1.9919 -0.4868
10251TIP3    H252245   2.646   5.678  11.829 -2.4999  2.0693  1.3346
10252TIP3   OH252246   3.466   1.701  11.232 -0.1186  0.0521  0.2908
10252TIP3    H152247   3.426   1.686  11.146 -0.0583  1.8405 -0.0858
10252TIP3    H252248   3.392   1.700  11.292 -0.5430  1.5236 -0.1678
10253TIP3   OH252249   2.294   4.565   0.418  0.2405 -0.2299 -0.2452
10253TIP3    H152250   2.199   4.565   0.433  0.1671  0.2382 -0.6809
10253TIP3    H252251   2.319   4.473   0.420 -0.4990 -0.4985 -1.8576
10254TIP3   OH252252   1.534   6.342   5.475  0.0935  0.0358 -0.0300
10254TIP3    H152253   1.455   6.357   5.423 -0.0889 -0.8613 -0.0291
10254TIP3    H252254   1.559   6.251   5.455 -0.1723 -0.4471  1.6965
10255TIP3   OH252255   2.155   5.103  13.672 -0.0702  0.3700  0.4162
10255TIP3    H152256   2.185   5.086  13.761 -2.1694 -0.3492  1.0496
10255TIP3    H252257   2.067   5.065  13.669 -1.1559  2.7463 -1.1129
10256TIP3   OH252258   6.164   0.713  13.502  0.4288  0.4578 -0.0184
10256TIP3    H152259   6.153   0.770  13.578 -1.4444 -0.4190  0.4446
10256TIP3    H252260   6.085   0.728  13.450  0.6883 -0.4983 -0.7146
10257TIP3   OH252261   2.715   2.290  16.503 -0.0456 -0.1814  0.2554
10257TIP3    H152262   2.706   2.306  16.409 -0.2414 -1.6541 -0.0090
10257TIP3    H252263   2.773   2.214  16.508  0.1161  0.0049  1.3349
10258TIP3   OH252264   4.520   0.382  15.766 -0.3266 -0.0916  0.6937
10258TIP3    H152265   4.553   0.462  15.807  1.1518 -0.4002  0.1846
10258TIP3    H252266   4.541   0.313  15.829  0.7164 -0.3871  0.0448
10259TIP3   OH252267   2.059   4.244   3.422  0.3710 -0.2359 -0.2634
10259TIP3    H152268   2.140   4.199   3.447 -0.4581 -0.9256  1.2959
10259TIP3    H252269   1.994   4.174   3.413  0.1007  0.2228 -2.2857
10260TIP3   OH252270   3.847   2.930  12.552 -0.0227 -0.2558  0.5278
10260TIP3    H152271   3.870   2.853  12.500 -0.0614 -0.2586  0.5144
10260TIP3    H252272   3.803   2.894  12.629 -1.3734 -0.1893 -0.1628
10261TIP3   OH252273   3.473   4.761  16.050 -0.1470 -0.5307 -0.0289
10261TIP3    H152274   3.404   4.740  16.113 -0.4363  0.0552 -0.1495
10261TIP3    H252275   3.442   4.723  15.968 -1.1601  1.1983 -0.4896
10262TIP3   OH252276   4.926   2.857  11.995  0.6717 -0.0451 -0.2230
10262TIP3    H152277   4.858   2.924  12.003  1.0247  0.2164  0.6304
10262TIP3    H252278   4.890   2.780  12.040  0.6827 -0.1064 -0.3184
10263TIP3   OH252279   6.413   1.505  12.622 -0.1373 -0.5555 -0.5006
10263TIP3    H152280   6.371   1.567  12.562  1.6629  0.2586 -0.9934
10263TIP3    H252281   6.505   1.506  12.596  0.3437 -1.6325  1.0622
10264TIP3   OH252282   2.396   1.465  12.894 -0.2356  0.5086 -0.0331
10264TIP3    H152283   2.401   1.387  12.950  0.7608 -0.1808 -1.0378
10264TIP3    H252284   2.474   1.515  12.916 -0.1661  0.5461 -0.3669
10265TIP3   OH252285   3.986   5.671  13.055 -0.2537 -0.3381 -0.5854
10265TIP3    H152286   4.042   5.654  13.131  0.8493  1.1822 -1.0038
10265TIP3    H252287   3.902   5.699  13.091 -0.2367 -1.1023  0.0580
10266TIP3   OH252288   1.997   1.577   5.219 -0.5952  0.1288  0.0209
10266TIP3    H152289   2.013   1.515   5.290  0.2363  1.9195  1.4674
10266TIP3    H252290   1.912   1.551   5.183 -0.7521 -1.1886  1.2587
10267TIP3   OH252291   3.684   3.537  15.005  0.5474 -0.3091  0.4391
10267TIP3    H152292   3.675   3.455  15.054  1.0284 -0.7888 -0.2579
10267TIP3    H252293   3.770   3.571  15.030 -0.7090  1.3973  2.7951
10268TIP3   OH252294   1.829   2.635  15.246  0.3631  0.0737 -0.3739
10268TIP3    H152295   1.844   2.611  15.154  0.4380  0.2418 -0.4053
10268TIP3    H252296   1.871   2.565  15.296 -0.9141 -0.7884 -0.4713
10269TIP3   OH252297   4.753   5.483   0.895  0.4834  0.4199  0.2979
10269TIP3    H152298   4.764   5.415   0.962  0.3021 -0.1186 -0.2060
10269TIP3    H252299   4.836   5.484   0.848  0.9309  1.4039  1.0597
10270TIP3   OH252300   2.918   1.782  14.043  0.0989  0.2758 -0.0816
10270TIP3    H152301   2.823   1.790  14.040  0.2012  1.7842  0.1315
10270TIP3    H252302   2.933   1.698  14.086 -1.1262 -1.0980 -2.1426
10271TIP3   OH252303   0.845   5.222  15.519  0.3102  0.3599 -0.6747
10271TIP3    H152304   0.847   5.267  15.434  2.7184  0.0009 -0.8817
10271TIP3    H252305   0.850   5.292  15.584  1.4657  0.5348 -0.9318
10272TIP3   OH252306   3.044   0.301   4.493  0.5876  0.3014 -0.2790
10272TIP3    H152307   3.007   0.239   4.556  0.0648  0.5595 -0.3296
10272TIP3    H252308   3.012   0.271   4.408  1.0617  0.1228 -0.4014
10273TIP3   OH252309   1.730   3.746  15.431 -0.6105  0.2880  0.0609
10273TIP3    H152310   1.681   3.817  15.472  0.4927  0.6603  0.7782
10273TIP3    H252311   1.716   3.671  15.489 -0.8637  0.2204 -0.0884
10274TIP3   OH252312   5.850   3.365  13.121  0.2725  0.2047 -0.0986
10274TIP3    H152313   5.808   3.445  13.154 -0.5369 -1.2896  2.8877
10274TIP3    H252314   5.780   3.299  13.121  1.3308 -0.9605 -0.6857
10275TIP3   OH252315   5.839   5.031  13.959  0.2675  0.0740  0.1929
10275TIP3    H152316   5.918   4.977  13.954  0.6756  0.7962 -2.3194
10275TIP3    H252317   5.814   5.046  13.868 -2.8707 -0.2284  0.8861
10276TIP3   OH252318   0.411   3.802  10.989  0.5505 -0.1690 -0.1021
10276TIP3    H152319   0.358   3.725  10.967  0.1517  0.2908 -0.8168
10276TIP3    H252320   0.501   3.770  10.991  0.5305 -0.4167 -1.6909
10277TIP3   OH252321   2.625   1.004   1.894  0.0018 -0.2612 -1.0191
10277TIP3    H152322   2.535   1.030   1.873 -0.4421 -0.2159  0.7867
10277TIP3    H252323   2.623   0.986   1.988  1.9113 -0.1629 -0.9306
10278TIP3   OH252324   6.195   4.759  16.912  0.0345  0.4146  0.1296
10278TIP3    H152325   6.243   4.825  16.963  1.5132  0.6881 -1.5008
10278TIP3    H252326   6.123   4.808  16.872 -1.5267  0.0723  2.3282
10279TIP3   OH252327   4.046   3.888   2.380 -0.0294 -0.5670  0.2555
10279TIP3    H152328   4.113   3.886   2.311  0.8436 -0.3737  1.0858
10279TIP3    H252329   3.963   3.883   2.332  0.5243  0.5911 -0.8766
10280TIP3   OH252330   2.420   6.166  16.438 -0.0747 -0.1256  0.0474
10280TIP3    H152331   2.375   6.246  16.463 -0.3760  0.1172 -1.2452
10280TIP3    H252332   2.470   6.189  16.360  1.0753 -0.7969  0.5567
10281TIP3   OH252333   0.372   4.072  15.449 -0.1355 -0.7339  0.5545
10281TIP3    H152334   0.299   4.011  15.438 -0.3685 -0.4803  0.6967
10281TIP3    H252335   0.439   4.021  15.495  0.8583 -1.8231 -1.8946
10282TIP3   OH252336   2.604   3.625   3.224  0.0757 -1.2057  0.4324
10282TIP3    H152337   2.671   3.622   3.292  2.1053 -1.6333 -1.4811
10282TIP3    H252338   2.581   3.533   3.209  0.4673 -1.2064 -0.2042
10283TIP3   OH252339   3.585   4.664   3.675  0.2137  0.1421  0.4086
10283TIP3    H152340   3.653   4.732   3.680  0.1686  0.2167  0.0563
10283TIP3    H252341   3.589   4.620   3.760 -0.4625  1.2480  1.0500
10284TIP3   OH252342   6.040   5.111  15.367 -0.1817 -0.2023  0.1557
10284TIP3    H152343   5.964   5.170  15.363 -1.8018 -2.2013 -0.4095
10284TIP3    H252344   6.095   5.137  15.294 -0.4290  1.1141  0.4108
10285TIP3   OH252345   4.927   0.110   0.014 -0.3678 -0.3563  0.0995
10285TIP3    H152346   4.955   0.087  -0.074  1.1647  1.1180  0.1487
10285TIP3    H252347   4.991   0.068   0.071 -0.5574 -0.1844  0.4435
10286TIP3   OH252348   4.073   4.952   2.951 -0.2682 -0.0974  0.5784
10286TIP3    H152349   4.003   4.982   2.894 -0.8696  0.1217  1.4160
10286TIP3    H252350   4.150   5.000   2.922 -0.6386  0.2450  0.1550
10287TIP3   OH252351   6.040   5.903   5.286 -0.0224  0.0833  0.0781
10287TIP3    H152352   6.022   5.813   5.313 -0.8664 -0.6049 -2.4218
10287TIP3    H252353   5.953   5.938   5.265  0.4381  0.9528 -0.4032
10288TIP3   OH252354   2.477   6.623  12.822 -0.2047  0.3683 -0.2476
10288TIP3    H152355   2.555   6.664  12.859 -1.2334 -0.7965  3.6453
10288TIP3    H252356   2.414   6.695  12.814  0.1975  0.7291 -0.2134
10289TIP3   OH252357   1.255   5.392  15.970 -0.0920 -0.5764  0.2606
10289TIP3    H152358   1.273   5.299  15.956  0.1016 -0.2109 -2.5452
10289TIP3    H252359   1.164   5.394  15.998  0.0905 -1.6265  1.0124
10290TIP3   OH252360   3.046   0.714  11.880 -0.1523 -0.2369 -0.3152
10290TIP3    H152361   2.957   0.696  11.908 -0.3441  4.6318  3.5844
10290TIP3    H252362   3.101   0.668  11.944  0.1141 -1.0914 -1.1294
10291TIP3   OH252363   5.646   0.020  14.866 -0.1681 -0.2118  0.2067
10291TIP3    H152364   5.661   0.107  14.828  1.2789 -0.2497  0.6664
10291TIP3    H252365   5.718   0.007  14.927 -1.3082 -1.0431  1.4246
10292TIP3   OH252366   5.592   1.160  16.798 -0.1753 -0.3981  0.5766
10292TIP3    H152367   5.647   1.089  16.766  0.5750  0.2204  0.4668
10292TIP3    H252368   5.588   1.147  16.893 -1.1310 -1.3383  0.4222
10293TIP3   OH252369   3.889   3.635  16.461 -0.3175  0.4189 -0.2563
10293TIP3    H152370   3.814   3.680  16.422 -0.2821  1.5879  0.9625
10293TIP3    H252371   3.850   3.559  16.505 -0.7922  0.9528  0.2660
10294TIP3   OH252372   3.749   4.442   3.595  0.0111  0.0394 -0.0976
10294TIP3    H152373   3.700   4.362   3.575  1.6964 -0.4965 -2.4174
10294TIP3    H252374   3.685   4.512   3.582 -0.6673 -0.7399 -1.1076
10295TIP3   OH252375   2.431   0.053  14.528  0.1917 -0.2952 -0.5698
10295TIP3    H152376   2.453   0.142  14.555  0.1502  0.4730 -2.8482
10295TIP3    H252377   2.337   0.056  14.508  0.3340 -0.6162 -1.3540
10296TIP3   OH252378   2.276   4.051  11.893  0.0642  0.7103  0.1408
10296TIP3    H152379   2.372   4.042  11.891 -0.0327 -0.3129 -0.5528
10296TIP3    H252380   2.261   4.143  11.912  1.1927  0.9290  0.0353
10297TIP3   OH252381   4.718   0.714  15.665  0.1129  0.0494 -0.2404
10297TIP3    H152382   4.811   0.722  15.644  0.2591 -0.7433  0.0949
10297TIP3    H252383   4.715   0.655  15.740 -0.7416 -0.8457 -0.9552
10298TIP3   OH252384   1.549   5.990   2.553  0.0528 -0.1356 -0.4406
10298TIP3    H152385   1.574   5.920   2.493  1.8292  0.7687 -0.8075
10298TIP3    H252386   1.584   5.964   2.638 -0.1633 -0.1583 -0.3568
10299TIP3   OH252387   3.765   6.654  14.633 -0.1681  0.3517  0.3404
10299TIP3    H152388   3.781   6.604  14.553  1.2656 -2.3759  2.1770
10299TIP3    H252389   3.690   6.710  14.611 -0.3070 -0.7990 -2.6510
10300TIP3   OH252390   2.998   5.855   3.378  0.1949 -0.2581  0.1524
10300TIP3    H152391   3.031   5.936   3.338 -0.1040 -0.9519 -1.6220
10300TIP3    H252392   3.065   5.831   3.442  0.8282  0.8050 -0.0764
10301TIP3   OH252393   1.403   2.572   0.187 -0.8527  0.0108  0.0970
10301TIP3    H152394   1.457   2.640   0.148 -0.7957  0.2301  0.5505
10301TIP3    H252395   1.358   2.531   0.113 -0.6024  0.2940 -0.2118
10302TIP3   OH252396   3.019   6.181   5.928 -0.2860  0.3124  0.7805
10302TIP3    H152397   2.944   6.202   5.984  0.3227 -1.3553  2.3180
10302TIP3    H252398   3.094   6.182   5.986  0.6415  0.2219 -0.3794
10303TIP3   OH252399   4.822   3.358   1.505 -0.2277  0.3720  0.0135
10303TIP3    H152400   4.731   3.376   1.527 -0.4679 -1.5976  0.7484
10303TIP3    H252401   4.819   3.319   1.418 -0.0496  0.5388 -0.0699
10304TIP3   OH252402   2.387   1.997  13.929 -0.1998  0.1940 -0.1469
10304TIP3    H152403   2.482   1.990  13.921 -0.0661  0.3750  1.0669
10304TIP3    H252404   2.367   2.088  13.906  0.0607  0.4566  0.6241
10305TIP3   OH252405   2.588   0.162   6.046  0.4003 -0.6924 -0.2019
10305TIP3    H152406   2.576   0.204   6.131 -1.6086  1.3018 -1.3744
10305TIP3    H252407   2.674   0.120   6.053  1.9445  2.3850  1.6318
10306TIP3   OH252408   4.404   2.718  13.840  0.4132  0.0843 -0.4776
10306TIP3    H152409   4.371   2.687  13.756 -0.4044  0.8998 -0.4649
10306TIP3    H252410   4.376   2.651  13.903 -0.2638  0.2218 -0.6336
10307TIP3   OH252411   0.915   4.897  14.960  0.4509  0.9358  0.4766
10307TIP3    H152412   0.946   4.987  14.961  0.5188  0.9189  1.9329
10307TIP3    H252413   0.903   4.874  15.053 -1.7866  0.2036  0.0555
10308TIP3   OH252414   0.585   6.338   0.175 -0.1272 -0.6619 -0.5278
10308TIP3    H152415   0.574   6.289   0.256 -1.6659 -0.3714 -0.5293
10308TIP3    H252416   0.496   6.352   0.143  0.3370  0.9026 -1.2617
10309TIP3   OH252417   4.055   3.208  11.650  0.0088  0.0604 -0.1666
10309TIP3    H152418   4.103   3.152  11.590  1.5544  1.2463 -0.0876
10309TIP3    H252419   3.964   3.182  11.640  0.5104 -1.3301 -1.3140
10310TIP3   OH252420   5.804   0.907   0.470  0.1961  0.1697 -0.0850
10310TIP3    H152421   5.803   0.849   0.545  0.7794 -1.7245 -1.4617
10310TIP3    H252422   5.750   0.864   0.404  1.3292  0.7112 -1.4580
10311TIP3   OH252423   5.671   2.627  12.932 -0.5726 -0.5188 -0.7916
10311TIP3    H152424   5.691   2.580  13.013  0.1190 -0.5495 -0.9731
10311TIP3    H252425   5.624   2.564  12.878  0.8415 -1.2180 -1.2617
10312TIP3   OH252426   5.008   2.739   0.451  0.1050 -0.0379  0.0936
10312TIP3    H152427   5.085   2.795   0.448  0.7666 -0.9256 -0.0171
10312TIP3    H252428   5.007   2.705   0.541  1.1056 -1.7031 -0.4776
10313TIP3   OH252429   6.636   3.019   3.153  0.4140 -0.3802 -0.1704
10313TIP3    H152430   6.591   2.960   3.214  1.6490 -1.3417 -0.1537
10313TIP3    H252431   6.590   3.103   3.162  1.1799 -0.1899  2.8376
10314TIP3   OH252432   0.655   6.353   0.794 -0.2674  0.2847 -0.2445
10314TIP3    H152433   0.624   6.292   0.727  1.3567 -1.8417  0.8402
10314TIP3    H252434   0.588   6.349   0.863 -0.9474  0.9856 -0.8369
10315TIP3   OH252435   0.416   2.859  15.855  0.3464  0.5542  0.0353
10315TIP3    H152436   0.480   2.812  15.802  0.3302 -0.6784  1.0654
10315TIP3    H252437   0.357   2.791  15.887 -0.7795  1.5223  0.0862
10316TIP3   OH252438   5.223   6.279   1.155 -0.2160  0.4819 -0.3964
10316TIP3    H152439   5.163   6.214   1.119 -1.0231  1.2789 -0.5265
10316TIP3    H252440   5.257   6.238   1.235 -1.1825  0.1395 -0.1418
10317TIP3   OH252441   5.880   3.112   0.176 -0.5707 -0.1880  0.4579
10317TIP3    H152442   5.972   3.093   0.160 -0.3342  0.4643  0.9600
10317TIP3    H252443   5.877   3.207   0.188 -1.1583 -0.2967  1.3237
10318TIP3   OH252444   5.265   0.537  12.616  0.5101 -0.0130 -0.5167
10318TIP3    H152445   5.197   0.490  12.665 -0.5600  0.7617 -1.2255
10318TIP3    H252446   5.227   0.552  12.530  1.6481  0.3195 -0.9808
10319TIP3   OH252447   3.268   6.559   0.207  0.0805 -0.0487  0.4030
10319TIP3    H152448   3.319   6.594   0.134  0.0916 -0.7622  0.0627
10319TIP3    H252449   3.263   6.465   0.190 -1.8399  0.0625  0.1098
10320TIP3   OH252450   3.211   4.976  16.759 -0.6784  0.0062 -0.0649
10320TIP3    H152451   3.256   4.894  16.739  0.0644  0.6470 -1.1730
10320TIP3    H252452   3.118   4.957  16.746 -0.9822 -1.7520  3.6692
10321TIP3   OH252453   3.805   2.533   5.323  0.2417  0.5743 -0.5966
10321TIP3    H152454   3.856   2.585   5.385 -0.8907  0.7966  0.1766
10321TIP3    H252455   3.867   2.510   5.254  1.5338  0.3053  0.6206
10322TIP3   OH252456   4.561   0.752  10.745 -0.2346  0.1663 -0.3798
10322TIP3    H152457   4.644   0.706  10.737  0.1084  0.2796  1.8794
10322TIP3    H252458   4.496   0.683  10.752 -0.1866  0.0648 -0.9287
10323TIP3   OH252459   1.164   5.685   4.981 -0.1333  0.0444  0.2214
10323TIP3    H152460   1.229   5.659   5.046 -0.4469 -0.0701  0.4867
10323TIP3    H252461   1.110   5.750   5.025 -0.0697  0.2972 -0.0695
10324TIP3   OH252462   6.508   2.677  10.801 -0.3336 -0.0886  0.5059
10324TIP3    H152463   6.480   2.631  10.722 -0.4007  0.1072  0.4144
10324TIP3    H252464   6.590   2.721  10.776  0.0892 -0.7011  0.7861
10325TIP3   OH252465   1.205   0.243  11.048 -0.9998 -0.3953  0.0363
10325TIP3    H152466   1.294   0.265  11.022 -0.9728 -0.3543  0.1636
10325TIP3    H252467   1.206   0.246  11.144 -1.3013  0.2765  0.0230
10326TIP3   OH252468   2.021   3.307  14.163 -0.0626 -0.4511  0.0158
10326TIP3    H152469   2.051   3.257  14.087 -0.5257 -0.6603 -0.0308
10326TIP3    H252470   1.979   3.243  14.219  0.0124 -0.2424  0.3115
10327TIP3   OH252471   2.012   6.461  14.123  0.2202  0.1095 -0.2422
10327TIP3    H152472   2.073   6.535  14.130  0.8495 -0.3379 -0.8343
10327TIP3    H252473   1.962   6.463  14.204 -1.0950  2.3292 -1.0149
10328TIP3   OH252474   1.097   6.066   3.156  0.5140 -0.0928  0.2709
10328TIP3    H152475   1.103   6.107   3.242 -0.0384  1.6927 -0.4903
10328TIP3    H252476   1.036   6.121   3.108  0.7514 -1.1017 -1.2470
10329TIP3   OH252477   0.489   4.004   4.275  0.5681 -0.5509  0.1673
10329TIP3    H152478   0.394   3.994   4.276  0.5936 -0.7823  0.1863
10329TIP3    H252479   0.521   3.943   4.341  0.7432 -0.6226  0.0180
10330TIP3   OH252480   5.629   2.053   0.816  0.4355  0.8524  0.0970
10330TIP3    H152481   5.704   2.112   0.821 -0.1197  1.5023  1.0829
10330TIP3    H252482   5.668   1.965   0.819  1.2387  1.1424 -0.9775
10331TIP3   OH252483   5.952   0.153  14.547 -0.3881  0.1676  0.1327
10331TIP3    H152484   5.915   0.169  14.634  1.2165  0.1839  0.8316
10331TIP3    H252485   5.989   0.238  14.521  0.6600 -0.2555  0.1984
10332TIP3   OH252486   0.769   4.148  16.120  0.0921  0.0097 -0.6046
10332TIP3    H152487   0.816   4.079  16.166  0.0728  0.0380 -0.5412
10332TIP3    H252488   0.677   4.134  16.144  0.1672  0.4896 -0.0199
10333TIP3   OH252489   3.110   2.803   2.184 -0.5153 -0.3524  0.6716
10333TIP3    H152490   3.080   2.881   2.231 -0.8433  0.1448 -0.3263
10333TIP3    H252491   3.034   2.777   2.132 -0.0423 -0.6644  0.1376
10334TIP3   OH252492   3.146   5.593  12.081  0.3812  0.1488  0.4756
10334TIP3    H152493   3.210   5.523  12.094  0.5676  0.0418 -0.8320
10334TIP3    H252494   3.182   5.644  12.008 -0.9386  0.1756 -0.1879
10335TIP3   OH252495   5.698   5.417   6.320 -0.1829 -0.4467  0.4050
10335TIP3    H152496   5.669   5.369   6.243  0.2339 -0.5258  0.2935
10335TIP3    H252497   5.735   5.350   6.378 -0.1229 -0.3344  0.4988
10336TIP3   OH252498   0.801   5.286   5.902 -0.3884 -0.1278  0.2909
10336TIP3    H152499   0.733   5.290   5.969 -1.1528  0.4578 -0.4993
10336TIP3    H252500   0.794   5.198   5.865  0.9610 -0.9617  1.8897
10337TIP3   OH252501   1.230   2.371  14.470 -0.4914  0.2881  0.1862
10337TIP3    H152502   1.280   2.342  14.394  0.5317  2.1250  0.0982
10337TIP3    H252503   1.144   2.395  14.435 -1.0336 -1.6164  0.1214
10338TIP3   OH252504   6.688   0.757  11.917 -0.2459 -0.7049  0.3374
10338TIP3    H152505   6.670   0.834  11.862  1.6837  0.8395  1.7081
10338TIP3    H252506   6.751   0.706  11.867  0.7997  0.2230  0.6609
10339TIP3   OH252507   6.198   1.143  13.136 -0.2139 -0.0608  0.3380
10339TIP3    H152508   6.249   1.071  13.099  0.8641  1.0963 -0.5262
10339TIP3    H252509   6.259   1.189  13.194 -0.4289  0.9636 -0.2071
10340TIP3   OH252510   1.424   0.457   5.879  0.0521 -0.3705 -0.2182
10340TIP3    H152511   1.506   0.415   5.854 -1.4630 -2.5500 -1.8912
10340TIP3    H252512   1.406   0.424   5.967  1.7421  1.4767  0.8834
10341TIP3   OH252513   4.736   0.069   3.271 -0.2642 -0.2540 -0.0912
10341TIP3    H152514   4.701  -0.014   3.306 -0.0455 -0.3149 -0.0160
10341TIP3    H252515   4.801   0.097   3.336 -2.1855  1.3413  1.2792
10342TIP3   OH252516   6.616   5.529  12.097  0.0234 -0.6414 -0.2638
10342TIP3    H152517   6.583   5.585  12.027  0.1419  0.7192  0.7204
10342TIP3    H252518   6.571   5.446  12.085 -0.1294 -0.3616 -1.8038
10343TIP3   OH252519   0.151   3.018  14.333  0.0067 -0.4527 -0.3522
10343TIP3    H152520   0.192   3.080  14.393  0.0384  0.2356 -1.0680
10343TIP3    H252521   0.208   2.941  14.335  1.2476  0.4001 -1.1711
10344TIP3   OH252522   6.033   2.634  13.405  0.3871  0.3894  0.3226
10344TIP3    H152523   6.083   2.666  13.330  0.2737 -0.0573  0.0453
10344TIP3    H252524   6.018   2.711  13.459  0.3519  0.7459 -0.1846
10345TIP3   OH252525   6.757   6.349  13.852  0.1400 -0.0196  0.0210
10345TIP3    H152526   6.684   6.405  13.878  0.8660  0.3175  1.4550
10345TIP3    H252527   6.791   6.390  13.772 -1.8786 -0.8141 -1.3273
10346TIP3   OH252528   5.934   4.705  13.746 -0.5077  0.4492  0.0821
10346TIP3    H152529   5.981   4.711  13.829  0.2420  0.2794 -0.3146
10346TIP3    H252530   5.935   4.612  13.724 -0.2220  0.5573 -0.3771
10347TIP3   OH252531   4.367   0.109   3.756  0.3228 -0.1010 -0.2277
10347TIP3    H152532   4.365   0.068   3.669 -1.4491 -0.7047  0.0536
10347TIP3    H252533   4.351   0.037   3.817  1.3377  0.3518  0.5966
10348TIP3   OH252534   1.441   5.852  17.355  0.1450  0.5626  0.4232
10348TIP3    H152535   1.419   5.759  17.356  0.3443  0.5080 -0.2001
10348TIP3    H252536   1.449   5.875  17.263 -0.2577  1.2887  0.5628
10349TIP3   OH252537   6.685   0.191   2.502 -0.0967 -0.4786 -0.3058
10349TIP3    H152538   6.759   0.239   2.537  0.1335 -0.1164 -1.2558
10349TIP3    H252539   6.709   0.099   2.511 -0.0873 -0.4038  0.5474
10350TIP3   OH252540   6.667   5.915   0.461  0.2419  0.1021  0.1612
10350TIP3    H152541   6.605   5.975   0.420  0.5511  0.5507  0.3383
10350TIP3    H252542   6.685   5.954   0.547  0.1288 -0.4609  0.4460
10351TIP3   OH252543   5.456   2.814   2.760 -0.4395  0.1011  0.0908
10351TIP3    H152544   5.551   2.812   2.771 -0.5358 -2.2131  1.1877
10351TIP3    H252545   5.435   2.734   2.711 -1.8184  0.6583 -0.2949
10352TIP3   OH252546   5.449   2.088   0.327 -0.0557 -0.0084 -0.2235
10352TIP3    H152547   5.448   2.004   0.281 -1.3628 -0.3767  0.4185
10352TIP3    H252548   5.356   2.107   0.343  0.2761  1.0981  0.4766
10353TIP3   OH252549   0.217   3.328   5.838  0.5704  0.3019  0.3114
10353TIP3    H152550   0.151   3.259   5.844 -0.1549  0.9551  0.0289
10353TIP3    H252551   0.299   3.281   5.827  0.1685 -0.5322  0.7784
10354TIP3   OH252552   1.877   4.478  13.094 -0.3393 -0.1166 -0.0093
10354TIP3    H152553   1.894   4.535  13.169  0.6217 -0.7050  0.2350
10354TIP3    H252554   1.787   4.447  13.107 -0.3724  0.2190  0.6015
10355TIP3   OH252555   0.116   3.269  12.407  0.1545 -0.3583  0.1118
10355TIP3    H152556   0.050   3.289  12.474  1.2749  0.5211  1.0007
10355TIP3    H252557   0.120   3.173  12.405 -0.6434 -0.4084  0.5473
10356TIP3   OH252558   0.253   4.128   5.379 -0.3472  0.0222 -0.1751
10356TIP3    H152559   0.165   4.164   5.387  0.0729  1.1039 -0.3179
10356TIP3    H252560   0.267   4.080   5.460 -1.1110 -0.2643 -0.2061
10357TIP3   OH252561   1.675   2.158  15.637 -0.2425  0.1891 -0.2648
10357TIP3    H152562   1.584   2.142  15.611  0.0539 -2.2789 -0.0960
10357TIP3    H252563   1.712   2.211  15.567 -0.6608 -2.5036 -2.7021
10358TIP3   OH252564   0.256   0.642  14.445  0.1771  0.1440  0.0345
10358TIP3    H152565   0.267   0.693  14.525  0.3307 -1.6496  1.2343
10358TIP3    H252566   0.345   0.629  14.412  0.0630  1.4853 -0.8657
10359TIP3   OH252567   2.342   2.608   3.865  0.4229 -0.1679 -0.0492
10359TIP3    H152568   2.281   2.635   3.934 -0.2751 -1.7600 -0.0142
10359TIP3    H252569   2.423   2.653   3.887 -0.3821  1.0478  0.5816
10360TIP3   OH252570   5.782   2.938   5.809 -0.0710 -0.1916  0.0502
10360TIP3    H152571   5.796   2.910   5.719 -2.4389  0.0865 -0.4864
10360TIP3    H252572   5.812   2.865   5.863 -0.1599 -1.0603 -1.0479
10361TIP3   OH252573   6.065   4.705   2.773 -0.7090 -0.0598  0.3769
10361TIP3    H152574   6.155   4.674   2.760 -1.1266 -0.9565 -0.5313
10361TIP3    H252575   6.074   4.798   2.792  0.2754  0.5919 -2.7255
10362TIP3   OH252576   1.418   2.045  15.582  0.7469  0.3652 -0.1439
10362TIP3    H152577   1.433   1.958  15.544  0.3980  0.4446 -0.4703
10362TIP3    H252578   1.363   2.090  15.518 -0.8271  0.1073  0.9884
10363TIP3   OH252579   0.586   3.127  13.453  0.3411  0.0587  0.1642
10363TIP3    H152580   0.535   3.117  13.534  0.0995 -1.9112 -0.1644
10363TIP3    H252581   0.522   3.117  13.383  0.8116 -0.0748 -0.2514
10364TIP3   OH252582   5.590   0.186   3.138  0.8281 -0.2492  0.2143
10364TIP3    H152583   5.567   0.238   3.215  0.8508  0.0611  0.0145
10364TIP3    H252584   5.685   0.179   3.141  0.9492  0.8177 -0.4436
10365TIP3   OH252585   2.813   6.523  14.505 -0.4934  0.8895  0.4068
10365TIP3    H152586   2.732   6.475  14.524 -0.7795  1.5315  0.8547
10365TIP3    H252587   2.876   6.456  14.481 -0.6301  0.2056  1.8966
10366TIP3   OH252588   0.771   6.563   6.904 -0.2878 -0.0900  0.5558
10366TIP3    H152589   0.721   6.637   6.937 -0.5314  0.8047 -1.6531
10366TIP3    H252590   0.857   6.599   6.882  0.4768 -1.0458  1.8229
10367TIP3   OH252591   3.849   0.549  15.557 -0.4375 -0.1837  0.0196
10367TIP3    H152592   3.794   0.577  15.631  0.1739  0.2856  0.3111
10367TIP3    H252593   3.881   0.630  15.519 -0.5054 -0.4344 -0.5893
10368TIP3   OH252594   5.174   1.501   0.723 -0.0659  0.2011  0.1302
10368TIP3    H152595   5.146   1.586   0.758 -0.7960  0.2916 -0.6563
10368TIP3    H252596   5.183   1.445   0.800  0.9061  1.1128  0.7186
10369TIP3   OH252597   5.971   0.550   1.476  0.2669 -0.3385 -0.5885
10369TIP3    H152598   6.062   0.577   1.460  0.0167 -0.3891 -2.2646
10369TIP3    H252599   5.939   0.612   1.541  1.2739  0.1398 -0.5239
10370TIP3   OH252600   5.032   1.604  16.306 -0.3213  0.0838 -0.2642
10370TIP3    H152601   4.961   1.581  16.366 -1.9509  0.9281 -1.7759
10370TIP3    H252602   5.027   1.537  16.238 -0.6661  0.9838 -1.1463
10371TIP3   OH252603   4.645   0.507   4.032  0.8324 -0.6027 -0.3320
10371TIP3    H152604   4.692   0.449   3.972  1.7573  0.3078 -0.5192
10371TIP3    H252605   4.563   0.461   4.049  0.7611 -1.1416 -1.8848
10372TIP3   OH252606   2.060   0.380  15.851 -0.0487 -0.0260  0.2712
10372TIP3    H152607   2.056   0.431  15.932 -1.0241 -1.0647  0.9165
10372TIP3    H252608   1.980   0.328  15.852  1.5405 -2.6878  0.4362
10373TIP3   OH252609   3.152   1.333   4.458  0.4959  0.0386  0.2130
10373TIP3    H152610   3.164   1.239   4.447 -0.5695  0.0310 -1.2940
10373TIP3    H252611   3.162   1.369   4.369 -2.0866  0.9406  0.1834
10374TIP3   OH252612   5.788   1.765   4.648 -0.0284 -0.7407  0.3538
10374TIP3    H152613   5.817   1.676   4.667 -0.3253 -0.4073  2.6789
10374TIP3    H252614   5.701   1.771   4.686 -0.0694  0.5164  0.1311
10375TIP3   OH252615   0.954   6.105  16.490  0.0593  0.2127 -0.2980
10375TIP3    H152616   0.898   6.065  16.557  1.0938 -0.1258  0.3997
10375TIP3    H252617   0.957   6.198  16.513  0.5566  0.0686  0.2615
10376TIP3   OH252618   6.751   1.728   5.530 -0.2170 -0.1114  0.0958
10376TIP3    H152619   6.794   1.811   5.549  0.2696 -0.1256 -0.8997
10376TIP3    H252620   6.807   1.686   5.465 -0.6464 -1.0642  0.3226
10377TIP3   OH252621   3.391   3.695  14.634 -0.0723 -0.6919 -0.4263
10377TIP3    H152622   3.422   3.683  14.544 -1.6602  0.5681 -1.1780
10377TIP3    H252623   3.441   3.769  14.667 -0.0464 -0.6577 -0.5424
10378TIP3   OH252624   3.366   6.424   3.634  0.2059 -1.2787 -0.1320
10378TIP3    H152625   3.436   6.374   3.592  0.3273 -1.7447  0.6149
10378TIP3    H252626   3.396   6.515   3.631  0.6434 -1.4238 -0.2127
10379TIP3   OH252627   5.782   1.168  16.158  0.3681  0.5272 -0.2201
10379TIP3    H152628   5.801   1.189  16.067 -0.8259 -0.1195 -0.6414
10379TIP3    H252629   5.697   1.208  16.175  0.4606  0.4288  0.5383
10380TIP3   OH252630   5.454   6.089  11.266 -0.0698  0.1593  0.0296
10380TIP3    H152631   5.470   6.112  11.357 -1.6333  2.1517 -0.1421
10380TIP3    H252632   5.521   6.137  11.217 -1.4817  2.0722 -0.1014
10381TIP3   OH252633   6.481   3.063  13.358  0.1424  0.0666  0.0470
10381TIP3    H152634   6.486   3.158  13.346 -1.6410  0.1392 -0.3762
10381TIP3    H252635   6.393   3.040  13.329  0.5376 -1.7230  0.1884
10382TIP3   OH252636   4.360   4.639   3.155  0.2880  0.9931  0.6517
10382TIP3    H152637   4.339   4.590   3.234 -0.3280 -0.7570 -0.5263
10382TIP3    H252638   4.283   4.630   3.100  0.6783  2.2195 -0.1410
10383TIP3   OH252639   4.064   3.768  14.031 -0.2186 -0.1624  0.2819
10383TIP3    H152640   3.984   3.727  13.998 -1.0738  0.7551  1.1355
10383TIP3    H252641   4.066   3.853  13.988 -0.1461  0.1376  0.8623
10384TIP3   OH252642   0.021   5.222   6.638  0.6002 -0.5201 -0.2540
10384TIP3    H152643  -0.039   5.151   6.610  0.5837 -1.0292  1.0109
10384TIP3    H252644   0.095   5.216   6.577  1.1015 -2.3469  0.4675
10385TIP3   OH252645   5.559   2.437   4.037 -0.4728  0.2006 -0.2508
10385TIP3    H152646   5.566   2.376   3.964  1.3439  0.3159 -0.2033
10385TIP3    H252647   5.602   2.517   4.006 -0.9500  0.7450  0.4493
10386TIP3   OH252648   6.000   6.128  16.853  0.0113 -0.7317 -0.6257
10386TIP3    H152649   6.039   6.044  16.877  1.6721  0.6767  2.1719
10386TIP3    H252650   6.075   6.187  16.839 -1.0891  0.8034 -0.3767
10387TIP3   OH252651   3.272   0.576   1.304 -0.1977 -0.5222 -0.0980
10387TIP3    H152652   3.318   0.531   1.233 -0.4518  0.9313 -1.2247
10387TIP3    H252653   3.179   0.567   1.281 -0.3107 -0.4658  0.3258
10388TIP3   OH252654   3.838   6.603   4.952  0.2324  0.0026  0.1958
10388TIP3    H152655   3.782   6.526   4.943 -0.4397  0.6724 -2.8268
10388TIP3    H252656   3.873   6.617   4.864  1.1434  2.5454  0.8684
10389TIP3   OH252657   1.000   2.421   4.738  0.1642 -0.1589 -0.1701
10389TIP3    H152658   0.927   2.480   4.756  0.3149  0.4134 -1.3175
10389TIP3    H252659   0.960   2.341   4.706  0.0337  0.8714 -2.8113
10390TIP3   OH252660   2.291   6.581   3.793  0.2874 -0.0295  0.8580
10390TIP3    H152661   2.373   6.629   3.789  0.3874 -0.2304  0.5031
10390TIP3    H252662   2.223   6.647   3.778  0.4883 -0.2357 -1.2251
10391TIP3   OH252663   0.479   1.267   3.699 -0.7972  0.6205 -0.2241
10391TIP3    H152664   0.522   1.191   3.662 -1.8014 -0.3724  0.5844
10391TIP3    H252665   0.389   1.262   3.666 -1.2449  0.6635  0.9520
10392TIP3   OH252666   0.604   6.162   3.009 -0.4137  0.0942  0.8442
10392TIP3    H152667   0.535   6.120   3.060  0.1105  0.8360  2.2171
10392TIP3    H252668   0.566   6.245   2.980 -0.6856 -0.2926  0.0698
10393TIP3   OH252669   3.144   2.245   0.917 -0.0046  0.1870  0.0745
10393TIP3    H152670   3.123   2.265   0.826  0.1670 -0.5160 -0.1290
10393TIP3    H252671   3.095   2.309   0.968  0.9998  1.4942 -0.5464
10394TIP3   OH252672   5.212   4.839   5.602  0.2314  0.9630  0.4476
10394TIP3    H152673   5.229   4.747   5.621  0.0845  0.8351 -0.0173
10394TIP3    H252674   5.290   4.869   5.555 -0.3230  0.6747 -0.6991
10395TIP3   OH252675   0.616   4.319   1.418  0.3499 -0.4887  0.4966
10395TIP3    H152676   0.532   4.286   1.386  0.6991 -1.1974  0.2942
10395TIP3    H252677   0.678   4.299   1.348  1.0270 -1.5862  1.3770
10396TIP3   OH252678   4.315   6.362   1.436  0.2755 -0.2455  0.2108
10396TIP3    H152679   4.284   6.352   1.526 -1.3294  3.1439  0.1654
10396TIP3    H252680   4.409   6.378   1.445  0.3689 -1.1622  1.1282
10397TIP3   OH252681   6.233   4.952  11.934 -0.0027 -1.2694  0.6427
10397TIP3    H152682   6.183   4.982  11.859  0.2748  1.4255  1.4398
10397TIP3    H252683   6.172   4.958  12.008  0.4000 -1.6576  1.0192
10398TIP3   OH252684   0.491   6.489   2.642 -0.1500 -0.0468  0.5573
10398TIP3    H152685   0.526   6.445   2.564 -0.6148  1.9108 -0.8287
10398TIP3    H252686   0.569   6.515   2.692  0.1396 -1.8169  1.0981
10399TIP3   OH252687   2.428   3.919  16.143 -0.1147 -0.1536  0.5939
10399TIP3    H152688   2.453   3.952  16.056 -0.0551 -1.1159  0.2415
10399TIP3    H252689   2.480   3.973  16.203 -0.6047  0.9398  0.0801
10400TIP3   OH252690   2.286   3.059  14.592  0.0813 -0.1477  0.7539
10400TIP3    H152691   2.287   3.011  14.509  0.3049  2.0112 -0.5489
10400TIP3    H252692   2.378   3.064  14.618  0.5227  2.4988 -0.9623
10401TIP3   OH252693   4.372   4.378   2.734  0.2898  0.5263  1.0929
10401TIP3    H152694   4.352   4.336   2.818  0.9096 -1.3376  0.3417
10401TIP3    H252695   4.458   4.418   2.746  0.7197 -0.3968  1.1178
10402TIP3   OH252696   2.738   4.445  14.011 -0.2183  0.1753  0.2391
10402TIP3    H152697   2.804   4.512  14.033  0.2867 -0.5906  1.1722
10402TIP3    H252698   2.690   4.482  13.938  1.5794  0.5552 -0.8173
10403TIP3   OH252699   5.736   6.148  17.410 -0.4444 -0.1282  0.1484
10403TIP3    H152700   5.818   6.118  17.369  0.7125  1.1308  1.4209
10403TIP3    H252701   5.722   6.236  17.374 -1.1820 -0.2828  0.0454
10404TIP3   OH252702   5.037   3.267  11.194 -0.2630  0.7144  0.1581
10404TIP3    H152703   5.064   3.176  11.183 -0.8003  0.6361 -0.5621
10404TIP3    H252704   5.039   3.280  11.289  0.1285  0.0535  0.2518
10405TIP3   OH252705   2.142   1.721  11.686 -0.2036  0.3180  0.3482
10405TIP3    H152706   2.151   1.810  11.654 -0.8483 -0.5280 -2.3955
10405TIP3    H252707   2.065   1.686  11.642  0.2892 -1.7594  0.9894
10406TIP3   OH252708   4.873   2.866  12.430  0.1138  0.5438  0.2485
10406TIP3    H152709   4.787   2.854  12.469 -0.4188  0.1227 -1.0211
10406TIP3    H252710   4.871   2.955  12.394  0.8782  1.2291  1.7791
10407TIP3   OH252711   0.595   6.606   6.226 -0.7265 -0.5635  0.1891
10407TIP3    H152712   0.561   6.617   6.315 -1.1729  0.6790 -0.1234
10407TIP3    H252713   0.524   6.563   6.178 -0.7353 -0.6290  0.2599
10408TIP3   OH252714   6.471   4.640  15.762  0.1772 -0.4821  0.2166
10408TIP3    H152715   6.552   4.602  15.727 -0.3621 -2.4757  0.9724
10408TIP3    H252716   6.492   4.731  15.781  2.4677 -1.1391  1.0820
10409TIP3   OH252717   1.103   4.508  14.673 -0.4002 -0.1586  0.1161
10409TIP3    H152718   1.054   4.558  14.738 -0.7571 -0.2094 -0.1065
10409TIP3    H252719   1.065   4.534  14.589  0.1431  0.0036 -0.0848
10410TIP3   OH252720   0.734   6.686  16.451  0.8618  0.3868  0.4601
10410TIP3    H152721   0.750   6.674  16.357  0.7804  0.9286  0.3780
10410TIP3    H252722   0.704   6.776  16.459 -0.7624 -0.1633  0.7983
10411TIP3   OH252723   4.526   2.375  12.175 -0.4652 -1.0493  0.9489
10411TIP3    H152724   4.588   2.434  12.220 -0.8489  0.3016 -0.1994
10411TIP3    H252725   4.443   2.421  12.179 -1.1096 -2.2161  1.2684
10412TIP3   OH252726   2.378   5.583  15.717  0.4429  0.6364 -0.5935
10412TIP3    H152727   2.293   5.546  15.741 -0.7782  2.5945 -1.6668
10412TIP3    H252728   2.382   5.666  15.765  1.6216  0.7229 -0.8155
10413TIP3   OH252729   4.100   3.096   1.123 -0.0731  0.0986  0.6174
10413TIP3    H152730   4.031   3.162   1.119  0.2732  0.4595  0.5504
10413TIP3    H252731   4.127   3.095   1.215 -0.7228 -0.6258  0.8115
10414TIP3   OH252732   0.424   5.197   5.807  0.3857  0.1963  0.4396
10414TIP3    H152733   0.501   5.156   5.767  1.7991  1.3103  1.8956
10414TIP3    H252734   0.421   5.160   5.895 -0.6867  0.2740  0.4499
10415TIP3   OH252735   6.073   6.298  15.752 -0.6112 -0.9417  0.0237
10415TIP3    H152736   6.057   6.382  15.796 -0.8320 -0.1038 -1.5959
10415TIP3    H252737   6.168   6.294  15.744 -0.6098 -0.7450 -0.0755
10416TIP3   OH252738   1.704   5.830   3.308 -0.6889 -0.0121  0.3549
10416TIP3    H152739   1.676   5.911   3.267 -0.3544  0.9400  1.9190
10416TIP3    H252740   1.693   5.763   3.240 -1.2852  1.2715 -0.8548
10417TIP3   OH252741   0.629   4.771  14.348 -0.1964  0.4378 -0.3249
10417TIP3    H152742   0.572   4.726  14.410 -1.2914  2.1016 -0.0473
10417TIP3    H252743   0.609   4.731  14.263 -1.3105  0.5218 -0.1248
10418TIP3   OH252744   5.926   1.915  11.730 -0.1274 -0.0422 -0.0612
10418TIP3    H152745   5.887   2.002  11.721  0.7250  0.2239 -1.6281
10418TIP3    H252746   5.985   1.908  11.655  0.2318 -1.7654  0.3450
10419TIP3   OH252747   3.622   5.907   5.851 -0.2449 -0.0300 -0.3847
10419TIP3    H152748   3.688   5.849   5.889  2.2404  1.1739 -2.5633
10419TIP3    H252749   3.624   5.887   5.757 -3.7775 -0.6217 -0.4670
10420TIP3   OH252750   0.322   5.498   3.808 -0.0108  0.0272 -0.3469
10420TIP3    H152751   0.333   5.404   3.817 -0.7063  0.0335  0.8103
10420TIP3    H252752   0.263   5.509   3.734  0.3563 -0.4148 -0.7121
10421TIP3   OH252753   3.125   3.055  17.180  0.1927  0.0902  0.1311
10421TIP3    H152754   3.120   2.996  17.256  0.2513  0.4608  0.4221
10421TIP3    H252755   3.118   3.143  17.217 -1.8536  0.2207 -0.4758
10422TIP3   OH252756   3.652   2.124   3.893  0.2314 -0.1877 -0.2118
10422TIP3    H152757   3.747   2.141   3.889 -0.0464  1.4935 -0.4669
10422TIP3    H252758   3.613   2.197   3.846 -1.1629 -1.5357 -1.2172
10423TIP3   OH252759   0.252   1.981   2.826  0.4373  0.2544 -0.2570
10423TIP3    H152760   0.206   1.943   2.901  0.9104  0.4019  0.1218
10423TIP3    H252761   0.228   1.926   2.752  0.8207 -0.5754  0.2115
10424TIP3   OH252762   5.621   5.058  16.220 -0.5711  0.3175  0.1664
10424TIP3    H152763   5.571   5.111  16.159 -0.7287 -0.3054 -0.2512
10424TIP3    H252764   5.557   5.031  16.287 -0.4747  0.7066  0.4187
10425TIP3   OH252765   0.917   1.526   3.999  0.0750  0.7835 -0.4999
10425TIP3    H152766   0.856   1.599   4.009  1.3805  1.7670  0.8950
10425TIP3    H252767   0.949   1.510   4.088  0.2021 -1.1844 -0.8583
10426TIP3   OH252768   1.097   6.145   4.742  0.0180 -0.5630  0.4774
10426TIP3    H152769   1.004   6.131   4.722  0.2419 -0.7843 -0.4437
10426TIP3    H252770   1.107   6.113   4.831 -1.0278  0.4770  1.0091
10427TIP3   OH252771   1.661   0.793  13.138  0.4734  0.1903  0.2700
10427TIP3    H152772   1.629   0.707  13.110 -0.6299  0.5862  0.2732
10427TIP3    H252773   1.741   0.774  13.186  0.7751 -0.7534 -0.5756
10428TIP3   OH252774   6.551   2.681   4.672 -0.3544  0.4084  0.3900
10428TIP3    H152775   6.636   2.688   4.629  0.4514  0.8021  1.9770
10428TIP3    H252776   6.571   2.657   4.762 -2.0457 -1.3855  0.3499
10429TIP3   OH252777   1.603   0.121  13.405  0.2109  0.1875  0.0604
10429TIP3    H152778   1.553   0.095  13.483 -0.4740  2.2505  0.3514
10429TIP3    H252779   1.694   0.121  13.434  0.0372  0.0986  0.6147
10430TIP3   OH252780   1.866   1.190   4.252  0.1350  0.5144  0.6784
10430TIP3    H152781   1.920   1.251   4.203 -0.0597  1.2710  1.3826
10430TIP3    H252782   1.908   1.184   4.338 -0.3198  0.3143  0.8911
10431TIP3   OH252783   4.184   2.218   5.898  0.2212 -0.2175  0.0610
10431TIP3    H152784   4.130   2.170   5.960 -1.0596  0.7538 -0.2637
10431TIP3    H252785   4.174   2.171   5.815 -1.6235  0.9527 -0.4354
10432TIP3   OH252786   2.605   0.581  14.346 -0.4508  0.3575  0.2208
10432TIP3    H152787   2.582   0.630  14.267  0.0028  0.0383 -0.1123
10432TIP3    H252788   2.700   0.572  14.342 -0.3369  0.9432  1.1647
10433TIP3   OH252789   4.676   3.109  16.372 -0.4847  0.1747 -0.5861
10433TIP3    H152790   4.728   3.107  16.452 -0.4760 -1.5094 -0.6004
10433TIP3    H252791   4.731   3.155  16.308 -0.6964  2.0074  0.4640
10434TIP3   OH252792   0.537   4.315   3.940 -0.0400 -0.0424  0.4235
10434TIP3    H152793   0.629   4.340   3.935  0.2188 -0.8278  1.0153
10434TIP3    H252794   0.516   4.284   3.852  0.6936 -1.2727  0.6632
10435TIP3   OH252795   0.044   6.064  14.756  0.0779  0.0919  0.7396
10435TIP3    H152796   0.112   6.105  14.810 -0.3531 -0.2996  1.6043
10435TIP3    H252797   0.017   5.988  14.807  1.3261 -1.6973 -1.1167
10436TIP3   OH252798   2.259   6.208   0.843  0.3788 -0.3478  0.0870
10436TIP3    H152799   2.291   6.241   0.928  2.5013 -0.3499 -0.6361
10436TIP3    H252800   2.325   6.144   0.817 -1.6772 -2.4171 -0.3317
10437TIP3   OH252801   4.859   6.012   2.774  0.4318 -0.3950 -0.3052
10437TIP3    H152802   4.927   5.996   2.708 -1.1077 -4.6102 -1.2428
10437TIP3    H252803   4.792   6.061   2.727  1.2343  0.5371 -0.4989
10438TIP3   OH252804   4.545   4.951   5.251 -0.6405 -0.4036  0.2128
10438TIP3    H152805   4.486   4.997   5.309 -0.2445 -1.3799  1.4267
10438TIP3    H252806   4.535   4.995   5.166 -0.7080  1.5048  1.1589
10439TIP3   OH252807   1.190   0.073  15.731  0.2506 -0.4337 -0.3983
10439TIP3    H152808   1.154   0.157  15.761 -0.9511 -0.8269 -0.6847
10439TIP3    H252809   1.285   0.084  15.738  0.0891  0.1476  1.7813
10440TIP3   OH252810   4.831   1.965  13.652 -0.5375 -0.2537  0.0792
10440TIP3    H152811   4.814   2.053  13.684  1.8000  0.3962 -0.2710
10440TIP3    H252812   4.920   1.969  13.615  0.1785 -3.0332  1.1921
10441TIP3   OH252813   2.894   4.889   4.842 -0.4500  0.6162 -0.2459
10441TIP3    H152814   2.831   4.829   4.803 -1.4580  1.8599 -0.5800
10441TIP3    H252815   2.840   4.953   4.889  0.5620  1.5898 -0.3742
10442TIP3   OH252816   5.272   3.322  12.381 -0.0065  0.4613 -0.6741
10442TIP3    H152817   5.234   3.252  12.434 -0.8638  2.0712  0.9593
10442TIP3    H252818   5.197   3.368  12.345  0.3106  2.6731  1.2374
10443TIP3   OH252819   6.580   0.026  14.523  0.3955 -0.5669 -0.0152
10443TIP3    H152820   6.538  -0.052  14.487  0.3731 -0.6708  0.2337
10443TIP3    H252821   6.663   0.032  14.477 -0.2068  0.0638 -1.0556
10444TIP3   OH252822   6.503   6.124   0.034 -0.5377 -0.0233 -0.9976
10444TIP3    H152823   6.592   6.107   0.005  0.9611  0.2336  2.9552
10444TIP3    H252824   6.458   6.039   0.026  0.9862 -0.9401 -0.1718
10445TIP3   OH252825   6.136   5.535  12.535 -0.6017 -0.5166 -0.2064
10445TIP3    H152826   6.050   5.528  12.492 -0.7727 -0.1924  0.0821
10445TIP3    H252827   6.146   5.628  12.555  0.1252 -0.4389 -0.8623
10446TIP3   OH252828   4.922   5.159  13.874 -0.0765 -0.1383 -0.1716
10446TIP3    H152829   4.894   5.187  13.787 -1.5474  1.5491  0.7718
10446TIP3    H252830   4.958   5.237  13.915 -0.8584 -0.4840  1.2658
10447TIP3   OH252831   6.240   5.866  11.771  0.1659  0.1917 -0.2340
10447TIP3    H152832   6.189   5.820  11.705  0.5245 -0.4145 -0.0945
10447TIP3    H252833   6.214   5.957  11.762 -0.5764 -0.0370 -0.4991
10448TIP3   OH252834   4.467   5.070  13.013  0.1164 -0.1575 -0.0229
10448TIP3    H152835   4.452   5.018  13.091 -0.6244 -1.8202 -1.2114
10448TIP3    H252836   4.407   5.145  13.022  1.1593  0.5280  1.6782
10449TIP3   OH252837   0.085   6.062  16.055  0.1686  0.2228  0.3325
10449TIP3    H152838   0.030   6.070  15.977 -2.1497 -2.0309  1.5852
10449TIP3    H252839   0.168   6.027  16.022 -1.6005 -3.2186 -1.0248
10450TIP3   OH252840   1.899   0.652   2.157 -0.1700  0.1960 -0.3587
10450TIP3    H152841   1.871   0.743   2.149 -1.5029 -0.1101  0.4929
10450TIP3    H252842   1.967   0.641   2.090 -0.3754  1.6574 -0.8292
10451TIP3   OH252843   4.545   1.441   4.677 -0.2491  0.1518 -0.3267
10451TIP3    H152844   4.452   1.463   4.684  0.0371  0.9783  1.5424
10451TIP3    H252845   4.584   1.515   4.630 -0.1308  1.2278  1.3719
10452TIP3   OH252846   4.756   3.690   4.253 -0.0138 -0.1041 -0.3816
10452TIP3    H152847   4.733   3.635   4.178  1.3065 -2.2926  0.7030
10452TIP3    H252848   4.849   3.708   4.241 -0.0523  0.4801  0.1584
10453TIP3   OH252849   5.338   3.465   6.437 -0.4088 -0.1682 -0.1147
10453TIP3    H152850   5.296   3.382   6.463 -1.9672  1.1510  1.8862
10453TIP3    H252851   5.265   3.524   6.419  0.6745  0.8070 -1.5447
10454TIP3   OH252852   4.124   6.221  11.895  0.0577  0.3676  0.6420
10454TIP3    H152853   4.195   6.158  11.907 -1.0166 -0.7555  1.2725
10454TIP3    H252854   4.157   6.301  11.937  1.9776  0.7162 -1.3348
10455TIP3   OH252855   4.905   2.958   6.788 -0.0235 -0.3350 -0.6701
10455TIP3    H152856   4.813   2.950   6.763  0.3925 -0.5209 -2.2541
10455TIP3    H252857   4.911   3.043   6.831 -1.2627 -1.0918  1.1117
10456TIP3   OH252858   5.446   0.693   3.193  0.3470 -0.3172 -0.3631
10456TIP3    H152859   5.443   0.753   3.119 -0.7703  0.9136  0.6449
10456TIP3    H252860   5.390   0.620   3.167 -1.9488  1.1863  0.1313
10457TIP3   OH252861   3.342   3.809   4.236 -0.1850 -0.7782 -0.2528
10457TIP3    H152862   3.398   3.795   4.313  1.5843 -0.2271 -1.3820
10457TIP3    H252863   3.256   3.832   4.273  1.2775  2.3484  1.6649
10458TIP3   OH252864   3.946   5.076   1.900  0.7068 -0.1521 -0.0671
10458TIP3    H152865   3.883   5.027   1.846 -0.1087 -0.1503  0.8617
10458TIP3    H252866   3.982   5.141   1.840 -0.6121  0.2322 -0.4855
10459TIP3   OH252867   1.086   0.534   1.455 -0.3809  0.3268  0.3334
10459TIP3    H152868   1.058   0.567   1.541 -1.4626  0.0402  0.1060
10459TIP3    H252869   1.055   0.444   1.452  1.4867 -0.3584  0.4550
10460TIP3   OH252870   3.463   2.491   3.064  0.4366 -0.1131  0.3389
10460TIP3    H152871   3.540   2.508   3.010 -0.4056  0.6499 -0.6548
10460TIP3    H252872   3.497   2.486   3.153  1.5740  0.6519 -0.0296
10461TIP3   OH252873   2.833   0.266  14.516  0.2058 -0.0558 -0.4604
10461TIP3    H152874   2.778   0.188  14.507  0.8698 -0.3783 -1.9871
10461TIP3    H252875   2.885   0.268  14.436  0.4622  1.7681 -0.2802
10462TIP3   OH252876   1.323   5.486   6.241 -0.5124 -0.0184  0.1872
10462TIP3    H152877   1.370   5.567   6.260  0.8024 -0.7647  0.2124
10462TIP3    H252878   1.308   5.446   6.326  0.4991 -0.6841  0.0760
10463TIP3   OH252879   1.581   3.844  16.311  0.3996 -0.1455  0.3743
10463TIP3    H152880   1.538   3.916  16.357 -1.6104 -0.0788 -1.4365
10463TIP3    H252881   1.641   3.886  16.249  0.2459 -0.0718  0.2751
10464TIP3   OH252882   5.823   3.078   4.249  0.1498 -0.3943 -0.2921
10464TIP3    H152883   5.787   3.051   4.333  0.8525  2.5836  1.0818
10464TIP3    H252884   5.803   3.171   4.243 -0.5200 -0.6330 -3.8134
10465TIP3   OH252885   6.677   5.742   2.747 -0.6083 -0.1606 -1.0957
10465TIP3    H152886   6.719   5.670   2.701 -1.3687 -1.3204 -0.0484
10465TIP3    H252887   6.743   5.773   2.809 -0.9034 -1.2590 -0.2052
10466TIP3   OH252888   5.383   6.204   4.207  0.4893 -0.6607  0.1670
10466TIP3    H152889   5.472   6.199   4.171  0.4563  0.6142 -0.1514
10466TIP3    H252890   5.360   6.114   4.228  2.0732 -0.9532  0.7690
10467TIP3   OH252891   2.176   0.372  13.503  0.5136  0.1455  0.1010
10467TIP3    H152892   2.160   0.462  13.532  0.5404  0.2288 -0.1394
10467TIP3    H252893   2.233   0.335  13.570  1.5006  0.6873 -0.4190
10468TIP3   OH252894   3.265   5.519   1.909 -0.3154  0.0109  0.0057
10468TIP3    H152895   3.274   5.481   1.997 -1.3114  0.6754  0.4186
10468TIP3    H252896   3.195   5.468   1.868 -0.9577  0.7324  0.1921
10469TIP3   OH252897   4.478   1.192  11.928 -0.1871 -0.2616  0.4055
10469TIP3    H152898   4.414   1.255  11.895  0.3972  0.6604  0.9743
10469TIP3    H252899   4.500   1.138  11.852  0.7494  1.4746 -0.6366
10470TIP3   OH252900   0.156   0.787   2.432  0.4632  0.3582 -0.4435
10470TIP3    H152901   0.241   0.744   2.446  0.6977  1.2391  1.0102
10470TIP3    H252902   0.127   0.811   2.520 -0.6886  1.2395 -1.0471
10471TIP3   OH252903   4.647   5.192  12.834  0.2800  0.0871 -0.3672
10471TIP3    H152904   4.579   5.225  12.776  0.7922 -1.0047 -1.6411
10471TIP3    H252905   4.600   5.163  12.912 -0.9904 -2.1793 -1.8686
10472TIP3   OH252906   4.864   0.878   6.743 -0.3095  0.2391 -0.1200
10472TIP3    H152907   4.949   0.922   6.752 -0.8583  1.3831 -0.4083
10472TIP3    H252908   4.801   0.940   6.779 -1.5295  1.2356 -3.5574
10473TIP3   OH252909   6.756   6.494   3.359 -0.0701  0.1454  0.3260
10473TIP3    H152910   6.766   6.540   3.276  2.4281 -2.2581 -0.8812
10473TIP3    H252911   6.684   6.539   3.403  0.1142  3.0762 -2.0292
10474TIP3   OH252912   1.082   3.872  12.066 -0.2663  0.3269 -0.2978
10474TIP3    H152913   1.014   3.917  12.015 -1.0473  0.2835  0.6712
10474TIP3    H252914   1.061   3.779  12.058 -0.6162  0.3365  0.3705
10475TIP3   OH252915   1.829   5.875  15.883  0.0879 -0.2420 -0.1953
10475TIP3    H152916   1.889   5.949  15.874  0.8159 -0.8154 -0.1720
10475TIP3    H252917   1.760   5.907  15.940 -0.3713  0.8758 -1.3324
10476TIP3   OH252918   3.816   2.269  11.435 -0.5163 -0.1676 -0.4838
10476TIP3    H152919   3.814   2.271  11.339 -0.8136  0.8792 -0.4743
10476TIP3    H252920   3.908   2.285  11.457 -0.7495  1.5438 -0.6018
10477TIP3   OH252921   4.790   0.481  15.125  0.1199 -0.2078 -0.1284
10477TIP3    H152922   4.778   0.485  15.220  3.0729 -1.0636  0.3593
10477TIP3    H252923   4.795   0.573  15.098 -0.9421  0.0451  0.4541
10478TIP3   OH252924   6.547   0.316   5.552 -0.0483  0.0070  0.0893
10478TIP3    H152925   6.475   0.274   5.598  0.6298  0.4986  1.6716
10478TIP3    H252926   6.618   0.252   5.554 -0.2397 -0.2705 -1.0010
10479TIP3   OH252927   3.613   0.415   0.434 -0.2423  0.0492  0.5874
10479TIP3    H152928   3.633   0.429   0.342 -0.8285 -0.6329  0.3464
10479TIP3    H252929   3.621   0.321   0.447 -1.0978  0.0151  0.9912
10480TIP3   OH252930   0.580   3.099  14.139  0.2563  0.2801 -0.6133
10480TIP3    H152931   0.498   3.123  14.097  0.2352 -1.2839 -1.5695
10480TIP3    H252932   0.569   3.122  14.231 -1.0812  0.4857 -0.8137
10481TIP3   OH252933   2.374   1.920  12.854 -0.0847  0.0718  0.1114
10481TIP3    H152934   2.314   1.854  12.819 -2.1726  1.8761  0.0376
10481TIP3    H252935   2.376   1.988  12.788  0.2084  1.0845  1.1263
10482TIP3   OH252936   0.052   4.902   1.156 -0.3359 -0.3580 -0.4664
10482TIP3    H152937   0.024   4.917   1.247  0.4825 -3.6762  0.4598
10482TIP3    H252938  -0.024   4.863   1.114 -0.1563 -0.4515 -0.7028
10483TIP3   OH252939   5.567   2.580   4.284  0.0770  0.3372  0.4308
10483TIP3    H152940   5.591   2.553   4.195  1.2161 -1.4042  1.2100
10483TIP3    H252941   5.526   2.666   4.273  1.0260  0.5834 -1.6707
10484TIP3   OH252942   1.363   4.280  11.830 -0.4607  0.4717 -0.3892
10484TIP3    H152943   1.270   4.258  11.826 -0.9298  2.1208  0.4914
10484TIP3    H252944   1.396   4.256  11.743 -1.5373 -0.7688 -0.4981
10485TIP3   OH252945   3.473   0.325   3.138  0.0251 -0.5261 -0.6658
10485TIP3    H152946   3.478   0.261   3.067  0.4449 -2.1659  0.7537
10485TIP3    H252947   3.379   0.337   3.154 -0.0553 -0.8934 -0.8702
10486TIP3   OH252948   0.733   2.648  14.256  0.0753  0.0299  0.0518
10486TIP3    H152949   0.819   2.619  14.226 -0.1012  0.0997 -0.5193
10486TIP3    H252950   0.738   2.643  14.352  0.9424  0.6818  0.0531
10487TIP3   OH252951   0.604   2.924   4.150  0.5763  0.2818 -0.4455
10487TIP3    H152952   0.651   2.841   4.147  0.6930  0.3753 -2.6674
10487TIP3    H252953   0.670   2.987   4.180  0.8780 -0.1585 -0.1649
10488TIP3   OH252954   2.580   0.822  12.535  0.4079 -0.2757  0.2091
10488TIP3    H152955   2.666   0.786  12.513  1.2586  2.1168 -0.8062
10488TIP3    H252956   2.579   0.824  12.630  1.4107 -0.5237  0.2408
10489TIP3   OH252957   3.652   4.950   5.393 -0.1649 -0.5570  0.3379
10489TIP3    H152958   3.690   4.873   5.436 -1.4323 -0.9922  0.7128
10489TIP3    H252959   3.562   4.925   5.373 -0.6595  0.8886  0.6253
10490TIP3   OH252960   2.145   6.750   0.071  0.4207 -0.2795  0.0710
10490TIP3    H152961   2.128   6.733  -0.022  0.9755  0.7177 -0.2226
10490TIP3    H252962   2.164   6.664   0.108  2.4330 -0.4408 -1.2205
10491TIP3   OH252963   5.226   3.168  13.865 -0.0276  0.3819  0.1562
10491TIP3    H152964   5.294   3.146  13.927  1.2270 -2.5460 -2.0356
10491TIP3    H252965   5.260   3.139  13.780 -4.3155 -2.2824 -0.9708
10492TIP3   OH252966   4.725   3.413  12.138 -0.0966 -0.3877  0.5713
10492TIP3    H152967   4.736   3.502  12.105 -0.7740 -0.2499  0.6999
10492TIP3    H252968   4.655   3.376  12.084 -0.1478 -0.6775  0.8308
10493TIP3   OH252969   5.780   0.606   6.107 -0.1847  0.0203 -0.6980
10493TIP3    H152970   5.743   0.690   6.080 -2.6232 -0.9490 -0.6952
10493TIP3    H252971   5.772   0.607   6.203 -2.4259 -1.0359 -0.7998
10494TIP3   OH252972   0.640   2.491  10.627  0.2599 -0.4412 -0.0899
10494TIP3    H152973   0.571   2.440  10.668 -0.4152 -0.1572 -0.8422
10494TIP3    H252974   0.686   2.533  10.700 -1.5136  0.8306  0.3622
10495TIP3   OH252975   4.786   3.528   5.622 -0.1881  0.0204 -0.3612
10495TIP3    H152976   4.861   3.487   5.580  1.4588  1.9100  0.5609
10495TIP3    H252977   4.794   3.506   5.714 -1.1392 -0.2537 -0.3285
10496TIP3   OH252978   4.206   4.670  13.735 -0.1384 -0.5631 -0.2772
10496TIP3    H152979   4.300   4.691  13.733  0.5240 -2.9298  1.1599
10496TIP3    H252980   4.168   4.736  13.793  1.3415 -1.6053  2.0235
10497TIP3   OH252981   5.943   6.641  13.404 -0.6395  0.2625  0.6624
10497TIP3    H152982   6.009   6.575  13.425  0.0219  1.0786  1.2496
10497TIP3    H252983   5.878   6.632  13.474  1.4003  2.7610  3.1378
10498TIP3   OH252984   2.361   2.497  16.128 -0.4441  0.3897  0.1236
10498TIP3    H152985   2.406   2.445  16.062  0.8529  1.5686  0.0327
10498TIP3    H252986   2.310   2.561  16.077 -0.7278  0.2616  0.2469
10499TIP3   OH252987   1.889   2.294  12.404  0.2304 -0.1857  0.3633
10499TIP3    H152988   1.937   2.343  12.338 -0.9198 -0.8170 -0.9841
10499TIP3    H252989   1.917   2.203  12.391  0.5022 -0.2271  1.1987
10500TIP3   OH252990   3.304   5.908   6.362 -0.1160 -0.8413 -0.1546
10500TIP3    H152991   3.319   5.991   6.316  0.6245 -1.2945 -0.7512
10500TIP3    H252992   3.219   5.878   6.330  0.1278 -0.8614 -0.8102
10501TIP3   OH252993   3.897   4.674  12.426 -0.5841  0.0282  0.3046
10501TIP3    H152994   3.971   4.615  12.408 -0.9577  0.0180 -1.4431
10501TIP3    H252995   3.930   4.736  12.490  0.0786 -1.5826  1.5943
10502TIP3   OH252996   1.577   1.611  14.099  0.3654  0.5451 -0.0496
10502TIP3    H152997   1.530   1.694  14.105 -1.1008 -0.1811 -0.9266
10502TIP3    H252998   1.533   1.564  14.028  0.7093 -1.2420  0.8749
10503TIP3   OH252999   3.822   6.388  15.928 -0.7330  0.1322 -0.0783
10503TIP3    H153000   3.875   6.421  16.001  2.3381 -0.4655 -1.8858
10503TIP3    H253001   3.797   6.299  15.956 -1.3641  0.6399  1.0486
10504TIP3   OH253002   0.481   4.848   4.138  0.4353 -0.3708 -0.6350
10504TIP3    H153003   0.517   4.921   4.087 -0.5066  0.1501 -0.5878
10504TIP3    H253004   0.390   4.842   4.109 -0.0734 -0.1675  0.8477
10505TIP3   OH253005   0.023   3.336  10.987  0.0368  0.1276  0.8003
10505TIP3    H153006   0.033   3.255  10.937  0.5853 -0.1923  1.4160
10505TIP3    H253007   0.053   3.405  10.927 -1.0282 -0.0316  0.0470
10506TIP3   OH253008   6.468   2.225   5.454 -0.0242 -0.2442 -0.3367
10506TIP3    H153009   6.377   2.200   5.470  0.0790 -0.9410 -0.7883
10506TIP3    H253010   6.511   2.143   5.429  0.2560  0.4282 -2.1968
10507TIP3   OH253011   5.798   5.114  13.133 -0.5803  0.4632 -0.1970
10507TIP3    H153012   5.777   5.021  13.145 -1.2748  0.7101  0.5779
10507TIP3    H253013   5.827   5.143  13.220 -0.2230  0.9450 -0.4712
10508TIP3   OH253014   1.075   1.907   5.841  0.1185  0.2561 -0.0444
10508TIP3    H153015   1.094   1.966   5.914  2.2622  0.9417 -1.0905
10508TIP3    H253016   1.113   1.823   5.867  1.6269  0.7140 -0.6587
10509TIP3   OH253017   3.036   6.137  14.932 -0.3659 -0.3212  0.0774
10509TIP3    H153018   3.128   6.108  14.933 -0.3337 -0.2087  0.5290
10509TIP3    H253019   3.008   6.124  14.841  0.2991  0.2852 -0.2242
10510TIP3   OH253020   3.784   0.401   4.602 -0.1018  0.7571 -0.3106
10510TIP3    H153021   3.801   0.307   4.609  1.0910  1.0517  1.5000
10510TIP3    H253022   3.750   0.425   4.688 -4.1593  1.3586 -1.8577
10511TIP3   OH253023   2.967   6.250  10.552 -0.8714 -0.0363 -0.2241
10511TIP3    H153024   3.029   6.236  10.624 -1.3196 -0.0078  0.1750
10511TIP3    H253025   2.962   6.165  10.507  0.6705  0.3891 -1.2551
10512TIP3   OH253026   0.562   0.806   5.898 -0.2886 -0.0795 -0.2108
10512TIP3    H153027   0.553   0.874   5.830  1.7479  0.4934  0.0085
10512TIP3    H253028   0.582   0.855   5.978 -1.5779 -0.8155  0.5904
10513TIP3   OH253029   6.681   5.656  14.730 -0.0390 -0.3255 -0.5575
10513TIP3    H153030   6.670   5.578  14.785  2.0493 -0.3745 -0.0831
10513TIP3    H253031   6.768   5.645  14.691  1.1703  2.5676  0.9888
10514TIP3   OH253032   0.662   1.732   2.251  0.2322 -0.7795 -0.7552
10514TIP3    H153033   0.705   1.815   2.269 -0.3624 -0.7212  0.4539
10514TIP3    H253034   0.723   1.666   2.282  0.5801 -0.7912 -1.4531
10515TIP3   OH253035   2.116   1.499   3.268  0.2643 -0.1335  0.0850
10515TIP3    H153036   2.174   1.436   3.312 -0.9972 -0.4809  1.3109
10515TIP3    H253037   2.113   1.469   3.178 -0.9236 -2.3536  0.7912
10516TIP3   OH253038   5.657   5.701  15.217 -0.7532  0.1830 -0.1383
10516TIP3    H153039   5.614   5.775  15.260  1.1183  0.3247  1.6290
10516TIP3    H253040   5.669   5.637  15.287  0.5305 -0.4625 -0.9223
10517TIP3   OH253041   5.693   5.557   0.145 -0.1937  0.4335  0.1522
10517TIP3    H153042   5.696   5.504   0.065  0.6055  0.2725  0.2850
10517TIP3    H253043   5.615   5.612   0.134 -1.5656 -1.3398  0.3833
10518TIP3   OH253044   3.814   4.911   1.211 -0.1272 -0.5522 -0.3322
10518TIP3    H153045   3.888   4.923   1.151  2.8985  0.4921  3.2510
10518TIP3    H253046   3.757   4.986   1.195  1.3918  0.5202 -0.8969
10519TIP3   OH253047   6.052   5.062   5.949 -0.6303  0.1598  0.1029
10519TIP3    H153048   5.984   5.117   5.910 -0.4864  0.7625  0.6697
10519TIP3    H253049   6.134   5.109   5.930 -0.3155 -0.7816 -0.9557
10520TIP3   OH253050   5.853   1.033  14.111  0.1980  0.2366 -0.3367
10520TIP3    H153051   5.805   1.116  14.101 -0.2346  0.3340  2.0033
10520TIP3    H253052   5.785   0.969  14.132  0.8206 -0.1065  0.7000
10521TIP3   OH253053   6.324   1.420   1.889  0.0106  0.1298 -0.3012
10521TIP3    H153054   6.396   1.463   1.843 -0.8911  0.2414 -1.6454
10521TIP3    H253055   6.329   1.328   1.861  1.2855 -0.5110  1.7538
10522TIP3   OH253056   3.492   1.751   0.401 -0.5231 -0.3056 -0.0868
10522TIP3    H153057   3.450   1.809   0.464  3.1635  1.7067  0.7491
10522TIP3    H253058   3.563   1.710   0.449 -0.9005 -3.0012 -1.6080
10523TIP3   OH253059   3.300   4.778   2.092 -0.3867 -0.3858  0.4937
10523TIP3    H153060   3.351   4.828   2.028 -1.2765 -0.5045 -0.3387
10523TIP3    H253061   3.229   4.739   2.041 -0.3659 -1.5762  1.3281
10524TIP3   OH253062   5.661   1.976  11.907  0.5132 -0.1466 -0.0411
10524TIP3    H153063   5.706   1.927  11.975  0.3225 -0.8632 -0.4215
10524TIP3    H253064   5.658   1.916  11.832  1.4915  0.9178 -0.9846
10525TIP3   OH253065   5.631   5.982  16.515 -0.2466  0.0167 -0.1259
10525TIP3    H153066   5.701   6.038  16.548 -1.0669 -0.3426  2.4317
10525TIP3    H253067   5.605   6.023  16.432  1.6118  1.3028 -0.1344
10526TIP3   OH253068   5.195   4.382   2.422 -0.2494  0.4416 -0.0100
10526TIP3    H153069   5.259   4.449   2.447  0.5161 -0.1530 -0.3180
10526TIP3    H253070   5.231   4.344   2.341  1.4340 -2.9880  2.0953
10527TIP3   OH253071   5.130   0.912   3.454 -0.0380  0.3292  0.1092
10527TIP3    H153072   5.224   0.924   3.443  0.1063 -0.4410  0.4303
10527TIP3    H253073   5.110   0.956   3.537  0.3532 -0.9216  0.9027
10528TIP3   OH253074   2.360   3.227   2.554 -0.2893  0.8542  0.5485
10528TIP3    H153075   2.450   3.203   2.536  0.0741  1.7234  1.1269
10528TIP3    H253076   2.314   3.143   2.566  0.1379  0.3668 -1.0433
10529TIP3   OH253077   2.399   6.203  13.729 -0.3662 -0.2165 -0.4402
10529TIP3    H153078   2.411   6.108  13.734 -2.6575 -0.5322  0.5878
10529TIP3    H253079   2.322   6.214  13.672 -0.3060  1.0064 -0.3123
10530TIP3   OH253080   6.043   4.497   1.843 -0.2646  0.1955 -0.1859
10530TIP3    H153081   5.999   4.581   1.857 -0.0514  0.2451  0.2045
10530TIP3    H253082   6.035   4.481   1.749 -1.9482 -0.2447 -0.0138
10531TIP3   OH253083   1.594   5.823  13.862 -0.1823  0.3491 -0.3822
10531TIP3    H153084   1.689   5.812  13.862 -0.3612 -1.7168  0.9570
10531TIP3    H253085   1.562   5.753  13.804 -0.9511 -0.1403  0.5984
10532TIP3   OH253086   3.005   1.460  11.481  0.6889 -0.0031  0.1251
10532TIP3    H153087   2.966   1.429  11.399  1.1938  0.9948 -0.5133
10532TIP3    H253088   2.932   1.464  11.543  0.1505  0.0077 -0.4998
10533TIP3   OH253089   3.008   5.010   2.131  0.5682 -0.0707 -0.3557
10533TIP3    H153090   3.032   4.977   2.044  2.9315 -2.1551  0.9638
10533TIP3    H253091   3.070   5.080   2.148 -1.4556  2.0725 -1.2241
10534TIP3   OH253092   0.085   1.289  13.229 -0.3807  0.3859 -0.9531
10534TIP3    H153093   0.083   1.261  13.137  2.5110  2.5298 -1.8029
10534TIP3    H253094   0.128   1.374  13.228 -2.0606  1.4615  2.2489
10535TIP3   OH253095   1.895   2.391  17.178 -0.5167 -0.5027  0.0207
10535TIP3    H153096   1.911   2.297  17.178 -0.8225 -0.5547  0.1101
10535TIP3    H253097   1.817   2.403  17.231  0.2797 -0.0649  1.1429
10536TIP3   OH253098   3.677   4.404  16.538  0.1347  0.0379  0.1161
10536TIP3    H153099   3.617   4.332  16.520  1.0892 -0.8332  0.2789
10536TIP3    H253100   3.646   4.476  16.483 -0.6272 -0.6075 -0.3259
10537TIP3   OH253101   3.183   6.372  12.660 -0.1398 -0.8515 -0.1797
10537TIP3    H153102   3.201   6.466  12.666 -2.2016 -0.2025 -2.3331
10537TIP3    H253103   3.226   6.345  12.578 -2.0308 -1.0358 -1.1717
10538TIP3   OH253104   4.318   4.440  13.956  0.3228 -0.4466 -0.0494
10538TIP3    H153105   4.226   4.415  13.946  0.1856 -0.6109  1.3602
10538TIP3    H253106   4.316   4.506  14.026  1.0827  0.9002 -1.2513
10539TIP3   OH253107   5.171   6.360  13.849  0.2741  0.2640  0.0554
10539TIP3    H153108   5.164   6.443  13.897 -0.8031  0.8900 -1.1075
10539TIP3    H253109   5.233   6.378  13.778  1.6803 -0.5840  1.0196
10540TIP3   OH253110   0.520   1.504  17.181 -0.2665 -0.6551 -0.3986
10540TIP3    H153111   0.447   1.447  17.155 -0.0435 -0.1473 -2.3222
10540TIP3    H253112   0.511   1.581  17.126 -0.1427  0.9117  1.6556
10541TIP3   OH253113   2.228   5.364   6.448 -0.0255  0.2020 -0.1403
10541TIP3    H153114   2.265   5.452   6.443  1.1859 -0.3173 -0.8451
10541TIP3    H253115   2.237   5.339   6.540  1.1021  0.2239 -0.2269
10542TIP3   OH253116   5.955   6.503  11.905  0.0589  0.3058 -0.4639
10542TIP3    H153117   5.946   6.455  11.823 -1.2815 -0.1760 -0.0577
10542TIP3    H253118   5.874   6.554  11.912  0.5760  1.0746  0.1056
10543TIP3   OH253119   5.100   5.474   4.593  0.3142 -0.0876 -0.6987
10543TIP3    H153120   5.151   5.551   4.568  1.7606 -1.0884 -0.9820
10543TIP3    H253121   5.161   5.400   4.582 -0.0651 -0.9971  2.3266
10544TIP3   OH253122   2.890   3.664   5.048 -0.3275 -0.3793 -0.5499
10544TIP3    H153123   2.902   3.752   5.082  2.2353 -1.2110  1.0920
10544TIP3    H253124   2.807   3.635   5.084 -0.6504  0.9672 -0.1638
10545TIP3   OH253125   4.953   1.670  12.734  0.2578 -0.4795 -0.4056
10545TIP3    H153126   4.980   1.623  12.813  0.0951 -1.1163 -0.7146
10545TIP3    H253127   5.012   1.638  12.666 -0.3967 -0.8827 -0.8002
10546TIP3   OH253128   5.728   0.960   2.419 -0.3461  0.0984  0.1530
10546TIP3    H153129   5.699   1.038   2.371  0.0974  2.1430  2.9575
10546TIP3    H253130   5.822   0.971   2.428 -0.3079 -0.6571  0.7690
10547TIP3   OH253131   6.360   3.254   4.248  0.1033 -0.7370  0.1005
10547TIP3    H153132   6.399   3.169   4.267  0.9665  0.1911  3.0935
10547TIP3    H253133   6.320   3.244   4.162 -0.0743 -4.2226  0.4721
10548TIP3   OH253134   0.311   4.770  15.575  0.3536  0.0954 -0.5096
10548TIP3    H153135   0.256   4.748  15.651 -1.7899  3.7318 -0.7618
10548TIP3    H253136   0.397   4.733  15.596 -0.4903 -0.1954  3.0791
10549TIP3   OH253137   1.330   2.931   3.425 -0.0090 -0.0125  0.2377
10549TIP3    H153138   1.265   2.992   3.389 -1.1697 -1.6270 -0.5174
10549TIP3    H253139   1.306   2.924   3.518 -1.6994 -1.4465 -0.2508
10550TIP3   OH253140   5.388   3.715  15.355 -0.1956 -0.8328  0.3211
10550TIP3    H153141   5.441   3.718  15.275  2.2190 -0.4249  1.8209
10550TIP3    H253142   5.312   3.769  15.336  0.9343  0.2773 -1.3105
10551TIP3   OH253143   5.015   4.267   5.493  0.6334  0.5911 -0.1091
10551TIP3    H153144   5.100   4.296   5.525  0.5138  1.0808 -0.2229
10551TIP3    H253145   5.020   4.279   5.398  0.7403 -0.1931 -0.2058
10552TIP3   OH253146   5.143   2.832  12.471 -0.5532  0.4519 -0.5566
10552TIP3    H153147   5.048   2.842  12.464 -0.5468  0.4344 -0.6687
10552TIP3    H253148   5.156   2.779  12.549 -0.6392  0.3967 -0.5796
10553TIP3   OH253149   1.264   4.573  17.390 -0.0023 -0.1292  0.0614
10553TIP3    H153150   1.254   4.545  17.481  1.3529  0.1602  0.3229
10553TIP3    H253151   1.309   4.657  17.396  0.6247 -0.3830 -0.8936
10554TIP3   OH253152   4.568   6.066   4.995 -0.0911  0.1113 -0.0460
10554TIP3    H153153   4.544   6.146   4.948  0.0626 -0.5095 -1.2220
10554TIP3    H253154   4.484   6.030   5.025 -0.0407  1.7652  2.3659
10555TIP3   OH253155   6.254   0.690  12.794 -0.5888 -0.1964 -0.4147
10555TIP3    H153156   6.262   0.783  12.776 -1.4072  0.0229  0.2970
10555TIP3    H253157   6.300   0.647  12.721 -1.0789  0.7294 -1.2898
10556TIP3   OH253158   2.629   0.948   6.534 -0.1138  0.0809 -0.1475
10556TIP3    H153159   2.608   0.879   6.598 -0.3173  1.3669  1.2252
10556TIP3    H253160   2.549   0.959   6.483  0.1876 -1.2624 -0.9708
10557TIP3   OH253161   6.428   5.699  13.837  0.3408  0.2274  0.1660
10557TIP3    H153162   6.516   5.728  13.862  0.5567 -0.1319 -0.1534
10557TIP3    H253163   6.399   5.763  13.772  0.3509  0.3688  0.3008
10558TIP3   OH253164   4.639   3.989   4.323  0.7463 -0.5088  0.1693
10558TIP3    H153165   4.578   3.988   4.248  2.3774 -0.0975 -1.2378
10558TIP3    H253166   4.670   3.899   4.330  0.1413 -0.6784  0.7667
10559TIP3   OH253167   0.727   2.999  12.319  0.1687 -0.0022 -0.0591
10559TIP3    H153168   0.633   2.992  12.302  0.2611  1.9057 -1.8534
10559TIP3    H253169   0.768   2.973  12.236  1.1679  0.2205  0.3509
10560TIP3   OH253170   0.350   2.021  14.144 -0.0904  1.1444 -0.2849
10560TIP3    H153171   0.367   2.114  14.132 -0.1069  1.1158 -0.5448
10560TIP3    H253172   0.264   2.017  14.185 -1.1322  1.1809 -2.3438
10561TIP3   OH253173   3.171   4.870   3.394 -0.1953 -0.0077  0.0549
10561TIP3    H153174   3.231   4.938   3.427 -0.0292 -0.7261  1.2960
10561TIP3    H253175   3.217   4.788   3.411  0.2043 -0.4170 -2.6616
10562TIP3   OH253176   6.622   1.276   4.724  0.6829 -0.0221 -0.3816
10562TIP3    H153177   6.667   1.255   4.806 -3.2999  0.8184  2.3330
10562TIP3    H253178   6.652   1.210   4.662  0.3013 -3.9554  3.1935
10563TIP3   OH253179   1.826   4.489   4.781  0.3359  0.3236 -0.5628
10563TIP3    H153180   1.730   4.488   4.791  0.3460  1.3714 -0.2069
10563TIP3    H253181   1.847   4.581   4.767  1.3460  0.1770 -0.0806
10564TIP3   OH253182   3.245   6.174   6.076 -0.2063 -0.6823 -0.8534
10564TIP3    H153183   3.291   6.091   6.062 -0.1694 -0.5843 -1.3283
10564TIP3    H253184   3.315   6.238   6.091 -0.1820 -0.5276 -1.6067
10565TIP3   OH253185   1.596   6.562   2.087 -0.5727  0.4081 -0.4860
10565TIP3    H153186   1.673   6.614   2.110 -0.1171 -0.3751 -0.2062
10565TIP3    H253187   1.629   6.497   2.026 -1.2425  0.7636 -1.2328
10566TIP3   OH253188   5.267   4.838   2.578 -0.5611  0.1869  0.4596
10566TIP3    H153189   5.249   4.895   2.503  2.0733 -0.9949 -1.2068
10566TIP3    H253190   5.348   4.872   2.616 -0.4841 -0.7797  1.1962
10567TIP3   OH253191   2.766   6.195   0.616  0.0740 -0.2461 -0.1786
10567TIP3    H153192   2.700   6.261   0.636  0.1635 -0.7258  1.8606
10567TIP3    H253193   2.758   6.129   0.685 -0.5548 -2.8629 -2.5336
10568TIP3   OH253194   4.400   4.211   0.270 -0.3229  0.0119 -0.4429
10568TIP3    H153195   4.453   4.257   0.335 -1.0495  0.3001 -0.0394
10568TIP3    H253196   4.341   4.278   0.235  0.2719 -0.0586 -1.6538
10569TIP3   OH253197   2.731   2.410   4.756  0.1913 -0.1031  0.5108
10569TIP3    H153198   2.813   2.361   4.756  0.7278  0.7174 -1.4542
10569TIP3    H253199   2.721   2.440   4.666 -1.9373  0.3913  0.8651
10570TIP3   OH253200   6.512   4.728   1.547 -0.1621 -0.3604 -1.0757
10570TIP3    H153201   6.471   4.641   1.542 -1.2353  0.1123 -0.8726
10570TIP3    H253202   6.439   4.789   1.534  0.3502  0.5313  0.0821
10571TIP3   OH253203   0.699   5.455  12.984 -0.0816  0.0101  0.0760
10571TIP3    H153204   0.746   5.535  13.008  0.8016 -0.7972  1.1442
10571TIP3    H253205   0.608   5.483  12.972  0.5251  1.4942 -1.4262
10572TIP3   OH253206   4.587   2.913  14.066 -0.9830 -0.2427 -0.5493
10572TIP3    H153207   4.560   2.973  14.136 -2.1425 -0.1129 -1.0866
10572TIP3    H253208   4.681   2.903  14.078 -1.1487 -0.1705  0.9897
10573TIP3   OH253209   6.220   5.845  11.064  0.0873  0.0238  0.1222
10573TIP3    H153210   6.140   5.793  11.072  0.9625 -1.2153  1.0873
10573TIP3    H253211   6.266   5.806  10.989 -0.9652  1.8388 -1.5545
10574TIP3   OH253212   5.508   4.819   2.738  0.5990  0.2883 -0.4526
10574TIP3    H153213   5.455   4.875   2.795 -0.2556 -1.5000  0.5785
10574TIP3    H253214   5.589   4.805   2.787  0.5252  0.0459 -0.4015
10575TIP3   OH253215   0.133   4.733  11.422 -0.1094 -0.0303 -0.2993
10575TIP3    H153216   0.205   4.675  11.398  0.6229  0.2755  1.0184
10575TIP3    H253217   0.097   4.695  11.502  0.2448  1.1724  0.4618
10576TIP3   OH253218   0.853   3.156  13.166  0.5912 -0.4342 -0.3321
10576TIP3    H153219   0.778   3.099  13.181 -0.3364  0.3617 -1.6843
10576TIP3    H253220   0.820   3.224  13.107  2.2496  0.2248 -0.5631
10577TIP3   OH253221   2.553   4.878   5.613  0.9010  0.2733  0.3622
10577TIP3    H153222   2.496   4.938   5.660  2.3273 -0.0343  2.6623
10577TIP3    H253223   2.640   4.917   5.621  1.4469 -0.7115 -0.4938
10578TIP3   OH253224   0.269   4.257   5.842  0.2344  0.2957  0.1059
10578TIP3    H153225   0.224   4.287   5.763  0.4893 -0.2597 -0.2621
10578TIP3    H253226   0.231   4.171   5.860  0.6268  0.1398  0.2153
10579TIP3   OH253227   1.206   6.297  14.386 -0.1651 -0.1352  0.5325
10579TIP3    H153228   1.260   6.254  14.319 -1.9376 -0.3742 -0.8153
10579TIP3    H253229   1.238   6.261  14.469  0.1931 -2.0420 -0.3711
10580TIP3   OH253230   1.149   0.097   0.760 -0.0290 -0.5177 -0.0427
10580TIP3    H153231   1.201   0.100   0.680  3.1215  0.6533  1.8748
10580TIP3    H253232   1.129   0.005   0.773  0.6695 -0.8845 -1.4068
10581TIP3   OH253233   0.159   0.384   3.621 -0.1744  0.1989  0.0389
10581TIP3    H153234   0.215   0.419   3.690 -1.1989 -0.2742  1.1523
10581TIP3    H253235   0.113   0.311   3.663 -0.5131 -0.3735 -1.2768
10582TIP3   OH253236   6.637   5.233   2.087 -0.8214  0.1878 -0.0289
10582TIP3    H153237   6.715   5.180   2.104 -0.4938  1.2922  2.2334
10582TIP3    H253238   6.657   5.318   2.125 -2.2621  1.2395 -1.5004
10583TIP3   OH253239   4.589   0.909   5.266  0.0553  0.2903 -0.3887
10583TIP3    H153240   4.682   0.920   5.286 -0.2775 -1.7670  3.1069
10583TIP3    H253241   4.587   0.842   5.198  1.2351 -2.3012  1.9087
10584TIP3   OH253242   2.094   1.190  17.271 -0.3220 -0.9330 -0.1352
10584TIP3    H153243   2.151   1.117  17.248  2.0297  0.6226  0.3618
10584TIP3    H253244   2.059   1.220  17.188  0.3229 -1.3686 -0.5736
10585TIP3   OH253245   0.193   0.434  14.748  0.0188 -0.0012  0.7821
10585TIP3    H153246   0.279   0.459  14.716 -0.4531 -0.5517 -1.0456
10585TIP3    H253247   0.134   0.451  14.674 -1.4467  0.3632  1.9894
10586TIP3   OH253248   4.453   6.700  13.888 -0.4621 -0.2028 -0.2678
10586TIP3    H153249   4.461   6.667  13.798 -1.2127 -0.9465 -0.0751
10586TIP3    H253250   4.400   6.779  13.879 -2.5387 -1.5225 -0.2567
10587TIP3   OH253251   4.843   1.584  14.977  0.0830 -0.1855 -0.0907
10587TIP3    H153252   4.793   1.620  15.051  0.1023  0.9134 -0.5891
10587TIP3    H253253   4.777   1.539  14.924 -0.3151  0.8478 -0.4967
10588TIP3   OH253254   6.663   5.751  12.819  0.3540  0.2200 -0.3401
10588TIP3    H153255   6.690   5.841  12.837 -0.8259  0.5251 -0.0026
10588TIP3    H253256   6.742   5.709  12.786  1.9948  0.3237  3.0383
10589TIP3   OH253257   2.909   2.749  13.512  0.5665  0.5759  0.4532
10589TIP3    H153258   2.839   2.781  13.569 -1.9228  0.0935 -2.1133
10589TIP3    H253259   2.929   2.823  13.455  0.0295 -0.1348 -0.6983
10590TIP3   OH253260   2.044   3.112   0.259 -0.3245  0.1266 -0.4472
10590TIP3    H153261   2.115   3.119   0.323  2.2143 -2.5698 -2.6906
10590TIP3    H253262   1.980   3.054   0.300  0.6856 -0.5880  0.1630
10591TIP3   OH253263   6.707   0.923   0.225  0.4428 -0.6562  0.2486
10591TIP3    H153264   6.705   1.018   0.213  0.7354 -0.5399  1.0934
10591TIP3    H253265   6.744   0.910   0.312 -0.6194 -1.5057  0.5942
10592TIP3   OH253266   0.750   5.845  13.279 -0.0160  0.2414 -0.0465
10592TIP3    H153267   0.768   5.911  13.211  1.5270 -2.1720 -2.1813
10592TIP3    H253268   0.657   5.824  13.268 -0.2503  1.2404 -0.0774
10593TIP3   OH253269   3.246   3.804  16.380  0.2414 -0.7014 -0.4867
10593TIP3    H153270   3.286   3.737  16.323  0.2931 -0.4844 -0.7063
10593TIP3    H253271   3.187   3.754  16.437  0.2708 -0.9350 -0.6571
10594TIP3   OH253272   5.689   4.943  16.633 -0.2163 -0.1510 -0.0440
10594TIP3    H153273   5.649   4.988  16.559  0.3918  0.8807  0.2411
10594TIP3    H253274   5.766   4.899  16.596 -1.3127 -1.7550 -0.5007
10595TIP3   OH253275   3.384   0.752   1.655 -0.0622 -0.0342 -0.0097
10595TIP3    H153276   3.347   0.799   1.581  0.0551  1.9590  1.1158
10595TIP3    H253277   3.314   0.693   1.683 -0.5249  0.0401 -0.9791
10596TIP3   OH253278   5.515   3.876  16.518 -0.5065  0.3701  0.2744
10596TIP3    H153279   5.584   3.896  16.581  2.3753 -1.1475 -2.0826
10596TIP3    H253280   5.482   3.790  16.546 -0.4060  0.4510  0.6478
10597TIP3   OH253281   3.468   0.972  13.898  0.1997  0.3786  0.1872
10597TIP3    H153282   3.466   0.880  13.871  1.5562  0.6930 -1.1250
10597TIP3    H253283   3.419   1.017  13.829 -0.3493  0.6718  0.7588
10598TIP3   OH253284   0.407   4.441   6.018  0.0153 -0.3159  0.2187
10598TIP3    H153285   0.346   4.387   5.968  1.4452 -0.6258 -1.2695
10598TIP3    H253286   0.415   4.521   5.966 -0.7447  0.6571  1.5230
10599TIP3   OH253287   0.528   4.056  16.223 -0.0785  0.3689 -0.0365
10599TIP3    H153288   0.476   4.123  16.267 -0.7340 -0.6283  0.7527
10599TIP3    H253289   0.499   3.974  16.261  1.0383 -0.3434 -0.6520
10600TIP3   OH253290   2.976   0.046  17.293 -0.4010  0.3049 -0.2311
10600TIP3    H153291   2.927  -0.036  17.292  1.2541 -0.7400 -1.6065
10600TIP3    H253292   2.974   0.074  17.384 -0.8831 -1.3597  0.3122
10601TIP3   OH253293   1.824   3.069   5.089 -0.3999  0.4824  0.1174
10601TIP3    H153294   1.848   2.985   5.049  1.6738  0.7259  0.7657
10601TIP3    H253295   1.765   3.045   5.161  0.3965 -0.4480  0.4764
10602TIP3   OH253296   5.877   2.826  15.190 -0.8025  0.1096 -0.1345
10602TIP3    H153297   5.970   2.830  15.212 -0.7941 -1.1702  0.1572
10602TIP3    H253298   5.832   2.853  15.270 -0.7000  1.8486 -0.6163
10603TIP3   OH253299   2.271   6.615   5.432  0.0822 -0.0779  0.2248
10603TIP3    H153300   2.341   6.623   5.367  0.4898 -1.1303  0.5240
10603TIP3    H253301   2.203   6.564   5.388  0.5471 -1.1786  0.7618
10604TIP3   OH253302   6.170   3.257  13.010  0.1944  0.5296 -0.2908
10604TIP3    H153303   6.099   3.239  12.948 -0.5695  1.5797  0.2454
10604TIP3    H253304   6.135   3.230  13.095 -0.6718  3.4807  0.4195
10605TIP3   OH253305   0.702   5.942   2.063 -0.1792 -0.2346  0.1675
10605TIP3    H153306   0.759   5.936   1.985  0.3935 -1.2821  0.6347
10605TIP3    H253307   0.695   6.035   2.080  0.5885 -0.0337 -0.5028
10606TIP3   OH253308   2.181   3.777  14.214 -1.0603  0.0743 -0.1498
10606TIP3    H153309   2.100   3.795  14.166  0.0895  1.3404 -1.7123
10606TIP3    H253310   2.196   3.856  14.266 -1.6386 -0.8017  1.4176
10607TIP3   OH253311   6.768   4.420  16.479  0.0618  0.4556  0.1786
10607TIP3    H153312   6.826   4.362  16.529 -0.3977  1.9899  2.6735
10607TIP3    H253313   6.724   4.472  16.545 -1.8788  1.5032 -1.8191
10608TIP3   OH253314   1.533   1.352  16.615  0.2429 -0.2103  0.0071
10608TIP3    H153315   1.529   1.433  16.665 -0.3193 -1.1982  1.6581
10608TIP3    H253316   1.619   1.316  16.634  0.3615 -0.1700 -0.4455
10609TIP3   OH253317   3.196   0.061   1.161 -0.5576  0.6784 -0.2527
10609TIP3    H153318   3.119   0.116   1.144 -0.6552  0.6057 -0.0501
10609TIP3    H253319   3.161  -0.028   1.163 -0.7253  0.7544  1.3226
10610TIP3   OH253320   3.389   0.491  10.547 -0.3215  0.1513 -0.0583
10610TIP3    H153321   3.317   0.458  10.602  0.0150  0.5969  0.6740
10610TIP3    H253322   3.432   0.557  10.602 -0.1976  0.8808 -1.0025
10611TIP3   OH253323   4.136   2.341   6.439  0.8833 -0.3311  0.0699
10611TIP3    H153324   4.060   2.286   6.455  0.9716 -0.1238  1.2726
10611TIP3    H253325   4.188   2.335   6.519  1.5583  0.4281 -0.2938
10612TIP3   OH253326   6.240   4.641   4.023 -0.1558 -0.3909 -0.9456
10612TIP3    H153327   6.187   4.675   4.095  1.2495 -3.9512  2.1519
10612TIP3    H253328   6.212   4.549   4.015  0.7218 -0.4915 -4.1250
10613TIP3   OH253329   2.944   4.602   3.541 -0.2499  0.8255  0.3938
10613TIP3    H153330   2.910   4.567   3.459 -0.9182  0.4680  0.8182
10613TIP3    H253331   2.888   4.677   3.561  0.0295  1.0293  0.4321
10614TIP3   OH253332   6.499   4.325  13.604 -0.5892  0.0388  0.3436
10614TIP3    H153333   6.420   4.366  13.570  0.4441 -0.1491 -2.5604
10614TIP3    H253334   6.570   4.384  13.576  0.3970 -0.2364  2.1257
10615TIP3   OH253335   1.566   5.745   0.937 -0.2906  0.2944 -0.2614
10615TIP3    H153336   1.627   5.817   0.923 -0.5756  0.5438 -0.2468
10615TIP3    H253337   1.596   5.703   1.018 -0.1450  0.4194 -0.2507
10616TIP3   OH253338   2.519   6.096  16.966  0.5337 -0.0284 -0.0358
10616TIP3    H153339   2.546   6.168  17.022 -0.7101  1.0539 -0.7803
10616TIP3    H253340   2.523   6.131  16.877  1.8890 -1.5291 -0.6323
10617TIP3   OH253341   4.587   5.269   1.878 -0.2714 -0.5158  0.1613
10617TIP3    H153342   4.542   5.285   1.961  1.2755  0.9278  0.7772
10617TIP3    H253343   4.606   5.357   1.845 -1.5379 -1.0215 -2.1592
10618TIP3   OH253344   2.792   0.662  13.341  0.2389  0.1865  0.1914
10618TIP3    H153345   2.741   0.643  13.262  1.0877  1.7052 -0.7887
10618TIP3    H253346   2.749   0.739  13.379 -1.0508 -1.3708  2.1097
10619TIP3   OH253347   3.344   3.279   2.892  0.0014  0.3727 -0.5135
10619TIP3    H153348   3.428   3.278   2.845 -0.6826  0.6930 -1.8008
10619TIP3    H253349   3.294   3.349   2.849 -0.5321  0.9479  0.9677
10620TIP3   OH253350   4.080   6.503  14.826  0.1011 -0.4552  0.8075
10620TIP3    H153351   4.007   6.489  14.766  1.5134 -2.0008 -0.6550
10620TIP3    H253352   4.105   6.594  14.813 -1.1319 -0.0925  0.8559
10621TIP3   OH253353   0.960   6.365  13.838  0.5039  0.0755 -0.3655
10621TIP3    H153354   0.892   6.433  13.832 -0.6529 -0.7371  2.0491
10621TIP3    H253355   0.978   6.342  13.747  0.4898  3.1179 -1.2560
10622TIP3   OH253356   4.392   2.179  16.970 -0.3777  0.2587 -0.0602
10622TIP3    H153357   4.488   2.178  16.971 -0.3313 -2.3360 -0.4523
10622TIP3    H253358   4.368   2.104  16.916 -2.6665  0.9279 -0.0751
10623TIP3   OH253359   5.286   0.356   4.622  0.6084 -0.3541  0.3485
10623TIP3    H153360   5.381   0.347   4.616  0.4726 -1.0885 -1.1471
10623TIP3    H253361   5.272   0.447   4.647  1.6795  0.5962 -2.2150
10624TIP3   OH253362   0.802   6.115  16.757  0.6849  0.1388  0.4107
10624TIP3    H153363   0.788   6.118  16.851  0.4281 -1.9302  0.4832
10624TIP3    H253364   0.860   6.041  16.743 -1.5720 -1.4732 -1.2381
10625TIP3   OH253365   0.436   0.609  16.688  0.2258 -0.2261 -0.0871
10625TIP3    H153366   0.409   0.572  16.772  2.6168 -0.5868  0.5798
10625TIP3    H253367   0.485   0.688  16.710  0.8174 -0.2749 -1.1446
10626TIP3   OH253368   4.259   3.532  11.923 -0.6670  1.0629  0.1040
10626TIP3    H153369   4.201   3.471  11.969 -3.8872  4.2366  0.7403
10626TIP3    H253370   4.252   3.507  11.831 -0.2724 -0.6834  0.5122
10627TIP3   OH253371   1.416   2.160  12.059  0.2109  0.1348  0.0222
10627TIP3    H153372   1.399   2.184  11.968  0.2113  0.6462  0.1512
10627TIP3    H253373   1.390   2.068  12.065 -2.2003  0.7449  0.1249
10628TIP3   OH253374   3.632   5.990   5.569  0.5057 -0.2704 -0.1070
10628TIP3    H153375   3.647   6.070   5.619 -0.2623 -1.4169  2.0952
10628TIP3    H253376   3.548   6.006   5.524  0.8860  0.5382 -0.5526
10629TIP3   OH253377   0.215   2.043  16.530  0.0927 -0.4008  0.2374
10629TIP3    H153378   0.142   2.082  16.578  0.3253 -0.7835  0.9239
10629TIP3    H253379   0.268   2.001  16.598  0.2935 -1.1800 -0.3929
10630TIP3   OH253380   3.573   6.216   0.116  0.0520 -0.4325  0.0893
10630TIP3    H153381   3.626   6.175   0.047  0.9135 -1.6993  1.4533
10630TIP3    H253382   3.602   6.307   0.117  1.4994 -0.8704  0.1258
10631TIP3   OH253383   3.219   0.030  12.974 -0.7832 -0.0855 -0.2622
10631TIP3    H153384   3.216  -0.058  12.936  1.2814 -0.5152  0.4424
10631TIP3    H253385   3.257   0.017  13.061 -2.5221  1.2631  0.7681
10632TIP3   OH253386   1.750   6.633   2.389 -0.1161 -0.0037 -0.0509
10632TIP3    H153387   1.718   6.689   2.318  0.5933 -0.6851 -0.9393
10632TIP3    H253388   1.791   6.694   2.451  0.5327  0.4886 -0.9393
10633TIP3   OH253389   6.119   2.105   1.373 -0.3717  0.4206 -0.0216
10633TIP3    H153390   6.145   2.190   1.336 -1.8349  0.2431 -1.5903
10633TIP3    H253391   6.191   2.046   1.351 -1.1261  0.3395 -2.6814
10634TIP3   OH253392   5.533   6.252   5.027  0.5589  0.0631 -0.6949
10634TIP3    H153393   5.459   6.311   5.014 -0.4183 -1.0355 -0.3595
10634TIP3    H253394   5.585   6.293   5.096 -0.7966 -0.0785  0.4639
10635TIP3   OH253395   2.394   5.488  10.640  0.5443 -0.7061 -0.2632
10635TIP3    H153396   2.443   5.445  10.710 -1.4093 -0.6405  1.2139
10635TIP3    H253397   2.416   5.437  10.561  0.4476 -2.6862  0.9286
10636TIP3   OH253398   2.700   5.711  16.246 -0.3691  0.0905  0.4798
10636TIP3    H153399   2.667   5.736  16.332 -0.4627 -0.6312  0.6654
10636TIP3    H253400   2.690   5.789  16.192 -1.8812  0.0586  0.6761
10637TIP3   OH253401   6.269   3.245   4.505 -0.1310 -0.1160  0.0517
10637TIP3    H153402   6.350   3.200   4.530  1.4190  1.7884 -1.2760
10637TIP3    H253403   6.276   3.257   4.410 -0.1193  3.3812  0.3686
10638TIP3   OH253404   6.120   0.498   2.286 -0.3339  0.0825 -0.8574
10638TIP3    H153405   6.212   0.489   2.261  0.0960  2.1210 -0.2273
10638TIP3    H253406   6.117   0.577   2.339 -2.4906  0.1766 -1.0051
10639TIP3   OH253407   1.289   5.034   6.133  0.2129 -0.1805 -0.0693
10639TIP3    H153408   1.350   4.967   6.165 -1.0327 -0.8404  1.0329
10639TIP3    H253409   1.266   5.084   6.211 -1.4250 -0.6080 -0.2442
10640TIP3   OH253410   5.847   2.926   2.621  0.0306  1.0225  0.1954
10640TIP3    H153411   5.789   2.988   2.576 -1.8955  0.8090  2.1960
10640TIP3    H253412   5.897   2.981   2.681 -0.6337  0.8431  0.9326
10641TIP3   OH253413   6.087   1.773  14.207 -0.0455 -0.0603  0.1004
10641TIP3    H153414   6.119   1.798  14.120 -1.8351  0.2139 -0.5175
10641TIP3    H253415   6.156   1.803  14.267  2.0739 -1.8056 -1.2866
10642TIP3   OH253416   4.492   5.480   6.068 -0.1618 -0.3450  0.3531
10642TIP3    H153417   4.518   5.453   5.980 -0.1265 -1.7068  0.7677
10642TIP3    H253418   4.541   5.561   6.083  0.0077 -0.2200 -0.7808
10643TIP3   OH253419   6.140   5.458   0.515 -0.1430 -0.1148 -0.0632
10643TIP3    H153420   6.202   5.389   0.492  1.1242  0.7729  0.5148
10643TIP3    H253421   6.194   5.537   0.520 -1.1439  0.5230  1.4899
10644TIP3   OH253422   1.263   5.341  16.676 -0.8385  0.2655 -0.2873
10644TIP3    H153423   1.278   5.378  16.590 -0.8785 -1.9131 -1.3095
10644TIP3    H253424   1.181   5.292  16.667  0.3553 -1.9695  0.2222
10645TIP3   OH253425   1.479   5.355  15.243 -0.4086  0.3348 -0.4432
10645TIP3    H153426   1.419   5.414  15.197  0.1350 -0.2016 -1.9050
10645TIP3    H253427   1.423   5.293  15.287 -0.9778 -0.4645 -2.1934
10646TIP3   OH253428   4.734   5.150   3.456  0.2796  0.8159 -0.0935
10646TIP3    H153429   4.826   5.170   3.475  0.3617 -0.9640  1.6049
10646TIP3    H253430   4.738   5.085   3.386  0.3016  0.9861 -0.2511
10647TIP3   OH253431   2.193   5.072   5.099 -0.1726 -0.0579 -0.0874
10647TIP3    H153432   2.240   5.062   5.016  0.7746  2.4372  0.0797
10647TIP3    H253433   2.100   5.074   5.073  0.1595  3.7903 -1.6204
10648TIP3   OH253434   5.701   2.952   0.027  0.3398 -0.2862 -0.3157
10648TIP3    H153435   5.745   3.018   0.081 -0.2564 -0.0733 -0.0803
10648TIP3    H253436   5.766   2.883   0.015  0.4068 -0.4358  0.8520
10649TIP3   OH253437   1.274   1.083   1.453  0.0670  0.6147 -0.4286
10649TIP3    H153438   1.299   1.023   1.383 -0.0636 -0.4986  0.4609
10649TIP3    H253439   1.349   1.141   1.463  1.4384 -1.2606  0.6960
10650TIP3   OH253440   4.585   5.449  14.961  0.2401  0.1515 -0.5584
10650TIP3    H153441   4.508   5.407  14.922 -0.2891  0.1826  0.4232
10650TIP3    H253442   4.605   5.396  15.038  1.2868  0.0768 -0.8625
10651TIP3   OH253443   1.234   4.891   1.016 -0.1749  0.3753 -0.1003
10651TIP3    H153444   1.153   4.913   0.970  0.2597 -0.7043 -1.4442
10651TIP3    H253445   1.282   4.974   1.022  0.2273  0.3956 -2.6124
10652TIP3   OH253446   5.919   2.852  16.016 -0.1975  0.4945 -0.6358
10652TIP3    H153447   5.873   2.873  16.097  0.6334 -0.5400  0.1241
10652TIP3    H253448   5.895   2.923  15.956  0.3976  2.1408  0.9884
10653TIP3   OH253449   4.707   1.909  17.017 -0.1869 -0.4786 -0.2659
10653TIP3    H153450   4.682   1.818  17.004 -4.4598  0.5382 -0.6798
10653TIP3    H253451   4.662   1.935  17.098  0.3197  1.4684 -0.5549
10654TIP3   OH253452   0.923   0.747   5.759  0.1696  0.4908  0.1548
10654TIP3    H153453   1.015   0.768   5.770  0.3648 -0.9511  1.6408
10654TIP3    H253454   0.912   0.735   5.665  1.3004  1.4424 -0.1247
10655TIP3   OH253455   4.181   6.302   5.967 -0.1852 -0.7564  0.3188
10655TIP3    H153456   4.252   6.298   5.904 -0.5361 -0.5806 -0.0921
10655TIP3    H253457   4.208   6.368   6.031 -0.3039 -0.1655 -0.2366
10656TIP3   OH253458   4.442   4.836  17.149 -0.0759 -0.2928  0.5855
10656TIP3    H153459   4.404   4.835  17.061 -0.1775 -0.8415  0.6333
10656TIP3    H253460   4.373   4.799  17.205 -0.6737  1.5820  1.1764
10657TIP3   OH253461   1.943   4.004  14.426  0.1953 -0.1377 -0.2847
10657TIP3    H153462   1.872   4.033  14.483  0.2380  0.1117 -0.3615
10657TIP3    H253463   1.998   3.949  14.483  0.6334  0.6909  0.1049
10658TIP3   OH253464   3.027   5.290   1.266 -0.2670 -0.2729 -0.0431
10658TIP3    H153465   3.114   5.329   1.265 -0.0454 -0.7079  0.8620
10658TIP3    H253466   2.968   5.362   1.284  0.1170 -0.2954  1.4174
10659TIP3   OH253467   6.523   4.724   5.554 -0.4200 -0.2433  0.2614
10659TIP3    H153468   6.601   4.750   5.604 -0.7802  0.2294  0.5811
10659TIP3    H253469   6.476   4.664   5.612 -0.6982  0.0942  0.3919
10660TIP3   OH253470   6.026   5.518   3.505  0.0583 -0.0936 -0.1089
10660TIP3    H153471   6.004   5.426   3.498  1.2740 -0.3647 -0.5610
10660TIP3    H253472   5.967   5.552   3.572 -0.3809 -1.1994  0.0749
10661TIP3   OH253473   1.195   6.554   2.506 -0.2540 -0.2153  0.6684
10661TIP3    H153474   1.285   6.547   2.473 -0.0723  1.1978  0.7627
10661TIP3    H253475   1.143   6.502   2.445  0.4247  0.2380 -0.3303
10662TIP3   OH253476   2.907   2.339   1.015  0.1423 -0.3721  0.7865
10662TIP3    H153477   2.860   2.256   1.019  0.4013 -0.6216 -0.7566
10662TIP3    H253478   2.890   2.372   0.927  1.5917  0.2828  0.7234
10663TIP3   OH253479   0.268   0.795  16.505 -0.1246 -0.2946  0.4066
10663TIP3    H153480   0.312   0.749  16.577 -0.8381  1.0161  1.7596
10663TIP3    H253481   0.201   0.733  16.474  0.1029 -0.8328  0.9644
10664TIP3   OH253482   3.963   0.082  13.919  0.3401  0.0430 -0.5283
10664TIP3    H153483   3.869   0.092  13.911  0.2653 -0.8008 -0.7690
10664TIP3    H253484   3.994   0.167  13.952 -0.5588  0.1422  0.0745
10665TIP3   OH253485   5.399   1.099  14.936 -0.1655 -0.4578 -0.0787
10665TIP3    H153486   5.374   1.187  14.905  1.2617  0.1968  0.5262
10665TIP3    H253487   5.420   1.112  15.028 -1.1470 -1.7196  0.3426
10666TIP3   OH253488   0.569   2.318  17.075 -0.0239 -0.3140  0.0242
10666TIP3    H153489   0.617   2.252  17.027  1.7623 -0.7074  2.1740
10666TIP3    H253490   0.483   2.320  17.034  0.1590 -3.2892 -0.7043
10667TIP3   OH253491   0.979   2.390   2.166  0.0859  0.0080 -0.2395
10667TIP3    H153492   0.993   2.320   2.230  0.1344 -0.9690 -1.2992
10667TIP3    H253493   0.947   2.464   2.218 -0.4080 -0.9391  0.8357
10668TIP3   OH253494   0.652   6.644   2.271  0.5289 -0.7666 -0.0535
10668TIP3    H153495   0.608   6.725   2.296 -0.3111 -0.8395 -1.1978
10668TIP3    H253496   0.606   6.576   2.320 -1.3158 -0.9468 -1.8833
10669TIP3   OH253497   5.570   1.392   1.362  0.3250 -0.6544 -0.3089
10669TIP3    H153498   5.665   1.400   1.364  0.1823  1.5619  1.7443
10669TIP3    H253499   5.542   1.456   1.297  0.2343 -2.2943 -1.9588
10670TIP3   OH253500   2.924   1.821  17.174 -0.1446 -0.2774 -0.1386
10670TIP3    H153501   2.886   1.822  17.086  1.4712 -1.0901 -0.8851
10670TIP3    H253502   3.013   1.855  17.163  0.0412 -0.2505  1.2127
10671TIP3   OH253503   3.209   1.679   1.634  0.2453  0.1150 -0.3448
10671TIP3    H153504   3.294   1.638   1.652 -0.5264 -0.5110  2.2228
10671TIP3    H253505   3.203   1.750   1.698 -0.7265  0.8707 -1.2429
10672TIP3   OH253506   2.046   0.704   1.914  0.0078  0.0417  0.4408
10672TIP3    H153507   2.126   0.752   1.936  0.2459  0.8447 -1.8589
10672TIP3    H253508   2.070   0.652   1.837 -1.4612 -0.3453  0.2154
10673TIP3   OH253509   5.962   3.274  11.269  0.1609  0.1901  0.1488
10673TIP3    H153510   5.897   3.301  11.333  1.5782  0.2899  1.6032
10673TIP3    H253511   5.958   3.342  11.201 -1.2437  0.1665  0.1855
10674TIP3   OH253512   6.332   4.574  14.359  0.4167  0.3472  0.1463
10674TIP3    H153513   6.424   4.562  14.337  0.1921 -3.0107  0.4034
10674TIP3    H253514   6.331   4.591  14.453  0.7835  1.0577  0.0242
10675TIP3   OH253515   5.199   4.716   0.553 -0.2594  0.4454 -0.0934
10675TIP3    H153516   5.113   4.682   0.529 -0.5895  0.6862  0.7106
10675TIP3    H253517   5.237   4.747   0.471 -1.2069  0.9324 -0.3612
10676TIP3   OH253518   3.792   5.847  13.646  0.0269 -0.2414  0.0496
10676TIP3    H153519   3.701   5.839  13.676 -0.3195 -0.9647 -1.1692
10676TIP3    H253520   3.803   5.941  13.632 -1.3140 -0.3268 -2.0584
10677TIP3   OH253521   6.487   1.296  16.674 -0.7230 -0.0773  0.1531
10677TIP3    H153522   6.478   1.241  16.752 -0.2093  0.9419  0.9562
10677TIP3    H253523   6.557   1.255  16.624 -0.3930 -0.1968  0.7048
10678TIP3   OH253524   0.049   5.820  16.322  0.0744 -0.5222 -0.1941
10678TIP3    H153525   0.058   5.735  16.367  0.1586  0.2286  1.2792
10678TIP3    H253526   0.106   5.879  16.371 -1.0575  0.7237 -0.3143
10679TIP3   OH253527   3.314   0.284  11.742 -0.0236  0.9452  0.1323
10679TIP3    H153528   3.225   0.253  11.723 -0.5029  1.5299  1.3461
10679TIP3    H253529   3.345   0.227  11.812  1.4401 -0.6959 -1.7378
10680TIP3   OH253530   1.780   6.048   3.091 -0.1847 -0.8898 -0.4730
10680TIP3    H153531   1.866   6.006   3.081  0.4636 -0.2894  1.7905
10680TIP3    H253532   1.793   6.111   3.162 -2.2380  0.0335 -0.8404
10681TIP3   OH253533   6.501   0.758  14.638  0.1487 -0.3723 -0.0593
10681TIP3    H153534   6.474   0.752  14.730 -0.3702  0.2435 -0.1672
10681TIP3    H253535   6.593   0.781  14.642  0.7979 -2.7182  0.3183
10682TIP3   OH253536   0.690   2.255   4.981  0.4151  0.0194  0.6778
10682TIP3    H153537   0.648   2.305   4.911 -2.2166 -2.5429  0.2315
10682TIP3    H253538   0.764   2.211   4.938 -1.4424 -1.9076 -0.7728
10683TIP3   OH253539   4.018   6.532  13.419  0.6318 -0.2632 -0.6737
10683TIP3    H153540   4.018   6.576  13.504 -0.1706  1.6662 -1.6094
10683TIP3    H253541   3.992   6.442  13.439  1.8023 -0.2331  1.2672
10684TIP3   OH253542   1.976   5.082   5.470  0.0514  0.2307  0.3072
10684TIP3    H153543   1.938   5.164   5.437  0.3187 -0.2538 -1.3211
10684TIP3    H253544   1.970   5.022   5.395  1.4025 -0.7231  0.9326
10685TIP3   OH253545   2.248   2.355  11.469 -0.4592 -0.3543 -0.2560
10685TIP3    H153546   2.242   2.332  11.377 -1.5345  1.9056 -0.8233
10685TIP3    H253547   2.175   2.309  11.511 -0.7316 -0.3977 -0.7774
10686TIP3   OH253548   3.853   1.002  14.936 -0.3986 -0.5667 -0.7833
10686TIP3    H153549   3.892   1.077  14.981 -0.8128  0.5651 -2.2104
10686TIP3    H253550   3.792   0.965  14.999 -0.2856  0.3763 -0.0905
10687TIP3   OH253551   4.525   0.401   5.402 -0.1964 -0.6751 -0.4070
10687TIP3    H153552   4.610   0.389   5.444 -1.2172 -0.7194  1.8104
10687TIP3    H253553   4.523   0.494   5.377  0.1233 -0.4191  0.4732
10688TIP3   OH253554   6.240   2.300  17.161  0.2734  0.3574  0.3555
10688TIP3    H153555   6.155   2.317  17.120 -0.4526 -0.2665  1.5339
10688TIP3    H253556   6.243   2.359  17.236  0.7003  0.0777  0.5618
10689TIP3   OH253557   0.521   6.164   5.279  0.1382  0.0564 -0.6526
10689TIP3    H153558   0.564   6.145   5.363  1.3014 -0.0832 -1.2536
10689TIP3    H253559   0.515   6.259   5.275 -0.4598  0.0451 -0.1620
10690TIP3   OH253560   1.219   2.783   5.295 -0.2420 -0.1088 -0.1782
10690TIP3    H153561   1.233   2.764   5.388  0.5675 -0.0928 -0.2908
10690TIP3    H253562   1.249   2.874   5.284 -0.2435 -0.1406 -0.4691
10691TIP3   OH253563   0.783   1.496  10.772  0.4389 -0.3296  0.6352
10691TIP3    H153564   0.782   1.592  10.774 -0.2242 -0.3305  0.3015
10691TIP3    H253565   0.828   1.474  10.690  0.3823 -0.3081  0.5989
10692TIP3   OH253566   2.519   5.580   0.504  0.2374 -0.0623 -0.7829
10692TIP3    H153567   2.582   5.527   0.553  0.2039  0.0161 -0.6536
10692TIP3    H253568   2.461   5.616   0.571 -0.1378 -0.3922 -0.9305
10693TIP3   OH253569   2.752   0.572   4.432  0.1337  0.1918  0.0977
10693TIP3    H153570   2.707   0.585   4.516  1.3723  1.5701  0.5847
10693TIP3    H253571   2.704   0.629   4.371 -1.6521 -1.8522 -0.5340
10694TIP3   OH253572   5.717   3.339  12.334 -0.1224  0.0136  0.1874
10694TIP3    H153573   5.656   3.274  12.299 -0.4722  1.3996 -1.9549
10694TIP3    H253574   5.674   3.423  12.318  1.3811  0.9139  0.6752
10695TIP3   OH253575   0.369   0.624   5.340  0.3559 -0.2747  0.4820
10695TIP3    H153576   0.305   0.604   5.408 -0.6376 -1.8440 -0.8603
10695TIP3    H253577   0.451   0.637   5.388 -0.9149  2.0008  2.2659
10696TIP3   OH253578   1.742   0.143   1.882 -0.1713  0.1641  0.0975
10696TIP3    H153579   1.664   0.167   1.832 -0.2625  1.1572  0.6899
10696TIP3    H253580   1.814   0.188   1.838 -0.0346 -0.1177  0.0240
10697TIP3   OH253581   4.131   3.874   6.224  0.1503 -0.2211  0.7162
10697TIP3    H153582   4.216   3.873   6.178 -0.1853  1.4475 -0.0297
10697TIP3    H253583   4.154   3.885   6.316  0.7688  0.6177  0.4843
10698TIP3   OH253584   2.671   3.087  11.392  0.3475  0.1596 -0.1941
10698TIP3    H153585   2.726   3.012  11.372 -1.4459 -1.5475  0.8677
10698TIP3    H253586   2.701   3.117  11.478  1.6873  1.3342 -1.0244
10699TIP3   OH253587   1.226   1.029   6.091  0.4111 -0.3833  0.1973
10699TIP3    H153588   1.285   0.995   6.158 -0.2985 -0.7014  0.6638
10699TIP3    H253589   1.206   1.118   6.119 -0.4460 -0.7489  0.8061
10700TIP3   OH253590   3.050   0.853   5.710  0.4369  0.2128 -0.2276
10700TIP3    H153591   3.023   0.932   5.663  0.8497  1.1280  1.0053
10700TIP3    H253592   3.116   0.813   5.654 -2.8632 -1.8145 -3.0862
10701TIP3   OH253593   0.199   2.676  13.115 -0.6321 -0.3210 -0.0489
10701TIP3    H153594   0.111   2.641  13.105 -0.3822 -0.6197 -1.5165
10701TIP3    H253595   0.252   2.600  13.139 -0.2673 -0.8113 -2.2282
10702TIP3   OH253596   5.453   3.803  11.283 -0.6774 -0.6415 -0.5279
10702TIP3    H153597   5.469   3.829  11.193  2.3527  0.8941  0.3304
10702TIP3    H253598   5.390   3.867  11.316 -0.3819 -0.0866 -1.0313
10703TIP3   OH253599   2.854   0.910  14.347  1.0390  0.6094  0.6173
10703TIP3    H153600   2.826   0.878  14.433 -0.4816  0.1334 -0.0062
10703TIP3    H253601   2.814   0.997  14.340  0.9882  0.5634  0.3198
10704TIP3   OH253602   6.140   4.006  16.143 -0.9241 -0.4906  0.5883
10704TIP3    H153603   6.172   4.085  16.187 -0.5293 -0.7360  0.7452
10704TIP3    H253604   6.114   3.947  16.214 -0.3544 -0.8574  0.5046
10705TIP3   OH253605   5.707   2.102   4.492 -0.0324 -0.2030 -0.7716
10705TIP3    H153606   5.647   2.052   4.547  0.4831 -2.4591 -2.1311
10705TIP3    H253607   5.654   2.173   4.458 -1.6554 -1.4662 -1.0167
10706TIP3   OH253608   1.649   3.825  13.414 -0.3144  0.0709  0.2300
10706TIP3    H153609   1.622   3.893  13.477 -0.5439 -1.5270  1.9470
10706TIP3    H253610   1.720   3.778  13.459 -0.0887 -0.7737 -0.9673
10707TIP3   OH253611   5.071   5.026  14.134  1.0250 -0.3119  0.1277
10707TIP3    H153612   5.136   4.977  14.083 -0.6047 -0.5207 -1.9112
10707TIP3    H253613   5.021   5.074  14.068 -1.0818 -0.3925  1.5713
10708TIP3   OH253614   5.981   5.797  15.903  0.0832 -0.9594 -0.4458
10708TIP3    H153615   5.991   5.887  15.873 -1.3254 -0.4230  0.5616
10708TIP3    H253616   6.047   5.788  15.972 -0.8327 -0.1312  0.5791
10709TIP3   OH253617   5.546   1.736  15.121 -0.0089 -0.0710  0.2137
10709TIP3    H153618   5.457   1.748  15.156 -0.5858 -1.8160 -0.5532
10709TIP3    H253619   5.561   1.814  15.067 -0.2198  1.2646  1.9842
10710TIP3   OH253620   2.647   1.023   1.372 -0.0507  0.5386  0.0704
10710TIP3    H153621   2.608   1.066   1.448  0.0751 -0.8023  0.9290
10710TIP3    H253622   2.731   1.068   1.360  0.0935  0.5313  0.9606
10711TIP3   OH253623   4.157   6.352  10.498  0.2001 -0.1582  0.3092
10711TIP3    H153624   4.236   6.341  10.446 -1.0252 -0.5203 -1.5994
10711TIP3    H253625   4.104   6.275  10.478 -1.3808  0.9316  0.0929
10712TIP3   OH253626   3.137   5.984  13.086  0.7668 -0.2116 -0.0686
10712TIP3    H153627   3.073   5.915  13.072  1.2433 -0.9579  1.2990
10712TIP3    H253628   3.132   6.037  13.006 -0.3938 -1.1685 -0.6685
10713TIP3   OH253629   3.318   6.705   3.632  0.7691 -0.4145  0.4137
10713TIP3    H153630   3.274   6.682   3.714 -0.4585 -3.0296 -0.8660
10713TIP3    H253631   3.252   6.754   3.583  0.4265 -1.3977 -0.1409
10714TIP3   OH253632   6.755   0.858  16.687  0.6467 -0.2206 -0.4349
10714TIP3    H153633   6.696   0.916  16.736  2.5650  2.4534 -1.0584
10714TIP3    H253634   6.729   0.871  16.595 -1.0252 -2.9807 -0.4562
10715TIP3   OH253635   5.635   4.892   2.368 -1.0582  0.0748  0.5303
10715TIP3    H153636   5.588   4.974   2.375 -0.7488  0.3077 -0.0238
10715TIP3    H253637   5.686   4.886   2.449 -0.6121  0.7298  0.3000
10716TIP3   OH253638   6.090   5.160   3.035 -0.0299 -0.0189  0.0435
10716TIP3    H153639   6.046   5.171   3.119  1.9343  1.5163  0.9601
10716TIP3    H253640   6.062   5.235   2.983 -0.1171 -0.1928 -0.1657
10717TIP3   OH253641   5.442   0.374  16.536 -0.0982  0.2969 -0.2798
10717TIP3    H153642   5.374   0.432  16.570 -0.1012  0.7146 -0.9704
10717TIP3    H253643   5.425   0.370  16.442 -0.3975 -1.2213 -0.1914
10718TIP3   OH253644   4.073   5.855   0.924 -0.4019 -0.1590  0.2305
10718TIP3    H153645   4.129   5.930   0.906  1.6707 -2.0280 -1.6452
10718TIP3    H253646   4.083   5.840   1.018 -1.6263  2.4062  0.8467
10719TIP3   OH253647   6.054   0.105   5.679 -0.7248 -0.3435 -0.0997
10719TIP3    H153648   5.987   0.174   5.684 -1.8458 -1.4256  0.2662
10719TIP3    H253649   6.057   0.082   5.586 -0.7586 -0.2011 -0.1371
10720TIP3   OH253650   1.965   3.401  15.185 -0.0158 -0.6721 -0.1289
10720TIP3    H153651   1.902   3.360  15.244  1.2659  0.1475  1.9327
10720TIP3    H253652   1.976   3.490  15.219 -0.2319  0.3029 -2.4758
10721TIP3   OH253653   4.337   1.237  17.354 -0.2635  0.3498 -0.0930
10721TIP3    H153654   4.335   1.301  17.424 -2.7216  1.8212 -1.3899
10721TIP3    H253655   4.287   1.163  17.387 -0.5288  0.6077  0.0822
10722TIP3   OH253656   4.503   5.337   5.274 -0.2077 -0.0334  0.2760
10722TIP3    H153657   4.572   5.296   5.221 -1.3510  0.2253 -1.5316
10722TIP3    H253658   4.527   5.430   5.278 -1.1195  0.3423 -1.6223
10723TIP3   OH253659   6.078   3.442  17.463  0.4451  0.2629  0.3997
10723TIP3    H153660   6.097   3.357  17.424  1.5480  0.1536  1.1534
10723TIP3    H253661   6.132   3.503  17.414  0.8354  0.3099  0.8878
10724TIP3   OH253662   6.056   2.308   3.000 -0.1196 -0.1452  0.2398
10724TIP3    H153663   6.082   2.292   2.909 -0.8844  1.1359 -0.2363
10724TIP3    H253664   6.100   2.239   3.050  1.2663 -0.1870 -0.9481
10725TIP3   OH253665   5.952   4.458  11.290 -0.5768  0.3815 -0.0137
10725TIP3    H153666   5.974   4.550  11.281 -0.4206  0.2795 -0.7889
10725TIP3    H253667   5.861   4.452  11.260  0.4711 -0.2360 -3.6349
10726TIP3   OH253668   3.945   2.160   4.771  0.0746  0.3708 -0.4214
10726TIP3    H153669   3.915   2.091   4.832 -1.6792  1.5441  0.1333
10726TIP3    H253670   4.011   2.117   4.717  0.8682 -1.0564  1.5367
10727TIP3   OH253671   6.209   5.539   6.824 -0.1053  0.0978  0.0325
10727TIP3    H153672   6.272   5.610   6.807  0.8902 -1.1598 -2.0160
10727TIP3    H253673   6.257   5.477   6.879  0.0621 -0.3231 -0.5781
10728TIP3   OH253674   5.687   2.033  16.592  0.1340  0.1588 -0.0166
10728TIP3    H153675   5.746   2.015  16.665 -1.1255  0.8997  1.2293
10728TIP3    H253676   5.619   1.966  16.598 -1.3090  1.6349  1.0284
10729TIP3   OH253677   2.575   6.353   4.134  0.3600 -0.2352  0.6034
10729TIP3    H153678   2.509   6.388   4.074 -0.2635 -1.1058  0.7574
10729TIP3    H253679   2.583   6.260   4.110  2.3089  0.0677 -0.1100
10730TIP3   OH253680   5.393   2.777  15.183 -0.2033 -0.3194 -0.3226
10730TIP3    H153681   5.473   2.734  15.209  0.0161  0.6110  0.5877
10730TIP3    H253682   5.419   2.867  15.162 -1.0918  0.1988  0.6676
10731TIP3   OH253683   6.265   2.214  17.461 -0.4193  0.3883  0.6233
10731TIP3    H153684   6.220   2.297  17.446 -0.7941 -0.0049 -0.5861
10731TIP3    H253685   6.340   2.216  17.401 -2.3240 -1.5157 -2.0666
10732TIP3   OH253686   2.777   6.740   3.911 -0.3919  0.3491  0.4693
10732TIP3    H153687   2.748   6.800   3.979 -1.8185  0.0997  0.1261
10732TIP3    H253688   2.809   6.798   3.841 -1.6346  0.7381  0.1910
10733TIP3   OH253689   6.752   0.749   5.679 -0.6466  0.5338  0.0742
10733TIP3    H153690   6.688   0.733   5.610  2.0164  0.3807 -2.5984
10733TIP3    H253691   6.759   0.844   5.684  1.1945  0.6036 -2.1263
10734TIP3   OH253692   5.693   0.224   6.409 -0.0295  0.3270 -0.0950
10734TIP3    H153693   5.784   0.191   6.410  0.2136  0.9614 -0.5386
10734TIP3    H253694   5.696   0.304   6.460 -0.5719 -0.1948  0.7763
10735TIP3   OH253695   4.158   3.173   5.175 -0.8194 -0.2676 -0.0788
10735TIP3    H153696   4.249   3.148   5.157 -0.0404  2.4117 -0.2866
10735TIP3    H253697   4.118   3.183   5.089 -0.6012  0.8119 -0.0700
10736TIP3   OH253698   4.915   6.345  16.385 -0.0876 -0.2330 -0.1250
10736TIP3    H153699   4.940   6.394  16.306 -0.1148  0.3570  0.2252
10736TIP3    H253700   4.912   6.411  16.454  0.4291 -0.8268  0.4851
10737TIP3   OH253701   6.636   1.412   4.323 -0.0150 -0.3527  0.4368
10737TIP3    H153702   6.717   1.371   4.354 -0.4037 -0.8437  0.8232
10737TIP3    H253703   6.580   1.339   4.298 -0.6895 -0.0608  1.0512
10738TIP3   OH253704   2.799   4.751   1.439 -0.3525 -0.1625  0.3989
10738TIP3    H153705   2.750   4.671   1.418 -0.3269 -0.3277  0.9543
10738TIP3    H253706   2.889   4.722   1.452 -0.4221 -0.1168  1.0291
10739TIP3   OH253707   0.700   5.031  17.285 -0.2008  0.9027  0.5684
10739TIP3    H153708   0.623   4.977  17.299 -1.1932  0.9565 -3.4198
10739TIP3    H253709   0.774   4.970  17.292 -0.8763  0.1350  1.1304
10740TIP3   OH253710   3.420   1.828   4.623 -0.3163 -0.7050 -0.0875
10740TIP3    H153711   3.495   1.887   4.625  1.4140 -2.8200  0.0884
10740TIP3    H253712   3.435   1.767   4.695 -2.2764 -1.1433  0.0178
10741TIP3   OH253713   3.030   4.696   0.188  0.1273  0.3380 -0.1899
10741TIP3    H153714   2.982   4.772   0.154  0.2936  0.4967 -0.0709
10741TIP3    H253715   3.122   4.718   0.174  0.3330  1.2962  2.1444
10742TIP3   OH253716   3.509   3.685  11.857  0.0988  0.4651 -0.0218
10742TIP3    H153717   3.426   3.676  11.903  0.0274  3.3854  0.6374
10742TIP3    H253718   3.488   3.736  11.779  1.0944  0.3804 -0.3660
10743TIP3   OH253719   2.931   0.234   5.587 -0.1666  0.0774 -0.5522
10743TIP3    H153720   2.957   0.158   5.535  1.5009  0.4339 -0.3103
10743TIP3    H253721   2.886   0.292   5.525 -0.6649 -0.6976 -0.9353
10744TIP3   OH253722   2.057   6.224   4.496  0.1528  0.7050 -0.0039
10744TIP3    H153723   2.102   6.140   4.508  1.0529  1.3716  1.7484
10744TIP3    H253724   2.110   6.270   4.430  2.4659  1.6450  2.3228
10745TIP3   OH253725   0.548   2.705  15.676 -0.2480  0.0283 -0.1826
10745TIP3    H153726   0.569   2.615  15.701 -0.4107  0.3065  1.0517
10745TIP3    H253727   0.480   2.697  15.609  0.9895 -0.7913 -1.3969
10746TIP3   OH253728   2.686   2.826  14.321  0.0798 -0.7995  0.3506
10746TIP3    H153729   2.663   2.770  14.395 -1.3109 -0.9084 -0.1301
10746TIP3    H253730   2.697   2.765  14.248 -1.4109 -0.4929 -0.1687
10747TIP3   OH253731   5.195   3.889  15.277  0.4965  0.3640 -0.6661
10747TIP3    H153732   5.226   3.934  15.199 -0.0783  0.9454 -0.5680
10747TIP3    H253733   5.101   3.908  15.280 -0.6186 -3.6861 -2.5454
10748TIP3   OH253734   0.540   6.100  12.261  0.5310  0.3588  0.5499
10748TIP3    H153735   0.468   6.039  12.274 -0.2739  1.4621  1.4443
10748TIP3    H253736   0.618   6.053  12.292  0.0045 -0.3987  0.7381
10749TIP3   OH253737   2.050   0.314  14.449  0.4594 -0.2793  0.4186
10749TIP3    H153738   1.981   0.249  14.462 -0.2844  0.3239 -0.3926
10749TIP3    H253739   2.062   0.316  14.354  2.4565 -1.2418  0.6020
10750TIP3   OH253740   4.252   4.609   2.197  0.2082  0.5426 -0.7446
10750TIP3    H153741   4.210   4.550   2.134  0.7358  0.0102 -0.6067
10750TIP3    H253742   4.306   4.551   2.251  0.2638  1.0784 -0.2150
10751TIP3   OH253743   5.520   3.061   3.597 -0.2926  0.4961  0.2318
10751TIP3    H153744   5.429   3.038   3.618 -0.3477  0.7925  0.3210
10751TIP3    H253745   5.570   3.031   3.673 -0.1503 -0.7574 -0.3305
10752TIP3   OH253746   3.736   2.814  15.919  0.5334  0.3370  0.0216
10752TIP3    H153747   3.802   2.746  15.932 -1.3402 -1.2183  2.5087
10752TIP3    H253748   3.686   2.815  16.001 -2.2075  1.7212 -1.5032
10753TIP3   OH253749   5.871   4.905  15.350 -0.0238  0.6643  0.1151
10753TIP3    H153750   5.830   4.948  15.275 -0.5569 -0.6494 -0.3817
10753TIP3    H253751   5.961   4.937  15.349 -0.1928  1.1592 -0.6964
10754TIP3   OH253752   6.211   2.101  12.963 -0.5474  0.4181 -0.4042
10754TIP3    H153753   6.267   2.148  12.900  2.8456  0.6098  2.4687
10754TIP3    H253754   6.185   2.168  13.026 -0.8788 -0.3998  0.3417
10755TIP3   OH253755   3.926   1.499   1.138  0.2519 -0.3860  0.9098
10755TIP3    H153756   3.866   1.450   1.081  1.3447 -0.4607 -0.2203
10755TIP3    H253757   3.871   1.568   1.176 -0.9011 -1.3901  1.1291
10756TIP3   OH253758   4.170   3.887  16.928  0.7561 -0.2574  0.1417
10756TIP3    H153759   4.122   3.812  16.891 -0.9263  0.3456  1.0079
10756TIP3    H253760   4.167   3.953  16.859  1.0199 -0.4922 -0.0980
10757TIP3   OH253761   4.527   4.317  16.291 -0.3016 -0.2893 -0.1104
10757TIP3    H153762   4.614   4.352  16.270  0.3923 -1.0457  1.3737
10757TIP3    H253763   4.540   4.223  16.298  0.0970 -0.1729  5.2765
10758TIP3   OH253764   5.371   1.110  11.783  0.0604 -0.2141 -0.0931
10758TIP3    H153765   5.324   1.123  11.700 -0.9284  0.5880  0.5633
10758TIP3    H253766   5.435   1.182  11.785  0.6831 -0.7397 -0.5389
10759TIP3   OH253767   5.461   0.522   5.823 -0.0098 -0.1796  0.0417
10759TIP3    H153768   5.429   0.521   5.733  2.1414  3.0050 -0.9460
10759TIP3    H253769   5.420   0.599   5.863  0.4267 -0.5207  1.2040
10760TIP3   OH253770   5.674   5.518  15.016  0.3011  0.0157 -0.4405
10760TIP3    H153771   5.606   5.558  14.962 -0.7057  1.1081  1.4975
10760TIP3    H253772   5.679   5.574  15.093  2.0973 -1.1103  0.3324
10761TIP3   OH253773   2.791   1.337   5.028 -0.2737 -0.1816 -0.2419
10761TIP3    H153774   2.754   1.263   4.980  0.1817 -0.2672 -0.4643
10761TIP3    H253775   2.715   1.378   5.071 -0.5336 -0.7395 -0.1592
10762TIP3   OH253776   0.720   6.074   2.363  0.0882 -0.3419  0.2078
10762TIP3    H153777   0.784   6.124   2.312 -0.3277 -0.2909 -0.2667
10762TIP3    H253778   0.745   6.090   2.454 -0.8585  1.8814  0.1506
10763TIP3   OH253779   4.181   0.187   5.951 -0.6686  0.3070  0.4256
10763TIP3    H153780   4.164   0.279   5.972  1.3949  0.6762  0.6502
10763TIP3    H253781   4.210   0.149   6.034  0.7537  0.0499 -0.1608
10764TIP3   OH253782   2.786   3.179   2.810 -0.8398 -0.3627  0.0225
10764TIP3    H153783   2.860   3.123   2.834 -1.9096 -0.8513  2.3932
10764TIP3    H253784   2.809   3.265   2.845 -1.1851 -0.3982  0.3347
10765TIP3   OH253785   1.937   5.660  16.016  0.6150  0.3433  0.3231
10765TIP3    H153786   2.005   5.616  15.965 -0.6511 -1.3846 -0.0008
10765TIP3    H253787   1.896   5.720  15.955 -1.9558 -2.8398 -1.4291
10766TIP3   OH253788   2.874   6.143   2.313  0.0020  0.1175 -0.5689
10766TIP3    H153789   2.862   6.171   2.403 -1.1647 -0.5742 -0.4937
10766TIP3    H253790   2.966   6.162   2.294  0.1227  0.7602  0.5789
10767TIP3   OH253791   4.575   2.201   0.043 -0.4422  0.7338  0.1221
10767TIP3    H153792   4.626   2.278   0.069  1.5115 -0.8811  1.3704
10767TIP3    H253793   4.601   2.185  -0.048 -0.4145  1.2024  0.0456
10768TIP3   OH253794   6.369   6.476   3.203 -0.0717 -0.4980 -0.3804
10768TIP3    H153795   6.353   6.554   3.256  1.5756 -0.2496 -0.2122
10768TIP3    H253796   6.381   6.510   3.114  1.3091 -0.4611 -0.1985
10769TIP3   OH253797   4.440   1.957  15.999  0.0070 -0.2450 -0.0698
10769TIP3    H153798   4.522   1.908  16.000 -0.4085 -0.9467  1.4921
10769TIP3    H253799   4.420   1.973  16.091 -1.5128  0.0854 -0.4325
10770TIP3   OH253800   6.580   0.532  16.354  0.0797 -0.0167 -0.6071
10770TIP3    H153801   6.651   0.529  16.290  0.3143  1.6890 -0.4648
10770TIP3    H253802   6.588   0.617  16.396 -1.0912 -0.4276  0.5420
10771TIP3   OH253803   1.272   5.398   6.527  0.6358 -0.2824 -0.3788
10771TIP3    H153804   1.213   5.431   6.595 -0.3649 -1.0150 -0.8678
10771TIP3    H253805   1.348   5.366   6.576  1.5008  2.3023  0.1389
10772TIP3   OH253806   6.241   3.756  11.967  0.1437 -0.1389 -0.1015
10772TIP3    H153807   6.226   3.851  11.967  1.5224  0.1062 -1.0756
10772TIP3    H253808   6.157   3.718  11.942  0.1647  0.9709 -2.0627
10773TIP3   OH253809   0.621   5.226  14.731  0.3361  0.7651 -0.5702
10773TIP3    H153810   0.540   5.265  14.698 -1.8821 -2.2022  0.9018
10773TIP3    H253811   0.616   5.134  14.705  2.5291  0.1565  0.8757
10774TIP3   OH253812   3.967   4.545   4.508 -0.2477  0.0520 -0.1854
10774TIP3    H153813   3.874   4.528   4.496  0.0444 -1.5506 -0.3981
10774TIP3    H253814   3.982   4.628   4.463 -1.7310  0.8258  0.6767
10775TIP3   OH253815   0.981   0.356   2.291  0.2738 -0.8848 -0.2177
10775TIP3    H153816   0.980   0.378   2.384  0.5881  0.3455 -0.4878
10775TIP3    H253817   1.026   0.429   2.250 -0.6820 -0.9684 -1.4605
10776TIP3   OH253818   3.101   6.373  15.396 -0.6283 -0.2251 -0.0979
10776TIP3    H153819   3.050   6.415  15.326  0.9705  1.3534 -0.3859
10776TIP3    H253820   3.163   6.440  15.424 -1.3183 -0.7065  3.0242
10777TIP3   OH253821   3.057   5.422  12.376 -0.0833 -0.2650  0.1662
10777TIP3    H153822   3.110   5.496  12.406  0.3759  0.2516 -1.7867
10777TIP3    H253823   3.020   5.451  12.293 -0.4082 -1.9975 -0.3401
10778TIP3   OH253824   2.490   0.828   6.190  0.4352 -0.7830  0.8007
10778TIP3    H153825   2.421   0.874   6.141  1.3086  2.0625  1.9966
10778TIP3    H253826   2.522   0.762   6.129 -3.0196 -1.9990  0.0648
10779TIP3   OH253827   0.932   3.491  16.329 -0.1180  0.1504 -0.6255
10779TIP3    H153828   0.918   3.478  16.235 -0.8327 -0.7684 -0.4037
10779TIP3    H253829   0.950   3.403  16.363  2.8875  0.7891 -0.3079
10780TIP3   OH253830   4.961   3.712   3.940 -0.4288  0.1548  0.2880
10780TIP3    H153831   4.903   3.663   3.999  0.9618 -1.3837  0.4295
10780TIP3    H253832   5.048   3.676   3.955  0.1474  0.4363 -1.9646
10781TIP3   OH253833   4.976   3.800  13.278 -0.1365 -0.0788  0.0324
10781TIP3    H153834   5.020   3.879  13.308 -1.8369  1.0010 -0.1853
10781TIP3    H253835   5.002   3.733  13.341  0.3994  0.9387  0.9208
10782TIP3   OH253836   5.027   3.143   5.584  0.3043  0.4155 -0.5431
10782TIP3    H153837   5.084   3.116   5.656 -0.7769  1.4254  0.7205
10782TIP3    H253838   5.043   3.077   5.516 -0.0545 -1.7249  1.3160
10783TIP3   OH253839   6.643   3.979   1.635  0.0821 -0.0219 -0.6444
10783TIP3    H153840   6.591   4.052   1.667 -0.9240 -0.7999 -0.4413
10783TIP3    H253841   6.581   3.906   1.629  1.1126 -0.9322 -0.5902
10784TIP3   OH253842   5.426   0.673  11.930 -0.2247 -0.0889 -0.5564
10784TIP3    H153843   5.384   0.740  11.984 -1.1941 -0.9573 -0.2009
10784TIP3    H253844   5.389   0.591  11.961  0.8866 -0.7963 -1.0427
10785TIP3   OH253845   2.429   0.496  13.446 -0.1297 -0.1054 -0.4073
10785TIP3    H153846   2.478   0.414  13.455  1.0718  0.6540  0.1213
10785TIP3    H253847   2.345   0.469  13.409 -0.0283 -1.6647  0.4067
10786TIP3   OH253848   2.411   5.489   1.040 -0.3165 -0.0318  0.6854
10786TIP3    H153849   2.471   5.519   1.108 -0.8066  0.3235  0.9673
10786TIP3    H253850   2.333   5.461   1.088 -0.4286 -0.3573  0.3126
10787TIP3   OH253851   1.121   4.732   5.618 -0.8965  0.2942  0.2589
10787TIP3    H153852   1.116   4.638   5.600 -0.0605 -0.2552  2.5337
10787TIP3    H253853   1.080   4.773   5.542 -1.1514 -1.8899 -0.8695
10788TIP3   OH253854   0.902   6.724   1.117 -0.0602 -0.8600 -0.1970
10788TIP3    H153855   0.976   6.784   1.131 -1.5732  0.7274  1.7618
10788TIP3    H253856   0.936   6.638   1.142  0.6052  0.1806  2.9870
10789TIP3   OH253857   5.378   3.148   5.537  0.3493  0.3181  0.3014
10789TIP3    H153858   5.402   3.090   5.609 -1.0030  0.8041  1.1713
10789TIP3    H253859   5.386   3.236   5.574  0.4980  0.6185 -0.4243
10790TIP3   OH253860   4.322   3.743   2.234  0.1483 -0.4825 -0.0622
10790TIP3    H153861   4.325   3.768   2.142  0.2821 -2.3290 -0.5813
10790TIP3    H253862   4.339   3.825   2.281 -1.0140  0.7193 -1.6147
10791TIP3   OH253863   5.592   3.916  13.257  0.8506  0.0853 -0.4532
10791TIP3    H153864   5.497   3.904  13.250  0.6524  1.1696  0.1104
10791TIP3    H253865   5.616   3.960  13.175  0.8481 -0.1220 -0.5648
10792TIP3   OH253866   0.580   2.831  11.497  0.3735  0.1748 -0.7245
10792TIP3    H153867   0.509   2.803  11.439 -0.4811 -0.9063  0.7927
10792TIP3    H253868   0.628   2.751  11.516  1.2882  0.7020 -0.7615
10793TIP3   OH253869   5.540   4.272   4.234 -0.1847  0.2552  0.0696
10793TIP3    H153870   5.562   4.333   4.164  0.1846  0.1688  0.1090
10793TIP3    H253871   5.605   4.289   4.303  1.3160 -1.6252 -0.7641
10794TIP3   OH253872   1.400   5.169  13.949  0.2800  0.5525 -0.3716
10794TIP3    H153873   1.390   5.259  13.919 -0.7037  0.7871  0.6217
10794TIP3    H253874   1.355   5.166  14.033  0.7541 -0.7388 -0.1398
10795TIP3   OH253875   3.927   2.576  14.417  0.7064 -0.5034  0.4471
10795TIP3    H153876   3.907   2.639  14.486  2.5579 -0.7754  1.2828
10795TIP3    H253877   3.992   2.620  14.362  1.1007 -1.2143  0.3291
10796TIP3   OH253878   5.906   4.872   1.242 -0.0387  0.2017  0.3256
10796TIP3    H153879   5.867   4.910   1.321 -2.2535 -1.0748 -0.0627
10796TIP3    H253880   5.999   4.862   1.264 -0.3112  1.2175  2.2097
10797TIP3   OH253881   5.599   6.548  15.725  0.3559 -0.5475 -0.1458
10797TIP3    H153882   5.615   6.625  15.780  1.2197  0.7118 -2.0426
10797TIP3    H253883   5.612   6.473  15.783  0.8216  0.7029  1.4335
10798TIP3   OH253884   6.508   2.607  12.336  0.1927 -0.0773 -0.4166
10798TIP3    H153885   6.414   2.597  12.321  0.0140  1.9886 -0.9314
10798TIP3    H253886   6.528   2.540  12.400 -1.4427 -1.1808 -0.9786
10799TIP3   OH253887   4.431   6.249   3.153 -0.2913  1.0204 -0.0932
10799TIP3    H153888   4.405   6.164   3.191  3.4900  1.0582  3.1088
10799TIP3    H253889   4.358   6.307   3.174 -0.7710 -0.3036  2.2275
10800TIP3   OH253890   2.414   3.308   0.058  0.2617 -0.3980  0.0435
10800TIP3    H153891   2.323   3.291   0.080  0.5479 -3.1101 -0.4527
10800TIP3    H253892   2.451   3.221   0.040  2.8785  0.6244 -0.0359
10801TIP3   OH253893   3.458   0.031  11.571 -0.1007  0.1138  0.0064
10801TIP3    H153894   3.388   0.084  11.534  1.0886  1.5670 -0.2488
10801TIP3    H253895   3.444  -0.056  11.534 -1.8309  0.3163  0.0807
10802TIP3   OH253896   0.821   6.263   6.427 -0.5152 -0.3005  0.4622
10802TIP3    H153897   0.878   6.200   6.472 -0.3673 -0.2654  0.3241
10802TIP3    H253898   0.768   6.209   6.368 -0.6433 -0.3357  0.6092
10803TIP3   OH253899   1.863   4.882  11.051  0.6622 -0.1268  0.1143
10803TIP3    H153900   1.872   4.959  10.995  0.0405 -0.7965 -0.9571
10803TIP3    H253901   1.772   4.854  11.038  0.9904 -1.2707  0.1593
10804TIP3   OH253902   0.678   3.337  12.959  0.2245 -0.0790 -0.8496
10804TIP3    H153903   0.607   3.342  13.023  1.7730  0.6002  0.8983
10804TIP3    H253904   0.652   3.399  12.890 -2.0157 -1.6613 -1.5573
10805TIP3   OH253905   5.729   6.113  14.484 -0.2942  0.8402  0.0075
10805TIP3    H153906   5.789   6.045  14.457 -1.1122 -0.6273  1.6640
10805TIP3    H253907   5.651   6.100  14.431  0.2547  1.7722 -1.0602
10806TIP3   OH253908   6.256   0.320   5.092 -0.1005 -0.0285  0.0186
10806TIP3    H153909   6.278   0.237   5.048  0.2984  0.6160 -1.0295
10806TIP3    H253910   6.337   0.371   5.088 -0.4227  0.5271  0.4152
10807TIP3   OH253911   4.636   6.489  14.513 -0.3584 -0.0689 -0.2801
10807TIP3    H153912   4.595   6.414  14.555  0.7347  1.0738  3.1738
10807TIP3    H253913   4.564   6.536  14.471 -1.5439 -1.3967  0.2140
10808TIP3   OH253914   1.364   1.871  16.116  0.1371 -0.0854  0.0940
10808TIP3    H153915   1.285   1.825  16.144 -0.1688  0.8561  0.8400
10808TIP3    H253916   1.429   1.848  16.182  0.3026 -0.3386 -0.1578
10809TIP3   OH253917   6.576   4.585  17.057  0.1880  0.0109  0.3024
10809TIP3    H153918   6.514   4.633  17.113  0.6622 -0.6350  1.4287
10809TIP3    H253919   6.522   4.540  16.993 -0.5790 -0.9103  1.5501
10810TIP3   OH253920   2.955   1.712   2.694 -0.0552  0.4185 -0.0714
10810TIP3    H153921   2.891   1.646   2.722 -0.1281  0.0847 -0.9789
10810TIP3    H253922   2.995   1.674   2.615 -0.0827  1.4436 -0.5984
10811TIP3   OH253923   6.758   6.037   0.694 -0.1251 -0.2344  0.3481
10811TIP3    H153924   6.764   6.123   0.736 -0.4059 -0.2549  0.4346
10811TIP3    H253925   6.783   5.975   0.761 -1.4453 -0.3361  0.7738
10812TIP3   OH253926   0.991   3.154  15.096 -0.2326 -0.0916 -0.4518
10812TIP3    H153927   0.977   3.089  15.026 -2.9963  0.2951 -0.3529
10812TIP3    H253928   0.942   3.119  15.170  2.2721 -0.2570  1.2602
10813TIP3   OH253929   1.074   3.028   2.309 -0.1656  0.0337  1.2766
10813TIP3    H153930   1.066   2.934   2.323 -2.8161 -0.1967 -0.9293
10813TIP3    H253931   1.112   3.036   2.222 -2.6068  0.8355  0.1795
10814TIP3   OH253932   3.616   1.557  17.027  0.6360 -0.0231  0.5568
10814TIP3    H153933   3.645   1.467  17.010  4.0365  1.0159 -0.0769
10814TIP3    H253934   3.599   1.593  16.940 -0.9453 -0.0725  0.8228
10815TIP3   OH253935   2.579   4.043   4.631  0.0642  0.3404 -0.4297
10815TIP3    H153936   2.655   4.067   4.578  0.7696 -0.5430  0.1502
10815TIP3    H253937   2.568   3.949   4.617 -1.1441  0.5184 -0.7754
10816TIP3   OH253938   0.431   5.379  16.741  0.5049 -0.5744 -0.0628
10816TIP3    H153939   0.499   5.366  16.674  0.0841 -0.0235 -0.6145
10816TIP3    H253940   0.351   5.347  16.700  0.0875  0.5536 -0.1558
10817TIP3   OH253941   3.995   6.085   3.084  0.0810  0.6515  0.4378
10817TIP3    H153942   4.016   6.172   3.051  0.1493  0.3444 -0.3480
10817TIP3    H253943   3.912   6.096   3.130  0.2465  1.1894  0.6087
10818TIP3   OH253944   5.336   2.621   0.718 -0.2705 -0.7188  0.1836
10818TIP3    H153945   5.329   2.701   0.770 -3.1409  0.1487 -1.2619
10818TIP3    H253946   5.401   2.641   0.651 -0.9236  0.4311 -0.1282
10819TIP3   OH253947   1.220   0.422  12.160 -0.4492 -0.3258  0.3252
10819TIP3    H153948   1.277   0.360  12.115  0.2096  0.5339 -0.0613
10819TIP3    H253949   1.270   0.450  12.236 -0.5055  0.1388  0.1971
10820TIP3   OH253950   4.048   5.679   4.007 -0.2382  0.0749  0.2412
10820TIP3    H153951   3.998   5.656   3.929  1.3734 -0.2023 -0.7396
10820TIP3    H253952   4.047   5.775   4.008  1.4619  0.1772 -1.3533
10821TIP3   OH253953   6.188   2.436  14.659  0.1615  0.3601 -0.6878
10821TIP3    H153954   6.153   2.413  14.745  3.1581  0.2739  0.6569
10821TIP3    H253955   6.113   2.467  14.609 -2.1639 -2.0505  1.0419
10822TIP3   OH253956   2.287   3.968  13.801  0.5754 -0.0752 -0.4567
10822TIP3    H153957   2.288   3.873  13.794  0.4600 -0.1546  0.4837
10822TIP3    H253958   2.208   3.996  13.754  0.5347 -0.4528 -0.6102
10823TIP3   OH253959   2.250   4.936   3.320 -0.0239  0.1897  0.1901
10823TIP3    H153960   2.196   4.861   3.294  0.2859  0.7575 -2.4704
10823TIP3    H253961   2.212   4.967   3.402 -0.6044 -2.3994  0.9887
10824TIP3   OH253962   2.041   0.912  14.022  0.2975  0.4183  0.7416
10824TIP3    H153963   1.950   0.885  14.004  0.5548 -0.9167  1.2918
10824TIP3    H253964   2.033   0.982  14.086 -0.3732  1.0237  0.0230
10825TIP3   OH253965   6.116   0.739   2.461 -0.5161  0.0639 -0.3255
10825TIP3    H153966   6.109   0.834   2.464  0.6695  0.1618  0.0251
10825TIP3    H253967   6.053   0.708   2.526 -0.2690  0.6505  0.2050
10826TIP3   OH253968   3.231   0.948   1.994  0.0131 -0.6194  0.1385
10826TIP3    H153969   3.165   0.904   2.048  0.1892 -1.7909 -0.5792
10826TIP3    H253970   3.278   1.005   2.055 -1.6800  0.2851  0.6578
10827TIP3   OH253971   3.261   1.378   4.181 -0.0552 -0.1090  0.1613
10827TIP3    H153972   3.320   1.312   4.218 -1.4194 -1.4768 -0.0158
10827TIP3    H253973   3.311   1.460   4.185  0.8689 -0.7282  2.4292
10828TIP3   OH253974   2.083   3.388  14.484 -0.1726  0.6210 -0.3962
10828TIP3    H153975   1.998   3.408  14.446  0.4065  0.0219 -2.1108
10828TIP3    H253976   2.145   3.445  14.439  0.6242 -0.5252 -0.8180
10829TIP3   OH253977   5.562   4.491   5.063  0.0024  0.0870 -0.1235
10829TIP3    H153978   5.541   4.496   4.970  0.9035 -1.4375 -0.4416
10829TIP3    H253979   5.489   4.534   5.107 -1.0138 -0.2236 -1.4602
10830TIP3   OH253980   5.470   4.662   2.366 -0.3444  0.5117  0.0766
10830TIP3    H153981   5.521   4.727   2.414 -0.3015 -0.0264  0.7814
10830TIP3    H253982   5.446   4.597   2.433 -0.4303 -0.1647 -0.6041
10831TIP3   OH253983   2.666   6.350   3.469  0.1178  0.1046  0.3853
10831TIP3    H153984   2.731   6.287   3.439 -1.0331 -0.4901 -0.9726
10831TIP3    H253985   2.649   6.325   3.560  1.8453  0.3645  0.8218
10832TIP3   OH253986   5.141   2.281   0.742 -0.1578 -0.3023  0.1449
10832TIP3    H153987   5.120   2.347   0.676 -0.1906  0.6834  1.0921
10832TIP3    H253988   5.235   2.269   0.737 -0.2364 -0.6679 -0.4669
10833TIP3   OH253989   6.334   4.338   6.847 -0.0079 -0.9349  0.1917
10833TIP3    H153990   6.375   4.345   6.933 -0.0777 -1.8509  0.3118
10833TIP3    H253991   6.306   4.427   6.826 -0.3072 -0.7599  1.2670
10834TIP3   OH253992   4.621   0.149   3.868 -0.4819 -0.1963 -0.0806
10834TIP3    H153993   4.553   0.151   3.801 -0.2415 -0.4900 -0.3360
10834TIP3    H253994   4.695   0.196   3.830  0.1622 -1.5605 -0.5969
10835TIP3   OH253995   1.086   0.648  13.064 -0.2233 -0.0778 -0.2511
10835TIP3    H153996   1.163   0.703  13.079  0.6375 -1.1775 -0.5475
10835TIP3    H253997   1.075   0.649  12.969 -0.7239  0.2642 -0.1919
10836TIP3   OH253998   5.011   3.529   2.968  0.7404 -0.1795 -0.6853
10836TIP3    H153999   5.062   3.481   3.033  2.0938  0.5110 -1.2016
10836TIP3    H254000   5.016   3.475   2.889  0.3042 -0.3108 -0.6283
10837TIP3   OH254001   4.713   2.296   5.324  0.1864 -0.0391  0.0216
10837TIP3    H154002   4.715   2.362   5.394 -0.0231  1.1254 -1.0455
10837TIP3    H254003   4.714   2.212   5.371 -0.1777  0.7053  1.4283
10838TIP3   OH254004   5.313   3.876   1.899  0.4607  0.1643  0.5827
10838TIP3    H154005   5.327   3.960   1.855  0.7889  0.9453  2.0929
10838TIP3    H254006   5.237   3.838   1.857  1.6222  0.1565 -1.6481
10839TIP3   OH254007   0.426   3.876  15.071  0.4530 -0.0882  0.0829
10839TIP3    H154008   0.385   3.851  15.154  1.2294  1.2733  0.9181
10839TIP3    H254009   0.519   3.857  15.083  0.6051  0.3193 -0.3891
10840TIP3   OH254010   3.554   5.789  12.326  0.0513  0.3545 -0.3093
10840TIP3    H154011   3.556   5.884  12.338  1.2240  0.2047  1.0207
10840TIP3    H254012   3.504   5.775  12.246 -1.1827  2.0293  0.1231
10841TIP3   OH254013   5.996   5.429   1.774 -0.2977 -0.6428  0.4396
10841TIP3    H154014   6.040   5.499   1.822 -0.6796 -1.0012  1.3404
10841TIP3    H254015   6.052   5.352   1.786  1.1767 -0.0865 -2.2120
10842TIP3   OH254016   4.165   3.461  17.069  0.4793  0.0760  0.4698
10842TIP3    H154017   4.133   3.377  17.101  0.3703 -0.4171 -0.8454
10842TIP3    H254018   4.135   3.525  17.133 -1.7927 -0.5567  0.1350
10843TIP3   OH254019   3.702   1.450   5.455 -0.1626 -0.1417 -0.6573
10843TIP3    H154020   3.718   1.498   5.374  0.6193  0.6002 -0.0834
10843TIP3    H254021   3.612   1.418   5.447 -0.4643  0.8509 -1.3437
10844TIP3   OH254022   4.820   4.049   6.065 -1.0082  0.4002 -0.4195
10844TIP3    H154023   4.902   4.100   6.063  0.6978 -2.1597 -0.4222
10844TIP3    H254024   4.791   4.055   6.156 -0.2455  0.5417 -0.1734
10845TIP3   OH254025   0.969   3.942  13.485  0.3256  0.0686 -0.8601
10845TIP3    H154026   1.038   3.884  13.517  0.0633  0.2923  0.1778
10845TIP3    H254027   1.017   4.014  13.442  0.9182  1.2462  1.5466
10846TIP3   OH254028   0.662   6.066   5.503  0.0420  0.2040 -0.1101
10846TIP3    H154029   0.690   5.984   5.544  1.7032  0.8877  0.1865
10846TIP3    H254030   0.727   6.082   5.435  0.6942  2.0747  0.8787
10847TIP3   OH254031   5.182   5.856   0.637  0.0557  0.3382  0.1477
10847TIP3    H154032   5.089   5.859   0.614  0.0618  3.1161  0.1643
10847TIP3    H254033   5.226   5.850   0.552 -0.1200  0.6430  0.0316
10848TIP3   OH254034   3.140   2.137   6.174 -0.3273 -0.3604 -0.0393
10848TIP3    H154035   3.206   2.113   6.110 -1.5964 -0.9988 -1.1535
10848TIP3    H254036   3.097   2.055   6.196 -1.9520  0.2548 -0.7385
10849TIP3   OH254037   1.641   1.459   3.155  0.2271  0.3965  0.5821
10849TIP3    H154038   1.553   1.453   3.117  0.7853  0.3455 -0.7762
10849TIP3    H254039   1.660   1.371   3.186  0.0971  0.2218  0.1703
10850TIP3   OH254040   2.215   5.633  13.611  0.3823  0.7832 -0.5040
10850TIP3    H154041   2.255   5.717  13.634  0.2516  0.5232  0.7252
10850TIP3    H254042   2.138   5.657  13.558  0.1516  1.4611  0.1254
10851TIP3   OH254043   4.268   0.223  13.266  0.4897  0.0443 -0.0633
10851TIP3    H154044   4.206   0.171  13.316 -0.8307  0.3100 -1.3488
10851TIP3    H254045   4.338   0.162  13.242  1.5796  0.0809  2.6514
10852TIP3   OH254046   1.313   1.065  16.838  0.2500 -0.0960 -0.1801
10852TIP3    H154047   1.225   1.048  16.872  0.2235 -0.3358 -0.3686
10852TIP3    H254048   1.348   0.978  16.817  0.8943 -0.0956  0.7763
10853TIP3   OH254049   1.781   0.406   5.178  0.2635 -0.1497  0.2039
10853TIP3    H154050   1.838   0.417   5.254  1.0333 -0.5848 -0.3049
10853TIP3    H254051   1.757   0.314   5.179 -0.4739  0.0336  0.4293
10854TIP3   OH254052   3.000   0.159   2.849  0.1761 -0.4745  0.6907
10854TIP3    H154053   3.009   0.068   2.878 -1.0049 -0.8845 -0.1372
10854TIP3    H254054   2.917   0.160   2.801  0.5618  0.8680  0.0166
10855TIP3   OH254055   0.958   2.941  15.877 -0.3968  0.2164  0.4887
10855TIP3    H154056   0.897   3.005  15.841 -0.0004  0.1419 -0.3331
10855TIP3    H254057   0.909   2.859  15.877 -0.1852  0.0733 -0.5472
10856TIP3   OH254058   5.287   2.303  16.659  0.2184  0.7014 -0.1662
10856TIP3    H154059   5.228   2.348  16.598  0.1850  0.8942  0.0087
10856TIP3    H254060   5.268   2.341  16.744  1.2451  1.4460 -0.2424
10857TIP3   OH254061   3.467   0.423  16.209 -0.2242 -0.2448 -0.1099
10857TIP3    H154062   3.506   0.494  16.159 -1.2072  2.1610  2.3156
10857TIP3    H254063   3.376   0.420  16.178 -0.7040  0.9227  1.1183
10858TIP3   OH254064   5.657   0.554  11.828  0.6624 -0.2127  0.1991
10858TIP3    H154065   5.687   0.488  11.890 -0.8070 -0.2697  0.8885
10858TIP3    H254066   5.581   0.595  11.870  0.1448  0.3405 -1.1912
10859TIP3   OH254067   2.630   4.510   1.331  0.4713 -0.5903 -0.5281
10859TIP3    H154068   2.592   4.582   1.281  2.8329  1.1143 -0.0661
10859TIP3    H254069   2.646   4.442   1.266 -1.5911 -0.6727 -1.0171
10860TIP3   OH254070   2.480   2.945  14.136  0.5887  0.2298  0.4254
10860TIP3    H154071   2.515   3.033  14.124  0.8486  0.0850  0.0911
10860TIP3    H254072   2.519   2.914  14.218  1.1296  0.1286  0.1358
10861TIP3   OH254073   2.924   4.787  16.158 -0.3412  0.2731  1.0854
10861TIP3    H154074   2.959   4.700  16.140  0.8838  0.9664 -0.0145
10861TIP3    H254075   2.975   4.819  16.232  0.1938  0.5999  0.5850
10862TIP3   OH254076   5.500   1.577   0.780  0.1684 -0.3992  0.7729
10862TIP3    H154077   5.433   1.643   0.762 -1.1240 -2.0681 -1.0750
10862TIP3    H254078   5.508   1.576   0.876 -1.4243  0.8578  0.9635
10863TIP3   OH254079   3.276   1.912  16.537 -0.7281  0.0039 -0.1801
10863TIP3    H154080   3.233   1.996  16.522 -0.2361  0.2957  0.0452
10863TIP3    H254081   3.231   1.875  16.613 -1.7827 -0.5068 -1.0252
10864TIP3   OH254082   1.593   5.064   1.355 -0.3074 -0.4450 -0.0195
10864TIP3    H154083   1.510   5.018   1.366 -1.4345  1.2741 -0.8232
10864TIP3    H254084   1.616   5.051   1.263 -1.3224  1.5632 -0.6172
10865TIP3   OH254085   5.839   4.985   3.838  0.1057  0.1729 -0.6287
10865TIP3    H154086   5.806   5.005   3.926  0.8323  1.6552 -0.6703
10865TIP3    H254087   5.929   4.956   3.852 -0.2364 -1.0416 -0.7823
10866TIP3   OH254088   2.515   4.287   5.832  0.7837 -0.4868 -0.3531
10866TIP3    H154089   2.560   4.343   5.895  0.5817  0.1191 -0.7354
10866TIP3    H254090   2.454   4.346   5.787  1.1235 -0.8467 -1.3103
10867TIP3   OH254091   1.109   4.837   4.591 -0.0940  0.2617  0.0639
10867TIP3    H154092   1.039   4.773   4.579 -0.1285  0.2444  0.3519
10867TIP3    H254093   1.082   4.889   4.667  0.2190  0.2381  0.1951
10868TIP3   OH254094   1.762   1.535   2.099  0.7705  0.4359  0.2965
10868TIP3    H154095   1.684   1.515   2.151  0.1658 -0.9832 -1.0610
10868TIP3    H254096   1.832   1.543   2.162  0.3237 -2.4882  1.3203
10869TIP3   OH254097   1.087   5.972   1.466 -0.1155  0.2644  0.0998
10869TIP3    H154098   1.047   5.975   1.553  2.2212 -1.6696  1.3670
10869TIP3    H254099   1.026   5.920   1.413 -0.2178 -1.0383  1.4340
10870TIP3   OH254100   2.775   1.907   2.720 -0.2303 -0.6576 -0.4252
10870TIP3    H154101   2.781   1.971   2.649  2.7087  1.5995  1.5939
10870TIP3    H254102   2.853   1.854   2.712 -0.6768 -1.4329  0.1884
10871TIP3   OH254103   3.538   0.037   4.130 -0.4976 -0.7113 -0.0328
10871TIP3    H154104   3.534   0.027   4.034  0.8884 -0.0482 -0.1786
10871TIP3    H254105   3.451   0.071   4.153 -0.3566  0.5717 -1.2566
10872TIP3   OH254106   3.147   4.840  13.447  0.5543  0.1137  0.1689
10872TIP3    H154107   3.164   4.791  13.528 -0.1956  0.0050  0.2685
10872TIP3    H254108   3.089   4.783  13.397  0.4220  0.5043 -0.1223
10873TIP3   OH254109   3.147   2.039   3.019  0.2489 -0.1730 -0.3736
10873TIP3    H154110   3.052   2.040   3.004  0.4352  1.8404 -1.7557
10873TIP3    H254111   3.185   2.074   2.938  1.9644  2.1472  1.3017
10874TIP3   OH254112   2.644   0.068  16.487  0.1129  0.6055 -0.2404
10874TIP3    H154113   2.711   0.020  16.439  0.3744 -0.9574  1.5770
10874TIP3    H254114   2.622   0.142  16.430  0.0475 -1.3540 -2.9344
10875TIP3   OH254115   4.201   3.446   5.203  0.1479 -0.0015 -0.3451
10875TIP3    H154116   4.293   3.445   5.176  1.0497 -0.1812  2.4291
10875TIP3    H254117   4.178   3.353   5.212  0.4364  0.0459  1.1040
10876TIP3   OH254118   5.394   3.860  15.613 -0.3040  0.5093  0.4640
10876TIP3    H154119   5.309   3.874  15.654  0.0849 -0.3302  1.6041
10876TIP3    H254120   5.377   3.866  15.519 -1.2603  2.2425  0.6988
10877TIP3   OH254121   0.264   0.175   5.412 -0.4378 -0.4728  0.2261
10877TIP3    H154122   0.323   0.135   5.476  1.0244  2.0291  0.6099
10877TIP3    H254123   0.182   0.188   5.459 -0.1114 -0.7361  0.8735
10878TIP3   OH254124   0.747   0.005  14.427 -0.4677  0.0166 -0.7132
10878TIP3    H154125   0.726  -0.055  14.499  3.7862  0.5959  1.3660
10878TIP3    H254126   0.803  -0.045  14.369  2.4617  1.4700  0.6208
10879TIP3   OH254127   6.307   2.435  10.790  0.3286  0.1835  0.3950
10879TIP3    H154128   6.383   2.421  10.733  1.4148  1.2370  1.5153
10879TIP3    H254129   6.233   2.445  10.730  0.6871 -2.6644 -0.7124
10880TIP3   OH254130   2.630   3.647  12.468 -0.1450  0.1747 -0.3398
10880TIP3    H154131   2.624   3.641  12.564 -2.7567  0.8267 -0.3877
10880TIP3    H254132   2.612   3.739  12.449  2.1461  0.4794 -1.4473
10881TIP3   OH254133   2.855   3.824   3.982  0.4465 -0.2004  0.1076
10881TIP3    H154134   2.895   3.851   3.898 -0.3108 -0.4695 -0.3433
10881TIP3    H254135   2.813   3.904   4.014 -0.2092 -0.3739 -0.3151
10882TIP3   OH254136   1.461   2.657  11.973 -0.5114 -0.5700 -0.2830
10882TIP3    H154137   1.436   2.584  11.916  0.6464 -1.3689  0.1896
10882TIP3    H254138   1.520   2.710  11.920  0.2338 -1.0870  0.0034
10883TIP3   OH254139   5.589   5.217  14.316 -0.0754 -0.2745 -0.7538
10883TIP3    H154140   5.681   5.222  14.292  0.4169 -1.2615  0.7625
10883TIP3    H254141   5.563   5.127  14.297  0.0965 -0.8407  1.3685
10884TIP3   OH254142   5.038   5.437   3.681  0.7088  0.2720 -0.0051
10884TIP3    H154143   5.065   5.351   3.713  2.4223  1.3789  1.8187
10884TIP3    H254144   5.098   5.455   3.608  0.5332  0.0358 -0.2079
10885TIP3   OH254145   3.095   5.158   3.362  0.7249  0.0217 -0.2499
10885TIP3    H154146   3.107   5.095   3.434  0.4733  0.1579 -0.0867
10885TIP3    H254147   3.168   5.140   3.302  0.8913 -0.1455 -0.0001
10886TIP3   OH254148   0.738   6.360  15.596  0.0356  0.1656 -0.5111
10886TIP3    H154149   0.664   6.363  15.657  0.7802  0.7461  0.4041
10886TIP3    H254150   0.729   6.441  15.544  0.5530  0.7323  0.2618
10887TIP3   OH254151   1.849   6.054  16.977 -0.1630 -0.3949 -0.2638
10887TIP3    H154152   1.929   6.106  16.983 -0.2922 -0.1274 -0.7836
10887TIP3    H254153   1.837   6.040  16.883 -1.7240  1.1435 -0.3461
10888TIP3   OH254154   6.349   0.335  16.777 -0.0630 -0.1349  0.0462
10888TIP3    H154155   6.319   0.259  16.726  0.3832 -0.5201  0.3571
10888TIP3    H254156   6.395   0.389  16.713 -0.8845  0.1668 -0.3029
10889TIP3   OH254157   6.333   1.463  14.785 -0.0284 -0.0189 -0.4469
10889TIP3    H154158   6.318   1.545  14.833  1.1659  0.0065 -0.0865
10889TIP3    H254159   6.323   1.488  14.693 -2.9268 -0.1935 -0.2724
10890TIP3   OH254160   6.555   2.887   3.400 -0.1725  0.7811  0.3962
10890TIP3    H154161   6.486   2.823   3.414  0.0441  0.3901 -0.3087
10890TIP3    H254162   6.575   2.920   3.488 -1.1121  0.7626  0.6290
10891TIP3   OH254163   5.469   1.342  15.096 -0.7215 -0.1457 -0.3074
10891TIP3    H154164   5.518   1.424  15.099 -0.1357 -0.4924  0.0239
10891TIP3    H254165   5.391   1.358  15.149 -0.2837  0.0024  0.3094
10892TIP3   OH254166   3.878   1.209  12.571 -0.0250  0.3817  0.5503
10892TIP3    H154167   3.803   1.195  12.514 -0.1410  3.8688 -0.3766
10892TIP3    H254168   3.840   1.239  12.653  0.3049 -1.1409  1.3043
10893TIP3   OH254169   4.833   6.341   5.081  0.0386  0.4174  0.2704
10893TIP3    H154170   4.764   6.406   5.091 -0.8517 -0.1589 -1.6791
10893TIP3    H254171   4.857   6.346   4.989  1.6068 -0.4088  0.6031
10894TIP3   OH254172   4.273   6.582   4.410 -0.3071  0.5108 -0.6685
10894TIP3    H154173   4.250   6.652   4.348 -1.5816 -0.1395 -0.9752
10894TIP3    H254174   4.267   6.623   4.496 -0.6071  0.9059 -0.8738
10895TIP3   OH254175   3.445   5.050   4.527 -0.6493 -0.9892 -0.2107
10895TIP3    H154176   3.383   5.121   4.543 -1.7316 -2.0942  0.6801
10895TIP3    H254177   3.438   5.033   4.433 -1.1671 -0.6315 -0.2401
10896TIP3   OH254178   1.239   4.626  16.239 -0.0086 -0.8530 -0.0754
10896TIP3    H154179   1.246   4.536  16.270  1.4307 -0.8117 -0.2462
10896TIP3    H254180   1.252   4.620  16.144  0.4454 -0.4181 -0.0409
10897TIP3   OH254181   1.087   6.141  17.343 -0.5589  0.5974 -0.3650
10897TIP3    H154182   1.164   6.104  17.386 -1.6181 -1.1841  0.1023
10897TIP3    H254183   1.061   6.214  17.399  2.1485  2.8772 -1.8254
10898TIP3   OH254184   4.302   4.412  15.661 -0.5761 -0.3945 -0.3166
10898TIP3    H154185   4.263   4.337  15.616 -0.5347  0.0138 -1.0559
10898TIP3    H254186   4.343   4.463  15.591  0.0619 -0.0824  0.2709
10899TIP3   OH254187   3.767   4.528   3.941  0.0257 -0.2213 -0.3926
10899TIP3    H154188   3.834   4.573   3.890 -0.9635  0.7239 -0.8865
10899TIP3    H254189   3.810   4.446   3.968  1.3478  0.3189 -0.7421
10900TIP3   OH254190   1.035   2.851  14.264  0.3320 -0.2217  0.9115
10900TIP3    H154191   0.970   2.921  14.249 -0.1838 -0.8120  0.3008
10900TIP3    H254192   1.000   2.776  14.216  0.9703 -0.8526  1.4132
10901TIP3   OH254193   0.070   4.888   1.863  0.1699  0.3496 -0.2341
10901TIP3    H154194   0.098   4.842   1.784 -0.9393  1.5847 -1.4135
10901TIP3    H254195  -0.025   4.897   1.853  0.0261  0.6289  1.2011
10902TIP3   OH254196   3.546   4.167  16.492  0.3952 -0.0486 -0.1580
10902TIP3    H154197   3.533   4.091  16.549 -1.8147  0.7331  0.4870
10902TIP3    H254198   3.470   4.167  16.434  0.5280  1.4486 -0.3750
10903TIP3   OH254199   5.580   6.526   1.149 -0.3196 -0.0717 -0.0233
10903TIP3    H154200   5.659   6.490   1.190  0.5711  0.4430 -1.2151
10903TIP3    H254201   5.603   6.535   1.057 -2.0029 -0.4880 -0.5170
10904TIP3   OH254202   0.805   5.596  11.877  0.2578  0.3334 -0.2839
10904TIP3    H154203   0.886   5.550  11.856  0.0993 -0.3396  0.5454
10904TIP3    H254204   0.758   5.600  11.794  0.4115 -0.7477 -0.4358
10905TIP3   OH254205   0.749   0.029  15.322 -0.2341 -0.2235 -0.4575
10905TIP3    H154206   0.761  -0.031  15.248  0.8080 -0.0821 -0.4206
10905TIP3    H254207   0.707   0.106  15.284  1.9049  0.6023 -1.3135
10906TIP3   OH254208   5.691   5.179   6.098  0.1951  0.0688  0.2376
10906TIP3    H154209   5.706   5.134   6.181 -2.6654  1.0070  1.3651
10906TIP3    H254210   5.743   5.259   6.104 -0.8470  0.6827  1.6833
10907TIP3   OH254211   0.038   3.510   2.977  0.0744  0.2219  0.4269
10907TIP3    H154212   0.089   3.557   2.911 -0.8037 -0.8169 -1.0688
10907TIP3    H254213  -0.053   3.530   2.955 -0.2640 -0.9380  0.6799
10908TIP3   OH254214   2.939   2.114  11.370 -0.1373 -0.1786 -0.0529
10908TIP3    H154215   3.011   2.153  11.320 -0.4243  0.9253  0.3489
10908TIP3    H254216   2.933   2.024  11.338  3.0514 -1.1356  1.6276
10909TIP3   OH254217   3.970   4.418   0.109 -0.0875 -0.2439  0.8789
10909TIP3    H154218   3.933   4.430   0.197  0.8943  0.9687  1.1603
10909TIP3    H254219   3.918   4.475   0.053  0.8457  0.9142  1.1473
10910TIP3   OH254220   3.712   3.213  13.641 -0.4202 -0.2713 -0.2990
10910TIP3    H154221   3.657   3.136  13.655 -1.8426  0.1383 -2.9873
10910TIP3    H254222   3.762   3.193  13.562 -0.3882  1.3279 -0.7119
10911TIP3   OH254223   4.421   1.429  14.794 -0.1133 -0.0262 -0.7066
10911TIP3    H154224   4.373   1.511  14.780 -1.3285 -0.0843  2.3847
10911TIP3    H254225   4.513   1.452  14.781 -0.4924  1.6030 -0.7403
10912TIP3   OH254226   3.249   6.330   5.252 -0.2376  0.5567  0.2781
10912TIP3    H154227   3.251   6.410   5.199  2.6836  0.1458 -0.3947
10912TIP3    H254228   3.267   6.259   5.190 -3.0777 -0.7852  0.7963
10913TIP3   OH254229   1.880   0.114   6.701  0.5398  0.4148 -0.0642
10913TIP3    H154230   1.834   0.041   6.743  2.1704  0.0753  1.2209
10913TIP3    H254231   1.876   0.185   6.765  0.3578  0.9321 -0.6420
10914TIP3   OH254232   5.448   0.199  13.160  0.3581  0.2076 -0.0705
10914TIP3    H154233   5.409   0.198  13.073 -0.6264 -0.9198  0.3530
10914TIP3    H254234   5.541   0.181  13.145  0.4664  1.3922 -0.9731
10915TIP3   OH254235   0.294   5.205  12.758  0.2654  0.0719 -0.8697
10915TIP3    H154236   0.276   5.156  12.677 -0.7710  2.3586 -2.1032
10915TIP3    H254237   0.244   5.157  12.825  0.2443 -1.2333 -1.7655
10916TIP3   OH254238   3.562   5.525   0.172  0.0028 -0.4294 -0.3793
10916TIP3    H154239   3.645   5.556   0.207 -0.1408 -1.2563  0.7275
10916TIP3    H254240   3.563   5.553   0.080  0.1268  2.3049  0.3553
10917TIP3   OH254241   3.283   6.122   3.371  0.1416  0.1838  0.2584
10917TIP3    H154242   3.339   6.093   3.442  0.7889 -0.7506 -0.6040
10917TIP3    H254243   3.235   6.196   3.407 -0.6247 -1.1466  2.1491
10918TIP3   OH254244   3.529   6.033   0.605 -0.5232  0.0469  0.0895
10918TIP3    H154245   3.480   6.091   0.664 -0.9184  1.1339 -1.2415
10918TIP3    H254246   3.548   6.088   0.528 -0.4268 -1.4404 -0.9968
10919TIP3   OH254247   1.998   1.616   1.156  0.4721  0.0244 -0.2858
10919TIP3    H154248   1.998   1.537   1.103 -2.2954  1.6998 -3.0376
10919TIP3    H254249   2.077   1.663   1.128  0.0202  0.0315 -1.6122
10920TIP3   OH254250   3.004   2.436  15.131  0.1365  0.1134 -0.4950
10920TIP3    H154251   3.050   2.490  15.196  1.1780  0.7813 -1.7466
10920TIP3    H254252   2.943   2.495  15.088  0.9716  0.2294 -1.5697
10921TIP3   OH254253   1.875   4.545  15.318 -0.5667  0.1111  0.1798
10921TIP3    H154254   1.882   4.457  15.280 -1.3344 -0.3109  0.9869
10921TIP3    H254255   1.901   4.534  15.409  2.3612  1.3266 -0.3806
10922TIP3   OH254256   3.061   1.525   5.048  0.5073 -0.4032 -0.1158
10922TIP3    H154257   2.966   1.513   5.057  0.6280 -0.1345  1.9521
10922TIP3    H254258   3.070   1.597   4.985 -0.6055 -1.0333 -1.0530
10923TIP3   OH254259   1.828   4.012   6.262 -0.6637  0.2341  0.2339
10923TIP3    H154260   1.847   4.099   6.228 -0.4221 -0.4276 -1.4766
10923TIP3    H254261   1.738   3.995   6.234 -0.1037 -0.7447 -1.1249
10924TIP3   OH254262   3.339   4.332   1.675  0.4826  0.5059  0.8287
10924TIP3    H154263   3.322   4.265   1.741  0.9361  0.5002  0.9410
10924TIP3    H254264   3.427   4.313   1.643 -0.1526 -0.2135 -0.6208
10925TIP3   OH254265   0.734   4.722   0.587  0.0843  0.1095  0.3580
10925TIP3    H154266   0.740   4.714   0.682  1.3526 -0.5409  0.2500
10925TIP3    H254267   0.717   4.632   0.557  0.9119  0.0904 -0.0863
10926TIP3   OH254268   0.782   1.041   4.073 -0.3896  0.4329  0.0749
10926TIP3    H154269   0.727   1.113   4.044  0.6167  0.8795 -0.7854
10926TIP3    H254270   0.872   1.070   4.056  0.0729 -0.7297  0.3851
10927TIP3   OH254271   1.906   2.364   4.439  0.3978 -0.0239  0.2482
10927TIP3    H154272   1.825   2.331   4.399 -0.2433  0.6834  0.9398
10927TIP3    H254273   1.937   2.292   4.494 -1.0157  0.4659  1.7814
10928TIP3   OH254274   4.977   6.569  16.219  0.3760 -0.1736 -0.5360
10928TIP3    H154275   4.955   6.662  16.222 -0.4405 -0.3183 -1.5862
10928TIP3    H254276   5.066   6.566  16.184  1.5046  0.3152  2.0288
10929TIP3   OH254277   2.366   3.505   3.051 -0.6427  0.0869 -0.0409
10929TIP3    H154278   2.377   3.488   2.958  2.2085  0.3629  0.1823
10929TIP3    H254279   2.433   3.452   3.094 -1.9244 -0.0833  1.8932
10930TIP3   OH254280   3.679   1.128  13.352  0.7482 -0.1447 -0.0161
10930TIP3    H154281   3.624   1.173  13.287 -0.7901 -0.6337  0.8945
10930TIP3    H254282   3.768   1.155  13.330  0.0512  1.8528 -0.6734
10931TIP3   OH254283   5.973   2.592   0.609  0.1021  0.6106  0.8886
10931TIP3    H154284   5.896   2.642   0.637  0.1502  0.5121  1.1922
10931TIP3    H254285   5.944   2.501   0.609 -0.1838  0.6760 -0.2916
10932TIP3   OH254286   6.213   0.184  17.377  0.3415  0.0599  0.3082
10932TIP3    H154287   6.127   0.142  17.376 -0.1136  0.8474  1.9216
10932TIP3    H254288   6.200   0.267  17.332  0.3836 -0.0225  0.1423
10933TIP3   OH254289   6.534   3.877   3.288  0.5047 -0.1043  0.3064
10933TIP3    H154290   6.556   3.837   3.204 -2.5351 -1.3266 -0.0374
10933TIP3    H254291   6.617   3.882   3.335  2.0924 -0.5199 -2.2708
10934TIP3   OH254292   3.813   6.236  14.908 -0.0818 -0.2603 -0.3699
10934TIP3    H154293   3.727   6.245  14.948  0.4060  0.4745  0.5416
10934TIP3    H254294   3.803   6.273  14.820 -0.6717 -0.1168 -0.2425
10935TIP3   OH254295   2.527   2.368  13.775  0.3719 -0.6145 -0.1823
10935TIP3    H154296   2.434   2.343  13.771  0.5494 -1.4280  0.3832
10935TIP3    H254297   2.531   2.451  13.729 -1.1682  0.9181  2.1985
10936TIP3   OH254298   4.765   0.990  12.502 -0.3965 -0.1980  0.2961
10936TIP3    H154299   4.752   0.980  12.596  1.7003  0.1041  0.6664
10936TIP3    H254300   4.735   0.908  12.464 -2.0637  0.0043  1.1202
10937TIP3   OH254301   2.845   4.300   4.849  0.6259  0.2078  0.0296
10937TIP3    H154302   2.778   4.241   4.814  0.4795  0.8061 -0.7276
10937TIP3    H254303   2.925   4.248   4.852  0.8354  0.3525 -1.9792
10938TIP3   OH254304   5.495   1.038   1.941  0.2585 -0.5527  0.2249
10938TIP3    H154305   5.403   1.011   1.932  0.0359  0.0094  0.6875
10938TIP3    H254306   5.526   1.048   1.851 -0.2393 -0.4203  0.0634
10939TIP3   OH254307   4.010   1.111  15.725  0.4129  0.3123 -0.4904
10939TIP3    H154308   4.052   1.103  15.639  0.2809 -0.8507 -0.4618
10939TIP3    H254309   4.083   1.105  15.787  0.3340 -0.5336 -0.4753
10940TIP3   OH254310   0.230   6.537   4.571 -0.2911  0.5409  0.3800
10940TIP3    H154311   0.292   6.601   4.606  1.8047 -1.9878  1.6096
10940TIP3    H254312   0.158   6.538   4.634 -0.0845  1.3394  0.6222
10941TIP3   OH254313   1.737   2.996   3.089 -0.3539 -0.5699  0.4454
10941TIP3    H154314   1.735   2.903   3.113 -0.3172 -0.8625 -0.6164
10941TIP3    H254315   1.668   3.036   3.141 -2.2007 -1.6982 -1.0343
10942TIP3   OH254316   0.145   1.352   1.579 -0.3032 -0.0086 -0.5042
10942TIP3    H154317   0.194   1.433   1.595  0.5740 -0.4980 -0.6709
10942TIP3    H254318   0.109   1.364   1.491  0.0742  0.0831 -0.6504
10943TIP3   OH254319   2.369   4.324   2.970 -0.0284 -0.5356  0.2945
10943TIP3    H154320   2.288   4.287   2.934  0.1685 -2.4741  1.6588
10943TIP3    H254321   2.410   4.251   3.017  2.9035  0.1639 -0.9356
10944TIP3   OH254322   1.089   3.460  15.995  0.1764  0.2129  0.9280
10944TIP3    H154323   1.173   3.502  15.975  0.7403 -0.5814  1.5690
10944TIP3    H254324   1.024   3.520  15.959  1.0723 -0.4095 -1.9295
10945TIP3   OH254325   0.248   4.770   1.036 -0.7782  0.0078 -0.2757
10945TIP3    H154326   0.200   4.842   1.077 -1.3952  1.0233 -2.5833
10945TIP3    H254327   0.213   4.691   1.077 -1.9904  0.9033  0.4723
10946TIP3   OH254328   2.604   3.510   0.516 -0.0130  0.4496 -0.3809
10946TIP3    H154329   2.688   3.555   0.513 -1.1711  2.7609 -0.1699
10946TIP3    H254330   2.564   3.525   0.430 -0.9684  0.9897  0.1334
10947TIP3   OH254331   4.902   6.301   5.589  0.3483 -0.7016  0.9676
10947TIP3    H154332   4.984   6.252   5.584 -1.2740 -3.4794 -0.8357
10947TIP3    H254333   4.906   6.362   5.515 -0.1030 -2.4957 -0.6203
10948TIP3   OH254334   3.924   0.920   6.626 -0.0286  0.6378  0.4681
10948TIP3    H154335   3.890   0.861   6.694 -0.0942  1.9716  1.6441
10948TIP3    H254336   3.847   0.964   6.591  0.1946  1.8065  1.3588
10949TIP3   OH254337   0.710   6.010   3.589 -0.5767  0.2364  0.4595
10949TIP3    H154338   0.782   5.957   3.622 -0.3761  0.2749  0.0868
10949TIP3    H254339   0.753   6.085   3.547 -0.8145  0.0439 -0.1402
10950TIP3   OH254340   3.990   2.844  13.577  0.2820 -0.3121  0.4393
10950TIP3    H154341   3.979   2.758  13.537  1.3017  0.1210 -0.8399
10950TIP3    H254342   3.944   2.837  13.661  0.2322 -2.0505  0.3110
10951TIP3   OH254343   2.869   2.534   0.038  0.6715  0.3155  0.4332
10951TIP3    H154344   2.820   2.502  -0.037 -0.6511  1.6886  0.6731
10951TIP3    H254345   2.917   2.610   0.004  2.4258 -0.7846  0.2911
10952TIP3   OH254346   4.843   3.530  16.067 -0.4493  0.2117 -0.2862
10952TIP3    H154347   4.761   3.547  16.020 -0.7091 -2.1324 -0.7938
10952TIP3    H254348   4.894   3.476  16.007  0.7280  0.1355  0.7435
10953TIP3   OH254349   5.769   3.344  14.970  0.1634 -0.6001 -0.2605
10953TIP3    H154350   5.826   3.305  14.904  0.0133 -0.6219 -0.3775
10953TIP3    H254351   5.812   3.324  15.053  1.4899  1.2562 -0.4319
10954TIP3   OH254352   5.278   5.534   5.685  0.1104 -0.0912  0.1442
10954TIP3    H154353   5.280   5.513   5.779 -0.6761  1.7308  0.6032
10954TIP3    H254354   5.266   5.449   5.642 -0.2337 -0.8878  1.7327
10955TIP3   OH254355   2.086   4.477  17.387 -0.2288  0.0770  0.2759
10955TIP3    H154356   2.006   4.467  17.438  0.0838 -0.8756  0.6073
10955TIP3    H254357   2.155   4.443  17.444  0.1768 -0.6750 -0.6345
10956TIP3   OH254358   0.972   5.907  16.702 -0.4886  0.2187  0.1883
10956TIP3    H154359   1.064   5.933  16.693 -0.6815  1.5682  1.6206
10956TIP3    H254360   0.973   5.811  16.695  0.9249  0.2545 -0.4346
10957TIP3   OH254361   1.014   1.973   0.224  0.2855  0.2558 -0.0611
10957TIP3    H154362   0.973   1.892   0.253  0.1335 -0.0020 -0.9526
10957TIP3    H254363   1.012   1.968   0.128 -0.4154  1.6534 -0.1511
10958TIP3   OH254364   6.623   2.602   0.149  0.2466  0.2164 -0.0204
10958TIP3    H154365   6.708   2.564   0.129  0.1521  0.3175 -0.6439
10958TIP3    H254366   6.641   2.671   0.213  0.4572 -0.6679  0.8926
10959TIP3   OH254367   4.705   4.477  16.986  0.0679 -0.0178 -0.0564
10959TIP3    H154368   4.674   4.557  17.029 -0.5207 -0.0763 -0.3616
10959TIP3    H254369   4.677   4.406  17.044 -2.9698 -0.3097 -1.6598
10960TIP3   OH254370   3.331   5.169   1.910  0.0056  0.0894  0.4616
10960TIP3    H154371   3.415   5.216   1.912  0.8629 -1.3707  1.7747
10960TIP3    H254372   3.355   5.079   1.890 -1.4527 -0.0765 -0.6933
10961TIP3   OH254373   6.566   2.964   4.809 -0.1247  0.3928 -0.2636
10961TIP3    H154374   6.524   2.880   4.787  0.7538 -0.7417  2.0600
10961TIP3    H254375   6.503   3.006   4.868  0.4061  0.3382  0.3452
10962TIP3   OH254376   3.168   2.760   4.849  0.1064  0.1796  0.3926
10962TIP3    H154377   3.211   2.823   4.906 -1.0042  0.6749  0.7103
10962TIP3    H254378   3.077   2.789   4.845  0.2781  0.5594 -2.1799
10963TIP3   OH254379   1.660   1.784   3.182  0.9113  0.7751 -0.1665
10963TIP3    H154380   1.669   1.787   3.277 -2.0086 -0.9765  0.2955
10963TIP3    H254381   1.669   1.691   3.160 -1.5284  0.6967 -1.1132
10964TIP3   OH254382   2.335   5.860   1.234  0.3360 -0.0675  0.2452
10964TIP3    H154383   2.380   5.857   1.319  0.4444 -0.7444  0.1735
10964TIP3    H254384   2.292   5.774   1.227 -0.2805  0.2616 -0.0598
10965TIP3   OH254385   4.799   5.147   5.384  0.1364 -0.2102  0.1992
10965TIP3    H154386   4.743   5.105   5.319  3.4407 -3.4464 -0.9431
10965TIP3    H254387   4.830   5.075   5.440  0.1773  1.9594  3.2337
10966TIP3   OH254388   1.838   0.485  17.152  0.1528 -0.2125 -0.3655
10966TIP3    H154389   1.754   0.445  17.172 -0.4374  0.8988 -0.5099
10966TIP3    H254390   1.816   0.572  17.118  1.2006 -0.8668 -3.0483
10967TIP3   OH254391   5.254   6.590  14.289  0.3868  0.0266 -0.0962
10967TIP3    H154392   5.308   6.667  14.303  0.2359  0.1207 -0.0266
10967TIP3    H254393   5.315   6.523  14.258  0.4412  0.3036 -0.5960
10968TIP3   OH254394   1.210   6.659   0.358  0.0714 -0.1100  0.2645
10968TIP3    H154395   1.128   6.695   0.393  1.0704 -0.2003  2.9320
10968TIP3    H254396   1.228   6.583   0.413  0.4818 -1.9050 -2.1892
10969TIP3   OH254397   0.115   3.376   4.764  0.5328  0.6198  0.4795
10969TIP3    H154398   0.097   3.364   4.671 -0.1602  0.6051  0.6106
10969TIP3    H254399   0.069   3.304   4.808  0.5952  0.8047  0.8578
10970TIP3   OH254400   1.544   2.261   0.531  0.0647 -0.1887  0.0705
10970TIP3    H154401   1.523   2.173   0.562  1.2655 -0.9596 -1.1985
10970TIP3    H254402   1.491   2.272   0.452 -1.4231  0.9665  1.1577
10971TIP3   OH254403   2.278   5.690  13.202  0.4832 -0.3751  0.0426
10971TIP3    H154404   2.346   5.695  13.269  0.4689  0.0564  0.0333
10971TIP3    H254405   2.270   5.781  13.171 -0.3852 -0.3482  0.3368
10972TIP3   OH254406   2.799   0.690   6.740 -0.1474 -0.4547  0.2733
10972TIP3    H154407   2.814   0.626   6.810 -1.8480 -1.4898 -0.2434
10972TIP3    H254408   2.706   0.683   6.721 -0.0641  1.1098 -0.8708
10973TIP3   OH254409   4.942   6.362  15.493  0.2301 -0.0016  0.4931
10973TIP3    H154410   4.874   6.380  15.429  0.3742  0.5107  0.4803
10973TIP3    H254411   4.984   6.446  15.509  2.6742 -0.7007 -1.5229
10974TIP3   OH254412   2.930   6.610  11.118  0.1676 -0.3781  0.3931
10974TIP3    H154413   2.990   6.676  11.082  0.1623 -0.6356 -0.0869
10974TIP3    H254414   2.921   6.635  11.211 -0.0898  0.4939  0.1486
10975TIP3   OH254415   4.334   6.311  17.311  0.0907 -0.0454 -0.0173
10975TIP3    H154416   4.281   6.242  17.350 -1.0675  0.6895 -0.2425
10975TIP3    H254417   4.328   6.296  17.217 -0.5251  0.6151 -0.0870
10976TIP3   OH254418   3.521   5.563  11.982  0.0049  0.0327 -0.3226
10976TIP3    H154419   3.579   5.501  11.938 -0.8702  0.7452 -2.6466
10976TIP3    H254420   3.564   5.580  12.066  1.7140 -1.5327 -0.7986
10977TIP3   OH254421   0.084   1.552   2.875 -0.1544 -0.3565  0.9119
10977TIP3    H154422   0.047   1.641   2.875  0.9489  0.1403  2.4988
10977TIP3    H254423   0.176   1.564   2.851 -0.4875 -1.3676 -1.0796
10978TIP3   OH254424   5.917   3.555   7.283 -0.2975  0.1319  0.1624
10978TIP3    H154425   5.996   3.572   7.232 -0.5917 -1.0592 -0.7365
10978TIP3    H254426   5.848   3.544   7.218 -1.5018  2.3641  0.9588
10979TIP3   OH254427   5.946   5.313   4.701 -0.4776  0.6034 -0.2261
10979TIP3    H154428   6.021   5.361   4.666 -0.0805 -0.5380 -0.9796
10979TIP3    H254429   5.954   5.225   4.665 -2.7234  0.7104 -1.1317
10980TIP3   OH254430   3.454   5.221   3.213 -0.9902 -0.0928 -0.1470
10980TIP3    H154431   3.403   5.144   3.185  1.3223 -1.8162  0.0807
10980TIP3    H254432   3.490   5.256   3.132 -0.8728 -0.1184 -0.1052
10981TIP3   OH254433   2.897   2.061  16.477  0.5231 -0.0087 -0.5673
10981TIP3    H154434   2.984   2.102  16.473  0.8333 -0.6669 -0.6254
10981TIP3    H254435   2.904   1.997  16.548 -0.3019  0.8083  0.2723
10982TIP3   OH254436   5.474   5.142   1.859  0.4692  0.0950  0.6561
10982TIP3    H154437   5.438   5.146   1.948 -1.5757 -1.3530 -0.0409
10982TIP3    H254438   5.534   5.068   1.861  1.3808  0.8224  1.1125
10983TIP3   OH254439   5.859   3.502   5.723 -0.1126 -0.1223 -0.2214
10983TIP3    H154440   5.846   3.485   5.816  1.6479  1.8616  0.4434
10983TIP3    H254441   5.935   3.449   5.699  0.0233  0.0998 -0.2869
10984TIP3   OH254442   0.502   3.294   4.527 -0.3957 -0.6632 -0.7271
10984TIP3    H154443   0.453   3.223   4.486 -0.3926 -0.2734 -1.4188
10984TIP3    H254444   0.575   3.311   4.467 -0.2791 -0.2116 -0.4635
10985TIP3   OH254445   0.926   4.810  13.893 -0.2005 -0.1787  0.2330
10985TIP3    H154446   0.883   4.823  13.977 -2.2874  0.4777 -0.8732
10985TIP3    H254447   0.999   4.872  13.894  1.5444 -2.0500  2.5665
10986TIP3   OH254448   2.474   5.882   5.299 -0.6909 -0.0292 -0.6519
10986TIP3    H154449   2.497   5.960   5.349  1.6786 -0.4993 -0.8915
10986TIP3    H254450   2.548   5.824   5.310 -1.6452 -1.5612 -1.9026
10987TIP3   OH254451   6.311   5.086   4.538 -0.3138  0.1041  1.1756
10987TIP3    H154452   6.312   5.033   4.618  0.2621  0.3731  1.3557
10987TIP3    H254453   6.396   5.070   4.498 -0.5257  0.1255  0.7135
10988TIP3   OH254454   4.162   6.369   3.208 -0.0089  0.0009  1.3870
10988TIP3    H154455   4.096   6.358   3.140  1.7429  0.3318 -0.4648
10988TIP3    H254456   4.159   6.463   3.229 -0.0435  0.0346  1.2332
10989TIP3   OH254457   5.042   0.159   5.752 -0.2371 -0.3176 -0.3299
10989TIP3    H154458   5.113   0.191   5.807 -0.5851 -0.7844  0.4097
10989TIP3    H254459   5.013   0.079   5.795 -1.0450 -0.2623 -0.7585
10990TIP3   OH254460   3.976   5.223   6.231  0.1355  0.2759 -0.6691
10990TIP3    H154461   3.969   5.222   6.136 -1.9800 -0.5215 -0.5563
10990TIP3    H254462   3.979   5.131   6.256 -0.7347  0.4258  0.0757
10991TIP3   OH254463   0.430   5.884   4.903 -0.2131 -0.1768  0.0120
10991TIP3    H154464   0.450   5.939   4.978  1.7724  2.3119 -2.1634
10991TIP3    H254465   0.455   5.796   4.930 -0.7191  0.4029  2.6224
10992TIP3   OH254466   4.157   5.248  17.009  0.7330  0.4998  0.0805
10992TIP3    H154467   4.117   5.232  17.094 -0.0422  2.6278  0.1656
10992TIP3    H254468   4.085   5.243  16.946  1.6448 -3.5640 -0.9251
10993TIP3   OH254469   2.106   4.829   6.319  0.0611 -0.0774 -0.4843
10993TIP3    H154470   2.065   4.880   6.249 -1.7338 -2.2921 -1.1854
10993TIP3    H254471   2.108   4.740   6.286 -0.5753 -1.1675  2.1339
10994TIP3   OH254472   6.179   3.545   1.298 -0.1011 -0.3028  0.0546
10994TIP3    H154473   6.207   3.625   1.254 -0.7405 -0.3625 -0.4668
10994TIP3    H254474   6.261   3.504   1.326  0.2951 -0.0504 -0.7030
10995TIP3   OH254475   2.447   0.295  14.638 -0.2477  0.0088 -0.0457
10995TIP3    H154476   2.529   0.340  14.619  0.0836 -0.3284  0.5421
10995TIP3    H254477   2.384   0.364  14.655 -0.2789  0.2921 -1.2399
10996TIP3   OH254478   5.444   6.204  16.824  0.1596 -0.0855 -0.0752
10996TIP3    H154479   5.523   6.164  16.788  0.2445  0.7483 -0.8477
10996TIP3    H254480   5.475   6.262  16.893  0.4927  1.8666 -1.7480
10997TIP3   OH254481   1.843   3.332  15.424 -0.1783 -0.0588  0.2782
10997TIP3    H154482   1.756   3.298  15.401  0.2024 -0.8482 -0.0388
10997TIP3    H254483   1.885   3.260  15.469 -0.2926  0.9050  2.0101
10998TIP3   OH254484   5.686   2.354   3.209  0.0207  0.1565 -0.3286
10998TIP3    H154485   5.765   2.386   3.253  0.6502  0.8088 -1.8545
10998TIP3    H254486   5.614   2.380   3.267  0.8112  0.9566  0.3198
10999TIP3   OH254487   3.943   6.658   4.438 -0.0956 -0.0417  0.2425
10999TIP3    H154488   3.964   6.569   4.411  0.7357 -0.5929  2.4957
10999TIP3    H254489   3.988   6.714   4.375 -0.1200 -1.1956 -0.8345
11000TIP3   OH254490   2.853   0.762   0.949  0.3201  0.2992  0.5503
11000TIP3    H154491   2.920   0.777   0.882 -0.8981  3.0957 -0.1392
11000TIP3    H254492   2.834   0.848   0.984 -0.0318 -0.9291  3.6681
11001TIP3   OH254493   1.020   2.300  10.526  0.5526  0.2516  0.0688
11001TIP3    H154494   0.970   2.257  10.457 -0.9886 -1.0525  1.9170
11001TIP3    H254495   0.979   2.385  10.537  1.9319  1.2361 -1.7551
11002TIP3   OH254496   4.393   2.956  15.744  0.4632  0.0017 -0.3086
11002TIP3    H154497   4.451   2.886  15.774  0.1807 -0.6467 -1.2067
11002TIP3    H254498   4.309   2.911  15.728  0.1279  0.6490 -0.3999
11003TIP3   OH254499   0.947   5.509   2.806 -0.5133  0.1965 -0.0406
11003TIP3    H154500   0.952   5.448   2.879  1.6940  0.0253 -0.2608
11003TIP3    H254501   1.013   5.575   2.825 -0.7714  0.8365 -1.2612
11004TIP3   OH254502   0.671   6.572   2.829 -0.2107  1.0785 -0.2846
11004TIP3    H154503   0.689   6.665   2.843 -0.7629  1.0528  0.6927
11004TIP3    H254504   0.629   6.543   2.911  1.3164 -0.3835  0.0285
11005TIP3   OH254505   5.544   1.183   0.555 -0.6669  0.0594 -0.1583
11005TIP3    H154506   5.571   1.229   0.476  0.7949 -0.2504  0.1306
11005TIP3    H254507   5.619   1.189   0.613 -1.3460 -0.5909  0.8240
11006TIP3   OH254508   4.685   2.024   6.842  0.6897  0.0550 -0.1836
11006TIP3    H154509   4.639   1.951   6.802  0.4239  0.9595 -1.6027
11006TIP3    H254510   4.655   2.101   6.794  1.4538  1.0207  0.8299
11007TIP3   OH254511   3.487   6.302  11.528 -0.3417 -0.0956 -0.0039
11007TIP3    H154512   3.431   6.225  11.517 -2.3078  1.0726  1.1814
11007TIP3    H254513   3.502   6.308  11.622 -0.9974  1.4300  0.0424
11008TIP3   OH254514   0.294   0.507  16.191 -0.1033  0.2523 -0.3293
11008TIP3    H154515   0.345   0.484  16.269 -0.7064 -0.5321 -0.1502
11008TIP3    H254516   0.232   0.435  16.181 -2.1818  1.8230  0.3172
11009TIP3   OH254517   6.705   3.571   5.343 -0.1010  0.6430 -0.0643
11009TIP3    H154518   6.622   3.542   5.382 -0.0415  1.3214  0.6039
11009TIP3    H254519   6.738   3.637   5.404  0.8874  0.4555 -0.3823
11010TIP3   OH254520   4.335   2.044  16.712  0.2455  0.0252 -0.2269
11010TIP3    H154521   4.350   2.113  16.648  0.2933  0.3494  0.1362
11010TIP3    H254522   4.409   1.984  16.700  0.1568 -0.0135 -0.5992
11011TIP3   OH254523   0.346   0.794   2.083  0.3760  0.2759 -0.0578
11011TIP3    H154524   0.264   0.777   2.130 -0.0119  0.3772 -0.6881
11011TIP3    H254525   0.354   0.890   2.082  0.2172  0.2865 -0.4743
11012TIP3   OH254526   3.351   5.173  14.066 -0.7254  0.4522  0.1732
11012TIP3    H154527   3.286   5.242  14.079 -0.8686  0.0261  1.8628
11012TIP3    H254528   3.431   5.207  14.106 -1.0481 -0.7080  1.8763
11013TIP3   OH254529   6.072   6.165   3.275  0.0865  0.0285  0.0159
11013TIP3    H154530   6.018   6.153   3.353 -0.0579  0.4114 -0.0193
11013TIP3    H254531   6.017   6.135   3.203  0.1024 -0.0375  0.0315
11014TIP3   OH254532   4.772   0.219   4.109 -0.1340 -0.0373  0.2294
11014TIP3    H154533   4.862   0.192   4.090  0.3123  1.4978  0.0508
11014TIP3    H254534   4.719   0.172   4.044  0.7706  0.6669 -1.0670
11015TIP3   OH254535   0.921   1.067  11.153  0.1245 -0.5716  0.0564
11015TIP3    H154536   0.932   1.029  11.066  0.9794 -1.9057  0.7146
11015TIP3    H254537   0.838   1.031  11.185 -0.3205  0.1246 -0.2934
11016TIP3   OH254538   4.928   0.412   0.074 -0.2033 -0.6325 -0.7615
11016TIP3    H154539   4.916   0.317   0.070  1.1349 -0.9670  1.3296
11016TIP3    H254540   4.960   0.427   0.163 -2.8179  2.0927 -0.1363
11017TIP3   OH254541   2.214   0.690  17.277  0.4816  0.4487 -0.3236
11017TIP3    H154542   2.280   0.758  17.262  1.6563 -0.8279 -1.1070
11017TIP3    H254543   2.188   0.661  17.190 -2.5133  2.1360 -0.1298
11018TIP3   OH254544   3.774   3.828   4.392  0.0201 -0.1752 -0.0521
11018TIP3    H154545   3.749   3.800   4.304  1.4169 -0.5626 -0.3406
11018TIP3    H254546   3.813   3.914   4.380  0.5588 -0.3903  0.1252
11019TIP3   OH254547   6.003   4.159   5.369 -0.2580  0.2287  0.2943
11019TIP3    H154548   5.908   4.156   5.374 -0.3967  1.1563 -1.1575
11019TIP3    H254549   6.033   4.126   5.454 -1.8724  0.5946  1.0461
11020TIP3   OH254550   3.864   2.664  16.621  0.7035 -0.8762  0.5970
11020TIP3    H154551   3.769   2.668  16.611  0.0991 -0.4303  4.8390
11020TIP3    H254552   3.884   2.570  16.624 -0.0750 -1.0244  2.3559
11021TIP3   OH254553   5.402   3.093  17.085  0.5618 -0.2126  0.3383
11021TIP3    H154554   5.474   3.061  17.140 -0.1716  0.0587  1.4965
11021TIP3    H254555   5.323   3.078  17.138 -0.2256 -0.3245 -0.8251
11022TIP3   OH254556   6.548   0.567   1.743 -0.4629  0.0188 -0.4616
11022TIP3    H154557   6.607   0.609   1.806 -0.0620 -3.5464  1.8180
11022TIP3    H254558   6.467   0.617   1.749  0.1097  0.8147  1.6708
11023TIP3   OH254559   5.188   0.212  17.498 -0.5135 -0.4797 -0.7562
11023TIP3    H154560   5.153   0.191  17.585 -0.3286  2.6557  0.1743
11023TIP3    H254561   5.124   0.174  17.438 -1.0333 -2.0945  0.7100
11024TIP3   OH254562   3.662   2.813   1.043 -0.0469  0.4627 -0.4783
11024TIP3    H154563   3.756   2.828   1.032  0.2638  0.3650  1.5895
11024TIP3    H254564   3.657   2.740   1.105 -1.4946  0.2619 -0.8028
11025TIP3   OH254565   5.572   2.144  12.350 -0.0818  0.6786 -0.2340
11025TIP3    H154566   5.586   2.191  12.267  0.0178  0.5065 -0.3163
11025TIP3    H254567   5.592   2.209  12.417  0.3574  0.6702 -0.3490
11026TIP3   OH254568   4.705   1.628  12.115 -0.2221 -0.1430 -0.2216
11026TIP3    H154569   4.719   1.539  12.148 -2.3938 -0.0848  1.0466
11026TIP3    H254570   4.774   1.680  12.157 -0.3478 -0.8405  0.9065
11027TIP3   OH254571   3.690   5.631   3.350 -0.4762 -0.1347 -0.1278
11027TIP3    H154572   3.621   5.690   3.380 -1.0891  0.5559 -2.6168
11027TIP3    H254573   3.654   5.543   3.364 -1.1626  0.1778  0.0961
11028TIP3   OH254574   6.151   3.596   7.078  0.5044  0.6618  0.7517
11028TIP3    H154575   6.227   3.644   7.111  0.5258 -0.1459  1.9549
11028TIP3    H254576   6.116   3.651   7.009  0.9871  2.0210  1.5527
11029TIP3   OH254577   4.124   0.887  13.405 -0.5209 -0.1892  0.8030
11029TIP3    H154578   4.173   0.920  13.330  0.0553  0.0335  1.2632
11029TIP3    H254579   4.088   0.803  13.376  0.8585 -0.7753  0.7195
11030TIP3   OH254580   2.030   5.256  11.427 -0.4779 -0.6725 -0.3687
11030TIP3    H154581   2.099   5.190  11.424  0.1349 -0.0518 -0.0272
11030TIP3    H254582   1.949   5.205  11.437  0.1248 -1.2968  1.7183
11031TIP3   OH254583   5.751   5.769  12.671  0.1198 -0.8074 -0.3191
11031TIP3    H154584   5.685   5.824  12.714 -0.7922 -1.6901 -0.5788
11031TIP3    H254585   5.804   5.734  12.744  1.0598  0.8048 -0.1771
11032TIP3   OH254586   2.876   1.811  16.005  0.1075  0.2622  0.2197
11032TIP3    H154587   2.942   1.859  15.955 -1.0748  2.2342  0.4016
11032TIP3    H254588   2.887   1.841  16.095 -0.2724 -0.2851  0.4568
11033TIP3   OH254589   3.666   5.970   6.271  0.7102  0.8199  0.1953
11033TIP3    H154590   3.732   5.901   6.279 -1.5533 -1.4654  0.4391
11033TIP3    H254591   3.709   6.048   6.307  3.5048 -0.3016 -0.3902
11034TIP3   OH254592   4.328   3.680  15.124  0.0021  0.1024  0.2203
11034TIP3    H154593   4.401   3.643  15.175  0.2380  2.4194  1.7313
11034TIP3    H254594   4.367   3.753  15.076 -1.2582  1.3381  0.9935
11035TIP3   OH254595   2.483   5.739  10.512 -0.4967  0.0621  0.2912
11035TIP3    H154596   2.453   5.654  10.543 -0.9753  0.0726 -0.1109
11035TIP3    H254597   2.424   5.802  10.553 -1.4141  0.0461 -0.9251
11036TIP3   OH254598   0.343   0.628   5.071 -0.5521  0.5075 -0.3001
11036TIP3    H154599   0.368   0.620   5.164  0.3890  1.6950 -0.4288
11036TIP3    H254600   0.307   0.542   5.049  0.5224 -0.2686  0.7986
11037TIP3   OH254601   4.287   4.896   3.259  0.0365  0.1783 -0.0029
11037TIP3    H154602   4.199   4.905   3.222  0.3014 -0.8161 -0.9403
11037TIP3    H254603   4.334   4.842   3.195  0.9994 -0.2476  1.0326
11038TIP3   OH254604   5.180   3.742  13.082  0.3426  0.4616 -0.0966
11038TIP3    H154605   5.097   3.761  13.124  0.6409  1.8560 -0.1006
11038TIP3    H254606   5.226   3.686  13.144 -0.2496  0.3888  0.2816
11039TIP3   OH254607   2.575   5.041  11.709 -0.1979  0.0207 -0.2842
11039TIP3    H154608   2.615   5.115  11.754  0.5918 -0.6392  0.1248
11039TIP3    H254609   2.547   4.982  11.779  0.3360 -0.6494 -0.6206
11040TIP3   OH254610   0.018   4.640  11.727  0.3700 -0.0291 -0.1197
11040TIP3    H154611  -0.047   4.584  11.683 -1.0966  3.0219 -2.2264
11040TIP3    H254612   0.096   4.633  11.673  0.1568  0.0432 -0.4408
11041TIP3   OH254613   3.405   1.275   3.784  0.0805 -0.0878  0.3407
11041TIP3    H154614   3.367   1.362   3.779  1.6765  0.5956 -0.6483
11041TIP3    H254615   3.482   1.279   3.727  0.8531 -1.7924  1.1909
11042TIP3   OH254616   2.640   5.708  14.814 -0.2004  0.6448  0.0301
11042TIP3    H154617   2.619   5.735  14.724 -0.2492 -1.2508 -0.5692
11042TIP3    H254618   2.555   5.692  14.855 -0.1853  1.6893  0.4983
11043TIP3   OH254619   0.418   1.840   0.577  0.5015 -0.1526  0.4214
11043TIP3    H154620   0.383   1.775   0.516  0.6243 -1.6306  1.8801
11043TIP3    H254621   0.352   1.847   0.646  1.1634  0.1727  1.0320
11044TIP3   OH254622   1.954   4.991   3.243 -0.1949  0.7982  0.2140
11044TIP3    H154623   2.014   4.937   3.191 -1.1144  1.3267 -1.4598
11044TIP3    H254624   1.872   4.942   3.244 -0.0830  0.5998  1.5624
11045TIP3   OH254625   4.143   3.035  15.416 -0.0805 -0.1791 -0.0198
11045TIP3    H154626   4.131   3.116  15.366 -2.0196 -0.9155 -0.8035
11045TIP3    H254627   4.079   3.041  15.487  0.4173 -0.6266  0.4782
11046TIP3   OH254628   1.833   2.380   2.392 -0.1578 -0.2682 -0.1936
11046TIP3    H154629   1.917   2.425   2.381 -0.2546 -0.5610 -2.6123
11046TIP3    H254630   1.852   2.289   2.371 -1.1729 -0.2313 -1.3731
11047TIP3   OH254631   3.609   2.472   0.553  0.9015 -0.3809  0.5524
11047TIP3    H154632   3.566   2.470   0.639 -0.2420 -0.6033 -0.0065
11047TIP3    H254633   3.553   2.529   0.500  1.4821 -0.4152 -0.1077
11048TIP3   OH254634   1.756   3.033  12.051 -0.0285  0.2059  0.0146
11048TIP3    H154635   1.753   3.087  12.130  0.3662  0.6455 -0.2662
11048TIP3    H254636   1.849   3.011  12.041 -0.3948 -2.3808  1.3636
11049TIP3   OH254637   4.320   1.838   4.899 -0.2324  0.0503 -0.0754
11049TIP3    H154638   4.258   1.769   4.924  1.2152 -1.6550 -0.9481
11049TIP3    H254639   4.304   1.908   4.962  0.2120 -2.2228  2.7768
11050TIP3   OH254640   0.166   0.316  15.226  0.3017  0.1904  0.4468
11050TIP3    H154641   0.226   0.323  15.300  0.7224  0.3690  0.0961
11050TIP3    H254642   0.099   0.381  15.244  1.5804  1.8316 -0.3824
11051TIP3   OH254643   3.982   2.102  13.188 -0.3982  0.0878 -0.2757
11051TIP3    H154644   3.912   2.069  13.245 -1.5759  2.2453 -0.3566
11051TIP3    H254645   4.060   2.054  13.216 -1.4269 -0.6938  1.4466
11052TIP3   OH254646   1.412   6.240  16.141  0.3211 -0.2006 -0.0686
11052TIP3    H154647   1.421   6.333  16.164 -1.6016 -0.0457  0.2241
11052TIP3    H254648   1.329   6.235  16.094  0.3537 -1.7958 -0.0114
11053TIP3   OH254649   3.605   1.863  11.851  0.2019 -0.5254  0.3512
11053TIP3    H154650   3.567   1.813  11.779 -0.3958 -0.3694  0.5537
11053TIP3    H254651   3.565   1.827  11.930  1.4703 -1.2533  0.6831
11054TIP3   OH254652   0.575   0.325   3.056  0.4161  0.2747 -0.2132
11054TIP3    H154653   0.590   0.416   3.029  0.3901  0.6069  0.8391
11054TIP3    H254654   0.544   0.332   3.146  1.3652 -0.8372  0.2228
11055TIP3   OH254655   4.792   2.768  14.978  0.0146  0.5593  0.2422
11055TIP3    H154656   4.769   2.678  15.002 -0.9388  0.0718 -2.2699
11055TIP3    H254657   4.792   2.815  15.062 -0.9143 -1.4440  1.4500
11056TIP3   OH254658   2.926   1.265  15.569  0.1827 -0.1914  0.0026
11056TIP3    H154659   2.850   1.260  15.627  0.2293 -0.3683  0.0470
11056TIP3    H254660   2.973   1.184  15.584  0.3502 -0.1073 -0.0686
11057TIP3   OH254661   2.630   4.708  14.719 -0.3287  0.4774 -0.1737
11057TIP3    H154662   2.712   4.749  14.745 -0.7185  0.3940  1.2941
11057TIP3    H254663   2.605   4.654  14.794 -1.9487  0.8600 -0.3898
11058TIP3   OH254664   3.496   3.293  15.081  0.0630  0.4243 -0.2978
11058TIP3    H154665   3.405   3.292  15.111  0.5885 -0.9037  1.4069
11058TIP3    H254666   3.546   3.316  15.158  1.2615  0.1447 -0.9697
11059TIP3   OH254667   5.272   4.315  11.324  0.3197  0.1615 -0.1793
11059TIP3    H154668   5.290   4.383  11.389 -0.6653 -2.0703  2.6274
11059TIP3    H254669   5.354   4.267  11.315  0.2312 -0.0471  0.1000
11060TIP3   OH254670   3.923   6.607  16.579 -0.4010 -0.4349 -0.0856
11060TIP3    H154671   3.865   6.573  16.647 -1.1571  1.6450  0.4027
11060TIP3    H254672   3.876   6.683  16.544  0.6928 -0.5151 -1.8279
11061TIP3   OH254673   4.270   6.518   1.226 -0.1314 -0.2816 -0.0563
11061TIP3    H154674   4.218   6.448   1.187  0.6110 -0.8936  0.0300
11061TIP3    H254675   4.290   6.486   1.314 -0.5278  0.4318  0.3013
11062TIP3   OH254676   2.737   2.408  15.937 -0.0335 -0.1074  0.0177
11062TIP3    H154677   2.761   2.323  15.902  1.1608 -0.2408  1.0785
11062TIP3    H254678   2.733   2.466  15.861  0.1981 -0.8722 -0.5837
11063TIP3   OH254679   3.505   5.599   4.488 -0.0251 -0.1414 -0.1355
11063TIP3    H154680   3.458   5.526   4.447  0.6912 -0.5895 -0.1987
11063TIP3    H254681   3.510   5.666   4.420 -1.7996  0.5038  0.3295
11064TIP3   OH254682   5.697   0.489   2.159 -0.5739  0.0057  0.0782
11064TIP3    H154683   5.758   0.548   2.115  0.0969 -0.3240  0.5372
11064TIP3    H254684   5.734   0.478   2.247 -0.6752 -1.0885  0.0019
11065TIP3   OH254685   2.393   4.132  13.134 -0.3176  0.6160 -0.0545
11065TIP3    H154686   2.357   4.192  13.199 -1.1566 -1.7899  1.8863
11065TIP3    H254687   2.477   4.104  13.171 -0.7629 -0.7060  0.0216
11066TIP3   OH254688   1.734   0.811   4.597 -0.1132 -0.3993  0.4832
11066TIP3    H154689   1.705   0.751   4.528 -0.3500 -0.5779  0.7343
11066TIP3    H254690   1.659   0.869   4.612 -0.2628 -0.7027  0.9598
11067TIP3   OH254691   1.453   4.080   3.354  0.1823  0.4135  0.1995
11067TIP3    H154692   1.512   4.151   3.328  1.7046 -0.5986  0.7527
11067TIP3    H254693   1.408   4.055   3.274  1.2559  0.5365 -0.4511
11068TIP3   OH254694   2.353   5.042   4.885  0.1732  0.1517 -0.1538
11068TIP3    H154695   2.429   4.985   4.878 -0.5799 -1.1844  1.5200
11068TIP3    H254696   2.304   5.027   4.804  0.7554 -0.4547 -0.4019
11069TIP3   OH254697   5.540   3.699   1.686  0.1104 -0.0026 -0.6332
11069TIP3    H154698   5.548   3.791   1.711  2.1140 -0.3127  0.0823
11069TIP3    H254699   5.500   3.657   1.762 -0.3135  0.1766 -0.7523
11070TIP3   OH254700   0.213   4.954   5.226  0.1839  0.3722 -0.0794
11070TIP3    H154701   0.211   4.946   5.131 -0.5212 -1.8488  0.0741
11070TIP3    H254702   0.148   4.891   5.257  0.6368  0.8127  1.8910
11071TIP3   OH254703   5.137   6.285   3.057  0.1415 -0.5766 -0.0854
11071TIP3    H154704   5.152   6.313   3.148 -1.9698 -2.2777  0.8726
11071TIP3    H254705   5.079   6.352   3.021 -0.9509 -1.0941  0.6358
11072TIP3   OH254706   5.596   1.295  16.449  0.9107 -0.7824 -0.4993
11072TIP3    H154707   5.580   1.204  16.424  0.0373 -1.1197  1.1185
11072TIP3    H254708   5.517   1.342  16.421 -0.4324 -1.3066  2.0808
11073TIP3   OH254709   2.647   5.139  13.348 -0.1178 -0.1683  0.0722
11073TIP3    H154710   2.595   5.122  13.427  0.4065 -1.2581  0.1957
11073TIP3    H254711   2.736   5.117  13.374  0.1910  0.2976 -0.5798
11074TIP3   OH254712   6.027   4.550   5.364 -0.0763 -0.3878 -0.2214
11074TIP3    H154713   6.046   4.638   5.331  0.6894 -0.7319 -0.7258
11074TIP3    H254714   5.982   4.507   5.291  0.3327 -0.6923 -0.2943
11075TIP3   OH254715   1.227   4.794   2.375  0.2702 -0.1762 -0.4492
11075TIP3    H154716   1.137   4.822   2.388 -0.6525 -3.2048  0.5200
11075TIP3    H254717   1.279   4.873   2.388 -2.0151  1.0224  2.5915
11076TIP3   OH254718   0.408   1.276  12.991 -0.0051 -0.2488  0.0790
11076TIP3    H154719   0.385   1.368  12.977 -0.1286 -0.5120 -1.7431
11076TIP3    H254720   0.489   1.279  13.042  0.7379  0.9378 -1.0822
11077TIP3   OH254721   3.418   1.784   6.297  0.3535 -0.4140  0.1586
11077TIP3    H154722   3.360   1.769   6.371  1.0271 -0.4327  0.6853
11077TIP3    H254723   3.360   1.779   6.220 -0.0314 -2.3861  0.5278
11078TIP3   OH254724   4.883   1.500   1.775 -0.2878 -0.0364  0.2535
11078TIP3    H154725   4.901   1.533   1.688  0.5176 -1.9644 -0.3602
11078TIP3    H254726   4.891   1.405   1.767 -1.5106 -0.3477  2.1272
11079TIP3   OH254727   2.167   6.329  12.225 -0.9254 -0.2208 -0.2804
11079TIP3    H154728   2.200   6.240  12.210 -2.8148 -0.9535 -0.2671
11079TIP3    H254729   2.238   6.373  12.273 -0.1827 -1.8650  0.1864
11080TIP3   OH254730   2.246   5.219   2.710  0.8580  0.2545  0.3814
11080TIP3    H154731   2.233   5.286   2.643 -1.3826 -1.1224 -0.6623
11080TIP3    H254732   2.314   5.161   2.674 -0.4664 -0.5810 -0.8451
11081TIP3   OH254733   1.031   5.456  17.273 -0.5084  0.2071  0.0257
11081TIP3    H154734   1.058   5.385  17.331  1.5689  0.1590 -0.8905
11081TIP3    H254735   1.024   5.533  17.330  2.3475  0.3573  0.3115
11082TIP3   OH254736   3.652   6.516   0.116 -0.7372 -0.0893 -0.2937
11082TIP3    H154737   3.689   6.604   0.110 -0.9796  0.2923  2.5706
11082TIP3    H254738   3.557   6.530   0.110 -0.7808 -0.1108  0.2488
11083TIP3   OH254739   6.014   1.013  14.337 -0.1113 -0.0868 -0.1525
11083TIP3    H154740   5.970   0.984  14.257 -0.2110  2.0380 -0.9200
11083TIP3    H254741   5.954   1.076  14.377  0.3896 -0.3534  1.0725
11084TIP3   OH254742   3.768   5.742   0.091  0.2406  0.3154 -0.0135
11084TIP3    H154743   3.844   5.763   0.037 -0.4669  0.8330 -0.8411
11084TIP3    H254744   3.695   5.783   0.046 -0.5063 -0.0033  0.8779
11085TIP3   OH254745   4.142   2.381   4.485 -0.1718  0.2960 -0.0134
11085TIP3    H154746   4.148   2.362   4.579  0.8680 -1.2527 -0.3654
11085TIP3    H254747   4.122   2.297   4.445  0.8828  0.6361 -1.3239
11086TIP3   OH254748   2.138   5.253   3.720 -0.2203 -0.1561 -0.6926
11086TIP3    H154749   2.046   5.271   3.700 -0.0139  1.5061 -0.2955
11086TIP3    H254750   2.186   5.319   3.670  0.7532 -0.8990 -0.7507
11087TIP3   OH254751   5.072   1.605   3.677 -0.5724 -0.7995 -0.8647
11087TIP3    H154752   5.057   1.568   3.590 -1.2243 -3.8722  0.4330
11087TIP3    H254753   5.168   1.604   3.687 -0.4825 -0.2300 -1.5952
11088TIP3   OH254754   3.604   3.391  15.738  0.5145 -1.0741 -0.2108
11088TIP3    H154755   3.598   3.322  15.804  1.9552 -0.7692  0.2603
11088TIP3    H254756   3.577   3.471  15.784  1.2673 -0.9061 -0.0547
11089TIP3   OH254757   1.861   0.692  12.328  0.0645  0.0898 -0.0309
11089TIP3    H154758   1.829   0.689  12.418 -0.2438  1.5003 -0.0665
11089TIP3    H254759   1.956   0.697  12.336  0.0059  1.0042  0.2710
11090TIP3   OH254760   0.339   1.044   3.920  0.1836  0.6174 -0.2111
11090TIP3    H154761   0.277   1.116   3.932 -2.3656 -1.5763  0.8540
11090TIP3    H254762   0.317   0.982   3.990  2.8091 -0.8589 -0.5652
11091TIP3   OH254763   0.591   6.275   0.492 -0.2611 -0.2045  0.6045
11091TIP3    H154764   0.546   6.192   0.509 -0.0375 -0.0982  1.8106
11091TIP3    H254765   0.520   6.338   0.477 -0.4465 -1.0330 -2.8416
11092TIP3   OH254766   2.536   3.300   6.013  0.7028 -0.6721  0.2497
11092TIP3    H154767   2.488   3.365   6.064  2.2669  0.3975  0.4412
11092TIP3    H254768   2.548   3.341   5.928  0.9731 -1.0713  0.0917
11093TIP3   OH254769   1.275   0.766   0.626  0.1940  0.5166 -0.3593
11093TIP3    H154770   1.223   0.846   0.618 -0.6099  0.2553  1.7487
11093TIP3    H254771   1.254   0.732   0.713  0.4975 -2.0199 -1.1967
11094TIP3   OH254772   2.475   0.304   1.639 -0.0971 -0.4374  0.4409
11094TIP3    H154773   2.382   0.295   1.660 -0.6012 -0.7064 -1.6672
11094TIP3    H254774   2.496   0.224   1.591  0.9539  0.0822  0.0063
11095TIP3   OH254775   3.291   6.647  13.569  0.0602  0.3356  0.4679
11095TIP3    H154776   3.381   6.621  13.591 -0.0380 -0.8536 -0.4389
11095TIP3    H254777   3.244   6.644  13.652  0.8738  1.0294  0.9593
11096TIP3   OH254778   4.541   0.309  14.340 -0.7633  0.1314  0.0464
11096TIP3    H154779   4.607   0.332  14.405  2.6377 -0.2268 -2.9583
11096TIP3    H254780   4.492   0.390  14.325 -0.2915  0.7328  1.5416
11097TIP3   OH254781   0.289   4.873   6.186 -0.6490 -0.1571  0.4199
11097TIP3    H154782   0.255   4.959   6.212  0.4874  0.3666  0.2385
11097TIP3    H254783   0.241   4.811   6.241 -1.1538  0.6229  0.8883
11098TIP3   OH254784   2.102   6.299  15.434  1.0506  0.3390  0.1226
11098TIP3    H154785   2.157   6.352  15.378  0.8121  0.5049  0.0436
11098TIP3    H254786   2.016   6.342  15.431  0.1979 -1.3385 -1.8006
11099TIP3   OH254787   1.837   6.092   4.384  0.2224 -0.0276  0.0672
11099TIP3    H154788   1.783   6.170   4.375  0.2553  0.0257  0.3309
11099TIP3    H254789   1.926   6.125   4.393  0.4814 -0.1501 -1.7231
11100TIP3   OH254790   0.238   6.728  12.940 -0.1852 -0.3476 -0.2918
11100TIP3    H154791   0.271   6.642  12.966  0.1659  0.5678  2.6276
11100TIP3    H254792   0.317   6.781  12.928 -0.4117 -0.2841 -1.6313
11101TIP3   OH254793   4.519   3.660   0.537 -0.1174 -0.5556  0.3970
11101TIP3    H154794   4.476   3.734   0.495 -0.2395  0.0231  1.5068
11101TIP3    H254795   4.602   3.650   0.490 -0.3906 -0.1423 -0.1837
11102TIP3   OH254796   2.111   0.422  10.989 -0.2120 -0.5298 -0.1194
11102TIP3    H154797   2.126   0.488  11.056 -0.1779 -1.3284  0.6804
11102TIP3    H254798   2.049   0.463  10.928  0.1583  0.3920  0.1019
11103TIP3   OH254799   5.137   0.364  16.834  0.2490 -0.1669 -0.2983
11103TIP3    H154800   5.097   0.391  16.751  0.2943 -1.2171 -0.6820
11103TIP3    H254801   5.065   0.367  16.897 -0.2409 -1.0853 -0.7744
11104TIP3   OH254802   1.180   5.744  16.003 -0.4222  0.1662 -0.5011
11104TIP3    H154803   1.233   5.681  16.051  2.4738  1.3937 -1.8528
11104TIP3    H254804   1.099   5.698  15.983 -0.3528 -1.5048  2.5134
11105TIP3   OH254805   5.730   5.609   4.385 -0.2584 -0.5756  0.6108
11105TIP3    H154806   5.744   5.567   4.470 -0.8773 -1.2392  0.3917
11105TIP3    H254807   5.817   5.617   4.347  0.1561  0.6671  1.7380
11106TIP3   OH254808   4.810   4.200  16.839  0.6725  0.4435 -0.0898
11106TIP3    H154809   4.743   4.173  16.902 -0.3460  0.5763 -1.1009
11106TIP3    H254810   4.833   4.289  16.866 -1.7995  1.6088 -1.5218
11107TIP3   OH254811   0.167   2.536   3.910 -0.0365 -0.3188  0.1241
11107TIP3    H154812   0.078   2.550   3.944  0.2518 -1.9672  1.7188
11107TIP3    H254813   0.215   2.615   3.935 -0.7664  0.0903  0.2681
11108TIP3   OH254814   5.452   2.030  17.305  0.1984 -0.3638 -0.5468
11108TIP3    H154815   5.426   1.996  17.219 -3.5175 -0.3768  0.4105
11108TIP3    H254816   5.477   1.952  17.354 -1.2713 -0.8890 -0.5616
11109TIP3   OH254817   4.544   3.713  13.464 -0.0663  0.0992 -0.3422
11109TIP3    H154818   4.550   3.744  13.373 -0.3588  2.1354  0.2880
11109TIP3    H254819   4.593   3.778  13.515 -2.2441  0.5945  1.2765
11110TIP3   OH254820   2.930   6.765  13.234  0.1995 -0.5453  0.4100
11110TIP3    H154821   3.018   6.772  13.269  0.2658  0.3179  0.0978
11110TIP3    H254822   2.926   6.678  13.195  0.3412 -1.2744  1.9256
11111TIP3   OH254823   6.345   6.455   3.547 -0.2201 -0.4437 -0.5503
11111TIP3    H154824   6.400   6.413   3.480 -1.5803 -0.1490 -1.8919
11111TIP3    H254825   6.276   6.391   3.565 -0.0347 -0.3956  0.3712
11112TIP3   OH254826   6.359   5.038  13.564 -0.2740  0.0174  0.4065
11112TIP3    H154827   6.430   5.038  13.500  0.2015 -0.7450  0.9114
11112TIP3    H254828   6.359   4.949  13.600 -0.6342  0.3809  1.3500
11113TIP3   OH254829   0.215   1.368   3.946 -0.2358 -0.7322  0.2868
11113TIP3    H154830   0.239   1.395   3.857  0.8748  1.0918  1.0825
11113TIP3    H254831   0.123   1.393   3.954  0.3245  1.4974  0.4376
11114TIP3   OH254832   4.852   0.086   2.850 -0.4417  0.2553  0.0022
11114TIP3    H154833   4.801   0.137   2.787  0.0333 -0.2696 -0.8287
11114TIP3    H254834   4.789   0.027   2.891 -1.0285  1.6058  1.0964
11115TIP3   OH254835   4.300   6.757  11.131 -0.1281 -0.0023 -0.4247
11115TIP3    H154836   4.387   6.719  11.144 -0.8808 -1.9599 -0.7470
11115TIP3    H254837   4.298   6.783  11.039  1.2133  3.1778  0.3303
11116TIP3   OH254838   2.148   6.688  17.334 -0.0057  0.9133 -0.3101
11116TIP3    H154839   2.067   6.659  17.292 -0.4677  1.8240 -0.0610
11116TIP3    H254840   2.217   6.658  17.275 -0.5745  0.9932 -1.0341
11117TIP3   OH254841   4.112   2.762   5.780  0.4463  0.1545  0.3503
11117TIP3    H154842   4.119   2.666   5.776 -0.0578  0.1509 -0.7907
11117TIP3    H254843   4.101   2.781   5.873 -2.7045 -1.1615  0.3873
11118TIP3   OH254844   3.461   0.270   2.072 -0.2496  0.6252  0.0776
11118TIP3    H154845   3.530   0.336   2.077 -0.0946  0.3933  2.6977
11118TIP3    H254846   3.507   0.187   2.061 -0.2119  0.6338  0.1695
11119TIP3   OH254847   5.208   0.238   3.237  1.1068  0.1356 -0.1141
11119TIP3    H154848   5.169   0.240   3.150  0.9072 -1.7062 -0.1108
11119TIP3    H254849   5.223   0.145   3.255  0.3493  0.3738  2.1771
11120TIP3   OH254850   1.328   3.044  16.626  0.2415  0.2339  0.1280
11120TIP3    H154851   1.250   3.093  16.653 -1.6486 -0.9693 -2.5466
11120TIP3    H254852   1.368   3.099  16.559  0.1504 -0.2728 -0.3531
11121TIP3   OH254853   4.627   2.414   2.034 -0.1379 -0.3721 -0.4272
11121TIP3    H154854   4.697   2.425   1.970  0.1771 -0.2217 -0.0636
11121TIP3    H254855   4.639   2.326   2.069  2.3292  0.9009  2.4491
11122TIP3   OH254856   6.408   5.733  14.650 -0.4964 -0.1675 -0.3994
11122TIP3    H154857   6.458   5.815  14.648 -0.1874 -0.3492 -2.7574
11122TIP3    H254858   6.466   5.670  14.691 -0.1679  0.4270  0.0766
11123TIP3   OH254859   0.586   5.276   1.948  0.1535 -0.1523 -0.2435
11123TIP3    H154860   0.600   5.211   2.016  1.6874 -1.7210 -1.9735
11123TIP3    H254861   0.492   5.297   1.955 -0.7521 -3.5456 -0.4447
11124TIP3   OH254862   3.561   4.018   0.742  0.2533 -0.4829 -0.0175
11124TIP3    H154863   3.502   4.057   0.806 -0.1236  0.1258 -0.7209
11124TIP3    H254864   3.626   3.971   0.794 -0.1990 -0.2196  0.7954
11125TIP3   OH254865   5.022   4.323  14.013 -0.3162 -0.2216  0.0342
11125TIP3    H154866   5.094   4.352  14.068 -0.8702 -0.0603  0.6847
11125TIP3    H254867   4.998   4.237  14.046 -2.3058  0.9043  1.7486
11126TIP3   OH254868   6.536   0.595  17.139 -0.2808  0.0813 -0.4672
11126TIP3    H154869   6.548   0.548  17.056  2.7132  0.3059 -0.2795
11126TIP3    H254870   6.518   0.527  17.203  1.6338 -0.6383 -0.6208
11127TIP3   OH254871   4.792   1.009  11.976  0.2794 -0.0355 -0.2832
11127TIP3    H154872   4.828   0.966  12.054  0.8251 -0.0062 -0.5200
11127TIP3    H254873   4.754   0.938  11.925  2.4436 -0.4686 -1.3760
11128TIP3   OH254874   4.828   1.477  16.488 -0.8073  0.3695  0.2286
11128TIP3    H154875   4.754   1.525  16.526 -0.4843  1.2077 -0.1651
11128TIP3    H254876   4.788   1.404  16.441 -1.4586  1.2456 -0.6188
11129TIP3   OH254877   0.442   1.866   4.120 -0.1470 -0.2882 -0.1528
11129TIP3    H154878   0.411   1.863   4.211 -0.8657  0.3445 -0.3584
11129TIP3    H254879   0.361   1.866   4.068  0.2779 -1.6054 -0.8326
11130TIP3   OH254880   1.508   2.814  14.071  0.2896 -0.4149 -0.0547
11130TIP3    H154881   1.489   2.775  14.157 -0.1682  0.0274  0.0521
11130TIP3    H254882   1.559   2.747  14.025  0.0647 -0.8809  0.3601
11131TIP3   OH254883   6.351   1.318  11.981 -0.1056 -0.1670 -0.4686
11131TIP3    H154884   6.370   1.390  12.041 -0.9801 -0.7016  0.4838
11131TIP3    H254885   6.385   1.240  12.026  1.5226 -0.2769 -1.8301
11132TIP3   OH254886   6.051   5.611  16.785 -0.1042  0.1738 -0.4312
11132TIP3    H154887   5.967   5.583  16.822  0.9009 -2.2896  0.1973
11132TIP3    H254888   6.028   5.656  16.704 -2.0571  0.3605  0.1741
11133TIP3   OH254889   4.941   0.692   5.936 -0.0825 -0.2013 -0.0015
11133TIP3    H154890   4.894   0.630   5.880  0.9956 -0.0344 -1.1258
11133TIP3    H254891   4.995   0.743   5.876 -0.8142  1.7511  0.9058
11134TIP3   OH254892   1.955   3.235   2.505  0.0145  0.2146 -0.2548
11134TIP3    H154893   1.963   3.259   2.597  0.4453  1.3866 -0.5827
11134TIP3    H254894   1.863   3.210   2.495  0.7371 -3.7243  1.3209
11135TIP3   OH254895   4.295   2.691  15.522 -0.0494  0.6259 -0.5169
11135TIP3    H154896   4.314   2.733  15.438  1.9288 -0.9841 -0.9421
11135TIP3    H254897   4.381   2.667  15.557 -0.9570 -0.8373  0.8474
11136TIP3   OH254898   2.141   6.649  13.419 -0.1004 -0.2783 -0.5468
11136TIP3    H154899   2.225   6.633  13.463 -1.8330 -0.2126  3.1939
11136TIP3    H254900   2.107   6.561  13.400  0.1926 -0.3538 -0.7193
11137TIP3   OH254901   5.631   4.960   4.169 -0.0960  0.2496 -0.1206
11137TIP3    H154902   5.546   5.005   4.167 -0.5287 -0.5654 -0.4162
11137TIP3    H254903   5.693   5.025   4.135 -0.5543  0.9371  0.3420
11138TIP3   OH254904   2.848   3.240  13.431 -0.3960  0.2315 -0.1312
11138TIP3    H154905   2.783   3.302  13.466  0.3112  0.7077  0.3575
11138TIP3    H254906   2.890   3.287  13.360  0.1646  0.3257  0.2597
11139TIP3   OH254907   0.447   6.521  13.336  0.0581 -0.1520 -0.1229
11139TIP3    H154908   0.448   6.444  13.392  3.1465  0.5096  0.9110
11139TIP3    H254909   0.357   6.552  13.340 -0.4587 -1.6863  2.2971
11140TIP3   OH254910   0.671   1.180   3.030  0.1450 -0.2852  1.2358
11140TIP3    H154911   0.753   1.172   3.078 -0.6081 -0.7528  2.5018
11140TIP3    H254912   0.614   1.232   3.087 -0.5074 -0.1303  0.4716
11141TIP3   OH254913   2.555   5.111  12.805 -0.0395  0.4617 -0.4911
11141TIP3    H154914   2.575   5.022  12.775 -0.8950 -0.7227  2.1747
11141TIP3    H254915   2.624   5.130  12.868 -0.9962  0.8616  0.4446
11142TIP3   OH254916   3.236   0.801   5.525  0.4099  0.1522 -0.0524
11142TIP3    H154917   3.297   0.730   5.505 -0.0578 -0.0784 -0.7119
11142TIP3    H254918   3.247   0.864   5.453 -0.8534 -0.3898 -0.7672
11143TIP3   OH254919   5.071   2.435  16.795  0.6468 -0.0915 -0.6987
11143TIP3    H154920   5.075   2.451  16.889 -0.8225  0.9064 -0.7737
11143TIP3    H254921   5.086   2.521  16.756  0.9361 -0.4417 -1.3612
11144TIP3   OH254922   1.251   2.394  17.238  0.0028 -0.2653  0.0962
11144TIP3    H154923   1.306   2.362  17.167  0.3763 -0.3659  0.4310
11144TIP3    H254924   1.243   2.488  17.221  1.3965  0.0001  0.7909
11145TIP3   OH254925   5.001   3.112   2.635  0.0252 -0.0942 -0.5864
11145TIP3    H154926   5.088   3.103   2.673 -0.5785 -2.4365  0.4230
11145TIP3    H254927   4.945   3.136   2.709 -0.1442  1.9571 -1.3326
11146TIP3   OH254928   5.991   3.134  12.641  0.2505 -0.2571 -0.4445
11146TIP3    H154929   5.917   3.135  12.702  1.3433  1.4353  0.9709
11146TIP3    H254930   5.972   3.206  12.580  0.3372 -0.3611 -0.5948
11147TIP3   OH254931   4.229   3.016  14.080  0.0112  0.2880  0.0447
11147TIP3    H154932   4.142   3.029  14.041  0.4094 -2.1539 -1.9492
11147TIP3    H254933   4.281   3.089  14.046 -0.6360  0.3139 -0.9536
11148TIP3   OH254934   4.426   0.691   2.153  1.0514  0.1054 -0.6014
11148TIP3    H154935   4.465   0.751   2.089  1.6726  0.7047  0.3255
11148TIP3    H254936   4.499   0.635   2.180  0.3087 -1.7164 -2.1129
11149TIP3   OH254937   0.037   3.534  11.846  0.4830  0.2887 -0.0209
11149TIP3    H154938   0.052   3.628  11.850  0.6467  0.2628 -0.0303
11149TIP3    H254939   0.116   3.498  11.807  0.7275  0.0705  0.6611
11150TIP3   OH254940   3.339   5.992   0.927  0.0632  0.4627  0.0050
11150TIP3    H154941   3.368   6.082   0.942  0.8587  0.3230 -0.6904
11150TIP3    H254942   3.411   5.938   0.959 -0.7723  0.0259  1.2588
11151TIP3   OH254943   0.449   4.912  17.256  0.6895  0.2388 -0.5580
11151TIP3    H154944   0.373   4.854  17.255  0.6885  0.2403 -1.1364
11151TIP3    H254945   0.435   4.970  17.181  0.0784  1.7968  0.7227
11152TIP3   OH254946   4.174   4.765  17.300 -0.0172 -0.0065 -0.5966
11152TIP3    H154947   4.084   4.736  17.283 -0.1027  0.3522 -0.7708
11152TIP3    H254948   4.225   4.684  17.302 -0.6555 -0.4011  1.5942
11153TIP3   OH254949   3.260   3.559  16.262  0.6925  0.1336  0.2646
11153TIP3    H154950   3.289   3.471  16.238  0.5814  0.2371 -0.2736
11153TIP3    H254951   3.253   3.605  16.178  0.6281  0.6179  0.5324
11154TIP3   OH254952   5.721   4.143  10.820 -0.6517 -0.3562 -0.2444
11154TIP3    H154953   5.698   4.141  10.913 -0.2781 -0.2473 -0.1460
11154TIP3    H254954   5.752   4.232  10.805  0.3525 -0.6732 -0.1954
11155TIP3   OH254955   6.130   1.700  11.803 -0.0295  0.8987 -0.3867
11155TIP3    H154956   6.072   1.775  11.791 -1.2410  0.2762  1.2180
11155TIP3    H254957   6.102   1.661  11.886  2.4526  0.3501  0.2816
11156TIP3   OH254958   1.385   0.002  11.956 -0.0049  0.7313 -0.5533
11156TIP3    H154959   1.351  -0.043  12.033 -1.1922 -1.1125 -2.0338
11156TIP3    H254960   1.467  -0.043  11.936 -0.5686 -0.0129 -1.3117
11157TIP3   OH254961   3.232   3.773   1.022  0.3655  0.2880 -0.0653
11157TIP3    H154962   3.223   3.770   0.927  1.0974 -0.9423 -0.1176
11157TIP3    H254963   3.307   3.716   1.041 -0.4547 -0.3865  1.3333
11158TIP3   OH254964   5.365   3.434   1.585 -0.1495 -0.2317  0.3267
11158TIP3    H154965   5.275   3.417   1.609  0.4488 -0.7447  2.3605
11158TIP3    H254966   5.379   3.527   1.604 -0.0233 -0.3490  0.8195
11159TIP3   OH254967   5.017   1.297  15.458  0.0559  0.0735  0.7175
11159TIP3    H154968   5.008   1.217  15.510 -0.0020 -1.0290 -0.9193
11159TIP3    H254969   4.933   1.342  15.469  0.1576  0.0234  1.8000
11160TIP3   OH254970   6.010   1.905   1.796 -0.2367 -0.5754 -0.2523
11160TIP3    H154971   5.995   1.811   1.796  0.4356 -0.7247 -2.2898
11160TIP3    H254972   5.928   1.943   1.766 -0.4894 -0.4980  0.5147
11161TIP3   OH254973   0.747   0.336   4.233  0.0554  0.3673 -0.1045
11161TIP3    H154974   0.729   0.249   4.198  0.6474  0.2520 -0.1339
11161TIP3    H254975   0.673   0.355   4.290 -0.5118  0.2180 -0.7866
11162TIP3   OH254976   6.564   4.641  14.729  0.1171 -0.2785  0.4513
11162TIP3    H154977   6.510   4.564  14.746  1.3806 -1.3896 -0.3548
11162TIP3    H254978   6.512   4.715  14.760 -0.9983 -1.4808  1.5303
11163TIP3   OH254979   4.667   1.915  14.475 -0.4001 -0.4052  0.0112
11163TIP3    H154980   4.654   1.876  14.561 -1.0996  1.3436  0.7477
11163TIP3    H254981   4.713   1.848  14.424  1.4925 -0.8909  2.2211
11164TIP3   OH254982   1.572   4.682  12.486  0.8291 -0.1228  0.4667
11164TIP3    H154983   1.581   4.776  12.470  2.1251 -0.3768 -0.4620
11164TIP3    H254984   1.625   4.641  12.418 -1.0253 -1.6091 -0.1860
11165TIP3   OH254985   1.530   2.058  16.368 -0.1882 -0.4519 -0.0348
11165TIP3    H154986   1.498   1.979  16.324  0.5841  0.2032 -1.8833
11165TIP3    H254987   1.510   2.129  16.307 -0.7748  0.7917  1.5382
11166TIP3   OH254988   3.615   1.538  15.445  0.0998  0.2982  0.4536
11166TIP3    H154989   3.597   1.575  15.531  2.0763  1.6037  0.3726
11166TIP3    H254990   3.621   1.444  15.460 -0.8080  0.3840  1.4846
11167TIP3   OH254991   0.861   1.168  16.293  0.3506  0.1080 -0.2917
11167TIP3    H154992   0.932   1.136  16.237  0.1626 -0.8137 -0.0223
11167TIP3    H254993   0.904   1.198  16.372  0.4598 -0.3910 -0.1557
11168TIP3   OH254994   5.507   1.443  14.759  0.0617  0.4514 -0.4204
11168TIP3    H154995   5.563   1.386  14.813  1.4531 -1.0555 -3.2040
11168TIP3    H254996   5.418   1.412  14.775  0.7272 -2.1645 -1.3250
11169TIP3   OH254997   0.157   1.616  14.076  0.7058 -0.2227 -0.1703
11169TIP3    H154998   0.130   1.553  14.009  1.9868 -0.3821 -0.5609
11169TIP3    H254999   0.183   1.694  14.027  2.1269 -0.5169  0.0785
11170TIP3   OH255000   4.486   4.892  15.406 -0.6263  0.3937  0.4885
11170TIP3    H155001   4.506   4.799  15.409 -1.6197  0.2149  2.7535
11170TIP3    H255002   4.566   4.932  15.372 -0.4046 -1.2970 -1.1389
11171TIP3   OH255003   2.729   0.055  15.477 -0.0132  0.8219 -0.5618
11171TIP3    H155004   2.758   0.084  15.391  0.2857  1.3430 -0.2892
11171TIP3    H255005   2.691   0.133  15.518  4.0382  1.9380  1.5840
11172TIP3   OH255006   5.425   0.834   0.902 -0.7193  0.2549 -0.9424
11172TIP3    H155007   5.329   0.835   0.899 -0.7545 -1.7931 -2.8959
11172TIP3    H255008   5.449   0.745   0.877  1.7118  0.4069  0.5534
11173TIP3   OH255009   3.058   1.389   5.507 -0.5842 -0.0991 -0.4345
11173TIP3    H155010   2.973   1.427   5.533  0.0539  0.3956  1.0296
11173TIP3    H255011   3.038   1.299   5.484 -1.7791  0.4650 -1.8019
11174TIP3   OH255012   4.403   3.298  16.232  0.4800 -0.4870  0.6668
11174TIP3    H155013   4.350   3.376  16.249 -0.6847 -0.7439 -1.4708
11174TIP3    H255014   4.357   3.227  16.276  0.5301 -0.2710  1.0707
11175TIP3   OH255015   1.203   5.537  16.464 -0.0390  0.4135 -0.4088
11175TIP3    H155016   1.212   5.497  16.377  1.9863  1.2576 -0.6416
11175TIP3    H255017   1.127   5.493  16.503  0.7066 -1.9987 -1.5142
11176TIP3   OH255018   0.946   3.404   0.276  0.9098 -0.0900 -0.7252
11176TIP3    H155019   0.975   3.493   0.296  2.0336 -0.8914  1.7085
11176TIP3    H255020   0.923   3.367   0.361 -2.4454 -1.2418 -1.9883
11177TIP3   OH255021   3.286   0.116  14.895  0.2685 -0.0220 -0.5329
11177TIP3    H155022   3.374   0.124  14.860 -0.1236 -1.7692 -2.1036
11177TIP3    H255023   3.232   0.172  14.839  0.0565 -0.7014 -1.0200
11178TIP3   OH255024   6.617   2.164   2.590  0.3165  0.7176 -0.1559
11178TIP3    H155025   6.684   2.126   2.533 -0.3425  2.7455 -2.4829
11178TIP3    H255026   6.666   2.223   2.648  1.2181 -2.6276  2.8260
11179TIP3   OH255027   3.152   0.983  11.849  0.4275 -0.2760 -0.4215
11179TIP3    H155028   3.161   0.891  11.874 -1.0952 -0.1684  0.6927
11179TIP3    H255029   3.062   1.005  11.874  0.6289  1.3984 -1.0798
11180TIP3   OH255030   6.526   1.604   3.803  0.2188  0.2840  0.4213
11180TIP3    H155031   6.477   1.607   3.885 -1.2791 -0.0731 -0.4305
11180TIP3    H255032   6.537   1.696   3.778  0.1010  0.3700  0.6865
11181TIP3   OH255033   0.940   1.560   4.750 -0.0911 -0.1471  0.1028
11181TIP3    H155034   0.950   1.616   4.827 -1.0587  0.4777 -0.2032
11181TIP3    H255035   0.989   1.481   4.772 -0.1679  0.1026  1.2734
11182TIP3   OH255036   4.401   4.470  13.279  0.6868  0.7044 -0.6024
11182TIP3    H155037   4.450   4.398  13.319 -1.0704 -0.7506 -0.9007
11182TIP3    H255038   4.442   4.481  13.193  1.8160  0.9787 -0.0439
11183TIP3   OH255039   4.741   3.763   6.029 -0.7669  0.5256  0.2634
11183TIP3    H155040   4.678   3.727   5.967 -1.4447  0.4766  0.9660
11183TIP3    H255041   4.723   3.857   6.030 -1.1300  0.4533  0.7913
11184TIP3   OH255042   1.699   5.431   6.561 -0.0969 -0.3728 -0.6635
11184TIP3    H155043   1.661   5.380   6.632  1.0856 -1.5416 -0.8355
11184TIP3    H255044   1.630   5.493   6.537 -0.4248  0.2243  1.6348
11185TIP3   OH255045   5.537   4.517  13.641 -0.1046 -0.0673  0.3396
11185TIP3    H155046   5.585   4.504  13.722 -0.2968  2.6171  0.9559
11185TIP3    H255047   5.592   4.475  13.574  2.0114  0.9838  1.3218
11186TIP3   OH255048   4.976   1.930  11.670 -0.2663  0.0157 -0.3503
11186TIP3    H155049   5.050   1.881  11.706 -0.8872  0.1197  1.1638
11186TIP3    H255050   4.902   1.906  11.726 -1.3202  0.1559 -1.6401
11187TIP3   OH255051   0.952   5.553  16.205 -0.4525 -0.6526 -0.7492
11187TIP3    H155052   0.987   5.625  16.257 -1.4667 -0.6254 -0.0734
11187TIP3    H255053   1.019   5.485  16.208  0.3913  0.1439 -1.1620
11188TIP3   OH255054   4.225   2.599   2.217  0.4613 -0.4522 -0.1429
11188TIP3    H155055   4.229   2.625   2.309 -0.1806  3.0649 -0.9670
11188TIP3    H255056   4.163   2.526   2.216 -1.1816  0.7647  2.0385
11189TIP3   OH255057   1.032   4.544   6.186 -0.3587 -0.0178 -0.2019
11189TIP3    H155058   0.936   4.538   6.177 -0.3921  0.3495 -0.0825
11189TIP3    H255059   1.064   4.542   6.096 -0.5458  1.0046 -0.3009
11190TIP3   OH255060   6.609   6.029  16.327  0.2087 -0.1956 -0.0610
11190TIP3    H155061   6.657   5.946  16.333 -2.1242 -1.5596  1.3498
11190TIP3    H255062   6.616   6.067  16.414 -0.5659 -0.0433 -0.0549
11191TIP3   OH255063   3.383   5.069  13.114 -0.2518  0.1492 -0.0407
11191TIP3    H155064   3.349   5.092  13.027  1.0749  1.2688 -0.3221
11191TIP3    H255065   3.313   5.092  13.174 -0.8862  0.1507 -0.7646
11192TIP3   OH255066   4.415   2.923   4.971 -0.4986  0.2373  0.0379
11192TIP3    H155067   4.420   2.986   5.043 -0.8446  1.3323 -0.8706
11192TIP3    H255068   4.470   2.850   5.000 -2.0632 -0.1946  2.2152
11193TIP3   OH255069   5.356   6.090  14.988  0.1048 -0.2350  0.0334
11193TIP3    H155070   5.304   6.018  15.023  2.3560 -2.2104 -0.3997
11193TIP3    H255071   5.419   6.048  14.929  2.2067  1.9303  0.5395
11194TIP3   OH255072   4.393   5.678  15.896 -0.2938 -1.4336  0.0221
11194TIP3    H155073   4.442   5.754  15.864  1.2871 -2.5376 -0.2600
11194TIP3    H255074   4.381   5.695  15.990 -2.6260  0.5485 -0.5225
11195TIP3   OH255075   0.639   2.837  12.872 -0.1082  0.2041  0.4400
11195TIP3    H155076   0.588   2.776  12.819 -0.2065  0.3486  0.3656
11195TIP3    H255077   0.730   2.809  12.861 -0.1057  0.3656  0.0144
11196TIP3   OH255078   5.096   2.947  13.688 -0.6159 -0.2959 -0.0052
11196TIP3    H155079   5.084   3.014  13.620 -1.6131 -0.4411  0.0195
11196TIP3    H255080   5.138   2.874  13.642  0.6799  0.4010  0.0144
11197TIP3   OH255081   6.696   3.149   6.707  0.2549 -0.2185  0.7485
11197TIP3    H155082   6.667   3.153   6.798 -0.1442 -0.8610  0.6532
11197TIP3    H255083   6.749   3.228   6.695 -3.0569  2.1958  0.3955
11198TIP3   OH255084   3.651   5.383   3.974  0.2553 -0.4831  0.4683
11198TIP3    H155085   3.591   5.309   3.977 -0.5004  0.0061 -1.0473
11198TIP3    H255086   3.730   5.349   3.932 -0.0839 -0.4628 -0.2065
11199TIP3   OH255087   6.153   5.252  14.070 -0.5568 -0.3127 -0.2952
11199TIP3    H155088   6.160   5.216  13.982 -1.3348  1.2932 -1.0462
11199TIP3    H255089   6.062   5.280  14.077 -1.4087 -3.1549  2.1591
11200TIP3   OH255090   1.859   0.319  11.239 -0.0291  0.3638  0.5713
11200TIP3    H155091   1.836   0.293  11.150  0.2461  1.5579  0.1278
11200TIP3    H255092   1.783   0.294  11.291 -0.3256 -0.0682 -0.0578
11201TIP3   OH255093   2.717   3.917  17.027 -0.0715  0.3693 -0.1468
11201TIP3    H155094   2.790   3.891  17.083 -0.6289 -0.6321  0.1436
11201TIP3    H255095   2.681   3.834  16.995 -1.6525  0.7745  0.4755
11202TIP3   OH255096   2.869   2.167  13.298  0.1838 -0.0719 -0.1381
11202TIP3    H155097   2.790   2.113  13.289  0.2154 -0.3175  0.8871
11202TIP3    H255098   2.906   2.171  13.210 -0.1393 -1.2376 -0.3496
11203TIP3   OH255099   6.354   5.663   2.316  0.1604  0.0748  0.0503
11203TIP3    H155100   6.380   5.676   2.225 -0.8827 -0.5642 -0.3615
11203TIP3    H255101   6.295   5.587   2.313  1.3081 -0.9170  1.4827
11204TIP3   OH255102   6.245   3.812   0.837 -0.1269  0.4898  0.3195
11204TIP3    H155103   6.229   3.823   0.931  0.8927  1.6254  0.3797
11204TIP3    H255104   6.283   3.725   0.829  0.1411  0.5336  1.0212
11205TIP3   OH255105   6.613   4.601   2.779 -0.6527  0.3468  0.1040
11205TIP3    H155106   6.587   4.621   2.689 -1.3539  0.4311  0.3188
11205TIP3    H255107   6.671   4.673   2.803 -1.4217  0.9819  0.1196
11206TIP3   OH255108   3.155   3.395  15.973  0.4578  0.2658 -0.6704
11206TIP3    H155109   3.145   3.488  15.994 -2.0549 -0.4135  1.7627
11206TIP3    H255110   3.201   3.358  16.048 -0.5850 -0.8020 -0.5252
11207TIP3   OH255111   0.821   4.020  17.413  0.2220 -0.1460  0.2671
11207TIP3    H155112   0.889   4.076  17.451 -0.8172  1.7977 -0.5689
11207TIP3    H255113   0.751   4.081  17.388 -0.4608 -1.6905 -1.8622
11208TIP3   OH255114   0.813   0.100  12.298  0.5100  0.2488 -0.4760
11208TIP3    H155115   0.782   0.016  12.331 -0.6460  1.1139  0.7625
11208TIP3    H255116   0.763   0.115  12.218 -1.8136  1.2308  1.0459
11209TIP3   OH255117   5.650   0.654   4.047  0.1054 -0.0879 -0.3894
11209TIP3    H155118   5.588   0.621   4.112 -0.3759 -3.2939 -2.2699
11209TIP3    H255119   5.733   0.611   4.068  0.5674  0.6919 -0.5417
11210TIP3   OH255120   2.248   2.044   0.436  0.3255 -0.2872 -0.1164
11210TIP3    H155121   2.178   2.009   0.492  0.2217  0.8229  0.4750
11210TIP3    H255122   2.201   2.079   0.360 -0.0811  2.6517  1.3691
11211TIP3   OH255123   0.425   4.625   5.360 -0.3555  0.3464  0.3469
11211TIP3    H155124   0.381   4.579   5.289  0.8278  1.3454 -1.0916
11211TIP3    H255125   0.511   4.647   5.325  1.0437 -0.8453  2.7840
11212TIP3   OH255126   6.229   1.955   2.307 -1.0655  0.1716  0.8804
11212TIP3    H155127   6.141   1.987   2.289 -1.4301 -0.7033  1.0235
11212TIP3    H255128   6.253   1.905   2.228 -1.0467 -0.3059  1.1844
11213TIP3   OH255129   2.446   0.314   3.238  0.3465  0.2280  0.0538
11213TIP3    H155130   2.426   0.312   3.331  1.2010  0.8157  0.2656
11213TIP3    H255131   2.408   0.396   3.207  1.1239  0.6452  0.1609
11214TIP3   OH255132   0.071   3.902  14.619  0.0138  0.3861 -0.4635
11214TIP3    H155133   0.129   3.908  14.694  0.7094 -1.1058 -0.8277
11214TIP3    H255134   0.053   3.808  14.610 -0.0261  0.5129 -2.1517
11215TIP3   OH255135   4.605   2.759   1.421 -0.4198 -0.1018 -0.0669
11215TIP3    H155136   4.625   2.690   1.357 -3.8306 -1.6422  0.3357
11215TIP3    H255137   4.527   2.803   1.387 -1.2149  0.2797  2.0792
11216TIP3   OH255138   3.514   4.340  15.384  0.2260 -0.2276 -1.0198
11216TIP3    H155139   3.428   4.329  15.343  0.1137 -0.9428 -0.6066
11216TIP3    H255140   3.504   4.415  15.443  0.4351  0.9240 -2.3865
11217TIP3   OH255141   0.661   2.946  13.823 -0.0228  0.1838  0.0819
11217TIP3    H155142   0.643   2.926  13.916 -2.7299 -0.2513 -0.4432
11217TIP3    H255143   0.640   2.864  13.778  0.2843  0.7044 -1.0120
11218TIP3   OH255144   2.061   3.660   3.118 -0.2969  0.7347  0.1958
11218TIP3    H155145   2.110   3.728   3.166  0.9821 -0.2162  0.2897
11218TIP3    H255146   1.976   3.656   3.163  0.5158  0.5318  1.8168
11219TIP3   OH255147   2.813   4.172  11.783 -0.5438 -0.2800  0.3300
11219TIP3    H155148   2.840   4.084  11.756  0.8183 -0.6747  2.7148
11219TIP3    H255149   2.864   4.230  11.726  2.3434 -1.0790  1.8786
11220TIP3   OH255150   1.598   1.946  15.156  0.3806 -0.2897  0.3776
11220TIP3    H155151   1.687   1.929  15.126  1.1365  0.7131  1.9532
11220TIP3    H255152   1.542   1.913  15.085  1.9799 -1.1198 -0.5437
11221TIP3   OH255153   4.892   4.320   1.276  0.5312 -0.1933 -0.2123
11221TIP3    H155154   4.980   4.288   1.257  0.5194 -0.4916  0.2131
11221TIP3    H255155   4.864   4.268   1.351 -0.1463 -0.3430 -0.5612
11222TIP3   OH255156   6.285   5.144   6.073  0.1720 -0.4575 -0.3527
11222TIP3    H155157   6.273   5.049   6.078 -0.4613 -0.4188 -0.9613
11222TIP3    H255158   6.284   5.173   6.164 -1.8700 -0.7956 -0.2181
11223TIP3   OH255159   3.912   3.802   0.255  0.2114 -0.6420 -0.2948
11223TIP3    H155160   3.946   3.800   0.344 -0.0776 -2.6078 -0.1827
11223TIP3    H255161   3.823   3.834   0.263  0.8788  1.3014 -0.1822
11224TIP3   OH255162   1.243   2.535   4.671 -0.2774  0.5703  0.4474
11224TIP3    H155163   1.162   2.489   4.696  0.3806 -0.4367  0.7777
11224TIP3    H255164   1.282   2.561   4.754 -0.9608  2.3411  0.2490
11225TIP3   OH255165   1.074   0.572  14.371 -0.0073  0.6938  1.0103
11225TIP3    H155166   0.994   0.619  14.397 -1.5117 -1.0000 -0.3183
11225TIP3    H255167   1.138   0.642  14.358 -2.0802  2.4576 -0.7185
11226TIP3   OH255168   3.696   6.391   6.889  0.0130  0.0247 -0.1384
11226TIP3    H155169   3.694   6.296   6.882 -1.8686  0.0674 -0.5974
11226TIP3    H255170   3.669   6.423   6.803  0.1169  0.9670  0.1596
11227TIP3   OH255171   4.823   1.463  15.739 -0.0881  0.6235 -0.2888
11227TIP3    H155172   4.759   1.487  15.671 -1.5891  0.3809  0.9832
11227TIP3    H255173   4.832   1.368  15.729  2.3683  0.9528 -2.3382
11228TIP3   OH255174   5.294   3.455  11.478 -0.1916 -0.5815 -0.2727
11228TIP3    H155175   5.297   3.384  11.414 -1.8405  0.2478 -1.3464
11228TIP3    H255176   5.386   3.478  11.492  0.3358 -2.4174 -0.4390
11229TIP3   OH255177   2.673   0.793  11.289  0.0692 -0.3575  0.0680
11229TIP3    H155178   2.725   0.756  11.360  0.4730 -0.0703 -0.0762
11229TIP3    H255179   2.729   0.787  11.212  0.1552  0.5621  0.0450
11230TIP3   OH255180   2.326   1.246  15.676 -0.2888  0.6624 -0.3149
11230TIP3    H155181   2.292   1.307  15.741 -1.9788 -1.3791  0.8319
11230TIP3    H255182   2.420   1.240  15.696 -0.2224  2.2963 -0.0129
11231TIP3   OH255183   1.395   1.052  13.737 -0.3272  0.4154 -0.4499
11231TIP3    H155184   1.398   1.076  13.829  1.0224  0.1315 -0.4060
11231TIP3    H255185   1.321   0.991  13.730  0.7754 -1.1731  0.8607
11232TIP3   OH255186   0.188   4.606  13.592  0.1993  0.1884 -0.3481
11232TIP3    H155187   0.263   4.628  13.647  0.6088 -0.0046 -0.8145
11232TIP3    H255188   0.211   4.641  13.506 -0.5962  0.8232 -0.3130
11233TIP3   OH255189   2.827   0.253   1.770  0.0180  0.3186  0.3278
11233TIP3    H155190   2.902   0.214   1.724 -1.4684 -1.3946 -0.7997
11233TIP3    H255191   2.782   0.304   1.702 -0.9556 -0.3820  0.4245
11234TIP3   OH255192   3.073   2.942  15.243  0.2143  0.0790 -0.0215
11234TIP3    H155193   3.101   3.024  15.201  0.1335 -0.5520 -1.3561
11234TIP3    H255194   3.086   2.958  15.337  1.5003  1.1392 -0.3447
11235TIP3   OH255195   4.659   1.791  14.730  0.0469 -0.4214 -0.2646
11235TIP3    H155196   4.587   1.747  14.775  0.6710 -0.4217  0.7694
11235TIP3    H255197   4.667   1.875  14.774 -0.7171  0.5060 -1.8092
11236TIP3   OH255198   5.327   3.588   1.862  0.2248 -0.0776  0.8901
11236TIP3    H155199   5.307   3.681   1.869 -0.3037 -0.1977  0.9802
11236TIP3    H255200   5.288   3.549   1.941 -0.3232 -0.5096  0.4116
11237TIP3   OH255201   5.025   3.125  14.142 -0.2219  0.2076  0.5293
11237TIP3    H155202   5.032   3.048  14.085  0.6199  0.0517  0.8354
11237TIP3    H255203   5.051   3.198  14.086  2.2319 -0.1364  1.1253
11238TIP3   OH255204   4.378   2.145   3.058 -0.5571 -0.1011  0.2006
11238TIP3    H155205   4.290   2.156   3.023  0.3907  1.7902 -1.7968
11238TIP3    H255206   4.422   2.088   2.995  0.5868  1.7101 -0.7288
11239TIP3   OH255207   0.446   4.112  11.835  0.2205  0.7947  0.0034
11239TIP3    H155208   0.416   4.159  11.913 -0.7543  0.4615 -0.1551
11239TIP3    H255209   0.452   4.021  11.862 -1.6168  0.4204 -0.6762
11240TIP3   OH255210   0.749   3.102   3.112  0.0821 -0.5567 -0.3906
11240TIP3    H155211   0.704   3.084   3.029 -1.2177  0.0068  0.1706
11240TIP3    H255212   0.701   3.175   3.150  1.6249  0.2029  0.1485
11241TIP3   OH255213   6.746   2.526   5.169  0.2516 -0.1218  0.1497
11241TIP3    H155214   6.777   2.436   5.158  0.5224 -0.3438  2.3496
11241TIP3    H255215   6.761   2.546   5.261 -0.7822  1.8298 -0.0449
11242TIP3   OH255216   4.348   3.136  17.310  0.0586  0.2231  0.1870
11242TIP3    H155217   4.381   3.171  17.227 -0.4170  2.9958  1.0535
11242TIP3    H255218   4.426   3.113  17.359  0.5534  1.9515  0.2844
11243TIP3   OH255219   4.810   2.230   0.525 -0.3829 -0.7332 -0.4675
11243TIP3    H155220   4.835   2.165   0.591 -0.1391 -0.2516 -0.0813
11243TIP3    H255221   4.724   2.260   0.552 -0.3736 -0.6881 -0.4897
11244TIP3   OH255222   6.747   5.793  14.243  0.3013 -0.4057  0.0773
11244TIP3    H155223   6.734   5.698  14.244 -1.3739 -0.2127  0.3362
11244TIP3    H255224   6.667   5.828  14.283  0.7407  1.1291 -0.3330
11245TIP3   OH255225   1.492   1.712   1.121 -0.4498  0.4764 -0.1687
11245TIP3    H155226   1.513   1.734   1.212 -0.8962  0.0558  0.0433
11245TIP3    H255227   1.425   1.775   1.095  0.4216  1.2658 -0.5599
11246TIP3   OH255228   0.645   0.289   5.097 -0.2991  0.8472  0.0212
11246TIP3    H155229   0.579   0.261   5.034 -1.9028  2.4072  0.9102
11246TIP3    H255230   0.635   0.229   5.171 -1.8368  1.9936  0.7897
11247TIP3   OH255231   1.640   1.326   5.638  0.1999 -0.5067  0.2457
11247TIP3    H155232   1.554   1.308   5.677  0.2913  0.3898  0.8886
11247TIP3    H255233   1.635   1.418   5.611  1.1175 -0.3043  0.7303
11248TIP3   OH255234   0.374   1.955  16.739  0.0453 -0.4817 -0.5008
11248TIP3    H155235   0.387   1.942  16.833 -1.4988  1.9017  0.1601
11248TIP3    H255236   0.451   1.918  16.698  1.6877  0.0787  1.8747
11249TIP3   OH255237   1.978   3.486  15.718  0.3829 -0.1998  0.4240
11249TIP3    H155238   2.038   3.498  15.644  1.1471  1.2189  1.2495
11249TIP3    H255239   2.022   3.424  15.775  0.7794  0.3442  0.7140
11250TIP3   OH255240   1.856   5.566  14.007 -0.0685 -0.1516  0.0486
11250TIP3    H155241   1.883   5.637  13.949  0.9461 -0.2992  0.3317
11250TIP3    H255242   1.778   5.529  13.964 -1.5235  2.0374  0.6190
11251TIP3   OH255243   6.272   1.053  10.992  0.0783  0.0346  0.0928
11251TIP3    H155244   6.339   1.089  10.934 -0.4206  0.6709 -0.1008
11251TIP3    H255245   6.303   0.966  11.014  0.0103 -0.4458 -1.5912
11252TIP3   OH255246   6.514   1.073  14.496  0.0005  0.0081  0.3239
11252TIP3    H155247   6.442   1.024  14.537  1.8507 -0.2752  3.5350
11252TIP3    H255248   6.473   1.155  14.468 -2.6386 -2.1241 -2.9972
11253TIP3   OH255249   2.478   0.734   2.327 -0.5391  0.1967 -0.0570
11253TIP3    H155250   2.391   0.695   2.336  0.4713 -2.1271  0.1306
11253TIP3    H255251   2.486   0.793   2.402 -2.3523  1.3172 -0.6871
11254TIP3   OH255252   0.132   4.937  12.744  0.1543 -0.0037  0.3120
11254TIP3    H155253   0.053   4.897  12.782  0.0463  0.2726  0.3832
11254TIP3    H255254   0.116   4.937  12.650 -0.1512  0.5072  0.3598
11255TIP3   OH255255   4.888   1.715  13.892 -0.4032  0.0812  0.8913
11255TIP3    H155256   4.968   1.758  13.921 -0.1602  0.2786 -0.0315
11255TIP3    H255257   4.850   1.776  13.828 -1.8922  0.5208  2.1339
11256TIP3   OH255258   0.543   0.142   2.266  0.2175 -0.3058  0.3915
11256TIP3    H155259   0.509   0.198   2.196  0.5650 -1.5337 -0.7829
11256TIP3    H255260   0.574   0.204   2.332 -1.1500  0.8788 -0.0086
11257TIP3   OH255261   3.892   0.991   0.617  0.2221 -0.1749 -0.3584
11257TIP3    H155262   3.840   0.924   0.572 -0.5348  0.8231 -1.0139
11257TIP3    H255263   3.833   1.026   0.683  0.8909 -0.7062  0.5432
11258TIP3   OH255264   1.385   4.209   1.737 -0.4417  0.5289  0.1177
11258TIP3    H155265   1.419   4.239   1.653  1.2429  1.8890  1.1921
11258TIP3    H255266   1.360   4.290   1.782  1.9345  0.2405  2.1908
11259TIP3   OH255267   4.209   1.320   0.929  0.0235  0.2843  0.4093
11259TIP3    H155268   4.304   1.322   0.921 -0.1640  0.9162 -2.8199
11259TIP3    H255269   4.183   1.239   0.885 -0.9920  0.4233  0.7278
11260TIP3   OH255270   3.415   1.093  15.669 -0.1906  0.2939  0.8119
11260TIP3    H155271   3.494   1.137  15.637 -0.5358 -0.6770 -1.6086
11260TIP3    H255272   3.438   1.062  15.757  1.7879  0.8430  0.5269
11261TIP3   OH255273   5.871   1.401   2.057  0.3092 -0.2648  0.1622
11261TIP3    H155274   5.871   1.465   2.128  2.4928 -0.9300  0.8563
11261TIP3    H255275   5.788   1.353   2.068 -0.9418  1.7882  0.1628
11262TIP3   OH255276   5.657   0.823   1.778 -0.6202  0.3929  0.4110
11262TIP3    H155277   5.722   0.774   1.727 -1.3590 -0.6062  0.3852
11262TIP3    H255278   5.698   0.836   1.863  0.2042  1.1325 -0.0834
11263TIP3   OH255279   3.185   2.297   3.132 -0.5253 -0.1452  0.1181
11263TIP3    H155280   3.269   2.292   3.178 -1.1253 -2.2163  1.1028
11263TIP3    H255281   3.152   2.207   3.130 -2.3209  0.4637 -1.0376
11264TIP3   OH255282   0.637   5.582   4.009 -0.3042  0.1896  0.0575
11264TIP3    H155283   0.597   5.548   4.089  1.2479 -0.9588  0.3932
11264TIP3    H255284   0.586   5.661   3.988 -0.2652  0.9830  2.6202
11265TIP3   OH255285   2.954   5.699   5.689  0.1572  0.4711 -0.2826
11265TIP3    H155286   2.963   5.794   5.693  1.2891  0.3487  0.7998
11265TIP3    H255287   3.022   5.671   5.627  0.2522  0.3335 -0.1197
11266TIP3   OH255288   2.293   1.309   3.342  0.0384  0.5320 -0.1376
11266TIP3    H155289   2.380   1.286   3.374 -0.5230  0.1299  1.1370
11266TIP3    H255290   2.286   1.266   3.257  0.7789 -0.0978  0.1198
11267TIP3   OH255291   1.921   5.062  12.691  0.0071  0.3434 -0.2544
11267TIP3    H155292   1.877   5.046  12.607  0.9150  0.8800 -0.8574
11267TIP3    H255293   2.005   5.016  12.682 -0.2598 -0.3454  0.7189
11268TIP3   OH255294   3.254   1.817  17.079 -0.1447  0.4990 -0.1377
11268TIP3    H155295   3.219   1.796  16.993 -1.0249 -0.4482  0.4273
11268TIP3    H255296   3.305   1.739  17.104  0.1193  0.7703  0.1901
11269TIP3   OH255297   2.426   5.219   1.975  0.1943  0.3792  0.3349
11269TIP3    H155298   2.440   5.192   2.065 -1.6253 -0.4832  0.4062
11269TIP3    H255299   2.471   5.303   1.968  0.8133  0.2084  1.8800
11270TIP3   OH255300   3.167   0.100   3.474  0.5566  0.5110  0.5106
11270TIP3    H155301   3.208   0.078   3.390 -0.9447  1.9882 -0.6812
11270TIP3    H255302   3.090   0.152   3.450  0.1943  1.1447  2.8260
11271TIP3   OH255303   4.380   5.668   5.800 -0.1303 -0.0903  0.3728
11271TIP3    H155304   4.307   5.709   5.754 -0.1756 -1.5822 -1.0211
11271TIP3    H255305   4.414   5.603   5.737  1.9146  0.0316  1.2578
11272TIP3   OH255306   0.238   6.165  13.720  0.3061 -0.4195 -0.6612
11272TIP3    H155307   0.279   6.245  13.754  0.6060 -0.7441 -0.2576
11272TIP3    H255308   0.171   6.143  13.784 -0.5214  0.1066 -1.3149
11273TIP3   OH255309   4.010   3.576  13.686  0.8316 -0.3019  0.2210
11273TIP3    H155310   3.929   3.611  13.648  0.4485 -1.5700 -0.1918
11273TIP3    H255311   3.980   3.520  13.758  1.3305 -0.8355  0.0193
11274TIP3   OH255312   1.344   6.450   4.474  0.3734 -0.1847 -0.8097
11274TIP3    H155313   1.415   6.465   4.536 -0.1589 -2.2252  0.3963
11274TIP3    H255314   1.355   6.359   4.446 -1.3228 -0.3095 -1.1775
11275TIP3   OH255315   1.466   2.022  11.753 -0.2736 -0.1142  0.4897
11275TIP3    H155316   1.426   1.935  11.749  0.5616 -0.5614  1.3262
11275TIP3    H255317   1.559   2.006  11.738 -0.0901  0.6187  0.7833
11276TIP3   OH255318   1.983   1.996   1.313 -0.5594  0.1244 -0.4093
11276TIP3    H155319   1.894   1.979   1.342 -0.3951  2.6947  1.9600
11276TIP3    H255320   2.038   1.953   1.378 -0.1139  1.4281  0.0915
11277TIP3   OH255321   5.947   0.234  14.193 -0.3834  0.4739  0.1416
11277TIP3    H155322   6.022   0.187  14.228 -1.8032 -2.2312 -0.1358
11277TIP3    H255323   5.960   0.231  14.098 -0.5934  0.4297  0.1141
11278TIP3   OH255324   5.508   6.315   2.215  0.0306 -0.2524  0.0331
11278TIP3    H155325   5.478   6.352   2.298  0.7961 -0.4540  0.4053
11278TIP3    H255326   5.434   6.262   2.185 -0.2210 -0.2477  0.6232
11279TIP3   OH255327   5.263   0.876   5.443 -0.7810 -0.1407  0.2569
11279TIP3    H155328   5.208   0.946   5.409  1.2942  0.7645 -1.4533
11279TIP3    H255329   5.236   0.867   5.534 -2.5575  1.4038 -0.0535
11280TIP3   OH255330   0.144   2.400   0.968 -0.3709 -1.0047 -0.2720
11280TIP3    H155331   0.166   2.369   1.056  1.2674  0.4162 -0.1330
11280TIP3    H255332   0.093   2.479   0.982  1.3815  0.2224 -0.5364
11281TIP3   OH255333   3.275   1.520   3.095  0.0034  0.5800  0.0873
11281TIP3    H155334   3.268   1.432   3.133 -0.1603  1.3610  1.9764
11281TIP3    H255335   3.362   1.551   3.120 -0.1667  1.1734 -0.0248
11282TIP3   OH255336   2.595   5.397   2.348  0.5307 -0.5573 -0.2341
11282TIP3    H155337   2.539   5.376   2.423 -1.0616 -2.3409 -1.8115
11282TIP3    H255338   2.615   5.490   2.358 -1.5456 -0.2061  1.2038
11283TIP3   OH255339   5.920   2.565  15.914  0.2197  0.1737  0.2229
11283TIP3    H155340   5.933   2.579  16.008 -1.4998  1.0313  0.3655
11283TIP3    H255341   5.948   2.647  15.873 -1.9350  0.9968  0.2999
11284TIP3   OH255342   4.752   1.237  11.697  0.2314  0.1480  0.3350
11284TIP3    H155343   4.728   1.249  11.606  0.2440 -0.7170  0.2049
11284TIP3    H255344   4.788   1.321  11.724 -1.5950  1.0407  0.1293
11285TIP3   OH255345   6.432   2.645  11.783  0.2532 -0.4099 -0.1249
11285TIP3    H155346   6.491   2.675  11.714  0.9065  0.7273  0.8775
11285TIP3    H255347   6.432   2.717  11.847 -1.2264 -0.9418  0.5057
11286TIP3   OH255348   3.592   0.425  15.005 -0.6020 -0.2131 -0.0432
11286TIP3    H155349   3.581   0.507  15.052 -1.1137 -1.0764  1.4108
11286TIP3    H255350   3.509   0.412  14.959 -0.1721  0.5337 -1.0681
11287TIP3   OH255351   4.290   1.363   4.972  0.4421  0.2310  0.6161
11287TIP3    H155352   4.266   1.319   5.054 -0.1291 -0.2178  0.2122
11287TIP3    H255353   4.385   1.355   4.968  0.3183 -1.5172  0.2720
11288TIP3   OH255354   3.364   3.509  17.022 -0.5966  0.3128  0.2127
11288TIP3    H155355   3.459   3.505  17.031 -0.7393 -2.1639  1.4564
11288TIP3    H255356   3.336   3.417  17.017 -2.8391  0.9843 -1.4607
11289TIP3   OH255357   5.108   1.524   2.476  0.1475 -0.5493 -0.2830
11289TIP3    H155358   5.064   1.445   2.444 -0.7326  0.4196 -1.5710
11289TIP3    H255359   5.039   1.573   2.521 -0.0032  0.7250 -1.8374
11290TIP3   OH255360   1.251   5.029   1.912  0.4964 -0.5433 -0.7290
11290TIP3    H155361   1.174   5.070   1.872  1.0625  3.0256  1.4678
11290TIP3    H255362   1.319   5.035   1.846  0.2334  1.0750 -0.8750
11291TIP3   OH255363   5.675   4.210  11.100 -0.0393 -0.4682 -0.0995
11291TIP3    H155364   5.696   4.303  11.090 -0.5398 -0.4396 -1.0325
11291TIP3    H255365   5.757   4.170  11.130  0.4054  0.1449 -0.4728
11292TIP3   OH255366   5.473   3.815  12.161 -0.9262 -0.2024 -0.3861
11292TIP3    H155367   5.436   3.767  12.087 -0.5445  0.4078 -0.9902
11292TIP3    H255368   5.411   3.887  12.176 -0.5927  0.1389 -0.6361
11293TIP3   OH255369   0.482   1.962   5.221  0.0265 -0.1413 -0.4560
11293TIP3    H155370   0.534   1.983   5.298 -0.0314  1.2517 -0.7662
11293TIP3    H255371   0.538   1.904   5.169  0.7385  0.2636 -0.1582
11294TIP3   OH255372   3.250   0.324  12.990  0.2701  0.1605 -0.4940
11294TIP3    H155373   3.254   0.231  12.969 -1.0125  0.2606 -1.3129
11294TIP3    H255374   3.184   0.330  13.059  1.8324  0.2603  1.0578
11295TIP3   OH255375   5.067   6.562  17.294  0.4264  0.4152  0.0615
11295TIP3    H155376   4.990   6.520  17.330  0.7466 -0.6800 -0.4752
11295TIP3    H255377   5.124   6.490  17.267  1.3957  1.1932 -0.0650
11296TIP3   OH255378   5.084   3.736   1.877  0.2922  0.0082 -0.5962
11296TIP3    H155379   5.042   3.664   1.829 -1.2343  0.9777 -0.7570
11296TIP3    H255380   5.014   3.777   1.926  1.5018  0.2273  1.0140
11297TIP3   OH255381   2.522   1.254   5.229 -0.2827  0.3731  0.0356
11297TIP3    H155382   2.450   1.191   5.234 -0.7565  0.9334  0.4148
11297TIP3    H255383   2.481   1.335   5.201 -0.4541  1.6418  3.4576
11298TIP3   OH255384   1.839   1.506  16.739 -0.3291 -0.4099  0.4910
11298TIP3    H155385   1.793   1.427  16.767 -0.9575 -0.0144  0.5929
11298TIP3    H255386   1.932   1.485  16.752 -0.4073 -1.5657 -0.6366
11299TIP3   OH255387   3.623   5.465  13.104 -0.6442  0.1428 -0.4313
11299TIP3    H155388   3.569   5.443  13.180 -0.6836 -0.5831 -0.6607
11299TIP3    H255389   3.661   5.381  13.077 -0.2202  0.4814 -0.9009
11300TIP3   OH255390   0.078   5.901   4.252  0.6031 -0.0990 -0.2358
11300TIP3    H155391  -0.006   5.913   4.206  1.3404  2.0308 -1.1599
11300TIP3    H255392   0.054   5.892   4.344 -0.6870 -0.6411 -0.5990
11301TIP3   OH255393   1.619   0.601  14.470  0.2982 -0.3342 -0.1298
11301TIP3    H155394   1.530   0.573  14.450  0.0997 -0.0828  0.3871
11301TIP3    H255395   1.608   0.684  14.516  0.8288  0.0285 -0.6374
11302TIP3   OH255396   3.877   1.933   4.434 -0.0676  0.0447  0.1657
11302TIP3    H155397   3.820   1.967   4.365  1.2991  2.9285  0.3182
11302TIP3    H255398   3.914   1.853   4.397  0.0014  1.0699 -2.1530
11303TIP3   OH255399   5.774   5.104   1.919  0.0202  0.3670 -0.7491
11303TIP3    H155400   5.787   5.114   1.824 -0.5044 -1.6513 -1.0685
11303TIP3    H255401   5.734   5.018   1.929  3.4435 -1.1813  1.5911
11304TIP3   OH255402   4.095   3.274   5.434  0.3613 -0.0709 -0.3255
11304TIP3    H155403   4.122   3.215   5.363  0.2449 -2.1493  1.2780
11304TIP3    H255404   4.024   3.326   5.396 -0.0621 -1.5046 -1.6014
11305TIP3   OH255405   1.110   4.502  14.309 -0.3161 -0.6384  0.6211
11305TIP3    H155406   1.031   4.527  14.357 -1.3445  0.9426 -1.6990
11305TIP3    H255407   1.139   4.583  14.266  1.7301 -1.5108  0.2308
11306TIP3   OH255408   1.471   0.499  10.661 -0.2944  0.3231 -0.3631
11306TIP3    H155409   1.522   0.422  10.687 -0.2351  0.5903  0.3470
11306TIP3    H255410   1.384   0.465  10.641 -0.2450  0.0562 -0.1349
11307TIP3   OH255411   0.317   1.059   2.066 -0.8554 -0.0056 -0.4675
11307TIP3    H155412   0.363   1.119   2.007 -0.1738  0.1773  0.2321
11307TIP3    H255413   0.243   1.110   2.099  0.0002  0.6351  0.5065
11308TIP3   OH255414   3.787   2.356   6.840  0.0084 -0.0183  0.1832
11308TIP3    H155415   3.824   2.272   6.867 -1.4347 -0.9432 -0.6048
11308TIP3    H255416   3.699   2.357   6.878 -0.2858  0.7800 -0.4883
11309TIP3   OH255417   4.437   4.311  16.753 -0.1914 -0.6943  0.3520
11309TIP3    H155418   4.490   4.270  16.685  2.7538  0.5901  1.7026
11309TIP3    H255419   4.430   4.243  16.821 -1.4363 -1.2902 -0.3348
11310TIP3   OH255420   5.990   1.438  14.012  0.3021  0.3669  0.3744
11310TIP3    H155421   5.989   1.461  14.105 -0.3246 -0.8980  0.6929
11310TIP3    H255422   6.083   1.430  13.990  0.4508  0.7252  0.8710
11311TIP3   OH255423   1.912   1.888   3.038  0.3291 -0.5327  0.0802
11311TIP3    H155424   1.828   1.863   3.076  0.1386  2.4841  1.9377
11311TIP3    H255425   1.890   1.927   2.953 -0.0477 -0.5050  0.1926
11312TIP3   OH255426   2.909   1.542  15.942 -0.2816  0.2710  0.4564
11312TIP3    H155427   2.909   1.637  15.954  0.7286  0.3135  0.2291
11312TIP3    H255428   2.880   1.529  15.852 -0.6163  0.3560  0.5527
11313TIP3   OH255429   3.101   1.150   4.022 -0.2214 -0.6359 -0.1720
11313TIP3    H155430   3.171   1.102   4.066  1.1596  0.5814 -0.9482
11313TIP3    H255431   3.141   1.233   3.996 -1.8898  0.0012 -0.8709
11314TIP3   OH255432   3.850   3.095   5.778  0.4514  0.3343  0.3371
11314TIP3    H155433   3.805   3.138   5.705  0.9271  1.7028  0.8189
11314TIP3    H255434   3.942   3.094   5.753  0.5422  0.2719  0.6693
11315TIP3   OH255435   0.468   6.623   1.065  0.4543 -0.5698  0.1905
11315TIP3    H155436   0.516   6.550   1.104 -0.2615 -0.9403  0.3792
11315TIP3    H255437   0.530   6.696   1.069  0.5106 -0.6617  1.7618
11316TIP3   OH255438   5.797   2.687  14.686  0.8093 -0.6658  0.0295
11316TIP3    H155439   5.723   2.739  14.657  0.3667 -1.0527  0.4558
11316TIP3    H255440   5.832   2.648  14.606  1.5373  0.7590 -0.3925
11317TIP3   OH255441   6.209   2.197   3.465  0.1248  0.1880  0.6251
11317TIP3    H155442   6.116   2.182   3.451  0.0519 -0.2547  1.4840
11317TIP3    H255443   6.243   2.111   3.492  0.1907  0.9589  3.2243
11318TIP3   OH255444   5.649   5.775   0.666 -0.1588  0.8661  0.3600
11318TIP3    H155445   5.685   5.845   0.612 -1.5003  2.6981  1.6844
11318TIP3    H255446   5.720   5.753   0.726  0.0533  1.6524  0.4135
11319TIP3   OH255447   1.375   6.497  16.166  0.5896 -0.0888 -0.0717
11319TIP3    H155448   1.387   6.524  16.075 -1.4775  0.6604 -0.1875
11319TIP3    H255449   1.353   6.578  16.212  0.9239 -0.5732  0.9611
11320TIP3   OH255450   4.417   2.152  12.305 -0.0927 -0.0700  0.5150
11320TIP3    H155451   4.442   2.240  12.278 -0.9522 -0.3771 -1.4937
11320TIP3    H255452   4.490   2.097  12.275 -0.3049 -0.2266  0.2860
11321TIP3   OH255453   1.557   4.568   4.724 -0.5214  0.2351 -0.0318
11321TIP3    H155454   1.513   4.619   4.656 -1.4634  0.4254  0.6891
11321TIP3    H255455   1.570   4.631   4.795 -0.6393 -0.2453  0.4194
11322TIP3   OH255456   3.054   0.919   3.810 -0.4834 -0.1017  0.3302
11322TIP3    H155457   3.079   0.871   3.889 -0.6413 -0.1741  0.3377
11322TIP3    H255458   3.129   0.975   3.791 -1.0226  1.0298  1.3885
11323TIP3   OH255459   6.605   1.110   4.369 -0.0278  0.5226  0.4862
11323TIP3    H155460   6.624   1.060   4.448 -2.7249 -0.9288  0.3421
11323TIP3    H255461   6.563   1.047   4.310  0.9028  1.8148 -1.7244
11324TIP3   OH255462   5.719   2.442   0.603  0.1339 -0.2556  0.2662
11324TIP3    H155463   5.634   2.407   0.575  0.0930  0.0109  0.0512
11324TIP3    H255464   5.753   2.376   0.663 -0.5715 -0.0113  0.9580
11325TIP3   OH255465   2.000   3.802  12.473  0.7684 -0.3064 -0.1788
11325TIP3    H155466   2.009   3.762  12.386 -0.3465  0.4674 -0.6868
11325TIP3    H255467   1.917   3.850  12.468  0.7033 -0.2356  1.3223
11326TIP3   OH255468   1.042   1.838   3.382  0.3559  0.0453  0.2587
11326TIP3    H155469   1.067   1.877   3.466  1.4352  0.8070 -0.4020
11326TIP3    H255470   1.052   1.908   3.318 -0.9543 -0.3740 -0.4582
11327TIP3   OH255471   6.668   0.120  15.348  0.3583  0.7500  0.2646
11327TIP3    H155472   6.714   0.049  15.303  1.7802  1.1787  0.9591
11327TIP3    H255473   6.576   0.096  15.344  0.9147 -2.4856  2.6188
11328TIP3   OH255474   4.747   2.234   2.875 -0.4613  0.3837 -0.6439
11328TIP3    H155475   4.753   2.254   2.968 -0.8082 -1.8345 -0.0919
11328TIP3    H255476   4.732   2.319   2.833  1.1266  1.6275  1.1403
11329TIP3   OH255477   2.453   3.268   0.454  0.4718  0.1252  0.2441
11329TIP3    H155478   2.496   3.227   0.379  0.2936  0.0418  0.1871
11329TIP3    H255479   2.467   3.362   0.442  1.9458  0.0386  1.0141
11330TIP3   OH255480   0.984   4.810   0.053 -0.0694  0.2897  0.6809
11330TIP3    H155481   0.983   4.847   0.141 -0.1838 -0.6034  1.0676
11330TIP3    H255482   0.979   4.715   0.067 -1.9592  0.2049 -0.3398
11331TIP3   OH255483   4.886   2.021   3.932  0.2018  0.3709 -0.1352
11331TIP3    H155484   4.915   1.931   3.924  2.3607  1.1212 -1.7319
11331TIP3    H255485   4.947   2.061   3.994 -1.6794  0.4395  1.7922
11332TIP3   OH255486   0.392   0.499  16.452  0.0925  0.4931  0.2360
11332TIP3    H155487   0.433   0.551  16.521  0.9314 -0.1917  0.2695
11332TIP3    H255488   0.306   0.475  16.486  0.5774 -0.0037  1.1212
11333TIP3   OH255489   5.107   3.086   2.365  0.3609  0.3207  0.1969
11333TIP3    H155490   5.120   3.174   2.331  1.2071 -0.0853 -0.5836
11333TIP3    H255491   5.072   3.099   2.453 -1.0527  1.4101 -0.4874
11334TIP3   OH255492   1.039   0.836   4.859  0.1126 -0.3441 -0.3448
11334TIP3    H155493   1.103   0.896   4.897 -1.2756  1.0250 -0.0636
11334TIP3    H255494   1.030   0.766   4.925 -2.5407  2.1723  2.2707
11335TIP3   OH255495   3.017   4.606  13.326  0.4840 -0.1493  0.1809
11335TIP3    H155496   2.948   4.626  13.263  0.6750  1.0553  0.3461
11335TIP3    H255497   3.006   4.512  13.344 -0.9954 -0.0122  0.0886
11336TIP3   OH255498   6.578   6.288   6.730  0.1916 -0.1890 -0.8172
11336TIP3    H155499   6.549   6.308   6.640  2.4231  0.1881 -1.5144
11336TIP3    H255500   6.625   6.205   6.721 -1.7339 -1.4947  0.5228
11337TIP3   OH255501   5.988   0.242  13.590  0.1480 -0.5764 -0.0055
11337TIP3    H155502   6.029   0.282  13.514  0.9998 -1.6354 -0.1262
11337TIP3    H255503   5.906   0.290  13.601  1.2227  1.3320  0.0198
11338TIP3   OH255504   3.991   3.439  11.997  0.2085 -0.3510  0.0566
11338TIP3    H155505   3.915   3.483  11.959  1.3501  0.7627 -1.0062
11338TIP3    H255506   3.953   3.379  12.061 -1.6028 -0.1985 -0.7919
11339TIP3   OH255507   6.050   0.846  14.746  0.5336 -0.0330 -0.2238
11339TIP3    H155508   5.972   0.895  14.719  0.7219 -0.8317 -2.3849
11339TIP3    H255509   6.121   0.881  14.692  1.2376 -0.8038  0.1773
11340TIP3   OH255510   2.201   4.967  15.533  0.1610  0.1898  0.6643
11340TIP3    H155511   2.144   4.897  15.564 -0.1018 -0.0460 -0.3462
11340TIP3    H255512   2.146   5.046  15.536 -0.8959 -0.3528 -2.1767
11341TIP3   OH255513   4.375   0.028   0.753  0.7111 -0.4768 -0.0283
11341TIP3    H155514   4.351   0.104   0.807 -0.3073 -0.0638 -1.0174
11341TIP3    H255515   4.359  -0.048   0.810 -1.1101 -0.1031  0.0252
11342TIP3   OH255516   1.598   5.827   6.096  1.0937 -0.0009 -0.6058
11342TIP3    H155517   1.524   5.794   6.147 -0.6770 -0.3419 -3.1852
11342TIP3    H255518   1.651   5.750   6.078  0.5422 -0.2848 -1.0624
11343TIP3   OH255519   3.406   2.562   6.146 -0.0094  0.0775  0.0629
11343TIP3    H155520   3.342   2.620   6.106  0.8079  1.0938  0.1881
11343TIP3    H255521   3.354   2.501   6.199 -0.8548  0.9847  0.3044
11344TIP3   OH255522   1.860   3.353  15.995 -0.0995 -0.2624 -0.2311
11344TIP3    H155523   1.865   3.364  16.090 -0.3295 -0.4060 -0.1997
11344TIP3    H255524   1.919   3.280  15.976  0.2650  0.0340 -0.2509
11345TIP3   OH255525   5.458   6.166   3.593  0.2303  0.0011 -0.0337
11345TIP3    H155526   5.394   6.233   3.617 -0.0985 -0.3505  0.0717
11345TIP3    H255527   5.541   6.201   3.625 -0.0680 -0.0493  0.8314
11346TIP3   OH255528   5.589   3.039  16.413  0.1409  0.0171  0.2732
11346TIP3    H155529   5.638   2.973  16.462 -0.7301 -1.4561 -0.7287
11346TIP3    H255530   5.508   3.051  16.462 -0.0498 -0.2743  0.0323
11347TIP3   OH255531   5.709   4.028   1.428  0.4535 -0.6065 -0.3336
11347TIP3    H155532   5.666   3.997   1.507  1.0692 -0.4928  0.0565
11347TIP3    H255533   5.757   3.952   1.395 -2.2709 -1.5947 -2.3828
11348TIP3   OH255534   0.634   0.481  11.422  0.3744 -0.0084 -0.3810
11348TIP3    H155535   0.637   0.401  11.370  0.6866 -1.3506  1.5915
11348TIP3    H255536   0.540   0.496  11.436  0.3394 -1.4787  1.2786
11349TIP3   OH255537   6.189   2.199   5.463 -0.2970 -0.1271 -0.4972
11349TIP3    H155538   6.193   2.212   5.368  0.7975 -0.8824 -0.5712
11349TIP3    H255539   6.117   2.255   5.492 -0.9794 -0.2734 -1.8392
11350TIP3   OH255540   5.846   0.868   3.329 -0.1658 -0.6082  0.1453
11350TIP3    H155541   5.829   0.783   3.369 -2.6524 -0.1595  0.1879
11350TIP3    H255542   5.854   0.928   3.403 -0.4725 -0.4770  0.0733
11351TIP3   OH255543   2.219   2.630  14.331 -0.7947 -0.1653 -0.3745
11351TIP3    H155544   2.301   2.598  14.368 -0.6679  1.1746  0.5746
11351TIP3    H255545   2.156   2.558  14.343 -0.2846 -0.4224  0.7812
11352TIP3   OH255546   1.807   5.505   4.979 -0.4756 -0.6504 -0.0898
11352TIP3    H155547   1.825   5.566   5.051 -1.5836  0.3738 -0.6271
11352TIP3    H255548   1.893   5.481   4.945  0.0007  0.2996  0.4032
11353TIP3   OH255549   4.493   1.739  17.399 -0.1439  0.1284  0.1563
11353TIP3    H155550   4.473   1.809  17.337 -1.0402  1.0238  1.4015
11353TIP3    H255551   4.487   1.658  17.347 -0.0570  0.9013 -1.0845
11354TIP3   OH255552   4.351   1.032  11.467  0.0236  0.4255 -0.0824
11354TIP3    H155553   4.276   1.043  11.408 -1.0561  0.9482  1.3233
11354TIP3    H255554   4.323   1.073  11.549  1.8218  0.5175  0.5264
11355TIP3   OH255555   2.671   5.900   1.512 -0.1985 -0.1470 -0.3752
11355TIP3    H155556   2.766   5.916   1.519 -0.1000 -0.6539 -0.5171
11355TIP3    H255557   2.658   5.818   1.559 -0.8137  0.7168  1.0404
11356TIP3   OH255558   0.983   1.853   2.639 -0.2055 -0.2135 -0.2647
11356TIP3    H155559   0.949   1.778   2.589 -0.7801  1.2158 -2.1269
11356TIP3    H255560   0.952   1.838   2.728  0.3179 -2.5478 -0.3956
11357TIP3   OH255561   6.676   5.529  14.323  0.5104 -0.4452  0.1333
11357TIP3    H155562   6.668   5.434  14.325  0.2577 -0.4222  0.2050
11357TIP3    H255563   6.586   5.561  14.314  0.5912 -0.2129  0.1360
11358TIP3   OH255564   0.503   1.766   3.747 -0.2032 -0.4274  0.0698
11358TIP3    H155565   0.496   1.710   3.824 -0.9984  0.5014  0.7050
11358TIP3    H255566   0.427   1.824   3.752 -0.1436 -0.1802 -1.2907
11359TIP3   OH255567   3.123   4.428  13.093 -0.1573 -0.0414  0.5949
11359TIP3    H155568   3.095   4.493  13.157 -0.0830  0.9609 -0.3653
11359TIP3    H255569   3.196   4.469  13.047  0.0003 -0.8691  0.0883
11360TIP3   OH255570   5.708   5.501   1.787  0.3156  0.1265  0.1407
11360TIP3    H155571   5.770   5.447   1.836  0.8779  0.1451 -0.5284
11360TIP3    H255572   5.756   5.527   1.708  0.3641  2.3361  0.8370
11361TIP3   OH255573   0.994   3.057   5.576  0.2058 -0.5390 -0.3676
11361TIP3    H155574   0.967   2.966   5.588  0.6438 -0.6713 -0.3735
11361TIP3    H255575   1.051   3.075   5.650 -1.3420  0.3162  0.6682
11362TIP3   OH255576   3.480   4.872  11.123 -0.2331 -0.3901 -0.2227
11362TIP3    H155577   3.420   4.941  11.094  0.7902  0.4369 -0.4223
11362TIP3    H255578   3.461   4.862  11.216  0.3597  0.9803  0.0753
11363TIP3   OH255579   0.632   6.574  12.333  0.6847 -0.2438  0.3551
11363TIP3    H155580   0.675   6.498  12.373 -1.0993 -0.7981  1.3222
11363TIP3    H255581   0.603   6.541  12.247  1.8861  0.0527 -0.1868
11364TIP3   OH255582   5.964   5.720   0.682 -0.3922 -1.1252  0.4302
11364TIP3    H155583   5.906   5.737   0.756 -1.8644 -2.3052 -0.3924
11364TIP3    H255584   5.914   5.661   0.626  0.2919  0.4893 -1.9928
11365TIP3   OH255585   5.227   6.610  10.496 -0.2537 -0.2580 -0.5776
11365TIP3    H155586   5.229   6.648  10.408  0.5739 -1.9260 -1.3173
11365TIP3    H255587   5.140   6.570  10.503 -0.0222 -0.8442 -0.9726
11366TIP3   OH255588   1.038   0.379   5.653 -0.6467  0.0439 -0.2044
11366TIP3    H155589   1.069   0.456   5.700 -0.1100 -0.7301  0.7641
11366TIP3    H255590   0.957   0.354   5.698 -1.1813  0.4245 -0.9417
11367TIP3   OH255591   0.185   2.214  11.376 -0.2978 -0.2920 -0.7444
11367TIP3    H155592   0.154   2.134  11.419  0.5903  1.4087  3.6255
11367TIP3    H255593   0.107   2.269  11.370 -0.0977  0.1767  0.6335
11368TIP3   OH255594   0.367   0.812   1.097 -0.4636 -0.9097  0.3565
11368TIP3    H155595   0.461   0.804   1.083 -0.3258 -3.1495  2.0174
11368TIP3    H255596   0.356   0.899   1.134  1.0911 -0.9254  0.9440
11369TIP3   OH255597   3.046   1.139  14.290 -0.8695  0.2925  0.5830
11369TIP3    H155598   3.023   1.213  14.234 -0.5983 -0.0373  0.0211
11369TIP3    H255599   3.022   1.062  14.238  0.5384 -0.0422  0.3889
11370TIP3   OH255600   1.818   5.657  15.728 -0.6031  0.2264  0.5843
11370TIP3    H155601   1.819   5.743  15.770 -1.6285  0.5808 -0.0762
11370TIP3    H255602   1.756   5.666  15.655  0.5342 -0.5905 -0.5286
11371TIP3   OH255603   6.481   2.034  17.258  0.3186 -0.1487 -0.0132
11371TIP3    H155604   6.501   2.123  17.227  2.6822 -0.2861  0.8908
11371TIP3    H255605   6.560   1.984  17.239 -0.4101 -1.6787  0.8488
11372TIP3   OH255606   5.138   4.884   2.887 -0.0176  0.4893  0.0410
11372TIP3    H155607   5.144   4.805   2.940 -0.0175  0.4473 -0.0216
11372TIP3    H255608   5.229   4.903   2.861 -0.2529 -0.9625 -2.1054
11373TIP3   OH255609   1.617   4.997   2.547  0.5363  0.3937  0.3865
11373TIP3    H155610   1.532   5.002   2.504  0.3149 -1.2279  0.5467
11373TIP3    H255611   1.597   4.996   2.641  0.9630  3.1036  0.5674
11374TIP3   OH255612   1.379   3.652  17.093 -0.1850  0.3166 -0.3295
11374TIP3    H155613   1.355   3.707  17.019 -2.1812  1.8306  1.3225
11374TIP3    H255614   1.475   3.644  17.087 -0.1397  1.6474 -2.1660
11375TIP3   OH255615   0.380   2.369  11.234  0.5005 -1.0764  0.7140
11375TIP3    H155616   0.448   2.313  11.272  1.0730 -0.7863  0.1321
11375TIP3    H255617   0.298   2.328  11.261  0.9032 -2.2054  0.3080
11376TIP3   OH255618   4.825   4.939   0.959  0.2575 -0.4212 -0.1526
11376TIP3    H155619   4.822   4.853   0.917  0.1693 -0.7769  0.5545
11376TIP3    H255620   4.910   4.942   1.002 -0.2612 -0.7248  0.9532
11377TIP3   OH255621   2.081   1.066  15.803  0.2873  0.0337  0.2647
11377TIP3    H155622   2.082   1.008  15.727  1.8813  0.6870 -0.2415
11377TIP3    H255623   2.163   1.114  15.798  0.0257  0.7137  1.9371
11378TIP3   OH255624   4.088   2.496  15.241 -0.3198 -0.3379  0.8643
11378TIP3    H155625   4.017   2.531  15.295  0.4207  1.2747  0.8432
11378TIP3    H255626   4.143   2.572  15.221  1.0605 -1.4360  0.3334
11379TIP3   OH255627   5.881   2.138   1.670  0.2223 -0.0398  0.1972
11379TIP3    H155628   5.869   2.165   1.761  0.6963  0.4674  0.1166
11379TIP3    H255629   5.976   2.141   1.657  0.0664  1.9447 -0.9043
11380TIP3   OH255630   1.326   1.878  12.870 -0.3460  0.4913  0.6082
11380TIP3    H155631   1.264   1.936  12.912 -1.2013 -0.1077  0.1914
11380TIP3    H255632   1.277   1.835  12.800  0.9972  1.3600 -0.9421
11381TIP3   OH255633   6.361   1.944  17.005 -0.7496 -0.5173  0.0715
11381TIP3    H155634   6.367   1.951  17.101 -0.7285 -1.8680  0.1858
11381TIP3    H255635   6.399   1.859  16.985 -0.7932 -0.2667 -1.1518
11382TIP3   OH255636   4.580   0.051  14.575  0.5652  0.0263 -0.5873
11382TIP3    H155637   4.577   0.058  14.480 -0.7993  1.4848 -0.4723
11382TIP3    H255638   4.488   0.059  14.602  1.0848  1.1167  0.9419
11383TIP3   OH255639   6.355   2.870  13.740 -0.4923  0.0410  0.1828
11383TIP3    H155640   6.306   2.845  13.818  1.1052 -1.9538  0.6141
11383TIP3    H255641   6.320   2.814  13.670 -2.4215  2.3084 -0.8219
11384TIP3   OH255642   1.871   0.112  13.197 -0.1879  0.6021  0.6687
11384TIP3    H155643   1.786   0.126  13.239  0.5998  0.2038  2.5128
11384TIP3    H255644   1.879   0.016  13.191  1.6993  0.3985  4.1536
11385TIP3   OH255645   4.980   6.494  10.546  0.2206 -0.0515  0.2243
11385TIP3    H155646   5.012   6.409  10.575  0.0990 -0.0284  0.4226
11385TIP3    H255647   4.912   6.518  10.609 -0.9746 -0.6031 -0.7972
11386TIP3   OH255648   2.718   5.774   1.151 -0.5525 -0.3432 -0.1554
11386TIP3    H155649   2.658   5.720   1.203  0.0562 -1.1985 -0.3177
11386TIP3    H255650   2.805   5.745   1.178 -0.2219 -0.3097 -1.1414
11387TIP3   OH255651   2.579   0.074  15.090  0.5740 -0.1415  0.7163
11387TIP3    H155652   2.521   0.008  15.128 -1.1727  1.0706  0.3007
11387TIP3    H255653   2.520   0.139  15.052  2.2279  0.4263 -1.0698
11388TIP3   OH255654   0.209   4.214   1.525  0.0039 -0.0938  0.1678
11388TIP3    H155655   0.174   4.302   1.509 -0.4088 -0.1484  0.7314
11388TIP3    H255656   0.280   4.205   1.462 -2.2706 -0.7678 -2.5269
11389TIP3   OH255657   2.025   1.333   1.847 -0.2604  0.1616  0.3399
11389TIP3    H155658   2.020   1.415   1.895  0.3528  1.8148 -2.1940
11389TIP3    H255659   2.103   1.342   1.792 -1.3950 -1.1378 -1.6205
11390TIP3   OH255660   3.059   6.050  11.265 -0.1133  0.0285 -0.3536
11390TIP3    H155661   3.070   6.003  11.183 -1.6064 -0.2552 -0.4258
11390TIP3    H255662   2.994   6.117  11.245  0.3623  0.7058  0.3156
11391TIP3   OH255663   4.423   3.341   4.512  0.5027  0.1967 -0.4155
11391TIP3    H155664   4.412   3.288   4.591 -0.4631  0.8060 -0.1252
11391TIP3    H255665   4.382   3.289   4.442  1.2542 -0.2888 -0.5113
11392TIP3   OH255666   6.722   0.202   5.770  0.0350  0.3701 -0.4201
11392TIP3    H155667   6.628   0.191   5.756  0.4869 -3.5377 -1.7223
11392TIP3    H255668   6.729   0.266   5.841 -3.4426  2.5157 -1.8004
11393TIP3   OH255669   3.680   6.500   1.176  0.2448 -0.7724 -0.0112
11393TIP3    H155670   3.600   6.468   1.135 -0.6190  0.5191  0.6161
11393TIP3    H255671   3.747   6.489   1.108 -0.9865  0.5443 -1.5152
11394TIP3   OH255672   0.182   6.035   1.485  0.0661  0.0861  0.4750
11394TIP3    H155673   0.259   6.052   1.430 -1.8773  1.7668 -1.9576
11394TIP3    H255674   0.173   6.115   1.537 -1.6250  1.2536 -1.4491
11395TIP3   OH255675   0.517   4.798   2.175  0.1188  0.1348  0.6036
11395TIP3    H155676   0.525   4.726   2.113  2.3695  0.8538 -0.0327
11395TIP3    H255677   0.456   4.859   2.134 -0.2314 -0.4638  0.2161
11396TIP3   OH255678   5.575   0.568   3.397 -0.1315 -0.1382  0.2220
11396TIP3    H155679   5.531   0.494   3.355  0.4631 -0.9473  0.9982
11396TIP3    H255680   5.557   0.642   3.339 -0.8643 -0.8522 -0.4922
11397TIP3   OH255681   2.792   5.966   0.411 -0.2300 -0.3914  0.3476
11397TIP3    H155682   2.860   5.899   0.410 -0.3000 -0.4611  0.2179
11397TIP3    H255683   2.727   5.934   0.474  0.0203 -0.1618  0.7228
11398TIP3   OH255684   2.248   1.662  11.981  0.0487  0.4698 -0.4069
11398TIP3    H155685   2.337   1.625  11.977  0.0335  0.4606 -0.6241
11398TIP3    H255686   2.240   1.715  11.902  0.1969  1.2334  0.0769
11399TIP3   OH255687   3.535   4.557  15.581  0.4085  0.0297  0.0813
11399TIP3    H155688   3.631   4.555  15.578  0.4358  1.1386 -0.4669
11399TIP3    H255689   3.513   4.649  15.596 -0.5771 -0.1151 -0.3664
11400TIP3   OH255690   1.712   2.755  13.772  0.0296 -0.4309  0.0382
11400TIP3    H155691   1.742   2.820  13.707  0.7655 -0.2803  0.5172
11400TIP3    H255692   1.616   2.758  13.766  0.0612  0.4967 -0.1432
11401TIP3   OH255693   0.973   3.355  15.699  0.0885 -0.2443 -0.5321
11401TIP3    H155694   0.918   3.370  15.776 -2.1817 -2.2469 -1.6306
11401TIP3    H255695   0.952   3.266  15.671  1.0854  0.2653 -3.2297
11402TIP3   OH255696   5.419   3.221   5.279  0.4727  0.8447  0.0530
11402TIP3    H155697   5.386   3.208   5.368 -2.0094  0.0682 -0.8950
11402TIP3    H255698   5.487   3.154   5.269  0.7580  0.9137  1.3160
11403TIP3   OH255699   5.181   4.539  13.410 -0.7320  0.0684  0.3287
11403TIP3    H155700   5.207   4.624  13.447  0.0368  0.8610 -1.8449
11403TIP3    H255701   5.200   4.476  13.479 -0.9413  1.6212  1.8578
11404TIP3   OH255702   6.181   1.381   2.794 -0.4570 -0.0890  0.0033
11404TIP3    H155703   6.253   1.445   2.790 -0.8972  0.3782 -0.7843
11404TIP3    H255704   6.107   1.427   2.754 -1.8359  0.2411  2.6822
11405TIP3   OH255705   4.563   5.130  16.540  0.0702  0.5981 -0.2425
11405TIP3    H155706   4.581   5.134  16.634  0.7770 -0.6971 -0.2933
11405TIP3    H255707   4.524   5.043  16.527  0.9853  0.3216 -1.2815
11406TIP3   OH255708   5.917   3.200   6.098 -0.0752  0.1628 -0.5542
11406TIP3    H155709   5.931   3.114   6.139  1.7083  0.5382 -0.3188
11406TIP3    H255710   5.963   3.262   6.154 -0.2422  1.1171 -1.4425
11407TIP3   OH255711   1.518   3.520   0.828 -0.2092  0.4220 -1.0348
11407TIP3    H155712   1.545   3.481   0.745  1.6284 -0.5173 -0.0773
11407TIP3    H255713   1.562   3.605   0.830  1.2755 -0.3082 -0.3090
11408TIP3   OH255714   2.882   3.986   6.599 -0.3838 -0.5497 -0.3063
11408TIP3    H155715   2.967   4.025   6.616 -1.1799  0.2107  2.2285
11408TIP3    H255716   2.838   4.048   6.541 -0.3084  0.5682  0.8070
11409TIP3   OH255717   3.296   6.096   5.687 -0.1470 -0.5269  0.1953
11409TIP3    H155718   3.329   6.185   5.679 -1.0999 -0.2267 -0.6457
11409TIP3    H255719   3.313   6.055   5.602  1.1107 -1.4683  0.8592
11410TIP3   OH255720   6.328   0.254  11.356 -0.0027  0.1018  0.5076
11410TIP3    H155721   6.362   0.277  11.442 -2.1317 -0.3011  1.5287
11410TIP3    H255722   6.251   0.201  11.374 -0.1500 -0.5376 -1.6746
11411TIP3   OH255723   6.047   1.387  17.322 -0.0916  0.6434  0.3839
11411TIP3    H155724   5.966   1.376  17.371 -0.5742 -1.0517 -0.7149
11411TIP3    H255725   6.051   1.311  17.264  0.9098  2.0917 -1.5686
11412TIP3   OH255726   3.079   5.386  11.465  0.5133 -0.1671  0.5754
11412TIP3    H155727   2.988   5.408  11.443  0.6665  0.7923  0.8551
11412TIP3    H255728   3.104   5.321  11.399 -0.4831 -0.7169  0.7097
11413TIP3   OH255729   5.496   5.974  14.727 -0.1027  0.6359  0.1599
11413TIP3    H155730   5.535   5.927  14.800  2.1929  1.0030 -0.7630
11413TIP3    H255731   5.539   5.939  14.649 -1.5967  1.1245 -0.9364
11414TIP3   OH255732   2.046   6.345  13.389 -0.1024  0.0541  0.1946
11414TIP3    H155733   1.964   6.317  13.348 -0.0940  0.4856 -0.1246
11414TIP3    H255734   2.104   6.363  13.316  0.6873 -1.4014  0.4250
11415TIP3   OH255735   6.311   0.250  14.491 -0.0459  0.0559  0.0916
11415TIP3    H155736   6.392   0.293  14.465 -1.0707  0.8479 -1.9582
11415TIP3    H255737   6.277   0.210  14.411 -0.3093 -2.7190  1.4328
11416TIP3   OH255738   6.640   4.192  12.283 -0.2336 -0.2959  0.1665
11416TIP3    H155739   6.736   4.185  12.276  0.0397  0.9336  1.8341
11416TIP3    H255740   6.618   4.273  12.238 -0.6340 -1.0364 -1.0055
11417TIP3   OH255741   5.681   4.695   0.477  0.4617  0.3096 -0.1821
11417TIP3    H155742   5.591   4.686   0.446 -0.3249 -0.2121  2.0590
11417TIP3    H255743   5.674   4.686   0.572  2.8921  0.2804  0.0407
11418TIP3   OH255744   6.549   5.975  12.158 -0.0826  0.5880  0.1767
11418TIP3    H155745   6.497   5.900  12.127  1.1746 -0.7959  1.2621
11418TIP3    H255746   6.595   6.006  12.080 -0.0889 -0.2252 -0.1630
11419TIP3   OH255747   3.325   1.704  17.449 -0.4235  0.4421  0.4428
11419TIP3    H155748   3.271   1.719  17.526 -1.2094  1.9767 -0.3769
11419TIP3    H255749   3.306   1.777  17.391  0.9904 -0.0855 -0.7527
11420TIP3   OH255750   4.155   5.759  11.683 -0.2138  0.5442 -0.0378
11420TIP3    H155751   4.064   5.770  11.711 -0.5034  1.1194 -1.1558
11420TIP3    H255752   4.186   5.848  11.666 -0.1344  0.2276 -1.7210
11421TIP3   OH255753   6.245   6.016   1.488  0.3478 -0.4763  0.3598
11421TIP3    H155754   6.176   6.082   1.497 -0.9821 -1.7891  0.1954
11421TIP3    H255755   6.304   6.051   1.421 -0.2206  0.6061  0.4011
11422TIP3   OH255756   4.810   5.749   2.861 -0.2788  0.0819  0.1082
11422TIP3    H155757   4.833   5.840   2.843  0.5311 -0.4362 -1.6314
11422TIP3    H255758   4.886   5.698   2.832 -2.0303 -1.3986 -2.2339
11423TIP3   OH255759   1.155   3.701  14.249  0.3367  0.3965 -0.1260
11423TIP3    H155760   1.195   3.779  14.289 -0.4563  0.2543  1.0072
11423TIP3    H255761   1.206   3.628  14.283  0.4916  0.3658 -0.4304
11424TIP3   OH255762   4.607   5.704  11.611 -0.8775 -0.1889  0.1690
11424TIP3    H155763   4.644   5.632  11.662  1.8430  0.1632 -1.1401
11424TIP3    H255764   4.633   5.783  11.659 -0.2282  0.0466 -0.5457
11425TIP3   OH255765   3.807   0.239   2.768 -0.3210  0.0980 -0.6994
11425TIP3    H155766   3.842   0.273   2.686  1.6353 -1.9926 -0.8318
11425TIP3    H255767   3.772   0.153   2.746  0.4132 -0.5839  0.6681
11426TIP3   OH255768   5.534   2.490   5.367 -0.2911  0.4988 -0.7040
11426TIP3    H155769   5.466   2.557   5.371  0.5333  1.3524 -0.6559
11426TIP3    H255770   5.579   2.497   5.451  0.0436  0.1543 -0.8543
11427TIP3   OH255771   4.336   0.430  17.485  0.4287  0.0570 -0.5247
11427TIP3    H155772   4.342   0.391  17.398  0.4753  1.0329 -0.9761
11427TIP3    H255773   4.357   0.522  17.471 -0.4552  0.4048  0.3806
11428TIP3   OH255774   4.555   1.557   0.178  0.0606 -0.4296  0.6272
11428TIP3    H155775   4.513   1.519   0.101  2.2534 -1.3799 -0.1976
11428TIP3    H255776   4.530   1.649   0.175 -2.0620 -0.9654  0.3396
11429TIP3   OH255777   4.590   3.417   1.256 -0.3733 -0.1962 -0.3745
11429TIP3    H155778   4.596   3.503   1.214 -0.9448  0.7883  1.4698
11429TIP3    H255779   4.572   3.436   1.348  1.0158 -2.2475  0.3999
11430TIP3   OH255780   6.503   3.664   1.559 -0.3449  0.3881  0.4205
11430TIP3    H155781   6.444   3.709   1.498 -0.3344  0.0284  0.1412
11430TIP3    H255782   6.555   3.606   1.503 -0.7526 -0.3908  0.8439
11431TIP3   OH255783   2.699   5.674  11.342  0.6817  0.4198  0.3752
11431TIP3    H155784   2.715   5.751  11.287  0.6435  0.5526  0.5479
11431TIP3    H255785   2.613   5.690  11.381  0.5220  0.1303  0.1483
11432TIP3   OH255786   2.949   2.968  11.829  0.4451 -0.2935 -0.3880
11432TIP3    H155787   3.011   2.978  11.902  0.2400  0.8285 -0.3579
11432TIP3    H255788   2.873   3.020  11.855  0.9117  1.2573 -2.0118
11433TIP3   OH255789   4.778   0.990  14.948  0.0649 -0.3644  0.1203
11433TIP3    H155790   4.840   0.970  14.878 -2.0091 -0.2082 -1.8723
11433TIP3    H255791   4.728   1.066  14.916  0.6539  1.3261  2.8794
11434TIP3   OH255792   5.627   2.371  12.558  0.5018 -0.1036 -0.1103
11434TIP3    H155793   5.686   2.442  12.583 -0.7410  0.8399  0.2255
11434TIP3    H255794   5.549   2.385  12.612 -0.4433 -0.7109 -1.2852
11435TIP3   OH255795   3.010   2.351  12.714  0.1248  0.0265  0.3600
11435TIP3    H155796   3.021   2.363  12.620  1.3604 -1.1947  0.3298
11435TIP3    H255797   2.979   2.437  12.745 -0.9611  0.2518 -1.2274
11436TIP3   OH255798   5.590   6.120   3.886  0.0477 -0.5787 -0.3321
11436TIP3    H155799   5.613   6.206   3.851  0.8057 -0.5133  0.3022
11436TIP3    H255800   5.620   6.123   3.977 -1.1633 -1.0264  0.0997
11437TIP3   OH255801   0.684   0.061   0.780  0.1182 -0.1633  0.0221
11437TIP3    H155802   0.694   0.047   0.874  0.4905  2.6268  0.4737
11437TIP3    H255803   0.698   0.155   0.768 -0.1122 -0.4131 -2.8110
11438TIP3   OH255804   4.445   3.837  13.742 -0.6714 -0.0301  0.7135
11438TIP3    H155805   4.430   3.932  13.742 -0.4759  0.0005  0.7664
11438TIP3    H255806   4.538   3.827  13.720 -0.7877 -0.2239  0.2847
11439TIP3   OH255807   1.384   0.826  16.750 -0.2664 -0.8130 -0.7102
11439TIP3    H155808   1.463   0.818  16.698 -0.6588 -1.6584 -1.1907
11439TIP3    H255809   1.329   0.752  16.724 -0.8689 -0.7221  0.2156
11440TIP3   OH255810   3.794   3.364   1.916  0.1769 -0.3279 -0.0521
11440TIP3    H155811   3.793   3.280   1.872 -1.2891 -0.6822  0.5932
11440TIP3    H255812   3.790   3.429   1.845 -3.7243 -0.8885 -0.5768
11441TIP3   OH255813   2.411   1.555   1.379  0.0042 -0.0039  0.5755
11441TIP3    H155814   2.465   1.486   1.418 -0.3885 -0.8756 -0.3507
11441TIP3    H255815   2.394   1.523   1.290  2.2937  2.6280 -0.9871
11442TIP3   OH255816   4.299   0.024   4.211 -0.0711 -0.2155 -0.0194
11442TIP3    H155817   4.257   0.064   4.135  2.0920 -0.1237 -1.2502
11442TIP3    H255818   4.318   0.097   4.270  0.6971  0.1331 -0.6703
11443TIP3   OH255819   0.817   2.263  15.939  0.4294  0.0247  0.3045
11443TIP3    H155820   0.750   2.257  16.007 -0.7298 -1.5832 -0.8884
11443TIP3    H255821   0.856   2.175  15.936  2.3413  0.8094  0.6733
11444TIP3   OH255822   5.387   5.663  12.028 -0.9589  0.1426 -0.1129
11444TIP3    H155823   5.296   5.636  12.044 -1.1749  1.7114  1.5093
11444TIP3    H255824   5.416   5.702  12.110  1.4821 -1.0025 -0.3315
11445TIP3   OH255825   6.637   2.564   1.401  0.3879 -0.3288  0.3713
11445TIP3    H155826   6.568   2.545   1.466 -0.9764  0.2018 -0.8661
11445TIP3    H255827   6.620   2.502   1.330 -0.8378  1.8380 -1.3577
11446TIP3   OH255828   5.208   3.350   3.593 -0.3172 -0.9318  0.2079
11446TIP3    H155829   5.219   3.256   3.607 -0.4880 -1.0844 -0.6910
11446TIP3    H255830   5.114   3.365   3.596 -0.2382 -0.5061  2.0604
11447TIP3   OH255831   0.736   1.972   2.816 -0.3295 -0.2673 -0.8129
11447TIP3    H155832   0.686   2.012   2.745 -0.6040  1.6735  0.4280
11447TIP3    H255833   0.670   1.951   2.883  0.0696 -1.0700 -0.6570
11448TIP3   OH255834   2.504   4.223   4.823 -0.0698 -1.0160  0.5355
11448TIP3    H155835   2.506   4.313   4.789 -2.3390 -0.7924  0.8628
11448TIP3    H255836   2.541   4.170   4.752  0.6463  0.0742  0.0582
11449TIP3   OH255837   4.529   0.139  12.983  0.1830 -0.3270 -0.1826
11449TIP3    H155838   4.621   0.145  12.959 -0.5148 -0.1766 -3.1830
11449TIP3    H255839   4.483   0.197  12.921 -1.9542 -0.4758  1.1366
11450TIP3   OH255840   5.797   5.745   2.869  0.0940  0.0533 -0.1027
11450TIP3    H155841   5.829   5.661   2.837 -0.3253  0.3569 -1.3982
11450TIP3    H255842   5.761   5.727   2.956  0.1179 -1.0725 -0.3235
11451TIP3   OH255843   4.897   3.903   2.927  0.6223  0.1876 -0.2149
11451TIP3    H155844   4.914   3.899   3.021  0.9016 -1.1544 -0.3005
11451TIP3    H255845   4.801   3.906   2.921  0.6195  3.2067  0.1499
11452TIP3   OH255846   2.373   3.300  15.006  0.0697  0.0284 -0.0203
11452TIP3    H155847   2.450   3.354  14.986 -1.3554  1.4869 -2.0010
11452TIP3    H255848   2.337   3.276  14.921 -2.6577  0.9086  0.7576
11453TIP3   OH255849   1.276   0.754  15.571  0.5798  0.1008  0.4182
11453TIP3    H155850   1.286   0.751  15.476  0.1868 -2.2787  0.3903
11453TIP3    H255851   1.366   0.752  15.604  0.6937 -0.1723  0.1000
11454TIP3   OH255852   2.078   2.452   5.560  0.2997 -0.4254 -0.1143
11454TIP3    H155853   2.039   2.516   5.500 -0.9258 -0.5556  0.4976
11454TIP3    H255854   2.003   2.400   5.591  0.9097 -0.4839  1.3702
11455TIP3   OH255855   3.009   3.501  16.385  0.2637  0.5378 -0.8005
11455TIP3    H155856   3.100   3.497  16.356  0.4404  2.1920 -0.5452
11455TIP3    H255857   2.986   3.410  16.404  2.1982  0.2222  0.2099
11456TIP3   OH255858   1.251   5.017  14.554  0.2562  0.0791  0.0985
11456TIP3    H155859   1.178   4.978  14.602  0.9953 -1.4323  0.0247
11456TIP3    H255860   1.220   5.105  14.532 -1.7058 -0.6639 -0.3050
11457TIP3   OH255861   0.310   5.898   2.154  0.4622  0.0326 -0.7034
11457TIP3    H155862   0.215   5.893   2.164 -0.1579  5.5663 -0.7300
11457TIP3    H255863   0.330   5.837   2.083 -3.3962  0.0857 -2.0684
11458TIP3   OH255864   0.675   3.684  13.895  0.2408  0.0202  0.8102
11458TIP3    H155865   0.747   3.697  13.833 -1.4590 -0.6105 -1.4331
11458TIP3    H255866   0.684   3.594  13.924 -0.9675 -0.9102 -1.4312
11459TIP3   OH255867   2.844   3.991   3.065  0.4763 -0.6742  0.0424
11459TIP3    H155868   2.803   4.042   2.996  1.3009 -1.1901 -0.8709
11459TIP3    H255869   2.882   3.916   3.019 -0.3935 -1.9305  1.2856
11460TIP3   OH255870   3.724   5.009   2.444  0.4207  0.1612 -0.8282
11460TIP3    H155871   3.740   5.086   2.498  0.4049  0.1400 -0.7931
11460TIP3    H255872   3.809   4.987   2.407  0.5948 -0.3438 -0.1284
11461TIP3   OH255873   4.524   2.649   0.234 -0.7089  0.3468  0.2448
11461TIP3    H155874   4.510   2.583   0.302  0.1887  1.2201  1.3221
11461TIP3    H255875   4.477   2.616   0.158 -1.4001 -0.8640  1.1683
11462TIP3   OH255876   5.205   1.614  14.654 -0.3112 -0.2140  0.7030
11462TIP3    H155877   5.287   1.586  14.696 -0.4416  0.1510  1.2087
11462TIP3    H255878   5.197   1.706  14.677 -1.2546 -0.4252  1.3100
11463TIP3   OH255879   3.685   6.659  11.102 -0.5086 -0.9339 -0.3764
11463TIP3    H155880   3.697   6.753  11.085 -0.6753 -0.3157  2.4387
11463TIP3    H255881   3.605   6.637  11.053 -1.3977  0.8213  0.1554
11464TIP3   OH255882   0.632   6.127  13.505  0.0955 -0.3965 -0.0128
11464TIP3    H155883   0.639   6.105  13.598 -2.0874  0.2897  0.3912
11464TIP3    H255884   0.550   6.086  13.477 -1.2018  2.3412 -0.6356
11465TIP3   OH255885   4.405   2.231  16.520 -0.3289 -0.1601  0.1659
11465TIP3    H155886   4.396   2.175  16.442 -1.5113  0.5376 -0.2221
11465TIP3    H255887   4.371   2.316  16.493  1.2502  0.7141  0.8185
11466TIP3   OH255888   1.236   1.748   1.282 -0.0564 -0.3746 -0.8155
11466TIP3    H155889   1.208   1.802   1.355 -2.0946 -3.2976  0.7757
11466TIP3    H255890   1.185   1.780   1.208 -2.2172 -0.8647  0.3825
11467TIP3   OH255891   0.631   1.498   0.245  0.3770 -0.3883  0.0951
11467TIP3    H155892   0.552   1.530   0.287  1.7316  0.4668  2.1081
11467TIP3    H255893   0.604   1.480   0.154 -1.5742  2.0040  0.0996
11468TIP3   OH255894   6.022   6.161   4.719 -0.1850  0.2236 -0.2182
11468TIP3    H155895   6.075   6.224   4.767  1.2467 -0.1410 -1.2494
11468TIP3    H255896   6.029   6.080   4.769 -1.9189  0.7939  1.0355
11469TIP3   OH255897   3.894   0.244  11.748  0.2025  0.1518 -0.2423
11469TIP3    H155898   3.882   0.246  11.843 -0.3726  1.6090 -0.3339
11469TIP3    H255899   3.911   0.335  11.723  1.2152 -0.3266 -1.4451
11470TIP3   OH255900   1.084   3.604  15.041  0.0418  0.1570  0.2148
11470TIP3    H155901   1.001   3.571  15.074 -0.2925 -0.3811 -1.1378
11470TIP3    H255902   1.126   3.529  14.999  0.5965  0.7540 -0.3223
11471TIP3   OH255903   3.109   2.524   5.484  0.3575 -0.2217 -0.1611
11471TIP3    H155904   3.107   2.559   5.573  0.1319  2.0023 -0.9870
11471TIP3    H255905   3.191   2.476   5.479  0.5158 -0.1339  1.1535
11472TIP3   OH255906   1.634   6.252  14.503 -0.6646 -0.1891  0.2973
11472TIP3    H155907   1.698   6.252  14.574  0.2357  2.0664 -0.4318
11472TIP3    H255908   1.674   6.198  14.434 -0.3435 -0.2097  0.4998
11473TIP3   OH255909   1.345   0.140   2.163  0.5569 -0.4491 -0.1140
11473TIP3    H155910   1.270   0.147   2.104  0.9487 -0.2471 -0.5953
11473TIP3    H255911   1.343   0.050   2.194 -0.0552 -0.3634  0.1056
11474TIP3   OH255912   3.083   6.564   1.198  0.5499  0.0302  0.0418
11474TIP3    H155913   2.993   6.596   1.206 -0.1383 -1.9169  0.6946
11474TIP3    H255914   3.095   6.508   1.274  2.2023 -0.0630 -0.2583
11475TIP3   OH255915   5.523   6.484   3.085  0.6381 -0.2581 -0.3683
11475TIP3    H155916   5.613   6.507   3.061 -0.2208  1.3051 -2.2915
11475TIP3    H255917   5.476   6.567   3.087 -1.5398 -1.3018 -2.8839
11476TIP3   OH255918   6.045   2.877  14.649  0.1918 -0.0201  0.3214
11476TIP3    H155919   6.108   2.817  14.688 -0.5211 -0.0142  1.5161
11476TIP3    H255920   5.972   2.879  14.711 -0.9950 -0.0288 -1.0368
11477TIP3   OH255921   4.662   1.381  14.322 -0.3173  0.3617 -0.0945
11477TIP3    H155922   4.694   1.418  14.240 -1.2147 -0.1864 -0.7118
11477TIP3    H255923   4.598   1.444  14.354 -1.8012 -0.5637 -1.1156
11478TIP3   OH255924   6.390   1.125  17.386 -0.0186 -0.6268  0.2859
11478TIP3    H155925   6.318   1.079  17.429 -0.0434  0.1701  1.1303
11478TIP3    H255926   6.392   1.211  17.429 -0.7632  0.6541 -2.0476
11479TIP3   OH255927   1.590   0.932   4.059  0.3398 -0.2952 -0.2194
11479TIP3    H155928   1.646   0.972   3.992  1.8914 -0.5287  0.8774
11479TIP3    H255929   1.649   0.918   4.134 -1.3522  0.0346  1.2314
11480TIP3   OH255930   2.918   5.822  12.273  0.5243 -0.4319  0.4582
11480TIP3    H155931   2.896   5.914  12.263  1.7340 -0.0232  1.2463
11480TIP3    H255932   2.837   5.780  12.302 -0.0982  0.3329 -0.1538
11481TIP3   OH255933   3.059   3.760   3.476  0.3998  0.3021 -0.1726
11481TIP3    H155934   3.137   3.728   3.522  1.5185 -1.8690 -3.2949
11481TIP3    H255935   3.088   3.838   3.429  0.7607 -0.5510 -1.3984
11482TIP3   OH255936   6.081   4.662  11.531  0.0412  0.1417  0.1504
11482TIP3    H155937   6.129   4.586  11.562  0.0921  0.0271 -0.2022
11482TIP3    H255938   6.116   4.679  11.443  1.3085  1.6752  0.9081
11483TIP3   OH255939   5.935   4.053   4.853 -0.2636 -0.2935 -0.8972
11483TIP3    H155940   5.930   3.973   4.906  1.2180  0.8873  1.1406
11483TIP3    H255941   5.900   4.121   4.909  1.0523  0.9696 -1.5443
11484TIP3   OH255942   1.606   0.215   1.144 -0.0636 -0.4763  0.2725
11484TIP3    H155943   1.598   0.303   1.181 -1.2712  0.0581 -1.1676
11484TIP3    H255944   1.685   0.219   1.089 -0.8157  0.1267 -0.8011
11485TIP3   OH255945   5.564   3.993   1.670  0.1149 -0.1489 -0.2444
11485TIP3    H155946   5.623   4.014   1.743 -2.9148 -1.6691  2.9400
11485TIP3    H255947   5.491   4.054   1.680 -0.4414 -0.4592 -2.0084
11486TIP3   OH255948   4.565   3.462   2.686 -0.3766  0.5182  0.2392
11486TIP3    H155949   4.509   3.392   2.721 -2.2844  0.1238 -3.1358
11486TIP3    H255950   4.514   3.542   2.700 -1.3184  0.3152 -1.7036
11487TIP3   OH255951   6.728   6.481   3.684 -0.2687 -0.1714  0.4063
11487TIP3    H155952   6.793   6.470   3.753  0.0752  1.1005  0.3192
11487TIP3    H255953   6.770   6.446   3.606 -0.2657 -0.6889  0.6349
11488TIP3   OH255954   3.935   4.649  14.589  0.0302 -0.0126  0.2120
11488TIP3    H155955   3.957   4.741  14.580  0.3753  0.2285  2.7658
11488TIP3    H255956   3.844   4.643  14.560 -0.1610  1.2259  0.5105
11489TIP3   OH255957   1.856   5.686   1.150 -0.3537  0.7313 -0.6877
11489TIP3    H155958   1.888   5.693   1.240 -0.3323 -2.5210 -0.3117
11489TIP3    H255959   1.934   5.698   1.096  0.6099 -1.7357  0.0080
11490TIP3   OH255960   4.182   0.807  11.003 -0.1270 -0.5321  0.1422
11490TIP3    H155961   4.109   0.851  11.045 -0.1622  0.6693 -1.1059
11490TIP3    H255962   4.260   0.852  11.037 -0.0662 -0.5808  0.0678
11491TIP3   OH255963   4.708   5.527  16.082  0.3462  0.1802  0.4048
11491TIP3    H155964   4.622   5.568  16.066 -0.1510 -0.7080  0.7124
11491TIP3    H255965   4.763   5.556  16.010 -1.4169 -2.6637 -2.3382
11492TIP3   OH255966   0.762   6.667   4.784 -0.3373  0.0165  0.3035
11492TIP3    H155967   0.850   6.655   4.819  0.1464  0.2087 -0.7960
11492TIP3    H255968   0.717   6.584   4.801  0.6641 -0.7803 -0.7858
11493TIP3   OH255969   6.670   2.834  17.448 -0.8126 -0.1142  0.0062
11493TIP3    H155970   6.707   2.804  17.531 -1.1874 -0.4912  0.0457
11493TIP3    H255971   6.705   2.773  17.383 -3.1765 -2.0001  0.3586
11494TIP3   OH255972   2.494   4.835   0.082  0.0368  0.4621 -0.7617
11494TIP3    H155973   2.400   4.821   0.085  0.1459 -0.3169  1.2688
11494TIP3    H255974   2.514   4.881   0.164  1.2714  1.8682 -1.7882
11495TIP3   OH255975   6.670   3.393  16.160 -0.1664 -1.0520  0.2420
11495TIP3    H155976   6.755   3.373  16.197 -0.4267 -1.1435  0.8103
11495TIP3    H255977   6.644   3.314  16.112 -0.3153 -1.3459  0.8018
11496TIP3   OH255978   5.856   2.957  12.440  0.2870  0.0184 -0.1734
11496TIP3    H155979   5.830   2.987  12.353  0.3692 -2.1066 -0.9854
11496TIP3    H255980   5.947   2.986  12.449  0.3119  0.1630 -0.8455
11497TIP3   OH255981   3.327   0.267   4.812  0.2603  0.0249  0.4735
11497TIP3    H155982   3.333   0.220   4.896 -0.0086 -0.9176 -0.0108
11497TIP3    H255983   3.317   0.197   4.747 -0.5361  0.7793 -0.2437
11498TIP3   OH255984   2.191   1.038   0.833  0.2677 -0.3545 -0.4764
11498TIP3    H155985   2.183   1.132   0.817 -1.5831 -0.1378  1.2673
11498TIP3    H255986   2.270   1.029   0.885  0.2310  0.3110 -0.2899
11499TIP3   OH255987   5.810   4.486   7.135  0.5218  0.7205  0.0856
11499TIP3    H155988   5.847   4.542   7.066 -0.7847 -0.3063 -1.5025
11499TIP3    H255989   5.717   4.507   7.136  0.2105 -0.6069  0.2734
11500TIP3   OH255990   6.036   2.542  11.802 -0.1962 -0.1269  0.1804
11500TIP3    H155991   6.091   2.525  11.726 -0.2367 -0.8246  0.2985
11500TIP3    H255992   6.094   2.530  11.878 -0.3378 -0.1635  0.2842
11501TIP3   OH255993   4.364   4.628  15.448  0.1199  0.1147 -0.0454
11501TIP3    H155994   4.330   4.575  15.375  0.7949 -0.6963  0.2075
11501TIP3    H255995   4.286   4.656  15.496 -0.3012  0.1714 -0.7484
11502TIP3   OH255996   3.007   2.767  17.446 -0.7898 -0.4719 -0.2070
11502TIP3    H155997   2.984   2.741  17.356 -2.6789 -0.1619  0.1340
11502TIP3    H255998   3.090   2.813  17.437 -0.6411 -0.9720 -1.7185
11503TIP3   OH255999   3.720   3.574   5.370  0.6423  0.1257  0.2985
11503TIP3    H156000   3.675   3.604   5.291  1.1701  1.8939  0.6411
11503TIP3    H256001   3.662   3.600   5.442 -0.0535 -1.8629  0.5388
11504TIP3   OH256002   6.339   3.677  16.864  0.0271 -0.5953  0.2367
11504TIP3    H156003   6.401   3.623  16.816  0.1411  2.2142 -3.2427
11504TIP3    H256004   6.389   3.756  16.887 -1.0282 -0.3458  1.8614
11505TIP3   OH256005   2.244   4.086   1.553 -0.7779 -0.0187 -1.0812
11505TIP3    H156006   2.266   4.158   1.612  0.9825 -2.3778  1.3814
11505TIP3    H256007   2.265   4.119   1.466  1.1652  2.0524  0.0742
11506TIP3   OH256008   1.422   3.060  11.840 -0.0321 -0.5998 -0.7718
11506TIP3    H156009   1.327   3.065  11.849  0.0804  2.1564 -0.2508
11506TIP3    H256010   1.437   3.055  11.745 -0.7020  1.0599 -1.0013
11507TIP3   OH256011   3.009   6.549  13.637  0.7895 -0.0053  0.2730
11507TIP3    H156012   3.057   6.467  13.626  0.1140 -0.3464 -0.1831
11507TIP3    H256013   2.966   6.540  13.722  0.6043 -0.1803  0.1609
11508TIP3   OH256014   3.940   6.762  12.317 -0.6011 -0.3780 -0.4656
11508TIP3    H156015   4.022   6.724  12.349 -0.6836  0.4946  0.9067
11508TIP3    H256016   3.921   6.832  12.380 -1.6108  0.4297 -1.6273
11509TIP3   OH256017   3.548   6.156   2.721  0.1922 -0.3094  0.8138
11509TIP3    H156018   3.479   6.091   2.703  1.0920 -1.2959  0.8562
11509TIP3    H256019   3.506   6.240   2.704 -0.6007 -0.9516 -0.6109
11510TIP3   OH256020   4.557   2.210  12.524  0.0218 -0.1973  0.4197
11510TIP3    H156021   4.487   2.217  12.458  0.8085  0.2868 -0.3821
11510TIP3    H256022   4.543   2.286  12.581  0.4554  0.4313 -0.3006
11511TIP3   OH256023   3.858   4.249   6.012  0.1396 -0.1454  0.5055
11511TIP3    H156024   3.907   4.329   5.992 -1.3817  0.1238 -2.5509
11511TIP3    H256025   3.926   4.186   6.035  1.7290  0.9856 -0.8011
11512TIP3   OH256026   3.717   1.939  12.700 -0.0538 -0.6105  0.4230
11512TIP3    H156027   3.799   1.895  12.722  0.7923  0.9816  0.6206
11512TIP3    H256028   3.650   1.873  12.717  0.9749 -1.2230  2.6211
11513TIP3   OH256029   4.600   4.444   2.868  0.1944 -0.3061 -0.3565
11513TIP3    H156030   4.626   4.393   2.945  0.7565 -1.8243 -1.5132
11513TIP3    H256031   4.625   4.534   2.890 -1.2518 -0.3762  1.9289
11514TIP3   OH256032   5.412   3.601   4.070  0.1398  0.3352  0.2530
11514TIP3    H156033   5.425   3.521   4.121 -0.3126 -0.5490 -0.9603
11514TIP3    H256034   5.452   3.670   4.122  0.5247 -0.6799  1.3411
11515TIP3   OH256035   2.092   1.149   3.689 -0.2325  0.2445  0.7011
11515TIP3    H156036   2.030   1.088   3.651 -0.2995 -1.2212  2.9410
11515TIP3    H256037   2.178   1.111   3.671 -0.2116  0.1461  0.9946
11516TIP3   OH256038   4.178   3.897  12.203 -0.1073 -0.0635 -0.8568
11516TIP3    H156039   4.149   3.891  12.112  0.2340 -4.7101 -0.9211
11516TIP3    H256040   4.101   3.873  12.255  0.5566 -0.9147 -0.2268
11517TIP3   OH256041   3.917   1.384   5.246  0.0631  0.0109  0.6522
11517TIP3    H156042   3.920   1.419   5.335  0.0016  1.0235  0.2767
11517TIP3    H256043   3.964   1.449   5.193  2.2907 -1.7806  0.2978
11518TIP3   OH256044   1.061   3.023   3.925  0.4495 -0.2260 -0.1112
11518TIP3    H156045   1.028   3.102   3.882  2.0145 -0.8176 -2.5945
11518TIP3    H256046   1.116   3.056   3.996  0.6750  0.9359 -0.7865
11519TIP3   OH256047   4.724   4.744  16.098 -0.5216  0.0091  0.1696
11519TIP3    H156048   4.769   4.748  16.183  0.1394 -3.1653  0.0879
11519TIP3    H256049   4.649   4.687  16.114  1.9624 -4.3782 -2.1416
11520TIP3   OH256050   3.279   3.411   0.720 -0.1039  0.1033 -0.0903
11520TIP3    H156051   3.290   3.409   0.815  0.0892 -0.6978 -0.1206
11520TIP3    H256052   3.251   3.322   0.697  0.4017  0.1282 -0.8428
11521TIP3   OH256053   4.991   3.614  13.721  0.3955 -0.0776  0.5971
11521TIP3    H156054   4.957   3.532  13.759 -1.5023  0.6604  0.5873
11521TIP3    H256055   5.049   3.648  13.789 -0.6609 -0.2569  1.6400
11522TIP3   OH256056   5.999   0.433   1.858 -0.1357  0.3500  0.2071
11522TIP3    H156057   5.978   0.341   1.840 -0.6955 -0.3085  3.5070
11522TIP3    H256058   6.094   0.438   1.848 -0.1200 -0.5550 -0.1858
11523TIP3   OH256059   4.840   3.155  16.943  0.2775  0.0296 -0.1586
11523TIP3    H156060   4.898   3.087  16.979  1.1866 -0.1933 -1.9544
11523TIP3    H256061   4.893   3.235  16.944  0.1805  0.0994 -0.6627
11524TIP3   OH256062   5.615   6.403  15.498 -0.1446 -0.2199 -0.1877
11524TIP3    H156063   5.699   6.364  15.523 -0.4062 -1.2504 -0.8307
11524TIP3    H256064   5.602   6.474  15.560  1.7363  0.6977 -0.7695
11525TIP3   OH256065   1.397   2.584   6.015  0.5617 -0.1346 -0.2029
11525TIP3    H156066   1.413   2.672   6.051 -0.4201  0.1864 -0.4982
11525TIP3    H256067   1.415   2.525   6.088  0.8929  0.3352  0.1073
11526TIP3   OH256068   0.521   5.214  12.224 -0.0279 -0.5591  0.0219
11526TIP3    H156069   0.528   5.126  12.188  0.7959 -0.9588  1.1138
11526TIP3    H256070   0.559   5.271  12.157 -0.4823 -1.0254 -0.6497
11527TIP3   OH256071   3.403   0.931   0.213  0.2621  0.5452 -0.6119
11527TIP3    H156072   3.445   0.966   0.291 -0.9847 -0.5450  0.6027
11527TIP3    H256073   3.356   1.006   0.174  1.0892  1.1445 -0.4720
11528TIP3   OH256074   3.132   2.526   4.626 -0.4846 -0.1748  0.5014
11528TIP3    H156075   3.193   2.453   4.618  1.3120  1.3993 -1.5447
11528TIP3    H256076   3.122   2.540   4.720  0.6815 -1.7776  0.9054
11529TIP3   OH256077   2.886   2.655   4.473 -0.0265  0.1988 -0.2723
11529TIP3    H156078   2.980   2.656   4.493  0.2351 -0.8861 -1.3353
11529TIP3    H256079   2.882   2.649   4.378 -1.1892  0.5823 -0.2583
11530TIP3   OH256080   3.153   3.502   6.494  0.0970 -0.5880  0.4160
11530TIP3    H156081   3.185   3.413   6.506 -0.0480 -0.9384 -1.5493
11530TIP3    H256082   3.062   3.500   6.522 -0.4252 -1.5284 -1.2146
11531TIP3   OH256083   0.170   5.018  15.731  0.6415  0.1269 -0.1358
11531TIP3    H156084   0.120   5.053  15.657  0.2398  1.7499  0.8277
11531TIP3    H256085   0.121   4.941  15.759  0.8273 -0.5376 -1.5643
11532TIP3   OH256086   1.032   3.345  11.682 -0.2655  0.1246 -0.1906
11532TIP3    H156087   1.082   3.400  11.742  0.9874 -1.4731  0.3334
11532TIP3    H256088   1.097   3.318  11.616 -0.6006 -1.3468  0.0438
11533TIP3   OH256089   2.385   0.952  13.786 -0.3958 -0.5903  0.3251
11533TIP3    H156090   2.404   0.881  13.725 -0.7142  1.3706 -2.2451
11533TIP3    H256091   2.467   1.001  13.792 -1.2783  1.3573 -1.6832
11534TIP3   OH256092   1.054   6.714  14.654  0.0520  0.1804  0.3550
11534TIP3    H156093   1.052   6.802  14.617 -4.6190  0.2837  0.2459
11534TIP3    H256094   1.074   6.657  14.579 -0.8961  0.9730 -0.5418
11535TIP3   OH256095   1.067   1.349   4.860 -0.4280  0.7009 -0.3519
11535TIP3    H156096   1.147   1.401   4.871 -0.3664  0.5752 -0.2037
11535TIP3    H256097   1.082   1.271   4.913 -0.4273  0.4198 -0.7611
11536TIP3   OH256098   3.558   0.671  12.895 -0.0199  0.3554 -0.3279
11536TIP3    H156099   3.486   0.728  12.869  0.0323 -0.0237 -1.3491
11536TIP3    H256100   3.522   0.617  12.965 -0.3917  0.9017 -0.0893
11537TIP3   OH256101   0.943   3.430   1.595  0.1548 -0.2209 -0.3356
11537TIP3    H156102   0.884   3.500   1.621  0.4403  0.0003 -0.2846
11537TIP3    H256103   0.940   3.368   1.668  0.2057 -0.0745 -0.2112
11538TIP3   OH256104   4.605   4.302   0.969  0.5686  0.0290 -0.1373
11538TIP3    H156105   4.542   4.367   0.939 -0.2780 -1.3640 -1.5428
11538TIP3    H256106   4.604   4.234   0.901  2.3200 -0.8697  0.6592
11539TIP3   OH256107   3.071   5.128   1.785  0.4094  0.5697 -0.0657
11539TIP3    H156108   3.067   5.039   1.820 -0.0321  0.8937  0.7377
11539TIP3    H256109   3.162   5.155   1.799  0.3719  0.4961  0.3522
11540TIP3   OH256110   4.058   4.223  17.250 -0.7403  0.2671  0.5730
11540TIP3    H156111   4.071   4.220  17.345  1.1808  0.2121  0.3555
11540TIP3    H256112   4.147   4.221  17.214 -1.4342  0.2054 -1.2360
11541TIP3   OH256113   1.036   1.090  13.683  0.7982  0.4292 -0.4101
11541TIP3    H156114   0.987   1.012  13.709  0.6682  0.5978 -0.1465
11541TIP3    H256115   1.067   1.071  13.595  1.3854 -0.2255 -0.0776
11542TIP3   OH256116   6.137   3.809  15.944 -0.0989  0.2047 -0.9737
11542TIP3    H156117   6.103   3.866  15.875 -0.7809  0.4768 -0.4204
11542TIP3    H256118   6.136   3.863  16.023 -5.3377 -1.7512  0.7415
11543TIP3   OH256119   6.357   3.058  14.784 -0.1058  0.4812 -0.2861
11543TIP3    H156120   6.377   2.988  14.846  0.1696  1.3586  0.6449
11543TIP3    H256121   6.278   3.029  14.739 -1.0402  0.3646  1.3589
11544TIP3   OH256122   2.458   2.869  10.585 -0.4133  0.1967 -0.1188
11544TIP3    H156123   2.468   2.959  10.554  0.1655  0.9906  2.1268
11544TIP3    H256124   2.363   2.854  10.584 -0.5375  0.9601 -0.2497
11545TIP3   OH256125   3.418   3.009  13.247  0.3650 -0.2918  0.2190
11545TIP3    H156126   3.385   3.067  13.316 -1.1754  0.9010 -1.4254
11545TIP3    H256127   3.457   3.069  13.182  0.5164 -1.2511 -0.5946
11546TIP3   OH256128   2.269   6.543   4.529  0.7260 -0.2789  0.2843
11546TIP3    H156129   2.246   6.459   4.569  0.1658  0.6348  2.0010
11546TIP3    H256130   2.314   6.591   4.599  0.2318  1.2001 -0.3743
11547TIP3   OH256131   0.852   4.093  12.251  0.2332  0.3969  0.0345
11547TIP3    H156132   0.835   4.013  12.201  1.0662 -0.9259  1.7725
11547TIP3    H256133   0.885   4.155  12.187  2.0328 -1.4793 -0.9571
11548TIP3   OH256134   0.486   0.275   4.307 -0.1376 -0.0059 -0.5729
11548TIP3    H156135   0.487   0.354   4.362 -0.6990 -0.3266 -0.0864
11548TIP3    H256136   0.520   0.206   4.363 -1.8623 -0.5954 -0.1813
11549TIP3   OH256137   0.484   0.241   6.212  0.0525  0.5989 -0.3124
11549TIP3    H156138   0.490   0.174   6.280  1.9972  0.7136 -0.3288
11549TIP3    H256139   0.500   0.194   6.130  1.7164  1.1021 -0.2972
11550TIP3   OH256140   3.902   0.566  12.656  0.0691  0.1393 -0.5454
11550TIP3    H156141   3.925   0.515  12.733  0.1794  2.0019  0.7337
11550TIP3    H256142   3.986   0.592  12.619  0.1855  2.8775  1.3192
11551TIP3   OH256143   2.662   0.344   4.716 -0.2598 -0.4444 -0.0356
11551TIP3    H156144   2.749   0.304   4.727 -0.2823 -0.0866  1.6442
11551TIP3    H256145   2.633   0.314   4.630  1.5693 -0.4904 -0.6826
11552TIP3   OH256146   0.741   5.091  13.262  0.4529 -0.8411  0.2612
11552TIP3    H156147   0.673   5.109  13.197 -0.2282 -2.5283  0.4822
11552TIP3    H256148   0.717   5.144  13.337 -0.6799 -1.4861  0.3698
11553TIP3   OH256149   3.960   4.172  12.702  0.0959 -0.0840 -0.5715
11553TIP3    H156150   3.901   4.246  12.713 -1.7222 -1.1323 -2.5536
11553TIP3    H256151   4.036   4.208  12.656 -0.3423  0.7088 -0.6798
11554TIP3   OH256152   3.354   5.957  13.280  0.2835  0.2642  0.1986
11554TIP3    H156153   3.328   5.865  13.288  0.7404 -0.1338 -2.0994
11554TIP3    H256154   3.291   5.994  13.219  1.3299  0.9115 -0.5194
11555TIP3   OH256155   1.069   1.237  11.462 -0.0878 -0.3837 -0.4719
11555TIP3    H156156   1.018   1.293  11.520 -0.1138  0.1614 -1.0147
11555TIP3    H256157   1.027   1.151  11.469 -1.7451  0.2696 -1.6675
11556TIP3   OH256158   0.644   1.569   3.379 -0.2912  0.2737 -0.2055
11556TIP3    H156159   0.736   1.582   3.356 -0.7970 -0.1317 -2.7047
11556TIP3    H256160   0.647   1.525   3.464  1.8347 -0.1754 -0.4487
11557TIP3   OH256161   3.703   4.345   0.201  0.0912 -0.3199  0.0995
11557TIP3    H156162   3.719   4.309   0.288  0.2842  0.4840  0.4034
11557TIP3    H256163   3.752   4.287   0.142 -1.8186 -2.2190  0.2529
11558TIP3   OH256164   3.966   3.214   3.927  0.1419  0.1576 -0.1469
11558TIP3    H156165   4.035   3.164   3.969  0.3900  0.3447 -0.3243
11558TIP3    H256166   3.996   3.305   3.934  0.7988  0.1037 -1.8072
11559TIP3   OH256167   5.008   6.749   1.987 -0.6379 -0.5924  0.9859
11559TIP3    H156168   4.919   6.782   1.972  0.4550  1.9655 -0.4403
11559TIP3    H256169   5.035   6.788   2.070  0.2479  1.3723 -0.1558
11560TIP3   OH256170   0.942   2.230  12.091  0.3945 -0.3775  0.1833
11560TIP3    H156171   0.851   2.254  12.111 -0.9181 -2.4860 -2.5001
11560TIP3    H256172   0.993   2.265  12.164 -2.5898  0.6214  1.9765
11561TIP3   OH256173   1.994   2.284  11.602  0.0111  0.1425  0.2701
11561TIP3    H156174   1.940   2.354  11.638 -1.2315 -1.9291  2.7912
11561TIP3    H256175   2.049   2.256  11.675  1.2418 -0.8241 -0.9697
11562TIP3   OH256176   4.784   5.023   3.862  0.0597 -0.3315 -0.1267
11562TIP3    H156177   4.831   5.006   3.780 -0.7487  1.9707 -1.1403
11562TIP3    H256178   4.729   4.945   3.874 -1.0524 -0.0397 -2.7019
11563TIP3   OH256179   2.146   6.189  13.575  0.5596  0.3940 -0.3317
11563TIP3    H156180   2.097   6.180  13.657  1.2455 -0.1044  0.0347
11563TIP3    H256181   2.092   6.246  13.520 -0.0087  0.5522  0.3869
11564TIP3   OH256182   0.070   5.461   6.749  0.0799  0.0970 -0.2480
11564TIP3    H156183   0.033   5.510   6.675 -1.5290  1.8421  1.5722
11564TIP3    H256184   0.060   5.369   6.725 -2.3978  0.5672 -1.3420
11565TIP3   OH256185   6.405   2.839  12.614  0.5572 -0.0789  0.6784
11565TIP3    H156186   6.331   2.899  12.599  1.2065  0.3401 -1.1185
11565TIP3    H256187   6.365   2.752  12.616 -0.1466  0.2399  1.2235
11566TIP3   OH256188   1.405   3.506  12.850  0.1710  0.4584  0.4452
11566TIP3    H156189   1.324   3.507  12.800  0.6344 -0.7264 -0.3561
11566TIP3    H256190   1.421   3.414  12.869  1.0880  0.7183  0.9985
11567TIP3   OH256191   4.684   5.156   2.404 -0.5895  0.0632  0.2897
11567TIP3    H156192   4.638   5.087   2.357 -2.1529  0.7259  0.7970
11567TIP3    H256193   4.615   5.208   2.444  0.5029  2.2393 -0.4990
11568TIP3   OH256194   5.922   1.382  13.137  0.1309  0.4390  0.0431
11568TIP3    H156195   5.997   1.371  13.195 -0.8006  0.9683  1.3861
11568TIP3    H256196   5.959   1.418  13.056  1.7118 -2.0577 -0.4564
11569TIP3   OH256197   3.024   1.604  13.391 -0.1108  0.7165  0.5301
11569TIP3    H156198   3.081   1.680  13.402  0.9047  0.4871 -2.3633
11569TIP3    H256199   3.010   1.598  13.296  1.1387 -3.5644  0.4039
11570TIP3   OH256200   3.120   0.913  12.731  0.2634  0.2671 -0.3978
11570TIP3    H156201   3.046   0.856  12.750 -0.0400  0.4658 -0.9639
11570TIP3    H256202   3.083   1.001  12.726  0.6789  0.4853  0.1544
11571TIP3   OH256203   4.028   5.815  12.108  0.2699  0.2736  0.1596
11571TIP3    H156204   4.013   5.799  12.201 -1.7809  1.0286  0.0011
11571TIP3    H256205   4.105   5.873  12.106  2.4693 -2.4180  1.1385
11572TIP3   OH256206   4.623   2.077   3.981 -0.6748 -0.1192 -0.7018
11572TIP3    H156207   4.701   2.022   3.977 -1.1901 -0.9158 -0.0492
11572TIP3    H256208   4.645   2.146   4.043 -0.3611 -0.1245 -0.8066
11573TIP3   OH256209   4.400   1.894  15.495  0.3847  0.1138 -0.6210
11573TIP3    H156210   4.307   1.886  15.519  0.7647  1.3701  1.4718
11573TIP3    H256211   4.413   1.988  15.484  1.7101  0.0548  0.3685
11574TIP3   OH256212   1.402   2.840   0.455 -0.2345  0.0062  0.7729
11574TIP3    H156213   1.459   2.773   0.417  1.4897  0.5782  2.2206
11574TIP3    H256214   1.352   2.793   0.522  0.9738  0.0966  1.7906
11575TIP3   OH256215   2.557   3.980   2.203 -0.6718 -0.1331  0.0486
11575TIP3    H156216   2.637   3.928   2.202 -0.9274 -0.5667 -1.4328
11575TIP3    H256217   2.543   4.003   2.111 -0.2039  3.1563  0.6918
11576TIP3   OH256218   1.890   2.961  14.017  0.1685 -0.0346  0.2188
11576TIP3    H156219   1.801   2.996  14.021 -0.1532 -0.7465 -0.4031
11576TIP3    H256220   1.929   2.985  14.101 -0.8173 -0.2435  0.7544
11577TIP3   OH256221   2.678   5.702   5.034  0.0821 -0.0938  0.3527
11577TIP3    H156222   2.679   5.729   5.125  1.1394  0.0235  0.3189
11577TIP3    H256223   2.725   5.618   5.033 -1.9652 -1.3204  0.2485
11578TIP3   OH256224   0.056   6.642   6.735 -0.2287  0.5253 -0.0127
11578TIP3    H156225   0.152   6.644   6.729 -0.1378  1.2309  1.3579
11578TIP3    H256226   0.037   6.558   6.777 -0.2955 -0.0487 -1.1385
11579TIP3   OH256227   0.019   0.065   0.882 -0.2851  0.7485  0.5402
11579TIP3    H156228  -0.025  -0.015   0.855 -0.2642  1.1558 -0.7701
11579TIP3    H256229   0.095   0.035   0.932 -1.6102  0.0327  2.2203
11580TIP3   OH256230   0.642   4.755   1.613  0.5030 -0.1335  0.6730
11580TIP3    H156231   0.586   4.711   1.677 -0.1171 -0.1162  0.1546
11580TIP3    H256232   0.586   4.821   1.573  1.3425  0.9725  1.2439
11581TIP3   OH256233   4.784   6.261  11.217  0.7588 -0.0519  0.5690
11581TIP3    H156234   4.818   6.171  11.219  0.1283 -0.3021  0.3744
11581TIP3    H256235   4.759   6.275  11.126  0.8686  0.3271  0.5972
11582TIP3   OH256236   0.392   2.564  14.637  0.0899 -0.2281 -0.3374
11582TIP3    H156237   0.459   2.556  14.704  0.7187 -2.2211 -1.0982
11582TIP3    H256238   0.408   2.489  14.578 -1.1148  0.7867 -2.0668
11583TIP3   OH256239   4.185   3.517   2.918 -0.9195 -0.3370 -0.4877
11583TIP3    H156240   4.168   3.517   2.824 -3.0505  0.6992 -0.1560
11583TIP3    H256241   4.248   3.446   2.930 -1.5630 -1.3576 -2.5267
11584TIP3   OH256242   3.903   1.140  16.801  1.0444  0.2984  0.2247
11584TIP3    H156243   3.991   1.124  16.835  0.3981 -1.8294  1.1133
11584TIP3    H256244   3.854   1.171  16.877  0.8807  0.8627 -0.1122
11585TIP3   OH256245   6.562   3.163  15.998  0.1551 -0.4421 -0.0606
11585TIP3    H156246   6.533   3.198  15.914  1.3736  1.5341  0.2893
11585TIP3    H256247   6.493   3.189  16.060  2.4584  4.6670  0.8679
11586TIP3   OH256248   2.493   5.164   2.236  0.3793 -0.4794  0.0265
11586TIP3    H156249   2.532   5.240   2.279 -0.1067 -0.1567 -0.0992
11586TIP3    H256250   2.500   5.093   2.300 -0.1592 -0.0503  0.5640
11587TIP3   OH256251   1.673   6.693  15.067 -0.0263  0.2164 -0.0969
11587TIP3    H156252   1.682   6.777  15.022 -1.1113  1.0943  1.2784
11587TIP3    H256253   1.734   6.635  15.020  2.4608  2.3164  0.3035
11588TIP3   OH256254   1.145   1.508  12.399  0.4852  0.1672 -0.0073
11588TIP3    H156255   1.127   1.544  12.312  0.0739  3.9350  1.4795
11588TIP3    H256256   1.060   1.482  12.433  0.3590  0.6339  0.0378
11589TIP3   OH256257   6.560   0.904   4.084  0.2588 -0.3438  0.1490
11589TIP3    H156258   6.480   0.923   4.133  1.4174  0.4498  1.8216
11589TIP3    H256259   6.620   0.867   4.149  2.0592  1.2611 -0.4880
11590TIP3   OH256260   0.340   2.683  13.876  0.3226  0.1297  0.4888
11590TIP3    H156261   0.284   2.746  13.922  0.7618  0.8396  0.0616
11590TIP3    H256262   0.284   2.646  13.808  0.2852  0.6280  0.2457
11591TIP3   OH256263   3.885   5.164  11.144  0.0599  0.1145  0.3706
11591TIP3    H156264   3.863   5.073  11.122  0.1084 -0.0961  1.1659
11591TIP3    H256265   3.806   5.213  11.124 -0.1705 -0.1982  0.5066
11592TIP3   OH256266   5.874   2.523  13.614  0.3616  0.0820 -0.0693
11592TIP3    H156267   5.895   2.561  13.529  0.6426 -0.2573 -0.1555
11592TIP3    H256268   5.951   2.472  13.637  0.9522  1.4317  1.1290
11593TIP3   OH256269   2.044   6.379   3.495  0.1854  0.1843 -0.1749
11593TIP3    H156270   2.061   6.407   3.585  0.0815  0.9122 -0.3794
11593TIP3    H256271   1.958   6.416   3.474  0.4322  0.4473 -0.7448
11594TIP3   OH256272   0.466   0.386   3.294 -0.9855  0.0701 -0.2805
11594TIP3    H156273   0.383   0.421   3.262 -1.5742  0.4350  1.5449
11594TIP3    H256274   0.450   0.368   3.387  1.0866  0.5236  0.2042
11595TIP3   OH256275   4.960   5.878  16.430  0.1469 -0.1271  0.2647
11595TIP3    H156276   4.938   5.900  16.340  0.5004  0.1585  0.2470
11595TIP3    H256277   4.913   5.943  16.483  1.3731  0.8514  0.2042
11596TIP3   OH256278   1.989   5.459   0.143  0.4526 -0.2049 -0.1507
11596TIP3    H156279   1.909   5.421   0.108 -0.7976  2.0736  0.0024
11596TIP3    H256280   2.014   5.401   0.215 -2.8179  0.4895  1.7737
11597TIP3   OH256281   4.758   0.580  14.765  0.2103  0.3542  0.0562
11597TIP3    H156282   4.836   0.564  14.712  0.9623 -0.3176  1.3120
11597TIP3    H256283   4.781   0.546  14.852 -0.8837  1.6444  0.8825
11598TIP3   OH256284   6.294   5.967  13.804  0.0154  0.4220 -0.8235
11598TIP3    H156285   6.267   5.948  13.714  2.4553 -2.3854 -1.1403
11598TIP3    H256286   6.223   5.936  13.858 -1.3801  1.9146 -1.7030
11599TIP3   OH256287   3.569   6.629   5.519 -0.5906 -0.3828  0.2431
11599TIP3    H156288   3.474   6.634   5.508 -0.5147  2.4578  0.0739
11599TIP3    H256289   3.603   6.619   5.430 -0.6930 -1.1381  0.2805
11600TIP3   OH256290   6.143   2.917  11.738 -0.3496 -0.4183  0.9804
11600TIP3    H156291   6.048   2.906  11.739 -0.2468 -1.4240  0.2174
11600TIP3    H256292   6.175   2.847  11.681  0.8150  0.1874  0.8716
11601TIP3   OH256293   5.411   5.043   2.909 -0.4374 -0.5831  0.2390
11601TIP3    H156294   5.498   5.069   2.940 -0.8279 -0.1813  0.9966
11601TIP3    H256295   5.350   5.092   2.963 -1.1406 -0.5477 -0.5780
11602TIP3   OH256296   0.524   0.381   0.987 -0.3800  0.1408 -0.2551
11602TIP3    H156297   0.531   0.383   0.891  0.4748  1.3188 -0.1977
11602TIP3    H256298   0.614   0.390   1.017 -0.8583  2.6287  0.6445
11603TIP3   OH256299   2.044   3.131   2.278 -0.3689  0.0412  0.3722
11603TIP3    H156300   2.032   3.160   2.368 -1.2514 -1.9437  0.9571
11603TIP3    H256301   1.962   3.154   2.234 -0.1973  0.4181  0.2476
11604TIP3   OH256302   6.211   6.050  13.029 -0.2937  0.0946  0.1200
11604TIP3    H156303   6.268   6.024  13.103 -0.3361  0.0346  0.1318
11604TIP3    H256304   6.271   6.086  12.964 -0.3510  0.9562  0.5375
11605TIP3   OH256305   0.819   1.765   5.185  0.2304  0.3306 -0.9576
11605TIP3    H156306   0.796   1.688   5.238 -0.8540  0.4697 -1.2147
11605TIP3    H256307   0.867   1.822   5.246  0.6953 -0.3622 -0.6587
11606TIP3   OH256308   0.122   1.046  13.403 -0.5524 -0.3515  0.6144
11606TIP3    H156309   0.162   1.058  13.489 -4.5246  2.0769  2.4292
11606TIP3    H256310   0.142   1.127  13.356  0.1115 -0.9135 -0.0861
11607TIP3   OH256311   2.364   5.488  14.473 -0.2535 -0.1220 -0.0654
11607TIP3    H156312   2.297   5.524  14.414  3.3446 -0.3130 -4.9296
11607TIP3    H256313   2.362   5.394  14.457  1.0308 -0.1419 -0.2547
11608TIP3   OH256314   3.130   3.120  15.899  0.6101 -0.7067  0.6866
11608TIP3    H156315   3.037   3.124  15.876  0.5654 -0.5875  0.8861
11608TIP3    H256316   3.154   3.210  15.920  0.2634 -1.0071  2.6100
11609TIP3   OH256317   4.415   4.487   0.881 -0.1771  0.1328 -0.2978
11609TIP3    H156318   4.400   4.577   0.910 -0.8861  0.5320 -1.7840
11609TIP3    H256319   4.408   4.492   0.785  0.0984 -1.4479 -0.4222
11610TIP3   OH256320   5.349   5.860  12.279  0.3422  0.3168  0.3918
11610TIP3    H156321   5.441   5.839  12.263  0.4491 -0.4658  1.9048
11610TIP3    H256322   5.349   5.917  12.355 -0.4775 -0.7130  1.2046
11611TIP3   OH256323   2.839   1.269   3.618 -0.6386 -0.1241  0.5908
11611TIP3    H156324   2.782   1.194   3.601  0.5048 -0.5104 -2.0790
11611TIP3    H256325   2.924   1.243   3.582 -0.1523  2.3325 -0.2178
11612TIP3   OH256326   6.509   6.547   4.335 -0.5345 -0.1739 -0.2576
11612TIP3    H156327   6.461   6.512   4.410 -1.2790 -1.6434 -1.3681
11612TIP3    H256328   6.601   6.546   4.362 -0.8546 -0.0133  0.8699
11613TIP3   OH256329   3.958   1.795  17.275  0.3326 -0.0704 -0.0351
11613TIP3    H156330   3.868   1.762  17.272  1.3755 -3.2489 -2.1763
11613TIP3    H256331   3.968   1.845  17.194  0.2357  1.1785  0.7057
11614TIP3   OH256332   3.374   2.104  12.333  0.3845  0.2316  0.1176
11614TIP3    H156333   3.313   2.177  12.324  0.0683  0.0122  0.4134
11614TIP3    H256334   3.453   2.144  12.370 -0.1927  0.2547  1.4012
11615TIP3   OH256335   4.369   0.989  11.088 -0.7524 -0.0916 -0.0948
11615TIP3    H156336   4.299   1.035  11.136  0.0908 -0.3115  1.3992
11615TIP3    H256337   4.405   1.055  11.029  0.1014  1.0911  1.6621
11616TIP3   OH256338   4.100   0.783   0.233  0.5947 -0.0449 -0.7880
11616TIP3    H156339   4.059   0.860   0.272  0.0176 -1.3391  1.3293
11616TIP3    H256340   4.194   0.794   0.251  0.6502  0.6424 -1.4411
11617TIP3   OH256341   5.631   1.851  14.842 -0.0971  0.2579 -0.2539
11617TIP3    H156342   5.711   1.904  14.842 -0.3537  0.6654  0.6787
11617TIP3    H256343   5.658   1.768  14.802  0.9565  0.1409  0.6435
11618TIP3   OH256344   1.296   0.007  12.536  0.3259  0.1734 -0.1164
11618TIP3    H156345   1.345  -0.071  12.512 -0.1787 -0.0186 -0.5490
11618TIP3    H256346   1.322   0.026  12.626 -0.5309 -1.2632  0.4586
11619TIP3   OH256347   1.236   2.019   0.927 -0.6560 -0.5119  0.1436
11619TIP3    H156348   1.214   2.076   1.000 -1.8625 -2.3104  1.2461
11619TIP3    H256349   1.176   1.945   0.934 -1.1488 -0.5677 -2.9434
11620TIP3   OH256350   5.020   0.395  11.756 -0.2872  0.3223  0.2633
11620TIP3    H156351   5.014   0.382  11.850 -1.5883 -1.2741  0.0005
11620TIP3    H256352   5.104   0.440  11.743  0.0646  0.2690  2.1313
11621TIP3   OH256353   2.506   5.385  12.690 -0.5778  0.5153  0.1579
11621TIP3    H156354   2.498   5.305  12.741 -0.8599  1.2650  1.3127
11621TIP3    H256355   2.501   5.356  12.599 -2.4102 -0.6005  0.5700
11622TIP3   OH256356   0.004   0.645   1.927 -0.7986  0.0465 -0.5002
11622TIP3    H156357   0.018   0.661   2.020  0.6675 -1.7554 -0.3504
11622TIP3    H256358   0.044   0.721   1.884  0.8004 -0.2933  0.2992
11623TIP3   OH256359   4.429   4.475   2.364  0.0793 -0.4231  0.9677
11623TIP3    H156360   4.516   4.514   2.365  1.1536 -2.5554 -0.4063
11623TIP3    H256361   4.435   4.399   2.422 -0.4828 -1.2390  0.0110
11624TIP3   OH256362   1.777   5.574   3.734 -0.4651 -0.4763  0.4500
11624TIP3    H156363   1.781   5.664   3.700  1.4691 -0.0568  1.5834
11624TIP3    H256364   1.743   5.585   3.823 -0.1294 -0.8471  0.6242
11625TIP3   OH256365   0.784   2.436   3.359  0.1482  0.2570 -0.0949
11625TIP3    H156366   0.827   2.461   3.440  0.4157  1.2385 -0.5273
11625TIP3    H256367   0.748   2.349   3.376  2.0683 -0.4803  0.3558
11626TIP3   OH256368   3.612   3.675   5.931 -0.5284 -0.0977  0.1644
11626TIP3    H156369   3.646   3.752   5.977 -0.0760  0.1188 -0.5107
11626TIP3    H256370   3.526   3.660   5.969 -1.1564  1.5027 -0.5527
11627TIP3   OH256371   6.450   6.741  15.269 -0.2320  0.1772  0.5808
11627TIP3    H156372   6.385   6.676  15.295 -0.4990  0.2422  0.0699
11627TIP3    H256373   6.418   6.777  15.187  0.5002  0.1346  0.2648
11628TIP3   OH256374   4.347   2.618  14.082 -0.5588  0.3737  0.5424
11628TIP3    H156375   4.268   2.589  14.127 -0.5832  0.4892  0.5747
11628TIP3    H256376   4.392   2.673  14.146  0.0832 -0.5551  0.9021
11629TIP3   OH256377   6.083   5.454  14.882 -0.8286 -1.0962  0.3600
11629TIP3    H156378   6.045   5.438  14.969  1.7581 -0.6522  1.6727
11629TIP3    H256379   6.083   5.549  14.874 -2.5747 -1.1537 -0.9335
11630TIP3   OH256380   2.359   3.221  11.543  0.0574  0.2215 -0.2152
11630TIP3    H156381   2.373   3.155  11.611 -1.4647  0.4190  0.3382
11630TIP3    H256382   2.377   3.176  11.461  1.4479 -0.1616  0.2681
11631TIP3   OH256383   2.338   6.377  17.337 -0.0075 -0.6916  0.1231
11631TIP3    H156384   2.344   6.469  17.310  2.4446 -0.6179  0.6865
11631TIP3    H256385   2.245   6.363  17.352 -0.4668  1.6952 -0.0159
11632TIP3   OH256386   5.880   1.936  14.779 -0.4045  1.0615 -0.1528
11632TIP3    H156387   5.913   2.023  14.757 -1.1765  0.9988 -1.6844
11632TIP3    H256388   5.955   1.892  14.820 -0.0242  2.4454  0.7246
11633TIP3   OH256389   3.552   2.345   3.753  0.3400  0.3276  0.0133
11633TIP3    H156390   3.457   2.357   3.764  0.3962 -0.2318  1.1762
11633TIP3    H256391   3.591   2.420   3.798  0.4823 -0.2751  0.9163
11634TIP3   OH256392   0.458   5.061   2.444  0.7613  0.4250 -0.7161
11634TIP3    H156393   0.403   5.134   2.472  1.0435  0.6460 -0.7484
11634TIP3    H256394   0.509   5.095   2.371  0.7956  0.1575 -0.8187
11635TIP3   OH256395   3.188   3.162   5.057  0.1789  0.0951  0.5911
11635TIP3    H156396   3.246   3.237   5.068 -0.2015  1.0859 -2.8861
11635TIP3    H256397   3.105   3.190   5.096  0.1486  1.3666 -0.3411
11636TIP3   OH256398   5.296   0.752   2.574  0.0772 -0.4667  0.5199
11636TIP3    H156399   5.311   0.841   2.543 -0.1532 -1.1043 -1.5648
11636TIP3    H256400   5.383   0.718   2.595  0.3989 -0.4003 -0.6460
11637TIP3   OH256401   3.517   0.173  11.260 -0.0636 -0.1646 -0.1185
11637TIP3    H156402   3.578   0.160  11.333  1.0368  0.5764 -0.8750
11637TIP3    H256403   3.574   0.184  11.184 -1.1923 -2.5831 -1.4071
11638TIP3   OH256404   3.577   3.598  15.339 -0.2051  0.3249 -0.7125
11638TIP3    H156405   3.501   3.599  15.397  0.6352  0.8727  0.4192
11638TIP3    H256406   3.586   3.689  15.309  1.1332  0.7038  0.7214
11639TIP3   OH256407   6.670   1.753  16.387  0.6840  0.1505 -0.4775
11639TIP3    H156408   6.606   1.824  16.382  0.6818  0.0647 -2.2019
11639TIP3    H256409   6.636   1.686  16.327  1.7943 -0.3879 -0.5303
11640TIP3   OH256410   6.121   6.328  14.208 -0.1350  0.0051  0.1412
11640TIP3    H156411   6.200   6.288  14.245  0.0486  1.0734  0.9506
11640TIP3    H256412   6.072   6.359  14.285 -0.0001  1.8155 -0.4768
11641TIP3   OH256413   2.452   0.132  13.830 -0.4639 -0.1214 -0.0034
11641TIP3    H156414   2.527   0.183  13.799  0.4017 -0.3189  1.6331
11641TIP3    H256415   2.413   0.186  13.899 -0.0061 -1.2856  1.2107
11642TIP3   OH256416   3.400   6.107  12.754  0.1428  0.2584  0.2642
11642TIP3    H156417   3.307   6.130  12.766 -0.1707 -1.2827  0.9611
11642TIP3    H256418   3.415   6.119  12.660 -1.1273 -0.6728 -0.0848
11643TIP3   OH256419   1.723   1.190   2.313 -0.3254  0.3584  0.2011
11643TIP3    H156420   1.656   1.258   2.308 -0.6379 -0.0016 -0.8214
11643TIP3    H256421   1.801   1.236   2.345 -0.8970  0.8942  0.8643
11644TIP3   OH256422   4.935   3.368  16.641 -0.6994  0.3204  0.1875
11644TIP3    H156423   4.949   3.273  16.639 -0.4291  0.2555  2.4014
11644TIP3    H256424   4.874   3.381  16.714 -2.3038  1.7161 -1.3141
11645TIP3   OH256425   4.431   2.220   1.076 -0.4298 -0.1660  0.3877
11645TIP3    H156426   4.383   2.166   1.138 -0.9869  0.9117  0.9079
11645TIP3    H256427   4.465   2.157   1.012 -2.0730 -1.0162  0.2976
11646TIP3   OH256428   2.604   1.856  11.969  0.6253 -0.0572 -0.3000
11646TIP3    H156429   2.578   1.932  12.021  0.3875 -1.5521  1.8656
11646TIP3    H256430   2.636   1.894  11.887 -0.6971  2.2872  0.1812
11647TIP3   OH256431   5.096   5.499  14.268  0.1228 -0.7134 -0.8621
11647TIP3    H156432   5.138   5.517  14.352  2.6117 -0.9984 -1.9464
11647TIP3    H256433   5.022   5.560  14.265 -0.8543 -1.5816  2.0173
11648TIP3   OH256434   1.649   5.365   3.521  0.7834 -0.2550 -0.2676
11648TIP3    H156435   1.646   5.418   3.601  2.4012 -0.2864 -0.1435
11648TIP3    H256436   1.627   5.276   3.551 -1.2505  0.1760 -0.3584
11649TIP3   OH256437   3.516   4.619   3.980 -0.1860 -0.0119  0.1634
11649TIP3    H156438   3.611   4.605   3.972 -0.1248 -0.0651  0.9301
11649TIP3    H256439   3.508   4.690   4.044 -0.6646  0.1329 -0.0510
11650TIP3   OH256440   3.293   1.450   3.415 -0.7686  0.4005 -0.2661
11650TIP3    H156441   3.310   1.367   3.371 -1.5708  0.2357 -0.2840
11650TIP3    H256442   3.350   1.513   3.372  1.2606 -0.4830  0.9789
11651TIP3   OH256443   2.248   4.924  12.104 -0.3202  0.1226  0.3626
11651TIP3    H156444   2.166   4.966  12.077 -0.3011 -0.4519 -0.6773
11651TIP3    H256445   2.221   4.853  12.162 -0.4342  0.8628  1.2302
11652TIP3   OH256446   1.004   5.058  11.392 -0.6437  0.2636 -0.5142
11652TIP3    H156447   0.971   4.969  11.378  1.7970 -0.4990 -1.9614
11652TIP3    H256448   0.974   5.107  11.315  1.8287 -0.5832 -2.1469
11653TIP3   OH256449   4.044   6.180   3.379  0.6193 -0.2127 -0.2533
11653TIP3    H156450   4.091   6.240   3.321  1.1463 -0.3033  0.0750
11653TIP3    H256451   4.111   6.146   3.438 -0.1679  1.3079  1.6357
11654TIP3   OH256452   4.643   1.517  13.315  0.0511  0.0787 -0.1176
11654TIP3    H156453   4.632   1.523  13.220 -0.9619 -2.1563 -0.2088
11654TIP3    H256454   4.592   1.590  13.350 -4.1139 -2.0459 -1.1657
11655TIP3   OH256455   2.858   5.010   1.343 -0.2496  0.4499  0.3737
11655TIP3    H156456   2.825   4.925   1.370 -0.4062 -0.5201 -2.5339
11655TIP3    H256457   2.945   5.016   1.382 -0.6568 -0.5255  1.4978
11656TIP3   OH256458   1.952   5.199   6.509 -0.1436 -0.0029  0.1618
11656TIP3    H156459   1.934   5.241   6.593  0.6637 -1.7589  1.2727
11656TIP3    H256460   1.979   5.270   6.451  1.0343  1.0391  1.9083
11657TIP3   OH256461   1.051   3.623   5.413 -0.2672  0.1078  0.1234
11657TIP3    H156462   1.079   3.532   5.397 -1.8054 -0.3522 -0.0932
11657TIP3    H256463   1.130   3.675   5.397  0.2126 -1.0341 -1.5246
11658TIP3   OH256464   1.663   6.459   0.658  0.4420  0.0675  0.1573
11658TIP3    H156465   1.674   6.555   0.659 -0.5210  0.2006 -0.7104
11658TIP3    H256466   1.734   6.427   0.714  1.2489  1.2430 -0.1383
11659TIP3   OH256467   0.665   5.252  15.054  0.5094 -0.5339 -0.2981
11659TIP3    H156468   0.741   5.236  14.999  0.5788  0.3999 -0.4760
11659TIP3    H256469   0.650   5.346  15.050 -0.4095 -0.6450  0.0614
11660TIP3   OH256470   2.277   6.544   1.309  0.6856 -0.4911  0.7168
11660TIP3    H156471   2.282   6.639   1.318  0.5925 -0.5613  1.7352
11660TIP3    H256472   2.254   6.513   1.397 -2.6179 -1.2388 -0.2388
11661TIP3   OH256473   2.699   3.151   0.018  0.5428 -0.3809  0.0786
11661TIP3    H156474   2.750   3.216  -0.032 -1.4904  0.5006 -0.9603
11661TIP3    H256475   2.643   3.110  -0.048  0.5394 -1.9706  1.0423
11662TIP3   OH256476   6.147   3.139   5.040 -0.1461  0.1109  0.5005
11662TIP3    H156477   6.120   3.231   5.049 -0.6908  0.2895 -2.1363
11662TIP3    H256478   6.064   3.091   5.031  0.1589 -0.6151  1.4143
11663TIP3   OH256479   2.409   6.179  12.458 -0.5014 -0.7419 -0.1199
11663TIP3    H156480   2.447   6.106  12.409 -1.0084 -0.4949 -0.8979
11663TIP3    H256481   2.406   6.252  12.395  0.3658  0.0768  0.7605
11664TIP3   OH256482   6.435   6.388   0.712  0.0415 -0.2982  0.1374
11664TIP3    H156483   6.433   6.309   0.656  0.6938 -0.1427 -0.1130
11664TIP3    H256484   6.361   6.440   0.681 -0.0721 -0.5700 -0.0596
11665TIP3   OH256485   0.179   5.153   2.688 -0.2646 -0.4396 -0.4829
11665TIP3    H156486   0.230   5.133   2.766  0.5341 -0.8851 -1.1074
11665TIP3    H256487   0.233   5.212   2.637 -0.7141 -0.2699 -0.7749
11666TIP3   OH256488   0.735   3.328   4.383 -0.1754 -0.0021  0.1539
11666TIP3    H156489   0.786   3.257   4.345 -0.6032 -0.1164 -0.2197
11666TIP3    H256490   0.790   3.405   4.374 -0.0643 -0.1262 -0.2360
11667TIP3   OH256491   1.192   2.468  15.570  0.0766 -0.4778  0.0907
11667TIP3    H156492   1.204   2.398  15.634  0.6349  1.7538  2.5925
11667TIP3    H256493   1.275   2.515  15.568 -0.6365  0.8282 -0.6255
11668TIP3   OH256494   2.925   5.502   4.582 -0.4084  0.2337  0.1925
11668TIP3    H156495   2.965   5.429   4.630 -2.5204 -0.8640  0.3898
11668TIP3    H256496   2.866   5.461   4.519  0.8862  1.7078 -2.1630
11669TIP3   OH256497   6.436   5.156   2.514  0.1365  0.3570  0.3189
11669TIP3    H156498   6.445   5.065   2.488  0.8605  0.6743 -0.6159
11669TIP3    H256499   6.429   5.154   2.609 -0.8397 -0.7327  0.2539
11670TIP3   OH256500   6.755   0.472   0.171 -0.1756 -0.7575 -0.3048
11670TIP3    H156501   6.691   0.474   0.241 -3.6358 -1.7706 -3.1313
11670TIP3    H256502   6.776   0.565   0.154 -0.0492 -0.4703  1.3133
11671TIP3   OH256503   3.644   6.719  17.019 -0.2626  0.8663 -0.5680
11671TIP3    H156504   3.670   6.659  17.089  0.2179  1.4575 -0.2266
11671TIP3    H256505   3.557   6.749  17.044  0.1075  1.4651  0.0671
11672TIP3   OH256506   4.572   1.280   1.421  0.1226  0.7343 -0.6937
11672TIP3    H156507   4.606   1.351   1.365 -1.2797  1.2671 -0.9007
11672TIP3    H256508   4.485   1.263   1.387  0.1492 -0.5744 -0.1337
11673TIP3   OH256509   0.159   1.105   3.176  0.6695  0.1313  0.6031
11673TIP3    H156510   0.078   1.079   3.218  0.7336 -0.4551  0.3695
11673TIP3    H256511   0.170   1.197   3.200 -0.3117  0.3501  0.2412
11674TIP3   OH256512   3.840   5.040   1.460  0.6422  0.0057 -0.2413
11674TIP3    H156513   3.819   5.005   1.373 -3.5949 -4.3915  2.0796
11674TIP3    H256514   3.912   4.986   1.491 -1.2661 -2.1203  0.7241
11675TIP3   OH256515   4.477   4.314   5.786 -0.2347  0.1857  0.4618
11675TIP3    H156516   4.401   4.268   5.819  0.0314 -0.3968  0.2791
11675TIP3    H256517   4.540   4.245   5.766  0.2156  0.6365  0.2970
11676TIP3   OH256518   3.766   5.936   4.459  0.0903 -0.0162 -0.0360
11676TIP3    H156519   3.822   5.986   4.519  0.5580 -1.6471  0.9317
11676TIP3    H256520   3.689   5.913   4.511  0.1557 -0.8003 -0.2717
11677TIP3   OH256521   2.120   1.170  13.407  0.2394  0.7302 -0.2783
11677TIP3    H156522   2.061   1.245  13.417 -1.6234 -0.7184  0.3743
11677TIP3    H256523   2.166   1.164  13.491 -1.3434 -0.1629  0.5890
11678TIP3   OH256524   5.859   5.677   5.796 -0.6880 -0.2636  0.1262
11678TIP3    H156525   5.799   5.681   5.721 -0.2581  0.4602 -0.1845
11678TIP3    H256526   5.834   5.751   5.851  0.3963  0.5107 -0.3836
11679TIP3   OH256527   5.892   3.450   3.447 -0.4814  0.6001 -0.1664
11679TIP3    H156528   5.943   3.379   3.484 -0.9481  0.6093  0.5174
11679TIP3    H256529   5.840   3.409   3.378 -0.4472  0.3605 -0.0497
11680TIP3   OH256530   1.484   5.500  12.816  0.2062  0.4368  0.8792
11680TIP3    H156531   1.502   5.407  12.832 -0.4709 -0.4687 -2.8367
11680TIP3    H256532   1.393   5.512  12.843  0.0764 -0.1557  0.7150
11681TIP3   OH256533   3.961   6.551  12.111  0.4175 -0.3473 -0.5090
11681TIP3    H156534   3.990   6.605  12.038 -1.8165  0.9130 -0.5272
11681TIP3    H256535   3.948   6.612  12.183 -0.5435 -1.0949 -0.0261
11682TIP3   OH256536   0.457   6.235  12.481  0.4244 -0.4246 -0.5244
11682TIP3    H156537   0.519   6.183  12.531  0.9906 -0.3298 -1.1190
11682TIP3    H256538   0.493   6.237  12.393 -0.8588 -1.0810 -1.0857
11683TIP3   OH256539   2.367   3.927   1.922  0.2157 -0.0883 -0.7342
11683TIP3    H156540   2.312   3.997   1.956 -1.2544 -0.7098 -1.7164
11683TIP3    H256541   2.317   3.890   1.850  0.9474 -2.1404 -0.2635
11684TIP3   OH256542   4.801   4.911  13.746  0.5611  0.2062 -0.6148
11684TIP3    H156543   4.801   4.817  13.766  0.1057 -0.0052 -1.5473
11684TIP3    H256544   4.869   4.947  13.803 -1.5200 -0.0992  2.3558
11685TIP3   OH256545   0.230   2.389  16.088  0.2196 -0.1141 -0.4993
11685TIP3    H156546   0.190   2.382  16.175  0.1014  1.0489 -0.4405
11685TIP3    H256547   0.309   2.441  16.103  1.3073 -1.6288 -0.7650
11686TIP3   OH256548   0.887   5.774   0.701  0.1825 -0.1507 -0.3564
11686TIP3    H156549   0.809   5.749   0.750 -0.0077 -1.6698 -1.3651
11686TIP3    H256550   0.876   5.867   0.684 -0.5228  0.0465  1.0462
11687TIP3   OH256551   4.419   1.524  13.617 -0.1230  0.2336 -0.2503
11687TIP3    H156552   4.397   1.613  13.591 -2.1742  0.4393  1.8841
11687TIP3    H256553   4.512   1.514  13.594 -0.6841  1.6583 -3.6876
11688TIP3   OH256554   4.292   2.824   0.597  0.1331  0.8087  0.2752
11688TIP3    H156555   4.321   2.850   0.685 -0.8292  0.2327  0.7850
11688TIP3    H256556   4.197   2.827   0.602 -0.0080 -1.4298 -0.0383
11689TIP3   OH256557   0.730   0.961  12.736 -0.1525 -0.2337  0.4737
11689TIP3    H156558   0.702   1.038  12.687 -0.0199  0.0318  0.8178
11689TIP3    H256559   0.649   0.923  12.769 -0.2138 -0.2184  0.3445
11690TIP3   OH256560   2.517   5.463  12.044 -1.0172  0.0083 -0.2846
11690TIP3    H156561   2.565   5.533  12.088 -1.5609  0.6204 -0.6342
11690TIP3    H256562   2.426   5.477  12.071 -0.7882 -2.4091  2.0895
11691TIP3   OH256563   6.652   0.552   5.450  0.0956 -0.8372 -0.3481
11691TIP3    H156564   6.745   0.529   5.444 -0.5646 -3.7582 -0.9526
11691TIP3    H256565   6.615   0.488   5.510 -1.5095  0.4359  0.0969
11692TIP3   OH256566   2.245   4.786   4.741 -0.0874 -0.5021  0.2191
11692TIP3    H156567   2.317   4.772   4.679  0.7166 -0.5125  1.1362
11692TIP3    H256568   2.261   4.722   4.811  0.0309  0.6745  1.3020
11693TIP3   OH256569   6.356   5.695   5.898  0.4481  0.2964  0.0020
11693TIP3    H156570   6.426   5.737   5.947 -0.7544  2.2527  0.1531
11693TIP3    H256571   6.279   5.748   5.916 -0.8109 -1.0475 -1.1599
11694TIP3   OH256572   2.023   2.601  13.484  0.0553  0.0893  0.1436
11694TIP3    H156573   1.986   2.652  13.556  0.5498 -0.1660  0.5765
11694TIP3    H256574   2.112   2.636  13.473  0.2826 -0.4591  0.2285
11695TIP3   OH256575   0.047   3.793  11.888 -0.0726 -0.3947  0.3484
11695TIP3    H156576  -0.003   3.873  11.872 -0.4039 -0.5931  0.3562
11695TIP3    H256577   0.138   3.821  11.895 -0.2051 -0.0006  0.5093
11696TIP3   OH256578   1.490   3.906   3.807 -0.0074 -0.5034 -0.4257
11696TIP3    H156579   1.394   3.914   3.813  0.2035  3.1429  0.4409
11696TIP3    H256580   1.517   3.982   3.756  2.6082  0.6560  2.3737
11697TIP3   OH256581   6.303   3.426  13.299  0.4627  0.3130 -0.1187
11697TIP3    H156582   6.215   3.398  13.275  0.8892 -0.7804 -0.4577
11697TIP3    H256583   6.294   3.459  13.389 -0.3718  0.6558 -0.3195
11698TIP3   OH256584   5.302   3.283  15.759  0.2177 -0.2297 -0.1459
11698TIP3    H156585   5.222   3.243  15.725 -0.5725 -0.5367  1.9182
11698TIP3    H256586   5.328   3.347  15.693 -1.1654 -0.8265 -1.3082
11699TIP3   OH256587   6.307   3.934  15.023  0.3709 -0.0268 -0.0690
11699TIP3    H156588   6.254   3.914  14.946  0.0470  1.0870 -0.1549
11699TIP3    H256589   6.367   3.859  15.031  0.7520  0.0600 -1.7012
11700TIP3   OH256590   1.577   4.314   4.109 -0.6644  0.1797  0.0405
11700TIP3    H156591   1.632   4.235   4.112 -0.6881  0.1870  0.7873
11700TIP3    H256592   1.515   4.297   4.038 -1.2300 -0.8514  0.7499
11701TIP3   OH256593   0.842   3.199   5.761  0.1190 -0.8588 -0.5809
11701TIP3    H156594   0.886   3.160   5.685 -3.4551 -2.3483 -2.1146
11701TIP3    H256595   0.815   3.124   5.813 -1.8029 -0.1304 -0.4733
11702TIP3   OH256596   1.350   0.695   4.739 -0.5117 -0.3870  0.7324
11702TIP3    H156597   1.419   0.632   4.757  0.4206  0.3625 -0.0741
11702TIP3    H256598   1.349   0.753   4.816 -0.5314 -0.6363  0.9215
11703TIP3   OH256599   6.544   0.868   2.228 -0.9470  0.0801 -0.1727
11703TIP3    H156600   6.498   0.932   2.282 -0.9219 -0.4705  0.5162
11703TIP3    H256601   6.483   0.795   2.219 -0.4392 -0.3968  0.2328
11704TIP3   OH256602   1.912   2.093   2.324  0.2256 -0.2374  0.3153
11704TIP3    H156603   1.862   2.096   2.406  0.1092  0.5778  0.2201
11704TIP3    H256604   1.968   2.015   2.333 -2.2933 -2.2398 -0.3303
11705TIP3   OH256605   6.617   1.266   0.931  0.3487 -0.0686  0.4330
11705TIP3    H156606   6.549   1.218   0.978  0.9063 -1.4188 -0.1099
11705TIP3    H256607   6.568   1.330   0.878 -0.5152 -1.0338  0.0202
11706TIP3   OH256608   6.371   4.018   2.020  0.7095 -0.5702 -0.4414
11706TIP3    H156609   6.302   3.986   2.079  1.0328  0.7664  0.7174
11706TIP3    H256610   6.393   3.942   1.966  0.9249 -2.1024  1.6613
11707TIP3   OH256611   5.790   3.565  16.357 -0.0594 -0.1728 -0.0676
11707TIP3    H156612   5.809   3.651  16.392 -1.2814  0.1029 -0.0371
11707TIP3    H256613   5.842   3.559  16.276 -0.3089  0.7578 -0.2986
11708TIP3   OH256614   0.234   6.733   5.075  0.0783 -0.1771  0.3561
11708TIP3    H156615   0.287   6.798   5.121 -0.9521  1.2241 -0.3651
11708TIP3    H256616   0.191   6.684   5.145 -1.4457  1.9003  0.9629
11709TIP3   OH256617   3.676   5.251  14.523  0.2600 -0.0246 -0.0201
11709TIP3    H156618   3.584   5.227  14.513  0.2861 -1.5169  2.5126
11709TIP3    H256619   3.720   5.169  14.546  1.7560  1.0841  1.2873
11710TIP3   OH256620   3.517   6.257  11.808  0.0199 -0.2496 -0.3464
11710TIP3    H156621   3.494   6.346  11.834  1.9788  0.1407  0.2734
11710TIP3    H256622   3.612   6.252  11.823  0.1036 -2.1584 -1.2194
11711TIP3   OH256623   4.326   3.470   2.261 -0.1585 -0.6349 -0.0332
11711TIP3    H156624   4.406   3.465   2.210 -2.1230 -0.8761 -3.3637
11711TIP3    H256625   4.321   3.562   2.289 -0.1511  0.1547 -2.4234
11712TIP3   OH256626   2.958   5.138  11.913 -0.4470  0.7863  0.1512
11712TIP3    H156627   3.023   5.200  11.881  1.6371 -1.0361  0.5820
11712TIP3    H256628   2.880   5.155  11.861  0.4467  2.8596 -0.6056
11713TIP3   OH256629   6.531   5.790  10.973  0.6194 -0.2151 -0.4438
11713TIP3    H156630   6.559   5.715  10.921 -1.1724 -0.3371 -1.3197
11713TIP3    H256631   6.505   5.752  11.057 -0.0264 -0.5589 -0.7894
11714TIP3   OH256632   0.424   6.677  16.172 -0.5042  0.1089  0.0534
11714TIP3    H156633   0.442   6.609  16.237  1.7976  0.2638 -0.3379
11714TIP3    H256634   0.412   6.629  16.090 -3.7775 -0.1159  0.5402
11715TIP3   OH256635   5.339   2.964  14.809  0.1750  0.3695  0.2057
11715TIP3    H156636   5.247   2.973  14.785  0.2258  0.9084  0.1920
11715TIP3    H256637   5.345   2.877  14.849 -0.1529 -0.0398 -0.6034
11716TIP3   OH256638   2.427   6.683   2.203  0.2417  0.4438  0.2365
11716TIP3    H156639   2.381   6.726   2.276 -1.5410 -1.6236  0.4093
11716TIP3    H256640   2.397   6.731   2.125 -1.4113 -0.1416  0.4603
11717TIP3   OH256641   0.563   4.066  17.094  0.3687  0.4230 -0.1133
11717TIP3    H156642   0.602   4.091  17.177  0.1107 -1.7602  0.7408
11717TIP3    H256643   0.538   4.148  17.052  2.3867  1.6805  1.0133
11718TIP3   OH256644   1.018   1.400  17.194  0.0920 -0.0820  0.4535
11718TIP3    H156645   0.982   1.487  17.213  1.6922  0.4817  1.0809
11718TIP3    H256646   0.951   1.358  17.141 -0.0957  2.1154 -1.2147
11719TIP3   OH256647   4.660   2.341  14.478  0.0266  0.1666  0.4234
11719TIP3    H156648   4.636   2.347  14.571  0.0107 -0.1528  0.4389
11719TIP3    H256649   4.749   2.376  14.474 -0.3886  1.2829  0.3828
11720TIP3   OH256650   0.517   4.828  11.451  0.8353  0.1083  0.1853
11720TIP3    H156651   0.581   4.801  11.384  1.1838 -0.8740  0.8911
11720TIP3    H256652   0.451   4.877  11.402  1.4720  0.0568 -0.7617
11721TIP3   OH256653   4.110   5.598   4.908  0.0895 -0.2388  0.1570
11721TIP3    H156654   4.067   5.621   4.825 -1.2206 -1.0334  0.5931
11721TIP3    H256655   4.060   5.644   4.975 -0.2605 -1.3740  0.6945
11722TIP3   OH256656   6.685   4.847  15.751  0.3514  0.4794 -0.6246
11722TIP3    H156657   6.641   4.930  15.737  1.0925  0.9088 -0.4651
11722TIP3    H256658   6.697   4.811  15.663  0.0268  0.5339 -0.6928
11723TIP3   OH256659   2.829   4.885  16.909 -0.4618  0.0802 -0.3813
11723TIP3    H156660   2.839   4.844  16.994 -0.8964 -0.4720 -0.5948
11723TIP3    H256661   2.821   4.978  16.928 -0.7537 -0.0607  0.1937
11724TIP3   OH256662   2.375   3.489  17.106 -0.2775  0.0319  0.4312
11724TIP3    H156663   2.318   3.555  17.144 -0.2892 -0.0643  0.5825
11724TIP3    H256664   2.438   3.539  17.053  1.9970  0.5366  3.3488
11725TIP3   OH256665   5.732   2.470  17.007 -0.6698 -0.1077  0.5533
11725TIP3    H156666   5.658   2.495  16.951  0.1759 -0.1029 -0.6121
11725TIP3    H256667   5.730   2.534  17.078 -1.3367  0.3588  0.1402
11726TIP3   OH256668   5.176   5.607  13.324 -0.1037 -0.2533 -0.2441
11726TIP3    H156669   5.241   5.651  13.378 -0.4771  0.3143 -0.2425
11726TIP3    H256670   5.150   5.673  13.259 -1.9660  0.1516  0.8440
11727TIP3   OH256671   3.523   1.573   5.838 -0.1319 -0.0982 -0.6874
11727TIP3    H156672   3.562   1.488   5.861 -0.4368  0.1296  0.7770
11727TIP3    H256673   3.434   1.551   5.811  0.1837 -0.3563 -1.5701
11728TIP3   OH256674   0.384   5.552   0.414  0.7699  0.0383  0.1023
11728TIP3    H156675   0.425   5.610   0.478  0.4642 -0.4702  0.7780
11728TIP3    H256676   0.295   5.539   0.447  1.1577 -1.6813  0.5970
11729TIP3   OH256677   6.671   0.691  13.333  0.3241 -0.4327 -0.5421
11729TIP3    H156678   6.584   0.678  13.371  1.6365 -0.9660  2.6830
11729TIP3    H256679   6.657   0.691  13.239 -3.1387 -0.4807 -0.1535
11730TIP3   OH256680   1.412   4.162   0.887  0.9013  0.0442 -0.3572
11730TIP3    H156681   1.351   4.191   0.820  2.1726  1.7812 -0.8440
11730TIP3    H256682   1.360   4.159   0.968 -0.0800  0.3083 -0.9644
11731TIP3   OH256683   5.376   4.518   2.591  0.1208  0.6075  0.1338
11731TIP3    H156684   5.357   4.600   2.636 -1.2572 -0.3226  1.3375
11731TIP3    H256685   5.423   4.465   2.656  0.4308  0.2013 -0.4122
11732TIP3   OH256686   3.250   0.778  14.446  0.4481 -0.2393 -0.7081
11732TIP3    H156687   3.171   0.727  14.461 -1.2843  1.8427 -2.2159
11732TIP3    H256688   3.262   0.778  14.351  1.0407  1.1564 -0.6679
11733TIP3   OH256689   0.721   3.653  13.348  0.0810  0.0605  0.4025
11733TIP3    H156690   0.657   3.594  13.387 -0.8757  1.7431  1.5284
11733TIP3    H256691   0.760   3.698  13.422  0.8889  0.7416 -0.4091
11734TIP3   OH256692   6.297   2.377  13.923  0.8559  0.6349 -0.8705
11734TIP3    H156693   6.308   2.400  14.015  1.0435 -1.5227 -0.2998
11734TIP3    H256694   6.364   2.428  13.877  2.4244 -0.0877  0.5098
11735TIP3   OH256695   4.959   0.101  11.660  0.1250 -0.1477 -0.1357
11735TIP3    H156696   5.049   0.131  11.646 -0.0558  1.3234  1.5180
11735TIP3    H256697   4.909   0.181  11.677 -1.5773 -0.9107 -1.2635
11736TIP3   OH256698   5.672   5.174  11.681 -0.0860  0.1844  0.1746
11736TIP3    H156699   5.718   5.227  11.616 -1.2889  0.7623 -0.2314
11736TIP3    H256700   5.582   5.170  11.649 -0.1356 -1.7297  0.4349
11737TIP3   OH256701   1.526   1.968   0.164  0.2671  0.2301  0.0187
11737TIP3    H156702   1.618   1.995   0.156  0.2641  0.9272  1.9096
11737TIP3    H256703   1.477   2.040   0.125  0.4809  0.1416 -0.4290
11738TIP3   OH256704   3.562   6.634   3.497 -0.3675  0.0876 -0.1170
11738TIP3    H156705   3.478   6.678   3.503 -1.4503 -1.6484 -1.4221
11738TIP3    H256706   3.542   6.549   3.457  1.9429 -0.5659 -0.0597
11739TIP3   OH256707   4.549   4.045   5.945 -0.1483 -0.2967  0.1553
11739TIP3    H156708   4.623   4.089   5.987  0.1635  0.3310 -1.0023
11739TIP3    H256709   4.579   4.026   5.856 -1.1039 -0.7569 -0.0868
11740TIP3   OH256710   0.801   0.554  14.979  0.0596 -0.0386  0.6443
11740TIP3    H156711   0.798   0.599  14.895  0.2961  0.1883  0.7562
11740TIP3    H256712   0.881   0.501  14.975 -0.4604 -0.8238  0.3253
11741TIP3   OH256713   1.294   4.517   5.462  0.2456 -0.5767 -0.0187
11741TIP3    H156714   1.354   4.585   5.492 -0.5786  0.3813 -0.4715
11741TIP3    H256715   1.277   4.539   5.370  0.0831 -1.4873 -0.2189
11742TIP3   OH256716   6.250   4.072   2.532  0.3982 -0.3564  0.6058
11742TIP3    H156717   6.328   4.034   2.492 -0.1602 -1.0437  0.1413
11742TIP3    H256718   6.270   4.165   2.540  0.2065 -0.0052 -2.1170
11743TIP3   OH256719   4.512   6.194  14.040  0.1690  0.2304  0.3592
11743TIP3    H156720   4.417   6.201  14.032 -0.3035 -1.3465  3.1161
11743TIP3    H256721   4.544   6.282  14.021 -1.8338  0.8292 -0.5481
11744TIP3   OH256722   0.097   0.131  15.724 -0.0436 -0.2355 -0.0551
11744TIP3    H156723   0.155   0.079  15.668 -0.7402 -0.4700 -0.5726
11744TIP3    H256724   0.030   0.069  15.753 -0.8398  0.3453 -0.6146
11745TIP3   OH256725   5.810   1.000  14.995 -0.7743  0.7359 -0.9088
11745TIP3    H156726   5.863   0.922  14.979 -0.7265  1.0894 -2.5838
11745TIP3    H256727   5.722   0.966  15.011 -0.4638  0.2719 -0.0677
11746TIP3   OH256728   1.631   0.288  12.397 -0.1299  0.3876  0.3287
11746TIP3    H156729   1.593   0.226  12.336 -0.9430  1.0881  0.1172
11746TIP3    H256730   1.574   0.284  12.474  0.1743  0.4152  0.5568
11747TIP3   OH256731   5.055   6.479   2.843  0.0320  0.1125  0.0761
11747TIP3    H156732   5.096   6.564   2.824 -1.1604  0.7745  0.3868
11747TIP3    H256733   4.983   6.499   2.902  0.2205 -1.2330  0.8010
11748TIP3   OH256734   6.404   3.297  15.761  0.0840 -0.3866 -0.0353
11748TIP3    H156735   6.454   3.356  15.818  1.5187 -1.1196 -0.4628
11748TIP3    H256736   6.393   3.347  15.679 -2.3106  0.8119  0.9388
11749TIP3   OH256737   3.259   3.443   2.185 -0.5569 -0.4496  0.6793
11749TIP3    H156738   3.323   3.496   2.233 -0.5171 -0.5472  0.7347
11749TIP3    H256739   3.179   3.496   2.185  0.2211  0.8623 -1.6544
11750TIP3   OH256740   0.143   0.671  12.566 -0.2546 -0.3205 -0.5875
11750TIP3    H156741   0.123   0.655  12.658  3.7574 -1.0143  0.3231
11750TIP3    H256742   0.130   0.586  12.524  1.1018 -0.8782  0.0709
11751TIP3   OH256743   2.269   2.332   0.982  0.5762  0.3475  0.3067
11751TIP3    H156744   2.176   2.351   0.971  0.6913  0.4425 -0.6138
11751TIP3    H256745   2.294   2.376   1.063  0.3380  2.3317 -0.6371
11752TIP3   OH256746   2.535   2.974  16.182  0.2885  0.0430 -0.3016
11752TIP3    H156747   2.468   3.028  16.223 -0.7490 -1.4495  0.0413
11752TIP3    H256748   2.597   2.955  16.252  0.8852  1.0974 -0.5223
11753TIP3   OH256749   6.182   5.467  16.290 -0.3482  0.7878  0.4065
11753TIP3    H156750   6.262   5.420  16.268 -0.7761 -0.3641  1.2280
11753TIP3    H256751   6.212   5.557  16.308  0.8645  0.2417  1.2942
11754TIP3   OH256752   1.044   3.983   2.228 -0.5282 -0.2208 -0.1089
11754TIP3    H156753   1.139   3.981   2.242 -0.6047  0.3219  0.5906
11754TIP3    H256754   1.031   4.054   2.165 -0.4978  0.0283  0.1588
11755TIP3   OH256755   1.531   3.710  14.936 -0.4854  0.2601  0.4399
11755TIP3    H156756   1.586   3.668  14.870 -1.5069  0.0231 -0.2846
11755TIP3    H256757   1.592   3.737  15.004  0.6458  0.7309 -0.7135
11756TIP3   OH256758   2.315   3.863   2.286  0.1775  0.5455  0.2423
11756TIP3    H156759   2.268   3.855   2.203  1.0637  1.2375 -0.3427
11756TIP3    H256760   2.407   3.875   2.261  0.4480  0.8707  1.3185
11757TIP3   OH256761   0.326   0.427   1.175  0.1961  0.0602 -1.0783
11757TIP3    H156762   0.407   0.394   1.136  0.8433  0.3043  0.0419
11757TIP3    H256763   0.258   0.405   1.111  1.2388  0.5250 -2.3804
11758TIP3   OH256764   2.108   2.466  11.990 -0.3709  0.1780  0.1996
11758TIP3    H156765   2.067   2.512  11.918 -1.4191 -1.7449 -0.5012
11758TIP3    H256766   2.131   2.380  11.954  1.2255 -0.0123  1.5210
11759TIP3   OH256767   4.938   4.967   2.343  0.2998 -0.2432  0.3300
11759TIP3    H156768   4.908   4.890   2.295  0.8154  1.1568 -2.4281
11759TIP3    H256769   4.858   5.014   2.367  0.0046  0.7146 -2.2239
11760TIP3   OH256770   3.020   5.062   0.065  0.2810  0.2549  0.3603
11760TIP3    H156771   2.961   4.992   0.093  0.9326 -0.4340  0.0326
11760TIP3    H256772   3.014   5.128   0.134  1.0215 -0.9140  1.5676
11761TIP3   OH256773   5.075   5.761   2.874  0.2871  0.5521 -0.5531
11761TIP3    H156774   5.118   5.737   2.792  0.7805 -0.1984 -0.0833
11761TIP3    H256775   5.100   5.853   2.888  0.2608  0.6622 -1.1976
11762TIP3   OH256776   6.164   3.289   1.200 -0.1170 -0.7739 -0.5441
11762TIP3    H156777   6.177   3.365   1.256  1.6302 -0.3086 -1.5004
11762TIP3    H256778   6.074   3.261   1.217  0.5814 -1.2806  3.2086
11763TIP3   OH256779   5.611   3.331   1.542  0.5445 -0.1293 -0.1499
11763TIP3    H156780   5.536   3.347   1.600 -0.6363  0.4767 -1.7698
11763TIP3    H256781   5.624   3.236   1.546 -1.2526 -0.4520 -0.8943
11764TIP3   OH256782   6.419   6.665  11.786  0.4899  0.7411  0.2689
11764TIP3    H156783   6.347   6.614  11.823  0.6372  0.0876 -0.3177
11764TIP3    H256784   6.397   6.673  11.693  2.3155 -1.5322 -0.4323
11765TIP3   OH256785   4.628   1.539   6.016  0.2002 -0.0069 -0.3698
11765TIP3    H156786   4.556   1.582   6.062  0.0453 -0.2801 -0.3541
11765TIP3    H256787   4.623   1.448   6.043 -0.3160 -0.3210 -1.4516
11766TIP3   OH256788   5.144   1.500   5.871  0.6240  0.1407  0.4771
11766TIP3    H156789   5.184   1.452   5.798 -3.4146 -1.4992 -0.9269
11766TIP3    H256790   5.159   1.444   5.947  0.0120 -1.0608 -0.2497
11767TIP3   OH256791   2.007   1.170   2.130  0.2884 -0.0038  0.7257
11767TIP3    H156792   2.051   1.233   2.072  0.4352 -0.0712  0.7618
11767TIP3    H256793   1.989   1.219   2.210  0.2238  0.0473  0.6797
11768TIP3   OH256794   0.853   0.768   1.710  0.3840  0.2592 -0.0171
11768TIP3    H156795   0.945   0.795   1.711  0.8608 -1.2865 -0.5547
11768TIP3    H256796   0.819   0.797   1.795  1.6130  0.0180  0.5810
11769TIP3   OH256797   0.953   3.046   5.309  0.2766 -0.5150  0.5481
11769TIP3    H156798   0.906   3.128   5.297  1.6927  0.0973 -1.3569
11769TIP3    H256799   0.981   3.047   5.401 -1.3272  0.2082  1.0592
11770TIP3   OH256800   2.369   3.529   0.697  0.0599  0.5095 -0.1851
11770TIP3    H156801   2.391   3.444   0.734 -1.9699  0.5872  1.3635
11770TIP3    H256802   2.438   3.546   0.633  0.1090 -2.6167 -1.1245
11771TIP3   OH256803   1.506   6.547  12.215 -0.1981 -0.5086 -0.0740
11771TIP3    H156804   1.412   6.560  12.226 -0.1512  0.3639 -0.6064
11771TIP3    H256805   1.544   6.570  12.299 -0.5288 -1.7910  0.4507
11772TIP3   OH256806   3.817   4.093  16.750  0.3451  0.3124 -0.2793
11772TIP3    H156807   3.857   4.118  16.833 -1.9891  1.7904  0.4956
11772TIP3    H256808   3.881   4.034  16.709  0.8753 -1.9148  3.3093
11773TIP3   OH256809   4.108   6.628   1.671 -0.2481  0.2205  0.6927
11773TIP3    H156810   4.165   6.685   1.723  0.3899 -0.2175  0.4821
11773TIP3    H256811   4.089   6.679   1.592  2.6236 -0.8730 -0.8423
11774TIP3   OH256812   3.609   6.250   1.524 -0.1321  0.3698  0.8744
11774TIP3    H156813   3.557   6.238   1.445  1.7819  0.2532 -0.4227
11774TIP3    H256814   3.580   6.180   1.583 -0.7996 -0.2310 -0.1441
11775TIP3   OH256815   1.326   6.447   0.017  0.3778  0.1175 -0.3809
11775TIP3    H156816   1.252   6.442   0.077  0.3452  0.0981 -0.4217
11775TIP3    H256817   1.403   6.446   0.073  0.3331  2.6399 -0.1501
11776TIP3   OH256818   6.568   6.375  15.388 -0.1335  0.3927 -0.7007
11776TIP3    H156819   6.638   6.394  15.325  0.7682 -1.0537 -0.1829
11776TIP3    H256820   6.504   6.324  15.338  0.8707 -1.2880 -0.3735
11777TIP3   OH256821   2.444   2.054  17.402 -0.2496  0.5317 -0.1565
11777TIP3    H156822   2.449   2.090  17.490  1.3985  0.4047 -0.1630
11777TIP3    H256823   2.482   1.966  17.410  0.6613  0.8160 -1.1214
11778TIP3   OH256824   0.221   1.600  11.406  0.0967  0.3527  0.5759
11778TIP3    H156825   0.279   1.527  11.385 -0.6758 -0.3480  0.7729
11778TIP3    H256826   0.277   1.666  11.444  0.7295 -0.4030  0.9835
11779TIP3   OH256827   5.425   2.794  10.822 -0.2124 -0.1453 -0.1266
11779TIP3    H156828   5.518   2.810  10.838 -0.5567  0.3570  1.5217
11779TIP3    H256829   5.398   2.734  10.891 -1.5140  1.1373  0.5362
11780TIP3   OH256830   2.117   4.720   3.223  0.8585  0.4255 -0.1660
11780TIP3    H156831   2.166   4.638   3.219  1.1508  0.5870  0.0799
11780TIP3    H256832   2.068   4.722   3.141 -0.6584 -0.9266  0.6536
11781TIP3   OH256833   5.983   5.369  16.473  0.4130  0.7703  0.5597
11781TIP3    H156834   6.037   5.301  16.514  1.2494  1.9146  1.4298
11781TIP3    H256835   6.039   5.408  16.406  0.0254  0.7692  0.2318
11782TIP3   OH256836   1.405   5.053  15.885 -0.5608  0.1986  0.1143
11782TIP3    H156837   1.363   4.974  15.851 -0.4513  0.9006 -1.7749
11782TIP3    H256838   1.462   5.022  15.955  0.3427 -1.5744 -1.3430
11783TIP3   OH256839   0.146   0.021  11.167 -0.3828  0.5226  0.4938
11783TIP3    H156840   0.082   0.089  11.144 -1.4443 -1.4428 -3.4186
11783TIP3    H256841   0.230   0.055  11.137 -0.7959  0.4459 -0.8083
11784TIP3   OH256842   0.473   4.546   2.641 -0.2316  0.0226  0.0175
11784TIP3    H156843   0.503   4.625   2.596 -0.5696 -0.4496 -1.0883
11784TIP3    H256844   0.384   4.567   2.669  0.6753  1.0515  2.3713
11785TIP3   OH256845   1.464   2.680  16.973 -0.5760 -0.0851 -0.7209
11785TIP3    H156846   1.529   2.647  17.034 -0.8920  1.3438  0.4580
11785TIP3    H256847   1.424   2.602  16.935 -1.9495 -1.2084  2.5961
11786TIP3   OH256848   4.967   6.634   0.192 -0.3017 -0.1666  1.2505
11786TIP3    H156849   4.879   6.672   0.195 -0.3009  0.1801 -1.2209
11786TIP3    H256850   4.959   6.552   0.241 -2.1573 -0.4191  0.6040
11787TIP3   OH256851   4.208   1.919  14.927  0.3396  0.6533  0.3368
11787TIP3    H156852   4.205   1.896  14.834  2.5776  0.9815  0.1284
11787TIP3    H256853   4.120   1.900  14.959 -1.2501  2.8422 -2.3478
11788TIP3   OH256854   3.412   2.432  15.710  0.0369 -0.0230  0.3866
11788TIP3    H156855   3.349   2.376  15.756  0.0179 -1.6646 -1.4866
11788TIP3    H256856   3.441   2.379  15.636  0.6518  2.1901 -1.0471
11789TIP3   OH256857   3.274   0.669  12.948  0.3505 -0.1341 -0.3152
11789TIP3    H156858   3.295   0.653  12.856 -1.3161  0.1746 -0.7906
11789TIP3    H256859   3.180   0.651  12.954  0.7208 -1.8317  1.7169
11790TIP3   OH256860   1.986   4.793  15.552 -0.6579  0.1756 -0.3105
11790TIP3    H156861   1.920   4.863  15.555  0.1948  1.0589 -1.4222
11790TIP3    H256862   1.996   4.773  15.459  1.7629  1.1893 -0.3286
11791TIP3   OH256863   2.262   0.186   1.150  0.8665  0.0894  0.5135
11791TIP3    H156864   2.220   0.254   1.098 -0.1129  0.0365  1.2140
11791TIP3    H256865   2.354   0.213   1.155  0.7276  0.7182 -0.2265
11792TIP3   OH256866   5.123   1.026   4.348  0.3458  0.1200 -0.0536
11792TIP3    H156867   5.063   1.100   4.340  0.6618  0.5733  1.3902
11792TIP3    H256868   5.082   0.956   4.297 -1.0895  0.6123  0.3707
11793TIP3   OH256869   6.729   0.733   5.951  0.2470  0.3726  0.1423
11793TIP3    H156870   6.711   0.822   5.980  0.5388  0.1292  1.0843
11793TIP3    H256871   6.755   0.744   5.859 -0.1045  1.2082  0.1283
11794TIP3   OH256872   4.158   4.583   1.431 -0.2996  0.1286 -0.6288
11794TIP3    H156873   4.188   4.673   1.438  1.8952 -0.6384  1.4187
11794TIP3    H256874   4.235   4.534   1.403 -1.8711 -0.9668 -3.4288
11795TIP3   OH256875   2.282   0.914   4.925 -0.1974 -0.4068  0.0703
11795TIP3    H156876   2.269   0.845   4.990 -0.9135 -0.6949 -0.3720
11795TIP3    H256877   2.216   0.980   4.946  1.8675  1.2266  1.8613
11796TIP3   OH256878   6.593   3.996   2.843  0.0333  0.2221  0.2676
11796TIP3    H156879   6.534   4.023   2.913 -0.4336  1.0625 -0.4431
11796TIP3    H256880   6.541   3.935   2.790  0.0673  0.3333  0.1058
11797TIP3   OH256881   6.058   4.495  14.873 -0.7316 -0.6145  0.4487
11797TIP3    H156882   6.042   4.410  14.913 -1.7685  0.1950  1.8325
11797TIP3    H256883   6.135   4.529  14.919 -1.7239  0.1721  1.6031
11798TIP3   OH256884   1.738   3.714  11.976 -0.9564 -0.5473  0.5034
11798TIP3    H156885   1.691   3.787  11.936  2.0045  1.1717 -0.1490
11798TIP3    H256886   1.720   3.722  12.069 -0.8512  0.9278  0.4214
11799TIP3   OH256887   1.238   0.120   1.792  0.2946  0.1868 -0.3670
11799TIP3    H156888   1.292   0.045   1.815  0.3445  0.2036 -0.4303
11799TIP3    H256889   1.288   0.167   1.727  0.3876  0.4290 -0.1224
11800TIP3   OH256890   4.057   6.560   3.859  0.0149  0.3045 -0.7232
11800TIP3    H156891   4.152   6.548   3.854 -0.0607 -1.1704  0.5059
11800TIP3    H256892   4.036   6.613   3.783  1.6288 -0.7163 -1.9680
11801TIP3   OH256893   3.164   2.352  12.019 -0.1024  0.1993  0.4957
11801TIP3    H156894   3.121   2.437  12.009  1.0861  0.7692  0.0774
11801TIP3    H256895   3.130   2.300  11.946 -0.6121  0.3922  0.5854
11802TIP3   OH256896   3.936   5.678   1.565  0.2315  0.1221  0.5785
11802TIP3    H156897   3.900   5.685   1.654  1.7331  1.1444  1.1375
11802TIP3    H256898   4.031   5.682   1.577  0.6274 -2.5661 -0.8309
11803TIP3   OH256899   4.931   4.209   4.407  0.2463  0.0034 -0.2593
11803TIP3    H156900   5.021   4.186   4.431  0.4236 -0.0533 -0.9353
11803TIP3    H256901   4.910   4.150   4.335  1.3773  2.9712 -3.3397
11804TIP3   OH256902   1.001   4.302   0.338  0.5801 -0.0861 -0.6571
11804TIP3    H156903   1.038   4.380   0.379 -0.0952 -0.1329  0.0580
11804TIP3    H256904   0.906   4.312   0.349  0.4287 -0.4505 -1.5813
11805TIP3   OH256905   0.663   2.012   5.399  0.6994 -0.1127  0.2061
11805TIP3    H156906   0.680   2.097   5.359 -1.4023  0.4184  0.2951
11805TIP3    H256907   0.722   2.008   5.474  0.6879  1.3682  0.3215
11806TIP3   OH256908   0.492   1.448  16.401  0.4398 -0.1130  0.3360
11806TIP3    H156909   0.403   1.485  16.401  0.1522 -0.7828  1.0734
11806TIP3    H256910   0.517   1.447  16.309 -0.3833 -0.0688  0.1016
11807TIP3   OH256911   3.700   6.664  11.398 -0.0723 -0.0648  0.5051
11807TIP3    H156912   3.723   6.673  11.305  0.3724  1.1954  0.7277
11807TIP3    H256913   3.696   6.753  11.431 -1.0138 -0.4588  1.5310
11808TIP3   OH256914   5.429   6.706  17.088  0.1900 -0.6265  0.2471
11808TIP3    H156915   5.390   6.762  17.155  1.0198  0.1444  0.1050
11808TIP3    H256916   5.484   6.765  17.036  0.5590 -1.4492 -0.3197
11809TIP3   OH256917   0.749   1.965   1.391  0.1461 -0.0728 -0.3404
11809TIP3    H156918   0.681   2.010   1.340 -0.0541 -0.0891 -0.0898
11809TIP3    H256919   0.744   1.874   1.360  1.1582  0.2446 -1.4935
11810TIP3   OH256920   1.257   4.750  12.381 -0.1263  0.2881 -0.1990
11810TIP3    H156921   1.345   4.718  12.363  0.1652  1.1319 -0.3021
11810TIP3    H256922   1.229   4.793  12.300 -0.2034  0.9731  0.1858
11811TIP3   OH256923   6.572   2.350  15.538 -0.2817 -0.0539 -0.5771
11811TIP3    H156924   6.568   2.445  15.553 -1.0796 -0.2619  0.6738
11811TIP3    H256925   6.628   2.318  15.608  1.2122 -0.3598 -1.8788
11812TIP3   OH256926   2.165   4.593  10.884  0.3311  0.5109 -0.3130
11812TIP3    H156927   2.232   4.659  10.864  1.4479 -0.8890 -1.3675
11812TIP3    H256928   2.096   4.609  10.819  0.9273  0.2057 -1.0350
11813TIP3   OH256929   1.670   2.346  16.740 -0.1355 -0.0998  0.0705
11813TIP3    H156930   1.761   2.329  16.763 -0.2031 -0.0224  0.4047
11813TIP3    H256931   1.630   2.259  16.735  0.4570 -0.2953 -2.2768
11814TIP3   OH256932   2.448   4.122  17.239 -0.4835 -0.1178 -0.2349
11814TIP3    H156933   2.477   4.031  17.247 -0.0901 -0.0185 -0.5289
11814TIP3    H256934   2.356   4.115  17.214 -0.4095 -0.4364 -0.4274
11815TIP3   OH256935   6.276   1.885   6.236 -0.2803  0.4602  0.0977
11815TIP3    H156936   6.228   1.965   6.254 -0.7525  0.4091 -0.9201
11815TIP3    H256937   6.289   1.845   6.323 -1.2558  0.9378  0.4724
11816TIP3   OH256938   4.094   6.414   4.319 -0.5940  0.5786  0.1934
11816TIP3    H156939   4.102   6.399   4.225  0.0276 -1.8132  0.5663
11816TIP3    H256940   4.181   6.447   4.345 -0.3878  0.1131  0.1047
11817TIP3   OH256941   6.118   2.858  15.724  0.5276 -0.2894 -0.2284
11817TIP3    H156942   6.045   2.919  15.726 -1.5771 -2.6599 -0.5770
11817TIP3    H256943   6.165   2.873  15.806 -0.0340  1.5882 -0.2150
11818TIP3   OH256944   3.252   6.540  16.950 -0.2684 -0.8212 -0.7910
11818TIP3    H156945   3.275   6.598  17.023 -0.0600 -0.7425 -0.9176
11818TIP3    H256946   3.283   6.586  16.873  3.1275 -2.6124 -0.6858
11819TIP3   OH256947   5.664   5.132  13.720  0.2206  0.2131  0.1393
11819TIP3    H156948   5.615   5.205  13.757 -1.4059 -1.1543  0.8391
11819TIP3    H256949   5.627   5.119  13.633 -0.1280 -0.3069  0.3555
11820TIP3   OH256950   1.324   1.510   4.866 -0.4246 -0.4776  1.0238
11820TIP3    H156951   1.366   1.535   4.949  0.9700  0.2531  0.1521
11820TIP3    H256952   1.318   1.592   4.817 -3.2551 -0.4859  1.1992
11821TIP3   OH256953   4.394   5.471  17.469  0.3316 -0.3579 -0.6100
11821TIP3    H156954   4.436   5.386  17.458 -0.5091 -0.8235 -0.3054
11821TIP3    H256955   4.418   5.520  17.390  1.2777 -0.6777 -0.5234
11822TIP3   OH256956   1.972   2.065  15.765  0.1094  0.1426  0.4909
11822TIP3    H156957   2.042   2.076  15.829 -0.1893  0.2288  0.8060
11822TIP3    H256958   1.906   2.012  15.810 -0.8929  1.6523  0.8894
11823TIP3   OH256959   4.614   2.834  16.679 -0.8720  0.2292 -0.0043
11823TIP3    H156960   4.610   2.740  16.696  0.5969 -0.0023 -0.8173
11823TIP3    H256961   4.695   2.863  16.720 -1.1180  1.0784 -0.0914
11824TIP3   OH256962   5.818   5.801   5.510 -0.0312 -0.7201  0.2695
11824TIP3    H156963   5.794   5.884   5.468  0.3629  0.0317  1.4875
11824TIP3    H256964   5.743   5.744   5.496  0.1947 -0.5960 -1.6909
11825TIP3   OH256965   4.920   5.002   0.378  0.1712 -0.0178 -0.0017
11825TIP3    H156966   4.968   4.941   0.322 -0.2916 -0.2829 -0.1117
11825TIP3    H256967   4.831   4.967   0.381 -0.2648  0.9848 -0.5962
11826TIP3   OH256968   1.549   4.412   2.429 -0.3674  0.6825  0.3691
11826TIP3    H156969   1.465   4.435   2.391 -1.7304 -2.6040  1.0359
11826TIP3    H256970   1.601   4.380   2.355 -1.0557 -0.6137  0.4119
11827TIP3   OH256971   3.334   1.694   5.101 -0.3247  0.4997  0.0154
11827TIP3    H156972   3.315   1.601   5.111 -1.2680  0.6442 -0.3606
11827TIP3    H256973   3.391   1.715   5.175  0.2582 -0.4655 -0.1476
11828TIP3   OH256974   6.397   5.705   5.628  0.2105  0.0016 -0.1158
11828TIP3    H156975   6.382   5.659   5.711  0.9457 -0.0448 -0.0022
11828TIP3    H256976   6.385   5.797   5.649 -0.3094 -0.0636 -0.1207
11829TIP3   OH256977   3.581   5.083   2.689 -0.0555 -0.3382 -0.2408
11829TIP3    H156978   3.674   5.107   2.684 -0.5585  1.8727  0.0998
11829TIP3    H256979   3.534   5.163   2.665 -1.9275 -0.1284  3.4055
11830TIP3   OH256980   4.240   5.871  10.532  0.0782  0.4268  0.1345
11830TIP3    H156981   4.295   5.949  10.540 -1.7125  1.8415 -0.7116
11830TIP3    H256982   4.167   5.887  10.591 -1.1293  0.1701 -1.2403
11831TIP3   OH256983   1.826   0.698   1.498 -0.0488  0.0337  0.6658
11831TIP3    H156984   1.791   0.609   1.502 -1.5060  0.5394 -0.0325
11831TIP3    H256985   1.750   0.753   1.479  0.9721  1.3228  0.1303
11832TIP3   OH256986   1.008   5.221  13.397  0.3115 -0.2255 -0.0136
11832TIP3    H156987   0.991   5.218  13.491  0.1482  0.6608 -0.0061
11832TIP3    H256988   0.981   5.135  13.365 -0.0701 -0.3704  0.6793
11833TIP3   OH256989   0.141   1.038   6.309 -0.0438  0.1491  0.7783
11833TIP3    H156990   0.205   1.081   6.366 -0.6455  1.1769  0.7183
11833TIP3    H256991   0.057   1.076   6.335 -0.4346 -0.0415 -0.1748
11834TIP3   OH256992   0.129   5.280  14.208  0.0912 -0.0726 -0.0533
11834TIP3    H156993   0.131   5.376  14.216 -1.0878 -0.0895  0.7126
11834TIP3    H256994   0.123   5.249  14.299 -1.5260 -0.7681 -0.3513
11835TIP3   OH256995   4.851   6.352   0.400 -0.5028  0.6321  0.8587
11835TIP3    H156996   4.811   6.302   0.471  1.1632  0.7329  1.9357
11835TIP3    H256997   4.792   6.427   0.387 -1.0944  0.3448  1.8026
11836TIP3   OH256998   3.334   0.724  15.201  0.2715 -0.7983  0.2025
11836TIP3    H156999   3.341   0.806  15.251  0.4535 -0.5058 -0.2905
11836TIP3    H257000   3.313   0.752  15.112 -0.9535 -1.3606  0.2984
11837TIP3   OH257001   3.353   0.301  16.695  0.1181  0.6598 -0.1356
11837TIP3    H157002   3.430   0.354  16.677 -0.4497  1.5124 -0.0925
11837TIP3    H257003   3.308   0.294  16.610 -0.5155  1.4077  0.1234
11838TIP3   OH257004   2.465   6.109  16.150 -0.3042 -0.5196 -0.0097
11838TIP3    H157005   2.462   6.172  16.078  2.5532  0.8597  0.9347
11838TIP3    H257006   2.492   6.027  16.110  4.3597  0.9095 -0.3603
11839TIP3   OH257007   4.435   5.503  15.684 -0.0244 -0.0124 -0.5972
11839TIP3    H157008   4.400   5.559  15.754 -2.2697  0.2060 -1.7944
11839TIP3    H257009   4.462   5.423  15.729  1.3356  1.2052  0.8729
11840TIP3   OH257010   2.483   0.996   3.018 -0.1203  0.3153 -0.6606
11840TIP3    H157011   2.530   0.921   2.983 -0.4136  0.3529 -1.1453
11840TIP3    H257012   2.543   1.070   3.007  0.8031 -0.0860  1.2454
11841TIP3   OH257013   0.593   3.008   1.130  0.0110  0.5877 -0.1593
11841TIP3    H157014   0.652   3.082   1.113 -1.0370  1.1641 -1.4548
11841TIP3    H257015   0.626   2.938   1.073 -0.9405  1.1436 -1.4435
11842TIP3   OH257016   4.316   0.365   4.559 -0.3059 -0.5095 -0.5878
11842TIP3    H157017   4.238   0.406   4.596 -1.2359 -1.6311 -1.2394
11842TIP3    H257018   4.327   0.407   4.474  0.1350  0.0258 -0.2757
11843TIP3   OH257019   6.426   2.283   3.000 -0.7340 -0.2300  0.1038
11843TIP3    H157020   6.453   2.373   3.022  0.1739 -0.3414 -0.4916
11843TIP3    H257021   6.502   2.246   2.956 -2.2123 -0.2109 -2.6677
11844TIP3   OH257022   6.082   5.921   2.034  0.3496 -0.9515 -0.0937
11844TIP3    H157023   6.117   5.931   1.945 -1.6297  0.9900 -0.7538
11844TIP3    H257024   6.027   5.842   2.028  1.3447 -1.6669 -0.1508
11845TIP3   OH257025   0.723   0.691  11.599 -0.5737  0.2840  0.4379
11845TIP3    H157026   0.684   0.768  11.559  0.1438 -0.7261 -2.4043
11845TIP3    H257027   0.691   0.618  11.546  0.2124 -1.2037  1.9271
11846TIP3   OH257028   0.128   2.265   1.450  0.4611  0.4042 -0.0448
11846TIP3    H157029   0.094   2.176   1.463  3.9716 -0.9843  1.0459
11846TIP3    H257030   0.122   2.306   1.536  2.2156 -0.2166  0.4220
11847TIP3   OH257031   3.480   3.325  15.501 -0.5172  0.1823 -0.3572
11847TIP3    H157032   3.529   3.303  15.581  1.3682 -0.3577 -1.5807
11847TIP3    H257033   3.463   3.419  15.508 -2.3169 -0.2127  1.6316
11848TIP3   OH257034   1.049   6.312  16.723 -0.2919 -0.2747 -0.5304
11848TIP3    H157035   0.985   6.312  16.795 -0.7699 -2.1366 -0.9122
11848TIP3    H257036   1.017   6.378  16.662 -1.2203 -0.3846 -0.1744
11849TIP3   OH257037   0.726   3.464   1.351  0.7692  0.4179 -0.6540
11849TIP3    H157038   0.709   3.550   1.312 -0.5010  1.3531  1.6947
11849TIP3    H257039   0.769   3.485   1.434 -1.3794 -1.0189  0.9289
11850TIP3   OH257040   3.102   3.717  14.004 -0.6380 -0.0337  0.1226
11850TIP3    H157041   3.095   3.810  13.981 -0.9074 -0.1989 -0.4829
11850TIP3    H257042   3.191   3.692  13.978 -0.9754 -0.2456 -0.8760
11851TIP3   OH257043   6.628   3.561  11.619 -0.3299  0.0366  0.2737
11851TIP3    H157044   6.676   3.495  11.669  2.2318  2.7756  1.6964
11851TIP3    H257045   6.556   3.587  11.676 -0.6765 -0.6909  0.1767
11852TIP3   OH257046   4.684   5.896  16.581  0.0222  0.3073 -0.3564
11852TIP3    H157047   4.698   5.802  16.588 -1.3132  0.0620 -0.6439
11852TIP3    H257048   4.694   5.930  16.670  2.2173  0.1889 -0.5013
11853TIP3   OH257049   3.218   0.992  13.371 -0.5158  0.6281 -0.3883
11853TIP3    H157050   3.310   1.018  13.384  0.2073 -1.5739 -0.6414
11853TIP3    H257051   3.172   1.029  13.445  0.8357  0.7085  0.4463
11854TIP3   OH257052   4.162   4.636   2.969 -0.0445  0.2962  0.7131
11854TIP3    H157053   4.146   4.715   2.916  0.9442  0.3532  0.4822
11854TIP3    H257054   4.128   4.564   2.915  0.2529  0.4320  0.3395
11855TIP3   OH257055   5.578   0.643  13.869  0.0989 -0.3913  0.5354
11855TIP3    H157056   5.659   0.694  13.861  1.3302 -2.2781  0.4671
11855TIP3    H257057   5.578   0.614  13.960 -0.8130  0.0397  0.6820
11856TIP3   OH257058   3.154   5.834   1.229  0.5176  0.2682 -0.2720
11856TIP3    H157059   3.217   5.905   1.246 -0.5116  0.8498  1.4220
11856TIP3    H257060   3.107   5.861   1.151  1.4647  0.4827 -0.7783
11857TIP3   OH257061   4.895   5.624  13.964  0.1079 -0.3553 -0.2718
11857TIP3    H157062   4.898   5.650  14.056  0.8979  0.8128 -0.6024
11857TIP3    H257063   4.865   5.703  13.917  0.3185 -0.7377 -1.0758
11858TIP3   OH257064   4.886   3.486   5.209  0.3061 -0.2874 -0.1444
11858TIP3    H157065   4.828   3.534   5.267 -0.0433  0.3019 -0.9670
11858TIP3    H257066   4.894   3.399   5.250 -1.6634 -0.6064 -0.3243
11859TIP3   OH257067   2.335   5.497  16.283 -0.0252  0.0676 -0.3078
11859TIP3    H157068   2.332   5.587  16.313  0.2295 -0.0902  0.2056
11859TIP3    H257069   2.421   5.487  16.242 -0.1941  0.1558 -0.6874
11860TIP3   OH257070   0.028   0.550  14.043  0.6093 -0.0867  0.1626
11860TIP3    H157071   0.018   0.608  13.966  3.0832 -0.5178 -0.5645
11860TIP3    H257072   0.020   0.609  14.118 -0.2938  0.6055 -0.4455
11861TIP3   OH257073   6.237   0.918  17.501 -0.0672 -0.0479 -0.3510
11861TIP3    H157074   6.295   0.887  17.432 -0.3284 -0.2321 -0.4895
11861TIP3    H257075   6.156   0.868  17.489 -0.3258  0.3472 -0.2834
11862TIP3   OH257076   1.909   4.795  16.003 -0.0890  0.1886 -0.6770
11862TIP3    H157077   1.842   4.846  15.958 -0.4581 -0.0578 -0.4167
11862TIP3    H257078   1.992   4.825  15.966 -0.1780  2.0806  0.5579
11863TIP3   OH257079   4.588   6.734  12.650 -0.2254  0.2580 -0.3498
11863TIP3    H157080   4.594   6.692  12.564 -1.6747 -3.1445  1.0487
11863TIP3    H257081   4.672   6.779  12.660  1.8770 -2.9966 -1.7857
11864TIP3   OH257082   4.514   2.788  13.253 -0.4916  0.4970  0.3553
11864TIP3    H157083   4.503   2.700  13.217 -0.0677 -0.1132  1.6663
11864TIP3    H257084   4.458   2.789  13.331  1.3199  0.5487  1.7169
11865TIP3   OH257085   4.808   2.743   6.089  0.2259  0.4153  0.5355
11865TIP3    H157086   4.859   2.731   6.009 -1.1379  0.5340 -0.4009
11865TIP3    H257087   4.798   2.654   6.124 -0.7450  0.1056 -0.4735
11866TIP3   OH257088   1.604   1.436  13.187  0.0302 -0.0578  0.5933
11866TIP3    H157089   1.621   1.526  13.216 -1.2192  0.5378 -0.4418
11866TIP3    H257090   1.644   1.431  13.100 -0.5768 -0.2471  0.3202
11867TIP3   OH257091   6.083   1.250   0.910 -0.0826 -0.2941 -0.5520
11867TIP3    H157092   6.086   1.305   0.831 -0.5448  0.4016 -0.0957
11867TIP3    H257093   5.990   1.232   0.923 -0.7543  3.8824  2.6667
11868TIP3   OH257094   3.849   1.386  12.007  0.0861  0.4453 -0.0373
11868TIP3    H157095   3.818   1.385  12.097 -0.3556 -0.6537 -0.1877
11868TIP3    H257096   3.781   1.432  11.958 -0.4478 -0.3502 -0.0612
11869TIP3   OH257097   0.678   4.423   0.785 -0.2004  0.3673  0.1885
11869TIP3    H157098   0.693   4.513   0.816 -0.6016  0.2996  0.5773
11869TIP3    H257099   0.760   4.377   0.804 -0.2594  0.4590  0.6642
11870TIP3   OH257100   1.599   0.775   6.042  0.1272 -0.2531 -0.2385
11870TIP3    H157101   1.548   0.797   5.963  0.0867  1.1198  0.1357
11870TIP3    H257102   1.548   0.706   6.084 -0.7655  0.1971 -0.5361
11871TIP3   OH257103   2.344   5.737  16.380 -0.3766 -0.1961 -0.2737
11871TIP3    H157104   2.390   5.800  16.437 -0.4687  0.1132 -0.5383
11871TIP3    H257105   2.253   5.740  16.410 -0.1007 -1.3945  0.7771
11872TIP3   OH257106   0.527   2.126   4.049 -0.0333 -0.5359  0.3489
11872TIP3    H157107   0.464   2.078   4.104 -0.8508  0.2437  0.1289
11872TIP3    H257108   0.507   2.218   4.066  0.0454 -0.2801 -0.8554
11873TIP3   OH257109   5.713   2.071  17.226 -0.1541 -0.2822 -0.1418
11873TIP3    H157110   5.629   2.023  17.228 -1.0216  1.1168  2.8162
11873TIP3    H257111   5.735   2.084  17.318  3.0863 -0.0768 -0.8338
11874TIP3   OH257112   6.709   2.808  14.721  0.3713  0.3276 -0.3423
11874TIP3    H157113   6.654   2.755  14.778 -0.0645 -0.6007 -1.5827
11874TIP3    H257114   6.770   2.746  14.681  2.0574  1.2670  0.6646
11875TIP3   OH257115   3.806   0.644  17.372  0.9391 -0.4835 -0.1895
11875TIP3    H157116   3.874   0.701  17.407  0.4514  1.2514 -1.9405
11875TIP3    H257117   3.743   0.636  17.443  0.0304  2.8423 -0.4555
11876TIP3   OH257118   0.947   1.947  13.604  0.2997  0.3858 -0.3142
11876TIP3    H157119   0.914   1.996  13.529  1.9489 -0.6439 -1.7850
11876TIP3    H257120   0.874   1.891  13.629 -0.8495  1.9497 -0.0126
11877TIP3   OH257121   6.386   5.032  15.583  0.0149 -0.4410 -0.1487
11877TIP3    H157122   6.311   5.084  15.611  0.7168  0.1461  0.7088
11877TIP3    H257123   6.435   5.090  15.525  2.0107  0.8092  2.5580
11878TIP3   OH257124   4.046   2.564   1.221 -0.1846  0.1682 -0.0654
11878TIP3    H157125   4.075   2.633   1.161  0.6423  0.6982  0.9126
11878TIP3    H257126   3.998   2.611   1.290 -2.0062 -0.5272 -0.7825
11879TIP3   OH257127   3.171   2.799   2.827 -0.1691  0.6616  0.2890
11879TIP3    H157128   3.189   2.728   2.888 -1.6998 -0.7619 -0.8298
11879TIP3    H257129   3.190   2.762   2.741 -1.9731  1.2152 -0.3990
11880TIP3   OH257130   3.897   6.046   5.802 -0.2229  0.0807  0.1204
11880TIP3    H157131   3.808   6.080   5.789 -0.3166  0.2168  1.0693
11880TIP3    H257132   3.885   5.969   5.857  0.2670  0.1655  0.3425
11881TIP3   OH257133   3.524   3.940  14.585  0.0942 -0.0764 -0.0288
11881TIP3    H157134   3.465   3.976  14.652 -0.5179  2.0121 -1.5795
11881TIP3    H257135   3.550   4.016  14.533  1.9709 -1.3683 -1.0960
11882TIP3   OH257136   1.242   5.541  13.361  0.1269 -0.2979  0.1685
11882TIP3    H157137   1.304   5.518  13.292 -0.1388  1.5894 -0.7784
11882TIP3    H257138   1.295   5.587  13.426  0.2187 -1.2706  0.7846
11883TIP3   OH257139   6.068   4.838  15.798 -0.6162  0.5967  0.1125
11883TIP3    H157140   6.028   4.923  15.817 -0.6405  0.4005  0.9813
11883TIP3    H257141   6.016   4.803  15.726 -0.2344  1.5698 -0.6644
11884TIP3   OH257142   3.852   0.334   4.058 -0.0251 -0.2209 -0.3376
11884TIP3    H157143   3.806   0.385   3.992 -0.9864 -0.4143  0.1639
11884TIP3    H257144   3.784   0.282   4.100  0.5509 -0.0636  0.8430
11885TIP3   OH257145   2.511   4.818  14.195 -0.5843  0.2427  0.2682
11885TIP3    H157146   2.567   4.890  14.226  0.7262 -0.2207 -0.9331
11885TIP3    H257147   2.433   4.825  14.249  1.1972  0.0012  3.1173
11886TIP3   OH257148   1.274   5.694   6.727 -0.2161  0.5102  0.0115
11886TIP3    H157149   1.295   5.763   6.664 -1.8975 -0.2038 -1.4064
11886TIP3    H257150   1.181   5.675   6.712  0.2747 -2.3666 -0.0187
11887TIP3   OH257151   1.110   0.906  10.484  0.9308 -0.3775 -0.3074
11887TIP3    H157152   1.184   0.916  10.544  0.0400 -0.1324  0.7891
11887TIP3    H257153   1.038   0.879  10.540  0.3189 -1.1766 -1.4451
11888TIP3   OH257154   2.244   6.233  12.993 -0.3766 -0.3886 -0.8112
11888TIP3    H157155   2.257   6.204  13.084 -0.2925  1.0605 -0.3235
11888TIP3    H257156   2.326   6.213  12.949 -0.0618 -0.2239 -0.3046
11889TIP3   OH257157   4.857   3.619   1.388  0.3801  0.2133  0.0330
11889TIP3    H157158   4.824   3.708   1.399 -1.9056 -0.5738  0.0439
11889TIP3    H257159   4.874   3.589   1.477  0.1768  0.2917  0.0992
11890TIP3   OH257160   3.721   4.474  16.805  0.2706  0.9500 -0.2663
11890TIP3    H157161   3.710   4.470  16.710  0.1098  1.7196 -0.2873
11890TIP3    H257162   3.802   4.524  16.817  1.3626 -0.8060 -0.0264
11891TIP3   OH257163   4.550   5.427   4.084 -0.6724 -0.7822 -0.0722
11891TIP3    H157164   4.557   5.443   4.179 -0.9043 -1.7437  0.1172
11891TIP3    H257165   4.540   5.332   4.077 -0.8791 -0.6904 -1.0555
11892TIP3   OH257166   0.524   5.449  16.978  0.7886 -0.3583 -0.2463
11892TIP3    H157167   0.445   5.436  17.031 -0.5020 -1.1175 -2.2509
11892TIP3    H257168   0.501   5.415  16.892  3.0749  0.1159 -1.1103
11893TIP3   OH257169   1.641   6.304  17.222  0.4995 -0.3440  0.3060
11893TIP3    H157170   1.666   6.220  17.185 -1.9041 -1.2989  0.6380
11893TIP3    H257171   1.723   6.349  17.239  1.9304 -3.0413  1.0906
11894TIP3   OH257172   0.024   3.653   6.076 -0.3524  0.2917  0.1119
11894TIP3    H157173  -0.023   3.578   6.040  1.6445 -0.3190 -1.4473
11894TIP3    H257174  -0.005   3.659   6.167 -1.5714 -1.5107 -0.1087
11895TIP3   OH257175   1.321   1.951  14.688  0.0869 -0.4121 -0.0687
11895TIP3    H157176   1.279   2.015  14.631 -0.0803 -1.0679 -0.6968
11895TIP3    H257177   1.343   1.878  14.630  0.5303 -0.8010  0.5814
11896TIP3   OH257178   0.138   1.897   3.060  0.0748  0.0004 -0.1313
11896TIP3    H157179   0.102   1.815   3.093  1.2776 -0.5180 -0.0319
11896TIP3    H257180   0.165   1.945   3.138 -1.0641  0.7188 -0.1639
11897TIP3   OH257181   2.710   3.091  14.523 -0.6701 -0.2350 -0.5299
11897TIP3    H157182   2.726   3.022  14.458  2.0617  1.8649 -2.3123
11897TIP3    H257183   2.666   3.160  14.474 -0.8663  0.4230  0.5439
11898TIP3   OH257184   6.344   2.131  13.727  0.8055  0.2856 -0.4582
11898TIP3    H157185   6.371   2.223  13.728 -0.6577  0.7637 -1.9482
11898TIP3    H257186   6.298   2.119  13.810  1.0465  0.8769 -0.2310
11899TIP3   OH257187   4.962   4.148  15.132 -0.2796 -0.5689  0.7831
11899TIP3    H157188   4.875   4.171  15.165 -0.3198  2.0345 -0.8053
11899TIP3    H257189   4.946   4.094  15.055 -0.4543 -0.6483  0.8743
11900TIP3   OH257190   3.355   1.050   2.428 -0.3845 -0.5578  0.4871
11900TIP3    H157191   3.298   1.110   2.380 -1.5117 -0.1664  2.2242
11900TIP3    H257192   3.403   1.003   2.360  1.0078  2.6704 -1.0074
11901TIP3   OH257193   5.103   0.639   3.426 -0.3666  0.6717  0.0742
11901TIP3    H157194   5.121   0.731   3.409 -1.2040  0.9476  0.6079
11901TIP3    H257195   5.106   0.630   3.521 -0.2797  0.1500  0.0260
11902TIP3   OH257196   4.280   4.301   6.155  0.2501  0.2689  0.5225
11902TIP3    H157197   4.336   4.378   6.156 -0.3296  0.7102 -0.0500
11902TIP3    H257198   4.193   4.335   6.135  0.0241 -0.5527  0.0522
11903TIP3   OH257199   2.696   0.281   3.460 -0.1251 -0.3670  0.5801
11903TIP3    H157200   2.693   0.267   3.365 -1.3354  0.0815  0.5360
11903TIP3    H257201   2.711   0.375   3.469 -0.5531 -0.3228  0.8306
11904TIP3   OH257202   1.516   5.817  15.614  0.2217  0.5086 -0.0349
11904TIP3    H157203   1.445   5.820  15.550 -1.2275  0.6386  1.5008
11904TIP3    H257204   1.478   5.855  15.693  1.8605  0.0949  1.0006
11905TIP3   OH257205   1.446   1.823   4.469 -0.1240  0.4771  0.0093
11905TIP3    H157206   1.418   1.737   4.438  1.2134 -0.2848  0.8553
11905TIP3    H257207   1.368   1.879   4.457 -0.2398 -0.1757 -2.9324
11906TIP3   OH257208   6.141   1.754  11.355  0.4604  0.2505 -0.0313
11906TIP3    H157209   6.059   1.748  11.306  0.3120 -0.4431  0.2785
11906TIP3    H257210   6.203   1.795  11.294  0.1224 -0.0545 -0.5883
11907TIP3   OH257211   5.001   3.281  17.216 -0.5646  0.4896 -0.7183
11907TIP3    H157212   4.989   3.257  17.308  0.0790 -0.0607 -0.7716
11907TIP3    H257213   5.072   3.225  17.186 -0.6521  0.7944 -1.5071
11908TIP3   OH257214   4.226   4.945  15.487 -0.1949 -0.6771 -0.5868
11908TIP3    H157215   4.221   4.870  15.546  1.8883  0.6617  1.4823
11908TIP3    H257216   4.309   4.935  15.441  1.0380  1.1223  1.0442
11909TIP3   OH257217   6.006   3.590  14.063  0.1783 -0.2122  0.5399
11909TIP3    H157218   6.068   3.602  13.991  0.2280 -0.0047  0.6176
11909TIP3    H257219   5.937   3.535  14.026 -0.0910  0.3733  0.1616
11910TIP3   OH257220   2.643   5.193   3.518  0.3792  0.3568  0.1804
11910TIP3    H157221   2.682   5.118   3.562 -1.2933  0.3345  1.7162
11910TIP3    H257222   2.559   5.160   3.485  0.2282  1.2091 -0.3057
11911TIP3   OH257223   5.462   4.778  16.428  0.0329 -0.2578 -0.1392
11911TIP3    H157224   5.381   4.739  16.460 -0.1643 -0.1898 -0.5458
11911TIP3    H257225   5.470   4.860  16.476  0.2478 -0.6058  0.4370
11912TIP3   OH257226   6.632   1.234   0.306 -0.5806 -0.3823 -0.1518
11912TIP3    H157227   6.685   1.242   0.227 -1.4820  1.3235 -0.6257
11912TIP3    H257228   6.544   1.261   0.279 -0.2855  3.4680  2.0890
11913TIP3   OH257229   2.590   3.264  13.583 -0.0621  0.1523  0.5156
11913TIP3    H157230   2.557   3.200  13.646  0.8444  0.6126  1.4736
11913TIP3    H257231   2.570   3.349  13.622 -2.1760  0.5456 -1.2021
11914TIP3   OH257232   2.193   1.554  13.191  0.1343  0.0397  0.7269
11914TIP3    H157233   2.282   1.574  13.162  0.5423  0.8820  2.3912
11914TIP3    H257234   2.147   1.637  13.182 -1.0032 -0.7712 -1.6796
11915TIP3   OH257235   0.471   2.054  13.395 -0.1814 -0.0297 -0.2948
11915TIP3    H157236   0.464   2.145  13.423 -1.8055 -0.4650  0.8729
11915TIP3    H257237   0.395   2.041  13.338  0.6086 -0.3961 -1.2934
11916TIP3   OH257238   1.865   3.101   5.868 -0.5875  0.5288  0.1200
11916TIP3    H157239   1.868   3.057   5.953 -0.0889  2.6995  1.3140
11916TIP3    H257240   1.772   3.110   5.848 -0.7750  1.4409  1.2808
11917TIP3   OH257241   5.644   5.018  17.341 -0.6412 -0.3610 -0.0901
11917TIP3    H157242   5.638   5.097  17.395 -0.0013  0.6376 -1.4155
11917TIP3    H257243   5.734   4.988  17.352 -0.7481 -0.6274  0.0477
11918TIP3   OH257244   0.590   0.314  16.947  0.0193 -0.4800  0.4453
11918TIP3    H157245   0.598   0.404  16.979 -1.0520 -0.2445  0.1221
11918TIP3    H257246   0.509   0.282  16.987 -0.3199 -0.8340 -0.4968
11919TIP3   OH257247   5.469   4.790   1.137 -0.3100 -0.0474  0.3234
11919TIP3    H157248   5.435   4.704   1.112 -1.5690  0.6834 -0.5956
11919TIP3    H257249   5.563   4.785   1.118 -0.5720 -0.8295 -0.8984
11920TIP3   OH257250   4.286   5.262  12.936 -0.3282  0.2824  0.4540
11920TIP3    H157251   4.205   5.281  12.982 -0.3291  0.9897  0.1788
11920TIP3    H257252   4.348   5.328  12.967 -0.5016  1.1779 -0.9747
11921TIP3   OH257253   0.267   4.922  14.367  0.1686  0.2646  0.3375
11921TIP3    H157254   0.294   4.867  14.441 -0.6283  1.6115  1.6876
11921TIP3    H257255   0.211   4.989  14.406 -0.0174  1.2205 -1.4604
11922TIP3   OH257256   4.959   1.424   4.071  0.3533 -0.2932 -0.1936
11922TIP3    H157257   4.957   1.504   4.123  1.4345 -0.1652 -0.3202
11922TIP3    H257258   5.052   1.402   4.065  0.1671 -0.8574 -1.2267
11923TIP3   OH257259   1.456   4.120  16.692 -0.1463  0.1701 -0.2763
11923TIP3    H157260   1.380   4.161  16.735  0.0817  0.1512  0.1516
11923TIP3    H257261   1.483   4.051  16.753  0.0961  0.0461 -0.5208
11924TIP3   OH257262   5.525   2.676   1.877  0.2077 -0.1046  0.2470
11924TIP3    H157263   5.488   2.617   1.812  2.7299 -2.5408  0.8206
11924TIP3    H257264   5.467   2.668   1.953 -0.9666  0.2940 -0.5838
11925TIP3   OH257265   2.042   3.231  11.656  0.8063 -0.2316 -0.4590
11925TIP3    H157266   2.101   3.305  11.666  0.9346 -0.5499  1.3489
11925TIP3    H257267   2.038   3.217  11.561  2.0947  1.0059 -0.7336
11926TIP3   OH257268   6.434   5.920   2.479  0.3087  0.1683 -0.1945
11926TIP3    H157269   6.349   5.904   2.438  0.0942 -0.0049  0.3203
11926TIP3    H257270   6.420   5.905   2.572  0.3479  2.3457  0.2050
11927TIP3   OH257271   3.448   3.956   1.790 -0.3817  0.3225  0.0324
11927TIP3    H157272   3.536   3.945   1.755 -0.0930  2.8725 -0.2134
11927TIP3    H257273   3.442   3.892   1.861  0.4438 -2.1721 -1.9850
11928TIP3   OH257274   5.810   3.805   7.295 -0.0513 -0.2558  0.3625
11928TIP3    H157275   5.834   3.723   7.336 -1.4363 -0.1706  1.3943
11928TIP3    H257276   5.746   3.781   7.228  0.5175 -0.1465 -0.2323
11929TIP3   OH257277   2.601   2.322   1.317 -0.4913  0.2059  0.1862
11929TIP3    H157278   2.525   2.263   1.314 -0.2136 -0.1475  0.0813
11929TIP3    H257279   2.605   2.360   1.230 -1.0072  0.8161  0.4167
11930TIP3   OH257280   0.330   6.303   1.208  1.0381  0.0142  0.8084
11930TIP3    H157281   0.404   6.295   1.267  0.1337 -1.6294  1.7796
11930TIP3    H257282   0.277   6.374   1.245  1.4010  0.2433  0.8957
11931TIP3   OH257283   6.041   0.192   6.825  0.7402 -0.1792  0.2038
11931TIP3    H157284   6.084   0.236   6.899 -1.2595  1.8137  0.2833
11931TIP3    H257285   6.099   0.210   6.751  1.1570  0.5801  0.6945
11932TIP3   OH257286   6.189   0.891  15.986  0.4145  0.2604  0.0025
11932TIP3    H157287   6.145   0.966  15.946 -1.5243 -0.3249  0.9193
11932TIP3    H257288   6.154   0.815  15.940  2.1721 -0.1322 -0.7504
11933TIP3   OH257289   5.078   4.813  16.474 -0.4029  0.3105  0.5607
11933TIP3    H157290   5.082   4.894  16.423  2.6431 -1.0833 -1.7603
11933TIP3    H257291   5.149   4.821  16.537 -0.4349 -0.3122  0.6851
11934TIP3   OH257292   6.378   2.656   3.443 -1.2525 -0.1922 -0.0792
11934TIP3    H157293   6.307   2.601   3.411 -0.7860 -1.0435  0.3386
11934TIP3    H257294   6.350   2.683   3.530 -0.2946 -2.0065  0.8398
11935TIP3   OH257295   5.181   4.298  15.215  0.2399  0.7357  0.2001
11935TIP3    H157296   5.214   4.306  15.126 -0.4910  0.1469 -0.1396
11935TIP3    H257297   5.102   4.244  15.206  0.1557  0.6762  1.1998
11936TIP3   OH257298   4.085   1.990  12.136  0.7147 -0.1934  0.1683
11936TIP3    H157299   4.113   1.898  12.142 -1.4061 -0.8290  1.5383
11936TIP3    H257300   4.004   1.987  12.086  0.7457  0.9807  0.0239
11937TIP3   OH257301   4.015   6.056  14.020 -0.1399 -0.1582 -0.1543
11937TIP3    H157302   4.101   6.087  13.991 -0.8211  0.0286 -2.1405
11937TIP3    H257303   3.994   6.111  14.095  0.5768  1.2721 -0.9400
11938TIP3   OH257304   1.169   0.835  14.956  0.2067 -0.2461 -0.3518
11938TIP3    H157305   1.150   0.750  14.916 -1.6881  0.2769 -0.6144
11938TIP3    H257306   1.099   0.849  15.019  1.0354  0.7095  0.4009
11939TIP3   OH257307   4.825   5.465  15.488  0.6872  0.4109 -0.0540
11939TIP3    H157308   4.775   5.393  15.527  0.0871  0.1165 -1.2940
11939TIP3    H257309   4.803   5.541  15.541  1.4941 -0.3387  1.4157
11940TIP3   OH257310   2.100   0.187  14.211 -0.3974 -0.3967  0.5400
11940TIP3    H157311   2.105   0.092  14.215 -0.3997 -0.7372 -3.4913
11940TIP3    H257312   2.021   0.206  14.160  0.0839  1.6863  0.4422
11941TIP3   OH257313   5.660   3.029  13.373 -0.2829 -0.0097  0.6169
11941TIP3    H157314   5.595   3.081  13.325 -2.2506 -2.7829  0.0802
11941TIP3    H257315   5.723   3.002  13.306 -1.1189 -1.0166  0.2058
11942TIP3   OH257316   1.414   4.757  13.755  0.4953  1.2391  0.3281
11942TIP3    H157317   1.390   4.742  13.663 -0.2065 -0.4187  0.7488
11942TIP3    H257318   1.333   4.742  13.803  1.1066  1.0300  1.3125
11943TIP3   OH257319   5.607   2.212  13.706 -0.0910 -0.3608 -0.5325
11943TIP3    H157320   5.613   2.116  13.713  0.6353 -0.2539  0.3911
11943TIP3    H257321   5.581   2.241  13.793  0.0601  0.3227 -0.7086
11944TIP3   OH257322   1.118   1.456  13.585 -0.4753 -0.4697  0.3218
11944TIP3    H157323   1.207   1.478  13.612 -0.7587  0.9842  0.1547
11944TIP3    H257324   1.089   1.532  13.535 -1.5859 -1.1961 -0.1637
11945TIP3   OH257325   5.504   4.624   5.720  0.4284  0.6190  0.1594
11945TIP3    H157326   5.580   4.619   5.778  0.7232 -0.9376 -0.3210
11945TIP3    H257327   5.540   4.617   5.632 -0.2198  0.4569 -0.0981
11946TIP3   OH257328   3.668   5.701   1.889 -0.2233 -0.0095  0.1835
11946TIP3    H157329   3.759   5.731   1.891 -0.7081  1.8711 -1.9687
11946TIP3    H257330   3.674   5.609   1.860  1.0358 -0.4483  1.7400
11947TIP3   OH257331   4.857   4.097  14.060 -0.1025  0.1413 -0.5400
11947TIP3    H157332   4.828   4.006  14.062 -2.5848  0.7173 -3.1041
11947TIP3    H257333   4.780   4.147  14.088  1.6880  1.4917  2.3804
11948TIP3   OH257334   5.902   3.190   6.745 -0.3347 -0.2545  0.3545
11948TIP3    H157335   5.919   3.177   6.838  0.3444 -0.1227  0.2607
11948TIP3    H257336   5.870   3.280   6.739 -3.7058 -1.2836  0.8396
11949TIP3   OH257337   3.300   1.688  13.489  0.3473  0.0016  0.0068
11949TIP3    H157338   3.291   1.704  13.395 -4.0749 -0.7642  0.1195
11949TIP3    H257339   3.354   1.610  13.495 -0.0388 -0.4621 -1.9529
11950TIP3   OH257340   0.080   2.252  14.367 -0.0093  0.2979 -0.4453
11950TIP3    H157341   0.109   2.336  14.332 -0.7756  0.8157  0.1262
11950TIP3    H257342   0.023   2.216  14.299 -1.2806  1.1782  0.1052
11951TIP3   OH257343   1.733   1.402   0.310 -0.1685  0.2958 -0.0008
11951TIP3    H157344   1.674   1.460   0.357 -0.7686  1.1308 -1.7037
11951TIP3    H257345   1.704   1.314   0.334 -1.7892  0.6869 -0.3811
11952TIP3   OH257346   2.839   1.745   1.715 -0.2086  0.0511 -0.0764
11952TIP3    H157347   2.893   1.708   1.645  0.6571  0.3491  0.4195
11952TIP3    H257348   2.750   1.715   1.695  0.0952 -0.2421 -1.0456
11953TIP3   OH257349   4.768   3.085  15.557  0.0307  0.3821  0.1208
11953TIP3    H157350   4.790   3.169  15.517  3.2312  0.8751  2.4877
11953TIP3    H257351   4.726   3.109  15.640 -0.2768 -0.4129  0.2014
11954TIP3   OH257352   3.887   2.838  11.821 -0.5354 -0.7386  0.3631
11954TIP3    H157353   3.930   2.755  11.801  0.9029  0.3446 -1.3888
11954TIP3    H257354   3.793   2.818  11.821 -0.2733 -2.1525 -1.1741
11955TIP3   OH257355   0.136   4.923  10.993 -0.0071  0.0612  0.3068
11955TIP3    H157356   0.163   4.857  10.930  0.9694  1.1973 -0.5003
11955TIP3    H257357   0.074   4.978  10.945 -2.8251 -1.6655  1.7063
11956TIP3   OH257358   3.705   0.583  13.679  0.1975  0.0929 -0.2808
11956TIP3    H157359   3.610   0.583  13.691 -0.3280  1.0889 -3.5291
11956TIP3    H257360   3.735   0.663  13.723 -0.5580  0.1165  0.2018
11957TIP3   OH257361   1.016   6.018   4.019 -0.9305 -0.2862  0.4294
11957TIP3    H157362   0.931   6.040   3.982 -0.7498 -0.9221 -0.3931
11957TIP3    H257363   1.071   5.999   3.943 -0.2251 -0.4687  0.9774
11958TIP3   OH257364   5.159   5.312   2.325 -0.1576 -0.0337 -0.2760
11958TIP3    H157365   5.163   5.381   2.259  0.4293  1.1716  0.9831
11958TIP3    H257366   5.149   5.358   2.408 -2.8146 -1.5587  0.3827
11959TIP3   OH257367   6.646   3.162   3.901 -0.3497 -0.6838  0.1413
11959TIP3    H157368   6.621   3.167   3.993 -0.9042 -2.3414  0.1019
11959TIP3    H257369   6.739   3.186   3.900  0.6265 -3.9179  1.6592
11960TIP3   OH257370   2.352   5.035   0.889  0.1145 -0.0947 -0.0990
11960TIP3    H157371   2.392   4.951   0.909  1.0681  0.5937  1.0470
11960TIP3    H257372   2.425   5.089   0.857 -0.5901  0.1397 -1.3493
11961TIP3   OH257373   1.328   3.388   2.992 -0.1273 -0.7146 -0.3570
11961TIP3    H157374   1.304   3.411   2.903 -0.0627 -1.6731 -0.6395
11961TIP3    H257375   1.352   3.295   2.987 -2.1294 -1.3844  1.0320
11962TIP3   OH257376   0.313   3.157  13.301  0.2674  0.0497 -0.6042
11962TIP3    H157377   0.228   3.175  13.262 -0.6018 -0.4808  0.9689
11962TIP3    H257378   0.334   3.068  13.275 -0.4839 -0.4348  0.4158
11963TIP3   OH257379   6.267   6.331   2.366 -0.4015 -0.0742 -0.2052
11963TIP3    H157380   6.207   6.405   2.355 -0.6946  0.6033  4.2080
11963TIP3    H257381   6.209   6.256   2.379 -0.1661 -0.4004 -1.0139
11964TIP3   OH257382   6.150   3.310  15.016 -0.2900 -0.3215  0.4180
11964TIP3    H157383   6.183   3.399  15.030 -0.6064 -0.0511 -0.5041
11964TIP3    H257384   6.093   3.294  15.092  0.7283 -0.2144  1.2197
11965TIP3   OH257385   5.263   0.430  16.324  0.2456  0.2475  0.2883
11965TIP3    H157386   5.238   0.520  16.303 -2.2916 -0.5121 -0.2390
11965TIP3    H257387   5.191   0.396  16.376  1.2806 -1.4310  0.7115
11966TIP3   OH257388   2.701   3.704   1.865 -0.0545 -0.0637 -0.5420
11966TIP3    H157389   2.748   3.763   1.924 -0.3399 -1.7543  1.4868
11966TIP3    H257390   2.625   3.676   1.915  0.2456 -2.3949 -1.2791
11967TIP3   OH257391   1.424   1.313   1.527  0.5011 -0.3541 -0.1728
11967TIP3    H157392   1.390   1.399   1.500 -0.8839 -0.5237  0.9187
11967TIP3    H257393   1.506   1.305   1.480  1.6420  2.4044  1.0974
11968TIP3   OH257394   2.009   1.497  12.698  0.8790 -0.2013  0.3544
11968TIP3    H157395   2.097   1.524  12.675  0.9025  0.3525  1.0616
11968TIP3    H257396   2.019   1.444  12.777  0.5914 -0.2674  0.3508
11969TIP3   OH257397   0.512   1.781  14.628  0.5364 -0.0143  0.0612
11969TIP3    H157398   0.545   1.819  14.547  2.1642  0.0108  0.7120
11969TIP3    H257399   0.479   1.856  14.678  1.0705  0.1821  0.1229
11970TIP3   OH257400   6.548   5.140   3.898  0.0372  0.1186 -0.4936
11970TIP3    H157401   6.628   5.114   3.852  1.5157  1.3832  1.1663
11970TIP3    H257402   6.551   5.090   3.980 -1.6421 -0.8434 -0.9883
11971TIP3   OH257403   4.268   3.520  15.440 -0.1183 -0.3582  0.4001
11971TIP3    H157404   4.275   3.553  15.351  0.4419 -1.0330  0.1882
11971TIP3    H257405   4.210   3.582  15.484  0.6624  0.7112 -0.0661
11972TIP3   OH257406   5.540   5.304  13.930  0.4952 -0.1862  0.1313
11972TIP3    H157407   5.509   5.356  14.004  0.4971  0.7463 -0.5123
11972TIP3    H257408   5.632   5.286  13.951  1.6303  3.1666 -1.2512
11973TIP3   OH257409   5.425   0.936   3.351  0.3317  0.3184 -0.3113
11973TIP3    H157410   5.387   1.017   3.316  0.8070  1.6992  2.0925
11973TIP3    H257411   5.411   0.871   3.283 -0.9109  2.2044 -1.9704
11974TIP3   OH257412   4.695   1.254  13.560  0.3208  0.0989 -0.3473
11974TIP3    H157413   4.705   1.339  13.602 -1.3919  0.6916 -1.0353
11974TIP3    H257414   4.638   1.204  13.619  2.4673 -1.1609  0.7835
11975TIP3   OH257415   6.499   1.637   2.437  0.1303 -0.1554  0.0361
11975TIP3    H157416   6.517   1.701   2.369  2.0534  0.7962  1.3456
11975TIP3    H257417   6.581   1.631   2.486 -0.8278 -1.6788  1.5487
11976TIP3   OH257418   5.741   4.291  12.819 -0.3738 -0.0366  0.2196
11976TIP3    H157419   5.735   4.337  12.735 -1.8450  1.9517  1.3108
11976TIP3    H257420   5.805   4.222  12.804 -0.9390 -0.0765 -2.6639
11977TIP3   OH257421   6.634   0.463  11.269  0.4530  0.3817 -0.3267
11977TIP3    H157422   6.708   0.507  11.228  1.5637 -1.3192 -0.2424
11977TIP3    H257423   6.559   0.519  11.249  1.6167  1.7196 -1.1257
11978TIP3   OH257424   3.191   0.956  13.057 -0.1047  0.1222  0.6909
11978TIP3    H157425   3.208   0.882  12.998 -0.1541 -0.6115  1.5683
11978TIP3    H257426   3.277   0.987  13.082 -0.0780  0.8069 -0.1966
11979TIP3   OH257427   2.876   1.811   4.103 -0.2566  0.2872 -0.1561
11979TIP3    H157428   2.838   1.749   4.041 -0.4711 -2.4876  2.4644
11979TIP3    H257429   2.970   1.806   4.088 -0.3061 -0.3496 -0.2801
11980TIP3   OH257430   1.991   6.019   1.861 -0.3388  0.5365  0.6960
11980TIP3    H157431   2.086   6.029   1.853 -0.6536  2.2086 -2.6121
11980TIP3    H257432   1.964   6.090   1.919  0.1424  2.5225 -1.3811
11981TIP3   OH257433   5.766   4.077   3.755 -0.1583  0.1413  0.0138
11981TIP3    H157434   5.839   4.016   3.742 -0.3298  0.1109 -0.9194
11981TIP3    H257435   5.729   4.054   3.840 -1.5717 -2.5189 -1.1913
11982TIP3   OH257436   3.428   6.255  15.421  0.2087 -0.2789  0.0365
11982TIP3    H157437   3.448   6.317  15.491 -0.7587 -0.2217  0.2703
11982TIP3    H257438   3.340   6.279  15.392 -0.3652 -1.8105  0.4242
11983TIP3   OH257439   5.846   0.488  12.069  0.0088 -0.3501 -0.1297
11983TIP3    H157440   5.907   0.417  12.049  1.3192  0.8818 -0.6801
11983TIP3    H257441   5.896   0.568  12.054 -2.1604  0.7852 -2.0614
11984TIP3   OH257442   0.414   1.136  11.174  0.5737  0.1215 -0.4824
11984TIP3    H157443   0.415   1.060  11.116  1.3582  0.2766 -0.6823
11984TIP3    H257444   0.367   1.203  11.126  0.3670 -0.0627 -0.5375
11985TIP3   OH257445   6.611   3.191  12.864  0.0694  0.1053  0.4957
11985TIP3    H157446   6.533   3.197  12.810  0.7362 -1.5528 -0.7344
11985TIP3    H257447   6.675   3.247  12.821  0.8393 -1.7915 -0.9707
11986TIP3   OH257448   4.313   1.344  13.792 -0.2189 -0.0398 -0.8743
11986TIP3    H157449   4.339   1.400  13.718  2.1303 -1.6456 -1.3483
11986TIP3    H257450   4.379   1.361  13.859 -0.7387 -0.6396 -0.2017
11987TIP3   OH257451   1.363   3.565  15.964  0.7285  0.5385  0.1919
11987TIP3    H157452   1.372   3.578  15.870 -0.0577  1.7537  0.2624
11987TIP3    H257453   1.356   3.653  16.000  1.4997  0.1194  1.4530
11988TIP3   OH257454   1.050   0.724  13.952 -0.0570  0.6194  0.2126
11988TIP3    H157455   1.047   0.629  13.968  1.2366  0.6387  0.6414
11988TIP3    H257456   0.958   0.748  13.941 -0.3478 -0.8920 -1.2076
11989TIP3   OH257457   4.944   4.547   4.288  0.4071 -0.5022 -0.2459
11989TIP3    H157458   4.855   4.542   4.251  1.0877  0.9090 -2.2435
11989TIP3    H257459   4.938   4.499   4.370 -1.9408 -1.3810 -0.8404
11990TIP3   OH257460   5.236   6.526   0.565 -0.3723 -0.2425 -0.4810
11990TIP3    H157461   5.213   6.502   0.654  2.8538 -0.1037  0.4906
11990TIP3    H257462   5.180   6.601   0.545 -0.7895  0.0474  1.6233
11991TIP3   OH257463   1.832   1.892  15.057 -0.3793 -0.1240 -0.2048
11991TIP3    H157464   1.835   1.801  15.028  0.8283 -0.9308  2.1775
11991TIP3    H257465   1.924   1.918  15.064 -0.6701  0.7376  0.6620
11992TIP3   OH257466   5.665   0.865   6.096  0.4551  0.3175  0.0672
11992TIP3    H157467   5.604   0.916   6.044  0.4992  1.0498  0.7118
11992TIP3    H257468   5.671   0.912   6.180  0.9736 -0.4016  0.4502
11993TIP3   OH257469   6.728   3.745  12.156 -0.7637  0.2922 -0.4781
11993TIP3    H157470   6.720   3.759  12.061 -0.8470  0.8101 -0.3959
11993TIP3    H257471   6.640   3.720  12.184 -0.9945  1.2126 -0.3628
11994TIP3   OH257472   2.832   0.921  15.635 -0.2850 -0.6331  0.4984
11994TIP3    H157473   2.763   0.855  15.647 -0.4407 -0.6610 -0.4285
11994TIP3    H257474   2.894   0.905  15.706 -0.7162 -1.2826  0.7348
11995TIP3   OH257475   2.200   2.422   3.423  0.2292 -0.1151 -0.2820
11995TIP3    H157476   2.197   2.386   3.512  0.9568  0.5510  0.0205
11995TIP3    H257477   2.111   2.412   3.390 -0.0854 -0.2209  0.5767
11996TIP3   OH257478   5.480   4.255   1.912  0.0511 -0.3292  0.4240
11996TIP3    H157479   5.420   4.280   1.982 -0.4581  0.1163 -0.1609
11996TIP3    H257480   5.527   4.180   1.947  1.2753  1.1121  2.0384
11997TIP3   OH257481   6.365   3.684  13.661 -0.2348 -0.7085 -0.1088
11997TIP3    H157482   6.314   3.736  13.598 -1.5716  2.1865  2.9885
11997TIP3    H257483   6.300   3.653  13.724  1.3533  0.5184  2.3208
11998TIP3   OH257484   4.760   3.125   1.889 -0.0633  0.0527  0.7853
11998TIP3    H157485   4.673   3.095   1.918  0.7471 -1.9568  1.2744
11998TIP3    H257486   4.758   3.116   1.794 -0.4322  0.1689  0.7785
11999TIP3   OH257487   1.954   1.223   0.525  0.0646 -0.2349 -0.3899
11999TIP3    H157488   1.906   1.208   0.606  0.5829  0.5727  0.0868
11999TIP3    H257489   2.013   1.148   0.517  2.3504  1.1289  1.7374
12000TIP3   OH257490   6.289   4.193  14.778  0.6924  0.0992 -0.1947
12000TIP3    H157491   6.284   4.263  14.713  1.4577 -0.2938 -0.6901
12000TIP3    H257492   6.224   4.218  14.844  0.4754  0.9249 -0.6951
12001TIP3   OH257493   6.517   3.685  13.368 -0.1827 -0.6022  0.3518
12001TIP3    H157494   6.612   3.681  13.354 -0.5125 -0.9629 -2.2570
12001TIP3    H257495   6.489   3.594  13.364 -0.7019 -0.4483  0.5132
12002TIP3   OH257496   0.488   2.423   1.683  0.6221  0.0766  0.5756
12002TIP3    H157497   0.422   2.426   1.751  1.0347 -0.6661  1.0234
12002TIP3    H257498   0.441   2.446   1.603 -0.1230 -0.2322  0.9163
12003TIP3   OH257499   6.633   3.355   4.576  0.3724  0.5313  0.4239
12003TIP3    H157500   6.618   3.381   4.486 -0.0099  1.0287  0.6296
12003TIP3    H257501   6.616   3.261   4.577  0.5499  0.4930 -0.0580
12004TIP3   OH257502   5.722   2.557  16.186 -0.4161 -0.2344 -0.0435
12004TIP3    H157503   5.654   2.522  16.130 -2.5589 -1.4679  3.0265
12004TIP3    H257504   5.694   2.647  16.205 -0.0926 -0.0681 -0.3461
12005TIP3   OH257505   4.829   1.157  16.500 -0.0757  0.7139  0.1686
12005TIP3    H157506   4.910   1.131  16.456  1.1058  1.1685  1.9730
12005TIP3    H257507   4.762   1.101  16.461  1.7936 -2.9365  1.6559
12006TIP3   OH257508   5.087   2.884   4.745 -0.0311  0.4869 -0.4633
12006TIP3    H157509   5.137   2.963   4.727  0.6153  0.1255 -0.2851
12006TIP3    H257510   5.131   2.843   4.819  0.6939 -0.9119 -1.6060
12007TIP3   OH257511   2.324   1.639  16.115  0.5976 -0.1688  0.5100
12007TIP3    H157512   2.376   1.637  16.035  0.3788 -0.7780  0.3829
12007TIP3    H257513   2.249   1.694  16.094  0.7970  0.0867  0.4585
12008TIP3   OH257514   2.819   6.265  12.020  0.1966  0.3567 -0.4308
12008TIP3    H157515   2.774   6.201  11.965 -1.7927  1.2725  0.0526
12008TIP3    H257516   2.886   6.303  11.962 -0.6345  0.0107 -1.6590
12009TIP3   OH257517   0.194   0.331   6.242  0.0131  0.0045 -0.1453
12009TIP3    H157518   0.239   0.355   6.161  0.5647 -1.9538 -0.4734
12009TIP3    H257519   0.121   0.393   6.248  0.7440  1.0470 -1.4142
12010TIP3   OH257520   4.266   4.910   2.196 -0.0282  0.0456  0.3649
12010TIP3    H157521   4.270   4.823   2.234 -1.4438  0.4768  1.5736
12010TIP3    H257522   4.338   4.958   2.237 -1.4103  0.4462  2.4660
12011TIP3   OH257523   2.371   1.086  17.295  0.3692  0.0334  0.3326
12011TIP3    H157524   2.453   1.117  17.334  2.6601 -0.7831 -3.3222
12011TIP3    H257525   2.388   0.994  17.275 -1.1533  0.0252 -1.1228
12012TIP3   OH257526   1.364   1.783  15.731  0.2032 -0.5635  0.3570
12012TIP3    H157527   1.363   1.693  15.763 -0.8540 -1.1608 -1.2656
12012TIP3    H257528   1.401   1.777  15.643  1.4718  0.8074  0.7548
12013TIP3   OH257529   1.359   6.635   6.544 -0.3071 -0.3877 -0.4697
12013TIP3    H157530   1.330   6.702   6.482  0.2610  0.8725  0.5657
12013TIP3    H257531   1.281   6.582   6.561 -1.9862  2.4569  1.6900
12014TIP3   OH257532   6.486   5.635  15.952  0.0323 -0.8748 -0.1387
12014TIP3    H157533   6.560   5.599  15.903  0.1119  0.0933 -0.7489
12014TIP3    H257534   6.526   5.687  16.022 -0.0701 -0.4541 -0.3920
12015TIP3   OH257535   5.533   1.238  13.876 -0.1390 -0.0999 -0.1450
12015TIP3    H157536   5.447   1.257  13.912 -0.1875  0.2435 -0.4435
12015TIP3    H257537   5.592   1.245  13.950 -0.3673 -0.3415  0.0614
12016TIP3   OH257538   0.100   6.070  13.222 -0.5830 -0.3537  0.2297
12016TIP3    H157539   0.075   6.155  13.185 -0.3978 -0.3607  0.0865
12016TIP3    H257540   0.090   6.081  13.316  1.2410  0.4216  0.3698
12017TIP3   OH257541   0.440   1.148  16.182 -0.1562 -0.0957  0.0738
12017TIP3    H157542   0.366   1.121  16.236 -1.0674 -0.1295 -1.1692
12017TIP3    H257543   0.499   1.072  16.183  0.7691  0.5408  2.4941
12018TIP3   OH257544   3.005   2.938   3.979 -0.0726  1.0173  0.1778
12018TIP3    H157545   3.064   2.955   4.052  2.1359  1.0122 -1.4996
12018TIP3    H257546   2.918   2.960   4.012  0.9274  1.6857  2.5485
12019TIP3   OH257547   5.384   0.461   0.862 -0.6976 -0.3721 -0.1136
12019TIP3    H157548   5.336   0.379   0.870 -1.1034 -0.0351  1.0906
12019TIP3    H257549   5.408   0.484   0.952  1.1447 -0.1727 -0.6073
12020TIP3   OH257550   0.104   5.712  11.474  0.8419 -0.5209 -0.4991
12020TIP3    H157551   0.147   5.786  11.517  0.1951 -0.3440 -0.1417
12020TIP3    H257552   0.038   5.752  11.418  0.4206 -0.8258 -0.2273
12021TIP3   OH257553   2.045   1.430  16.471 -0.1225 -1.0025 -0.0173
12021TIP3    H157554   2.083   1.388  16.394  0.6180  1.5617 -1.1611
12021TIP3    H257555   1.952   1.405  16.469 -0.0998 -1.0677 -1.7177
12022TIP3   OH257556   5.314   2.723   4.535 -0.1927  0.4662  0.1612
12022TIP3    H157557   5.221   2.715   4.555  0.0335 -0.1077  1.0334
12022TIP3    H257558   5.318   2.791   4.468 -1.3762 -0.6549 -1.0972
12023TIP3   OH257559   1.016   1.762   4.945  0.0238 -0.3809 -0.2951
12023TIP3    H157560   0.991   1.844   4.902  0.1981  0.0247  0.3599
12023TIP3    H257561   0.946   1.746   5.009  0.0709 -0.6654 -0.3124
12024TIP3   OH257562   3.941   4.928  14.557  0.3349  0.7517 -0.2726
12024TIP3    H157563   4.029   4.962  14.576  0.4173  0.0903  0.6143
12024TIP3    H257564   3.884   4.972  14.621 -0.0672  1.5307 -1.1486
12025TIP3   OH257565   4.027   5.250   1.540 -0.0069 -0.4186 -0.0261
12025TIP3    H157566   4.001   5.169   1.495  1.7040  0.3696 -2.6462
12025TIP3    H257567   3.974   5.318   1.500  1.0538  0.2109 -0.3894
12026TIP3   OH257568   6.241   0.644   4.533 -0.0429  0.0924  0.0874
12026TIP3    H157569   6.307   0.647   4.602 -0.9013 -2.1583  1.0830
12026TIP3    H257570   6.290   0.627   4.453  0.6857 -0.2794  0.6069
12027TIP3   OH257571   1.870   1.563   2.947  0.4736 -0.1087 -0.0088
12027TIP3    H157572   1.822   1.503   3.005 -0.4388  0.8167  0.2261
12027TIP3    H257573   1.805   1.629   2.923  1.6996  1.3149  0.5040
12028TIP3   OH257574   3.989   1.773   6.059 -0.3730 -0.5841 -0.7754
12028TIP3    H157575   3.933   1.840   6.099  1.0846  0.0241  0.3357
12028TIP3    H257576   3.955   1.765   5.970 -1.5907  0.4839 -0.4521
12029TIP3   OH257577   0.114   4.772  16.751  0.1639 -0.1548  0.4836
12029TIP3    H157578   0.038   4.719  16.726 -0.3954  1.2866 -1.0864
12029TIP3    H257579   0.092   4.805  16.838  1.0048 -3.2285  2.0225
12030TIP3   OH257580   2.714   2.880  12.901 -0.7475 -0.5364 -0.2448
12030TIP3    H157581   2.717   2.975  12.893 -1.6252 -0.5263 -0.4847
12030TIP3    H257582   2.714   2.849  12.811  0.0796 -0.7952 -0.1691
12031TIP3   OH257583   4.671   0.098   2.634  0.3879 -0.6070  0.2048
12031TIP3    H157584   4.644   0.105   2.543 -0.7435  0.8066  0.6108
12031TIP3    H257585   4.644   0.011   2.662 -2.9396  0.3093  0.2751
12032TIP3   OH257586   5.194   2.608  12.651  0.6249  0.5150  0.2891
12032TIP3    H157587   5.100   2.604  12.664 -0.0796  1.8558 -3.1885
12032TIP3    H257588   5.219   2.518  12.626  0.0132  0.4064  0.0511
12033TIP3   OH257589   6.037   0.948   5.532 -0.6181 -0.0878  0.5231
12033TIP3    H157590   5.997   1.014   5.475 -2.2503 -0.1376  1.5469
12033TIP3    H257591   6.071   0.998   5.606  0.6247 -0.1277  0.0016
12034TIP3   OH257592   0.827   5.053   1.482 -0.4222  0.4529  0.0685
12034TIP3    H157593   0.757   5.079   1.423  0.1299  0.9787 -0.3765
12034TIP3    H257594   0.906   5.054   1.428  0.0403  0.6012  0.7254
12035TIP3   OH257595   0.952   6.388  13.574 -0.3152 -0.1601 -0.2042
12035TIP3    H157596   0.946   6.477  13.541  0.6123  0.7530  1.9158
12035TIP3    H257597   1.035   6.355  13.538 -0.1550  0.2053 -0.1742
12036TIP3   OH257598   1.802   1.405  16.336  0.6727 -0.1102 -0.0817
12036TIP3    H157599   1.832   1.422  16.247  0.5424 -3.6116 -0.9431
12036TIP3    H257600   1.716   1.364  16.325  0.0877  0.5183  1.7631
12037TIP3   OH257601   1.580   0.997  15.147 -0.2192 -0.1406  0.1935
12037TIP3    H157602   1.540   0.998  15.234  0.6992  0.3037  0.6225
12037TIP3    H257603   1.623   1.083  15.140 -0.3629 -0.1378 -0.7368
12038TIP3   OH257604   5.137   5.601  14.815  0.0304 -0.4519 -0.1150
12038TIP3    H157605   5.123   5.519  14.770  1.5972 -0.9819  0.2943
12038TIP3    H257606   5.189   5.654  14.754 -1.6565  0.5950 -0.7173
12039TIP3   OH257607   3.272   4.209  14.420 -0.0101 -0.1961 -0.1660
12039TIP3    H157608   3.367   4.207  14.413 -0.0219  0.5300 -0.6704
12039TIP3    H257609   3.242   4.223  14.330 -0.6160 -0.9995 -0.0970
12040TIP3   OH257610   2.181   1.303  16.699 -0.1156  0.0669  0.0305
12040TIP3    H157611   2.154   1.369  16.636 -0.9890 -1.0045 -0.7549
12040TIP3    H257612   2.276   1.311  16.704  0.0889 -0.4242 -2.1534
12041TIP3   OH257613   4.927   4.122   5.742  0.3877  0.6420  0.1654
12041TIP3    H157614   4.984   4.154   5.812 -0.0209  1.5032  0.1211
12041TIP3    H257615   4.965   4.158   5.661  0.5520  0.0991  0.0012
12042TIP3   OH257616   0.560   1.224   4.420  0.0339 -0.7221  0.5860
12042TIP3    H157617   0.654   1.207   4.415  0.1432 -0.6811  2.1676
12042TIP3    H257618   0.526   1.191   4.337  1.5702  0.2033 -0.4621
12043TIP3   OH257619   0.656   1.985   0.609 -0.7198 -0.2835 -1.3280
12043TIP3    H157620   0.635   2.064   0.658  1.7442 -0.9864  1.1091
12043TIP3    H257621   0.575   1.935   0.608 -1.3950  0.7153  0.2584
12044TIP3   OH257622   5.637   6.584   4.862 -0.4018 -0.0871 -0.2823
12044TIP3    H157623   5.556   6.616   4.823 -0.5277  0.7349  0.6186
12044TIP3    H257624   5.706   6.616   4.805 -0.6021  0.8220 -0.0276
12045TIP3   OH257625   0.789   3.200  14.000 -0.3665 -0.5325 -0.0988
12045TIP3    H157626   0.712   3.176  14.050 -0.6130  1.6604  0.6559
12045TIP3    H257627   0.863   3.176  14.056 -0.5925  0.2600  0.5404
12046TIP3   OH257628   3.825   4.670   5.369 -0.0268  0.1340  0.1570
12046TIP3    H157629   3.859   4.729   5.436 -0.3799  1.3493 -0.7018
12046TIP3    H257630   3.849   4.582   5.400 -0.9394  0.5780  2.3056
12047TIP3   OH257631   5.896   5.161   1.657  0.9175 -0.2379  0.1542
12047TIP3    H157632   5.983   5.131   1.684  0.9861  0.4400  0.6866
12047TIP3    H257633   5.905   5.255   1.646  0.7574 -0.4056 -1.7397
12048TIP3   OH257634   5.822   4.318  15.033 -0.5012 -0.6669 -0.1557
12048TIP3    H157635   5.782   4.389  14.981  0.4841  0.7931  1.0028
12048TIP3    H257636   5.887   4.279  14.974  0.7588  1.1108 -0.0321
12049TIP3   OH257637   3.279   4.129  16.672 -0.2486  0.2063 -0.3200
12049TIP3    H157638   3.292   4.207  16.725  1.7359 -1.3229  1.6095
12049TIP3    H257639   3.214   4.078  16.719  0.1632 -0.3268 -0.3119
12050TIP3   OH257640   0.558   1.551   4.985 -0.4528 -0.1563  0.4160
12050TIP3    H157641   0.480   1.512   4.946 -0.3733 -1.6369  1.6860
12050TIP3    H257642   0.623   1.481   4.984  0.8447  0.9994 -0.4524
12051TIP3   OH257643   0.874   2.004  17.178 -0.5667  0.1607 -0.2122
12051TIP3    H157644   0.817   2.068  17.134 -0.7624  2.3778  2.9568
12051TIP3    H257645   0.962   2.039  17.167 -0.4561 -0.0854 -0.1037
12052TIP3   OH257646   4.076   5.733  13.888  0.0758 -0.0721 -0.0099
12052TIP3    H157647   4.044   5.681  13.962 -0.5151 -0.5099 -0.5610
12052TIP3    H257648   4.035   5.819  13.899 -0.1460 -0.1888  0.0721
12053TIP3   OH257649   3.440   1.277  15.918 -0.4683  0.6555 -0.2088
12053TIP3    H157650   3.432   1.237  16.004 -1.2227 -0.2647 -0.6836
12053TIP3    H257651   3.409   1.366  15.930  1.0690  1.0911  0.8331
12054TIP3   OH257652   5.388   3.494  12.175  0.3103 -0.8021  0.2750
12054TIP3    H157653   5.468   3.544  12.190 -0.5993  0.2772  1.9244
12054TIP3    H257654   5.380   3.438  12.253 -1.0512 -0.1047  0.6688
12055TIP3   OH257655   1.158   0.868   5.886  0.2742  0.1291 -0.3242
12055TIP3    H157656   1.164   0.919   5.967 -1.1237 -0.1338 -0.0402
12055TIP3    H257657   1.194   0.927   5.819  1.5612  0.3033  0.4716
12056TIP3   OH257658   2.393   3.621   5.119 -0.3436 -0.6452  0.0322
12056TIP3    H157659   2.384   3.709   5.155  1.6027  0.2292 -1.4417
12056TIP3    H257660   2.359   3.564   5.188 -0.8621  1.1794  1.3894
12057TIP3   OH257661   2.894   2.646  14.970 -0.1981  0.2261 -0.8311
12057TIP3    H157662   2.921   2.724  14.922 -0.9669  0.5439 -0.7716
12057TIP3    H257663   2.804   2.631  14.942  0.1615 -1.0503 -1.3444
12058TIP3   OH257664   0.142   5.598   2.413  0.2279 -0.8228 -0.2947
12058TIP3    H157665   0.105   5.667   2.467 -0.4539 -2.4903  1.4964
12058TIP3    H257666   0.231   5.628   2.393 -1.0231  1.9617 -2.2934
12059TIP3   OH257667   0.691   1.664   4.112  0.3893  0.4866  0.0037
12059TIP3    H157668   0.694   1.570   4.130 -0.1743  0.7758  1.8604
12059TIP3    H257669   0.599   1.688   4.122  0.6232  1.3469  0.2429
12060TIP3   OH257670   6.296   4.676   4.364 -0.1420  0.0018  0.2577
12060TIP3    H157671   6.318   4.756   4.316  0.2154 -1.2148 -1.7330
12060TIP3    H257672   6.291   4.703   4.455  0.0974  2.2573 -0.3399
12061TIP3   OH257673   3.456   6.258   1.291 -0.0638 -0.2296  0.0865
12061TIP3    H157674   3.382   6.311   1.260 -0.5426 -2.1753 -2.4797
12061TIP3    H257675   3.506   6.238   1.212  1.3930 -1.6835  1.2949
12062TIP3   OH257676   3.086   4.864  14.706 -0.4001 -0.2128 -0.0310
12062TIP3    H157677   3.069   4.770  14.701  0.7986 -0.3898 -1.7421
12062TIP3    H257678   3.179   4.871  14.726 -0.8538  0.6617  2.0227
12063TIP3   OH257679   5.991   2.878  10.845  0.1786  0.0963  0.0982
12063TIP3    H157680   5.961   2.788  10.841  1.9707 -0.5065 -2.7885
12063TIP3    H257681   6.084   2.871  10.867  0.3666  1.2395 -0.2765
12064TIP3   OH257682   4.768   0.608  10.689  0.3954 -0.5594 -0.8119
12064TIP3    H157683   4.838   0.636  10.749 -0.2769 -1.1548  0.2794
12064TIP3    H257684   4.815   0.585  10.608  1.3515  0.0128 -0.4450
12065TIP3   OH257685   4.199   1.159   5.594 -0.3726  0.1462 -0.0125
12065TIP3    H157686   4.293   1.160   5.573 -0.4799 -0.8567 -0.5802
12065TIP3    H257687   4.157   1.132   5.513 -1.1085 -0.0578  0.4348
12066TIP3   OH257688   1.863   1.986  11.822 -0.2402  0.4339  0.3091
12066TIP3    H157689   1.888   1.915  11.880  0.4740  2.0620  2.1239
12066TIP3    H257690   1.910   2.062  11.856 -1.6097  1.9627 -1.0236
12067TIP3   OH257691   0.172   2.545  13.704 -0.1914 -0.0953 -0.3303
12067TIP3    H157692   0.184   2.467  13.649 -1.5124  0.1831 -1.0411
12067TIP3    H257693   0.104   2.521  13.766 -0.0800  0.2550 -0.0693
12068TIP3   OH257694   0.312   5.313   4.438 -0.0510 -0.1220 -0.9028
12068TIP3    H157695   0.275   5.374   4.502  0.1444 -1.6073  0.7108
12068TIP3    H257696   0.257   5.235   4.444 -0.8857  0.1611 -3.6177
12069TIP3   OH257697   2.023   3.306  12.445  0.7853  0.5636  0.2205
12069TIP3    H157698   2.097   3.364  12.429  0.5687  0.9553  0.6158
12069TIP3    H257699   2.061   3.218  12.445  0.7609  0.4593 -2.7546
12070TIP3   OH257700   1.875   3.945  17.184  0.5124 -0.3204 -0.4157
12070TIP3    H157701   1.798   3.901  17.219 -0.6033 -0.8609 -3.2771
12070TIP3    H257702   1.917   3.984  17.261 -2.4820 -0.1424  1.3059
12071TIP3   OH257703   2.650   6.316   3.756 -0.1298  0.8573  0.0521
12071TIP3    H157704   2.574   6.288   3.806  1.4083 -1.6649  1.1549
12071TIP3    H257705   2.699   6.372   3.816  1.0845 -1.1645  1.0409
12072TIP3   OH257706   3.471   5.238  17.408  0.2950  0.2008  0.1909
12072TIP3    H157707   3.507   5.151  17.427 -2.3521 -1.9427 -3.1922
12072TIP3    H257708   3.381   5.234  17.441 -0.4273  0.8800 -1.5524
12073TIP3   OH257709   1.421   3.269   3.838 -0.3442  0.3289  0.7765
12073TIP3    H157710   1.508   3.307   3.826 -1.3193  2.2350 -0.8153
12073TIP3    H257711   1.437   3.186   3.883  2.1022  1.6799  2.6514
12074TIP3   OH257712   1.446   4.397  13.002 -0.1238  0.0872  0.3408
12074TIP3    H157713   1.460   4.315  13.049 -0.7038  0.9115  2.0310
12074TIP3    H257714   1.356   4.422  13.022  0.1361  1.2951  0.1079
12075TIP3   OH257715   0.978   5.865  15.618  0.1636  0.3961  0.0128
12075TIP3    H157716   1.053   5.806  15.614 -0.5119 -0.4506 -0.2669
12075TIP3    H257717   0.987   5.920  15.539  0.7752  0.6565  0.2592
12076TIP3   OH257718   4.150   3.858   3.574 -0.2935 -0.0946  0.3784
12076TIP3    H157719   4.218   3.814   3.524  0.2817  0.6305  0.5047
12076TIP3    H257720   4.198   3.917   3.633 -0.9648 -0.7160  1.5696
12077TIP3   OH257721   4.401   5.904  15.315 -0.5073 -0.0527 -0.2131
12077TIP3    H157722   4.396   5.809  15.327 -0.1927 -0.1572 -0.8585
12077TIP3    H257723   4.315   5.929  15.282 -0.0725 -0.3742 -1.6713
12078TIP3   OH257724   1.449   3.398  14.709  0.9646  0.2352  0.3794
12078TIP3    H157725   1.391   3.449  14.652 -1.5412  0.1628  2.6898
12078TIP3    H257726   1.532   3.446  14.706  0.8069  0.5525 -2.7775
12079TIP3   OH257727   4.105   0.367  13.453  0.4867 -0.0558 -0.0086
12079TIP3    H157728   4.150   0.334  13.375 -0.5094 -0.5388 -0.3878
12079TIP3    H257729   4.174   0.412  13.502  2.3209 -3.6323  1.1206
12080TIP3   OH257730   0.225   3.181   0.908  0.0333  0.1530  0.0431
12080TIP3    H157731   0.144   3.226   0.934 -0.3938 -0.6404  0.1410
12080TIP3    H257732   0.199   3.089   0.899  1.1072 -0.2616  0.9072
12081TIP3   OH257733   0.826   2.996  17.213 -0.0589 -0.3937 -0.6060
12081TIP3    H157734   0.815   2.993  17.307  0.1689  0.3888 -0.5490
12081TIP3    H257735   0.845   3.088  17.193 -1.4703 -0.2831 -1.5718
12082TIP3   OH257736   5.296   6.464   5.133 -0.4410 -0.5338  0.2842
12082TIP3    H157737   5.268   6.556   5.127  1.9078  0.3282  1.1398
12082TIP3    H257738   5.227   6.421   5.183 -1.6186  0.7462 -0.1587
12083TIP3   OH257739   1.143   4.480   4.777 -0.2292  0.4992 -0.0206
12083TIP3    H157740   1.182   4.507   4.694 -0.3544 -0.0510 -0.2600
12083TIP3    H257741   1.104   4.394   4.759  0.7458 -0.1553  0.9133
12084TIP3   OH257742   3.390   0.169  17.138 -0.4666 -0.3480  0.5721
12084TIP3    H157743   3.321   0.217  17.184 -0.0375 -1.2602  2.2403
12084TIP3    H257744   3.471   0.195  17.182  0.0235 -0.8662 -0.0003
12085TIP3   OH257745   0.816   3.719   5.091 -0.0417 -0.3089  0.5418
12085TIP3    H157746   0.741   3.679   5.048  1.1769 -0.4244 -1.6769
12085TIP3    H257747   0.796   3.716   5.184 -2.6867 -0.4484  0.0373
12086TIP3   OH257748   4.273   0.904   6.105 -0.2480 -0.4358 -0.2073
12086TIP3    H157749   4.202   0.933   6.048 -0.9595  0.2668  0.9973
12086TIP3    H257750   4.264   0.809   6.108 -1.1988 -0.3434  0.0101
12087TIP3   OH257751   3.659   1.491   3.514  0.6939  0.0497 -0.3314
12087TIP3    H157752   3.694   1.461   3.431 -0.2356  0.1110 -0.7563
12087TIP3    H257753   3.677   1.420   3.576 -0.4031 -0.8881 -1.0470
12088TIP3   OH257754   3.554   1.344  13.212 -0.2755 -0.2879 -0.1242
12088TIP3    H157755   3.507   1.330  13.129 -0.2625  1.7006 -0.5274
12088TIP3    H257756   3.634   1.389  13.187 -0.2515  0.3102  0.9604
12089TIP3   OH257757   2.544   1.400   4.371 -0.1943  0.0670 -0.3432
12089TIP3    H157758   2.618   1.345   4.396 -0.7932 -1.7057 -2.2277
12089TIP3    H257759   2.529   1.456   4.448  2.1998 -0.4489  0.5972
12090TIP3   OH257760   2.842   6.673  14.278 -0.0988  0.1843 -0.2290
12090TIP3    H157761   2.749   6.688  14.263 -0.4196 -0.7072  0.7156
12090TIP3    H257762   2.846   6.624  14.361  1.2506  0.8361  0.1303
12091TIP3   OH257763   6.687   4.296   3.409  0.3104  0.4812 -0.0663
12091TIP3    H157764   6.628   4.341   3.348 -0.1259  0.4138  0.2957
12091TIP3    H257765   6.772   4.297   3.366  0.2573  1.4587 -0.1728
12092TIP3   OH257766   1.240   2.072   5.706 -0.2961 -0.4796 -0.1587
12092TIP3    H157767   1.312   2.041   5.762 -0.2270  1.0408  0.6342
12092TIP3    H257768   1.161   2.034   5.744 -0.0686 -0.8975 -0.1034
12093TIP3   OH257769   4.394   1.137  12.935 -0.0593  0.1246  0.1444
12093TIP3    H157770   4.313   1.187  12.943  0.7195  1.4340  0.1805
12093TIP3    H257771   4.461   1.192  12.977  1.2452  0.0877 -1.7353
12094TIP3   OH257772   4.078   1.633  15.950 -0.1263 -0.5791 -0.1765
12094TIP3    H157773   4.147   1.606  16.010 -0.2285 -1.2069 -0.3400
12094TIP3    H257774   4.114   1.616  15.863  0.6952  1.8729 -0.4088
12095TIP3   OH257775   6.594   0.097  11.829 -0.1720  0.0388 -0.5396
12095TIP3    H157776   6.664   0.045  11.867 -0.3234 -0.2938 -0.7056
12095TIP3    H257777   6.532   0.032  11.795  0.3506  0.3069 -2.0959
12096TIP3   OH257778   4.199   6.369   5.493  0.3334  0.4789 -0.3198
12096TIP3    H157779   4.209   6.361   5.399  0.5806 -0.2268 -0.2357
12096TIP3    H257780   4.161   6.286   5.521 -0.8367  1.1105  0.0554
12097TIP3   OH257781   6.318   2.028  12.113  0.8811  0.0664 -0.3775
12097TIP3    H157782   6.342   2.060  12.026  1.1922  2.0066  0.3748
12097TIP3    H257783   6.343   2.098  12.172 -3.4601  0.8401  0.8947
12098TIP3   OH257784   5.049   5.191   0.189 -0.1794 -0.4192  0.1615
12098TIP3    H157785   5.120   5.205   0.251 -0.0003 -2.4046  0.4544
12098TIP3    H257786   4.975   5.162   0.243 -0.8771  0.5178 -0.2634
12099TIP3   OH257787   1.122   2.533   4.007  0.5232  0.9743  0.2868
12099TIP3    H157788   1.216   2.543   4.023  0.8300 -1.6716  0.4778
12099TIP3    H257789   1.093   2.622   3.986  2.6669  2.2448  2.1299
12100TIP3   OH257790   3.451   4.452  16.972  0.4509 -0.3021  0.0692
12100TIP3    H157791   3.457   4.369  17.020  0.6889  0.2095  0.9596
12100TIP3    H257792   3.531   4.457  16.921  0.5602 -0.4962  0.2219
12101TIP3   OH257793   0.149   0.292  16.194  0.0806 -0.0962 -0.5121
12101TIP3    H157794   0.087   0.230  16.231 -0.9764  0.2496 -1.6488
12101TIP3    H257795   0.225   0.239  16.170  0.1888 -0.5413  0.7517
12102TIP3   OH257796   3.054   4.813   4.186  0.2937 -0.0802  0.0035
12102TIP3    H157797   3.100   4.770   4.114 -0.8291 -1.0200 -0.1719
12102TIP3    H257798   3.020   4.893   4.149  0.2556 -0.2580 -0.3476
12103TIP3   OH257799   0.963   1.781  16.539  0.2565  0.5687  0.0174
12103TIP3    H157800   1.007   1.822  16.614  0.1417 -0.5326  0.7042
12103TIP3    H257801   0.891   1.731  16.578 -0.0947  0.3743 -0.8759
12104TIP3   OH257802   4.681   3.138   5.554  0.3659  0.0170 -0.1300
12104TIP3    H157803   4.748   3.098   5.610  0.2237 -1.5669 -1.0063
12104TIP3    H257804   4.600   3.127   5.602  0.5624  0.8562  0.4068
12105TIP3   OH257805   2.324   6.384  10.733 -0.2926 -0.1948  0.1983
12105TIP3    H157806   2.246   6.420  10.692 -0.1544 -0.9819 -0.7878
12105TIP3    H257807   2.389   6.454  10.727 -1.2723  0.9898  2.2610
12106TIP3   OH257808   6.327   6.529  12.491  0.4426 -0.7853 -0.2822
12106TIP3    H157809   6.327   6.587  12.567 -0.3402  0.3421 -1.1119
12106TIP3    H257810   6.258   6.466  12.508  1.3424 -1.5583  0.6564
12107TIP3   OH257811   2.837   2.292  12.180  0.2552 -0.3880 -0.5593
12107TIP3    H157812   2.858   2.328  12.094 -0.4080  0.4618 -0.3813
12107TIP3    H257813   2.749   2.325  12.199 -0.0066 -1.3778  0.0193
12108TIP3   OH257814   5.306   1.569  13.448 -0.1989 -0.0497 -0.0707
12108TIP3    H157815   5.382   1.517  13.423 -0.0341 -0.6554  1.6093
12108TIP3    H257816   5.242   1.553  13.378  0.8003 -0.4102 -0.9194
12109TIP3   OH257817   2.633   3.445  16.350 -0.6799 -0.1330  0.2546
12109TIP3    H157818   2.685   3.386  16.296  1.9524  1.2001  1.1825
12109TIP3    H257819   2.649   3.532  16.314 -1.9123  0.3739  0.8767
12110TIP3   OH257820   2.299   5.310   0.317  0.0357  0.2665 -0.0358
12110TIP3    H157821   2.318   5.404   0.325 -1.6268  0.8408 -2.0236
12110TIP3    H257822   2.210   5.301   0.351  0.4106 -0.7326  0.7189
12111TIP3   OH257823   2.635   5.290  15.912  0.1129  0.9382  0.1253
12111TIP3    H157824   2.663   5.369  15.866  1.2621  0.5333  0.1237
12111TIP3    H257825   2.708   5.230  15.905 -0.8653 -0.2653 -0.1465
12112TIP3   OH257826   5.080   6.716  10.711 -0.2663  0.2108  0.1683
12112TIP3    H157827   5.112   6.673  10.631 -0.7758  1.2672 -0.6270
12112TIP3    H257828   4.992   6.681  10.724  0.3624 -1.0972  1.1549
12113TIP3   OH257829   6.181   1.923   3.907 -1.0566 -0.0211 -0.4265
12113TIP3    H157830   6.181   2.015   3.934 -3.0762  0.3080 -1.3347
12113TIP3    H257831   6.131   1.878   3.975  0.0387 -0.5236  0.0855
12114TIP3   OH257832   6.459   2.956  10.809 -0.9704  0.3044  0.8168
12114TIP3    H157833   6.446   2.942  10.903  0.2733 -1.0513  0.8185
12114TIP3    H257834   6.549   2.929  10.793 -1.0348  0.9068 -0.7097
12115TIP3   OH257835   1.868   6.706  15.616  0.1291  0.5659  0.1083
12115TIP3    H157836   1.921   6.634  15.650  0.9469  1.3764  0.6061
12115TIP3    H257837   1.780   6.687  15.648  0.3358 -0.1989  0.2524
12116TIP3   OH257838   4.473   0.221   2.970 -0.2033 -0.0772  0.2394
12116TIP3    H157839   4.427   0.138   2.981 -0.9393  0.4536  1.2526
12116TIP3    H257840   4.405   0.288   2.977  0.5212  0.6589  0.4264
12117TIP3   OH257841   2.857   2.494  14.381 -0.3388  0.6459 -0.2670
12117TIP3    H157842   2.830   2.488  14.472  0.3981 -2.1533 -0.1208
12117TIP3    H257843   2.871   2.587  14.365  1.7678  1.0586  3.1619
12118TIP3   OH257844   0.654   0.531   0.078 -0.0215  0.6166 -0.1678
12118TIP3    H157845   0.725   0.511   0.138  3.0148  1.4988 -3.1472
12118TIP3    H257846   0.587   0.573   0.132  2.9231  2.3546  2.4410
12119TIP3   OH257847   2.270   0.895   6.026  0.2460  0.4997 -0.2079
12119TIP3    H157848   2.313   0.932   5.948 -0.7945  1.3460 -0.4095
12119TIP3    H257849   2.227   0.970   6.067 -0.6317 -0.2382  0.2504
12120TIP3   OH257850   2.964   6.222   1.250 -0.0427 -0.4947 -0.1089
12120TIP3    H157851   3.012   6.265   1.179 -0.2620  0.4950  0.3200
12120TIP3    H257852   2.873   6.221   1.221 -0.2844  0.7541  0.5202
12121TIP3   OH257853   5.632   3.347  16.511 -0.2150  0.2756  0.1958
12121TIP3    H157854   5.665   3.266  16.473  0.3317 -0.3431  1.9055
12121TIP3    H257855   5.703   3.410  16.500  0.4641 -0.2669  1.3234
12122TIP3   OH257856   5.139   5.957  13.438 -0.1881 -0.1332  0.2971
12122TIP3    H157857   5.119   6.017  13.365 -1.2521 -0.7136  0.0904
12122TIP3    H257858   5.143   6.014  13.515 -1.6413  0.1771  0.1765
12123TIP3   OH257859   1.860   3.611   0.291 -0.3429 -0.2531  0.6895
12123TIP3    H157860   1.814   3.618   0.375  0.5234 -0.8937  1.2339
12123TIP3    H257861   1.940   3.662   0.303  0.1662 -0.9903  0.5444
12124TIP3   OH257862   0.390   6.377  11.745  0.0918  0.3534 -0.4093
12124TIP3    H157863   0.454   6.312  11.773 -1.0328 -0.3416  0.5828
12124TIP3    H257864   0.435   6.461  11.758  0.3272 -0.0416  1.6473
12125TIP3   OH257865   1.607   4.669   5.722  0.4280 -0.0514 -0.2192
12125TIP3    H157866   1.513   4.669   5.705 -0.0212  0.0463  1.9094
12125TIP3    H257867   1.619   4.735   5.790  1.8289 -0.9736  0.4793
12126TIP3   OH257868   0.222   2.024   5.303 -0.1892  0.4394  0.1533
12126TIP3    H157869   0.299   1.970   5.286 -0.2594 -0.4524  2.3208
12126TIP3    H257870   0.245   2.076   5.380 -2.0881 -0.7107  1.6127
12127TIP3   OH257871   4.707   1.162   3.297 -0.2669 -0.3501 -0.2580
12127TIP3    H157872   4.688   1.103   3.223  0.4222 -0.4322 -0.3748
12127TIP3    H257873   4.757   1.109   3.358 -1.0836 -0.3651  0.4152
12128TIP3   OH257874   3.981   0.575  16.656 -0.3837  0.8884  0.1855
12128TIP3    H157875   3.949   0.496  16.611  0.7011  0.5716 -0.0751
12128TIP3    H257876   4.064   0.547  16.695  0.8816  2.3327 -1.3422
12129TIP3   OH257877   1.550   0.326   3.115  0.0824  0.0208 -0.1898
12129TIP3    H157878   1.480   0.321   3.181  0.4664  0.7268  0.2932
12129TIP3    H257879   1.589   0.239   3.114 -0.0786 -0.0600  0.3604
12130TIP3   OH257880   1.162   5.293  17.462  0.2656  0.7428  0.0848
12130TIP3    H157881   1.206   5.214  17.430 -0.1672  1.3768 -2.2274
12130TIP3    H257882   1.164   5.284  17.557  1.4316 -1.3876 -0.0768
12131TIP3   OH257883   6.406   2.924  11.467  0.5413  0.9394  0.7632
12131TIP3    H157884   6.428   2.996  11.526  1.3750 -0.0268  1.6888
12131TIP3    H257885   6.478   2.921  11.405  1.2830  0.0220  1.6200
12132TIP3   OH257886   1.651   5.593   4.772  0.0743 -0.1836  0.2924
12132TIP3    H157887   1.693   5.559   4.850  1.6751  1.9973  0.4789
12132TIP3    H257888   1.578   5.533   4.755 -0.6079 -0.5152  3.6954
12133TIP3   OH257889   6.525   2.834   2.712  0.4588  0.3740 -0.2963
12133TIP3    H157890   6.562   2.902   2.769  1.1678  0.1034 -0.4266
12133TIP3    H257891   6.598   2.807   2.657 -0.1067  0.2951 -1.0143
12134TIP3   OH257892   4.333   6.584   3.500 -0.6323 -0.1150 -0.0682
12134TIP3    H157893   4.373   6.671   3.490 -1.1692 -0.0490 -2.3393
12134TIP3    H257894   4.281   6.573   3.420  0.2975 -2.9818 -0.4001
12135TIP3   OH257895   5.227   5.975  11.569 -0.4198  0.5225  0.2605
12135TIP3    H157896   5.298   6.038  11.582 -0.2462  0.4760 -0.4779
12135TIP3    H257897   5.148   6.029  11.567 -0.3913  0.5977  0.8052
12136TIP3   OH257898   3.720   1.149  15.780  0.8180 -0.3695  0.0834
12136TIP3    H157899   3.810   1.180  15.785  0.4880  1.2423 -2.3817
12136TIP3    H257900   3.674   1.196  15.849  1.0523  2.1399 -1.3716
12137TIP3   OH257901   6.410   2.466   5.811 -0.6166 -0.0122 -0.2798
12137TIP3    H157902   6.468   2.542   5.823 -0.8293  0.4203 -1.7724
12137TIP3    H257903   6.330   2.502   5.772 -0.4205 -1.0725 -1.7670
12138TIP3   OH257904   4.068   1.613   5.177 -0.7503  0.1120 -0.2428
12138TIP3    H157905   4.036   1.676   5.112  0.7821  1.1242 -0.0401
12138TIP3    H257906   4.155   1.589   5.146  0.9298  2.2254  2.4915
12139TIP3   OH257907   2.640   4.038   3.862  0.1671 -0.2951  0.6237
12139TIP3    H157908   2.709   4.057   3.798 -0.5921  0.2971 -0.0397
12139TIP3    H257909   2.636   4.117   3.916 -0.6368  0.0734  0.0481
12140TIP3   OH257910   0.166   5.736   0.105  0.3757 -0.4564  0.3151
12140TIP3    H157911   0.080   5.709   0.072  1.0942 -1.7619 -0.6246
12140TIP3    H257912   0.205   5.785   0.032  0.3859  0.2325  0.7813
12141TIP3   OH257913   1.530   3.421   0.560 -0.2486 -0.0610  0.0855
12141TIP3    H157914   1.436   3.434   0.562 -0.0930  1.3618 -0.3131
12141TIP3    H257915   1.565   3.506   0.533  1.1872 -0.3573  0.9057
12142TIP3   OH257916   4.764   1.719  16.659  0.6937  0.6488 -0.4882
12142TIP3    H157917   4.848   1.677  16.677  0.3123 -0.0113 -0.2026
12142TIP3    H257918   4.783   1.782  16.589  1.6425  1.3186  0.3478
12143TIP3   OH257919   2.278   0.863   1.905  0.2393 -0.3180  0.1226
12143TIP3    H157920   2.319   0.949   1.913  1.5929 -0.9687  0.3866
12143TIP3    H257921   2.343   0.808   1.861 -1.1592 -0.8627 -1.3879
12144TIP3   OH257922   1.140   2.451   1.680 -0.0671 -0.4853  0.4241
12144TIP3    H157923   1.063   2.423   1.630  0.1392  0.4991 -0.4841
12144TIP3    H257924   1.211   2.396   1.646 -0.1425 -0.5802  0.4192
12145TIP3   OH257925   4.709   4.689   0.670 -0.1743  0.2768  0.7305
12145TIP3    H157926   4.695   4.598   0.646 -0.9427  0.6394 -0.2985
12145TIP3    H257927   4.778   4.687   0.736 -0.0565 -1.0264  0.5843
12146TIP3   OH257928   4.791   5.913   4.992  0.0411 -0.1755  1.0247
12146TIP3    H157929   4.733   5.838   4.986  1.3247 -1.0790 -1.1590
12146TIP3    H257930   4.735   5.988   4.971 -0.4261 -1.0107 -0.9547
12147TIP3   OH257931   5.054   1.938   3.550  0.1100  0.3222  0.0415
12147TIP3    H157932   5.085   1.936   3.641  0.5279  0.9761 -0.0768
12147TIP3    H257933   5.060   1.847   3.521  3.4020  0.5636 -0.4187
12148TIP3   OH257934   4.740   6.004   5.809  0.4779 -0.3962  0.0847
12148TIP3    H157935   4.693   5.943   5.865  0.5149  0.2786  0.8706
12148TIP3    H257936   4.676   6.073   5.789  0.5146 -0.5474 -0.5725
12149TIP3   OH257937   0.396   4.548   0.058 -0.1590  0.3749  0.0827
12149TIP3    H157938   0.360   4.460   0.047  0.9939 -0.3061  1.3772
12149TIP3    H257939   0.328   4.607   0.025 -1.3754 -0.9603  0.1223
12150TIP3   OH257940   2.858   6.131  11.084 -0.6302 -0.4914 -0.0424
12150TIP3    H157941   2.829   6.199  11.145 -0.6001 -1.8809  1.6377
12150TIP3    H257942   2.796   6.135  11.011 -0.8658  1.0349  0.2243
12151TIP3   OH257943   2.587   0.890  11.032 -0.2113 -0.1083 -0.2535
12151TIP3    H157944   2.593   0.948  10.957 -1.4487  0.6978  0.2382
12151TIP3    H257945   2.534   0.939  11.096 -1.0105 -1.6255  0.2985
12152TIP3   OH257946   0.649   2.551  16.065 -0.3759  0.0309 -0.0264
12152TIP3    H157947   0.642   2.458  16.087 -0.2254  0.4273  1.8196
12152TIP3    H257948   0.562   2.586  16.084 -0.2185  0.4167 -0.0147
12153TIP3   OH257949   3.545   0.204   2.885 -0.1206  0.1278 -0.3252
12153TIP3    H157950   3.481   0.171   2.821 -0.6958  0.0713  0.2711
12153TIP3    H257951   3.598   0.265   2.836 -2.1459  2.0400 -0.2962
12154TIP3   OH257952   1.311   3.462  12.234  0.9648 -0.5268  0.3641
12154TIP3    H157953   1.292   3.369  12.223 -0.0485 -0.4418  1.2394
12154TIP3    H257954   1.391   3.476  12.184  0.3511 -1.5566 -0.9820
12155TIP3   OH257955   1.504   5.511  11.244 -0.1258 -0.2903 -0.9639
12155TIP3    H157956   1.524   5.603  11.229  1.1629 -0.3694  0.0758
12155TIP3    H257957   1.446   5.486  11.172 -0.5165  1.3274 -1.2439
12156TIP3   OH257958   1.533   4.224  12.081  0.5865  0.5185  0.0455
12156TIP3    H157959   1.532   4.130  12.099 -2.6472  0.5092  0.4458
12156TIP3    H257960   1.471   4.235  12.009  1.4094  2.2949 -0.4440
12157TIP3   OH257961   1.975   2.725  13.882  0.1171 -0.9549  0.2438
12157TIP3    H157962   1.992   2.751  13.791 -1.4967 -0.9164 -0.0758
12157TIP3    H257963   1.941   2.805  13.923  0.2245 -1.1507  0.7140
12158TIP3   OH257964   5.612   0.206  15.266  0.3865  0.3374  0.0107
12158TIP3    H157965   5.660   0.173  15.342  0.0661 -0.8209 -0.2706
12158TIP3    H257966   5.573   0.128  15.227  0.7508  0.8757 -1.4874
12159TIP3   OH257967   3.314   6.606   2.953 -0.2222 -0.0622  0.1557
12159TIP3    H157968   3.280   6.517   2.937  0.7356 -0.7511  1.7188
12159TIP3    H257969   3.257   6.640   3.023  0.4705 -0.1200  0.7577
12160TIP3   OH257970   5.089   4.790   4.358 -0.2390  0.1537  0.2975
12160TIP3    H157971   5.028   4.851   4.398 -1.1126 -1.2823  1.2747
12160TIP3    H257972   5.033   4.725   4.314  0.6497  0.0298 -0.7151
12161TIP3   OH257973   1.901   1.527  11.863 -0.4559  0.1133 -0.1887
12161TIP3    H157974   1.945   1.573  11.792 -2.9969  0.8167 -1.4211
12161TIP3    H257975   1.968   1.469  11.899  2.0928  2.6531 -0.4482
12162TIP3   OH257976   2.869   2.741  14.596  0.1313  0.0276  0.2094
12162TIP3    H157977   2.878   2.837  14.591 -0.8817  0.2700  2.0185
12162TIP3    H257978   2.958   2.708  14.587  0.6957  1.2439  0.9998
12163TIP3   OH257979   0.574   4.479   1.141 -0.2722  0.0079 -0.0720
12163TIP3    H157980   0.509   4.417   1.109 -0.2930 -0.2461  0.4416
12163TIP3    H257981   0.639   4.484   1.071 -0.4183 -0.3761 -0.2414
12164TIP3   OH257982   6.612   0.485   0.981 -0.7925  0.6216  0.0918
12164TIP3    H157983   6.694   0.493   1.029  0.6090 -0.6151 -1.9132
12164TIP3    H257984   6.589   0.392   0.988  0.3296  0.0109 -2.7574
12165TIP3   OH257985   1.453   2.706  17.429 -0.4070 -0.1506  0.5820
12165TIP3    H157986   1.473   2.617  17.459 -0.9679 -0.7455 -0.7498
12165TIP3    H257987   1.403   2.694  17.348  2.4941  1.3724 -1.6087
12166TIP3   OH257988   2.126   1.992  11.621  0.2491 -0.2556  0.1213
12166TIP3    H157989   2.214   1.982  11.659  0.2611 -0.5174  0.0278
12166TIP3    H257990   2.082   2.053  11.679  0.0019 -1.2661  1.0326
12167TIP3   OH257991   2.666   3.537   5.364  0.2470  0.5377 -0.5290
12167TIP3    H157992   2.667   3.505   5.274  1.5302 -4.1211  0.8835
12167TIP3    H257993   2.755   3.569   5.379  0.1609  0.8941 -0.7700
12168TIP3   OH257994   0.338   3.324   0.377 -0.3457 -0.3973 -0.3260
12168TIP3    H157995   0.363   3.378   0.302 -1.1735 -1.4119 -1.3746
12168TIP3    H257996   0.296   3.385   0.437 -0.7535  0.2361 -1.2196
12169TIP3   OH257997   2.972   2.282  12.412  0.2841  0.0272  0.4713
12169TIP3    H157998   3.051   2.317  12.372 -0.4398  1.3745  0.1564
12169TIP3    H257999   2.906   2.287  12.342 -0.8405  1.8166  1.5687
12170TIP3   OH258000   2.613   0.937  11.906  0.3436  0.0522  0.7206
12170TIP3    H158001   2.703   0.966  11.889 -0.5550  1.6362 -1.9985
12170TIP3    H258002   2.566   1.017  11.931 -0.4438 -0.6691  1.6202
12171TIP3   OH258003   6.095   1.927  16.922 -0.2439  0.0644 -0.2063
12171TIP3    H158004   6.181   1.947  16.958 -0.2230 -2.0283  1.0432
12171TIP3    H258005   6.036   1.932  16.998 -1.0475  0.3484 -0.8299
12172TIP3   OH258006   3.883   4.113   1.757 -0.2474  0.2163 -0.0298
12172TIP3    H158007   3.939   4.053   1.807 -1.5140 -0.6139  0.4526
12172TIP3    H258008   3.916   4.200   1.779  0.6585 -0.2409  0.4790
12173TIP3   OH258009   0.073   4.767   2.873 -0.1572  0.7994  0.4358
12173TIP3    H158010   0.094   4.676   2.893 -0.3860  0.1671 -1.8656
12173TIP3    H258011   0.102   4.816   2.950  0.7224 -1.1041  1.3953
12174TIP3   OH258012   0.895   0.655   2.405 -0.2335 -0.6475 -0.1216
12174TIP3    H158013   0.901   0.562   2.425 -0.7834 -0.7347 -0.3408
12174TIP3    H258014   0.858   0.658   2.317  1.2964 -0.2493 -0.7839
12175TIP3   OH258015   3.143   0.648   2.132 -0.6580  0.0340 -0.3321
12175TIP3    H158016   3.105   0.680   2.051 -0.2618  0.4707 -0.3428
12175TIP3    H258017   3.204   0.579   2.105 -0.5009  0.2028 -0.4074
12176TIP3   OH258018   6.661   1.970  11.641 -0.4868 -0.1663  0.1398
12176TIP3    H158019   6.588   1.912  11.624  0.1408 -0.3949 -2.0244
12176TIP3    H258020   6.667   2.026  11.564  0.4056  1.1903  1.1285
12177TIP3   OH258021   5.115   2.507   0.581 -0.7467 -0.0437  0.0085
12177TIP3    H158022   5.143   2.504   0.490 -1.8481  0.1764 -0.3512
12177TIP3    H258023   5.173   2.570   0.622  1.6680 -2.2051  0.1660
12178TIP3   OH258024   3.438   3.620   1.396 -1.0674 -0.2997  0.1450
12178TIP3    H158025   3.417   3.703   1.354 -0.0288 -0.7382 -1.3478
12178TIP3    H258026   3.509   3.641   1.457  0.6328 -0.3557 -1.7007
12179TIP3   OH258027   1.804   0.721   2.754 -0.0689  0.4415 -0.0760
12179TIP3    H158028   1.883   0.680   2.790 -0.5588 -0.3479  0.1081
12179TIP3    H258029   1.815   0.815   2.773  1.0664  0.4135 -0.5107
12180TIP3   OH258030   0.738   2.103   0.328  0.4520 -0.1448 -0.1811
12180TIP3    H158031   0.695   2.045   0.391 -0.0080 -1.8941 -2.0007
12180TIP3    H258032   0.697   2.081   0.244  3.7691 -0.7755 -1.7830
12181TIP3   OH258033   1.359   0.322   4.822 -0.0441  0.4230 -0.1019
12181TIP3    H158034   1.263   0.325   4.813 -0.2145 -1.1034  0.8714
12181TIP3    H258035   1.374   0.275   4.904  1.5555  0.5665 -0.2806
12182TIP3   OH258036   0.336   6.003   1.897  0.6044  0.3571 -0.2354
12182TIP3    H158037   0.323   5.909   1.886 -0.1763  0.4084  0.1885
12182TIP3    H258038   0.294   6.024   1.980 -0.6762  1.3465 -1.0800
12183TIP3   OH258039   5.877   4.236  12.430  0.5711  0.2714 -0.4282
12183TIP3    H158040   5.954   4.178  12.429  0.4556  0.1214 -0.7470
12183TIP3    H258041   5.913   4.323  12.444  0.5913 -0.1099  2.7421
12184TIP3   OH258042   3.984   4.721  13.048 -0.2701  0.0777 -0.4448
12184TIP3    H158043   4.019   4.806  13.073  1.4843 -0.6206 -0.3628
12184TIP3    H258044   3.924   4.698  13.119 -0.3968  1.0212 -0.2335
12185TIP3   OH258045   0.834   0.270  14.352  0.0975 -0.1875 -0.1395
12185TIP3    H158046   0.806   0.183  14.382  0.1242 -0.0737  0.2206
12185TIP3    H258047   0.887   0.252  14.274 -0.1934 -0.4694 -0.2726
12186TIP3   OH258048   5.759   0.961  13.501 -0.0068 -0.1203  0.6718
12186TIP3    H158049   5.822   0.890  13.484 -0.1438 -0.3669  1.1488
12186TIP3    H258050   5.813   1.039  13.514  0.2770 -0.4888  1.8995
12187TIP3   OH258051   2.508   3.878   3.301 -0.0695  0.3852  0.6595
12187TIP3    H158052   2.572   3.829   3.250 -2.1816 -0.2518 -1.5920
12187TIP3    H258053   2.491   3.822   3.378 -2.0749 -2.4431 -1.6059
12188TIP3   OH258054   1.793   2.540  11.948  0.2435 -0.2250 -0.3263
12188TIP3    H158055   1.809   2.538  11.854 -0.8827 -0.9385 -0.5232
12188TIP3    H258056   1.783   2.448  11.972 -0.0657 -0.0125  0.3816
12189TIP3   OH258057   4.473   5.098  11.737  0.3788  0.0858 -0.1000
12189TIP3    H158058   4.496   5.168  11.798  2.7882  0.2852 -1.1201
12189TIP3    H258059   4.410   5.044  11.784 -1.5138  2.8344  0.7636
12190TIP3   OH258060   4.681   3.234   3.027  0.1933 -0.6626  0.6431
12190TIP3    H158061   4.678   3.317   3.074 -0.0760  0.0154 -0.5276
12190TIP3    H258062   4.599   3.190   3.049  0.8365 -1.1683  2.1828
12191TIP3   OH258063   6.109   6.123   0.747 -0.2502 -0.5212  0.4317
12191TIP3    H158064   6.067   6.207   0.763 -0.0950 -0.1023 -1.2102
12191TIP3    H258065   6.180   6.119   0.812 -0.4833  0.4392  0.7634
12192TIP3   OH258066   4.437   6.571   1.759  0.0389  0.1256 -0.8208
12192TIP3    H158067   4.389   6.492   1.784  1.2923 -0.9332 -1.5901
12192TIP3    H258068   4.379   6.643   1.781 -2.5459 -1.1068 -3.0164
12193TIP3   OH258069   0.040   5.402   5.023 -0.0125  0.4343  0.2803
12193TIP3    H158070   0.126   5.412   5.062  0.4600 -1.0110 -0.3279
12193TIP3    H258071  -0.012   5.474   5.059  1.2393  0.8928  1.2050
12194TIP3   OH258072   0.216   0.108   5.973 -0.5867 -0.0276  0.8539
12194TIP3    H158073   0.212   0.203   5.975 -0.4572  0.0942 -1.5664
12194TIP3    H258074   0.261   0.084   6.054 -0.2223  1.9866  1.3027
12195TIP3   OH258075   2.310   0.278  14.036 -0.5615 -0.3020  0.4308
12195TIP3    H158076   2.278   0.354  14.083  0.2264  0.2525  0.0866
12195TIP3    H258077   2.244   0.210  14.052 -3.3176  1.4738 -2.2997
12196TIP3   OH258078   5.276   2.503   4.336  0.0519  0.3590 -0.2248
12196TIP3    H158079   5.218   2.564   4.292 -1.7026 -0.0896  1.3233
12196TIP3    H258080   5.360   2.548   4.341 -0.3783  1.3957 -1.7564
12197TIP3   OH258081   6.350   0.931  12.735 -0.6231 -0.0824  0.1714
12197TIP3    H158082   6.441   0.938  12.706  0.0109 -0.5112  1.9835
12197TIP3    H258083   6.303   0.993  12.680  0.9220  0.8549 -0.1426
12198TIP3   OH258084   5.467   4.217   5.010 -0.4193  0.0101 -0.4426
12198TIP3    H158085   5.452   4.165   5.088 -3.1809  1.0367 -0.1786
12198TIP3    H258086   5.529   4.285   5.038 -0.5641 -0.2524  0.5548
12199TIP3   OH258087   1.486   5.226  15.678 -0.6966 -0.2897  0.1239
12199TIP3    H158088   1.555   5.167  15.647 -0.8391 -0.1073 -0.5522
12199TIP3    H258089   1.453   5.184  15.758  1.6723  0.7199  1.7354
12200TIP3   OH258090   2.064   6.625   2.761  0.0717  0.4385  0.2133
12200TIP3    H158091   2.016   6.542   2.768 -1.0683  0.9048 -1.4738
12200TIP3    H258092   2.155   6.602   2.782  0.1073 -1.6191 -1.7766
12201TIP3   OH258093   1.420   3.573   4.859 -0.3312 -0.2233  0.2578
12201TIP3    H158094   1.365   3.565   4.937 -0.5249  1.8004  0.3906
12201TIP3    H258095   1.442   3.483   4.835 -1.7033 -0.9605  1.6177
12202TIP3   OH258096   2.855   3.877   5.676 -0.2579 -0.1689  0.3112
12202TIP3    H158097   2.798   3.812   5.717  2.1099 -1.5113  1.6598
12202TIP3    H258098   2.857   3.854   5.584 -0.5901 -1.1098  0.5321
12203TIP3   OH258099   2.186   3.380  15.524 -0.5725  0.2382 -0.4111
12203TIP3    H158100   2.237   3.453  15.559 -0.3029 -0.0193 -0.2748
12203TIP3    H258101   2.213   3.374  15.432  1.1806 -1.2158  0.1479
12204TIP3   OH258102   4.852   2.089   3.105  0.0800 -0.1774 -0.0963
12204TIP3    H158103   4.911   2.057   3.174  0.2747 -0.3014 -0.3179
12204TIP3    H258104   4.898   2.164   3.067 -0.0796 -0.0386 -0.0140
12205TIP3   OH258105   5.570   5.313  15.233 -0.3775  0.5849  0.6721
12205TIP3    H158106   5.536   5.340  15.148  0.4778  1.2588  0.5400
12205TIP3    H258107   5.514   5.239  15.258 -1.0363  0.7799 -0.1790
12206TIP3   OH258108   5.546   4.336   3.184  0.2458  0.5083  0.1696
12206TIP3    H158109   5.496   4.262   3.150  1.3046 -0.5867  0.8824
12206TIP3    H258110   5.551   4.398   3.112 -2.8417  1.0769  0.3323
12207TIP3   OH258111   0.028   3.712  17.506  0.0665 -0.5051  0.7756
12207TIP3    H158112   0.095   3.656  17.544 -0.1513 -0.3362  1.4354
12207TIP3    H258113   0.027   3.790  17.563 -0.3168 -0.2744  0.4596
12208TIP3   OH258114   3.554   2.023   6.429 -0.5499  0.4791  0.3995
12208TIP3    H158115   3.646   2.004   6.410 -0.6615 -1.8722  1.7458
12208TIP3    H258116   3.513   2.034   6.343  0.6151 -0.6326 -0.3352
12209TIP3   OH258117   0.221   6.183   3.853  0.4624 -0.4384  0.3191
12209TIP3    H158118   0.240   6.116   3.919 -0.6230  0.8745  2.0546
12209TIP3    H258119   0.130   6.209   3.870  0.7099  1.1735 -0.5744
12210TIP3   OH258120   5.294   1.376  16.466 -0.2264  0.0984 -0.2759
12210TIP3    H158121   5.291   1.396  16.560  0.1642 -1.1904  0.0272
12210TIP3    H258122   5.291   1.462  16.424  0.6413  0.7720  0.9413
12211TIP3   OH258123   6.508   0.395   2.978  0.0294 -0.2167  0.2632
12211TIP3    H158124   6.567   0.350   2.918 -2.0056 -1.3936 -0.9789
12211TIP3    H258125   6.525   0.488   2.965  1.6803 -0.5131  0.0847
12212TIP3   OH258126   0.631   4.471  15.285 -0.3806 -0.6796  0.3264
12212TIP3    H158127   0.576   4.416  15.340 -0.9092 -0.6337 -0.1415
12212TIP3    H258128   0.687   4.519  15.346 -0.0062 -1.6292  0.7432
12213TIP3   OH258129   6.569   6.389  14.987 -0.1375 -0.1584 -0.5905
12213TIP3    H158130   6.517   6.437  14.922 -0.2572 -0.6981 -0.8919
12213TIP3    H258131   6.626   6.456  15.026 -0.0149  0.1568 -1.2983
12214TIP3   OH258132   5.032   0.423  16.502 -0.3509  0.5166 -0.2791
12214TIP3    H158133   5.007   0.483  16.572 -1.1624 -0.3371  0.1931
12214TIP3    H258134   4.954   0.417  16.447  0.0993  0.7534 -0.9475
12215TIP3   OH258135   5.964   3.780   5.986 -0.3564  0.0223  0.2731
12215TIP3    H158136   6.020   3.725   6.041  0.0085 -0.4612 -0.5669
12215TIP3    H258137   5.884   3.791   6.037 -0.8742 -2.1944  0.0198
12216TIP3   OH258138   0.963   3.402   4.655  0.3559  0.6700 -0.1869
12216TIP3    H158139   0.869   3.419   4.659  0.1935 -0.3774  1.1700
12216TIP3    H258140   1.003   3.489   4.657 -0.5660  1.1027  0.3667
12217TIP3   OH258141   0.309   0.071  14.136  0.1093  0.3111  0.1213
12217TIP3    H158142   0.327   0.017  14.212 -0.1478 -0.7700 -0.5642
12217TIP3    H258143   0.265   0.012  14.074 -0.3973  1.3603 -0.5572
12218TIP3   OH258144   3.609   6.526   6.620 -0.0728  0.3070 -0.3568
12218TIP3    H158145   3.631   6.619   6.630 -0.3274  0.4043 -0.6957
12218TIP3    H258146   3.527   6.516   6.669 -0.9715  0.6436 -1.7203
12219TIP3   OH258147   5.475   0.911  11.465 -0.7684  0.0987 -0.1289
12219TIP3    H158148   5.538   0.983  11.471 -0.7463  0.2089 -1.3343
12219TIP3    H258149   5.468   0.894  11.371 -2.1442 -0.2656  0.0261
12220TIP3   OH258150   5.462   4.623   0.123  0.4899 -0.0931 -0.4371
12220TIP3    H158151   5.461   4.696   0.062 -0.0865  0.5996  0.3827
12220TIP3    H258152   5.546   4.630   0.168  1.0123 -0.7337 -1.2745
12221TIP3   OH258153   0.297   0.148   5.716  0.0623  0.3437 -0.2267
12221TIP3    H158154   0.264   0.139   5.805  3.1816 -1.3641  0.9286
12221TIP3    H258155   0.271   0.066   5.672 -1.3559  1.1253 -0.9249
12222TIP3   OH258156   4.045   1.472  13.865  0.8680  0.3705  0.2029
12222TIP3    H158157   4.053   1.386  13.823 -1.6101  0.4266 -0.5551
12222TIP3    H258158   3.961   1.469  13.910  0.6371  2.4449 -0.0004
12223TIP3   OH258159   5.996   6.759   2.310  0.2898 -0.2488  0.1048
12223TIP3    H158160   5.905   6.778   2.288 -0.0068  0.0426  1.4917
12223TIP3    H258161   6.021   6.827   2.372  1.4968 -0.2587 -0.3443
12224TIP3   OH258162   1.383   0.933  11.459 -0.2179  0.8310  0.0715
12224TIP3    H158163   1.408   0.860  11.515  1.5902  1.5706  0.2818
12224TIP3    H258164   1.311   0.899  11.406  0.4654 -1.0457  0.2864
12225TIP3   OH258165   1.783   4.679  15.103 -0.4916  0.1699  0.5732
12225TIP3    H158166   1.848   4.645  15.042  0.5224  1.1127  1.0950
12225TIP3    H258167   1.785   4.617  15.176  0.8075  0.8826  1.1818
12226TIP3   OH258168   3.019   2.102  15.235  0.2083 -0.1693 -0.0507
12226TIP3    H158169   3.011   2.185  15.282 -0.0794  0.0182 -0.4287
12226TIP3    H258170   3.113   2.091  15.221  0.3800 -0.6504  1.3244
12227TIP3   OH258171   2.352   0.553   3.432  0.2256  0.0219  0.3469
12227TIP3    H158172   2.426   0.501   3.463  0.1824  0.7217  1.7283
12227TIP3    H258173   2.275   0.497   3.447  0.3005 -0.0037  0.6372
12228TIP3   OH258174   3.477   4.837   2.575 -0.4074  0.1511  0.3304
12228TIP3    H158175   3.458   4.856   2.483 -0.7337 -0.2858  0.3052
12228TIP3    H258176   3.519   4.917   2.608 -2.2090  1.1414  0.3588
12229TIP3   OH258177   3.926   2.288  13.493 -0.2948  0.1518  0.3386
12229TIP3    H158178   4.019   2.270  13.482 -0.0978  1.0197  0.5085
12229TIP3    H258179   3.883   2.234  13.426  0.3446 -0.0968  0.1238
12230TIP3   OH258180   1.532   3.166  13.258 -0.0819 -0.1272  0.6734
12230TIP3    H158181   1.593   3.161  13.185  0.1342  0.3178  0.8181
12230TIP3    H258182   1.449   3.133  13.223  0.2644 -0.8245  0.5019
12231TIP3   OH258183   2.068   4.172  15.985  0.4889 -0.4425 -0.1638
12231TIP3    H158184   2.049   4.086  16.024 -2.7791 -0.4046 -1.4149
12231TIP3    H258185   2.074   4.155  15.891  2.5787  0.3728 -0.2517
12232TIP3   OH258186   0.804   2.705  17.161  0.7632 -0.2227 -0.2969
12232TIP3    H158187   0.810   2.797  17.137  2.1559 -0.4489 -0.9410
12232TIP3    H258188   0.830   2.702  17.253 -1.1771  0.2314  0.3086
12233TIP3   OH258189   5.394   4.368   5.601 -0.6123  0.4642 -0.4853
12233TIP3    H158190   5.369   4.306   5.670  1.1493  0.3700  0.1082
12233TIP3    H258191   5.439   4.439   5.646  1.1450  0.1003 -1.5566
12234TIP3   OH258192   6.652   6.474  15.667  0.4841 -0.1194  0.2428
12234TIP3    H158193   6.571   6.521  15.685  0.4609 -0.5099  1.2758
12234TIP3    H258194   6.643   6.441  15.578 -0.2578  0.2967  0.1611
12235TIP3   OH258195   6.405   4.876  16.701  0.2624  0.0215  0.2769
12235TIP3    H158196   6.333   4.813  16.703  1.1966 -1.0490  0.9145
12235TIP3    H258197   6.450   4.865  16.784  0.1122  1.9691  0.6735
12236TIP3   OH258198   0.070   2.375   0.246  0.0873 -0.1995  0.1056
12236TIP3    H158199   0.070   2.281   0.231  3.5146 -0.2037 -0.6463
12236TIP3    H258200   0.100   2.413   0.163 -1.0331  1.5765  0.4513
12237TIP3   OH258201   1.551   4.747   4.939  0.1995  0.2842 -0.3781
12237TIP3    H158202   1.511   4.829   4.967 -0.2146 -0.2643  0.6856
12237TIP3    H258203   1.607   4.721   5.013 -0.5966 -0.9910 -0.2015
12238TIP3   OH258204   0.406   2.659  15.397 -0.4066 -0.1246  0.0851
12238TIP3    H158205   0.326   2.649  15.449  1.2564 -3.0167  2.3888
12238TIP3    H258206   0.424   2.571  15.363  1.1204  0.7354 -1.5104
12239TIP3   OH258207   3.504   4.344  11.018  0.3319  0.1433  0.2288
12239TIP3    H158208   3.489   4.307  11.105  0.0822  1.8391  0.9584
12239TIP3    H258209   3.516   4.269  10.961 -0.2287 -1.0292  1.6039
12240TIP3   OH258210   2.410   0.279   3.550  0.0961  0.0146  0.0474
12240TIP3    H158211   2.483   0.270   3.612 -0.3451 -0.4402  0.5063
12240TIP3    H258212   2.403   0.193   3.508  1.3208  0.7011 -1.7099
12241TIP3   OH258213   4.300   6.167  11.303  0.1706 -0.2810 -0.0842
12241TIP3    H158214   4.247   6.112  11.245 -3.3359 -0.2700  2.7399
12241TIP3    H258215   4.353   6.105  11.353  0.5628 -0.5657 -0.8432
12242TIP3   OH258216   5.116   2.811  14.212 -0.5233 -0.1384 -0.3364
12242TIP3    H158217   5.202   2.785  14.244 -0.8807 -1.2829 -0.2729
12242TIP3    H258218   5.130   2.834  14.120 -0.3023 -1.1813 -0.5708
12243TIP3   OH258219   3.247   2.330  14.560  0.4063 -0.5146 -0.4741
12243TIP3    H158220   3.192   2.302  14.633  0.7955 -1.3670 -0.4906
12243TIP3    H258221   3.232   2.264  14.493 -0.1256  0.3880 -1.2721
12244TIP3   OH258222   1.819   4.175  13.751  0.5506 -0.2217 -0.2127
12244TIP3    H158223   1.842   4.173  13.658 -0.5527 -1.3479 -0.4899
12244TIP3    H258224   1.843   4.087  13.782  0.0212 -0.1680  0.3410
12245TIP3   OH258225   6.640   5.922   3.379  0.0241 -0.2337 -0.0998
12245TIP3    H158226   6.680   5.997   3.334  0.7220  0.7450  2.0398
12245TIP3    H258227   6.551   5.952   3.400 -1.4038 -1.7535 -3.2359
12246TIP3   OH258228   0.526   6.298  15.768 -0.0342 -0.4390  0.5689
12246TIP3    H158229   0.452   6.327  15.715  1.6187 -0.0829 -1.6972
12246TIP3    H258230   0.494   6.220  15.813 -1.4631 -0.9766 -1.2302
12247TIP3   OH258231   6.397   3.393   2.597 -0.0585  0.2904  0.3223
12247TIP3    H158232   6.328   3.415   2.660  0.9784  1.2623  1.1503
12247TIP3    H258233   6.352   3.343   2.529 -1.4583  0.3648  1.1575
12248TIP3   OH258234   1.127   2.701   5.039  0.5703 -0.1698  0.4664
12248TIP3    H158235   1.068   2.772   5.014  0.8252 -0.5938 -1.4862
12248TIP3    H258236   1.147   2.718   5.131 -1.3619  0.8483  0.7631
12249TIP3   OH258237   0.274   2.510  16.526  0.2310 -0.1639 -0.3702
12249TIP3    H158238   0.297   2.576  16.592 -1.3253 -0.0949  0.1398
12249TIP3    H258239   0.237   2.559  16.454 -1.1889 -0.4792  0.1243
12250TIP3   OH258240   1.035   4.949  14.698  0.1980 -0.0348  0.0658
12250TIP3    H158241   0.956   4.988  14.660  1.4298  1.4570 -1.0634
12250TIP3    H258242   1.014   4.938  14.791 -1.5022 -0.1628 -0.2970
12251TIP3   OH258243   3.240   4.601   2.277 -0.1072 -0.5969  0.1228
12251TIP3    H158244   3.274   4.663   2.212  0.3315  1.3502  2.0860
12251TIP3    H258245   3.145   4.618   2.279  0.2041  1.4136  1.8836
12252TIP3   OH258246   5.357   4.529   3.748  0.3200 -0.4702  0.0496
12252TIP3    H158247   5.271   4.567   3.764  1.3654  0.9216  2.9526
12252TIP3    H258248   5.377   4.480   3.828  2.4801 -0.2308 -0.2855
12253TIP3   OH258249   5.527   0.788  15.285  0.0867 -0.7835 -0.1335
12253TIP3    H158250   5.524   0.880  15.309 -0.0354 -0.6901 -0.4956
12253TIP3    H258251   5.588   0.784  15.211  0.5134 -1.0762  0.2284
12254TIP3   OH258252   6.560   0.924   3.582 -0.2214 -0.0109 -0.1138
12254TIP3    H158253   6.643   0.877   3.575  0.8716  1.8681 -0.1776
12254TIP3    H258254   6.513   0.878   3.652  1.8420  0.2846  1.5548
12255TIP3   OH258255   2.796   1.503  12.255 -0.2636  0.2705 -0.2597
12255TIP3    H158256   2.852   1.576  12.282  0.0256 -0.1672  0.3757
12255TIP3    H258257   2.838   1.469  12.176  1.3698 -1.0738  1.0948
12256TIP3   OH258258   1.516   6.750  10.882 -0.0346  0.2140 -0.3178
12256TIP3    H158259   1.556   6.763  10.969  0.4092 -1.0380 -0.3126
12256TIP3    H258260   1.575   6.688  10.838 -1.9242 -1.7010 -0.3236
12257TIP3   OH258261   6.344   6.573  16.700  0.3888  0.1968  0.0624
12257TIP3    H158262   6.390   6.541  16.777 -0.5944  0.6868  0.8879
12257TIP3    H258263   6.251   6.566  16.724  0.0384 -0.4242 -1.4042
12258TIP3   OH258264   5.336   0.459  15.955  0.7127 -0.4139 -0.4114
12258TIP3    H158265   5.244   0.433  15.947  0.4258 -1.2475  3.5042
12258TIP3    H258266   5.385   0.388  15.913 -0.3873 -1.6861  0.3714
12259TIP3   OH258267   0.706   1.659  16.659 -0.2099  0.2995  0.2615
12259TIP3    H158268   0.731   1.583  16.607 -0.5066  0.9144 -0.8240
12259TIP3    H258269   0.614   1.675  16.635 -0.2246  0.8416  0.6677
12260TIP3   OH258270   6.016   5.399   0.799 -0.0203 -0.6565  0.1816
12260TIP3    H158271   6.018   5.428   0.708  0.7458  0.7031  0.6028
12260TIP3    H258272   6.108   5.382   0.821 -0.2780 -1.7137  0.4875
12261TIP3   OH258273   4.571   2.246  16.209 -0.7637 -0.1174 -0.1802
12261TIP3    H158274   4.568   2.220  16.301 -0.5160  1.3391  0.2590
12261TIP3    H258275   4.637   2.188  16.170 -0.5861 -0.4838  0.6398
12262TIP3   OH258276   2.564   1.277   2.639 -0.4385  0.3215  0.2595
12262TIP3    H158277   2.634   1.339   2.657 -1.2386  1.5756 -0.7565
12262TIP3    H258278   2.603   1.214   2.579 -0.4262  1.6497 -1.2028
12263TIP3   OH258279   0.470   0.364   1.760 -0.1538 -0.2013 -0.1437
12263TIP3    H158280   0.452   0.270   1.753  0.2855 -0.5501  2.4070
12263TIP3    H258281   0.383   0.404   1.766 -0.3409 -0.7609  1.3759
12264TIP3   OH258282   6.211   6.359  12.764  0.3276  0.0939 -0.4834
12264TIP3    H158283   6.130   6.307  12.763  0.0432  0.4593  0.9430
12264TIP3    H258284   6.281   6.294  12.761 -0.0220 -0.3048 -0.2325
12265TIP3   OH258285   5.063   5.384  16.049  0.8115 -0.6942 -0.5308
12265TIP3    H158286   4.991   5.441  16.024  0.4733 -0.7576  0.2605
12265TIP3    H258287   5.086   5.337  15.969  2.4118  1.9166 -1.7549
12266TIP3   OH258288   1.751   1.822   5.091 -0.2191 -0.7953  0.1775
12266TIP3    H158289   1.814   1.869   5.036  0.7798 -1.3672  0.7960
12266TIP3    H258290   1.666   1.856   5.065  0.2946 -0.4510 -1.1322
12267TIP3   OH258291   1.995   5.743   1.843 -0.2712 -0.3220  0.4971
12267TIP3    H158292   1.986   5.837   1.830  1.1783 -0.4164 -1.6495
12267TIP3    H258293   2.080   5.731   1.885 -0.5699 -0.6889  1.0245
12268TIP3   OH258294   6.239   6.270  16.803 -0.1874  0.1170  0.2087
12268TIP3    H158295   6.247   6.246  16.711  0.9920  0.1479  0.2964
12268TIP3    H258296   6.329   6.284  16.833 -0.6633  3.2162  0.5637
12269TIP3   OH258297   2.106   0.540   1.694 -0.2480  0.3916 -0.0160
12269TIP3    H158298   2.061   0.485   1.630  1.3764 -0.2392 -0.6844
12269TIP3    H258299   2.195   0.504   1.698  0.3715  1.9199  0.8191
12270TIP3   OH258300   6.544   6.028  13.723 -0.1678  0.1518  0.3438
12270TIP3    H158301   6.549   6.107  13.669  1.6916  0.8645  1.4611
12270TIP3    H258302   6.460   6.035  13.769 -1.1257  0.2323 -1.3289
12271TIP3   OH258303   2.593   6.397   1.322  0.1491  0.3018 -0.1196
12271TIP3    H158304   2.612   6.312   1.283  0.1660 -0.3755  1.3083
12271TIP3    H258305   2.628   6.460   1.259 -1.9251 -0.6261 -2.3599
12272TIP3   OH258306   2.808   3.271   1.603 -0.0697 -0.5278 -0.0065
12272TIP3    H158307   2.762   3.224   1.673  1.2194  0.6782  1.7311
12272TIP3    H258308   2.761   3.354   1.594  0.0658 -0.4740 -0.2316
12273TIP3   OH258309   5.791   2.404   1.230 -0.4163 -0.1988  0.2196
12273TIP3    H158310   5.787   2.311   1.253  1.1185 -0.5136 -0.6286
12273TIP3    H258311   5.850   2.442   1.295 -1.8753  0.4394  1.2233
12274TIP3   OH258312   0.886   0.287   3.035 -0.8433  0.4553 -0.2347
12274TIP3    H158313   0.917   0.305   3.123  0.4379  0.7083 -0.7173
12274TIP3    H258314   0.801   0.332   3.030 -2.6377 -2.3326  1.9357
12275TIP3   OH258315   4.237   2.081   0.078  0.0293  0.1141 -0.1413
12275TIP3    H158316   4.250   2.165   0.033  0.3666 -0.1408 -0.5311
12275TIP3    H258317   4.201   2.105   0.163 -0.7352  0.5996 -0.5913
12276TIP3   OH258318   3.712   1.650   2.999  0.2307 -0.2531 -0.3952
12276TIP3    H158319   3.781   1.648   2.932 -0.7975 -1.8611 -1.4610
12276TIP3    H258320   3.667   1.734   2.984  1.9645  0.8724  0.3923
12277TIP3   OH258321   5.415   4.744   5.366  0.2244  0.2759 -0.1460
12277TIP3    H158322   5.493   4.698   5.336  0.7509 -0.8476  2.6528
12277TIP3    H258323   5.345   4.713   5.308  0.7465 -3.4527  0.9176
12278TIP3   OH258324   6.321   5.482   0.187 -0.2515 -0.0564 -0.0602
12278TIP3    H158325   6.367   5.457   0.106  0.4642 -1.7911  0.8441
12278TIP3    H258326   6.388   5.526   0.239 -0.2484 -0.4540  0.2754
12279TIP3   OH258327   1.486   2.275  16.000  0.0387  0.3976 -0.6138
12279TIP3    H158328   1.447   2.209  15.942  1.4287 -0.5026 -0.5916
12279TIP3    H258329   1.578   2.278  15.973  0.6487  0.2055  1.3072
12280TIP3   OH258330   6.569   0.026   2.826  0.2315 -0.0301 -0.2288
12280TIP3    H158331   6.570  -0.016   2.740 -1.8291  2.2400 -1.4976
12280TIP3    H258332   6.504   0.095   2.818  0.5239  0.7757  2.9670
12281TIP3   OH258333   3.128   1.403   6.085  0.0218 -0.8880  0.1087
12281TIP3    H158334   3.205   1.347   6.085 -0.0374 -0.9712 -0.3686
12281TIP3    H258335   3.060   1.350   6.128 -0.3913 -1.6961 -1.4647
12282TIP3   OH258336   0.418   2.567  16.217 -0.3680 -1.0133  0.7053
12282TIP3    H158337   0.496   2.550  16.269  0.9208  1.3108 -0.3383
12282TIP3    H258338   0.385   2.650  16.250 -0.1997 -0.0757 -1.3265
12283TIP3   OH258339   2.947   1.176  12.759 -0.5736  0.0786 -0.3610
12283TIP3    H158340   2.885   1.147  12.825  1.4995  0.5310  1.9191
12283TIP3    H258341   2.901   1.246  12.712 -2.6286 -1.2506 -0.4591
12284TIP3   OH258342   2.286   0.199  16.413  0.2955 -0.4161  0.3677
12284TIP3    H158343   2.231   0.183  16.336  0.9032 -2.8216  0.3447
12284TIP3    H258344   2.358   0.252  16.380 -2.2859  3.6225  0.5868
12285TIP3   OH258345   2.059   1.429   4.202 -0.4263  0.5957  0.5421
12285TIP3    H158346   1.990   1.454   4.262 -0.0973  0.7420  0.8608
12285TIP3    H258347   2.084   1.511   4.158 -1.3477  0.3243 -0.5173
12286TIP3   OH258348   6.311   5.210  15.051 -0.1546 -0.0003 -0.6995
12286TIP3    H158349   6.342   5.237  15.137 -0.5076  0.9094 -0.8499
12286TIP3    H258350   6.330   5.284  14.993  2.5447 -1.5520 -2.0465
12287TIP3   OH258351   5.787   6.346  13.553 -0.3699  0.4378 -0.2347
12287TIP3    H158352   5.746   6.270  13.594  0.0222 -0.3197 -1.1816
12287TIP3    H258353   5.881   6.331  13.564 -0.1767 -0.4898 -2.4741
12288TIP3   OH258354   3.681   3.898   6.057 -0.2611  0.6602  0.0765
12288TIP3    H158355   3.627   3.976   6.070  1.6638  1.8174  1.6547
12288TIP3    H258356   3.758   3.930   6.011 -0.8264 -0.9628 -2.1611
12289TIP3   OH258357   2.529   0.175   5.309  0.1889  0.9604  0.2955
12289TIP3    H158358   2.478   0.250   5.277  2.0134  2.4434  0.7172
12289TIP3    H258359   2.494   0.158   5.397 -0.6734  0.8766 -0.0542
12290TIP3   OH258360   3.592   6.763  11.973  0.1117  0.2046  0.2232
12290TIP3    H158361   3.634   6.700  11.914 -0.4744  0.5136 -0.5378
12290TIP3    H258362   3.502   6.771  11.940  0.6638  2.8104 -0.8294
12291TIP3   OH258363   1.724   3.080  17.309  0.1451 -0.0724 -0.0230
12291TIP3    H158364   1.714   2.990  17.339 -0.6485  0.2843  0.8180
12291TIP3    H258365   1.638   3.119  17.320 -0.0103  0.3044 -2.0807
12292TIP3   OH258366   0.918   4.916  12.580 -0.2267  1.0268 -0.7720
12292TIP3    H158367   0.951   4.829  12.602  1.7820  1.5347 -1.4992
12292TIP3    H258368   0.986   4.976  12.613 -0.3068  2.1561 -2.5525
12293TIP3   OH258369   3.292   6.640  11.179 -0.2713  0.3567 -0.0589
12293TIP3    H158370   3.366   6.611  11.125 -0.8925 -0.5866 -0.4320
12293TIP3    H258371   3.230   6.676  11.116  0.1154  1.7649  0.3147
12294TIP3   OH258372   0.319   5.888  12.299  0.0362 -0.5453  0.1227
12294TIP3    H158373   0.293   5.887  12.391 -0.8259 -2.0283 -0.0995
12294TIP3    H258374   0.369   5.807  12.287 -0.1828 -0.5572 -0.7972
12295TIP3   OH258375   2.420   2.915  12.012 -0.1130  0.5293  0.6869
12295TIP3    H158376   2.446   2.957  12.094  2.3348  4.2448 -1.6633
12295TIP3    H258377   2.502   2.884  11.974 -0.9028  0.5122 -1.1036
12296TIP3   OH258378   4.374   4.587   4.805 -0.3897 -1.0244  0.1211
12296TIP3    H158379   4.335   4.671   4.780  0.2505 -0.8053 -0.1524
12296TIP3    H258380   4.299   4.534   4.833 -0.8482 -0.5004 -0.0818
12297TIP3   OH258381   4.886   4.145  13.049  0.1809 -0.1944 -0.4701
12297TIP3    H158382   4.944   4.069  13.052 -0.7188 -0.8632  1.4050
12297TIP3    H258383   4.919   4.203  13.117  0.9379  1.2153 -1.9685
12298TIP3   OH258384   1.096   2.802  12.645 -0.4223 -0.2223  0.4512
12298TIP3    H158385   1.059   2.866  12.583 -0.2017  0.9677  1.4969
12298TIP3    H258386   1.028   2.735  12.654 -0.9446  0.2077 -0.1730
12299TIP3   OH258387   6.174   4.295   7.450  0.6630  0.2869  0.1660
12299TIP3    H158388   6.101   4.351   7.423 -0.4918  0.1869  2.7841
12299TIP3    H258389   6.137   4.238   7.518  2.7069 -1.1428  0.1595
12300TIP3   OH258390   4.737   5.490   5.907 -0.5216  0.0570 -0.0509
12300TIP3    H158391   4.792   5.471   5.831 -0.0999  1.1742 -0.0438
12300TIP3    H258392   4.732   5.586   5.910 -1.9510 -0.0003  0.3261
12301TIP3   OH258393   4.694   2.834   4.809 -0.9253  0.0305  0.5159
12301TIP3    H158394   4.681   2.828   4.904 -1.5953 -0.6291  0.3906
12301TIP3    H258395   4.655   2.754   4.774 -0.9243  0.3934 -0.3414
12302TIP3   OH258396   0.141   0.819   2.959  0.0508 -0.2044  0.4144
12302TIP3    H158397   0.136   0.907   2.922 -0.6329 -1.0254 -1.5994
12302TIP3    H258398   0.122   0.831   3.052  0.5491  1.8240  0.3126
12303TIP3   OH258399   6.192   2.937  16.003  0.0092  0.0081  0.6998
12303TIP3    H158400   6.171   3.029  15.987  0.8537 -0.0339 -0.7431
12303TIP3    H258401   6.107   2.897  16.024 -0.2744  1.2256  2.0478
12304TIP3   OH258402   1.636   0.391  13.634  0.3353 -0.0065 -0.5454
12304TIP3    H158403   1.579   0.466  13.653  0.7066  0.3342 -0.7789
12304TIP3    H258404   1.700   0.424  13.571 -0.8999 -1.1145 -2.5096
12305TIP3   OH258405   2.537   3.000   3.807  0.0890 -0.5302 -0.3812
12305TIP3    H158406   2.548   2.936   3.877 -1.5182  0.1619  0.5465
12305TIP3    H258407   2.459   2.970   3.759 -1.6485  1.5077  1.0210
12306TIP3   OH258408   3.427   3.556   4.970  0.0331  0.0828 -0.2278
12306TIP3    H158409   3.355   3.504   5.006  0.6936 -0.9625 -0.3762
12306TIP3    H258410   3.387   3.641   4.948 -0.8665 -0.0438  0.8507
12307TIP3   OH258411   2.572   1.288  16.508  1.0573  0.1407  0.1788
12307TIP3    H158412   2.523   1.349  16.453 -0.2574 -1.2340 -0.2336
12307TIP3    H258413   2.604   1.221  16.448  2.4467  0.3548  0.6335
12308TIP3   OH258414   3.227   3.005  14.760 -0.4066 -0.5292 -1.0415
12308TIP3    H158415   3.304   2.971  14.715 -1.5336 -0.9295 -2.7590
12308TIP3    H258416   3.213   3.091  14.721 -2.9519 -1.9327 -3.5663
12309TIP3   OH258417   6.351   4.077   3.991 -0.5638 -0.3995  0.7180
12309TIP3    H158418   6.328   4.007   3.930 -0.6288  0.7793 -0.6535
12309TIP3    H258419   6.327   4.043   4.077 -0.7835 -1.9708  0.0667
12310TIP3   OH258420   5.170   1.088   2.785  0.2981 -0.0676 -0.4317
12310TIP3    H158421   5.136   1.001   2.806  2.3081 -0.4953  1.4070
12310TIP3    H258422   5.226   1.075   2.709 -2.6371  0.4826 -2.8927
12311TIP3   OH258423   2.131   2.801  13.194 -0.4087  0.5372 -0.1374
12311TIP3    H158424   2.120   2.826  13.102 -1.8676  0.9791  0.1293
12311TIP3    H258425   2.200   2.734  13.193 -0.7966  0.1244 -1.6081
12312TIP3   OH258426   5.616   1.264  11.817  0.1752 -0.2802 -0.1727
12312TIP3    H158427   5.702   1.275  11.776  0.4250 -2.2755 -0.3153
12312TIP3    H258428   5.633   1.270  11.911  0.7152 -1.7361 -0.1443
12313TIP3   OH258429   2.307   3.710  13.911 -0.2449 -0.3480  0.0010
12313TIP3    H158430   2.349   3.710  13.997  1.4033 -2.5758 -0.7122
12313TIP3    H258431   2.233   3.650  13.921 -1.9894  1.7575  0.6057
12314TIP3   OH258432   5.963   2.611   4.779 -0.0860 -0.0852 -0.1703
12314TIP3    H158433   5.934   2.535   4.829  0.9725 -0.2653  0.1873
12314TIP3    H258434   5.888   2.633   4.724 -0.5826 -1.0725  0.0868
12315TIP3   OH258435   1.722   0.459  15.745  0.2982 -0.3278  0.3707
12315TIP3    H158436   1.698   0.383  15.798 -0.4862 -0.7898 -0.6170
12315TIP3    H258437   1.722   0.427  15.655 -0.1876  0.8776 -0.0749
12316TIP3   OH258438   6.402   5.567  12.777 -0.1420 -0.0563  0.7253
12316TIP3    H158439   6.329   5.624  12.802 -0.2045 -0.8741  2.5309
12316TIP3    H258440   6.473   5.628  12.754 -1.1094  0.7333 -0.2360
12317TIP3   OH258441   4.810   3.470  11.174 -0.1875  0.0383  0.5388
12317TIP3    H158442   4.794   3.525  11.098 -0.6241 -0.8306 -0.0082
12317TIP3    H258443   4.903   3.445  11.167 -0.1043  0.3481  0.5519
12318TIP3   OH258444   4.133   3.624  17.277 -0.1757 -0.0655  0.0288
12318TIP3    H158445   4.156   3.629  17.370  1.2705  1.6546 -0.3835
12318TIP3    H258446   4.126   3.715  17.248  0.2557 -0.5432 -1.7353
12319TIP3   OH258447   2.452   1.961  15.757 -0.4595  0.6263 -0.0514
12319TIP3    H158448   2.368   1.974  15.714  0.2125 -1.5267 -2.2951
12319TIP3    H258449   2.430   1.934  15.846 -2.1438  0.4573 -0.4878
12320TIP3   OH258450   6.396   2.071   2.720 -0.3062 -0.0278  0.4843
12320TIP3    H158451   6.368   2.010   2.652 -2.1423  1.4933 -0.2407
12320TIP3    H258452   6.453   2.133   2.675  0.9022 -0.7097  1.0348
12321TIP3   OH258453   5.563   3.045  15.695  0.0096 -0.3925 -0.4324
12321TIP3    H158454   5.479   3.055  15.651  0.0756 -1.3456 -0.7902
12321TIP3    H258455   5.599   2.963  15.661 -0.5705 -1.9667  2.4393
12322TIP3   OH258456   2.941   6.251   1.526 -0.0481  0.9606 -0.3819
12322TIP3    H158457   3.032   6.260   1.553  0.0191  2.3523 -1.0060
12322TIP3    H258458   2.944   6.238   1.431 -0.4021 -1.7392 -0.1276
12323TIP3   OH258459   6.720   1.901  17.094  0.2569  0.0487 -0.0069
12323TIP3    H158460   6.798   1.902  17.039 -0.4304  3.5381 -1.1768
12323TIP3    H258461   6.660   1.841  17.048  0.9017  0.3010 -1.2276
12324TIP3   OH258462   2.536   5.066  15.206  0.6466 -0.4035 -0.3624
12324TIP3    H158463   2.625   5.066  15.241  1.7100  0.9775 -2.8002
12324TIP3    H258464   2.534   4.989  15.148  0.2438 -0.4625 -0.2697
12325TIP3   OH258465   4.379   3.611  14.502 -0.2072 -0.0091 -0.5400
12325TIP3    H158466   4.437   3.598  14.427 -0.5715 -0.0617 -0.8112
12325TIP3    H258467   4.292   3.586  14.471 -0.8772  2.6251 -0.9394
12326TIP3   OH258468   4.415   6.145   2.325 -0.5667  0.4323  0.0355
12326TIP3    H158469   4.426   6.155   2.420 -0.9205 -2.8131  0.5295
12326TIP3    H258470   4.504   6.152   2.290  0.2256 -2.5535  1.2006
12327TIP3   OH258471   5.350   4.067   6.517  0.3293  0.9079 -0.4553
12327TIP3    H158472   5.333   3.990   6.571  0.4000 -0.0612 -1.7713
12327TIP3    H258473   5.289   4.133   6.549 -0.8148 -0.1862 -0.3013
12328TIP3   OH258474   2.187   3.630  14.712  0.1079 -0.1191  0.5148
12328TIP3    H158475   2.184   3.549  14.764  1.5623  0.7107  1.9814
12328TIP3    H258476   2.265   3.622  14.658  0.9608  0.7564  1.5511
12329TIP3   OH258477   3.617   1.261   3.241 -0.0677  0.6680 -1.0547
12329TIP3    H158478   3.590   1.194   3.179  0.6965  0.8694 -1.6164
12329TIP3    H258479   3.591   1.344   3.200 -2.0646  0.7026  0.1534
12330TIP3   OH258480   1.523   3.242   2.724  0.2942  0.0268  0.2233
12330TIP3    H158481   1.603   3.190   2.721  0.5259  0.3703  0.4278
12330TIP3    H258482   1.484   3.221   2.809 -0.5158 -1.1444 -0.4140
12331TIP3   OH258483   1.450   0.752   1.287  0.2912  0.0427 -0.6945
12331TIP3    H158484   1.481   0.738   1.376 -1.0260 -1.3300 -0.3998
12331TIP3    H258485   1.504   0.823   1.253 -0.4872  2.0330  1.8811
12332TIP3   OH258486   3.528   2.882   5.442  0.1046  0.1624  0.3729
12332TIP3    H158487   3.590   2.863   5.371 -2.0430 -1.7365 -1.1390
12332TIP3    H258488   3.576   2.860   5.522  1.5322 -0.8310 -0.7061
12333TIP3   OH258489   3.300   0.725   0.049  0.0999  0.1955  0.5231
12333TIP3    H158490   3.205   0.736   0.044 -0.2425 -1.8413  1.4015
12333TIP3    H258491   3.329   0.794   0.108 -0.5874  1.7845 -0.9142
12334TIP3   OH258492   6.361   1.874  14.894 -0.3534 -0.1918 -0.7993
12334TIP3    H158493   6.431   1.849  14.835  1.4101  0.2468  0.9974
12334TIP3    H258494   6.400   1.873  14.981 -1.7565  2.7976  0.0337
12335TIP3   OH258495   4.947   1.061  11.722  0.2306 -0.3806  0.4891
12335TIP3    H158496   4.986   1.103  11.798  1.0810  1.2254 -0.7667
12335TIP3    H258497   4.863   1.105  11.710  0.8891  0.6567 -0.5167
12336TIP3   OH258498   4.834   1.824  13.384  0.2668 -0.4791  0.2072
12336TIP3    H158499   4.807   1.863  13.468 -0.5816  0.5288 -0.5140
12336TIP3    H258500   4.927   1.807  13.395 -0.0713 -1.5935  1.8229
12337TIP3   OH258501   6.292   5.953  15.673 -0.0108  0.0537  0.2151
12337TIP3    H158502   6.264   5.985  15.759  1.6223  1.1876  0.3623
12337TIP3    H258503   6.291   5.857  15.682 -1.1511  0.1214  1.0465
12338TIP3   OH258504   0.997   3.636  11.793 -0.1573 -0.3938  0.3537
12338TIP3    H158505   0.925   3.699  11.802  1.4929  1.4912  1.1550
12338TIP3    H258506   1.038   3.659  11.709  1.1722  0.4658  1.1993
12339TIP3   OH258507   0.258   1.842   4.329  0.4968  0.2142  0.8139
12339TIP3    H158508   0.259   1.867   4.421 -0.8480 -0.2025  0.9797
12339TIP3    H258509   0.244   1.747   4.331  2.1020 -0.0615  0.1787
12340TIP3   OH258510   1.403   0.278   6.081  0.3841  0.0938  0.5226
12340TIP3    H158511   1.338   0.213   6.054 -1.8602  1.8089  1.4946
12340TIP3    H258512   1.423   0.256   6.172 -0.7891  1.0154  1.0279
12341TIP3   OH258513   1.941   3.882  13.481  0.0913 -0.3113 -0.5735
12341TIP3    H158514   2.032   3.882  13.513  0.0485  1.2162 -0.3576
12341TIP3    H258515   1.894   3.828  13.544  0.7835 -0.7855 -0.4493
12342TIP3   OH258516   1.161   5.468   3.169 -0.4313  0.0038  0.2026
12342TIP3    H158517   1.175   5.413   3.092  2.1149 -0.1724  0.6899
12342TIP3    H258518   1.108   5.541   3.138  0.7770  0.0978 -1.8021
12343TIP3   OH258519   0.628   2.910  16.068  0.1185 -0.1636 -0.6617
12343TIP3    H158520   0.653   2.843  16.003 -1.7909 -0.9650 -0.6311
12343TIP3    H258521   0.550   2.951  16.031 -0.8352 -0.4338  0.9786
12344TIP3   OH258522   5.003   2.557  14.263 -0.0012  0.1132  0.3057
12344TIP3    H158523   5.039   2.645  14.257 -0.2287  0.2119  0.3594
12344TIP3    H258524   5.051   2.507  14.197 -0.0822  0.3518  0.0606
12345TIP3   OH258525   3.903   5.668   6.957  0.2852  0.0092  0.5133
12345TIP3    H158526   3.914   5.749   7.008 -0.7826  0.8154 -0.4865
12345TIP3    H258527   3.908   5.697   6.866 -0.2021 -1.0503  0.1368
12346TIP3   OH258528   3.198   6.258  14.674  0.2780  1.0126 -0.0263
12346TIP3    H158529   3.207   6.167  14.701 -1.3254  0.5046 -1.0794
12346TIP3    H258530   3.286   6.295  14.683  0.7592 -0.3721  1.2963
12347TIP3   OH258531   6.632   6.121   2.532 -0.5759  0.2283  0.5066
12347TIP3    H158532   6.660   6.060   2.600 -0.8408 -0.4137  0.0461
12347TIP3    H258533   6.574   6.070   2.476 -1.7205  1.2154  0.7544
12348TIP3   OH258534   0.736   2.866  15.581  0.2782 -0.1697 -0.3120
12348TIP3    H158535   0.647   2.843  15.608 -0.1121 -0.5797 -1.8247
12348TIP3    H258536   0.740   2.841  15.489  1.4551  1.3099 -0.7031
12349TIP3   OH258537   6.740   0.541  16.777 -0.6517  0.2534  0.0410
12349TIP3    H158538   6.776   0.603  16.840 -0.2393 -0.2041  0.2588
12349TIP3    H258539   6.790   0.556  16.697 -1.1091  0.7660 -0.1549
12350TIP3   OH258540   3.980   2.713  16.930  0.1739 -0.3440 -0.4751
12350TIP3    H158541   4.060   2.688  16.977  0.7973  3.7657  1.0366
12350TIP3    H258542   4.001   2.698  16.838  1.7072 -1.7262  0.0600
12351TIP3   OH258543   1.222   4.953   1.451  0.1635 -0.3518 -0.1187
12351TIP3    H158544   1.152   5.002   1.408  0.7722  0.7791  0.1182
12351TIP3    H258545   1.251   4.890   1.385 -0.9529 -0.7151 -0.2751
12352TIP3   OH258546   4.278   3.322   3.241 -0.0490 -0.7286 -0.2653
12352TIP3    H158547   4.189   3.350   3.220  0.1537  0.5322  0.4585
12352TIP3    H258548   4.334   3.374   3.183  0.2513 -0.9798 -0.2029
12353TIP3   OH258549   0.961   2.633   1.503  0.6154  0.2756  0.0318
12353TIP3    H158550   0.941   2.725   1.484  0.9803  0.2339 -0.5761
12353TIP3    H258551   0.929   2.620   1.592  1.0250  1.1320  0.3211
12354TIP3   OH258552   0.599   1.602  14.828 -0.2286  0.4705  0.2554
12354TIP3    H158553   0.543   1.663  14.780 -1.5534 -1.4652 -0.8143
12354TIP3    H258554   0.538   1.555  14.886  0.6665 -0.1577  0.7047
12355TIP3   OH258555   1.742   4.828  12.145 -0.2679  0.4180  0.1409
12355TIP3    H158556   1.753   4.746  12.193 -0.6597  0.3470  0.1142
12355TIP3    H258557   1.661   4.866  12.181 -1.5546 -0.4729 -1.6236
12356TIP3   OH258558   5.449   0.487  15.093  0.3336  0.0257 -0.0226
12356TIP3    H158559   5.473   0.503  15.184  0.9228  0.4643 -0.2456
12356TIP3    H258560   5.522   0.436  15.058  0.4772  0.5180 -0.4504
12357TIP3   OH258561   0.610   1.997  11.109 -0.5956  0.1135 -0.5389
12357TIP3    H158562   0.679   1.933  11.127 -1.9857 -1.2657  0.0831
12357TIP3    H258563   0.587   1.982  11.017  0.8469  1.5481 -1.1884
12358TIP3   OH258564   4.051   2.616   4.142 -0.0144  0.9471 -0.4821
12358TIP3    H158565   4.012   2.628   4.229 -0.0293  1.5315 -0.5638
12358TIP3    H258566   4.143   2.638   4.154  0.0206  0.8553 -0.5796
12359TIP3   OH258567   6.174   1.737   4.477 -0.6990  0.6294  0.1788
12359TIP3    H158568   6.108   1.783   4.426 -1.4985 -0.9186 -0.2372
12359TIP3    H258569   6.144   1.646   4.479 -0.1428  0.4247  2.5137
12360TIP3   OH258570   1.163   1.623  14.154  0.3511 -0.0436 -0.3152
12360TIP3    H158571   1.195   1.700  14.201  0.1660 -0.1495 -0.0134
12360TIP3    H258572   1.174   1.645  14.061  2.2046 -0.4690 -0.2202
12361TIP3   OH258573   4.351   4.571  17.332  0.3871  0.6657 -0.3545
12361TIP3    H158574   4.358   4.478  17.354 -0.6150  0.5323 -0.5533
12361TIP3    H258575   4.442   4.602  17.331  0.6831 -0.0978  0.5894
12362TIP3   OH258576   4.019   2.144   5.235  0.0685  0.0601 -0.3715
12362TIP3    H158577   4.004   2.050   5.223 -0.3782  0.2495 -1.3316
12362TIP3    H258578   3.943   2.186   5.197 -0.3727  0.7911  1.2176
12363TIP3   OH258579   3.878   6.171  10.747  0.1315  0.2388 -0.0932
12363TIP3    H158580   3.922   6.091  10.719 -1.3562 -0.4860 -0.4196
12363TIP3    H258581   3.791   6.166  10.708 -0.1089  1.8585  0.1650
12364TIP3   OH258582   1.084   2.720   2.050  0.3348  0.1491  0.0616
12364TIP3    H158583   1.140   2.668   1.992  0.0629  0.5484 -0.5636
12364TIP3    H258584   1.090   2.809   2.016  0.0993  0.3726  0.5960
12365TIP3   OH258585   3.906   1.224   3.108 -0.2009  0.4129  0.0872
12365TIP3    H158586   3.964   1.151   3.086 -1.0587 -0.7688  1.5423
12365TIP3    H258587   3.857   1.240   3.027  0.2688 -0.3679 -0.3753
12366TIP3   OH258588   5.608   5.338  13.021 -0.6115 -1.1460 -0.0073
12366TIP3    H158589   5.587   5.288  13.100  0.0545 -1.2495  0.1129
12366TIP3    H258590   5.560   5.420  13.031  0.1911 -0.7682  0.9644
12367TIP3   OH258591   2.479   2.715   1.854 -0.5235  0.5086  0.5206
12367TIP3    H158592   2.464   2.629   1.815 -0.7812  0.7689  0.0386
12367TIP3    H258593   2.471   2.701   1.949  0.4452 -0.1992  0.5088
12368TIP3   OH258594   3.743   5.211  15.695  0.1234  0.3859 -0.5340
12368TIP3    H158595   3.713   5.295  15.731  1.6524 -0.1941  2.3713
12368TIP3    H258596   3.811   5.235  15.632  1.1803  1.4043  0.9080
12369TIP3   OH258597   0.777   0.552   6.372  0.0986 -0.3082  0.1872
12369TIP3    H158598   0.791   0.587   6.460 -1.0691  0.6283  0.0333
12369TIP3    H258599   0.774   0.457   6.383 -0.4510 -0.1844  1.2362
12370TIP3   OH258600   1.272   1.114  12.180 -0.0437 -0.7374 -0.4088
12370TIP3    H158601   1.196   1.117  12.122  0.0463  0.6667 -0.4824
12370TIP3    H258602   1.241   1.067  12.257 -0.7253 -0.9572 -0.8067
12371TIP3   OH258603   3.099   4.061  12.688 -0.0769  0.2488  0.4226
12371TIP3    H158604   3.167   4.060  12.755 -0.7726  0.0725  1.1404
12371TIP3    H258605   3.114   3.981  12.637 -0.1105 -0.1004  0.9554
12372TIP3   OH258606   1.083   2.112   2.591 -0.0593 -0.3654  0.3315
12372TIP3    H158607   1.102   2.128   2.684 -2.2463 -0.2336  0.8072
12372TIP3    H258608   1.050   2.022   2.589 -0.9393 -0.0418 -0.1460
12373TIP3   OH258609   6.512   3.830  15.412 -0.0158  0.0969  0.0630
12373TIP3    H158610   6.478   3.807  15.325  1.1616  0.2006 -0.4474
12373TIP3    H258611   6.577   3.763  15.430  1.1501  1.1745 -0.0160
12374TIP3   OH258612   4.364   3.189   4.741  0.0173 -0.3121 -0.0993
12374TIP3    H158613   4.384   3.202   4.834  2.5517 -0.5895 -0.5485
12374TIP3    H258614   4.438   3.139   4.707 -0.7742 -0.0663 -2.3293
12375TIP3   OH258615   6.769   3.439  15.409  0.1089 -0.0994  0.6769
12375TIP3    H158616   6.737   3.426  15.319  1.3212  0.1490  0.1878
12375TIP3    H258617   6.743   3.528  15.431  1.5573  0.5785 -0.2166
12376TIP3   OH258618   1.263   4.687  15.974 -0.0192 -0.5971 -0.6552
12376TIP3    H158619   1.241   4.605  15.930  1.0725 -0.6237 -1.1592
12376TIP3    H258620   1.235   4.755  15.914  2.3679 -0.6343 -1.8994
12377TIP3   OH258621   1.922   6.001  16.725 -0.4631 -0.2920  0.1306
12377TIP3    H158622   1.904   5.916  16.686 -0.1550 -1.5455  2.5335
12377TIP3    H258623   2.017   6.012  16.715 -0.5958  0.1448 -0.8027
12378TIP3   OH258624   1.150   5.181  14.217  0.0630  0.2670 -0.2052
12378TIP3    H158625   1.198   5.255  14.253  2.7512 -0.8128 -1.3645
12378TIP3    H258626   1.103   5.217  14.141  2.8062  0.5258 -1.8948
12379TIP3   OH258627   3.974   1.615   2.251  0.3895  0.1982 -0.4115
12379TIP3    H158628   3.943   1.525   2.256  0.1996  0.1612 -1.8323
12379TIP3    H258629   3.960   1.640   2.159  1.4683  1.3010 -0.2964
12380TIP3   OH258630   0.120   2.503  15.726  0.2490 -1.0083  0.5017
12380TIP3    H158631   0.170   2.583  15.710 -0.2021 -0.7501  0.3799
12380TIP3    H258632   0.038   2.534  15.763 -0.0082 -1.4061  0.2596
12381TIP3   OH258633   6.168   3.582  15.082  0.0010  0.1468  0.3315
12381TIP3    H158634   6.261   3.603  15.085  0.1313 -0.3081 -0.3056
12381TIP3    H258635   6.131   3.627  15.158  0.7425  0.3003  0.6118
12382TIP3   OH258636   1.902   0.558  12.872 -0.3377  0.0446  0.6368
12382TIP3    H158637   1.956   0.600  12.938  0.4491 -0.2765  0.2122
12382TIP3    H258638   1.893   0.468  12.901 -0.9572  0.1807  0.8892
12383TIP3   OH258639   5.706   6.513   5.711  0.6041  0.4260 -0.1560
12383TIP3    H158640   5.792   6.488   5.679 -0.2095  0.7278 -2.8036
12383TIP3    H258641   5.711   6.608   5.723  0.9106  0.3117  0.7115
12384TIP3   OH258642   5.914   0.753   0.715 -0.2862  0.1557  0.3727
12384TIP3    H158643   5.969   0.675   0.706 -0.8434 -0.3039  0.9463
12384TIP3    H258644   5.885   0.752   0.806 -1.3563  0.3274  0.0401
12385TIP3   OH258645   1.840   4.024   2.408 -0.0381 -0.7148 -0.1830
12385TIP3    H158646   1.781   4.096   2.432 -0.4082 -0.2788 -2.2220
12385TIP3    H258647   1.782   3.955   2.377  0.4772 -0.1152 -2.6270
12386TIP3   OH258648   1.517   5.225  12.866 -0.8967  0.5561 -0.3957
12386TIP3    H158649   1.530   5.210  12.960 -0.9637  0.1077 -0.4541
12386TIP3    H258650   1.603   5.209  12.827 -0.9312  0.4736 -0.4399
12387TIP3   OH258651   3.366   5.107   2.889 -0.2674  0.1619  0.1073
12387TIP3    H158652   3.454   5.107   2.850  0.8409 -1.2108  2.3904
12387TIP3    H258653   3.320   5.036   2.844  0.8612 -1.1534  0.9386
12388TIP3   OH258654   1.050   2.425   4.265 -0.3301  0.3456 -0.1391
12388TIP3    H158655   1.077   2.439   4.175 -0.6337 -4.4809 -1.2510
12388TIP3    H258656   1.132   2.418   4.314  0.0739 -1.3497 -0.9871
12389TIP3   OH258657   4.955   3.822   1.116  0.0460 -0.0992 -0.1458
12389TIP3    H158658   4.870   3.847   1.152  1.2069  0.2948  2.5789
12389TIP3    H258659   5.016   3.886   1.153  1.5366 -0.2272 -2.2128
12390TIP3   OH258660   3.985   0.733   0.829 -0.7085  0.3310  0.0239
12390TIP3    H158661   3.948   0.817   0.856  0.8818  0.8185  0.7843
12390TIP3    H258662   4.034   0.702   0.905  0.2167 -0.4079 -0.8394
12391TIP3   OH258663   4.756   0.307  14.514  0.5570  0.1518 -0.0102
12391TIP3    H158664   4.821   0.376  14.518  0.0085  0.6431  1.1992
12391TIP3    H258665   4.804   0.230  14.485  1.3994  0.7869 -0.3461
12392TIP3   OH258666   0.878   3.564   3.691  0.2030  0.4422 -0.3193
12392TIP3    H158667   0.968   3.585   3.667  1.8627 -3.4012  1.6111
12392TIP3    H258668   0.857   3.486   3.640 -1.2330  0.0835  0.7638
12393TIP3   OH258669   5.584   2.903  14.697  0.3509  0.7656  0.1878
12393TIP3    H158670   5.517   2.944  14.751  0.7884  0.4399  0.9888
12393TIP3    H258671   5.620   2.974  14.645 -0.2457  1.0361  0.1389
12394TIP3   OH258672   6.388   1.539  13.115 -0.0264 -0.0415 -0.4279
12394TIP3    H158673   6.295   1.562  13.113 -0.4210 -1.5351 -0.0074
12394TIP3    H258674   6.403   1.495  13.031 -0.0863 -1.1873  0.1501
12395TIP3   OH258675   1.304   2.588  13.225  0.6004  0.0096  0.1733
12395TIP3    H158676   1.358   2.662  13.196 -1.8654  0.7009 -3.2836
12395TIP3    H258677   1.259   2.619  13.303  0.7167  1.6015 -0.3728
12396TIP3   OH258678   4.487   2.910  16.436 -0.3795  0.1049 -0.0278
12396TIP3    H158679   4.548   2.869  16.497 -0.1674 -2.4107 -1.7883
12396TIP3    H258680   4.497   3.004  16.451  0.8780 -0.3646  2.5686
12397TIP3   OH258681   1.789   4.117   5.179  0.2855  0.0154 -0.6114
12397TIP3    H158682   1.706   4.090   5.218  0.9786  0.5763  1.3683
12397TIP3    H258683   1.774   4.207   5.150  0.3895  0.3956  0.4573
12398TIP3   OH258684   4.904   0.724   0.605 -0.2403 -0.1632 -0.4993
12398TIP3    H158685   4.925   0.648   0.549 -0.9387  0.0254 -1.0277
12398TIP3    H258686   4.970   0.789   0.580  0.9104 -0.8626  0.5671
12399TIP3   OH258687   4.237   2.800   5.440  0.2974  0.2288  0.1536
12399TIP3    H158688   4.332   2.805   5.449  0.1375  1.3834  1.4050
12399TIP3    H258689   4.216   2.707   5.453  1.2319 -0.0000  0.0473
12400TIP3   OH258690   0.674   2.953   0.518 -0.1030 -0.2796  0.1427
12400TIP3    H158691   0.588   2.979   0.551  0.4675 -0.8263  2.2176
12400TIP3    H258692   0.735   3.016   0.557  0.4398  0.4879 -1.8003
12401TIP3   OH258693   4.248   1.828   2.587  0.3169  0.0160 -0.3205
12401TIP3    H158694   4.334   1.796   2.613  0.0259 -1.2022 -0.7713
12401TIP3    H258695   4.226   1.776   2.509 -0.3763  1.0476 -0.8342
12402TIP3   OH258696   4.949   5.640  16.864 -0.6233  0.3678  0.3106
12402TIP3    H158697   5.008   5.682  16.802 -1.0103 -0.8735 -0.9461
12402TIP3    H258698   4.985   5.553  16.877 -2.7238 -0.8472 -1.4011
12403TIP3   OH258699   5.180   4.593   4.531 -0.0751 -0.1716 -0.1377
12403TIP3    H158700   5.240   4.651   4.577  2.2038 -0.5240 -2.4187
12403TIP3    H258701   5.168   4.634   4.445 -2.2223 -0.7310 -0.1707
12404TIP3   OH258702   3.894   0.870   1.742  0.4297 -0.4459  0.4779
12404TIP3    H158703   3.868   0.805   1.676 -1.6431  1.0503 -0.2673
12404TIP3    H258704   3.958   0.925   1.698 -0.0631 -0.1800  0.0772
12405TIP3   OH258705   1.810   5.466   5.656  0.0682  0.3277  0.5329
12405TIP3    H158706   1.879   5.517   5.615  0.3165  0.0373  0.5843
12405TIP3    H258707   1.849   5.431   5.736  0.4441 -1.2634 -0.2901
12406TIP3   OH258708   2.969   0.471   5.098  0.0917  0.2190  0.2476
12406TIP3    H158709   2.964   0.379   5.070  1.9235  0.5588 -1.4025
12406TIP3    H258710   3.060   0.483   5.123 -0.2273  1.5019  0.8411
12407TIP3   OH258711   4.031   6.140   0.661  0.1944 -0.4999  0.2481
12407TIP3    H158712   4.055   6.149   0.568  4.4486 -0.5705  1.1151
12407TIP3    H258713   4.001   6.049   0.669 -1.8296 -0.0396 -1.2288
12408TIP3   OH258714   6.698   4.742  13.231  0.0123  0.0980  0.6213
12408TIP3    H158715   6.713   4.830  13.195  0.3077 -0.7293 -1.4087
12408TIP3    H258716   6.606   4.741  13.256 -0.2076  0.7411 -0.1266
12409TIP3   OH258717   5.423   2.463   6.070 -0.0000 -0.0269  0.0857
12409TIP3    H158718   5.359   2.492   6.134  0.2912 -1.3293  1.0029
12409TIP3    H258719   5.508   2.470   6.115  0.6011  1.9958 -1.2136
12410TIP3   OH258720   2.978   3.215  16.355 -0.2789 -1.0440  0.1478
12410TIP3    H158721   3.033   3.199  16.432 -0.7182  0.6244  0.8450
12410TIP3    H258722   2.961   3.128  16.319  1.5016 -1.7173  0.8292
12411TIP3   OH258723   5.701   4.834   3.240  0.1036 -0.1133  0.2593
12411TIP3    H158724   5.682   4.884   3.319  0.5379 -1.5375  1.2911
12411TIP3    H258725   5.760   4.765   3.268  0.2120 -0.7031 -1.3006
12412TIP3   OH258726   0.587   3.934   4.955  0.0757 -0.0600  0.0313
12412TIP3    H158727   0.579   3.839   4.949 -2.5124  0.0038  1.2955
12412TIP3    H258728   0.603   3.951   5.047  1.0281  0.7277 -0.2683
12413TIP3   OH258729   5.869   4.286   3.106 -0.1458 -0.1230 -1.1160
12413TIP3    H158730   5.876   4.276   3.011  0.1020  1.2444 -1.2603
12413TIP3    H258731   5.839   4.376   3.119  1.8811  0.4376  0.1487
12414TIP3   OH258732   6.554   1.665  12.813 -0.1934 -0.4867  0.1186
12414TIP3    H158733   6.649   1.652  12.815  0.1688  1.6771 -0.5276
12414TIP3    H258734   6.522   1.596  12.754  0.9573 -1.2163  0.3078
12415TIP3   OH258735   0.853   5.223  14.864 -0.2152 -0.3999 -0.4431
12415TIP3    H158736   0.941   5.234  14.830  0.8456 -2.5001  1.4233
12415TIP3    H258737   0.797   5.223  14.786  1.4478  0.5372 -1.6917
12416TIP3   OH258738   0.999   5.904  12.689 -0.4696  0.6045 -0.0034
12416TIP3    H158739   0.996   5.809  12.703 -1.2123  0.7273  0.8039
12416TIP3    H258740   1.054   5.915  12.612 -1.4437 -0.5699 -0.9195
12417TIP3   OH258741   0.675   0.829   0.231  0.1211 -0.3405  0.0746
12417TIP3    H158742   0.745   0.803   0.172  0.0685 -0.7698  0.1982
12417TIP3    H258743   0.698   0.918   0.258  0.2683 -0.2293 -0.4024
12418TIP3   OH258744   2.400   6.638  13.498 -0.2970  0.6980  0.2340
12418TIP3    H158745   2.484   6.667  13.464  0.2116 -1.7438 -0.8505
12418TIP3    H258746   2.414   6.627  13.592  0.1052  1.7741  0.3099
12419TIP3   OH258747   2.856   0.221  11.220 -0.6214 -0.0243 -0.1507
12419TIP3    H158748   2.840   0.218  11.314 -0.5645 -0.2554 -0.1477
12419TIP3    H258749   2.936   0.170  11.207 -0.5894  0.0652 -0.3161
12420TIP3   OH258750   0.444   0.540  15.308 -0.0338 -0.1320 -0.2475
12420TIP3    H158751   0.501   0.498  15.244  1.3824 -0.3595  1.0764
12420TIP3    H258752   0.394   0.468  15.347  0.7456 -0.3332  0.4313
12421TIP3   OH258753   4.715   6.220  11.541 -0.0875  0.5460 -0.1132
12421TIP3    H158754   4.745   6.310  11.529  1.6155 -0.2035 -2.0543
12421TIP3    H258755   4.642   6.210  11.479 -0.1733  0.5462 -0.0123
12422TIP3   OH258756   3.697   5.503   2.121 -0.2242  0.2195  0.3057
12422TIP3    H158757   3.745   5.464   2.194  0.6929  0.7608  0.0067
12422TIP3    H258758   3.743   5.472   2.043 -0.8547  0.0981 -0.0216
12423TIP3   OH258759   4.710   6.305  10.960 -0.0821 -0.1505  0.0861
12423TIP3    H158760   4.653   6.243  10.915 -0.6696  0.9094 -0.6500
12423TIP3    H258761   4.689   6.390  10.922  1.4158  0.3819  0.3792
12424TIP3   OH258762   2.045   6.114  12.852  0.2177 -0.0204  0.2367
12424TIP3    H158763   2.088   6.130  12.767  3.2857  0.1486  1.6810
12424TIP3    H258764   2.107   6.148  12.916 -2.3737  0.5822  2.5688
12425TIP3   OH258765   3.665   0.889   5.587  0.5728 -0.2282  0.0916
12425TIP3    H158766   3.615   0.828   5.533 -0.4074  1.1025 -0.5442
12425TIP3    H258767   3.739   0.836   5.619  0.4865 -1.4098 -1.4869
12426TIP3   OH258768   0.988   1.952   3.994 -0.2978 -0.1274 -0.2705
12426TIP3    H158769   1.010   1.881   4.055 -0.8872  0.0617  0.1708
12426TIP3    H258770   0.894   1.942   3.978 -0.3002  0.2957 -0.5331
12427TIP3   OH258771   5.616   0.200   5.435 -0.2368 -0.7498 -0.3669
12427TIP3    H158772   5.579   0.289   5.432  0.3602 -0.4748  0.2121
12427TIP3    H258773   5.564   0.154   5.500 -1.2052 -1.1414 -1.3919
12428TIP3   OH258774   4.158   1.233   0.588 -0.2684 -0.3656 -0.7903
12428TIP3    H158775   4.096   1.304   0.603  0.3911  0.1636 -0.5480
12428TIP3    H258776   4.212   1.263   0.515 -0.9973 -1.2949 -1.7273
12429TIP3   OH258777   3.784   1.261   0.994  0.3939 -0.0105  0.0769
12429TIP3    H158778   3.812   1.222   1.077 -2.2466 -0.3034  0.9241
12429TIP3    H258779   3.689   1.250   0.993  0.1839  1.2695 -2.3585
12430TIP3   OH258780   4.841   5.844  13.809 -0.1795 -0.3951 -0.3043
12430TIP3    H158781   4.926   5.871  13.844  0.5219 -1.0157 -1.4721
12430TIP3    H258782   4.787   5.923  13.816  0.5611  0.0899  0.2101
12431TIP3   OH258783   3.425   3.451  12.998 -0.0186 -0.8917 -0.0027
12431TIP3    H158784   3.394   3.534  12.963 -0.5964 -0.7781  0.7320
12431TIP3    H258785   3.358   3.427  13.063  0.0925 -1.9734 -0.2752
12432TIP3   OH258786   6.648   6.767  15.808  0.2290 -0.4039 -0.4015
12432TIP3    H158787   6.626   6.741  15.897  0.5896 -0.8498 -0.4390
12432TIP3    H258788   6.585   6.720  15.753 -0.9591  1.0260 -0.2995
12433TIP3   OH258789   1.214   3.951  16.328  0.6604  0.3109  0.4752
12433TIP3    H158790   1.307   3.960  16.350  0.7747 -1.4856  0.9296
12433TIP3    H258791   1.171   3.937  16.412  0.3342 -1.1703  0.0996
12434TIP3   OH258792   2.537   4.858  15.014  0.8356 -0.6852 -0.1835
12434TIP3    H158793   2.618   4.816  15.044  1.6069 -0.2895 -1.6283
12434TIP3    H258794   2.479   4.785  14.992  1.0333 -0.9723  0.2361
12435TIP3   OH258795   3.021   3.679   0.075 -0.0859 -0.5356  0.4233
12435TIP3    H158796   3.023   3.703   0.167 -3.1371 -2.0185  1.0290
12435TIP3    H258797   3.094   3.726   0.035  0.9809  0.5937  3.4585
12436TIP3   OH258798   0.832   1.680  15.002  0.4185  0.1991 -0.5862
12436TIP3    H158799   0.847   1.757  15.057  1.2244 -0.5206  0.2355
12436TIP3    H258800   0.744   1.692  14.967  0.1830  1.0457  0.2655
12437TIP3   OH258801   0.075   2.213   1.838  0.0856 -0.3599  0.2982
12437TIP3    H158802   0.045   2.288   1.788  1.2203  1.8599  2.7447
12437TIP3    H258803   0.006   2.196   1.902  0.1619 -0.9558  0.2356
12438TIP3   OH258804   6.181   4.494  16.252  0.0781 -0.3624  0.0353
12438TIP3    H158805   6.180   4.580  16.294 -1.3525 -0.2113 -0.2253
12438TIP3    H258806   6.170   4.431  16.323  0.2330 -0.2709  0.1398
12439TIP3   OH258807   5.768   5.766  15.722 -0.4316 -0.1552  0.5248
12439TIP3    H158808   5.808   5.816  15.793  0.2350 -0.7004  0.5414
12439TIP3    H258809   5.797   5.810  15.642  0.1802 -0.5166  0.5386
12440TIP3   OH258810   0.063   4.583  11.012 -0.1567  0.2349 -0.2176
12440TIP3    H158811   0.025   4.528  11.081  1.1269  0.4589  0.7208
12440TIP3    H258812   0.149   4.543  10.995 -0.3302  0.3682 -1.4853
12441TIP3   OH258813   6.567   1.055  16.796  0.1877  0.2080  0.1123
12441TIP3    H158814   6.567   0.990  16.867 -0.2778 -0.8270 -0.7954
12441TIP3    H258815   6.485   1.038  16.749 -1.3468  3.2752  1.4135
12442TIP3   OH258816   5.680   6.057   1.958 -0.4973  0.0668 -0.3323
12442TIP3    H158817   5.710   6.011   2.036  0.2323  0.6210 -0.2794
12442TIP3    H258818   5.594   6.020   1.940  0.0153 -1.2442 -0.2237
12443TIP3   OH258819   4.296   3.573  13.552 -0.0265 -0.1025  0.1681
12443TIP3    H158820   4.364   3.567  13.484  0.2791  1.2031  0.3365
12443TIP3    H258821   4.219   3.534  13.511  0.1234  0.7403 -0.9927
12444TIP3   OH258822   3.786   2.566   4.076  0.2655  0.2808  0.3726
12444TIP3    H158823   3.753   2.564   3.986  0.9445 -0.6360  0.1293
12444TIP3    H258824   3.880   2.577   4.067  0.3097  0.4289  0.9786
12445TIP3   OH258825   0.460   1.096   2.857  0.3601 -0.7282  0.5235
12445TIP3    H158826   0.518   1.139   2.921 -0.8656  0.8096  0.6866
12445TIP3    H258827   0.509   1.098   2.775 -0.1445  2.4768  0.1522
12446TIP3   OH258828   4.707   6.100  13.835  0.3665  0.2034  0.1140
12446TIP3    H158829   4.647   6.093  13.761  1.5034  1.0856 -0.9149
12446TIP3    H258830   4.677   6.177  13.884  0.3235  0.3107 -0.0814
12447TIP3   OH258831   1.775   0.825  14.579  0.5635 -0.3866 -0.1537
12447TIP3    H158832   1.815   0.910  14.565 -0.7918  0.1044 -1.2512
12447TIP3    H258833   1.711   0.839  14.649  0.1970 -0.4530 -0.4733
12448TIP3   OH258834   6.425   4.806  13.206 -0.0152 -0.1863  0.5818
12448TIP3    H158835   6.433   4.898  13.183 -0.4332  0.3544  2.4090
12448TIP3    H258836   6.338   4.780  13.177 -0.1224  0.1668  0.5925
12449TIP3   OH258837   0.818   2.572   3.115  0.4864 -0.0603 -0.5414
12449TIP3    H158838   0.725   2.586   3.097  0.7778  0.3998 -1.8017
12449TIP3    H258839   0.820   2.529   3.201 -0.9209 -0.7322 -0.8206
12450TIP3   OH258840   5.575   5.421  15.829  0.8180  0.1524  0.5265
12450TIP3    H158841   5.551   5.423  15.736 -0.2624  1.7316  0.8033
12450TIP3    H258842   5.668   5.445  15.830  0.7142  0.6122 -0.1251
12451TIP3   OH258843   3.848   1.403  14.404 -0.1090  0.0339  0.5597
12451TIP3    H158844   3.858   1.337  14.335  0.7893  0.0113  0.7064
12451TIP3    H258845   3.784   1.364  14.464 -1.5910  0.4352 -0.6860
12452TIP3   OH258846   1.555   0.599   0.289 -0.1768  0.1775  0.5583
12452TIP3    H158847   1.509   0.517   0.305 -1.9565  0.9396 -0.3262
12452TIP3    H258848   1.613   0.580   0.215 -0.9481 -0.1817  0.0331
12453TIP3   OH258849   5.117   5.770  13.106  0.3172 -0.0171  0.4383
12453TIP3    H158850   5.093   5.710  13.036  0.5333  1.2627 -0.7631
12453TIP3    H258851   5.076   5.853  13.082  1.2733  0.7189  1.2758
12454TIP3   OH258852   2.029   2.005  12.347  0.0901  0.4801  0.2262
12454TIP3    H158853   2.080   2.002  12.267 -0.8558  1.7819 -0.4644
12454TIP3    H258854   1.990   1.918  12.354  0.3395  0.2921 -0.6273
12455TIP3   OH258855   0.770   2.840  14.070  0.1996  0.7513  0.0096
12455TIP3    H158856   0.749   2.901  14.140 -1.4465  0.1797  0.0469
12455TIP3    H258857   0.751   2.753  14.106  0.6290  0.3492 -0.6949
12456TIP3   OH258858   6.108   2.360  13.371  0.3756 -0.4438 -0.2334
12456TIP3    H158859   6.161   2.372  13.450 -0.4965  0.2210  0.2674
12456TIP3    H258860   6.060   2.442  13.362  1.3815 -0.0101 -2.1819
12457TIP3   OH258861   4.428   2.939   5.886  0.0730  0.1025  0.5505
12457TIP3    H158862   4.505   2.995   5.899  0.2560 -0.4955  2.2884
12457TIP3    H258863   4.377   2.948   5.966 -1.5429  0.2384 -0.4513
12458TIP3   OH258864   1.956   3.696   2.801 -0.5833 -0.0076 -0.2834
12458TIP3    H158865   2.045   3.693   2.765 -1.2365  0.0419 -2.0160
12458TIP3    H258866   1.968   3.714   2.894  1.2251 -0.2161 -0.4403
12459TIP3   OH258867   2.022   0.598   1.068 -0.6814 -0.6463  0.7816
12459TIP3    H158868   1.997   0.608   1.160 -0.0630  3.2721  0.6992
12459TIP3    H258869   1.939   0.602   1.020 -0.8588 -0.8277  1.0733
12460TIP3   OH258870   4.876   3.170   4.185  0.1053 -0.2801 -0.3849
12460TIP3    H158871   4.788   3.197   4.210 -0.2864 -1.7154 -0.0830
12460TIP3    H258872   4.883   3.080   4.218  1.8964  0.0056  0.1201
12461TIP3   OH258873   2.638   5.401  14.894 -0.1078 -0.1343  0.0163
12461TIP3    H158874   2.604   5.490  14.885 -1.1925  0.1021  4.2126
12461TIP3    H258875   2.575   5.346  14.849  0.0825  1.0860 -1.8481
12462TIP3   OH258876   1.391   5.058   3.348 -0.4405  0.1831  0.6040
12462TIP3    H158877   1.362   5.144   3.380  0.5253  0.9498 -0.5120
12462TIP3    H258878   1.317   5.026   3.297 -0.0632  1.3109 -0.7072
12463TIP3   OH258879   0.076   1.260   1.858  0.4071 -0.1856 -0.4373
12463TIP3    H158880   0.094   1.351   1.831 -0.7778 -0.5149 -2.4935
12463TIP3    H258881   0.077   1.210   1.777  1.8790 -2.2264  0.7352
12464TIP3   OH258882   3.752   4.885  14.956  0.0159  0.2766 -0.3249
12464TIP3    H158883   3.843   4.891  14.926  0.6495 -1.1823  1.1241
12464TIP3    H258884   3.755   4.819  15.026 -2.3676 -0.6855 -1.0355
12465TIP3   OH258885   1.679   5.765   1.578 -0.4123 -0.4613 -0.4791
12465TIP3    H158886   1.602   5.817   1.604  0.8190  1.4423 -0.4041
12465TIP3    H258887   1.676   5.689   1.635 -2.6158 -0.8207 -0.9689
12466TIP3   OH258888   1.976   5.840   2.763 -0.3109  0.1324 -0.2882
12466TIP3    H158889   1.932   5.763   2.799  0.6536  0.0233  0.6772
12466TIP3    H258890   1.923   5.863   2.686 -1.1876 -0.8824 -0.0157
12467TIP3   OH258891   3.843   5.756   6.263 -0.2728  0.1524 -0.1251
12467TIP3    H158892   3.782   5.683   6.264 -1.2140  0.9206  0.6174
12467TIP3    H258893   3.906   5.737   6.332 -0.7910  0.2726  0.3803
12468TIP3   OH258894   2.414   1.684   4.448  0.4077 -0.1555  0.1194
12468TIP3    H158895   2.334   1.704   4.399 -0.0133  1.1617  1.2534
12468TIP3    H258896   2.482   1.675   4.381  0.1273  2.8898 -0.7138
12469TIP3   OH258897   2.296   1.786   3.706  0.5611 -0.2060 -0.5181
12469TIP3    H158898   2.248   1.864   3.735  2.2951  0.4911  0.6897
12469TIP3    H258899   2.228   1.722   3.688 -0.8588  0.9488  0.4145
12470TIP3   OH258900   3.346   1.576   3.780  0.0488 -0.3919  0.0858
12470TIP3    H158901   3.393   1.601   3.701  0.1814  0.5059  0.4365
12470TIP3    H258902   3.357   1.650   3.839 -0.7997 -0.6722  0.6175
12471TIP3   OH258903   2.880   1.935   1.244  0.2554 -0.5048 -0.0918
12471TIP3    H158904   2.832   1.886   1.311  0.4111 -2.4806 -1.3411
12471TIP3    H258905   2.969   1.944   1.280  0.2569 -1.2558  0.1020
12472TIP3   OH258906   6.308   2.719   3.958  0.5662  0.0695  0.2859
12472TIP3    H158907   6.358   2.642   3.931 -0.5949 -0.4644 -0.3593
12472TIP3    H258908   6.358   2.754   4.032 -0.4811 -3.1072  2.7364
12473TIP3   OH258909   0.289   1.569   1.650  0.3386 -0.8601 -0.8273
12473TIP3    H158910   0.317   1.582   1.741  2.8416 -1.0501 -1.5052
12473TIP3    H258911   0.327   1.642   1.602 -1.0632 -0.6945 -1.7466
12474TIP3   OH258912   3.899   0.368  15.043  0.5469  0.6078 -0.5428
12474TIP3    H158913   3.890   0.407  15.130  2.0355  0.1360 -0.1468
12474TIP3    H258914   3.865   0.435  14.983  0.8129  1.5165  0.3007
12475TIP3   OH258915   1.721   2.069  14.813 -0.2318 -0.2548 -0.2142
12475TIP3    H158916   1.763   2.021  14.884 -0.9226 -1.2248 -0.4273
12475TIP3    H258917   1.690   2.150  14.853 -1.4639 -1.2117  0.8463
12476TIP3   OH258918   5.884   4.073  12.727 -0.5347  0.0199  0.9555
12476TIP3    H158919   5.932   3.996  12.757 -0.3527 -1.1634 -1.9968
12476TIP3    H258920   5.951   4.127  12.684 -1.3332 -0.4049 -0.9299
12477TIP3   OH258921   3.094   1.530   3.669 -0.1244 -0.1058 -0.0280
12477TIP3    H158922   3.139   1.477   3.603 -1.1198 -1.1087  0.0838
12477TIP3    H258923   3.164   1.581   3.709  0.5837  0.1297 -1.4807
12478TIP3   OH258924   2.944   6.762   4.552 -0.7077  0.0862 -0.1457
12478TIP3    H158925   2.894   6.688   4.586 -0.3838 -0.3288 -0.5507
12478TIP3    H258926   3.027   6.724   4.525 -0.5589  0.5877 -0.4087
12479TIP3   OH258927   0.654   2.367   6.405  0.1884 -0.1619 -0.2729
12479TIP3    H158928   0.583   2.428   6.425 -1.0637 -1.6516 -0.0375
12479TIP3    H258929   0.628   2.285   6.446  2.2133 -0.6703  0.0750
12480TIP3   OH258930   2.180   5.824  11.907  0.3631 -0.0031  0.0307
12480TIP3    H158931   2.237   5.901  11.897 -0.8302  0.7255 -1.7394
12480TIP3    H258932   2.092   5.858  11.892 -0.1875 -1.7211 -0.8944
12481TIP3   OH258933   6.588   4.114   1.375 -0.0403  0.6968  0.1696
12481TIP3    H158934   6.661   4.074   1.422 -0.2728  0.0752  0.0246
12481TIP3    H258935   6.510   4.083   1.421 -0.3022 -0.4576 -0.9747
12482TIP3   OH258936   4.690   2.479  16.465 -0.0403 -0.1023  0.3092
12482TIP3    H158937   4.644   2.492  16.382 -0.9140 -3.3553  0.1259
12482TIP3    H258938   4.630   2.513  16.531  0.3967  1.9555 -0.2898
12483TIP3   OH258939   1.565   1.759   6.211  0.3922 -0.3904 -0.1095
12483TIP3    H158940   1.575   1.701   6.286  1.6279  0.4460  0.4060
12483TIP3    H258941   1.654   1.773   6.178 -0.1561 -1.0976 -2.0400
12484TIP3   OH258942   0.498   3.959  11.428 -0.0557  0.2005  0.0986
12484TIP3    H158943   0.410   3.924  11.443 -0.5776  0.5561 -1.7971
12484TIP3    H258944   0.514   3.943  11.335  1.2206  1.6155  0.0310
12485TIP3   OH258945   1.973   2.407   4.006 -0.5459 -0.2322 -0.3431
12485TIP3    H158946   1.927   2.363   3.935 -0.8381  0.2805 -0.4766
12485TIP3    H258947   2.006   2.336   4.061  0.0410 -0.6455 -1.2102
12486TIP3   OH258948   5.245   3.627   0.378  0.6717 -0.0374  0.2393
12486TIP3    H158949   5.156   3.607   0.351  1.2667 -0.8507 -1.2339
12486TIP3    H258950   5.267   3.561   0.443  1.2728 -1.9387 -1.7666
12487TIP3   OH258951   1.597   4.866   5.899  0.1668  0.9627  0.9206
12487TIP3    H158952   1.576   4.951   5.861  0.1428  1.0491  1.1256
12487TIP3    H258953   1.602   4.882   5.993 -0.5870  0.5840  1.0304
12488TIP3   OH258954   5.747   4.372  14.625 -0.2447 -0.3414 -0.1449
12488TIP3    H158955   5.656   4.373  14.596 -0.0779 -1.2192 -0.7256
12488TIP3    H258956   5.758   4.287  14.668  0.1682 -0.0400  0.3651
12489TIP3   OH258957   6.418   4.149  10.756 -0.5772 -0.2166 -0.3538
12489TIP3    H158958   6.332   4.109  10.762 -0.1845 -1.1467 -0.7901
12489TIP3    H258959   6.425   4.177  10.665 -0.0372 -1.0201 -0.5618
12490TIP3   OH258960   3.052   5.320   0.796 -0.0393  0.0670  0.1495
12490TIP3    H158961   3.072   5.372   0.718 -0.1433 -0.8715 -0.5184
12490TIP3    H258962   2.984   5.259   0.767  0.5942 -0.9353  0.7143
12491TIP3   OH258963   1.288   1.134  10.923  0.1172 -0.1491 -0.0465
12491TIP3    H158964   1.327   1.193  10.859  0.6707 -1.2364 -0.7513
12491TIP3    H258965   1.233   1.075  10.871  2.2165 -2.4082  0.1355
12492TIP3   OH258966   3.156   5.157   5.310  0.0348 -0.4513  0.2849
12492TIP3    H158967   3.149   5.086   5.246  1.6443  0.8663 -1.4746
12492TIP3    H258968   3.215   5.123   5.377  0.3148 -1.0118 -0.2321
12493TIP3   OH258969   4.741   2.687  12.127  0.7485  0.6201 -0.4810
12493TIP3    H158970   4.680   2.749  12.168  0.0198 -0.5348  0.2427
12493TIP3    H258971   4.701   2.668  12.042 -0.7114 -1.2012  0.5435
12494TIP3   OH258972   0.125   6.061   5.371 -0.1848 -0.4020  0.4549
12494TIP3    H158973   0.189   6.013   5.318 -0.2808 -0.9271  0.8041
12494TIP3    H258974   0.174   6.089   5.449  0.3448  1.6462 -0.5489
12495TIP3   OH258975   4.979   4.825   5.955 -0.3489 -0.0359 -0.7709
12495TIP3    H158976   4.886   4.836   5.935 -0.2296  0.4017 -1.1056
12495TIP3    H258977   4.994   4.731   5.948 -1.0721 -0.2866  0.6814
12496TIP3   OH258978   4.587   0.945   0.897  0.4671  0.4971 -0.0376
12496TIP3    H158979   4.615   1.008   0.964  0.6226  0.9653 -0.5300
12496TIP3    H258980   4.643   0.965   0.822 -0.2976  0.5664 -0.5993
12497TIP3   OH258981   0.433   0.331   0.273  0.2604  0.1256 -0.4866
12497TIP3    H158982   0.371   0.303   0.206  0.7074 -0.0187 -0.8453
12497TIP3    H258983   0.457   0.420   0.247  0.1668  0.1994 -0.3208
12498TIP3   OH258984   5.143   3.962   6.141 -0.2726 -0.0253  0.7138
12498TIP3    H158985   5.084   3.897   6.102  0.7969 -0.8876  0.4808
12498TIP3    H258986   5.114   4.045   6.103 -2.4117 -0.1594  1.8951
12499TIP3   OH258987   4.743   3.976   0.278  0.6743  0.3240  0.5308
12499TIP3    H158988   4.716   3.994   0.188 -1.5927  2.7474  1.5700
12499TIP3    H258989   4.784   4.057   0.308  0.7701 -0.2033  1.9169
12500TIP3   OH258990   3.844   3.326   5.312  0.3490  0.1276  0.0468
12500TIP3    H158991   3.791   3.404   5.329  0.3579 -0.3793  2.9755
12500TIP3    H258992   3.830   3.307   5.219  0.6639  3.7958 -0.8816
12501TIP3   OH258993   3.310   2.316  11.026  0.3473  0.3711 -0.9474
12501TIP3    H158994   3.384   2.362  10.988  1.3730 -0.5341 -0.1156
12501TIP3    H258995   3.276   2.262  10.954  1.3036 -0.1606 -1.0213
12502TIP3   OH258996   1.726   5.838  13.544 -0.7174  0.5990  0.2630
12502TIP3    H158997   1.693   5.868  13.460 -0.0763  0.2220 -0.1294
12502TIP3    H258998   1.719   5.914  13.602  3.3736  2.4959 -1.3398
12503TIP3   OH258999   3.861   4.905   0.763 -0.2767  0.0030 -0.3809
12503TIP3    H159000   3.913   4.934   0.687 -0.0421  1.2650  0.2412
12503TIP3    H259001   3.913   4.833   0.800  0.7005  0.7892 -0.1746
12504TIP3   OH259002   5.975   2.835   4.367 -0.2386  0.2060  0.4135
12504TIP3    H159003   5.900   2.780   4.345 -0.9798  2.0285 -2.1051
12504TIP3    H259004   6.044   2.773   4.389 -1.4536 -1.6839 -0.7888
12505TIP3   OH259005   0.860   6.059   4.785 -0.0432 -0.1053  0.1773
12505TIP3    H159006   0.841   5.970   4.757 -1.7221 -0.3483  1.8434
12505TIP3    H259007   0.774   6.096   4.807  0.6669  1.7410  0.0316
12506TIP3   OH259008   4.154   1.879  12.579  0.1316  0.1838  1.0135
12506TIP3    H159009   4.127   1.922  12.498 -1.1225 -1.6804  0.3809
12506TIP3    H259010   4.235   1.923  12.603  0.3275  1.0730 -1.0363
12507TIP3   OH259011   4.196   0.698  12.875 -0.4331  0.1687 -0.2003
12507TIP3    H159012   4.135   0.763  12.912  0.2493 -0.0977  1.4849
12507TIP3    H259013   4.206   0.633  12.944  0.2970 -0.8064 -1.1938
12508TIP3   OH259014   0.920   0.169  12.564 -0.0856  0.0899  0.6345
12508TIP3    H159015   0.900   0.124  12.482 -1.1481  0.6936  0.5460
12508TIP3    H259016   1.011   0.198  12.553 -0.5260  1.0536 -0.7772
12509TIP3   OH259017   3.644   1.673   0.607  0.8598 -0.1412 -0.1885
12509TIP3    H159018   3.700   1.636   0.675  0.7328 -1.6213 -0.8505
12509TIP3    H259019   3.638   1.766   0.629  0.7761 -0.5855  1.8364
12510TIP3   OH259020   6.308   0.244  15.732 -0.0479  0.1514  0.1660
12510TIP3    H159021   6.236   0.193  15.694  1.7025 -2.5046  0.1452
12510TIP3    H259022   6.312   0.215  15.823  1.4288 -0.3664 -0.0302
12511TIP3   OH259023   3.642   6.150   5.928  0.3079 -0.0402 -0.2183
12511TIP3    H159024   3.612   6.060   5.914 -0.3686  0.0801  0.3912
12511TIP3    H259025   3.632   6.192   5.843 -0.2083 -0.3088 -0.2950
12512TIP3   OH259026   1.273   1.436  11.394  0.2996  0.1895  0.4911
12512TIP3    H159027   1.357   1.424  11.439  0.6459 -1.2841 -0.4876
12512TIP3    H259028   1.218   1.366  11.428 -0.9422  1.7385  1.8926
12513TIP3   OH259029   4.030   6.156   5.199 -0.2517  0.4617  0.0268
12513TIP3    H159030   4.006   6.110   5.280 -1.8152  1.4976  0.1848
12513TIP3    H259031   4.111   6.202   5.222 -0.7716  0.8925  1.0753
12514TIP3   OH259032   3.485   5.861  10.981 -0.4822 -0.0213  0.3150
12514TIP3    H159033   3.551   5.792  10.976 -1.7635 -1.3467  0.9966
12514TIP3    H259034   3.448   5.865  10.893 -0.4052 -0.1858  0.2756
12515TIP3   OH259035   4.756   5.702  15.619  0.1590 -0.3555  0.0678
12515TIP3    H159036   4.817   5.755  15.567  0.2270 -1.5265 -1.1006
12515TIP3    H259037   4.670   5.732  15.592  0.1902  0.3023  0.6586
12516TIP3   OH259038   3.669   4.496   1.940 -0.5248  0.4966  0.3257
12516TIP3    H159039   3.733   4.519   2.007 -0.4704 -0.4540  0.6123
12516TIP3    H259040   3.635   4.411   1.967 -0.5972  0.1566 -0.7737
12517TIP3   OH259041   0.531   6.699   3.422  0.1529 -0.2694  0.4559
12517TIP3    H159042   0.455   6.743   3.460  0.3327 -0.0751  0.5963
12517TIP3    H259043   0.571   6.764   3.366  0.9825  0.0888  1.4290
12518TIP3   OH259044   6.564   2.298   1.875 -0.6590  0.4140 -0.1446
12518TIP3    H159045   6.474   2.300   1.843 -0.3754  2.1697 -0.9353
12518TIP3    H259046   6.616   2.338   1.806  1.0186 -1.9198 -0.3772
12519TIP3   OH259047   3.884   6.413   0.252  0.4810 -0.2971  0.0790
12519TIP3    H159048   3.809   6.470   0.232  1.2636  0.8947  0.4341
12519TIP3    H259049   3.960   6.460   0.219  1.0846 -1.5674 -0.4232
12520TIP3   OH259050   3.527   4.952  17.456 -0.1868  1.0203  0.4619
12520TIP3    H159051   3.455   4.958  17.518 -0.7268  0.5919 -0.1079
12520TIP3    H259052   3.606   4.953  17.510 -0.6645 -0.0584  1.2227
12521TIP3   OH259053   6.263   2.100   6.475 -0.2444  0.1635  0.1646
12521TIP3    H159054   6.322   2.024   6.476 -0.1667  0.2168 -0.1342
12521TIP3    H259055   6.178   2.063   6.450 -0.8110 -0.2278  2.4321
12522TIP3   OH259056   1.299   1.257   2.225 -0.3190  0.3205  0.3979
12522TIP3    H159057   1.341   1.173   2.207 -0.8430 -0.1338  1.1771
12522TIP3    H259058   1.371   1.317   2.246  0.0547  0.0544 -0.1115
12523TIP3   OH259059   0.188   3.938   5.024 -0.1939 -0.2298  0.0254
12523TIP3    H159060   0.147   3.982   5.098  2.0382 -2.3043  2.7124
12523TIP3    H259061   0.242   4.005   4.983  1.5194  0.1850  2.7241
12524TIP3   OH259062   1.889   3.237   3.145 -0.0646 -0.6075 -0.4614
12524TIP3    H159063   1.952   3.264   3.079 -0.0668 -0.2541 -0.3171
12524TIP3    H259064   1.870   3.145   3.123  0.2662 -0.6247 -0.6841
12525TIP3   OH259065   0.013   4.898   0.759 -0.7090 -0.5611  0.0911
12525TIP3    H159066   0.096   4.945   0.744 -0.9905  0.1085  0.5710
12525TIP3    H259067   0.038   4.806   0.765 -0.1210 -0.4645 -0.7313
12526TIP3   OH259068   6.009   1.919  12.916 -0.0942 -0.2577  0.4311
12526TIP3    H159069   6.084   1.977  12.933 -0.7307  0.5906  0.3774
12526TIP3    H259070   5.967   1.957  12.839 -1.2187 -0.0820  1.1218
12527TIP3   OH259071   0.336   5.716  11.805  0.1615  0.0752 -0.0480
12527TIP3    H159072   0.312   5.624  11.818  1.1062 -0.3183 -0.9441
12527TIP3    H259073   0.268   5.765  11.852 -0.6265 -1.0616  0.0524
12528TIP3   OH259074   4.986   1.424  13.570 -0.1952 -0.5533  0.2141
12528TIP3    H159075   4.990   1.338  13.529 -0.1231  0.1722 -1.3766
12528TIP3    H259076   5.076   1.444  13.596 -0.2176 -0.9537  0.6062
12529TIP3   OH259077   6.513   1.134  12.453 -0.2326 -0.1734 -0.1534
12529TIP3    H159078   6.419   1.144  12.469 -0.0853 -0.5608  1.0501
12529TIP3    H259079   6.542   1.220  12.423 -0.5776  0.5879  1.5946
12530TIP3   OH259080   4.656   1.274   1.952  0.4505 -0.1290 -0.1079
12530TIP3    H159081   4.677   1.181   1.947 -1.8985 -0.7037 -0.7539
12530TIP3    H259082   4.641   1.301   1.862 -1.9843  0.0139  0.2679
12531TIP3   OH259083   4.759   3.130  11.896 -0.0569 -0.1312 -0.6530
12531TIP3    H159084   4.775   3.224  11.908 -1.4703 -0.0584  0.9535
12531TIP3    H259085   4.734   3.123  11.804  1.2473  0.8535 -1.1314
12532TIP3   OH259086   2.898   3.936  11.641 -0.1542  0.9726 -0.1010
12532TIP3    H159087   2.981   3.924  11.595 -0.4559 -0.3436 -0.3370
12532TIP3    H259088   2.841   3.867  11.607 -0.5705  0.3138  1.8121
12533TIP3   OH259089   2.379   2.742  16.775 -0.2528 -0.3305 -0.0080
12533TIP3    H159090   2.363   2.789  16.856 -1.3146  0.2829 -0.5580
12533TIP3    H259091   2.348   2.653  16.792 -3.6874  0.6014 -0.7563
12534TIP3   OH259092   0.513   6.741   2.993  0.0599 -0.2147  0.1926
12534TIP3    H159093   0.584   6.796   2.960  0.7700 -0.4415  1.2770
12534TIP3    H259094   0.556   6.658   3.016 -0.5420 -0.3284  0.9338
12535TIP3   OH259095   6.144   5.129  16.209  0.0598 -0.1328  0.4522
12535TIP3    H159096   6.059   5.173  16.204  0.7569  1.1755 -0.5161
12535TIP3    H259097   6.203   5.196  16.245  1.2696 -0.0589 -1.5334
12536TIP3   OH259098   2.472   6.562   0.290  0.1522 -0.4392 -0.1961
12536TIP3    H159099   2.533   6.520   0.229 -0.4313  0.0887 -1.1809
12536TIP3    H259100   2.424   6.625   0.236 -0.7348 -0.2972  0.7165
12537TIP3   OH259101   2.680   4.999  13.091 -0.2661 -0.3352 -0.2424
12537TIP3    H159102   2.691   5.021  13.184 -1.1501 -2.1794  0.3475
12537TIP3    H259103   2.711   5.077  13.045  0.2707  0.6127  1.5837
12538TIP3   OH259104   5.823   2.209  15.914  0.0862  0.7692 -0.0856
12538TIP3    H159105   5.784   2.199  16.001  0.7212  2.1933  0.3823
12538TIP3    H259106   5.911   2.241  15.930 -0.2284  2.3959 -1.2640
12539TIP3   OH259107   1.778   4.611  12.330 -0.1861 -0.3928  0.0337
12539TIP3    H159108   1.872   4.604  12.311 -0.2443  1.2876 -1.1155
12539TIP3    H259109   1.750   4.521  12.346  1.0539 -1.3703 -2.5741
12540TIP3   OH259110   3.278   4.277  15.270 -0.8695 -0.3044  0.1068
12540TIP3    H159111   3.216   4.290  15.198 -0.5643 -1.5286 -0.4007
12540TIP3    H259112   3.230   4.305  15.348 -1.6604 -0.1531 -0.4218
12541TIP3   OH259113   6.419   1.309   3.897 -0.1241  0.6229 -0.4486
12541TIP3    H159114   6.422   1.377   3.830 -1.9964  0.8199 -0.3837
12541TIP3    H259115   6.395   1.230   3.849  2.8290 -0.2598 -0.6596
12542TIP3   OH259116   5.495   0.927   3.048 -0.3440  0.7018  0.1046
12542TIP3    H159117   5.572   0.968   3.088  1.0383 -0.9737 -0.6877
12542TIP3    H259118   5.519   0.917   2.956 -1.1903 -0.6111  0.0063
12543TIP3   OH259119   0.588   4.821  16.047  0.2499 -0.1849 -0.2000
12543TIP3    H159120   0.570   4.728  16.051 -0.8428 -0.0063 -0.7800
12543TIP3    H259121   0.649   4.831  15.974  0.3722 -0.4447 -0.1329
12544TIP3   OH259122   2.909   0.569  11.506 -0.2115  0.1754  0.4756
12544TIP3    H159123   2.987   0.583  11.561 -1.1711  0.8105  1.7167
12544TIP3    H259124   2.945   0.543  11.421  1.3277 -0.7708  1.3549
12545TIP3   OH259125   3.757   2.381   1.142 -0.2662 -0.1557 -0.1006
12545TIP3    H159126   3.702   2.459   1.154 -0.8754 -0.8924  2.6771
12545TIP3    H259127   3.847   2.414   1.151 -0.3451  0.5888 -1.6683
12546TIP3   OH259128   1.386   0.236   5.132  0.0915  0.1947 -0.5836
12546TIP3    H159129   1.327   0.214   5.204 -0.5625  0.3770 -1.0554
12546TIP3    H259130   1.468   0.261   5.174 -0.2207  0.0914  0.0858
12547TIP3   OH259131   3.863   0.937  14.679  0.7439 -0.0292 -0.2338
12547TIP3    H159132   3.951   0.902  14.663  0.3432 -0.7264 -1.0361
12547TIP3    H259133   3.858   0.947  14.774  1.1835 -1.3875 -0.0390
12548TIP3   OH259134   3.272   1.811   2.518 -0.1691  0.3368  0.4228
12548TIP3    H159135   3.275   1.726   2.560 -1.7679 -0.7601 -1.4653
12548TIP3    H259136   3.318   1.870   2.577  2.0684 -2.0434  1.2216
12549TIP3   OH259137   5.492   2.017  14.300  0.4039 -0.4511  0.2702
12549TIP3    H159138   5.568   1.961  14.315 -0.6940 -2.1980 -0.5007
12549TIP3    H259139   5.418   1.957  14.292 -1.0630  1.1882  0.8019
12550TIP3   OH259140   0.189   0.981  15.662 -0.0465  0.0221 -0.0774
12550TIP3    H159141   0.122   1.047  15.681 -1.1836 -0.8392 -1.0214
12550TIP3    H259142   0.272   1.026  15.681 -0.8243  1.4603  0.0624
12551TIP3   OH259143   1.662   3.015   6.096 -0.0884  0.6876  0.2419
12551TIP3    H159144   1.714   2.948   6.053 -1.4043  0.5748 -1.2467
12551TIP3    H259145   1.720   3.050   6.164  1.6107  0.0011 -0.7885
12552TIP3   OH259146   5.418   2.000   3.135  0.8815  0.3673  0.5481
12552TIP3    H159147   5.400   2.055   3.211  0.2258 -0.4405  0.9963
12552TIP3    H259148   5.439   1.914   3.171  0.3251 -0.0946 -0.1793
12553TIP3   OH259149   2.169   2.882  11.959 -0.1343  0.2063  0.0612
12553TIP3    H159150   2.114   2.943  12.008  0.4433  2.1368 -1.5813
12553TIP3    H259151   2.258   2.899  11.991 -0.1239 -0.9132  0.6901
12554TIP3   OH259152   4.426   0.094   1.516  0.2219 -0.0712 -0.2705
12554TIP3    H159153   4.520   0.075   1.514  0.1967 -0.2113 -2.5954
12554TIP3    H259154   4.389   0.040   1.446 -1.4369  0.7802 -0.1048
12555TIP3   OH259155   4.387   0.239  11.843 -0.0168  0.7677 -0.7761
12555TIP3    H159156   4.340   0.255  11.761  0.7007  0.4970 -1.2567
12555TIP3    H259157   4.360   0.151  11.869  0.8605  0.2474 -1.5246
12556TIP3   OH259158   2.336   2.185  14.211 -0.2834 -0.3165 -0.3060
12556TIP3    H159159   2.395   2.119  14.174 -0.3247 -1.3998  1.4688
12556TIP3    H259160   2.294   2.224  14.134  0.8563 -1.2990 -1.4813
12557TIP3   OH259161   6.081   0.921  12.350  0.0947 -0.0061 -0.6050
12557TIP3    H159162   6.027   0.845  12.330 -0.6841 -0.0792  1.4898
12557TIP3    H259163   6.171   0.887  12.350 -0.2645 -1.0277  0.6335
12558TIP3   OH259164   0.147   4.400  15.748 -0.7540  0.1742 -0.5148
12558TIP3    H159165   0.202   4.345  15.804  1.1478  2.5724  0.1002
12558TIP3    H259166   0.139   4.350  15.666  0.1990 -1.3493  0.2696
12559TIP3   OH259167   6.730   6.108  11.980  0.4890 -0.3628 -0.0968
12559TIP3    H159168   6.757   6.189  11.938 -1.1325  0.8093  0.9935
12559TIP3    H259169   6.767   6.112  12.068 -0.1600 -0.4677  0.1873
12560TIP3   OH259170   3.604   4.503  11.822 -0.1017 -0.1405 -0.0595
12560TIP3    H159171   3.654   4.542  11.750 -0.8404  1.8427  0.4565
12560TIP3    H259172   3.537   4.567  11.843 -0.2333 -0.9008  2.0740
12561TIP3   OH259173   0.628   6.124   1.636  0.0487  0.0833 -0.2801
12561TIP3    H159174   0.632   6.132   1.731 -1.4157  0.2150 -0.2057
12561TIP3    H259175   0.591   6.037   1.621 -0.2410  0.2766 -0.7118
12562TIP3   OH259176   2.807   4.835   0.098 -0.0210 -0.7045 -0.0670
12562TIP3    H159177   2.755   4.896   0.151  0.9635  0.4623 -0.4037
12562TIP3    H259178   2.744   4.796   0.038 -1.0485 -1.5768  1.4937
12563TIP3   OH259179   3.321   6.661  17.186 -0.0446  0.3033  0.2975
12563TIP3    H159180   3.279   6.665  17.272 -0.6025  0.9962  0.0104
12563TIP3    H259181   3.342   6.752  17.166  0.5168  0.0895 -0.0887
12564TIP3   OH259182   4.325   6.705  14.164 -0.2333  0.4576  0.0852
12564TIP3    H159183   4.387   6.653  14.216  0.5036  0.9651 -0.2609
12564TIP3    H259184   4.371   6.722  14.082 -1.0112  0.4776 -0.3568
12565TIP3   OH259185   3.997   0.753  15.180 -0.0786 -0.2504 -0.0359
12565TIP3    H159186   4.012   0.698  15.103 -0.6370 -0.6263  0.1198
12565TIP3    H259187   3.967   0.837  15.143 -1.0557 -0.6607 -0.2182
12566TIP3   OH259188   3.383   5.736   6.771 -0.2592  0.0691  0.1450
12566TIP3    H159189   3.392   5.710   6.862 -0.8420 -0.9689 -0.0752
12566TIP3    H259190   3.343   5.660   6.728 -1.5668  1.1525 -0.6364
12567TIP3   OH259191   6.577   1.431   3.069  0.6261 -0.1126 -0.2081
12567TIP3    H159192   6.540   1.431   3.157 -0.9494  0.4442 -0.8209
12567TIP3    H259193   6.661   1.386   3.077  0.3199 -0.4260  1.4904
12568TIP3   OH259194   1.801   3.438  14.048 -0.0519 -0.0151 -0.6382
12568TIP3    H159195   1.870   3.390  14.094 -1.6585 -0.7930  1.0906
12568TIP3    H259196   1.815   3.530  14.074  0.9949  0.0038 -1.2325
12569TIP3   OH259197   3.687   3.606   3.463 -0.6185  0.3601  0.0691
12569TIP3    H159198   3.737   3.684   3.439 -0.5983  0.3638  0.1234
12569TIP3    H259199   3.603   3.640   3.495 -0.4875  0.3749  0.3982
12570TIP3   OH259200   6.519   2.010   1.908  0.1866  0.6492 -0.2138
12570TIP3    H159201   6.441   1.985   1.859 -0.0747 -0.6564  0.8217
12570TIP3    H259202   6.492   2.087   1.958 -0.4562  0.1895  0.1581
12571TIP3   OH259203   6.278   3.456  11.557  0.6900  0.4464 -0.0872
12571TIP3    H159204   6.186   3.443  11.580 -0.0863  0.9172 -2.5117
12571TIP3    H259205   6.320   3.484  11.638 -1.2410 -0.0535  1.1510
12572TIP3   OH259206   4.169   3.311   0.530  0.1386  0.0367  0.7647
12572TIP3    H159207   4.156   3.296   0.436  0.3368 -0.7330  0.8587
12572TIP3    H259208   4.264   3.318   0.540  0.1595 -0.5266  0.9981
12573TIP3   OH259209   3.902   3.723   4.868 -0.6385  0.0600  0.0088
12573TIP3    H159210   3.879   3.704   4.777 -0.0808 -1.8509  0.2328
12573TIP3    H259211   3.924   3.638   4.906 -2.7639  0.4935  2.4940
12574TIP3   OH259212   4.379   4.575   5.743 -0.2155  0.3299 -0.2771
12574TIP3    H159213   4.397   4.578   5.649  0.2417 -0.4947 -0.2291
12574TIP3    H259214   4.415   4.491   5.771 -1.7198 -0.1489  0.3422
12575TIP3   OH259215   3.693   6.434  16.604 -0.0083  0.1556  0.5502
12575TIP3    H159216   3.624   6.501  16.605 -1.0681 -0.9023  1.4480
12575TIP3    H259217   3.715   6.424  16.511 -0.6759  0.8955  0.2969
12576TIP3   OH259218   2.963   2.244   4.715  0.1917 -0.2646  0.3426
12576TIP3    H159219   3.003   2.325   4.683  0.6357 -0.6734 -0.1688
12576TIP3    H259220   2.956   2.188   4.637  0.3109 -0.8830  0.7627
12577TIP3   OH259221   3.504   0.427   5.232 -0.0978  0.0809  0.4024
12577TIP3    H159222   3.516   0.403   5.140 -1.5582 -1.4700  0.5539
12577TIP3    H259223   3.471   0.347   5.273  1.9277  0.2838  2.6281
12578TIP3   OH259224   4.956   6.223  12.378 -0.0960  0.0478 -0.1353
12578TIP3    H159225   4.943   6.302  12.430 -1.1403 -0.6024  0.6312
12578TIP3    H259226   4.950   6.151  12.441 -2.8727 -0.8701 -1.2928
12579TIP3   OH259227   4.116   0.469  11.911  0.0302 -0.2946 -0.9914
12579TIP3    H159228   4.067   0.457  11.829  0.3402 -0.9884 -1.0842
12579TIP3    H259229   4.131   0.563  11.916 -3.1115  0.2637  0.0933
12580TIP3   OH259230   1.404   6.640   1.898  0.0390  0.3668 -0.1756
12580TIP3    H159231   1.491   6.622   1.863  0.0506  1.1733 -0.5766
12580TIP3    H259232   1.419   6.704   1.968 -0.2266  0.4783 -0.2209
12581TIP3   OH259233   0.204   3.325   0.059 -0.4225 -0.5139 -0.0795
12581TIP3    H159234   0.110   3.334   0.044 -0.5511 -1.1668  0.3197
12581TIP3    H259235   0.244   3.391   0.002 -1.0984 -0.5083 -0.5521
12582TIP3   OH259236   3.979   5.098  10.822  0.2174  0.2078  0.4326
12582TIP3    H159237   3.893   5.111  10.783  0.1700  0.7549  0.7086
12582TIP3    H259238   3.968   5.027  10.885  0.2275 -0.4826 -0.3349
12583TIP3   OH259239   0.537   2.733   1.966  0.0560 -0.2593  0.0822
12583TIP3    H159240   0.506   2.823   1.960 -2.7879 -1.2228 -1.8131
12583TIP3    H259241   0.619   2.739   2.014 -0.9081  3.1023  1.6018
12584TIP3   OH259242   4.176   4.743   6.862 -0.1879 -0.1628 -0.1042
12584TIP3    H159243   4.116   4.815   6.847  0.4812 -0.0030 -2.3027
12584TIP3    H259244   4.249   4.759   6.802  0.8560 -1.6856  0.6805
12585TIP3   OH259245   6.745   1.319  17.302  0.1843  0.7196 -0.7309
12585TIP3    H159246   6.756   1.402  17.347  0.0995 -0.5070  1.7034
12585TIP3    H259247   6.685   1.338  17.230  0.4145  2.7966 -0.4231
12586TIP3   OH259248   6.182   5.711  14.810 -0.1819 -0.5036 -0.2846
12586TIP3    H159249   6.245   5.729  14.880 -0.1859 -1.2605 -0.0691
12586TIP3    H259250   6.233   5.714  14.730  0.3818 -2.1376 -0.0301
12587TIP3   OH259251   5.116   1.100  12.425 -0.0910  0.1119  0.1948
12587TIP3    H159252   5.170   1.122  12.501  0.4143  0.5596 -0.2832
12587TIP3    H259253   5.133   1.170  12.362 -0.1353 -0.4994 -0.5122
12588TIP3   OH259254   4.895   6.121   1.768  0.3265  0.1903 -0.1602
12588TIP3    H159255   4.894   6.026   1.755  0.6251 -0.0240  1.2286
12588TIP3    H259256   4.988   6.143   1.773  0.2469  0.4960 -0.0259
12589TIP3   OH259257   1.802   2.808   4.321 -0.2300  0.3204 -1.0327
12589TIP3    H159258   1.822   2.751   4.246  1.9759  1.3518 -1.3090
12589TIP3    H259259   1.791   2.748   4.395  1.8930 -0.5353 -1.3432
12590TIP3   OH259260   4.580   1.249   6.006  0.1376 -0.5224  0.2882
12590TIP3    H159261   4.534   1.173   5.970  2.6805 -0.3655 -4.0133
12590TIP3    H259262   4.670   1.217   6.021  0.3786  0.7934  1.9212
12591TIP3   OH259263   5.973   0.310   2.494  0.2243  0.2305  0.2803
12591TIP3    H159264   6.045   0.373   2.490  1.4357 -0.9644  1.9309
12591TIP3    H259265   5.981   0.269   2.580 -0.4705 -2.2012 -0.7107
12592TIP3   OH259266   4.527   1.520   1.051  0.4608 -0.5139  0.0545
12592TIP3    H159267   4.489   1.603   1.080 -1.7509 -1.7669  0.8892
12592TIP3    H259268   4.591   1.498   1.119  0.1420 -0.1366  0.4779
12593TIP3   OH259269   5.542   5.362   2.155 -0.6213  0.5832 -0.0390
12593TIP3    H159270   5.456   5.378   2.117 -0.3356  0.9572 -0.5451
12593TIP3    H259271   5.540   5.408   2.239 -1.3122 -0.3855  0.4917
12594TIP3   OH259272   2.563   1.553   5.434  0.0134  0.1390  0.1809
12594TIP3    H159273   2.600   1.538   5.347  0.3733  0.0444  0.3469
12594TIP3    H259274   2.639   1.568   5.490 -0.2899  2.3286  0.0918
12595TIP3   OH259275   2.161   2.632   4.131  0.0947  0.1008  0.1836
12595TIP3    H159276   2.127   2.547   4.159 -4.0758  1.5452  0.2140
12595TIP3    H259277   2.197   2.671   4.211  0.7807 -1.0630  0.4643
12596TIP3   OH259278   4.830   3.642   2.046 -0.0011  0.3221 -0.5435
12596TIP3    H159279   4.766   3.601   2.103 -0.5019  1.4366 -0.2980
12596TIP3    H259280   4.810   3.735   2.048  0.8496  0.5508 -1.4358
12597TIP3   OH259281   4.088   5.125   5.973  0.0140  0.6006  0.5154
12597TIP3    H159282   4.169   5.100   6.016  0.5084 -1.5758 -1.4630
12597TIP3    H259283   4.109   5.208   5.929  1.2138  0.0394 -0.0233
12598TIP3   OH259284   3.532   2.284  17.298  0.0889  0.5971  0.0343
12598TIP3    H159285   3.531   2.203  17.349 -0.7720  0.8110  0.3859
12598TIP3    H259286   3.440   2.298  17.274  0.1462  1.7348  0.4144
12599TIP3   OH259287   2.762   2.211   5.334 -0.3931  0.2131 -0.6604
12599TIP3    H159288   2.834   2.172   5.285 -0.1518  1.2541 -1.1830
12599TIP3    H259289   2.729   2.141   5.390  0.2351 -0.6150 -1.3041
12600TIP3   OH259290   6.301   6.359   4.844 -0.5125  0.1137  0.1729
12600TIP3    H159291   6.366   6.428   4.859  0.3223 -0.6314  0.0835
12600TIP3    H259292   6.235   6.400   4.789  0.3581  0.6308 -0.5104
12601TIP3   OH259293   5.819   5.956   2.619  0.2245  0.0197 -0.0252
12601TIP3    H159294   5.855   5.995   2.539  1.0848  2.9670  1.6425
12601TIP3    H259295   5.827   6.025   2.685  0.7383 -2.6470  2.9602
12602TIP3   OH259296   4.829   6.725   5.301 -0.2043 -0.0732 -0.5229
12602TIP3    H159297   4.744   6.764   5.280 -0.0570  0.0679 -0.8755
12602TIP3    H259298   4.859   6.688   5.218 -0.1348 -0.5346 -0.2921
12603TIP3   OH259299   1.905   3.083   6.209 -0.0944 -0.5210 -0.3353
12603TIP3    H159300   1.928   3.045   6.293  1.5170  1.3618  0.1413
12603TIP3    H259301   1.951   3.030   6.145  0.3841 -0.6752  0.1317
12604TIP3   OH259302   1.901   0.852   1.714  0.0161 -0.6182  0.1131
12604TIP3    H159303   1.918   0.806   1.797 -0.0128 -1.9886 -0.6016
12604TIP3    H259304   1.860   0.786   1.659  0.7877  0.0220 -1.2849
12605TIP3   OH259305   3.841   4.878   5.203 -0.0989  0.2402 -0.2904
12605TIP3    H159306   3.764   4.933   5.191 -1.5719 -1.9222 -1.2913
12605TIP3    H259307   3.818   4.818   5.274 -0.2053 -1.7667 -1.9413
12606TIP3   OH259308   4.494   5.698  10.521 -0.4097 -0.5714 -0.4224
12606TIP3    H159309   4.443   5.620  10.540 -2.5344  1.2890  2.3677
12606TIP3    H259310   4.492   5.748  10.603  0.0939  2.8051 -2.2968
12607TIP3   OH259311   5.252   4.947   1.698  0.3396 -0.0315  0.6892
12607TIP3    H159312   5.214   4.963   1.784 -0.0814  1.8207  0.2228
12607TIP3    H259313   5.177   4.937   1.640  0.6120 -2.1445  0.6248
12608TIP3   OH259314   2.248   4.580   0.135  0.0566 -0.4765  0.2979
12608TIP3    H159315   2.253   4.671   0.106  3.0262 -1.2146 -1.9992
12608TIP3    H259316   2.291   4.580   0.221 -0.4092  0.3543  0.5396
12609TIP3   OH259317   2.679   5.878  12.956  0.4906  0.1541 -0.5457
12609TIP3    H159318   2.668   5.797  13.006  0.4327  1.7560  2.2556
12609TIP3    H259319   2.597   5.888  12.907  0.0868 -0.9349 -0.1137
12610TIP3   OH259320   3.403   1.382  12.670 -0.4998 -0.4444  0.3880
12610TIP3    H159321   3.323   1.419  12.632  0.0921 -0.8441 -1.3496
12610TIP3    H259322   3.391   1.287  12.667  0.2508 -0.5317 -0.4469
12611TIP3   OH259323   2.954   5.060   4.078 -0.1668 -0.2964 -0.2847
12611TIP3    H159324   2.946   5.116   4.000  0.4203  0.8878  0.4757
12611TIP3    H259325   2.991   5.117   4.145 -5.4559  0.4038  2.6072
12612TIP3   OH259326   2.819   2.986   6.229  0.4199  0.2968  0.3988
12612TIP3    H159327   2.833   2.959   6.320 -0.5151 -0.0089  0.4598
12612TIP3    H259328   2.770   2.913   6.190  0.6780  0.4982 -0.3078
12613TIP3   OH259329   2.804   2.494  13.423  0.1680 -0.2280  0.3823
12613TIP3    H159330   2.831   2.584  13.441 -1.3409  0.8964 -2.4041
12613TIP3    H259331   2.729   2.479  13.481 -0.9319  1.1413 -0.6276
12614TIP3   OH259332   4.934   2.602  12.720  0.6017 -0.5999 -0.4157
12614TIP3    H159333   4.891   2.642  12.795 -0.2023  1.3413 -1.8393
12614TIP3    H259334   4.865   2.591  12.655  1.4530 -1.3980 -1.2213
12615TIP3   OH259335   4.033   3.518  10.981 -0.0333  0.2294  0.7798
12615TIP3    H159336   4.057   3.425  10.979 -0.8074  0.0287 -0.5038
12615TIP3    H259337   3.940   3.519  10.956  0.3895  1.4512 -0.8690
12616TIP3   OH259338   0.687   2.352   2.343 -1.0152 -0.5471 -0.0279
12616TIP3    H159339   0.607   2.401   2.365 -0.9649 -0.5683  0.1933
12616TIP3    H259340   0.655   2.277   2.293 -1.1358 -0.5677  0.0800
12617TIP3   OH259341   5.644   1.807  16.935  0.4099  0.2658 -0.5320
12617TIP3    H159342   5.634   1.723  16.890 -0.3439  0.6128 -1.0322
12617TIP3    H259343   5.582   1.865  16.891 -0.3642  0.6221  0.9600
12618TIP3   OH259344   4.140   3.048   0.054  0.4014  0.3737 -0.5906
12618TIP3    H159345   4.206   3.093   0.001  0.6566  1.4074  0.5588
12618TIP3    H259346   4.185   2.970   0.087  1.0304  0.9927  0.0627
12619TIP3   OH259347   4.160   6.300  15.983  0.8329 -0.2808 -0.3736
12619TIP3    H159348   4.087   6.287  15.921  1.8264 -2.3351 -1.2106
12619TIP3    H259349   4.122   6.280  16.069 -0.0850  0.7315 -0.5156
12620TIP3   OH259350   1.133   2.404   1.305 -0.1984 -0.1560 -0.3777
12620TIP3    H159351   1.038   2.415   1.314 -0.4836  0.2972 -3.0805
12620TIP3    H259352   1.147   2.310   1.316 -0.4620  0.1155  3.1390
12621TIP3   OH259353   0.891   6.731   3.215 -0.2018  0.2868  0.5701
12621TIP3    H159354   0.843   6.664   3.167  0.1143  0.1344  0.4683
12621TIP3    H259355   0.974   6.740   3.168 -0.5944  1.3937  0.0344
12622TIP3   OH259356   4.136   4.453   4.110 -0.3134 -0.3270  0.3759
12622TIP3    H159357   4.104   4.535   4.147  2.0235  1.9708 -2.2342
12622TIP3    H259358   4.228   4.448   4.137 -0.0236 -1.3231 -0.7054
12623TIP3   OH259359   3.505   5.572  13.507 -0.3996  0.3112 -0.8002
12623TIP3    H159360   3.485   5.591  13.598  0.6588  0.5430 -0.6064
12623TIP3    H259361   3.474   5.649  13.459 -0.1880  0.5577 -0.5405
12624TIP3   OH259362   1.115   6.649  12.674 -0.1736 -0.2582  0.2456
12624TIP3    H159363   1.168   6.709  12.622  0.4309 -2.4516 -1.8145
12624TIP3    H259364   1.121   6.683  12.763  1.8425  1.5275 -0.4958
12625TIP3   OH259365   4.820   6.584  17.450 -0.9111 -0.0474 -0.1483
12625TIP3    H159366   4.817   6.512  17.513 -0.6820 -1.6100 -1.8244
12625TIP3    H259367   4.731   6.619  17.450 -1.7087 -1.9370 -1.0159
12626TIP3   OH259368   1.838   6.623  13.130 -0.0420 -0.5089  0.3591
12626TIP3    H159369   1.871   6.535  13.152 -0.4223 -0.5560  0.7533
12626TIP3    H259370   1.745   6.619  13.149 -0.4822 -0.6597 -1.6711
12627TIP3   OH259371   3.037   3.932  15.624  0.0463  0.1412  0.4071
12627TIP3    H159372   3.100   3.989  15.580 -0.0727  0.0854  0.1603
12627TIP3    H259373   2.955   3.945  15.575  0.0411 -0.3076  0.2886
12628TIP3   OH259374   1.676   1.736   2.335  0.2369  0.1821  0.4494
12628TIP3    H159375   1.598   1.786   2.311  1.0659  0.3143 -2.2641
12628TIP3    H259376   1.643   1.647   2.351 -0.5602  0.4039  0.0831
12629TIP3   OH259377   5.758   4.089   7.262 -0.2216 -0.1507  0.6681
12629TIP3    H159378   5.707   4.073   7.182 -0.6343  0.4454  0.8041
12629TIP3    H259379   5.787   4.003   7.290  0.0626 -0.3552 -0.2170
12630TIP3   OH259380   4.778   3.256   6.078 -0.2292 -0.3169 -0.0071
12630TIP3    H159381   4.766   3.181   6.137 -1.2858 -0.5698 -0.5132
12630TIP3    H259382   4.773   3.332   6.135  0.9326 -0.6290  0.5253
12631TIP3   OH259383   5.892   5.179  11.042 -0.3973  0.5401  0.0867
12631TIP3    H159384   5.801   5.188  11.014  0.1932  3.2709 -1.2784
12631TIP3    H259385   5.914   5.265  11.078  1.5243 -0.2091  0.8146
12632TIP3   OH259386   5.023   6.636  15.082  0.2582  0.0236 -1.1370
12632TIP3    H159387   4.988   6.670  15.164  1.8944 -0.8747 -0.0168
12632TIP3    H259388   4.951   6.584  15.046  0.1382 -1.2312  0.7709
12633TIP3   OH259389   1.732   3.180   5.524  0.3216  0.5533 -0.0803
12633TIP3    H159390   1.800   3.113   5.517 -2.3319 -2.2424 -1.4303
12633TIP3    H259391   1.679   3.153   5.598 -1.6401  0.2076 -1.5213
12634TIP3   OH259392   3.034   6.130  17.184  0.2656  0.8245  0.2848
12634TIP3    H159393   2.983   6.110  17.106  0.3418 -0.1367  0.4599
12634TIP3    H259394   3.096   6.197  17.156 -0.1022  0.9203 -0.3187
12635TIP3   OH259395   2.955   4.592  12.707  0.6117  0.0794 -0.0026
12635TIP3    H159396   3.017   4.522  12.730  0.8722  0.7940  1.5963
12635TIP3    H259397   2.871   4.561  12.741  0.2588 -0.4393 -1.2893
12636TIP3   OH259398   3.866   3.511   1.679 -0.0066 -0.3901  0.7537
12636TIP3    H159399   3.961   3.506   1.677  0.0652  0.8066  0.2760
12636TIP3    H259400   3.839   3.500   1.588 -0.0253  3.1060  0.1769
12637TIP3   OH259401   1.994   0.199  15.599  0.3829 -0.8119  0.1891
12637TIP3    H159402   1.967   0.110  15.578 -2.0950  0.1909 -1.3825
12637TIP3    H259403   1.966   0.212  15.690 -1.4854 -0.9326 -0.3217
12638TIP3   OH259404   6.482   4.760  11.713  0.1886  0.2231  0.0357
12638TIP3    H159405   6.454   4.852  11.711 -1.3666 -0.2180  0.2884
12638TIP3    H259406   6.422   4.715  11.655 -0.6719 -1.0302  1.8225
12639TIP3   OH259407   1.608   2.599  15.006  0.4407 -0.2699  0.0142
12639TIP3    H159408   1.568   2.634  14.927 -0.9340 -1.3737  0.1578
12639TIP3    H259409   1.701   2.590  14.985  0.3899  1.0320 -0.8619
12640TIP3   OH259410   5.139   4.742   3.197 -0.1134 -0.2076 -0.3755
12640TIP3    H159411   5.054   4.703   3.178 -1.2393  1.5779  0.7003
12640TIP3    H259412   5.119   4.827   3.236  2.1353 -0.4303  1.5031
12641TIP3   OH259413   0.004   3.956   3.403  0.1775 -0.1036 -0.5728
12641TIP3    H159414   0.058   4.018   3.451 -0.2921  0.1792 -0.3985
12641TIP3    H259415   0.009   3.875   3.455  1.2238 -0.3913 -1.0881
12642TIP3   OH259416   2.364   5.391   3.215 -0.3584 -0.2853  0.5604
12642TIP3    H159417   2.410   5.469   3.183  0.6564 -0.0884  2.3409
12642TIP3    H259418   2.296   5.375   3.150  0.2940  1.2586 -0.5763
12643TIP3   OH259419   0.865   6.165   5.305 -0.1250  0.2099  0.0681
12643TIP3    H159420   0.955   6.181   5.275  0.3763 -1.2118  0.7629
12643TIP3    H259421   0.825   6.113   5.235 -0.6649  1.4330 -0.5726
12644TIP3   OH259422   4.143   1.544   4.835 -0.1515 -0.2078 -0.2364
12644TIP3    H159423   4.170   1.455   4.857 -0.3025 -0.3738 -0.7147
12644TIP3    H259424   4.204   1.571   4.766 -0.0597  0.0874 -0.0430
12645TIP3   OH259425   6.500   2.048   0.222 -0.4045 -0.2811 -0.0070
12645TIP3    H159426   6.461   2.136   0.226  2.9193  1.3036  2.0969
12645TIP3    H259427   6.513   2.032   0.129 -1.1209  1.4598 -0.4422
12646TIP3   OH259428   3.115   1.787   4.938 -0.2503  0.4275  0.0538
12646TIP3    H159429   3.128   1.880   4.917 -1.0155  0.6493  0.4920
12646TIP3    H259430   3.187   1.765   4.996  0.3764  0.5319 -0.6716
12647TIP3   OH259431   2.738   5.623   2.385 -0.1242 -0.6522  0.1780
12647TIP3    H159432   2.767   5.704   2.344 -0.9491 -0.2093  0.4279
12647TIP3    H259433   2.797   5.611   2.459  0.1419 -0.3984  0.0070
12648TIP3   OH259434   0.117   4.063   1.742  0.1429  0.3170 -0.2034
12648TIP3    H159435   0.029   4.033   1.721  0.2147 -0.5619  0.7097
12648TIP3    H259436   0.149   4.101   1.660 -0.5891 -0.5678 -0.9252
12649TIP3   OH259437   6.457   4.013   4.920 -0.5431 -0.2755  0.2851
12649TIP3    H159438   6.536   4.008   4.866 -0.7641 -1.1024  0.0251
12649TIP3    H259439   6.386   3.987   4.861 -0.8644 -0.6258  0.8179
12650TIP3   OH259440   2.541   1.430  12.049  0.0625  0.4048  0.5991
12650TIP3    H159441   2.631   1.446  12.020 -0.3100 -2.0740 -2.3966
12650TIP3    H259442   2.489   1.493  12.000  0.0792  2.4096  2.9442
12651TIP3   OH259443   5.774   5.065   3.448  0.0724  0.4715  0.1296
12651TIP3    H159444   5.777   5.008   3.525 -0.5970  0.3360  0.0577
12651TIP3    H259445   5.790   5.153   3.483  2.1401  0.1644  0.1218
12652TIP3   OH259446   5.102   2.781  17.254 -0.3754 -0.3526  0.1080
12652TIP3    H159447   5.141   2.695  17.270 -1.6664 -0.8303  0.8485
12652TIP3    H259448   5.045   2.796  17.329  0.2505  1.4251  0.2735
12653TIP3   OH259449   6.186   2.238  11.355  0.3880  0.4049  0.0141
12653TIP3    H159450   6.114   2.212  11.298  0.5053  1.1192 -0.4737
12653TIP3    H259451   6.188   2.334  11.349  0.6503  0.4647  0.9125
12654TIP3   OH259452   5.933   0.162  16.920 -0.2582 -0.6964  0.4793
12654TIP3    H159453   5.890   0.243  16.949 -0.4709 -0.7623  0.3501
12654TIP3    H259454   5.873   0.126  16.855 -0.3442 -1.1523  0.8055
12655TIP3   OH259455   0.670   1.370  10.955 -0.0411 -0.3457 -0.1766
12655TIP3    H159456   0.612   1.300  10.925  1.7065 -1.5715 -0.8779
12655TIP3    H259457   0.700   1.413  10.875  0.5489 -0.1831  0.1255
12656TIP3   OH259458   0.964   4.640   3.931  0.6020 -0.1545  0.1906
12656TIP3    H159459   0.907   4.699   3.980  2.5975  1.8817  0.2335
12656TIP3    H259460   1.015   4.595   3.998 -0.5872 -1.6578  0.1359
12657TIP3   OH259461   4.667   6.592   3.739 -0.6126  0.2670 -0.3435
12657TIP3    H159462   4.653   6.515   3.684  2.5713 -0.1033 -0.7865
12657TIP3    H259463   4.680   6.664   3.676  1.4844  0.1346 -0.1229
12658TIP3   OH259464   3.989   3.919   4.721  0.1698 -0.2072  0.3187
12658TIP3    H159465   3.950   3.873   4.795 -0.9762 -0.2333 -0.2859
12658TIP3    H259466   4.075   3.878   4.710  0.8101  0.4914  2.2688
12659TIP3   OH259467   2.094   2.264   6.029  0.0343  0.0200 -0.8359
12659TIP3    H159468   2.139   2.282   6.111 -0.8402 -0.5536 -0.2023
12659TIP3    H259469   2.055   2.177   6.042 -1.0315  0.3911 -1.4269
12660TIP3   OH259470   0.810   4.213   5.128  0.3341 -0.0097 -0.1921
12660TIP3    H159471   0.779   4.123   5.118 -0.6266  0.4223 -1.3140
12660TIP3    H259472   0.864   4.230   5.052  1.5854 -0.0338  0.6637
12661TIP3   OH259473   4.213   1.021  12.754 -0.4145 -0.0373  0.3221
12661TIP3    H159474   4.125   1.033  12.791 -1.3991 -2.0942 -1.1156
12661TIP3    H259475   4.272   1.053  12.822 -2.2653  1.8092  1.1721
12662TIP3   OH259476   5.804   2.683  11.800  0.4632 -0.0527 -0.0997
12662TIP3    H159477   5.881   2.633  11.774  1.8149  1.4568  0.8194
12662TIP3    H259478   5.803   2.678  11.895 -2.2170 -2.3275 -0.1135
12663TIP3   OH259479   2.623   5.906  12.064 -0.3158  0.1463 -0.8304
12663TIP3    H159480   2.605   5.933  12.154  0.3481 -1.1142 -0.3024
12663TIP3    H259481   2.665   5.821  12.072 -0.4701 -0.1000 -2.3536
12664TIP3   OH259482   6.633   3.053   4.559 -0.1710  0.2792 -0.1541
12664TIP3    H159483   6.593   3.018   4.638  1.4984 -1.5293 -0.0303
12664TIP3    H259484   6.725   3.026   4.564 -0.1643 -0.6434 -3.0703
12665TIP3   OH259485   0.999   1.935   4.344  0.4607 -0.0793 -0.3913
12665TIP3    H159486   1.061   1.904   4.278  1.1536  1.0322 -0.2851
12665TIP3    H259487   0.933   1.983   4.294  0.3240 -0.2677 -0.3917
12666TIP3   OH259488   5.980   4.517  15.228  0.2376  0.2077 -0.1562
12666TIP3    H159489   6.051   4.581  15.232  0.4574  0.0656 -1.5076
12666TIP3    H259490   6.022   4.433  15.249  0.2505  0.2786  0.1047
12667TIP3   OH259491   1.745   0.006  16.258  0.1210  0.3682 -0.3527
12667TIP3    H159492   1.674   0.066  16.233 -1.7823 -1.1974  0.9457
12667TIP3    H259493   1.737  -0.067  16.197  1.4126  0.6852 -0.9337
12668TIP3   OH259494   0.144   6.105   2.716 -0.1815  0.0409 -0.0632
12668TIP3    H159495   0.224   6.081   2.669 -0.9656  0.2138 -1.5824
12668TIP3    H259496   0.107   6.177   2.665 -1.2868 -0.0231  0.6095
12669TIP3   OH259497   6.384   3.689   3.666 -0.3454  0.0816  0.4666
12669TIP3    H159498   6.332   3.725   3.594  0.1948 -0.3701 -0.1575
12669TIP3    H259499   6.446   3.630   3.624  0.1001 -0.0505  1.2875
12670TIP3   OH259500   0.708   6.098  13.135 -0.1167 -0.6514 -0.5793
12670TIP3    H159501   0.742   6.134  13.217  1.1722  1.3134 -1.9004
12670TIP3    H259502   0.621   6.137  13.126  0.2019  0.0696 -0.6706
12671TIP3   OH259503   1.721   2.040   1.427  0.3951  0.5411 -0.1648
12671TIP3    H159504   1.669   2.036   1.507  2.0725 -1.8060  0.9502
12671TIP3    H259505   1.665   2.001   1.360 -0.7679  1.8837 -0.0108
12672TIP3   OH259506   6.414   1.232  12.755 -0.4536  0.6144  0.3368
12672TIP3    H159507   6.353   1.164  12.726 -0.5469  0.6467  0.4547
12672TIP3    H259508   6.420   1.293  12.682 -1.2517  1.0844  0.6533
12673TIP3   OH259509   2.250   1.480   3.828  0.1503  0.2159 -0.7497
12673TIP3    H159510   2.268   1.471   3.735  1.9474 -0.4531 -0.3637
12673TIP3    H259511   2.253   1.391   3.863 -1.0887  0.3882 -0.1230
12674TIP3   OH259512   3.287   2.047   0.324 -0.3723 -0.1373  1.0004
12674TIP3    H159513   3.269   2.089   0.408  0.6914 -0.4566  1.4059
12674TIP3    H259514   3.372   2.083   0.298  0.4482 -1.8274  1.2353
12675TIP3   OH259515   2.111   3.097   3.507 -0.0356 -0.0770 -0.4453
12675TIP3    H159516   2.049   3.030   3.480  0.9287 -0.9465 -0.5307
12675TIP3    H259517   2.172   3.052   3.565  1.0002  0.5853 -0.9993
12676TIP3   OH259518   0.943   2.043   0.648  0.1724 -0.2965 -0.0212
12676TIP3    H159519   1.007   1.972   0.639 -0.1943 -0.6365  0.0406
12676TIP3    H259520   0.858   2.001   0.634 -0.0492  0.1268  0.0357
12677TIP3   OH259521   2.919   6.142  13.201 -0.3566  0.2942  0.3620
12677TIP3    H159522   2.949   6.229  13.227  0.6039 -0.6487  2.7226
12677TIP3    H259523   2.992   6.105  13.150  0.7077 -0.2881  2.1927
12678TIP3   OH259524   0.241   5.519  14.279  0.5580 -0.3939 -0.2164
12678TIP3    H159525   0.260   5.508  14.372 -0.5597  1.8476  0.3490
12678TIP3    H259526   0.318   5.564  14.245  0.1282  0.6278  0.1129
12679TIP3   OH259527   3.920   3.128  16.646 -0.0381 -0.2417 -0.2351
12679TIP3    H159528   3.870   3.200  16.684 -1.1804 -1.5255  0.7625
12679TIP3    H259529   3.981   3.171  16.586  1.4249  1.8286  2.5118
12680TIP3   OH259530   1.748   3.929  12.477  0.0553  0.1852  0.1845
12680TIP3    H159531   1.761   3.940  12.571 -1.2008  1.6178  0.2397
12680TIP3    H259532   1.655   3.908  12.468  0.7276 -2.9229 -0.5921
12681TIP3   OH259533   4.282   0.707   5.168  0.7177  0.9376  0.2215
12681TIP3    H159534   4.203   0.662   5.198  1.6168 -0.2282  0.9341
12681TIP3    H259535   4.261   0.736   5.080 -0.7900  1.3961  0.7042
12682TIP3   OH259536   6.690   5.564  16.714 -0.2132 -0.2816 -0.4530
12682TIP3    H159537   6.655   5.494  16.769  1.8115 -0.8288  0.1955
12682TIP3    H259538   6.708   5.635  16.775  1.8010 -0.7968 -0.3850
12683TIP3   OH259539   6.759   0.022   3.492 -0.4402  0.1818 -0.0553
12683TIP3    H159540   6.790   0.069   3.415 -2.5033 -2.4474 -2.7429
12683TIP3    H259541   6.835  -0.025   3.524  0.5769  1.7153 -0.1203
12684TIP3   OH259542   6.548   0.083  16.865 -0.2822 -0.4048  0.0829
12684TIP3    H159543   6.621   0.068  16.925 -2.2039 -2.2518  2.1502
12684TIP3    H259544   6.482   0.128  16.918 -0.4504  2.0309 -1.9604
12685TIP3   OH259545   3.270   0.966   5.278 -0.3647 -0.6859 -0.2624
12685TIP3    H159546   3.328   0.997   5.348 -0.0991 -0.6043 -0.5188
12685TIP3    H259547   3.280   1.030   5.208 -0.2140 -1.0689 -0.5912
12686TIP3   OH259548   1.839   0.577  11.157  0.3609  0.1535  0.2178
12686TIP3    H159549   1.849   0.485  11.183 -1.3442 -0.4457 -1.0418
12686TIP3    H259550   1.802   0.620  11.234  2.0527  0.0533  1.1524
12687TIP3   OH259551   6.097   2.117  16.231 -0.0947  0.1366  0.1204
12687TIP3    H159552   6.034   2.046  16.217  0.1920  0.0992 -1.0332
12687TIP3    H259553   6.147   2.089  16.308 -0.3879 -0.6234  0.0451
12688TIP3   OH259554   0.775   3.110  12.674 -0.0527 -0.7180  0.3059
12688TIP3    H159555   0.762   3.191  12.625  2.1933  0.9101  2.1388
12688TIP3    H259556   0.709   3.113  12.743 -0.1227 -0.5756  0.2341
12689TIP3   OH259557   1.805   0.480  10.896  0.4603  0.5987  0.1011
12689TIP3    H159558   1.741   0.546  10.868  0.7174  0.4575 -0.8544
12689TIP3    H259559   1.823   0.502  10.988 -1.1038  0.5122  0.4738
12690TIP3   OH259560   0.110   5.833  13.099 -0.4478 -0.2089  0.1136
12690TIP3    H159561   0.117   5.911  13.154  0.7409 -0.0602 -0.2168
12690TIP3    H259562   0.065   5.863  13.019  0.3132  0.2298 -0.1588
12691TIP3   OH259563   4.684   3.047   3.536  0.0061 -0.1751 -0.6254
12691TIP3    H159564   4.700   2.961   3.577 -2.2166 -1.0666 -1.4851
12691TIP3    H259565   4.725   3.040   3.450 -1.5806 -1.0440 -1.3496
12692TIP3   OH259566   1.180   0.644   2.787  0.7304  0.5400  0.3444
12692TIP3    H159567   1.199   0.724   2.738  0.6598  1.4163  1.6622
12692TIP3    H259568   1.265   0.609   2.811  0.8008 -0.5609 -1.3625
12693TIP3   OH259569   5.831   2.415   4.152 -0.4343 -0.1775  0.1515
12693TIP3    H159570   5.889   2.444   4.082 -2.6711  0.9563 -1.3655
12693TIP3    H259571   5.744   2.446   4.126 -2.0351 -3.0415  1.5164
12694TIP3   OH259572   1.328   1.541  15.836 -0.2706  0.2332 -0.2186
12694TIP3    H159573   1.264   1.502  15.777 -2.5318  1.7709  1.0468
12694TIP3    H259574   1.286   1.541  15.921  0.4591  3.2736  0.2845
12695TIP3   OH259575   6.438   0.099  12.332  0.2652  0.0958  0.4816
12695TIP3    H159576   6.480   0.017  12.361  0.6395  0.3848  0.7659
12695TIP3    H259577   6.457   0.103  12.239 -1.2886 -1.0458  0.0743
12696TIP3   OH259578   2.774   3.550  14.692 -0.5679 -0.2480  0.7213
12696TIP3    H159579   2.848   3.509  14.737 -0.5476  0.3087  1.2087
12696TIP3    H259580   2.772   3.639  14.726 -1.9501 -0.4854  1.3213
12697TIP3   OH259581   0.227   6.030  17.047 -0.1133  0.1121 -0.8088
12697TIP3    H159582   0.239   5.984  16.964  0.0083 -1.0586 -0.1565
12697TIP3    H259583   0.159   5.980  17.092  1.1384 -0.3991  0.5921
12698TIP3   OH259584   1.935   4.708   2.670 -0.4336 -0.1621  0.4378
12698TIP3    H159585   1.950   4.745   2.584 -1.4475 -2.0873 -0.6464
12698TIP3    H259586   2.020   4.710   2.713 -0.0883  1.5990 -0.2528
12699TIP3   OH259587   3.106   1.973   4.372  0.6894  0.0188  0.1564
12699TIP3    H159588   3.193   2.006   4.349  0.6619 -0.1154 -0.1476
12699TIP3    H259589   3.118   1.880   4.387  0.8118  0.1940  1.2517
12700TIP3   OH259590   5.490   2.357  11.632  0.5868  0.1132  0.7820
12700TIP3    H159591   5.490   2.452  11.644  1.0588  0.2299 -0.0399
12700TIP3    H259592   5.448   2.344  11.547 -2.0235 -0.6178  2.0914
12701TIP3   OH259593   0.257   0.908   4.473 -0.2360  0.4466  0.6732
12701TIP3    H159594   0.257   0.987   4.419  0.8269 -0.4895 -0.7968
12701TIP3    H259595   0.342   0.908   4.516  0.8884 -1.1211 -1.3593
12702TIP3   OH259596   5.728   3.817  14.972 -0.1978  0.3826 -0.6092
12702TIP3    H159597   5.681   3.737  14.995 -0.7869  0.6369 -0.9226
12702TIP3    H259598   5.744   3.808  14.878 -1.2102  1.1142 -0.8661
12703TIP3   OH259599   1.865   6.564  12.695 -0.2447  0.1034 -0.0617
12703TIP3    H159600   1.835   6.524  12.614  0.5624 -0.3014 -0.1710
12703TIP3    H259601   1.960   6.570  12.685 -0.0256 -0.7842  1.2049
12704TIP3   OH259602   6.544   1.423   2.628 -0.0278  0.1248 -0.0610
12704TIP3    H159603   6.495   1.445   2.707 -1.7622  0.4009 -1.1645
12704TIP3    H259604   6.590   1.504   2.605  0.5815  0.0124  0.6853
12705TIP3   OH259605   4.801   6.030  14.688 -0.0644 -0.2670  0.1109
12705TIP3    H159606   4.826   6.093  14.620  0.4576 -1.5693 -0.9451
12705TIP3    H259607   4.739   6.078  14.743  0.8923  1.4095 -0.1960
12706TIP3   OH259608   3.156   2.412   0.299 -0.0543 -0.4566 -0.3201
12706TIP3    H159609   3.092   2.480   0.318  1.3355  0.7429  0.2705
12706TIP3    H259610   3.209   2.406   0.378  1.2994 -0.5557 -1.1993
12707TIP3   OH259611   3.895   1.403   1.923 -0.2795 -0.2261 -0.0677
12707TIP3    H159612   3.982   1.364   1.917  0.1924  0.8234 -0.2332
12707TIP3    H259613   3.907   1.493   1.894 -1.6687 -0.4109 -1.3194
12708TIP3   OH259614   1.461   2.861  13.440 -0.1451  0.3473  0.0321
12708TIP3    H159615   1.503   2.855  13.354 -0.7265  3.4277 -0.5719
12708TIP3    H259616   1.382   2.808  13.431  0.1287  0.1128 -1.1243
12709TIP3   OH259617   2.823   5.881  11.206 -0.2091  0.2337  0.4749
12709TIP3    H159618   2.847   5.971  11.180  0.5231  0.5814  2.1775
12709TIP3    H259619   2.889   5.858  11.272 -0.4918 -1.5084  0.1774
12710TIP3   OH259620   0.834   2.818   2.653 -0.0058  0.5530 -0.3959
12710TIP3    H159621   0.796   2.780   2.733  0.1333  1.6992  0.2397
12710TIP3    H259622   0.922   2.781   2.648  0.0214  0.5445  0.0504
12711TIP3   OH259623   3.987   5.501  15.689 -0.1129  0.2521 -0.0477
12711TIP3    H159624   4.003   5.437  15.620  0.0546  0.4623 -0.2081
12711TIP3    H259625   3.998   5.586  15.645  1.5415  0.4047  0.5711
12712TIP3   OH259626   0.961   1.755  12.473 -0.4519  0.0073 -0.4217
12712TIP3    H159627   0.938   1.763  12.380  1.2578  1.5916 -0.7766
12712TIP3    H259628   0.948   1.662  12.493 -4.2038  0.2095 -1.2357
12713TIP3   OH259629   3.466   1.907  15.308 -0.4963 -0.5946 -0.3926
12713TIP3    H159630   3.461   1.813  15.290 -1.0088 -0.2943 -1.9849
12713TIP3    H259631   3.529   1.915  15.379 -0.1866 -2.1171 -0.4730
12714TIP3   OH259632   5.030   0.431  14.206 -0.3207  0.2947 -0.0541
12714TIP3    H159633   5.109   0.469  14.244  0.4845  0.1555 -1.5290
12714TIP3    H259634   5.003   0.365  14.270  0.6359  0.4818  0.5713
12715TIP3   OH259635   0.670   0.271   3.500 -0.7098  0.4480 -0.2080
12715TIP3    H159636   0.652   0.225   3.418 -0.5233  2.6609 -1.5386
12715TIP3    H259637   0.589   0.261   3.551 -0.5105 -1.7158 -0.2103
12716TIP3   OH259638   2.914   5.261  14.474 -0.1334 -0.0066  0.3021
12716TIP3    H159639   2.890   5.320  14.545  0.4849 -0.3962  0.8388
12716TIP3    H259640   2.873   5.300  14.396  0.4151  1.2288  0.6146
12717TIP3   OH259641   0.967   1.999  16.308 -0.4202  0.1056  0.9940
12717TIP3    H159642   1.018   1.981  16.386  1.5817 -1.2717 -0.5241
12717TIP3    H259643   0.985   2.091  16.288  0.6400 -0.0652  1.0943
12718TIP3   OH259644   3.041   2.097   3.798  0.1887  0.1184 -0.4693
12718TIP3    H159645   3.022   2.119   3.706  0.2923  1.4822 -0.1911
12718TIP3    H259646   3.051   2.002   3.798 -2.8132 -0.3123 -1.3354
12719TIP3   OH259647   6.644   1.162   2.407 -0.0344 -0.2634  0.1346
12719TIP3    H159648   6.646   1.098   2.478  2.7492 -1.3129 -0.7670
12719TIP3    H259649   6.585   1.125   2.342  0.9517 -1.5738 -0.0416
12720TIP3   OH259650   3.629   3.859  16.004  0.1539  0.0764  0.0715
12720TIP3    H159651   3.718   3.848  16.038 -0.2414 -0.4744  0.9564
12720TIP3    H259652   3.628   3.949  15.970  0.7381  0.4486  0.9976
12721TIP3   OH259653   3.106   5.966  12.622 -0.4141  0.0619  0.5557
12721TIP3    H159654   3.083   5.922  12.705 -1.1791  0.5534  0.6105
12721TIP3    H259655   3.074   6.055  12.633  0.2733  0.3748  0.0632
12722TIP3   OH259656   2.017   6.375  10.954 -0.1083  0.5037 -0.2235
12722TIP3    H159657   2.059   6.291  10.967 -0.6494  0.0843 -1.1173
12722TIP3    H259658   2.016   6.415  11.041 -1.6281 -1.2473  0.6278
12723TIP3   OH259659   5.922   5.674   2.037 -0.6713 -0.1424 -0.2539
12723TIP3    H159660   5.879   5.628   1.964 -0.8925 -1.4778  0.6713
12723TIP3    H259661   6.015   5.674   2.015 -0.9104  1.0162 -1.3442
12724TIP3   OH259662   4.265   1.653  14.708 -0.8221  0.0030 -0.7014
12724TIP3    H159663   4.183   1.627  14.666 -2.3898  1.4250  1.2591
12724TIP3    H259664   4.257   1.748  14.719  1.8271  0.4496 -1.8449
12725TIP3   OH259665   5.764   0.567  16.005  0.1964  0.5692  0.5515
12725TIP3    H159666   5.725   0.535  15.923  1.2509  0.8787 -0.0975
12725TIP3    H259667   5.804   0.651  15.981  0.1340  0.8845  1.5042
12726TIP3   OH259668   1.896   5.333   5.373 -0.7879 -0.5436 -0.8696
12726TIP3    H159669   1.845   5.414   5.368 -1.1808 -0.5506  1.5838
12726TIP3    H259670   1.985   5.359   5.349 -0.7593  0.8044  0.5555
12727TIP3   OH259671   1.703   1.127  13.677 -0.2328 -0.4992 -0.3142
12727TIP3    H159672   1.621   1.085  13.703 -0.0844 -0.0444  0.9273
12727TIP3    H259673   1.683   1.168  13.593 -1.2085 -0.5817 -0.1316
12728TIP3   OH259674   2.500   1.869   2.684 -0.0324 -0.9034 -0.2638
12728TIP3    H159675   2.475   1.953   2.723 -1.1990 -1.2909 -0.1382
12728TIP3    H259676   2.591   1.857   2.711  0.4215  0.6905 -0.9622
12729TIP3   OH259677   2.393   2.600   5.925 -0.0818  0.4280  0.2833
12729TIP3    H159678   2.466   2.543   5.902 -0.2167 -0.3772  1.7669
12729TIP3    H259679   2.316   2.553   5.895 -0.1192  0.3966  0.4306
12730TIP3   OH259680   0.188   1.085   2.914 -0.0973 -0.7951 -0.4629
12730TIP3    H159681   0.283   1.088   2.912 -0.1263  0.3580 -2.3385
12730TIP3    H259682   0.166   1.096   3.007  1.5921  1.6999 -0.2486
12731TIP3   OH259683   6.129   5.810  11.490  0.3763 -0.0382 -0.3169
12731TIP3    H159684   6.154   5.881  11.432 -1.7808  0.3443 -0.8288
12731TIP3    H259685   6.136   5.731  11.436  0.7808  0.0171 -0.3495
12732TIP3   OH259686   3.720   6.018  15.949  0.1717  0.1494 -0.3220
12732TIP3    H159687   3.728   5.926  15.974 -1.0813 -0.6768 -2.6471
12732TIP3    H259688   3.739   6.067  16.029  1.4215 -2.0930  0.8469
12733TIP3   OH259689   3.104   1.812   5.295 -0.5493  0.4323 -0.5244
12733TIP3    H159690   3.050   1.839   5.221 -2.1154  2.6715  1.2704
12733TIP3    H259691   3.186   1.861   5.284 -0.4684  0.1621 -1.1603
12734TIP3   OH259692   1.535   5.973   1.710  0.2507 -0.4393 -0.1520
12734TIP3    H159693   1.456   6.027   1.704 -0.4236 -1.5734 -2.6939
12734TIP3    H259694   1.601   6.023   1.662  0.5427 -0.4094  0.2754
12735TIP3   OH259695   1.060   3.322  14.873 -0.2853 -0.0274 -0.6545
12735TIP3    H159696   1.052   3.257  14.943  0.8264  0.1228 -0.3721
12735TIP3    H259697   0.974   3.365  14.871 -0.8676 -1.1190 -0.4843
12736TIP3   OH259698   6.017   5.631   5.384  0.0347  0.7212 -0.3515
12736TIP3    H159699   5.934   5.660   5.423  0.8095  2.0755  0.3829
12736TIP3    H259700   6.076   5.620   5.458  0.9577  1.3291 -0.9667
12737TIP3   OH259701   5.257   1.298   5.664 -0.4150 -0.3394  0.3326
12737TIP3    H159702   5.332   1.345   5.626  0.1698 -0.7477  0.9394
12737TIP3    H259703   5.205   1.271   5.589 -0.3844  0.6545 -0.0643
12738TIP3   OH259704   6.240   1.136  12.541 -0.7140 -0.0139 -0.4875
12738TIP3    H159705   6.173   1.199  12.567 -0.5951 -0.7290  1.7809
12738TIP3    H259706   6.196   1.078  12.478 -1.6249  0.7008 -0.5258
12739TIP3   OH259707   5.399   1.835   2.573  0.1320 -0.1645  0.0265
12739TIP3    H159708   5.437   1.885   2.501  2.0386 -0.2426  0.9301
12739TIP3    H259709   5.436   1.875   2.652 -1.9211 -0.0610  1.0074
12740TIP3   OH259710   0.813   4.200  15.876 -0.6787 -0.3279 -0.0832
12740TIP3    H159711   0.875   4.128  15.879 -1.6215 -1.1413  0.2526
12740TIP3    H259712   0.768   4.197  15.960  0.3389  1.6457  0.5941
12741TIP3   OH259713   0.237   0.046   3.867  0.5715 -0.1060  0.2684
12741TIP3    H159714   0.273   0.100   3.938  0.3872  0.7539 -0.2758
12741TIP3    H259715   0.189   0.108   3.812 -0.3149 -0.9629  0.0537
12742TIP3   OH259716   4.310   5.819   5.365 -0.2998  0.2870  0.1773
12742TIP3    H159717   4.385   5.879   5.371 -0.2820  0.1613  1.6094
12742TIP3    H259718   4.343   5.744   5.315  0.2476  0.6317  0.0142
12743TIP3   OH259719   1.584   3.948  13.731 -0.1756  0.5809  0.0693
12743TIP3    H159720   1.680   3.949  13.730 -0.0879  4.0572 -0.1160
12743TIP3    H259721   1.561   4.006  13.804 -2.1555 -0.0186 -0.0369
12744TIP3   OH259722   4.090   4.739  16.408 -0.1776  0.2015 -0.4836
12744TIP3    H159723   4.151   4.797  16.453 -1.4185  0.5271  0.8522
12744TIP3    H259724   4.144   4.667  16.376  0.9202  0.5453  0.5400
12745TIP3   OH259725   3.412   4.298   0.207 -0.3396 -0.2269 -1.0034
12745TIP3    H159726   3.442   4.306   0.116 -0.4541 -1.8813 -1.2136
12745TIP3    H259727   3.398   4.205   0.219 -1.2848  0.0777  0.4270
12746TIP3   OH259728   4.210   1.585   0.221  0.1453  0.1117 -0.7632
12746TIP3    H159729   4.141   1.589   0.154 -0.6705 -0.4737  0.0126
12746TIP3    H259730   4.267   1.659   0.201 -0.4493  0.3395 -1.7086
12747TIP3   OH259731   0.713   0.492   4.715 -0.3330  0.1774 -0.0078
12747TIP3    H159732   0.726   0.584   4.741 -1.5293  0.3698 -0.0346
12747TIP3    H259733   0.634   0.465   4.761 -1.1560 -0.1998 -1.5543
12748TIP3   OH259734   6.139   4.336   0.047 -0.1633 -0.0999 -0.1928
12748TIP3    H159735   6.132   4.416  -0.005  1.9037 -0.0267 -0.4536
12748TIP3    H259736   6.233   4.329   0.067 -0.0450 -3.1216 -1.2552
12749TIP3   OH259737   1.901   3.295  16.358 -0.2164  0.4016  0.0429
12749TIP3    H159738   1.995   3.278  16.365 -0.3569 -0.9756 -1.0121
12749TIP3    H259739   1.861   3.209  16.359 -1.4611  0.9601  0.1838
12750TIP3   OH259740   4.852   4.947  12.209  0.3525 -0.0996  0.0037
12750TIP3    H159741   4.925   4.899  12.171  0.4721  0.6544 -0.7656
12750TIP3    H259742   4.794   4.879  12.244  1.5360 -0.6922  0.8822
12751TIP3   OH259743   4.540   5.245  13.378 -0.2087 -0.7286 -0.3288
12751TIP3    H159744   4.536   5.308  13.449  1.6471 -0.4224 -0.4452
12751TIP3    H259745   4.629   5.254  13.343 -0.2732 -2.5912 -1.0871
12752TIP3   OH259746   3.648   5.215  17.056  0.2625  0.7785  0.3214
12752TIP3    H159747   3.619   5.145  17.114 -0.8629 -0.3329 -1.5010
12752TIP3    H259748   3.696   5.275  17.114 -0.6774 -0.3155  2.3555
12753TIP3   OH259749   1.159   4.559   1.454 -0.6581  0.2729  0.6035
12753TIP3    H159750   1.153   4.640   1.403  0.4608  0.9102  1.4245
12753TIP3    H259751   1.085   4.564   1.514  0.0342  1.2787  1.4173
12754TIP3   OH259752   4.042   3.887  14.715 -0.0977  0.5423 -0.2571
12754TIP3    H159753   3.999   3.874  14.630 -0.1730  3.3855 -0.7472
12754TIP3    H259754   3.996   3.828  14.774 -2.5126  1.1178 -1.4469
12755TIP3   OH259755   6.061   0.499   1.228  0.2352  0.7190 -0.3583
12755TIP3    H159756   6.024   0.498   1.316  1.1554  1.9251  0.0726
12755TIP3    H259757   6.056   0.409   1.198 -0.0233  0.2820  0.9591
12756TIP3   OH259758   6.037   4.789   4.180  0.2069  0.1956 -0.7222
12756TIP3    H159759   6.052   4.809   4.272 -1.8474  1.4352 -0.5751
12756TIP3    H259760   5.966   4.725   4.180 -1.1345  1.6010 -1.4120
12757TIP3   OH259761   2.898   3.831  10.400  0.4470 -0.1499  0.4378
12757TIP3    H159762   2.881   3.831  10.494  0.2021  0.5785  0.4035
12757TIP3    H259763   2.992   3.852  10.393  0.4547 -0.1556  0.5190
12758TIP3   OH259764   6.008   3.388   0.922  0.3324  0.0790  0.0927
12758TIP3    H159765   5.913   3.385   0.923  0.3292 -0.1875  1.7159
12758TIP3    H259766   6.034   3.350   1.006  1.8095  1.6002  0.3809
12759TIP3   OH259767   0.139   5.548   0.578 -0.1605  0.2580 -0.2061
12759TIP3    H159768   0.096   5.619   0.530 -0.4530 -0.1969 -0.6237
12759TIP3    H259769   0.116   5.563   0.670 -1.9420 -0.4549 -0.5050
12760TIP3   OH259770   4.722   3.304   4.928  0.2999  0.0666 -0.5343
12760TIP3    H159771   4.767   3.269   4.851 -0.9843 -0.6603 -0.9784
12760TIP3    H259772   4.782   3.287   5.001  0.8078 -0.7359 -1.1274
12761TIP3   OH259773   0.512   1.331   3.205  0.1657  0.7238 -0.1229
12761TIP3    H159774   0.555   1.394   3.262  0.1991  2.1217 -1.6308
12761TIP3    H259775   0.429   1.372   3.182 -1.1491 -1.0484  1.1101
12762TIP3   OH259776   1.442   1.045   3.641 -0.3467  0.8236  0.5990
12762TIP3    H159777   1.462   1.073   3.551  1.4833 -0.4318  0.5605
12762TIP3    H259778   1.374   0.979   3.630 -0.3564  0.9017  0.1564
12763TIP3   OH259779   0.569   6.460   5.260  0.1224 -0.5702 -0.1173
12763TIP3    H159780   0.604   6.507   5.183 -1.7246  0.5300 -0.3432
12763TIP3    H259781   0.646   6.442   5.313  0.9581  3.3896  0.3265
12764TIP3   OH259782   6.236   6.391  15.010  0.1353 -0.3373 -0.0204
12764TIP3    H159783   6.306   6.401  14.946  1.2877 -0.3145  1.1890
12764TIP3    H259784   6.187   6.474  15.006 -0.3675 -0.6874 -1.4698
12765TIP3   OH259785   6.179   1.374  15.432 -0.2957 -0.1556 -0.0820
12765TIP3    H159786   6.116   1.435  15.397 -0.6191 -0.1206  0.5423
12765TIP3    H259787   6.251   1.429  15.464  0.9899 -0.2752 -2.5126
12766TIP3   OH259788   3.173   6.074   0.434  0.1251  0.0784 -0.5372
12766TIP3    H159789   3.250   6.069   0.377 -0.1935 -0.2909 -0.9471
12766TIP3    H259790   3.188   6.152   0.488  0.3722  0.5259 -1.2316
12767TIP3   OH259791   2.727   3.569   2.133  0.0712  0.5975 -0.5827
12767TIP3    H159792   2.686   3.568   2.220  2.3914  0.8128  0.6054
12767TIP3    H259793   2.717   3.480   2.100 -0.0041  0.2512  0.3473
12768TIP3   OH259794   0.869   3.732   1.909  0.3572 -0.6473 -0.4641
12768TIP3    H159795   0.879   3.728   2.004  0.8406  0.3016 -0.4682
12768TIP3    H259796   0.862   3.825   1.890  1.0426 -0.7881 -1.4417
12769TIP3   OH259797   1.934   4.749  17.150  0.2728 -0.5817  0.2621
12769TIP3    H159798   1.988   4.759  17.228 -0.3810 -0.2249  0.6840
12769TIP3    H259799   1.920   4.839  17.119 -0.4291 -0.6329  0.4138
12770TIP3   OH259800   1.029   5.198   1.062 -0.0691 -0.3432 -0.2590
12770TIP3    H159801   1.009   5.116   1.017  0.4625 -1.3102  1.2041
12770TIP3    H259802   1.125   5.202   1.063 -0.0814  0.9476 -1.4094
12771TIP3   OH259803   3.823   4.532  15.541  0.8139 -0.6419  0.0387
12771TIP3    H159804   3.867   4.605  15.585  0.2321 -0.5079  0.4098
12771TIP3    H259805   3.866   4.454  15.575  1.6347 -0.4779 -0.5731
12772TIP3   OH259806   4.087   0.604  16.279 -0.2669  0.6364 -0.4947
12772TIP3    H159807   4.013   0.548  16.254 -0.7797  0.7939  0.6022
12772TIP3    H259808   4.084   0.677  16.217  0.0943 -0.2703 -1.6099
12773TIP3   OH259809   4.681   4.143  15.197 -0.8647 -0.5571 -0.0604
12773TIP3    H159810   4.630   4.082  15.143  1.2189 -1.9571 -0.5385
12773TIP3    H259811   4.661   4.116  15.287 -1.4497 -0.6567 -0.2103
12774TIP3   OH259812   2.722   3.461  15.060  0.5117  0.0857 -0.2654
12774TIP3    H159813   2.801   3.514  15.070  0.7447 -0.0192 -1.4146
12774TIP3    H259814   2.748   3.388  15.005 -0.7455  0.9055 -2.0607
12775TIP3   OH259815   5.882   3.229  13.466 -0.1154 -0.2184 -0.0476
12775TIP3    H159816   5.831   3.172  13.408 -2.1261  1.7732 -0.3831
12775TIP3    H259817   5.835   3.225  13.550 -1.5295  2.3447 -0.6080
12776TIP3   OH259818   4.403   3.351  15.599  0.2681  0.0016 -0.2937
12776TIP3    H159819   4.357   3.427  15.563 -0.3456 -0.2986 -0.1638
12776TIP3    H259820   4.403   3.287  15.527 -0.5008 -0.4062  0.0582
12777TIP3   OH259821   5.895   3.214   1.178 -0.2031 -0.2519 -0.0916
12777TIP3    H159822   5.843   3.158   1.122 -0.6725  0.0907  0.0002
12777TIP3    H259823   5.832   3.274   1.218  0.4900  1.7130 -1.7504
12778TIP3   OH259824   4.422   3.203   1.968  0.0651  0.1210 -0.2313
12778TIP3    H159825   4.462   3.123   2.003 -0.9489  0.1506  1.0498
12778TIP3    H259826   4.333   3.202   2.002  0.1485  2.0068  0.1288
12779TIP3   OH259827   3.058   5.153  12.436 -0.6627 -0.5664  0.4139
12779TIP3    H159828   3.073   5.246  12.421  1.2715 -0.6835  1.1845
12779TIP3    H259829   3.022   5.120  12.354 -2.1774  0.9916  0.4102
12780TIP3   OH259830   2.256   5.863  17.260 -0.5458  0.6805  0.0913
12780TIP3    H159831   2.259   5.855  17.165  0.3744  2.1101 -0.0395
12780TIP3    H259832   2.163   5.860  17.283 -0.7722  0.3678 -0.8496
12781TIP3   OH259833   3.651   6.469   0.606 -0.3000 -0.2074 -0.0353
12781TIP3    H159834   3.640   6.377   0.580 -1.3851 -0.4452  1.1777
12781TIP3    H259835   3.735   6.471   0.652 -0.6527 -0.7650  0.6405
12782TIP3   OH259836   3.510   2.699  17.519  0.2793 -0.4795  0.7775
12782TIP3    H159837   3.489   2.791  17.539 -0.2396 -0.5827  0.7114
12782TIP3    H259838   3.483   2.651  17.597 -1.4901 -0.8460 -0.0125
12783TIP3   OH259839   1.998   6.529  12.266  0.6784 -0.2370 -0.3671
12783TIP3    H159840   2.035   6.444  12.242  1.4560 -0.0561  0.1692
12783TIP3    H259841   1.916   6.507  12.311  1.3499 -0.7541  0.6314
12784TIP3   OH259842   5.111   5.523  12.308 -0.5767  0.2277  0.4980
12784TIP3    H159843   5.088   5.457  12.374 -1.9689 -0.7583 -0.9102
12784TIP3    H259844   5.029   5.540  12.262  0.6085 -0.1459 -1.8884
12785TIP3   OH259845   5.417   2.461  13.256 -0.7538  0.1814  0.0051
12785TIP3    H159846   5.359   2.534  13.280 -0.2417  0.9444 -1.0107
12785TIP3    H259847   5.502   2.485  13.293 -0.5549  0.1613 -0.4310
12786TIP3   OH259848   3.678   1.923  14.078  0.5537 -1.0678  0.0366
12786TIP3    H159849   3.609   1.957  14.022  0.5530 -0.1842  0.5514
12786TIP3    H259850   3.746   1.893  14.017  0.7541  0.2960 -0.4486
12787TIP3   OH259851   2.454   4.218   0.915 -0.6257 -0.5919  0.2273
12787TIP3    H159852   2.380   4.171   0.875  1.0074 -3.0479 -0.1852
12787TIP3    H259853   2.524   4.152   0.918  1.4904  1.5598  0.7626
12788TIP3   OH259854   5.086   1.412   4.830 -0.0906  0.0076 -0.1573
12788TIP3    H159855   5.013   1.474   4.826 -1.2019 -1.3003 -2.6928
12788TIP3    H259856   5.045   1.329   4.853  1.1921 -0.1242  1.9055
12789TIP3   OH259857   6.150   4.829  16.254 -0.6025 -0.4488 -0.1561
12789TIP3    H159858   6.082   4.776  16.210 -3.2588  1.3229  1.5129
12789TIP3    H259859   6.146   4.913  16.209 -2.1465  0.8226  2.1730
12790TIP3   OH259860   4.473   5.730   3.210  0.3227  0.3755  0.4175
12790TIP3    H159861   4.417   5.652   3.205  2.4129 -1.2501  1.0138
12790TIP3    H259862   4.476   5.762   3.120 -0.5432 -0.2532  0.1463
12791TIP3   OH259863   1.563   6.056   5.056  0.0306  0.7874  0.0761
12791TIP3    H159864   1.638   6.116   5.053 -0.7202  1.8453  1.4375
12791TIP3    H259865   1.532   6.052   4.966  1.2631  0.9097 -0.3770
12792TIP3   OH259866   1.503   4.436  13.832  0.5965 -0.2351 -0.3107
12792TIP3    H159867   1.559   4.512  13.844  0.4580 -0.2684  0.5904
12792TIP3    H259868   1.514   4.413  13.740  2.2935 -0.4240 -0.1031
12793TIP3   OH259869   3.289   3.911   1.560 -0.0350 -0.1234 -0.2125
12793TIP3    H159870   3.357   3.913   1.493 -1.1600  1.1190 -1.3758
12793TIP3    H259871   3.335   3.931   1.641  1.4312 -2.1163 -0.5016
12794TIP3   OH259872   2.964   4.229  16.526 -0.2543 -0.6061 -0.3118
12794TIP3    H159873   2.901   4.158  16.537 -0.9882 -0.0717 -0.9789
12794TIP3    H259874   3.038   4.203  16.581 -1.0748 -1.2045  0.5571
12795TIP3   OH259875   6.429   1.949   5.403  0.3015 -0.3037  0.4030
12795TIP3    H159876   6.523   1.933   5.394  0.2907 -0.0807 -0.1975
12795TIP3    H259877   6.399   1.962   5.313 -0.6335 -2.0948  0.4177
12796TIP3   OH259878   5.706   4.194  11.518  0.1940  0.2289  0.4465
12796TIP3    H159879   5.690   4.264  11.456  0.6895  1.7268  1.9283
12796TIP3    H259880   5.653   4.217  11.595  0.7947 -0.7043  1.1720
12797TIP3   OH259881   0.938   4.217   2.817 -0.7041  0.1753 -0.1316
12797TIP3    H159882   0.934   4.190   2.909 -0.4070 -1.8467 -0.6833
12797TIP3    H259883   1.029   4.245   2.804 -1.1360  2.0689  0.5699
12798TIP3   OH259884   3.664   3.687   1.728  0.5708 -0.0007 -0.3760
12798TIP3    H159885   3.681   3.747   1.801  2.1001  0.1335 -0.8018
12798TIP3    H259886   3.750   3.652   1.705  0.4110  1.1113 -3.0679
12799TIP3   OH259887   3.308   6.655  16.720  0.0299  0.1337  0.1675
12799TIP3    H159888   3.261   6.724  16.674  0.4613 -0.0764 -0.6041
12799TIP3    H259889   3.317   6.584  16.656  2.2174  0.5182 -0.0543
12800TIP3   OH259890   6.619   0.185  13.538  0.0719  0.1434 -0.1133
12800TIP3    H159891   6.554   0.129  13.497 -1.5275  1.0226  1.0870
12800TIP3    H259892   6.568   0.257  13.576  1.7889  1.0873  0.5259
12801TIP3   OH259893   4.743   1.852  12.773 -0.2333  0.9116  0.4552
12801TIP3    H159894   4.704   1.868  12.687 -1.5950 -0.6256  0.7271
12801TIP3    H259895   4.821   1.799  12.754 -1.0631 -0.2660  0.1709
12802TIP3   OH259896   4.557   2.528  16.696  0.1617  0.2460 -0.2836
12802TIP3    H159897   4.478   2.539  16.749 -0.1330  3.2750 -1.1472
12802TIP3    H259898   4.608   2.461  16.741 -2.4518 -1.1336  0.8008
12803TIP3   OH259899   4.372   4.743  15.141 -0.2039  0.1750 -1.1895
12803TIP3    H159900   4.346   4.654  15.165  0.3153  0.0894 -0.9237
12803TIP3    H259901   4.464   4.735  15.115  0.8232  1.0949  1.7683
12804TIP3   OH259902   5.883   6.476  15.986  0.0531 -0.4025  0.3726
12804TIP3    H159903   5.798   6.459  15.946 -0.4614 -1.6639  1.9125
12804TIP3    H259904   5.871   6.559  16.033  0.2095  0.2946 -0.7836
12805TIP3   OH259905   4.989   3.602   2.434  0.0028 -0.3133  0.0746
12805TIP3    H159906   4.896   3.620   2.445 -0.3098  0.8106 -3.1832
12805TIP3    H259907   4.994   3.507   2.423 -0.5211 -0.5468  1.6449
12806TIP3   OH259908   1.587   4.291  14.532  0.7544  0.2254  0.7012
12806TIP3    H159909   1.542   4.261  14.611 -0.8958 -1.5911 -0.7966
12806TIP3    H259910   1.563   4.226  14.465  0.1004  2.9098 -1.8923
12807TIP3   OH259911   2.569   5.538  16.611  0.7045  0.3449 -0.3949
12807TIP3    H159912   2.586   5.479  16.684  1.0954  0.1291 -0.6597
12807TIP3    H259913   2.477   5.561  16.620  0.2629 -1.1280 -0.8944
12808TIP3   OH259914   5.980   6.157  12.148  0.0731 -0.4032 -0.4888
12808TIP3    H159915   5.937   6.075  12.172 -1.1153  0.4376  0.3765
12808TIP3    H259916   5.986   6.154  12.053 -1.2738 -0.8742 -0.5855
12809TIP3   OH259917   2.808   5.092   3.840 -0.3272 -0.0619 -1.3277
12809TIP3    H159918   2.786   5.017   3.785 -0.7367 -0.3541 -0.7791
12809TIP3    H259919   2.731   5.103   3.897  1.1143 -1.4987  1.0793
12810TIP3   OH259920   5.611   1.178   2.276  0.6708  0.2206  0.3656
12810TIP3    H159921   5.517   1.187   2.261  0.2608 -1.6973  1.4461
12810TIP3    H259922   5.637   1.263   2.311 -0.5655  0.9282 -0.3539
12811TIP3   OH259923   6.057   2.813   6.032  0.4677  0.1072 -0.0480
12811TIP3    H159924   6.139   2.861   6.040  0.5982 -0.1927  0.4649
12811TIP3    H259925   6.039   2.811   5.938  1.3658 -0.3486 -0.2189
12812TIP3   OH259926   3.657   2.576  11.915  0.1560 -0.3168 -0.1578
12812TIP3    H159927   3.576   2.579  11.967  0.9340  0.8764  1.0613
12812TIP3    H259928   3.727   2.566  11.980  1.0757 -0.0728 -1.0814
12813TIP3   OH259929   4.390   3.621  16.999 -0.7185  0.4659  0.1259
12813TIP3    H159930   4.383   3.653  16.909 -1.8573 -0.5775 -0.1865
12813TIP3    H259931   4.313   3.565  17.011 -1.3359  1.6251  2.1890
12814TIP3   OH259932   5.433   3.769  14.532  0.2594  0.2088 -0.1433
12814TIP3    H159933   5.350   3.728  14.506  0.8100 -0.9779 -0.0841
12814TIP3    H259934   5.495   3.741  14.465  0.6492  1.0023 -0.1234
12815TIP3   OH259935   1.674   6.006   4.817 -0.0198 -0.8615  0.3109
12815TIP3    H159936   1.755   6.055   4.823 -0.0104 -0.7791 -0.4250
12815TIP3    H259937   1.701   5.916   4.800 -0.0914 -0.5840 -1.4790
12816TIP3   OH259938   5.438   4.278  17.503  0.3000  0.2963  0.0298
12816TIP3    H159939   5.404   4.355  17.549 -2.3290  0.5385 -2.0956
12816TIP3    H259940   5.406   4.204  17.554 -0.9324  0.5927 -0.2679
12817TIP3   OH259941   5.349   1.405   3.427 -0.2600  0.8966  0.9920
12817TIP3    H159942   5.375   1.454   3.349 -1.9706  0.9449  0.4226
12817TIP3    H259943   5.422   1.417   3.488  0.6069  1.7833 -0.1800
12818TIP3   OH259944   1.258   2.287  12.775  0.2407  0.5221  0.7564
12818TIP3    H159945   1.267   2.324  12.863 -2.2520 -1.8259  2.1642
12818TIP3    H259946   1.339   2.238  12.761  1.0001  1.5553  1.3797
12819TIP3   OH259947   6.346   5.030  17.011  0.0634 -0.8836 -0.1697
12819TIP3    H159948   6.355   5.124  17.031 -1.6801 -0.6193 -0.4759
12819TIP3    H259949   6.432   5.005  16.977 -0.0962  1.2086 -2.4619
12820TIP3   OH259950   3.310   0.723   4.200  0.1510  0.3069 -0.2990
12820TIP3    H159951   3.298   0.702   4.292  2.6623 -2.3481 -0.4185
12820TIP3    H259952   3.393   0.772   4.198 -0.0270  0.5860 -1.1133
12821TIP3   OH259953   0.339   5.547  11.535  0.0039 -0.3779  0.3609
12821TIP3    H159954   0.250   5.575  11.513  0.3110  0.2495 -0.1161
12821TIP3    H259955   0.367   5.608  11.603  0.6223  0.4233 -0.5814
12822TIP3   OH259956   0.040   6.123  11.565  0.0387  0.1186 -0.3613
12822TIP3    H159957   0.096   6.049  11.591 -2.5953 -1.3687  1.5875
12822TIP3    H259958   0.047   6.127  11.470  2.9053 -0.3631 -0.2527
12823TIP3   OH259959   5.558   2.534  12.072  0.0055 -0.0146 -0.1000
12823TIP3    H159960   5.627   2.516  12.135 -0.9856  0.3647  1.1394
12823TIP3    H259961   5.561   2.460  12.011  2.0981  0.4667 -0.6663
12824TIP3   OH259962   0.348   5.958   5.239  0.3345  0.4309 -0.1128
12824TIP3    H159963   0.393   6.042   5.239  1.3780 -0.1042 -0.1281
12824TIP3    H259964   0.395   5.906   5.304 -2.6309  1.0084  2.7525
12825TIP3   OH259965   6.219   5.110   4.172 -0.2533 -0.6056  0.5709
12825TIP3    H159966   6.296   5.065   4.205 -1.1656 -1.5709  1.4923
12825TIP3    H259967   6.160   5.039   4.145 -0.3909  0.1302 -1.1636
12826TIP3   OH259968   3.740   0.785   3.048  0.0892  0.4738  0.3767
12826TIP3    H159969   3.659   0.740   3.072  0.3481 -0.3301 -0.2378
12826TIP3    H259970   3.727   0.811   2.957  0.6424  0.0717  0.1802
12827TIP3   OH259971   6.591   0.959   2.567 -0.2571  0.0293  0.1385
12827TIP3    H159972   6.670   0.910   2.590 -0.5929 -1.2618 -1.3512
12827TIP3    H259973   6.528   0.892   2.540 -1.4155  1.1435  0.0091
12828TIP3   OH259974   4.471   0.514  12.207 -0.5356 -0.0620  0.5453
12828TIP3    H159975   4.397   0.570  12.186 -0.1123  0.4987  0.5116
12828TIP3    H259976   4.451   0.479  12.294 -0.2193  1.1748  1.1482
12829TIP3   OH259977   1.672   5.226   5.602  0.2937 -1.0049  0.4422
12829TIP3    H159978   1.702   5.317   5.610 -0.4475 -0.5402 -1.3853
12829TIP3    H259979   1.660   5.196   5.692  0.7614  0.6436  1.0892
12830TIP3   OH259980   6.302   5.125   1.521  0.3214 -0.4608  0.9073
12830TIP3    H159981   6.256   5.045   1.495  0.5700 -0.6160  0.9467
12830TIP3    H259982   6.269   5.143   1.609  1.2090 -1.2331  1.4162
12831TIP3   OH259983   6.170   2.773   4.641 -0.6686 -0.0365 -0.3642
12831TIP3    H159984   6.186   2.855   4.687  2.0619 -0.9062  0.4495
12831TIP3    H259985   6.126   2.717   4.705 -0.4807  0.0598 -0.1499
12832TIP3   OH259986   1.290   6.250   0.831  0.3096 -0.2596 -0.5700
12832TIP3    H159987   1.376   6.239   0.789  0.8425 -1.4365  0.7472
12832TIP3    H259988   1.237   6.178   0.797 -0.1947  0.4620 -1.3760
12833TIP3   OH259989   4.723   3.860  14.845 -1.0483  0.3126  0.0534
12833TIP3    H159990   4.639   3.837  14.806 -1.1411 -1.7701  1.3731
12833TIP3    H259991   4.783   3.792  14.816  0.5462  2.3354 -1.7513
12834TIP3   OH259992   4.365   2.221   4.370  0.5052 -0.1719 -0.6002
12834TIP3    H159993   4.281   2.254   4.400  0.7304  0.4995 -0.7079
12834TIP3    H259994   4.351   2.199   4.278  0.0039 -1.5947 -0.2079
12835TIP3   OH259995   5.012   0.022  13.055 -0.0600  0.9852 -0.8739
12835TIP3    H159996   5.071   0.050  13.125 -0.9296  1.4182 -0.2907
12835TIP3    H259997   4.929   0.005  13.100 -0.2063 -0.2653 -1.5666
12836TIP3   OH259998   2.263   5.998  14.078  0.1731 -0.0895 -0.7025
12836TIP3    H159999   2.214   6.076  14.102 -0.2138  0.0326 -1.8498
12836TIP3    H260000   2.355   6.025  14.085  0.0581  0.2390 -0.4031
12837TIP3   OH260001   1.107   2.677   0.004 -0.2531  0.1602 -0.4421
12837TIP3    H160002   1.136   2.768  -0.006 -1.4231  0.6175  0.0827
12837TIP3    H260003   1.158   2.628  -0.061  0.2657  1.2156 -0.8583
12838TIP3   OH260004   1.045   6.089   6.255  0.0375  0.3662 -0.0229
12838TIP3    H160005   1.035   6.009   6.306 -0.5192 -0.2817 -1.1001
12838TIP3    H260006   1.099   6.145   6.309  0.7737 -0.8897  0.5959
12839TIP3   OH260007   2.627   3.108  11.684  0.2641 -0.8934  0.3133
12839TIP3    H160008   2.532   3.101  11.694 -0.4136  1.0262 -3.2513
12839TIP3    H260009   2.648   3.197  11.712  1.0754 -1.3365  1.1732
12840TIP3   OH260010   1.546   5.656  13.662  0.3773 -0.2070  0.0495
12840TIP3    H160011   1.454   5.682  13.665  0.9030  1.7376  0.7617
12840TIP3    H260012   1.581   5.698  13.584  0.9130  0.0316  0.4094
12841TIP3   OH260013   4.848   2.899  11.294  0.4807 -0.0540 -0.4521
12841TIP3    H160014   4.765   2.881  11.249 -0.5081  0.4464  1.0805
12841TIP3    H260015   4.901   2.946  11.230 -0.9558  0.8317 -1.0259
12842TIP3   OH260016   1.240   3.266  15.812  0.3976  1.0329  0.0512
12842TIP3    H160017   1.168   3.248  15.871 -0.1243  0.2502 -0.7967
12842TIP3    H260018   1.308   3.203  15.837  0.8797  1.9008  0.9781
12843TIP3   OH260019   2.627   5.806  16.512  0.2320 -0.2310  0.3281
12843TIP3    H160020   2.557   5.856  16.554  0.1066 -0.2150  0.1069
12843TIP3    H260021   2.613   5.716  16.541  0.5657 -0.1081  0.8664
12844TIP3   OH260022   0.498   4.289   6.660 -0.2032 -0.2131  0.8014
12844TIP3    H160023   0.573   4.278   6.718 -0.7919 -0.9288  1.4304
12844TIP3    H260024   0.424   4.254   6.709 -0.8461 -0.0801 -0.0602
12845TIP3   OH260025   1.138   0.593   0.236  0.1392  0.0564 -0.3598
12845TIP3    H160026   1.184   0.677   0.229  0.0822  0.1226  0.0530
12845TIP3    H260027   1.174   0.540   0.164 -0.1764  0.5957 -0.9218
12846TIP3   OH260028   4.405   3.447   4.021  0.4841 -0.4436  0.1468
12846TIP3    H160029   4.364   3.444   3.935 -1.0921 -2.4049  0.8980
12846TIP3    H260030   4.397   3.538   4.049 -2.4371 -0.5189 -0.2244
12847TIP3   OH260031   3.637   2.919   4.999  0.1306  0.0108  0.2448
12847TIP3    H160032   3.663   2.869   4.922 -1.9979  0.1176 -0.6094
12847TIP3    H260033   3.623   3.008   4.967  1.0728  0.5153  1.1676
12848TIP3   OH260034   1.435   3.295  14.211  0.2149 -0.0032 -0.6215
12848TIP3    H160035   1.455   3.347  14.290  1.2850  0.1591 -0.9858
12848TIP3    H260036   1.461   3.206  14.234  1.9988  0.3030 -1.2866
12849TIP3   OH260037   3.884   3.516   0.824 -0.7717 -0.0405  0.1219
12849TIP3    H160038   3.884   3.610   0.810  0.0132  0.1986  1.5203
12849TIP3    H260039   3.975   3.489   0.806 -0.8208 -0.4120  0.4292
12850TIP3   OH260040   2.644   1.462  13.086 -0.2704  0.1492  0.4436
12850TIP3    H160041   2.713   1.441  13.149 -0.2860  1.8084  1.0616
12850TIP3    H260042   2.689   1.475  13.003  0.0313  0.2144  0.6192
12851TIP3   OH260043   6.096   2.285   5.922 -0.3876 -0.0387  0.0563
12851TIP3    H160044   6.135   2.211   5.876  0.7973 -0.0507  1.0290
12851TIP3    H260045   6.007   2.257   5.942 -0.6480 -0.3585 -1.4383
12852TIP3   OH260046   3.302   5.246  13.485 -0.1664  0.5269 -0.0904
12852TIP3    H160047   3.211   5.274  13.493  0.6128  3.2927  0.1446
12852TIP3    H260048   3.340   5.262  13.571  0.3813 -1.4526  0.0829
12853TIP3   OH260049   3.224   2.733   4.412  0.3442  0.1363 -0.1353
12853TIP3    H160050   3.233   2.675   4.336  2.0899 -0.8185  0.7201
12853TIP3    H260051   3.237   2.675   4.487  3.5254  1.7369  0.7458
12854TIP3   OH260052   5.852   0.502   6.368 -0.0853  0.5531  0.5743
12854TIP3    H160053   5.845   0.467   6.457 -2.4762  1.4842  0.8102
12854TIP3    H260054   5.934   0.465   6.335  2.4728  2.4602  4.1073
12855TIP3   OH260055   4.501   6.253   4.823  0.0684 -0.5692  0.2602
12855TIP3    H160056   4.529   6.187   4.759 -1.3096 -2.6839  1.7094
12855TIP3    H260057   4.451   6.317   4.771  0.8494 -0.9880 -1.0762
12856TIP3   OH260058   6.654   5.519  16.202 -0.4630 -0.5677 -0.2209
12856TIP3    H160059   6.707   5.517  16.282  0.1093 -2.6578 -0.5731
12856TIP3    H260060   6.663   5.608  16.168  1.4920 -0.4024  0.6209
12857TIP3   OH260061   5.886   2.112  12.284 -0.1754  0.3297  1.1946
12857TIP3    H160062   5.814   2.144  12.230  1.0354 -0.0471 -0.7478
12857TIP3    H260063   5.866   2.020  12.299  0.8030 -0.3392 -1.0990
12858TIP3   OH260064   2.182   3.169  15.739 -0.0752 -0.1796 -0.6127
12858TIP3    H160065   2.202   3.253  15.781  1.2961 -0.4862 -0.6091
12858TIP3    H260066   2.163   3.192  15.648 -0.0512  0.1740 -0.5292
12859TIP3   OH260067   6.273   6.663   3.373  0.0582 -0.3307  0.0260
12859TIP3    H160068   6.349   6.720   3.366  0.6723 -1.2302 -1.0582
12859TIP3    H260069   6.299   6.595   3.436 -1.1679  1.2624  2.3870
12860TIP3   OH260070   2.213   2.923  13.423  0.7844  0.3201  0.1319
12860TIP3    H160071   2.251   3.006  13.396 -1.0553  1.2061  0.0627
12860TIP3    H260072   2.192   2.878  13.341 -1.8169  1.5859 -0.0135
12861TIP3   OH260073   6.578   1.605  11.624  0.0814  0.0558 -0.3199
12861TIP3    H160074   6.577   1.599  11.528  0.4597  0.6096 -0.3597
12861TIP3    H260075   6.659   1.651  11.644 -0.6725  1.1874  0.1973
12862TIP3   OH260076   4.577   6.426   1.443 -0.7017 -0.3805 -0.1726
12862TIP3    H160077   4.625   6.381   1.374 -0.2565 -1.2487  0.6787
12862TIP3    H260078   4.621   6.399   1.524 -3.0215 -1.7691  0.7103
12863TIP3   OH260079   5.614   2.205   2.344 -0.1729 -0.0672  0.0506
12863TIP3    H160080   5.696   2.237   2.382  0.4845 -0.3972 -1.0152
12863TIP3    H260081   5.566   2.284   2.321 -0.3556  0.1312  1.0802
12864TIP3   OH260082   0.655   3.940  15.877 -0.2276 -0.5725 -0.5614
12864TIP3    H160083   0.663   4.035  15.880 -0.6394 -0.5540 -0.0577
12864TIP3    H260084   0.739   3.910  15.840  0.1734 -0.0630 -0.0708
12865TIP3   OH260085   5.615   5.991   0.892  0.5454 -0.2747 -0.1146
12865TIP3    H160086   5.689   6.031   0.937  0.0506  1.1653 -0.5167
12865TIP3    H260087   5.583   5.924   0.952  2.9832 -1.9090 -0.4858
12866TIP3   OH260088   6.675   1.559  14.936  0.9046  0.0439  0.0745
12866TIP3    H160089   6.593   1.587  14.976  0.6301  0.6075 -0.8532
12866TIP3    H260090   6.662   1.466  14.916  1.2138 -0.3769  1.6494
12867TIP3   OH260091   1.743   3.843   5.673  0.8858 -0.6083 -0.1260
12867TIP3    H160092   1.747   3.815   5.765 -0.8864 -2.8730 -0.6437
12867TIP3    H260093   1.800   3.781   5.627 -0.1258 -1.0303 -0.8408
12868TIP3   OH260094   3.077   0.835  16.697  0.1023 -0.6441 -0.1924
12868TIP3    H160095   2.992   0.813  16.735 -0.7458  0.7808 -1.1752
12868TIP3    H260096   3.123   0.883  16.767  0.2770 -1.7473  0.4723
12869TIP3   OH260097   3.694   3.924   4.027  0.4084  0.5757 -0.7801
12869TIP3    H160098   3.639   3.857   4.065 -0.2582  0.1589 -2.3824
12869TIP3    H260099   3.782   3.904   4.058 -0.2345  0.9928  1.4499
12870TIP3   OH260100   5.502   2.339   0.498 -0.0050 -0.2959  0.3684
12870TIP3    H160101   5.553   2.306   0.425  0.1394 -0.2452  0.4462
12870TIP3    H260102   5.425   2.282   0.502 -0.8706  0.7255 -0.8825
12871TIP3   OH260103   1.663   6.289   4.240  0.3050  0.3398  0.0530
12871TIP3    H160104   1.634   6.235   4.165 -0.4743 -0.3590  0.8350
12871TIP3    H260105   1.598   6.272   4.308  1.4436  0.3289  1.1748
12872TIP3   OH260106   5.237   0.757   4.450 -0.4764 -0.0335 -0.0708
12872TIP3    H160107   5.256   0.704   4.373  1.1963 -1.4760  1.2496
12872TIP3    H260108   5.248   0.848   4.421 -0.8077 -0.4967 -1.7234
12873TIP3   OH260109   2.381   6.119  17.197 -0.1773  0.3069 -0.2743
12873TIP3    H160110   2.378   6.104  17.102  0.6653  1.6925 -0.5469
12873TIP3    H260111   2.341   6.041  17.235  1.2100 -1.1628 -1.6939
12874TIP3   OH260112   5.635   6.550   0.872 -0.2620  0.1138 -0.2754
12874TIP3    H160113   5.605   6.620   0.815  0.3149  2.1907  1.8208
12874TIP3    H260114   5.729   6.566   0.882 -0.3628 -0.1191  1.3127
12875TIP3   OH260115   5.482   6.446   5.589  0.0703 -0.3429  0.0796
12875TIP3    H160116   5.542   6.465   5.661  0.9766  1.0286 -0.9619
12875TIP3    H260117   5.530   6.474   5.511 -2.1035  1.3118 -0.7761
12876TIP3   OH260118   0.763   3.781  17.286  0.4835 -0.3344 -0.4534
12876TIP3    H160119   0.815   3.793  17.207  1.3481  0.8006  0.2535
12876TIP3    H260120   0.757   3.868  17.325 -1.1747 -0.6129 -0.0139
12877TIP3   OH260121   1.118   4.203  14.452  0.7078 -0.0641 -0.0557
12877TIP3    H160122   1.116   4.298  14.466 -0.1325  0.1611 -1.5368
12877TIP3    H260123   1.044   4.186  14.394  1.9637 -1.3738 -1.3309
12878TIP3   OH260124   5.121   1.165  16.671  0.3879  0.6465  0.3240
12878TIP3    H160125   5.160   1.189  16.588  1.4662  0.3983  0.7412
12878TIP3    H260126   5.106   1.070  16.664 -0.0146  0.7148  0.2218
12879TIP3   OH260127   5.881   1.132   1.582 -0.0069 -0.4218  0.1050
12879TIP3    H160128   5.938   1.083   1.524 -0.9351 -1.9294  0.4274
12879TIP3    H260129   5.856   1.210   1.532  1.2552 -0.4019 -0.5149
12880TIP3   OH260130   5.372   6.484   0.159  0.2743 -0.1616 -0.2212
12880TIP3    H160131   5.282   6.512   0.178  0.4357 -0.3175  0.8314
12880TIP3    H260132   5.370   6.457   0.067 -0.3982  1.2534 -0.6488
12881TIP3   OH260133   0.444   1.148   0.223  0.0142  0.0668 -0.3898
12881TIP3    H160134   0.370   1.104   0.264  0.2069  0.8624  0.8436
12881TIP3    H260135   0.517   1.087   0.233 -0.9049 -1.8628 -3.8142
12882TIP3   OH260136   2.638   0.964   0.195  0.0120 -0.1003  0.0423
12882TIP3    H160137   2.653   1.028   0.126 -2.2412 -0.1808 -0.6119
12882TIP3    H260138   2.617   1.016   0.272 -0.6516 -0.0216 -0.1854
12883TIP3   OH260139   6.368   0.363  13.464  0.1795  0.3816 -0.0726
12883TIP3    H160140   6.406   0.390  13.548 -0.4081 -0.7741  0.5810
12883TIP3    H260141   6.279   0.335  13.485 -0.4290  1.2889 -1.2986
12884TIP3   OH260142   2.406   1.045   4.227  1.0885  0.0634 -0.2141
12884TIP3    H160143   2.366   0.967   4.189 -1.3299  0.8906  0.4642
12884TIP3    H260144   2.354   1.118   4.193 -0.0294  0.9795  3.0239
12885TIP3   OH260145   5.817   5.288   3.610  0.1487  0.5428  0.4502
12885TIP3    H160146   5.832   5.247   3.695 -0.3736 -0.4302  0.0934
12885TIP3    H260147   5.746   5.351   3.626  0.0413  0.3520  0.7376
12886TIP3   OH260148   3.104   0.027  14.255 -0.1955 -0.1105 -0.1190
12886TIP3    H160149   3.012   0.008  14.275 -0.1230 -0.0528  0.2745
12886TIP3    H260150   3.102   0.064  14.167 -0.3713 -1.6620 -0.7882
12887TIP3   OH260151   6.356   5.959  13.239 -0.1923 -0.7904  0.2432
12887TIP3    H160152   6.399   5.896  13.182 -0.9617 -1.4573  0.3749
12887TIP3    H260153   6.427   6.010  13.277  0.4491 -1.5740  0.1282
12888TIP3   OH260154   5.841   3.383   0.275  0.3530 -0.3036  0.3131
12888TIP3    H160155   5.898   3.375   0.351  0.6523 -0.7466  0.0396
12888TIP3    H260156   5.877   3.457   0.225 -0.7060  0.9676  1.3390
12889TIP3   OH260157   4.059   1.679  16.952 -0.2677 -0.1178 -0.4177
12889TIP3    H160158   4.008   1.648  16.877  1.3534 -0.6157 -1.3574
12889TIP3    H260159   4.068   1.602  17.008  0.5497 -0.3786 -0.8984
12890TIP3   OH260160   0.903   4.730   1.226 -0.0782  0.4111  0.2313
12890TIP3    H160161   0.868   4.721   1.138 -0.4596 -1.9555  0.5567
12890TIP3    H260162   0.838   4.688   1.283  1.5114 -0.8121  1.2680
12891TIP3   OH260163   4.321   5.125  16.701  0.0369  0.1856 -0.5180
12891TIP3    H160164   4.373   5.200  16.731 -0.1857  0.4659 -0.8155
12891TIP3    H260165   4.231   5.148  16.725 -0.1181  0.3209 -1.1945
12892TIP3   OH260166   0.343   1.089   6.487  0.2077  0.3878 -0.1840
12892TIP3    H160167   0.427   1.124   6.514 -1.2778  3.3127  1.1733
12892TIP3    H260168   0.322   1.022   6.552  0.4557  1.3645  0.9401
12893TIP3   OH260169   5.133   2.810   3.209 -0.2260 -0.2495 -0.1886
12893TIP3    H160170   5.178   2.738   3.165 -0.1078 -0.1724 -0.1960
12893TIP3    H260171   5.084   2.854   3.139  0.2224  0.0720 -0.3115
12894TIP3   OH260172   2.152   0.004  16.843  0.5006 -0.1966 -0.3956
12894TIP3    H160173   2.146   0.099  16.845  3.0476  0.0430  2.6544
12894TIP3    H260174   2.069  -0.026  16.881  0.2655  0.8546 -0.0442
12895TIP3   OH260175   6.427   5.506  11.586 -0.0202 -0.4828  0.0168
12895TIP3    H160176   6.353   5.445  11.587  0.9528 -1.7524  2.2871
12895TIP3    H260177   6.441   5.525  11.493 -2.6718 -0.7979 -0.5118
12896TIP3   OH260178   0.404   6.373  13.777 -0.1633  0.4498 -0.2960
12896TIP3    H160179   0.496   6.351  13.762 -0.2732 -0.9608  0.9291
12896TIP3    H260180   0.403   6.469  13.781  1.1321  0.5141 -1.0112
12897TIP3   OH260181   1.061   1.431   3.478 -0.1106  0.0617  0.1332
12897TIP3    H160182   1.112   1.373   3.535  0.7837  0.4576 -0.2325
12897TIP3    H260183   1.039   1.506   3.533  0.3357  0.2225  0.0963
12898TIP3   OH260184   5.410   1.047  15.284 -0.1702 -0.2340  0.4494
12898TIP3    H160185   5.370   1.088  15.208  2.0455  0.0318 -0.6629
12898TIP3    H260186   5.338   1.033  15.345 -1.8159  0.6365 -1.2064
12899TIP3   OH260187   1.672   6.646  16.479 -0.7806  0.3299 -0.2284
12899TIP3    H160188   1.721   6.698  16.415  0.2239 -1.5332 -1.0589
12899TIP3    H260189   1.710   6.669  16.564 -1.4992  2.1400 -0.3495
12900TIP3   OH260190   0.955   5.391   1.235 -0.0154  0.6127 -0.4143
12900TIP3    H160191   0.980   5.327   1.168  0.0670  0.8078 -0.5714
12900TIP3    H260192   0.997   5.359   1.315 -0.5343  0.0979 -0.3378
12901TIP3   OH260193   3.431   6.494   1.067  0.4408 -0.1742 -0.1134
12901TIP3    H160194   3.341   6.462   1.071  0.6011 -0.7143 -0.7947
12901TIP3    H260195   3.437   6.541   0.984  1.0729 -1.0469 -0.5848
12902TIP3   OH260196   2.021   4.260   5.423 -0.1849  0.1086 -0.0556
12902TIP3    H160197   2.048   4.207   5.348  0.1124 -2.3495  1.6533
12902TIP3    H260198   2.099   4.308   5.448  0.2172 -0.4121 -0.2740
12903TIP3   OH260199   4.678   4.828   0.404 -0.0040 -0.1548 -1.2449
12903TIP3    H160200   4.699   4.768   0.476  1.0830  1.2831 -0.2994
12903TIP3    H260201   4.659   4.772   0.330  1.8403 -1.6586 -0.6432
12904TIP3   OH260202   1.177   4.288   2.726  0.0833  0.3945  0.1318
12904TIP3    H160203   1.158   4.229   2.653  1.1671 -1.4168  1.2362
12904TIP3    H260204   1.258   4.334   2.699 -0.0581  0.4587 -0.1947
12905TIP3   OH260205   0.545   4.635   4.453  0.1016  0.0749 -0.5950
12905TIP3    H160206   0.544   4.700   4.523 -0.6594 -1.2610  0.6990
12905TIP3    H260207   0.453   4.625   4.428  0.3889  0.7278 -2.0080
12906TIP3   OH260208   5.615   5.774  12.241 -0.6279 -1.1532 -0.6049
12906TIP3    H160209   5.642   5.682  12.250 -0.6204 -1.0990 -0.0578
12906TIP3    H260210   5.698   5.823  12.242 -0.6558 -1.1091 -0.5128
12907TIP3   OH260211   0.243   4.942  12.095 -0.6125 -0.3674  0.1501
12907TIP3    H160212   0.325   4.896  12.082  0.0835  0.9762 -0.3830
12907TIP3    H260213   0.243   4.968  12.187 -0.4148 -0.3287  0.1383
12908TIP3   OH260214   5.725   0.599  12.624 -0.7134  0.3969 -0.0201
12908TIP3    H160215   5.797   0.596  12.686 -0.0931 -1.4654 -0.7613
12908TIP3    H260216   5.650   0.563  12.671  0.0917 -2.3510 -0.6775
12909TIP3   OH260217   2.662   3.922   5.361 -0.0083  0.3000  0.6426
12909TIP3    H160218   2.748   3.909   5.322  0.2448  2.7391  0.2552
12909TIP3    H260219   2.668   4.005   5.407 -2.2802  0.7373  0.2771
12910TIP3   OH260220   6.730   6.132  15.837 -0.3483 -0.1165 -0.0243
12910TIP3    H160221   6.640   6.163  15.826 -0.8642 -1.8596 -1.0907
12910TIP3    H260222   6.744   6.073  15.763  1.5367 -0.2110  0.3662
12911TIP3   OH260223   6.323   4.784   5.097 -0.2137 -0.1604  0.0025
12911TIP3    H160224   6.372   4.787   5.178 -0.1253 -0.2854 -0.0464
12911TIP3    H260225   6.275   4.867   5.095 -0.5952 -0.3674  0.4148
12912TIP3   OH260226   1.497   6.476   2.742 -0.6880  0.1337  0.0260
12912TIP3    H160227   1.425   6.422   2.776 -1.9364  1.1713 -0.8838
12912TIP3    H260228   1.572   6.416   2.739 -2.0227 -1.5845 -1.0073
12913TIP3   OH260229   0.843   6.748   3.934  0.4242  0.2805 -0.5396
12913TIP3    H160230   0.860   6.839   3.909 -1.0284  0.0424 -2.7077
12913TIP3    H260231   0.828   6.703   3.850 -0.6043 -1.5864  0.5895
12914TIP3   OH260232   1.659   6.689  17.157  0.0202  0.4596 -0.5380
12914TIP3    H160233   1.606   6.609  17.162 -0.8202  1.0634  3.4806
12914TIP3    H260234   1.600   6.753  17.117 -0.1386 -0.3184 -1.5976
12915TIP3   OH260235   1.805   5.166   0.867 -0.3163 -0.3367 -0.0767
12915TIP3    H160236   1.758   5.103   0.812  0.3657  0.0950 -1.1968
12915TIP3    H260237   1.894   5.165   0.833 -0.0838  0.5810  0.4764
12916TIP3   OH260238   4.481   3.782   4.854  0.2293 -0.7416  0.4731
12916TIP3    H160239   4.439   3.696   4.850  1.3247 -1.3355  1.2435
12916TIP3    H260240   4.411   3.842   4.879 -0.9147 -1.1180 -1.5306
12917TIP3   OH260241   3.685   3.844  11.519 -0.5885 -0.1871 -0.0620
12917TIP3    H160242   3.623   3.780  11.485  0.3200 -0.4817 -1.2337
12917TIP3    H260243   3.738   3.795  11.582  1.0361 -1.0525 -1.9749
12918TIP3   OH260244   6.219   1.650  17.509  0.4073  0.3526  0.6840
12918TIP3    H160245   6.190   1.735  17.542 -2.0206 -0.6770  1.5161
12918TIP3    H260246   6.217   1.658  17.414 -0.9263  0.9404  0.7357
12919TIP3   OH260247   3.043   2.351   0.704  0.2843 -0.0861  0.0218
12919TIP3    H160248   3.003   2.335   0.619  2.9479 -1.0556 -1.1506
12919TIP3    H260249   3.059   2.446   0.705 -1.0748  0.1599  0.1103
12920TIP3   OH260250   2.302   4.045   4.669 -0.3623 -0.4206 -0.7005
12920TIP3    H160251   2.396   4.059   4.661 -0.1704 -1.2190 -0.0137
12920TIP3    H260252   2.290   4.007   4.756 -1.5661  1.5571  0.0508
12921TIP3   OH260253   4.666   5.343   3.023 -0.1740 -0.0947  0.1411
12921TIP3    H160254   4.679   5.353   2.929  0.3209  1.3686  0.3323
12921TIP3    H260255   4.602   5.273   3.031 -0.9295  0.3789 -1.3366
12922TIP3   OH260256   0.879   3.980  14.189 -0.3904  0.2180 -0.2919
12922TIP3    H160257   0.852   4.052  14.133  1.5089  1.7593  0.6390
12922TIP3    H260258   0.972   3.968  14.171 -0.2316 -0.7182  0.9393
12923TIP3   OH260259   5.049   6.292   5.229 -0.4760 -0.9137  0.7888
12923TIP3    H160260   4.965   6.319   5.193 -1.2674 -2.1894  1.5730
12923TIP3    H260261   5.063   6.351   5.303 -0.4706 -0.4314  0.4077
12924TIP3   OH260262   3.008   0.284  14.308  0.2548  0.2607 -0.1572
12924TIP3    H160263   3.014   0.280  14.212 -2.1975 -1.0889 -0.3327
12924TIP3    H260264   3.052   0.204  14.337  2.4635  1.4484  0.0425
12925TIP3   OH260265   4.430   1.101   3.846 -0.1163 -0.7346 -0.2365
12925TIP3    H160266   4.422   1.104   3.750 -0.7420  2.2769 -0.1793
12925TIP3    H260267   4.477   1.181   3.869 -0.9782 -0.8107  2.0610
12926TIP3   OH260268   4.470   2.559  13.071  0.6079  0.2455  0.6935
12926TIP3    H160269   4.442   2.468  13.067 -0.5045  0.5326  1.2778
12926TIP3    H260270   4.558   2.560  13.035  0.4946 -1.0019  0.3579
12927TIP3   OH260271   1.572   1.268   3.806 -0.5890  0.0267  0.3174
12927TIP3    H160272   1.581   1.352   3.762 -0.0244 -0.3867 -0.3729
12927TIP3    H260273   1.537   1.209   3.739 -1.3011 -0.2188  0.8856
12928TIP3   OH260274   5.134   6.341  12.105 -0.2164  0.3016  0.2010
12928TIP3    H160275   5.134   6.429  12.143 -1.2787  0.2126  0.4473
12928TIP3    H260276   5.091   6.286  12.171  1.9484 -0.7762  0.8163
12929TIP3   OH260277   4.486   2.599  14.809 -0.0441  0.0292 -0.0539
12929TIP3    H160278   4.455   2.558  14.889 -0.5635  1.4327  0.5073
12929TIP3    H260279   4.409   2.601  14.751  0.6981 -2.3918 -1.2687
12930TIP3   OH260280   4.037   1.661  14.542 -0.0498 -0.1468 -0.2472
12930TIP3    H160281   3.993   1.602  14.481 -0.2752 -0.9986  0.7098
12930TIP3    H260282   3.970   1.685  14.605  0.5297 -0.4418  0.4939
12931TIP3   OH260283   3.058   1.599   2.483  0.3545  0.3292 -0.0709
12931TIP3    H160284   3.013   1.563   2.407 -0.9210 -0.1742  0.8796
12931TIP3    H260285   3.151   1.583   2.467  0.0977  0.1048 -1.4347
12932TIP3   OH260286   1.116   2.031  11.997  0.1875 -0.6965  0.0277
12932TIP3    H160287   1.073   2.114  12.019 -0.4268 -1.5102  2.1699
12932TIP3    H260288   1.079   2.008  11.912 -0.0508  0.9323 -0.3583
12933TIP3   OH260289   4.811   5.840  13.521  0.3381 -0.2471  0.5419
12933TIP3    H160290   4.808   5.745  13.511  0.2920 -0.1301 -0.7173
12933TIP3    H260291   4.842   5.854  13.610  0.6631 -1.4429  0.6308
12934TIP3   OH260292   0.094   6.175  13.495  0.0088  0.9123 -0.2559
12934TIP3    H160293   0.036   6.245  13.523  0.5337  0.2336  2.9565
12934TIP3    H260294   0.159   6.168  13.565  1.5036 -1.0687 -1.7146
12935TIP3   OH260295   0.049   4.282  11.111  0.1673 -0.3115  0.0213
12935TIP3    H160296  -0.003   4.248  11.038  0.3218 -0.2370 -0.1239
12935TIP3    H260297   0.139   4.262  11.087  0.2447  0.0235  0.0291
12936TIP3   OH260298   2.879   4.111   5.893 -0.1186 -0.3339 -0.0359
12936TIP3    H160299   2.947   4.045   5.892  0.7874  0.5694  0.2983
12936TIP3    H260300   2.909   4.176   5.957 -0.1587  1.2399 -1.5334
12937TIP3   OH260301   6.454   3.962  16.277 -0.0281 -0.9691  0.2882
12937TIP3    H160302   6.397   3.902  16.229  1.2353 -1.1655 -1.0410
12937TIP3    H260303   6.539   3.954  16.233  0.6047  0.5135  1.1883
12938TIP3   OH260304   0.870   4.872  11.099  0.7264  0.0349  0.3716
12938TIP3    H160305   0.870   4.966  11.115 -1.5545  0.5829 -2.1984
12938TIP3    H260306   0.945   4.858  11.042 -0.5380  0.8498 -1.5730
12939TIP3   OH260307   6.446   3.476   5.432 -0.3183  0.0501 -0.1508
12939TIP3    H160308   6.459   3.381   5.434 -2.2251 -0.2744 -0.7801
12939TIP3    H260309   6.448   3.503   5.523 -0.2043 -0.6687  0.0625
12940TIP3   OH260310   2.411   5.695  15.472  0.0997 -0.0014 -0.0802
12940TIP3    H160311   2.399   5.631  15.542  0.6269 -1.6486 -1.4110
12940TIP3    H260312   2.427   5.778  15.517 -1.4752 -0.6102  1.7163
12941TIP3   OH260313   0.658   3.327   2.233 -0.7287  0.3766  0.1206
12941TIP3    H160314   0.698   3.243   2.213 -0.9096  0.4314 -0.4961
12941TIP3    H260315   0.618   3.315   2.319  3.0291  1.1624  2.2165
12942TIP3   OH260316   1.264   2.473  11.458  0.3874 -0.2045 -0.2085
12942TIP3    H160317   1.297   2.547  11.510  1.1441 -1.1680  0.7279
12942TIP3    H260318   1.186   2.507  11.414 -0.5804  0.5273  1.9436
12943TIP3   OH260319   3.254   0.359  14.422  0.3058 -0.3824 -0.2353
12943TIP3    H160320   3.163   0.362  14.390  1.0165  0.2087 -2.3996
12943TIP3    H260321   3.265   0.270  14.455 -1.3003 -0.2074  0.9075
12944TIP3   OH260322   6.659   2.327   1.246  0.1959 -0.4255  0.5083
12944TIP3    H160323   6.706   2.281   1.176 -0.2864 -0.9003  0.4928
12944TIP3    H260324   6.650   2.262   1.315 -0.2352 -0.2594  0.6073
12945TIP3   OH260325   0.368   2.033   1.316  0.3573 -0.9478 -0.1348
12945TIP3    H160326   0.440   2.056   1.256 -0.7916  1.0619 -0.8623
12945TIP3    H260327   0.407   2.039   1.403  0.8629  1.3013 -0.4480
12946TIP3   OH260328   3.104   2.635  15.313 -0.1463 -0.2764  0.7217
12946TIP3    H160329   3.108   2.719  15.358  0.2121  0.1629 -0.1071
12946TIP3    H260330   3.192   2.598  15.323  0.6658  0.8740 -1.5397
12947TIP3   OH260331   5.139   2.274   5.075 -0.0949  0.1735  0.1201
12947TIP3    H160332   5.048   2.244   5.080  0.5674 -1.8692  0.9806
12947TIP3    H260333   5.156   2.315   5.160  0.0332 -0.2029  0.2765
12948TIP3   OH260334   0.235   1.893   3.800 -0.7488  0.0796 -0.3819
12948TIP3    H160335   0.218   1.840   3.878 -0.5384 -0.0525 -0.4255
12948TIP3    H260336   0.206   1.981   3.824  1.6455  0.6275  0.7553
12949TIP3   OH260337   0.036   1.081  12.836  0.5777 -0.0693  0.1245
12949TIP3    H160338   0.050   1.035  12.919 -3.1250 -0.9296  0.4562
12949TIP3    H260339   0.011   1.169  12.862  1.4196  0.2720 -0.2029
12950TIP3   OH260340   6.273   0.401   4.320  0.2971  0.4642  0.1331
12950TIP3    H160341   6.319   0.391   4.404  2.7667 -0.3195 -1.1981
12950TIP3    H260342   6.181   0.409   4.344  0.4538 -3.1331  2.8044
12951TIP3   OH260343   0.005   3.652   4.042  0.3656  0.1099  0.0051
12951TIP3    H160344  -0.026   3.731   3.998 -1.5061 -0.2959  0.4872
12951TIP3    H260345   0.059   3.608   3.976  1.8351  1.9531 -0.1186
12952TIP3   OH260346   6.243   5.537  13.987  0.2968  0.3995  0.0890
12952TIP3    H160347   6.288   5.578  13.913 -0.3736  2.6368  0.8256
12952TIP3    H260348   6.202   5.459  13.951 -0.0753  1.4719 -1.9373
12953TIP3   OH260349   4.881   6.480   1.834  0.6561 -0.0727 -0.0830
12953TIP3    H160350   4.913   6.399   1.873 -1.5171 -0.9074  0.0763
12953TIP3    H260351   4.812   6.510   1.892  0.4563  1.1483 -0.9006
12954TIP3   OH260352   2.361   2.826  15.300 -0.0007  0.2145 -0.4227
12954TIP3    H160353   2.273   2.830  15.338  0.8056 -0.1159  1.6088
12954TIP3    H260354   2.356   2.882  15.222 -2.2700 -0.6484 -0.9741
12955TIP3   OH260355   3.066   4.070   4.951  0.2467  0.4538 -0.0810
12955TIP3    H160356   2.997   4.010   4.923 -0.4539  1.5955 -0.8887
12955TIP3    H260357   3.031   4.112   5.030  0.3141  0.5149 -0.0837
12956TIP3   OH260358   0.779   1.549  16.135  0.1689  0.0986  0.0611
12956TIP3    H160359   0.709   1.604  16.169  0.4055 -1.0675  2.6807
12956TIP3    H260360   0.859   1.584  16.175  0.5130 -1.1624  0.5301
12957TIP3   OH260361   2.931   1.292  16.270 -0.6101 -0.1436 -0.4166
12957TIP3    H160362   2.981   1.286  16.189 -1.0450  3.6966 -1.1837
12957TIP3    H260363   2.842   1.269  16.244 -0.3567 -1.0744 -0.4839
12958TIP3   OH260364   3.152   3.542  13.421  0.5629  0.7613  0.2606
12958TIP3    H160365   3.166   3.488  13.499  1.4674  2.9714  1.7463
12958TIP3    H260366   3.058   3.536  13.405  0.0820  1.3284  2.4534
12959TIP3   OH260367   0.007   6.379  14.478  0.1560  0.2563  0.1799
12959TIP3    H160368  -0.043   6.368  14.559 -0.4636 -1.1235 -0.3500
12959TIP3    H260369   0.023   6.289  14.448  0.7486  0.7378 -1.0033
12960TIP3   OH260370   1.414   5.916  12.691 -0.0359  0.0313 -0.1116
12960TIP3    H160371   1.472   5.991  12.704 -0.8608  0.8381 -0.9620
12960TIP3    H260372   1.473   5.842  12.683  1.0104  1.0216 -2.4420
12961TIP3   OH260373   5.415   3.836   1.037 -0.2459  0.6629 -0.0852
12961TIP3    H160374   5.412   3.896   1.112  1.3698  0.1513  0.4279
12961TIP3    H260375   5.366   3.759   1.066 -0.0652  0.6761  0.2646
12962TIP3   OH260376   1.977   0.738   5.099 -0.3534 -0.0501  0.5678
12962TIP3    H160377   1.945   0.696   5.179 -0.2195 -0.6427  0.3157
12962TIP3    H260378   1.903   0.734   5.039 -0.5983  0.7859  0.7959
12963TIP3   OH260379   6.218   6.362   5.601  0.1591 -0.3656 -0.2005
12963TIP3    H160380   6.258   6.283   5.636  1.9113 -0.1256 -1.5605
12963TIP3    H260381   6.151   6.331   5.541 -0.0444 -0.7890  0.2385
12964TIP3   OH260382   0.981   5.664   3.088 -0.4764 -0.2120  0.0717
12964TIP3    H160383   1.037   5.691   3.016  0.8321  0.3120  1.2350
12964TIP3    H260384   0.927   5.741   3.107 -0.1463 -0.0292  0.2699
12965TIP3   OH260385   3.628   5.152  13.429 -0.8675  0.1264  0.4955
12965TIP3    H160386   3.651   5.106  13.348 -0.6871 -1.0784  1.2004
12965TIP3    H260387   3.563   5.096  13.470 -0.1478  0.1391  1.7075
12966TIP3   OH260388   3.487   0.639   5.469  0.2908  0.2946  0.2392
12966TIP3    H160389   3.502   0.551   5.434  1.7686  0.1297  1.2016
12966TIP3    H260390   3.481   0.695   5.392 -1.0036 -0.6731 -0.4035
12967TIP3   OH260391   2.268   6.251   3.418  0.2483 -0.5919 -0.4123
12967TIP3    H160392   2.189   6.297   3.445  0.8141  1.4331 -1.9246
12967TIP3    H260393   2.285   6.282   3.329  3.3327 -0.0835  0.2169
12968TIP3   OH260394   4.974   2.259   2.041  0.2992 -0.1944 -1.2055
12968TIP3    H160395   4.882   2.242   2.060  0.4528  0.7511  0.6321
12968TIP3    H260396   5.005   2.180   1.997 -0.6903 -1.7521  0.7569
12969TIP3   OH260397   5.672   2.768  15.605 -0.2509  0.6097  0.5059
12969TIP3    H160398   5.712   2.699  15.552 -0.3643  1.6383 -0.9715
12969TIP3    H260399   5.677   2.735  15.695  1.5668 -0.4137  0.0801
12970TIP3   OH260400   5.818   4.952  12.010  0.1385  0.1403  0.7374
12970TIP3    H160401   5.727   4.930  12.030  0.1402  1.0930  1.9014
12970TIP3    H260402   5.831   4.922  11.920 -2.0914  2.1475 -0.3705
12971TIP3   OH260403   2.689   1.921  14.638 -0.4750  0.0796 -0.3240
12971TIP3    H160404   2.657   1.904  14.726 -1.2879 -0.8365 -0.7736
12971TIP3    H260405   2.784   1.905  14.644 -0.4494  0.5079  0.4877
12972TIP3   OH260406   4.974   1.197   3.897  0.0920 -0.3627  0.2968
12972TIP3    H160407   4.914   1.270   3.913  0.6433  0.3592 -0.8098
12972TIP3    H260408   5.050   1.237   3.854  0.8851 -1.4285  0.6557
12973TIP3   OH260409   5.834   3.447   6.778  0.0238 -0.3092  0.3057
12973TIP3    H160410   5.834   3.542   6.770  0.4229 -0.3426 -0.1620
12973TIP3    H260411   5.750   3.426   6.817 -0.5523  0.1457 -0.6583
12974TIP3   OH260412   1.429   1.354  11.624 -0.3640  0.0174  0.1594
12974TIP3    H160413   1.505   1.347  11.682 -0.4992 -3.5690  0.1638
12974TIP3    H260414   1.363   1.399  11.676  1.3954  2.4580  0.4579
12975TIP3   OH260415   4.817   3.923   3.846 -0.7783  0.2854 -0.5623
12975TIP3    H160416   4.885   3.987   3.824 -0.1779 -0.9711 -2.6412
12975TIP3    H260417   4.863   3.855   3.895 -0.6425 -0.2602 -1.4288
12976TIP3   OH260418   4.862   4.976  17.092 -0.2189  0.5673  0.2562
12976TIP3    H160419   4.926   5.035  17.131 -0.2332  1.7564 -1.3862
12976TIP3    H260420   4.871   4.991  16.997 -1.5086 -0.7346 -0.1082
12977TIP3   OH260421   2.162   3.182   0.502 -0.2587 -0.7019 -0.1276
12977TIP3    H160422   2.142   3.247   0.569  0.9865 -0.6819  0.2636
12977TIP3    H260423   2.257   3.188   0.492 -0.4007 -0.8359 -1.7660
12978TIP3   OH260424   3.464   1.910   4.287 -0.8410  0.2622 -0.6110
12978TIP3    H160425   3.508   1.982   4.241 -0.0546  0.1931  0.0119
12978TIP3    H260426   3.424   1.952   4.363 -2.0045  0.3491 -1.2576
12979TIP3   OH260427   3.855   2.413   4.864  0.0021  0.1505  0.5988
12979TIP3    H160428   3.839   2.321   4.844 -1.5679  0.3180  0.9106
12979TIP3    H260429   3.902   2.447   4.788  3.2721 -1.5233  1.6951
12980TIP3   OH260430   4.132   2.309  16.214 -0.5288 -0.0145 -0.1936
12980TIP3    H160431   4.168   2.367  16.281  0.7260 -0.1318 -0.7411
12980TIP3    H260432   4.203   2.297  16.151 -0.2842 -3.0924  0.4982
12981TIP3   OH260433   2.275   5.389   0.044 -0.3534 -0.0795 -0.3390
12981TIP3    H160434   2.275   5.351   0.132 -1.1946 -0.7768 -0.6323
12981TIP3    H260435   2.349   5.348  -0.000 -1.0911 -1.1874 -0.5673
12982TIP3   OH260436   4.315   2.352   2.071 -0.3755  0.4192  0.0404
12982TIP3    H160437   4.283   2.358   1.981 -1.5220 -0.1744  0.3965
12982TIP3    H260438   4.351   2.264   2.078 -1.3215  0.0570  0.4800
12983TIP3   OH260439   4.052   5.951   3.921 -0.8583  0.0134  0.1870
12983TIP3    H160440   4.029   5.997   4.002 -0.9036  0.2224  0.0561
12983TIP3    H260441   4.019   6.008   3.851 -0.4838  0.0183  0.0103
12984TIP3   OH260442   4.604   6.504   0.782  0.1962  0.4955  0.1043
12984TIP3    H160443   4.521   6.456   0.783 -0.0294  0.8917  0.8296
12984TIP3    H260444   4.598   6.566   0.855  1.7954 -0.5878  1.2221
12985TIP3   OH260445   6.712   4.592   3.560  0.0880  0.4935  0.5850
12985TIP3    H160446   6.733   4.499   3.566 -0.9350  0.3361  2.1426
12985TIP3    H260447   6.755   4.621   3.479 -1.0885 -1.7301 -0.9469
12986TIP3   OH260448   3.345   2.292   4.886 -0.1562  0.1038  0.0207
12986TIP3    H160449   3.417   2.352   4.909 -0.3981  0.5246 -0.2926
12986TIP3    H260450   3.266   2.338   4.914 -0.2992 -0.4265  0.5026
12987TIP3   OH260451   5.549   5.706   5.944 -0.1895 -0.1860 -0.1554
12987TIP3    H160452   5.605   5.641   5.901 -0.5738 -0.5864 -0.0495
12987TIP3    H260453   5.603   5.785   5.947  0.0662 -0.3231 -0.8297
12988TIP3   OH260454   0.212   6.671  13.361  0.0965 -0.0202 -1.2646
12988TIP3    H160455   0.234   6.763  13.373  3.6680 -0.9193  0.4512
12988TIP3    H260456   0.158   6.649  13.437  0.9235  0.2191 -0.5994
12989TIP3   OH260457   1.043   6.679  11.496  0.4942  0.0086  0.2172
12989TIP3    H160458   1.000   6.626  11.429  0.6085 -2.0029  1.6427
12989TIP3    H260459   0.971   6.726  11.539 -0.1115 -1.7118  1.1978
12990TIP3   OH260460   5.808   3.645  12.490  0.1299  0.2431 -0.8755
12990TIP3    H160461   5.860   3.567  12.503 -0.4796 -0.4278 -2.2008
12990TIP3    H260462   5.871   3.716  12.485  0.8077 -0.3716 -1.1182
12991TIP3   OH260463   0.609   6.182  11.896 -0.5005  0.0905  0.5597
12991TIP3    H160464   0.697   6.184  11.858 -0.4018  0.5787  0.8040
12991TIP3    H260465   0.582   6.090  11.891 -0.2104  0.0346 -0.0483
12992TIP3   OH260466   0.300   4.478  12.973 -0.0390 -0.6238 -0.2342
12992TIP3    H160467   0.281   4.422  13.048  1.0693 -1.6401 -0.6762
12992TIP3    H260468   0.216   4.486  12.928 -0.6319 -0.3027  0.8969
12993TIP3   OH260469   4.607   3.757   1.819  0.1459  0.1289 -0.2594
12993TIP3    H160470   4.617   3.670   1.857 -1.8429  0.8015  2.0644
12993TIP3    H260471   4.565   3.742   1.734  0.8074 -1.1960 -0.3775
12994TIP3   OH260472   5.481   0.792   2.125  0.1503  0.3726 -0.2828
12994TIP3    H160473   5.518   0.826   2.044 -0.1929  0.1040 -0.5608
12994TIP3    H260474   5.553   0.793   2.188  0.5223  0.2212 -0.7032
12995TIP3   OH260475   0.406   3.074  17.035 -0.5612 -0.3436 -0.2575
12995TIP3    H160476   0.393   2.996  17.089 -1.7215  0.2514  0.3650
12995TIP3    H260477   0.346   3.139  17.072  1.3691  1.3148  0.1603
12996TIP3   OH260478   1.239   6.308   2.805 -0.6891  0.1597  0.0796
12996TIP3    H160479   1.274   6.219   2.805  2.0799  1.1318 -0.6609
12996TIP3    H260480   1.217   6.325   2.713  0.8433  0.9138 -0.1763
12997TIP3   OH260481   4.244   2.590   1.485  0.0949  0.0266  0.3051
12997TIP3    H160482   4.266   2.667   1.432  0.1830 -0.7204 -0.7823
12997TIP3    H260483   4.292   2.518   1.445 -2.6969 -1.3045 -0.9951
12998TIP3   OH260484   6.431   4.869  14.861 -0.1695 -0.0436  0.5064
12998TIP3    H160485   6.356   4.923  14.834  0.0005 -0.0417  0.0159
12998TIP3    H260486   6.492   4.930  14.902 -1.0821 -0.2869  2.3042
12999TIP3   OH260487   5.672   1.233   4.267 -0.3697 -0.1729  0.0425
12999TIP3    H160488   5.611   1.175   4.312 -0.8650 -0.0998 -0.5268
12999TIP3    H260489   5.671   1.204   4.176  1.0459 -0.6719  0.1709
13000TIP3   OH260490   0.636   5.494   2.377 -0.4917 -0.8638 -0.5690
13000TIP3    H160491   0.673   5.549   2.308 -2.0738  1.5656  0.3985
13000TIP3    H260492   0.711   5.465   2.428  0.3699  2.1428  0.0738
13001TIP3   OH260493   4.141   4.082  16.164 -0.6760 -0.1836  0.3821
13001TIP3    H160494   4.050   4.075  16.135 -0.7969 -0.2120  0.7629
13001TIP3    H260495   4.169   4.169  16.136 -0.3959 -0.6781 -0.9184
13002TIP3   OH260496   1.960   4.532   1.772  0.2168 -0.0810 -1.2575
13002TIP3    H160497   1.974   4.515   1.679 -0.9742  2.5009 -1.9788
13002TIP3    H260498   1.883   4.479   1.795  1.8780 -2.5895 -1.0380
13003TIP3   OH260499   3.066   3.944  12.030 -0.7293  0.2340 -0.2111
13003TIP3    H160500   3.090   4.024  12.076 -1.1778  0.7653 -0.8912
13003TIP3    H260501   3.088   3.961  11.939  1.6952 -1.4057 -0.0185
13004TIP3   OH260502   4.153   5.001  15.201  0.2332 -0.1962 -0.0350
13004TIP3    H160503   4.239   5.035  15.175 -0.0073 -0.0227 -0.6142
13004TIP3    H260504   4.153   5.009  15.296  0.1242  1.6045 -0.1510
13005TIP3   OH260505   3.051   0.405   1.282  0.5910 -0.0686  0.0013
13005TIP3    H160506   3.032   0.363   1.198  1.3038  0.7406 -0.5752
13005TIP3    H260507   3.098   0.338   1.332 -0.6297 -0.8706  0.1275
13006TIP3   OH260508   0.052   1.355   3.323 -0.0536 -0.0487 -0.5249
13006TIP3    H160509   0.091   1.402   3.249  0.1676  1.0032  0.2507
13006TIP3    H260510  -0.042   1.369   3.314  0.0872  1.8679  0.5436
13007TIP3   OH260511   0.987   1.098  12.382 -0.1720 -0.1082 -0.0100
13007TIP3    H160512   0.978   1.133  12.293 -0.0208  0.2721  0.1213
13007TIP3    H260513   0.994   1.004  12.370 -0.8912 -0.1226 -0.3517
13008TIP3   OH260514   3.494   4.287  11.598 -0.2844  0.0460 -0.2578
13008TIP3    H160515   3.408   4.323  11.616  0.0789  1.1068 -0.5620
13008TIP3    H260516   3.553   4.363  11.597  0.7413 -0.7044  0.4266
13009TIP3   OH260517   1.945   1.005   6.075 -0.3019  0.2329 -0.0988
13009TIP3    H160518   1.910   0.936   6.018  0.4461  0.9576 -1.4941
13009TIP3    H260519   1.958   0.962   6.159 -0.7399 -1.0824 -0.6731
13010TIP3   OH260520   3.556   4.218  14.412  1.0475 -0.5335 -0.4855
13010TIP3    H160521   3.591   4.275  14.480  0.7987  0.4074 -1.1206
13010TIP3    H260522   3.632   4.197  14.358  0.7973  1.1203 -1.5856
13011TIP3   OH260523   3.758   1.247   2.878 -0.3094  0.1687 -0.7591
13011TIP3    H160524   3.781   1.209   2.793 -0.4840 -0.3249 -0.5884
13011TIP3    H260525   3.705   1.323   2.856  1.1363  1.1094 -1.1489
13012TIP3   OH260526   6.733   6.577   1.278 -0.1432  0.4665 -0.1046
13012TIP3    H160527   6.687   6.640   1.334  0.9567  1.7697 -0.5839
13012TIP3    H260528   6.760   6.629   1.202  1.5547 -0.3743 -0.1233
13013TIP3   OH260529   2.110   3.529  11.374  0.0696 -0.2449  0.5567
13013TIP3    H160530   2.128   3.500  11.284  1.2147  0.3375  0.5725
13013TIP3    H260531   2.139   3.620  11.376 -1.3713  0.2238  1.1199
13014TIP3   OH260532   5.767   6.574  14.740 -0.5593  0.0973  0.3371
13014TIP3    H160533   5.719   6.642  14.787 -0.8600 -2.0063  3.3566
13014TIP3    H260534   5.698   6.517  14.704 -0.3183 -0.0165  0.0571
13015TIP3   OH260535   5.231   5.278  15.148 -0.6946  0.0651 -0.0817
13015TIP3    H160536   5.276   5.228  15.081  4.1545  0.6333  2.2966
13015TIP3    H260537   5.225   5.367  15.112 -1.1558 -0.2925 -0.9186
13016TIP3   OH260538   6.074   6.647  16.611  0.2752  0.3908 -0.2953
13016TIP3    H160539   6.014   6.629  16.539 -0.4964 -0.1695  0.4638
13016TIP3    H260540   6.077   6.743  16.615 -0.4893  0.4305 -0.4240
13017TIP3   OH260541   6.405   6.351   0.133  0.2596  0.1501 -0.7755
13017TIP3    H160542   6.450   6.279   0.089 -0.6107  0.3326 -2.0242
13017TIP3    H260543   6.357   6.396   0.063  0.3233  1.6022  0.0712
13018TIP3   OH260544   4.429   2.471  12.735 -0.0278  0.5938 -0.2598
13018TIP3    H160545   4.388   2.522  12.805 -0.5117  0.8553 -0.7282
13018TIP3    H260546   4.432   2.381  12.769 -2.1097  0.3112 -0.6695
13019TIP3   OH260547   3.226   2.628  16.337  0.0529 -0.3243 -0.3897
13019TIP3    H160548   3.169   2.579  16.396  1.5109 -2.9672 -1.0080
13019TIP3    H260549   3.282   2.679  16.396  0.9280 -2.2608  0.5539
13020TIP3   OH260550   0.764   2.507  11.883  0.5832  0.4103 -0.2330
13020TIP3    H160551   0.684   2.538  11.840  0.3902 -0.2012 -0.3211
13020TIP3    H260552   0.744   2.513  11.977 -0.3654 -1.7340 -0.2531
13021TIP3   OH260553   1.484   3.058  14.319  0.3973 -0.2732 -0.4899
13021TIP3    H160554   1.560   3.004  14.341  0.3476 -0.6234 -1.1414
13021TIP3    H260555   1.409   3.009  14.354  0.4732  0.1113  0.2225
13022TIP3   OH260556   5.575   0.802   2.606 -0.0845 -0.1145  0.3830
13022TIP3    H160557   5.579   0.846   2.691  2.6903 -1.2498  0.9500
13022TIP3    H260558   5.592   0.871   2.542 -0.7826  0.4930  0.8408
13023TIP3   OH260559   3.615   0.905  16.940 -0.6530  0.3857  0.1012
13023TIP3    H160560   3.599   0.924  16.847 -0.2339  0.6954  0.0899
13023TIP3    H260561   3.703   0.869  16.943 -0.7682  0.1181  0.3486
13024TIP3   OH260562   5.396   6.586   4.668  0.6168 -0.1230  0.2926
13024TIP3    H160563   5.359   6.673   4.680  1.1429 -0.0847  1.9021
13024TIP3    H260564   5.322   6.532   4.641 -0.2667  0.3230  1.6947
13025TIP3   OH260565   2.113   1.390  13.823 -0.5336 -0.2303  0.8576
13025TIP3    H160566   2.090   1.300  13.849  0.6033 -0.8895 -0.2940
13025TIP3    H260567   2.114   1.439  13.905 -3.3199 -0.7218  1.2873
13026TIP3   OH260568   4.873   6.659   5.007 -0.1821 -0.7138 -0.0974
13026TIP3    H160569   4.832   6.720   4.947  0.7466  0.2846  0.2425
13026TIP3    H260570   4.955   6.634   4.964  0.1726 -0.5074  0.4430
13027TIP3   OH260571   5.841   3.763   6.739 -0.0931 -0.4448  0.0321
13027TIP3    H160572   5.759   3.788   6.781  0.7789  0.0367  1.5002
13027TIP3    H260573   5.814   3.725   6.655 -1.7872 -0.0352  0.3561
13028TIP3   OH260574   1.923   1.911  13.905  0.2204 -0.8006 -0.0907
13028TIP3    H160575   1.881   1.846  13.962  0.6245 -0.1044  1.0458
13028TIP3    H260576   1.980   1.960  13.964 -0.0456  0.5624 -0.9226
13029TIP3   OH260577   4.063   1.281   6.535 -0.1043  0.0134 -0.0587
13029TIP3    H160578   3.997   1.255   6.471 -0.1282 -1.1514  0.4095
13029TIP3    H260579   4.034   1.367   6.565 -0.4615  0.2764 -1.1014
13030TIP3   OH260580   4.457   0.804   0.020  0.0101  0.0663  0.4716
13030TIP3    H160581   4.541   0.759   0.016 -0.4929 -0.7850 -2.4431
13030TIP3    H260582   4.422   0.799  -0.069 -2.4343  1.7663  1.2253
13031TIP3   OH260583   0.299   6.657  17.214  0.3317  0.6053 -0.0515
13031TIP3    H160584   0.239   6.717  17.170 -3.3127 -3.1943 -0.8906
13031TIP3    H260585   0.351   6.618  17.143 -0.0586  0.0146 -0.0164
13032TIP3   OH260586   4.677   5.471  12.586  0.2923 -0.2732 -0.5680
13032TIP3    H160587   4.717   5.523  12.656 -0.5363 -0.7682  0.2906
13032TIP3    H260588   4.597   5.519  12.565 -0.9067 -1.5847  0.8031
13033TIP3   OH260589   1.480   3.115   2.093  0.5900  0.2250  0.2918
13033TIP3    H160590   1.554   3.097   2.036  1.5147  0.8406  1.2593
13033TIP3    H260591   1.490   3.054   2.166  0.9335  1.2255  1.1070
13034TIP3   OH260592   4.968   0.719   1.403 -0.1163 -0.4805  1.0726
13034TIP3    H160593   5.063   0.731   1.395 -0.0770 -0.8309  0.9762
13034TIP3    H260594   4.952   0.633   1.364 -0.4545 -0.4865  1.2237
13035TIP3   OH260595   0.972   2.160   1.817  0.1554 -0.0682 -0.2733
13035TIP3    H160596   1.027   2.118   1.883 -2.5768 -1.2344  1.4430
13035TIP3    H260597   0.909   2.093   1.791 -0.7653  1.2995 -1.7994
13036TIP3   OH260598   0.286   6.132   3.529 -0.2774 -0.3021  0.0533
13036TIP3    H160599   0.297   6.209   3.473 -1.5399  0.1284  0.3561
13036TIP3    H260600   0.359   6.137   3.591 -0.0232  0.3344 -0.2870
13037TIP3   OH260601   4.860   5.576  13.479  0.2614  0.1664  0.3310
13037TIP3    H160602   4.773   5.548  13.449 -0.2089 -1.1109  2.6734
13037TIP3    H260603   4.916   5.565  13.402 -1.4714  0.2205 -0.9926
13038TIP3   OH260604   1.299   2.409   5.720 -0.2595  0.8910  0.0387
13038TIP3    H160605   1.381   2.452   5.744 -0.6519  1.6777  0.0006
13038TIP3    H260606   1.326   2.324   5.685  0.5758  1.3291 -0.4249
13039TIP3   OH260607   3.277   5.691  15.796  0.6696 -0.5143  0.3640
13039TIP3    H160608   3.235   5.606  15.782 -0.4389  0.0284  0.3011
13039TIP3    H260609   3.296   5.693  15.890 -1.0029 -0.1059  0.7341
13040TIP3   OH260610   5.898   3.887   1.015 -0.2891 -0.9306  0.5247
13040TIP3    H160611   5.984   3.878   1.055 -0.5766 -1.0967  1.1289
13040TIP3    H260612   5.891   3.812   0.955 -0.0971 -1.0372  0.6348
13041TIP3   OH260613   1.917   1.632   2.316  1.0580  0.3301  0.7845
13041TIP3    H160614   1.981   1.702   2.324  0.3892  1.0091  0.3230
13041TIP3    H260615   1.832   1.674   2.330  0.7909 -0.9502  3.6429
13042TIP3   OH260616   0.893   1.064   0.499 -0.5368  0.0531 -0.1073
13042TIP3    H160617   0.926   0.979   0.470  1.3687  0.1969  1.4396
13042TIP3    H260618   0.801   1.047   0.522  0.0864 -1.8600  1.1962
13043TIP3   OH260619   4.741   5.828   0.136 -0.3039  0.0900 -0.1584
13043TIP3    H160620   4.701   5.751   0.175 -1.1730  0.3797 -0.4660
13043TIP3    H260621   4.822   5.841   0.187 -1.3491  0.4013  1.4853
13044TIP3   OH260622   1.410   1.095  13.191  0.5935 -0.4422 -0.1472
13044TIP3    H160623   1.376   1.182  13.211 -0.0197 -0.1982 -2.0609
13044TIP3    H260624   1.500   1.097  13.225  1.2588  1.6406 -1.7655
13045TIP3   OH260625   0.811   6.735   2.004  0.4964  0.3866 -0.1941
13045TIP3    H160626   0.760   6.726   2.085  0.6857  0.9246 -0.0154
13045TIP3    H260627   0.872   6.806   2.021  0.4736  0.5721 -0.8458
13046TIP3   OH260628   4.390   2.505  13.531  0.3298 -0.1668 -0.2864
13046TIP3    H160629   4.362   2.573  13.470  0.3017 -2.2286 -2.7325
13046TIP3    H260630   4.327   2.434  13.518  1.4079 -1.3783  0.8408
13047TIP3   OH260631   5.346   3.775   2.380  0.6367  0.1147  0.0079
13047TIP3    H160632   5.375   3.811   2.464  1.0285  0.0963 -0.1171
13047TIP3    H260633   5.270   3.721   2.402  0.8667 -0.0639  0.3829
13048TIP3   OH260634   5.563   4.881  14.851  0.4768  0.5622 -0.0243
13048TIP3    H160635   5.503   4.877  14.777  1.2016  2.9738 -0.8345
13048TIP3    H260636   5.530   4.815  14.912 -1.3112 -0.1263 -1.6255
13049TIP3   OH260637   6.202   5.251   1.307 -0.0386  0.4892 -0.1991
13049TIP3    H160638   6.290   5.233   1.273  1.0323  1.4335  1.8777
13049TIP3    H260639   6.206   5.227   1.400 -2.4081 -0.7323 -0.3375
13050TIP3   OH260640   3.960   6.098   3.700  0.6226  0.4873 -0.1641
13050TIP3    H160641   3.884   6.121   3.648  1.1074  0.8268 -0.7327
13050TIP3    H260642   4.035   6.124   3.647  1.1533 -0.5126  0.0619
13051TIP3   OH260643   3.509   3.753   2.829  0.0700 -0.1140 -0.3081
13051TIP3    H160644   3.479   3.843   2.813 -1.1992 -0.4231  0.1995
13051TIP3    H260645   3.531   3.752   2.922 -1.5028 -0.7343  0.0868
13052TIP3   OH260646   3.317   1.045   3.061  0.0649  0.2707  0.1897
13052TIP3    H160647   3.401   1.057   3.017  0.0011 -0.4736 -0.1583
13052TIP3    H260648   3.266   0.989   3.002 -1.7195  2.8588 -0.9155
13053TIP3   OH260649   2.418   4.287   1.234  0.2706 -0.1214  0.0027
13053TIP3    H160650   2.407   4.294   1.139 -0.0391 -0.7004 -0.0064
13053TIP3    H260651   2.454   4.199   1.247  0.9137  0.1959  0.3716
13054TIP3   OH260652   3.409   1.158  11.907 -0.1795  0.3065 -0.0283
13054TIP3    H160653   3.437   1.080  11.955 -0.5016 -0.7200 -1.4252
13054TIP3    H260654   3.324   1.134  11.870 -1.4843  2.2216  1.5145
13055TIP3   OH260655   6.229   1.369  16.620 -0.7033 -0.0372  0.4756
13055TIP3    H160656   6.164   1.307  16.654 -1.4102 -0.7588 -2.0175
13055TIP3    H260657   6.314   1.330  16.642 -1.0989 -0.3314  1.5652
13056TIP3   OH260658   3.045   6.582  16.272 -0.3594 -0.2693  0.1864
13056TIP3    H160659   3.139   6.593  16.255  0.1970 -2.4564  1.4720
13056TIP3    H260660   3.008   6.562  16.186  0.3859  0.3709 -0.2991
13057TIP3   OH260661   4.634   1.914   2.101  0.4025  0.3604  0.2775
13057TIP3    H160662   4.574   1.855   2.146  0.6796  0.1478  0.3730
13057TIP3    H260663   4.639   1.879   2.012  0.3188  0.4291  0.2454
13058TIP3   OH260664   3.640   0.812  15.031 -0.0830 -0.0952  0.7089
13058TIP3    H160665   3.618   0.771  14.947  0.9873  0.1801  0.2861
13058TIP3    H260666   3.654   0.739  15.091 -2.0624 -0.2901  0.9956
13059TIP3   OH260667   1.341   0.315  17.177 -0.0096 -0.4193  0.4133
13059TIP3    H160668   1.335   0.313  17.273 -0.1805 -0.6798  0.3994
13059TIP3    H260669   1.371   0.228  17.153  2.2419  0.3034  0.3672
13060TIP3   OH260670   6.631   3.117  17.078  0.0473 -0.2745  0.2242
13060TIP3    H160671   6.630   3.098  16.984  1.6947  0.2807  0.0658
13060TIP3    H260672   6.598   3.037  17.118 -0.2930 -0.6707 -0.7952
13061TIP3   OH260673   1.306   4.188   4.919 -0.5112 -0.3152 -0.1651
13061TIP3    H160674   1.373   4.219   4.979 -0.7366  0.7389 -0.4342
13061TIP3    H260675   1.343   4.202   4.832 -1.3932  1.1061 -0.3468
13062TIP3   OH260676   6.098   1.617  16.957  0.4154  0.7574  0.5061
13062TIP3    H160677   6.117   1.685  16.892 -0.2267 -0.6972 -1.3010
13062TIP3    H260678   6.005   1.597  16.944  0.9180 -1.4840 -0.1009
13063TIP3   OH260679   2.632   0.333   5.705 -0.1864  0.4317  0.2991
13063TIP3    H160680   2.586   0.313   5.623 -2.1542  1.6843  1.0046
13063TIP3    H260681   2.569   0.310   5.774  2.6430 -4.1012  1.8637
13064TIP3   OH260682   0.634   0.564   5.820  0.4853  0.0264 -0.2170
13064TIP3    H160683   0.615   0.531   5.908  1.7187 -0.3959 -0.0895
13064TIP3    H260684   0.616   0.658   5.826  2.0992  0.3100  0.9914
13065TIP3   OH260685   5.164   3.206   0.895  0.3060 -0.5354 -0.0086
13065TIP3    H160686   5.094   3.202   0.960 -1.1061  2.0238 -1.2020
13065TIP3    H260687   5.126   3.165   0.817  0.5759 -0.2216 -0.3077
13066TIP3   OH260688   4.666   2.243  15.692 -0.6590 -0.0662  0.1562
13066TIP3    H160689   4.672   2.291  15.609  1.4756  0.2794  0.4631
13066TIP3    H260690   4.755   2.244  15.727 -1.2651 -1.2984  1.8581
13067TIP3   OH260691   5.662   0.438  13.342  0.0372  0.7241 -0.1464
13067TIP3    H160692   5.616   0.492  13.278  0.1380  0.4270 -0.4719
13067TIP3    H260693   5.691   0.500  13.409 -1.9465  0.7602  0.7444
13068TIP3   OH260694   2.679   4.432   1.972  0.1882 -1.2190  0.2015
13068TIP3    H160695   2.587   4.424   1.995  0.2611 -1.9855  0.2627
13068TIP3    H260696   2.702   4.522   1.994 -0.2364 -1.3729  1.3121
13069TIP3   OH260697   5.594   5.362   1.406  0.2126  0.5314 -0.9135
13069TIP3    H160698   5.577   5.325   1.493  1.4080  0.1175 -0.8386
13069TIP3    H260699   5.684   5.393   1.411  0.6169 -0.3391 -2.2947
13070TIP3   OH260700   2.523   4.334  12.391  0.7028 -0.1209  0.0862
13070TIP3    H160701   2.435   4.326  12.427  0.6922 -1.8904 -0.2465
13070TIP3    H260702   2.573   4.265  12.435  2.1018  1.2335  0.7039
13071TIP3   OH260703   1.661   4.029   0.896 -0.6874  0.2349  0.6552
13071TIP3    H160704   1.572   4.055   0.923 -0.4526  0.7623  0.9409
13071TIP3    H260705   1.717   4.097   0.932 -0.4633  1.7393 -2.2476
13072TIP3   OH260706   0.238   4.508  14.768 -0.0068 -0.8495 -0.0235
13072TIP3    H160707   0.217   4.418  14.795  1.1240 -0.8025  1.0839
13072TIP3    H260708   0.330   4.519  14.792 -1.1172  1.9907  3.7682
13073TIP3   OH260709   6.750   0.553   6.217  0.2778 -0.0815  0.3311
13073TIP3    H160710   6.771   0.598   6.299 -0.5744  0.4311  0.2794
13073TIP3    H260711   6.757   0.621   6.150  1.4819 -0.6099 -0.1142
13074TIP3   OH260712   1.907   0.186   5.978  0.0544 -0.2585  0.4772
13074TIP3    H160713   1.823   0.172   5.933 -0.8050  1.0370  1.6323
13074TIP3    H260714   1.973   0.177   5.909 -1.0735 -0.6396 -0.5766
13075TIP3   OH260715   5.245   2.704   2.504  0.1217 -0.0732  0.1032
13075TIP3    H160716   5.203   2.704   2.590  1.6072 -0.0468  0.8581
13075TIP3    H260717   5.315   2.640   2.512  0.8967  0.6420 -0.7738
13076TIP3   OH260718   4.608   5.329   0.705  0.1366  0.6200  0.1280
13076TIP3    H160719   4.681   5.298   0.759 -0.1981  1.3737  1.0480
13076TIP3    H260720   4.639   5.412   0.669  0.1170  0.4317 -0.3297
13077TIP3   OH260721   0.175   2.218   1.193  0.1228  0.1325 -0.2134
13077TIP3    H160722   0.257   2.180   1.224 -0.3978 -0.7552  0.1215
13077TIP3    H260723   0.139   2.263   1.269  0.3680  0.6595 -0.4037
13078TIP3   OH260724   5.654   3.334  11.753 -0.0051  0.3017  0.2199
13078TIP3    H160725   5.703   3.331  11.670 -0.6609 -2.1295 -0.1608
13078TIP3    H260726   5.640   3.427  11.769 -1.4535  0.8867 -3.3683
13079TIP3   OH260727   5.129   4.249  15.484 -0.0317  0.0556 -0.1655
13079TIP3    H160728   5.149   4.281  15.396 -0.6083  3.1456  0.6856
13079TIP3    H260729   5.035   4.230  15.482  0.0893 -0.5446 -0.3726
13080TIP3   OH260730   3.860   5.992   6.736  0.4661 -0.3466 -0.7138
13080TIP3    H160731   3.949   6.007   6.766  0.9708 -2.2034 -1.1316
13080TIP3    H260732   3.869   5.966   6.644 -0.4943 -0.5220 -0.7740
13081TIP3   OH260733   2.152   2.383  14.662  0.5057  0.4314  0.4838
13081TIP3    H160734   2.235   2.408  14.703  1.1651 -1.6854  0.5753
13081TIP3    H260735   2.177   2.349  14.576 -0.3164  0.2337  0.3130
13082TIP3   OH260736   6.561   3.913   6.204 -0.1816  0.1246  0.1578
13082TIP3    H160737   6.603   3.832   6.175 -1.1307 -0.3882  0.1686
13082TIP3    H260738   6.472   3.907   6.170 -0.4530  0.8712  0.7109
13083TIP3   OH260739   6.686   4.501  15.643  0.6129  0.2783 -0.1647
13083TIP3    H160740   6.765   4.478  15.692  0.6673  0.7352 -0.0366
13083TIP3    H260741   6.712   4.577  15.590  0.4543  0.0082 -0.6337
13084TIP3   OH260742   2.689   6.146   1.247  0.1417 -0.0371 -0.0275
13084TIP3    H160743   2.667   6.097   1.168 -0.4983 -0.2765  0.2947
13084TIP3    H260744   2.727   6.081   1.306  1.0555  0.2292 -0.2977
13085TIP3   OH260745   2.279   6.461  16.470 -0.7889 -0.1917 -0.4379
13085TIP3    H160746   2.324   6.540  16.498 -2.1699 -0.1610  1.8775
13085TIP3    H260747   2.295   6.457  16.375  1.6585  1.2876 -0.1697
13086TIP3   OH260748   4.188   4.092   4.170  0.4194  0.6888  0.1625
13086TIP3    H160749   4.178   4.109   4.264 -1.8971  0.7119 -0.0238
13086TIP3    H260750   4.226   4.004   4.165  2.6123  1.5038  1.0684
13087TIP3   OH260751   5.482   2.862  13.455  0.2882 -0.3647  0.7564
13087TIP3    H160752   5.421   2.832  13.388 -0.5836 -0.0111  1.3758
13087TIP3    H260753   5.552   2.906  13.405 -2.0077  2.9497  0.1435
13088TIP3   OH260754   1.020   0.989   1.357 -0.1459  0.2431 -0.0745
13088TIP3    H160755   0.953   1.025   1.415  0.2958 -1.1313  1.3618
13088TIP3    H260756   1.101   1.030   1.386 -0.1403  0.7346 -0.7786
13089TIP3   OH260757   0.878   2.695  13.686 -0.3242 -0.1981 -0.6624
13089TIP3    H160758   0.802   2.682  13.630 -0.9202  0.9594 -0.1580
13089TIP3    H260759   0.852   2.657  13.771  0.3988 -1.5246 -1.0026
13090TIP3   OH260760   6.124   6.647  14.709  0.0308 -0.3750 -0.4851
13090TIP3    H160761   6.049   6.657  14.651 -1.6114  3.5753  1.9661
13090TIP3    H260762   6.165   6.733  14.710  0.9297 -0.7331  2.9085
13091TIP3   OH260763   4.027   4.037   6.036  0.6728 -0.0390  0.1116
13091TIP3    H160764   4.033   3.977   6.111 -0.1327 -1.8583 -1.2027
13091TIP3    H260765   3.990   3.983   5.966 -0.3555  2.1109 -1.0758
13092TIP3   OH260766   0.034   3.038   3.588  0.2008  0.0747  0.4553
13092TIP3    H160767   0.091   2.965   3.564  0.0882  0.3191 -0.6346
13092TIP3    H260768   0.087   3.091   3.648  2.1647  1.6120 -2.3872
13093TIP3   OH260769   1.286   0.037  16.741  0.4086 -0.2451  0.5893
13093TIP3    H160770   1.283   0.006  16.831  2.9856 -4.2246 -0.4565
13093TIP3    H260771   1.225  -0.020  16.694  1.2158 -0.1540 -0.6108
13094TIP3   OH260772   1.022   3.605   0.496 -0.6943 -0.1229  0.1163
13094TIP3    H160773   1.079   3.681   0.481 -2.4953  1.1418 -0.5785
13094TIP3    H260774   0.936   3.632   0.465 -1.2908 -2.6747 -0.7384
13095TIP3   OH260775   0.294   2.904   5.512 -0.4042  0.7472 -0.0265
13095TIP3    H160776   0.283   2.825   5.459 -0.7623 -0.1886  1.3859
13095TIP3    H260777   0.385   2.901   5.540 -0.1516  1.3642 -0.7431
13096TIP3   OH260778   2.782   3.690  16.102  0.3684 -0.1115 -0.3696
13096TIP3    H160779   2.708   3.703  16.043  0.5775  0.3221 -0.5363
13096TIP3    H260780   2.751   3.623  16.164 -0.3711  0.4671 -0.0987
13097TIP3   OH260781   2.606   6.460  13.150  0.2804 -0.5753  0.5101
13097TIP3    H160782   2.543   6.442  13.219  1.3150  0.1315  1.6847
13097TIP3    H260783   2.558   6.443  13.069 -2.0404  1.7605  1.2642
13098TIP3   OH260784   5.247   2.553   6.591  0.0146 -0.0788 -0.1170
13098TIP3    H160785   5.342   2.563   6.592  0.0973 -0.8717  0.5409
13098TIP3    H260786   5.216   2.606   6.664 -0.2854  2.0760 -1.6796
13099TIP3   OH260787   6.255   4.349   2.007  0.3305 -0.1071 -0.2273
13099TIP3    H160788   6.246   4.276   1.946  1.3461  0.4117 -1.0334
13099TIP3    H260789   6.168   4.360   2.044 -0.6192  0.2110 -2.3820
13100TIP3   OH260790   4.391   1.314   2.778  0.2582  0.6130  0.3524
13100TIP3    H160791   4.377   1.235   2.725  0.3456 -0.4240  1.8122
13100TIP3    H260792   4.331   1.378   2.741 -0.3265 -0.3570 -0.4372
13101TIP3   OH260793   2.005   5.504  15.542  0.1832 -0.3796  0.8938
13101TIP3    H160794   1.959   5.558  15.606  1.5733 -0.4892  2.0321
13101TIP3    H260795   1.937   5.477  15.481 -0.7725  1.5997  1.0132
13102TIP3   OH260796   1.114   5.438   4.876  0.0017 -0.0157 -0.2276
13102TIP3    H160797   1.177   5.395   4.934  1.1727  1.7300 -0.1248
13102TIP3    H260798   1.116   5.530   4.901 -0.6814  0.5274 -1.9511
13103TIP3   OH260799   1.848   4.270   0.981  0.0518 -0.1795  0.3919
13103TIP3    H160800   1.807   4.313   1.056 -3.1599 -2.3014  0.0230
13103TIP3    H260801   1.927   4.230   1.017 -0.5348  0.2353  2.2750
13104TIP3   OH260802   2.008   3.881   0.115  0.5390 -0.1889 -0.3208
13104TIP3    H160803   2.045   3.863   0.202 -1.7189 -0.6753  0.6155
13104TIP3    H260804   1.950   3.956   0.129 -0.9659 -1.1741 -1.0394
13105TIP3   OH260805   6.242   4.846  15.131 -0.0055 -0.1652 -0.3538
13105TIP3    H160806   6.275   4.913  15.071 -0.7247  0.7400  0.2273
13105TIP3    H260807   6.147   4.850  15.121 -0.1605  0.2116  1.0434
13106TIP3   OH260808   3.734   4.857  10.384  0.2007  0.6409  0.5193
13106TIP3    H160809   3.826   4.881  10.367  0.1160  0.3220 -0.4902
13106TIP3    H260810   3.731   4.836  10.477  1.4089 -0.3676  0.3645
13107TIP3   OH260811   1.350   3.649  14.464 -0.1073 -0.6316  0.5777
13107TIP3    H160812   1.263   3.636  14.499 -0.5189 -1.0939 -0.5638
13107TIP3    H260813   1.395   3.702  14.530 -0.6124 -2.0012  2.0854
13108TIP3   OH260814   6.488   4.504   4.024  0.5887  0.1874  0.3526
13108TIP3    H160815   6.440   4.578   3.988 -0.2735 -1.1139 -1.3459
13108TIP3    H260816   6.516   4.533   4.111  0.4670  2.5470 -0.3195
13109TIP3   OH260817   1.434   6.578  13.911  0.0193  0.2337  0.9108
13109TIP3    H160818   1.486   6.501  13.935 -0.2300 -0.9525 -1.8944
13109TIP3    H260819   1.452   6.642  13.979  4.7037 -0.2887  0.4696
13110TIP3   OH260820   0.573   2.169  11.763  0.1717  0.7601 -0.2703
13110TIP3    H160821   0.493   2.216  11.785  0.4574  1.4336 -0.6525
13110TIP3    H260822   0.559   2.081  11.799 -0.2991  1.1725  0.5858
13111TIP3   OH260823   1.702   2.548  11.291  0.1828 -0.2981 -0.3279
13111TIP3    H160824   1.616   2.524  11.258  0.7162 -0.7796 -1.4051
13111TIP3    H260825   1.761   2.480  11.258  0.8601 -0.4284  1.0578
13112TIP3   OH260826   1.647   1.726   1.892  0.3730 -0.2136 -0.1200
13112TIP3    H160827   1.577   1.701   1.832  1.5410  1.2493 -2.2291
13112TIP3    H260828   1.689   1.644   1.916 -2.2597 -1.2045  1.6345
13113TIP3   OH260829   5.187   2.523   6.206 -0.1057 -0.1538  0.6036
13113TIP3    H160830   5.142   2.472   6.273  0.9959 -1.4663  0.3744
13113TIP3    H260831   5.171   2.614   6.231 -1.9970 -0.5828  1.0983
13114TIP3   OH260832   5.032   5.510   2.693  0.2353  0.0216  0.1485
13114TIP3    H160833   5.048   5.420   2.664  0.9559 -0.4741  1.9843
13114TIP3    H260834   5.004   5.502   2.784  2.1033  1.7553  0.9623
13115TIP3   OH260835   6.067   6.093   3.836  0.6939  0.6285  0.1885
13115TIP3    H160836   6.149   6.140   3.849  0.7655  0.3098  0.9699
13115TIP3    H260837   6.004   6.142   3.889  1.2138 -1.3367  2.8289
13116TIP3   OH260838   3.162   3.828   0.750  0.3043  0.8287 -0.9002
13116TIP3    H160839   3.074   3.865   0.760  0.0595  0.1668 -0.4828
13116TIP3    H260840   3.147   3.746   0.702  0.5244  0.0809  0.2708
13117TIP3   OH260841   1.154   2.759   4.530 -0.0509  0.2939  1.2457
13117TIP3    H160842   1.071   2.791   4.567 -0.4121  0.5557  0.2440
13117TIP3    H260843   1.146   2.664   4.533 -0.4879  0.3181  0.9426
13118TIP3   OH260844   0.110   1.668  15.096 -0.2121 -0.0332 -0.4082
13118TIP3    H160845   0.067   1.719  15.165 -0.6577 -0.6442 -0.2309
13118TIP3    H260846   0.046   1.601  15.072  0.3096 -0.4157 -0.7477
13119TIP3   OH260847   6.739   2.025  13.838 -0.2421 -0.0556 -0.1133
13119TIP3    H160848   6.698   1.968  13.773 -2.3110  0.7228  0.4306
13119TIP3    H260849   6.783   1.965  13.899 -0.8472 -0.9674 -0.5578
13120TIP3   OH260850   4.521   2.165  11.486  0.0059 -0.0961  0.0024
13120TIP3    H160851   4.510   2.133  11.396 -0.3636 -1.2155  0.4369
13120TIP3    H260852   4.594   2.114  11.521 -0.2474 -0.0930  0.5401
13121TIP3   OH260853   1.594   1.226   0.477 -0.2268 -0.2969 -0.3916
13121TIP3    H160854   1.593   1.131   0.466 -2.4769 -0.5178  1.1017
13121TIP3    H260855   1.617   1.238   0.570 -0.5755  0.5991 -0.4220
13122TIP3   OH260856   2.988   0.338   3.615 -0.1542 -0.0240  0.3639
13122TIP3    H160857   3.004   0.423   3.656 -0.6163  0.9096 -1.2815
13122TIP3    H260858   3.037   0.342   3.533 -0.6317 -1.1241  0.0136
13123TIP3   OH260859   0.376   1.701   0.912  0.0738  0.6033 -0.1382
13123TIP3    H160860   0.301   1.643   0.928  0.4377  0.1880  0.0782
13123TIP3    H260861   0.338   1.776   0.866 -0.3226 -0.0354 -0.8846
13124TIP3   OH260862   4.577   2.584   5.936  0.1312  0.1949  0.3003
13124TIP3    H160863   4.580   2.680   5.936 -2.5411  0.3765 -1.1640
13124TIP3    H260864   4.489   2.563   5.966 -0.9666 -1.5878 -3.6512
13125TIP3   OH260865   2.314   4.363  17.062  0.5805 -0.0087 -0.4740
13125TIP3    H160866   2.404   4.358  17.094 -0.0537  0.9385  1.5580
13125TIP3    H260867   2.267   4.415  17.127 -1.3127  0.0819 -1.8208
13126TIP3   OH260868   2.065   4.859  14.811 -0.0061 -0.3178 -0.0826
13126TIP3    H160869   2.143   4.909  14.834 -0.6700  1.2210 -0.9635
13126TIP3    H260870   2.087   4.817  14.728 -0.5844  1.4566 -1.2142
13127TIP3   OH260871   4.944   2.790  14.754 -0.8615 -0.6122  0.1737
13127TIP3    H160872   4.869   2.752  14.708 -0.9419  0.7554 -0.8794
13127TIP3    H260873   4.923   2.779  14.847 -2.7465  0.4113 -0.0786
13128TIP3   OH260874   0.898   6.085   1.261 -0.1686 -0.1784 -0.7893
13128TIP3    H160875   0.861   6.080   1.173 -0.7329 -0.0415 -0.5705
13128TIP3    H260876   0.992   6.084   1.248 -0.2185  1.5550 -1.5013
13129TIP3   OH260877   5.933   6.350   4.247  0.3979  0.0723  0.2863
13129TIP3    H160878   5.858   6.343   4.306  1.0788 -1.5895  1.0094
13129TIP3    H260879   5.980   6.427   4.278  1.1355 -1.1660  2.4669
13130TIP3   OH260880   0.004   4.017  15.852  0.1439  0.2263 -0.8636
13130TIP3    H160881   0.091   4.055  15.838 -0.8042  3.3334  0.6699
13130TIP3    H260882  -0.052   4.064  15.790 -0.5225 -1.6595 -1.7523
13131TIP3   OH260883   5.671   0.201  12.013  0.1553  0.5729  0.2514
13131TIP3    H160884   5.711   0.172  12.095 -1.4418 -2.9042 -0.0332
13131TIP3    H260885   5.578   0.210  12.033 -0.2564 -0.2731 -1.0979
13132TIP3   OH260886   3.630   1.518  11.359  0.0615  0.0418 -0.2627
13132TIP3    H160887   3.571   1.568  11.303 -0.5510  1.4703  1.5919
13132TIP3    H260888   3.699   1.579  11.383  0.1254 -0.4386  0.8236
13133TIP3   OH260889   4.503   0.271  12.074 -0.1568  0.1561  0.4902
13133TIP3    H160890   4.465   0.290  11.988  0.7613  1.2879  0.3065
13133TIP3    H260891   4.491   0.352  12.124 -2.2733 -1.0421  2.0824
13134TIP3   OH260892   3.583   2.000  13.073  0.5288  0.6402  0.9893
13134TIP3    H160893   3.654   1.940  13.098  0.0559 -0.0380  0.7150
13134TIP3    H260894   3.588   2.071  13.138  1.9686  1.0270  0.5100
13135TIP3   OH260895   2.297   3.895  11.666  0.6391  0.0661 -0.1115
13135TIP3    H160896   2.331   3.815  11.705 -0.5785 -0.5368 -0.2422
13135TIP3    H260897   2.303   3.961  11.736  2.1830  0.0295 -0.1849
13136TIP3   OH260898   2.763   5.224  17.435 -0.0661 -0.1179 -0.1864
13136TIP3    H160899   2.818   5.165  17.487 -0.4066 -0.2581  0.0144
13136TIP3    H260900   2.748   5.177  17.354  0.2287 -0.0194 -0.3004
13137TIP3   OH260901   0.523   6.767  13.227 -0.2209  0.1668 -0.1326
13137TIP3    H160902   0.589   6.752  13.160  0.6433  0.2439  0.6758
13137TIP3    H260903   0.498   6.680  13.257 -1.9741  0.0313 -1.7956
13138TIP3   OH260904   3.287   3.737  12.009  0.1256  0.1757  0.0626
13138TIP3    H160905   3.241   3.817  12.034 -2.8102 -1.7686  1.5067
13138TIP3    H260906   3.223   3.667  12.024  3.0197 -2.6340  0.4416
13139TIP3   OH260907   3.495   0.968   4.848  0.5186 -0.6010 -0.1554
13139TIP3    H160908   3.423   1.025   4.822  0.7079 -1.0399 -1.7055
13139TIP3    H260909   3.462   0.879   4.834  1.1894 -0.8187 -0.3938
13140TIP3   OH260910   0.573   6.019  12.585  0.1007 -0.4733 -0.1598
13140TIP3    H160911   0.543   5.936  12.547 -0.5592 -0.6685  0.7727
13140TIP3    H260912   0.668   6.009  12.591 -0.0125 -1.3378  0.3363
13141TIP3   OH260913   5.341   2.848   5.606  0.3852 -0.0439  0.3841
13141TIP3    H160914   5.305   2.827   5.692  0.3746  1.8337  0.8849
13141TIP3    H260915   5.431   2.876   5.624  0.9751 -1.3189 -0.4486
13142TIP3   OH260916   2.903   6.690  15.698 -0.4884  0.2661  0.9647
13142TIP3    H160917   2.881   6.756  15.633  1.7270 -0.1441 -0.2978
13142TIP3    H260918   2.926   6.740  15.776  1.2322  1.0582  0.0057
13143TIP3   OH260919   3.142   3.468   4.741 -0.3172  0.1714  0.0727
13143TIP3    H160920   3.138   3.560   4.714  0.5542  0.0923 -0.3407
13143TIP3    H260921   3.117   3.470   4.833  0.0029  0.8629  0.1524
13144TIP3   OH260922   3.272   0.359  12.387  0.1318 -0.2262  0.4419
13144TIP3    H160923   3.287   0.293  12.455 -0.2823 -1.5028 -0.6791
13144TIP3    H260924   3.335   0.338  12.319 -0.5232  0.0507 -0.2614
13145TIP3   OH260925   0.134   4.727   6.028  0.5195 -0.1783  0.1248
13145TIP3    H160926   0.162   4.721   5.936  0.6538 -1.3502  0.2323
13145TIP3    H260927   0.200   4.784   6.069  1.3887 -0.9555 -0.1563
13146TIP3   OH260928   6.052   4.018  17.496 -0.0523  0.3906  0.6930
13146TIP3    H160929   6.014   3.962  17.429  0.1004  0.4976  0.5195
13146TIP3    H260930   6.109   3.961  17.546  0.9217  0.6229 -0.1336
13147TIP3   OH260931   1.295   1.839  16.811 -0.4735 -0.4485  0.3028
13147TIP3    H160932   1.260   1.750  16.817 -1.9151  0.0948  0.2793
13147TIP3    H260933   1.352   1.848  16.888  0.2009 -1.5828 -0.0310
13148TIP3   OH260934   5.941   3.687  14.514  0.4006 -0.4093 -0.3192
13148TIP3    H160935   5.892   3.674  14.433  2.2067 -0.4843 -1.4700
13148TIP3    H260936   6.013   3.624  14.508  1.5545  0.7720  0.4922
13149TIP3   OH260937   1.403   1.714   0.253 -0.2294  0.0111 -0.0769
13149TIP3    H160938   1.369   1.659   0.182 -0.7658 -1.5736  1.3254
13149TIP3    H260939   1.448   1.786   0.209 -2.4094  0.2922 -2.0160
13150TIP3   OH260940   2.815   5.156  16.948  0.2878 -0.6563 -0.1205
13150TIP3    H160941   2.739   5.210  16.969  1.0861  0.2956  0.4334
13150TIP3    H260942   2.850   5.194  16.867  0.0323 -1.2618 -0.5263
13151TIP3   OH260943   1.974   2.617   3.241 -0.4019 -0.2412 -0.4427
13151TIP3    H160944   1.971   2.522   3.245  1.8784 -0.5663 -3.1704
13151TIP3    H260945   1.884   2.643   3.218 -0.8721 -1.7874 -0.4420
13152TIP3   OH260946   3.806   5.069  14.740  0.2496  0.5560 -0.0772
13152TIP3    H160947   3.734   5.090  14.800 -0.0556  1.4893 -0.7369
13152TIP3    H260948   3.881   5.116  14.775  0.7491 -0.9732  1.0046
13153TIP3   OH260949   4.665   0.352   6.690  0.3187  0.0225  0.2529
13153TIP3    H160950   4.669   0.447   6.696  0.9508  0.1049 -1.0528
13153TIP3    H260951   4.739   0.328   6.634  0.9567 -1.3540  1.6016
13154TIP3   OH260952   1.003   6.069  14.459 -0.1907 -0.3394 -0.2087
13154TIP3    H160953   1.005   6.116  14.376  1.4314  1.7734  0.9335
13154TIP3    H260954   1.081   6.014  14.459 -0.5836 -0.9213 -0.3424
13155TIP3   OH260955   2.511   6.720   5.705 -0.2316  0.2854  0.5617
13155TIP3    H160956   2.444   6.658   5.677 -0.1477  1.1049 -1.6023
13155TIP3    H260957   2.472   6.766   5.779 -1.1571 -0.7608  0.7489
13156TIP3   OH260958   2.991   6.600   3.372  0.7547  0.9334 -0.1583
13156TIP3    H160959   3.079   6.566   3.386  0.2397 -0.4227 -0.0530
13156TIP3    H260960   2.966   6.637   3.457  0.9443  0.6385  0.0283
13157TIP3   OH260961   5.346   3.460  16.808 -0.0654  0.2151  0.3308
13157TIP3    H160962   5.380   3.548  16.823 -0.3496  0.2994  0.4952
13157TIP3    H260963   5.423   3.403  16.813  0.2428  0.5422 -0.6091
13158TIP3   OH260964   1.604   2.380   5.606  0.3118 -0.9003  0.2802
13158TIP3    H160965   1.581   2.409   5.694  0.6192 -0.1710  0.1311
13158TIP3    H260966   1.700   2.377   5.606  0.4632  1.5305 -0.7332
13159TIP3   OH260967   6.712   6.281   5.260 -0.2848 -0.3454  0.4917
13159TIP3    H160968   6.750   6.195   5.276  0.7913  0.3860  2.1894
13159TIP3    H260969   6.653   6.296   5.334  0.9915  1.1091  1.2795
13160TIP3   OH260970   0.258   0.155  17.442  0.1132  0.3707  0.9850
13160TIP3    H160971   0.244   0.243  17.477  2.0680  0.8624  0.6790
13160TIP3    H260972   0.354   0.145  17.440 -0.0289 -1.1800 -0.4015
13161TIP3   OH260973   6.131   0.642  15.320  0.1212 -0.0868  0.0978
13161TIP3    H160974   6.191   0.700  15.274  0.6981  0.3212  1.3124
13161TIP3    H260975   6.182   0.607  15.392 -0.5484 -1.2674  0.0208
13162TIP3   OH260976   2.963   5.110  13.146 -0.0318 -0.7257  0.0628
13162TIP3    H160977   3.024   5.136  13.215  1.3424 -0.0711 -1.3488
13162TIP3    H260978   2.979   5.017  13.133  0.7146 -0.5531 -0.3153
13163TIP3   OH260979   2.692   0.255  11.806 -0.3024  0.5893  0.0062
13163TIP3    H160980   2.612   0.283  11.762  0.3053  2.7953  0.1743
13163TIP3    H260981   2.741   0.336  11.821  1.6781 -0.6159  0.4907
13164TIP3   OH260982   2.828   6.441  15.581  0.0429  0.4405 -0.4478
13164TIP3    H160983   2.900   6.384  15.609  0.6085  1.6344  0.6079
13164TIP3    H260984   2.855   6.529  15.606 -0.8453  1.2003 -1.9899
13165TIP3   OH260985   0.564   5.175  15.655 -0.1852 -0.2774 -0.2836
13165TIP3    H160986   0.525   5.257  15.686  0.7335  0.0589  0.0418
13165TIP3    H260987   0.607   5.199  15.573  0.0316 -0.4451 -0.2191
13166TIP3   OH260988   1.056   6.249  17.069  0.7078  0.1470  0.4700
13166TIP3    H160989   1.145   6.222  17.048  0.6490 -1.2437  1.8552
13166TIP3    H260990   1.020   6.177  17.121 -0.8001  1.2259  1.0037
13167TIP3   OH260991   3.803   0.179  14.855 -0.0192  0.0681 -0.2632
13167TIP3    H160992   3.840   0.238  14.920  0.3728 -0.8400  0.3652
13167TIP3    H260993   3.879   0.148  14.805 -0.1134 -0.5437 -0.0375
13168TIP3   OH260994   0.663   4.919   2.556  0.2215 -0.0370 -0.1866
13168TIP3    H160995   0.641   4.833   2.520  0.7869 -0.8663  1.3682
13168TIP3    H260996   0.603   4.979   2.511 -0.3751 -1.2686 -1.1067
13169TIP3   OH260997   4.048   5.363  13.088 -0.2287 -0.0548 -0.0227
13169TIP3    H160998   4.012   5.396  13.170 -0.0928 -1.2701  0.5497
13169TIP3    H260999   3.973   5.324  13.043  0.2233 -2.2350  0.9925
13170TIP3   OH261000   4.104   3.609  14.448 -0.1047 -0.1882  0.2189
13170TIP3    H161001   4.104   3.682  14.386  1.6222 -0.6376 -0.3745
13170TIP3    H261002   4.013   3.600  14.475 -0.8129  0.4083 -1.8180
13171TIP3   OH261003   4.205   4.179   4.427  0.2216  0.4593  0.2370
13171TIP3    H161004   4.167   4.118   4.490 -0.5058 -1.1006 -1.6194
13171TIP3    H261005   4.222   4.259   4.478 -3.5957  0.5357  1.6768
13172TIP3   OH261006   0.299   4.658  12.149  0.7658  0.0470  0.0347
13172TIP3    H161007   0.357   4.667  12.225 -0.1921 -2.5430  1.2077
13172TIP3    H261008   0.225   4.608  12.182 -0.4289  0.1570 -2.2880
13173TIP3   OH261009   2.015   3.318  12.114 -0.5775 -0.5849  0.2436
13173TIP3    H161010   1.959   3.293  12.187  0.1228 -1.6222  0.4491
13173TIP3    H261011   1.959   3.309  12.037 -1.1509 -0.0501  0.5955
13174TIP3   OH261012   5.867   6.550  11.407 -0.0071  0.0634 -0.2794
13174TIP3    H161013   5.962   6.559  11.400  0.0662  0.0303  0.5603
13174TIP3    H261014   5.847   6.469  11.359  0.4932 -0.3533  0.2000
13175TIP3   OH261015   1.769   3.132   4.090 -0.6088  0.1585  0.2908
13175TIP3    H161016   1.838   3.065   4.079  0.0092  0.9622 -0.9869
13175TIP3    H261017   1.696   3.099   4.038 -0.6999 -0.0515  0.5523
13176TIP3   OH261018   5.745   1.306  15.686  0.3734  0.5552 -0.2107
13176TIP3    H161019   5.833   1.345  15.679  1.3245 -1.7421 -2.2525
13176TIP3    H261020   5.696   1.346  15.614  1.0941 -1.2118 -1.7620
13177TIP3   OH261021   4.626   4.099  13.133  0.5285  0.2181  0.0731
13177TIP3    H161022   4.714   4.113  13.098  0.8341 -0.3922  0.5514
13177TIP3    H261023   4.625   4.149  13.215  0.7520 -0.4711  0.5129
13178TIP3   OH261024   4.585   3.303   3.558  0.6217  0.1186 -0.4653
13178TIP3    H161025   4.494   3.287   3.534  0.2705  1.1765  0.1111
13178TIP3    H261026   4.625   3.216   3.558 -0.7632 -0.5637  0.7801
13179TIP3   OH261027   5.321   6.470   1.601  0.0216 -0.0406  0.2348
13179TIP3    H161028   5.317   6.548   1.656  0.0861  1.2747 -1.5397
13179TIP3    H261029   5.399   6.482   1.547  0.6961 -1.9095  0.7110
13180TIP3   OH261030   1.941   3.660   0.845 -0.1367 -0.3742  0.0669
13180TIP3    H161031   1.884   3.591   0.810 -0.5239  0.6053 -1.2926
13180TIP3    H261032   2.015   3.613   0.882 -0.4527 -1.5285 -0.7283
13181TIP3   OH261033   2.652   6.073  10.903  0.3335  0.5006 -0.2306
13181TIP3    H161034   2.581   6.132  10.929  0.6083  0.5277  0.4796
13181TIP3    H261035   2.658   6.083  10.808 -1.1142 -0.0688 -0.4012
13182TIP3   OH261036   3.212   5.080   1.215  0.1341  0.1475  0.1005
13182TIP3    H161037   3.174   5.027   1.285  0.4800  0.0637  0.2288
13182TIP3    H261038   3.162   5.162   1.218 -1.2952 -0.6513 -0.9833
13183TIP3   OH261039   3.741   5.874  15.038 -0.1566 -0.1085  0.0431
13183TIP3    H161040   3.799   5.874  14.961  0.5308 -0.7652  0.5378
13183TIP3    H261041   3.800   5.888  15.112 -0.9611  1.7721  0.3818
13184TIP3   OH261042   5.649   2.759  14.180 -0.0028 -0.2049 -0.5579
13184TIP3    H161043   5.723   2.800  14.225 -0.2558  1.0270 -1.2196
13184TIP3    H261044   5.690   2.702  14.114  0.3766 -2.2911  1.3673
13185TIP3   OH261045   5.639   3.069  12.599  0.0331 -0.4539 -0.3219
13185TIP3    H161046   5.604   3.066  12.511  0.2233 -0.6052 -0.3926
13185TIP3    H261047   5.710   3.005  12.599 -0.6465 -1.2349  0.2412
13186TIP3   OH261048   0.560   0.237  14.853 -0.3843  0.1109  0.7307
13186TIP3    H161049   0.544   0.305  14.787 -1.4292 -2.9940 -2.5474
13186TIP3    H261050   0.473   0.209  14.881 -0.2119 -2.0896 -0.6531
13187TIP3   OH261051   4.349   3.862  15.384  0.3381 -0.0105 -0.2396
13187TIP3    H161052   4.355   3.866  15.480  0.1126  1.0909 -0.2626
13187TIP3    H261053   4.434   3.828  15.357  1.1531  1.5228  0.2628
13188TIP3   OH261054   0.900   5.608   3.402  0.2322 -0.4992 -0.0742
13188TIP3    H161055   0.807   5.630   3.399 -0.1115 -1.4699  1.9132
13188TIP3    H261056   0.914   5.552   3.325 -0.8731 -0.4913 -0.2975
13189TIP3   OH261057   0.798   0.083  13.921  0.1019  0.2068  0.1723
13189TIP3    H161058   0.764   0.137  13.850 -1.2722 -2.0159 -0.9724
13189TIP3    H261059   0.883   0.052  13.889 -0.8411 -1.3888 -0.8964
13190TIP3   OH261060   1.375   1.726   2.702  0.4902  0.3112  0.1354
13190TIP3    H161061   1.394   1.790   2.633 -0.2899 -1.2063 -1.5489
13190TIP3    H261062   1.371   1.778   2.782 -0.3452  2.4218 -1.1959
13191TIP3   OH261063   2.910   1.005   4.289  0.2452 -0.2236  0.0857
13191TIP3    H161064   2.911   0.984   4.382 -1.5446  1.2562  0.5023
13191TIP3    H261065   2.972   1.077   4.280  1.4470 -1.2452 -0.1629
13192TIP3   OH261066   1.945   4.685  13.281 -0.1948 -0.5671  0.3413
13192TIP3    H161067   1.990   4.752  13.332  0.1562  0.6305 -1.4496
13192TIP3    H261068   1.852   4.701  13.296 -0.0968 -0.1997  0.5585
13193TIP3   OH261069   5.502   3.227  14.941  0.4930 -0.1448  0.8776
13193TIP3    H161070   5.475   3.241  14.850  0.3292 -0.7543  0.8330
13193TIP3    H261071   5.566   3.296  14.957  3.1989 -2.0692 -0.8112
13194TIP3   OH261072   5.300   0.818   4.135  0.2821  0.4207  0.1710
13194TIP3    H161073   5.319   0.781   4.048 -1.7970  2.1605 -1.1438
13194TIP3    H261074   5.294   0.742   4.193  1.0713 -0.8538 -1.3404
13195TIP3   OH261075   2.997   4.335   2.965 -0.6357  0.4809  0.2231
13195TIP3    H161076   2.917   4.378   2.994 -2.1254 -1.8914 -0.1173
13195TIP3    H261077   2.980   4.310   2.875  0.5977  0.1423  0.0604
13196TIP3   OH261078   5.852   3.069  13.119  0.0922 -0.0631  0.0147
13196TIP3    H161079   5.888   2.984  13.145  2.5865  0.9034  0.0462
13196TIP3    H261080   5.828   3.058  13.027  2.0672 -0.4036 -0.5256
13197TIP3   OH261081   1.695   6.546  16.103 -0.4978  0.2084  0.0214
13197TIP3    H161082   1.784   6.518  16.127  0.0490 -0.8895 -2.9185
13197TIP3    H261083   1.653   6.468  16.070 -1.5438  1.3144 -1.3724
13198TIP3   OH261084   4.515   4.919  16.321 -0.6912 -0.0809 -0.4065
13198TIP3    H161085   4.457   4.964  16.260  0.3359  0.4337 -1.0333
13198TIP3    H261086   4.509   4.827  16.297 -0.6189  0.0703 -1.0063
13199TIP3   OH261087   3.269   3.848   2.556  0.2587 -0.3745  0.4312
13199TIP3    H161088   3.356   3.810   2.562  1.8980  2.5243 -1.7835
13199TIP3    H261089   3.247   3.844   2.462 -1.5319 -0.1129  0.7887
13200TIP3   OH261090   3.632   3.787   0.524 -0.1873  0.1626 -0.0648
13200TIP3    H161091   3.567   3.725   0.558 -1.9504  1.0066 -1.7336
13200TIP3    H261092   3.656   3.752   0.438 -0.6154  1.3715 -0.6891
13201TIP3   OH261093   3.539   1.509  17.422  0.1036 -0.2310 -0.4402
13201TIP3    H161094   3.523   1.477  17.510 -0.3038 -1.5617 -0.9663
13201TIP3    H261095   3.476   1.580  17.409  0.5333  0.3364  0.5113
13202TIP3   OH261096   2.219   2.884   2.116  0.2562  0.1837 -0.4827
13202TIP3    H161097   2.194   2.963   2.067  1.0604 -0.0742 -1.3543
13202TIP3    H261098   2.220   2.912   2.207 -2.0809  0.4744 -0.4867
13203TIP3   OH261099   0.793   5.968  16.264  0.5177 -0.4343 -0.2067
13203TIP3    H161100   0.740   6.047  16.279  1.7636  0.4007 -0.1121
13203TIP3    H261101   0.881   5.992  16.292  1.0657 -1.6542 -0.8038
13204TIP3   OH261102   0.623   5.853   6.507  0.0570 -0.1814  0.0970
13204TIP3    H161103   0.642   5.898   6.589  2.4133 -1.4359  0.3260
13204TIP3    H261104   0.657   5.764   6.520 -0.7995 -0.8393 -1.7520
13205TIP3   OH261105   3.825   0.207  13.028 -0.0586 -0.2916 -0.1290
13205TIP3    H161106   3.818   0.303  13.027 -0.2925 -0.3110 -0.2529
13205TIP3    H261107   3.770   0.180  13.101  0.0738 -0.3270 -0.0415
13206TIP3   OH261108   6.410   4.276   2.789  0.0382  0.1270 -0.3625
13206TIP3    H161109   6.383   4.213   2.855  0.8100 -0.2480 -0.3928
13206TIP3    H261110   6.358   4.253   2.712  0.2010 -0.3807 -0.3275
13207TIP3   OH261111   3.812   0.970  12.975  0.0145  0.3023  0.4686
13207TIP3    H161112   3.875   0.900  12.991  1.5451  1.0529 -1.6999
13207TIP3    H261113   3.866   1.049  12.967 -1.4282  1.3287  0.5833
13208TIP3   OH261114   2.178   2.474  15.723  0.2962 -0.6091  0.1579
13208TIP3    H161115   2.272   2.462  15.711  0.7826  1.5282  1.2187
13208TIP3    H261116   2.170   2.515  15.809 -1.4851  0.3503 -0.4038
13209TIP3   OH261117   1.995   5.848  13.260  0.3907  0.3869 -0.2366
13209TIP3    H161118   2.010   5.754  13.252  0.0857 -0.0071  2.8056
13209TIP3    H261119   1.924   5.867  13.199  0.1808 -1.4320 -0.5877
13210TIP3   OH261120   0.100   4.067   0.358 -0.5768  0.4775  0.4294
13210TIP3    H161121   0.186   4.092   0.324 -0.4591 -0.3615  0.0936
13210TIP3    H261122   0.057   4.023   0.285  0.0431 -2.2133  1.5844
13211TIP3   OH261123   1.664   0.986   1.537  0.0417  0.3270 -0.1856
13211TIP3    H161124   1.744   0.976   1.590  1.0669  1.2265 -1.4966
13211TIP3    H261125   1.593   0.969   1.598  1.2502 -1.8350  0.7289
13212TIP3   OH261126   0.924   5.781   4.132  0.0425 -0.3166 -0.0115
13212TIP3    H161127   0.956   5.855   4.080  1.4116 -0.8771  0.0057
13212TIP3    H261128   0.906   5.820   4.218 -0.8927  0.3259 -0.4747
13213TIP3   OH261129   6.250   1.344   3.452  0.1464  0.4631  0.1160
13213TIP3    H161130   6.169   1.356   3.502  0.2189 -0.0518  0.3589
13213TIP3    H261131   6.292   1.430   3.453 -0.0742  0.5664  0.5508
13214TIP3   OH261132   2.517   4.221  11.296 -0.0163  0.6538 -0.0124
13214TIP3    H161133   2.576   4.176  11.236  0.4597  1.5312 -0.2283
13214TIP3    H261134   2.569   4.233  11.376 -0.0971  0.9206  0.0013
13215TIP3   OH261135   6.279   5.392   5.972  0.7998  0.1314  0.2791
13215TIP3    H161136   6.247   5.456   6.036 -1.0791  0.6270 -1.0842
13215TIP3    H261137   6.269   5.308   6.016 -2.0369  0.3010  0.1540
13216TIP3   OH261138   3.616   5.801  16.120  0.0233 -1.4881 -0.3891
13216TIP3    H161139   3.578   5.806  16.032  0.4065 -1.2903 -0.5498
13216TIP3    H261140   3.692   5.743  16.110 -1.3570 -3.5245  0.3538
13217TIP3   OH261141   5.252   5.236   3.049 -0.1498  0.3318 -0.1475
13217TIP3    H161142   5.297   5.320   3.034 -0.2555  0.0986 -1.9843
13217TIP3    H261143   5.207   5.248   3.132 -0.7270  2.3631 -0.6908
13218TIP3   OH261144   2.107   3.466   2.157 -0.0533 -0.0108  0.1742
13218TIP3    H161145   2.173   3.530   2.130 -1.6675  1.5124 -0.2727
13218TIP3    H261146   2.061   3.508   2.230 -0.7479 -0.9237  0.2810
13219TIP3   OH261147   2.393   1.049  14.081  0.3405 -0.2404  0.6114
13219TIP3    H161148   2.455   0.992  14.127  0.9796 -0.8423 -0.9090
13219TIP3    H261149   2.446   1.120  14.046  0.1169 -0.4896 -0.2776
13220TIP3   OH261150   2.757   0.835   0.516  0.1272  0.1946  0.1684
13220TIP3    H161151   2.732   0.927   0.530  0.4666  0.1295  1.2258
13220TIP3    H261152   2.675   0.791   0.494 -0.5626  0.1939  2.5500
13221TIP3   OH261153   2.369   5.863  12.523  0.2486  0.1443  0.0312
13221TIP3    H161154   2.416   5.874  12.440 -0.0410 -0.2105 -0.1801
13221TIP3    H261155   2.277   5.875  12.500  0.1471 -0.1933  0.2567
13222TIP3   OH261156   5.035   4.517   0.439  0.0651  0.6937 -0.4350
13222TIP3    H161157   5.111   4.506   0.381  0.2537 -0.8878  0.0603
13222TIP3    H261158   4.969   4.458   0.404  0.4601 -0.9227  1.3805
13223TIP3   OH261159   5.221   2.962   5.272 -0.2629  0.5775 -0.1284
13223TIP3    H161160   5.258   3.050   5.269 -1.3637  1.0389 -0.9637
13223TIP3    H261161   5.143   2.972   5.327 -1.1734  0.4508 -1.3656
13224TIP3   OH261162   0.905   3.256   1.800  0.0859 -0.5112  0.4428
13224TIP3    H161163   0.879   3.164   1.791 -0.7070 -0.4942  2.0674
13224TIP3    H261164   0.832   3.296   1.848 -0.1517  1.2663 -1.2741
13225TIP3   OH261165   0.180   5.385   1.109 -0.2807  0.2270  0.1640
13225TIP3    H161166   0.147   5.306   1.065  1.9022  0.3224 -1.8364
13225TIP3    H261167   0.109   5.448   1.102 -1.4633 -1.0300  0.3632
13226TIP3   OH261168   0.010   0.554  13.556 -0.1134  0.6263 -0.1324
13226TIP3    H161169   0.078   0.533  13.492 -0.2091 -0.7918  0.1781
13226TIP3    H261170  -0.068   0.572  13.504 -0.6919 -2.3348 -0.4849
13227TIP3   OH261171   3.072   2.855  15.505  0.8711  0.1659  0.3567
13227TIP3    H161172   3.005   2.843  15.573  0.5923  0.2295  0.0948
13227TIP3    H261173   3.143   2.901  15.550 -0.3350  2.5104  0.0360
13228TIP3   OH261174   5.873   1.145  13.772  0.1531 -0.1032 -0.1252
13228TIP3    H161175   5.781   1.168  13.782  0.4216  1.7747 -1.4413
13228TIP3    H261176   5.893   1.166  13.681  1.6135 -1.5424 -0.1700
13229TIP3   OH261177   0.465   2.608  14.159 -0.3495  0.0681  0.5479
13229TIP3    H161178   0.549   2.627  14.201 -0.6643  0.2279  1.1128
13229TIP3    H261179   0.488   2.550  14.086  0.1461 -0.7591  1.3307
13230TIP3   OH261180   1.909   5.969   4.020 -0.3543  0.0520 -0.0085
13230TIP3    H161181   1.967   5.948   3.947 -0.3899  0.1388 -0.0608
13230TIP3    H261182   1.823   5.936   3.993 -0.1776 -0.7527  0.3764
13231TIP3   OH261183   2.671   2.950  15.449  1.0775 -0.5025 -0.2998
13231TIP3    H161184   2.585   2.970  15.487  2.2157  0.2644  2.1059
13231TIP3    H261185   2.711   2.891  15.513  2.0486 -1.5573 -1.8165
13232TIP3   OH261186   0.484   0.479  14.723  0.2365  0.1419  0.2506
13232TIP3    H161187   0.564   0.476  14.671  0.0055  0.5921 -0.1348
13232TIP3    H261188   0.498   0.553  14.783  0.7730 -0.7658  1.2881
13233TIP3   OH261189   1.343   6.427   5.190 -0.1896  0.3037  0.0549
13233TIP3    H161190   1.284   6.477   5.246 -0.6487  0.1174 -0.2623
13233TIP3    H261191   1.386   6.493   5.135 -0.2937  0.4144  0.1066
13234TIP3   OH261192   2.938   3.943   0.914  0.1410  0.0305 -0.2053
13234TIP3    H161193   2.981   4.028   0.914 -1.6784  1.1775  3.8284
13234TIP3    H261194   2.980   3.894   0.985 -0.4413 -1.5636 -0.8967
13235TIP3   OH261195   5.080   0.335  12.078 -0.5630  0.1945 -0.0522
13235TIP3    H161196   5.109   0.252  12.116 -1.7786 -0.3177 -0.1917
13235TIP3    H261197   4.987   0.341  12.101 -0.7889  0.9243 -1.0766
13236TIP3   OH261198   5.216   0.603  14.508  0.1397 -0.3299 -0.5430
13236TIP3    H161199   5.271   0.576  14.582 -2.2110 -1.0613  1.0518
13236TIP3    H261200   5.276   0.604  14.433  2.5513  0.0380  1.2471
13237TIP3   OH261201   5.966   2.775   3.417  0.0881  0.3735  0.3277
13237TIP3    H161202   5.990   2.854   3.465 -0.6195 -0.4228  2.0532
13237TIP3    H261203   6.027   2.773   3.343  1.9290  1.1089  1.7438
13238TIP3   OH261204   4.964   6.104  11.789  0.1179 -0.5953 -0.3530
13238TIP3    H161205   4.953   6.177  11.850  1.8712 -0.6432  0.0544
13238TIP3    H261206   4.998   6.145  11.709  0.4989 -0.8757 -0.3377
13239TIP3   OH261207   4.999   2.427   2.781  0.2048 -0.3589  0.0110
13239TIP3    H161208   4.904   2.444   2.780  0.2408 -0.1005 -2.1633
13239TIP3    H261209   5.009   2.340   2.744  0.8932  0.3105 -1.4761
13240TIP3   OH261210   2.263   5.067   3.094 -0.4959  0.2819  0.4034
13240TIP3    H161211   2.297   5.017   3.168  1.1017 -0.5812 -0.8242
13240TIP3    H261212   2.181   5.024   3.071  0.1706 -0.9488  0.2426
13241TIP3   OH261213   5.101   4.915   4.967 -0.0613 -0.0928 -0.2552
13241TIP3    H161214   5.071   4.825   4.978  0.9524 -0.6676 -1.9532
13241TIP3    H261215   5.094   4.953   5.055 -1.7296 -1.4185  0.2319
13242TIP3   OH261216   0.061   1.997   2.513 -0.0866 -0.3521 -0.2963
13242TIP3    H161217   0.086   2.006   2.421 -0.5667  2.1701 -0.2580
13242TIP3    H261218   0.132   1.947   2.553  0.7526 -0.4007 -1.7802
13243TIP3   OH261219   2.591   4.391  16.557 -0.9073  0.2640 -0.2595
13243TIP3    H161220   2.592   4.383  16.461 -3.2230  0.2021 -0.3132
13243TIP3    H261221   2.647   4.319  16.587 -2.9443 -1.9763 -1.4877
13244TIP3   OH261222   4.912   2.245  17.320  0.1289 -0.0827 -0.2707
13244TIP3    H161223   4.967   2.173  17.290 -0.7429 -0.8720 -0.0345
13244TIP3    H261224   4.825   2.206  17.328 -0.3264  0.9709 -0.0098
13245TIP3   OH261225   4.486   3.753  11.064 -0.3347 -0.4764 -0.2303
13245TIP3    H161226   4.511   3.793  11.147  0.5983 -0.1771 -0.6473
13245TIP3    H261227   4.565   3.710  11.032 -0.7494 -0.8082 -0.8495
13246TIP3   OH261228   6.667   1.980  12.947  0.0829  0.0488  0.1916
13246TIP3    H161229   6.760   1.998  12.961 -0.1208 -0.3761  2.5655
13246TIP3    H261230   6.651   2.003  12.855  2.0567  2.1591  0.2924
13247TIP3   OH261231   4.227   5.639  10.373 -0.0217  0.4507  0.3726
13247TIP3    H161232   4.132   5.639  10.379 -0.1466 -2.3771 -0.2479
13247TIP3    H261233   4.256   5.699  10.441 -2.1725 -1.6128  3.3648
13248TIP3   OH261234   2.209   2.958  14.344 -0.5118  0.1167 -0.5245
13248TIP3    H161235   2.222   2.864  14.337 -4.3079 -0.8292  2.3539
13248TIP3    H261236   2.120   2.973  14.313 -1.0020  2.2562  1.6347
13249TIP3   OH261237   1.145   0.566  15.333  0.1336  0.4570 -0.0787
13249TIP3    H161238   1.065   0.618  15.324 -1.0538 -1.2693 -0.0755
13249TIP3    H261239   1.145   0.509  15.256  0.7288 -0.3768  0.5146
13250TIP3   OH261240   6.233   1.152   1.826  0.1600 -0.1787 -0.0062
13250TIP3    H161241   6.143   1.123   1.841 -0.5125  0.5910 -2.0808
13250TIP3    H261242   6.287   1.095   1.881 -1.5330 -1.2913  0.5681
13251TIP3   OH261243   2.151   6.711  14.262 -0.1343  0.0131  0.0561
13251TIP3    H161244   2.216   6.660  14.215 -1.6151 -1.9439  0.0256
13251TIP3    H261245   2.194   6.736  14.344  0.5365 -1.5862  0.2194
13252TIP3   OH261246   1.398   3.363  16.430  0.4511 -0.0782  0.2715
13252TIP3    H161247   1.460   3.421  16.385 -0.2946  0.9955  0.5959
13252TIP3    H261248   1.413   3.381  16.523 -0.2936  0.1479  0.3536
13253TIP3   OH261249   2.686   1.101   4.957  0.1898 -0.3275  0.5531
13253TIP3    H161250   2.728   1.015   4.955 -0.4368 -0.6200 -1.0445
13253TIP3    H261251   2.599   1.086   4.921 -0.2338  0.8375  1.0412
13254TIP3   OH261252   1.006   5.746   5.581  0.2130 -0.4252 -0.2858
13254TIP3    H161253   1.036   5.797   5.656 -0.1014 -1.0898  0.2999
13254TIP3    H261254   1.078   5.753   5.517  0.8043 -0.4722  0.3683
13255TIP3   OH261255   3.100   0.791   5.162 -0.3740  0.4210  0.0813
13255TIP3    H161256   3.154   0.847   5.217  0.0463 -0.3138  0.4255
13255TIP3    H261257   3.083   0.714   5.216  3.0288 -2.0213 -1.9158
13256TIP3   OH261258   0.061   1.856  14.545  0.0914  0.3151  0.4546
13256TIP3    H161259   0.095   1.916  14.611  0.4954 -0.7372  1.2310
13256TIP3    H261260   0.063   1.906  14.463  0.5656  1.2956  1.0508
13257TIP3   OH261261   2.399   5.188   3.398 -0.5832  1.6868  0.0302
13257TIP3    H161262   2.409   5.250   3.326  0.1537  1.7724  0.2036
13257TIP3    H261263   2.383   5.104   3.354 -2.1007  2.0672 -0.1963
13258TIP3   OH261264   4.443   3.833   0.327  0.1128 -0.5739 -0.1326
13258TIP3    H161265   4.464   3.926   0.340  0.7157 -0.7106 -0.0811
13258TIP3    H261266   4.479   3.812   0.241 -0.1320 -0.7288 -0.1977
13259TIP3   OH261267   0.692   3.255  14.356  0.0749 -0.3247  0.5157
13259TIP3    H161268   0.695   3.350  14.343 -1.2911 -0.1010  1.6837
13259TIP3    H261269   0.655   3.244  14.443 -1.9881 -1.9638 -0.4851
13260TIP3   OH261270   5.925   6.511   0.612  0.5432 -0.0908 -0.3248
13260TIP3    H161271   5.852   6.468   0.567 -0.1854 -0.0297  0.7689
13260TIP3    H261272   5.892   6.598   0.633  1.3780  0.3828 -0.9057
13261TIP3   OH261273   2.509   1.273  13.268  0.0501  0.0653 -0.3368
13261TIP3    H161274   2.567   1.325  13.212 -1.0370  0.2221 -1.3346
13261TIP3    H261275   2.564   1.202  13.300  0.2523 -1.1691 -3.1530
13262TIP3   OH261276   1.294   2.293  13.636 -0.3017 -0.1837 -0.3033
13262TIP3    H161277   1.266   2.303  13.544 -0.3212 -0.2875 -0.3091
13262TIP3    H261278   1.374   2.240  13.631  1.6754  2.5592 -0.5654
13263TIP3   OH261279   2.385   6.671   4.734  0.0271 -0.3032  0.1417
13263TIP3    H161280   2.389   6.709   4.646 -0.7355 -1.4764 -0.4238
13263TIP3    H261281   2.450   6.720   4.784 -0.1276  0.9622 -0.8423
13264TIP3   OH261282   1.952   0.085  11.586  0.2980  0.1032 -0.1489
13264TIP3    H161283   1.989   0.160  11.540 -0.0792  0.5268  0.2324
13264TIP3    H261284   2.022   0.020  11.587  0.4211  0.2090 -1.0320
13265TIP3   OH261285   6.317   5.779   0.795 -0.2433 -0.2477  0.4353
13265TIP3    H161286   6.242   5.821   0.752  1.3064  1.9977 -0.2351
13265TIP3    H261287   6.278   5.707   0.846 -2.8546  0.9054  0.2343
13266TIP3   OH261288   0.003   6.626   5.590  0.2140  0.4962 -0.1428
13266TIP3    H161289   0.093   6.626   5.557  0.2876  4.0019 -0.2947
13266TIP3    H261290   0.007   6.674   5.672 -1.5256  0.6765 -0.1277
13267TIP3   OH261291   3.980   1.295   5.712 -0.0597 -0.2287  0.5830
13267TIP3    H161292   4.066   1.257   5.700  0.2316  0.5478  0.1174
13267TIP3    H261293   3.923   1.247   5.651  0.0814 -0.6099  0.7524
13268TIP3   OH261294   2.432   5.754  11.555  0.1273  0.0085 -0.0722
13268TIP3    H161295   2.367   5.684  11.564 -1.7391  1.7182  0.3200
13268TIP3    H261296   2.496   5.736  11.624  0.2057 -1.7733 -0.5443
13269TIP3   OH261297   0.587   5.352   6.155  0.1731  0.7223  0.3081
13269TIP3    H161298   0.602   5.416   6.224 -1.5252  0.7190  0.7187
13269TIP3    H261299   0.651   5.283   6.172 -0.6014  0.4219  2.2778
13270TIP3   OH261300   2.371   1.643   2.829  0.4823 -0.1254 -0.2792
13270TIP3    H161301   2.396   1.682   2.913 -1.6521  0.2719  0.2335
13270TIP3    H261302   2.382   1.715   2.766  0.4559  0.0974 -0.0343
13271TIP3   OH261303   6.515   1.644   0.112  0.0932  0.6118  0.4430
13271TIP3    H161304   6.421   1.624   0.115 -0.2181  1.9800  0.7842
13271TIP3    H261305   6.523   1.725   0.164  1.4221  0.6532  0.1985
13272TIP3   OH261306   3.742   3.688   1.346  0.2904 -0.2809 -0.1544
13272TIP3    H161307   3.709   3.606   1.382  0.7356 -1.2563 -1.8850
13272TIP3    H261308   3.798   3.662   1.273  1.2951  1.5253 -0.0940
13273TIP3   OH261309   5.443   5.280   2.549 -0.0212 -0.2659 -0.1970
13273TIP3    H161310   5.500   5.215   2.588  1.9411  1.5163  0.0948
13273TIP3    H261311   5.360   5.270   2.595  0.4589 -2.0243  0.3499
13274TIP3   OH261312   1.919   5.085   5.051  0.5534  0.2184  0.7564
13274TIP3    H161313   1.880   5.008   5.094 -1.3740  0.8010  0.1157
13274TIP3    H261314   1.879   5.160   5.095  1.0626  0.8553  0.1528
13275TIP3   OH261315   5.214   2.870   0.240  0.3278 -0.9644 -0.4027
13275TIP3    H161316   5.287   2.828   0.195  0.2639 -2.3426  0.7222
13275TIP3    H261317   5.137   2.819   0.214  0.2561 -1.6411  1.0361
13276TIP3   OH261318   2.197   3.436   2.436 -0.2491  0.5210 -0.1563
13276TIP3    H161319   2.113   3.390   2.437 -0.6798  1.2710 -0.9176
13276TIP3    H261320   2.255   3.382   2.490 -1.4479  0.4476  1.0786
13277TIP3   OH261321   6.400   2.411  13.079 -0.3570 -0.5691  0.1228
13277TIP3    H161322   6.453   2.347  13.031 -1.1455 -0.9938 -0.2089
13277TIP3    H261323   6.442   2.495  13.062  1.1171 -1.0444  1.1314
13278TIP3   OH261324   3.450   5.499  12.550 -0.1815 -0.1381  0.1177
13278TIP3    H161325   3.397   5.454  12.615 -0.5693  0.9949  0.6102
13278TIP3    H261326   3.392   5.566  12.513  1.0457  1.5464  1.1030
13279TIP3   OH261327   6.629   4.900  13.614 -0.1778 -0.3672  0.0432
13279TIP3    H161328   6.721   4.887  13.636  0.2981  0.4927 -1.3204
13279TIP3    H261329   6.628   4.980  13.561 -2.0164  1.0327  2.0403
13280TIP3   OH261330   0.904   0.756  14.493  0.5252 -0.1690 -0.5564
13280TIP3    H161331   0.841   0.825  14.471  0.5485  0.3450  0.8530
13280TIP3    H261332   0.976   0.803  14.537 -1.3264 -1.3052  4.4386
13281TIP3   OH261333   4.242   1.675   6.057  0.4476 -0.3326 -0.2495
13281TIP3    H161334   4.165   1.719   6.021  2.2840  3.1396 -0.4593
13281TIP3    H261335   4.248   1.706   6.147  0.3568 -2.4591  0.5364
13282TIP3   OH261336   6.417   3.785   2.812 -0.7804 -0.0342  0.0570
13282TIP3    H161337   6.323   3.788   2.829 -1.4157 -1.1337 -2.7390
13282TIP3    H261338   6.424   3.773   2.717  2.1884  0.0088  0.1811
13283TIP3   OH261339   6.224   6.183   3.556 -0.2780 -0.0351 -0.4295
13283TIP3    H161340   6.158   6.115   3.575 -0.8054  0.7110  0.5400
13283TIP3    H261341   6.232   6.231   3.638  1.4016 -0.0118 -0.5735
13284TIP3   OH261342   5.205   0.626   0.187  0.1584 -0.1484 -1.1072
13284TIP3    H161343   5.164   0.709   0.163 -1.2636 -1.0158 -1.8093
13284TIP3    H261344   5.206   0.576   0.106  0.8696 -0.8865 -0.6575
13285TIP3   OH261345   2.530   5.625   5.763 -0.3937 -0.4087 -0.2390
13285TIP3    H161346   2.466   5.676   5.813 -0.2595 -1.6746  1.2786
13285TIP3    H261347   2.558   5.556   5.823  2.3193  0.0190 -0.8981
13286TIP3   OH261348   0.203   3.648   3.528  0.6070  0.0606 -0.1255
13286TIP3    H161349   0.281   3.703   3.522  0.7695 -0.1262  0.2209
13286TIP3    H261350   0.193   3.611   3.440  0.1784  1.0634 -0.5076
13287TIP3   OH261351   0.579   2.719  13.717  0.2811 -0.2341 -0.0498
13287TIP3    H161352   0.494   2.701  13.758  0.4683 -1.0759 -0.0065
13287TIP3    H261353   0.578   2.667  13.637 -0.7819  2.6722 -2.1184
13288TIP3   OH261354   2.997   4.439   6.528  0.3117  0.0539 -0.0590
13288TIP3    H161355   2.915   4.464   6.484 -0.7371 -0.5520  1.4716
13288TIP3    H261356   3.007   4.504   6.597  2.6553  1.8078 -1.8654
13289TIP3   OH261357   0.483   2.291   4.308  0.2303 -0.1912 -0.6214
13289TIP3    H161358   0.485   2.353   4.381  2.0658  0.0779 -0.8553
13289TIP3    H261359   0.526   2.337   4.236  1.6545 -1.7116 -0.7934
13290TIP3   OH261360   0.495   3.648   1.505  0.2493  0.3310  0.6637
13290TIP3    H161361   0.517   3.670   1.415 -2.3926 -0.4539 -0.2748
13290TIP3    H261362   0.503   3.552   1.508  0.0462  0.3281  1.1696
13291TIP3   OH261363   5.441   1.618  12.590 -0.1182 -0.6082 -0.3477
13291TIP3    H161364   5.478   1.610  12.503  1.1017  0.5235  0.0327
13291TIP3    H261365   5.393   1.701  12.588 -1.8518 -1.5681 -0.5289
13292TIP3   OH261366   0.715   4.564   1.356  0.1561  0.3133  0.5852
13292TIP3    H161367   0.690   4.492   1.412 -0.3959 -0.9746 -1.2135
13292TIP3    H261368   0.668   4.548   1.274  2.8078  0.6861 -1.1326
13293TIP3   OH261369   0.405   2.797  12.588 -0.7668  0.2206  0.1328
13293TIP3    H161370   0.420   2.718  12.536 -0.1420 -0.8403  1.8469
13293TIP3    H261371   0.465   2.862  12.550 -1.4739 -0.0134 -1.4597
13294TIP3   OH261372   0.027   2.333  17.488  0.2254  0.3248 -0.4739
13294TIP3    H161373   0.067   2.373  17.410  4.1284 -0.1382  1.0734
13294TIP3    H261374   0.075   2.251  17.500  1.3849  1.3695  3.5314
13295TIP3   OH261375   2.741   2.246   0.768 -0.1855 -0.0679 -0.0721
13295TIP3    H161376   2.737   2.272   0.676 -1.9699 -1.8135 -0.5423
13295TIP3    H261377   2.732   2.151   0.767 -1.5071 -0.0209  1.9791
13296TIP3   OH261378   4.564   0.372  16.126  0.2179  0.4607  0.0154
13296TIP3    H161379   4.612   0.432  16.069  1.4403  0.5734  1.1352
13296TIP3    H261380   4.541   0.299  16.069  0.6400  0.9639 -0.8235
13297TIP3   OH261381   1.294   0.574  16.339  0.3887  0.0950 -0.0837
13297TIP3    H161382   1.335   0.658  16.317  1.2653  0.2564  1.9360
13297TIP3    H261383   1.321   0.515  16.269  0.1964  1.3493 -1.2614
13298TIP3   OH261384   0.781   6.158  13.932  0.0222  0.2251  0.5325
13298TIP3    H161385   0.846   6.230  13.930  0.6937 -0.3663  0.6393
13298TIP3    H261386   0.740   6.166  14.018 -0.9755  1.3900 -0.0123
13299TIP3   OH261387   1.615   2.836  15.188 -0.3880  0.5470  0.1068
13299TIP3    H161388   1.519   2.835  15.188 -0.4014  0.4739 -1.3656
13299TIP3    H261389   1.640   2.759  15.138  0.4519  0.6095  0.4112
13300TIP3   OH261390   3.064   0.907  17.524 -0.4000  0.0481 -0.8108
13300TIP3    H161391   3.061   0.941  17.434  3.6529  0.1272 -1.0959
13300TIP3    H261392   3.107   0.976  17.574  0.5420 -1.3749  0.4050
13301TIP3   OH261393   5.294   1.952  12.552  0.0993  0.2985 -0.0267
13301TIP3    H161394   5.344   1.954  12.633  1.0735 -1.3559 -0.5266
13301TIP3    H261395   5.202   1.953  12.580  0.4134  0.9309  1.0207
13302TIP3   OH261396   3.179   1.665  15.820 -0.6120 -0.1644 -0.8063
13302TIP3    H161397   3.112   1.617  15.772 -3.7187  1.5075  1.4837
13302TIP3    H261398   3.203   1.607  15.892  1.5016 -1.2706 -2.2925
13303TIP3   OH261399   1.568   6.319   3.243 -0.1279 -0.0866  0.1562
13303TIP3    H161400   1.605   6.308   3.156  0.3699  0.6626  0.2678
13303TIP3    H261401   1.570   6.231   3.281  1.5539 -0.0787  0.1678
13304TIP3   OH261402   2.276   3.021   1.545 -0.7289 -0.2382 -0.2296
13304TIP3    H161403   2.292   3.068   1.627 -1.2520  2.0827 -1.3689
13304TIP3    H261404   2.327   3.069   1.479 -1.7656 -0.9179 -1.5786
13305TIP3   OH261405   2.212   3.860  14.938  0.0049  0.4457 -0.4649
13305TIP3    H161406   2.197   3.789  14.875  0.9667  0.4556 -0.7210
13305TIP3    H261407   2.268   3.821  15.005 -2.0584  0.0331  1.1547
13306TIP3   OH261408   0.470   1.413  11.989  0.1644  0.0047 -0.1357
13306TIP3    H161409   0.424   1.484  11.944 -0.3344 -0.4069 -0.2806
13306TIP3    H261410   0.433   1.333  11.952  0.1817 -0.3377  0.5820
13307TIP3   OH261411   2.018   6.670   5.691  0.3024 -0.1658 -0.5994
13307TIP3    H161412   1.961   6.614   5.637 -0.2268  1.0283 -1.3203
13307TIP3    H261413   2.106   6.634   5.677 -0.0583 -0.9912 -0.8223
13308TIP3   OH261414   0.363   6.288  13.438  0.4302  0.4692 -0.1752
13308TIP3    H161415   0.274   6.256  13.449  0.2845  0.7693 -0.4748
13308TIP3    H261416   0.409   6.257  13.516 -0.0617  0.7521  0.2347
13309TIP3   OH261417   0.275   1.530  15.804 -0.2245  0.4125 -0.0993
13309TIP3    H161418   0.299   1.612  15.847  1.6705 -0.2111  0.1167
13309TIP3    H261419   0.300   1.462  15.866 -1.8197 -0.3764 -0.2600
13310TIP3   OH261420   5.709   2.548  16.629 -0.1598 -0.0563 -0.2524
13310TIP3    H161421   5.781   2.493  16.660  0.7835  1.2993  0.0595
13310TIP3    H261422   5.648   2.550  16.703  0.1197 -0.1389 -0.0149
13311TIP3   OH261423   1.632   0.701  17.358  0.5935  0.1715  0.0762
13311TIP3    H161424   1.649   0.711  17.264  0.1564  0.9887  0.0732
13311TIP3    H261425   1.706   0.743  17.400  0.8835 -0.3636  0.0960
13312TIP3   OH261426   6.366   6.097  12.312 -0.9907  0.1251 -1.1346
13312TIP3    H161427   6.339   6.164  12.249 -0.0487  0.4357 -1.2323
13312TIP3    H261428   6.416   6.034  12.260  1.0877  1.1529 -0.5120
13313TIP3   OH261429   3.504   1.659  11.663  0.2506 -0.5118 -0.2196
13313TIP3    H161430   3.499   1.593  11.594  0.2876  0.2836 -0.9992
13313TIP3    H261431   3.412   1.679  11.684  0.2067  0.7233 -1.4968
13314TIP3   OH261432   4.160   6.609  14.416  0.7751 -0.4214 -0.1198
13314TIP3    H161433   4.232   6.605  14.479  0.0758  0.4373  0.7624
13314TIP3    H261434   4.154   6.702  14.392 -1.4738 -0.0434  1.5738
13315TIP3   OH261435   6.711   2.604  12.984  0.6444  0.0268  0.3279
13315TIP3    H161436   6.740   2.532  12.926 -0.4937  1.1263 -1.7326
13315TIP3    H261437   6.622   2.623  12.954 -0.1687  0.4016  2.7970
13316TIP3   OH261438   4.006   6.647   4.723  0.4227  0.3132 -0.2430
13316TIP3    H161439   4.067   6.720   4.738  1.7589 -0.6479 -0.7090
13316TIP3    H261440   4.001   6.640   4.627  2.0646 -1.5145 -0.2815
13317TIP3   OH261441   1.291   5.741  14.785 -0.1163  0.0368 -0.7075
13317TIP3    H161442   1.372   5.726  14.834  0.3873 -1.0261 -1.8210
13317TIP3    H261443   1.276   5.836  14.791  1.1427  0.2246 -0.3812
13318TIP3   OH261444   6.716   0.448   5.928  0.4773 -0.2131 -0.1726
13318TIP3    H161445   6.707   0.542   5.913  0.2415 -0.4706 -1.7839
13318TIP3    H261446   6.641   0.425   5.982  0.5781  0.5250  0.2945
13319TIP3   OH261447   0.551   0.004  11.949  0.2506 -0.2044  0.2110
13319TIP3    H161448   0.617   0.064  11.984 -0.1879  0.0511  0.6210
13319TIP3    H261449   0.475   0.016  12.007 -0.8288  0.8936 -1.3363
13320TIP3   OH261450   3.011   5.921   1.841  0.2892  0.2557 -0.2083
13320TIP3    H161451   3.082   5.963   1.888 -0.6561  0.1862  1.3799
13320TIP3    H261452   3.019   5.828   1.863 -0.2182  0.2340 -0.0897
13321TIP3   OH261453   5.060   5.309  14.058 -0.1530  0.8688  0.5158
13321TIP3    H161454   5.062   5.364  14.136 -1.5009 -0.6337  1.6750
13321TIP3    H261455   5.140   5.257  14.062  0.1264  1.2892  0.4956
13322TIP3   OH261456   0.830   4.909   1.732  0.4137  0.5612  0.1542
13322TIP3    H161457   0.821   4.970   1.659 -0.9825  0.5263  0.2638
13322TIP3    H261458   0.768   4.839   1.712 -0.7030  1.0037  1.7908
13323TIP3   OH261459   2.327   5.889   0.339  0.0129  0.0677 -0.8873
13323TIP3    H161460   2.366   5.950   0.401 -0.3222 -2.3802  1.9743
13323TIP3    H261461   2.400   5.831   0.313 -0.4438 -0.8259 -0.2477
13324TIP3   OH261462   5.107   3.476  15.376  0.3911 -0.2838  0.3833
13324TIP3    H161463   5.126   3.423  15.299  1.1189 -0.2517  0.5320
13324TIP3    H261464   5.021   3.515  15.358 -1.3081 -3.2590  1.2218
13325TIP3   OH261465   0.552   0.997   0.741  0.2906  0.1539 -0.5111
13325TIP3    H161466   0.582   0.962   0.825  0.0846  1.0466 -0.0601
13325TIP3    H261467   0.467   0.954   0.727  0.2448  0.1320 -0.1817
13326TIP3   OH261468   5.036   5.990  14.963  0.4284 -0.5913  0.6141
13326TIP3    H161469   5.061   6.082  14.975  0.6980 -0.6959  0.8834
13326TIP3    H261470   4.999   5.986  14.875 -2.0003  0.2842  1.5323
13327TIP3   OH261471   4.001   6.539  12.963 -0.6191  0.0804  0.2713
13327TIP3    H161472   4.011   6.630  12.935  0.2629 -0.3760 -1.0165
13327TIP3    H261473   4.029   6.539  13.055  0.3866  0.9317 -0.0156
13328TIP3   OH261474   3.325   2.452   2.399 -0.6257 -0.5741 -0.0496
13328TIP3    H161475   3.362   2.486   2.317  1.1566  1.8619  1.5903
13328TIP3    H261476   3.231   2.450   2.384 -0.4829  1.3469 -1.6867
13329TIP3   OH261477   1.001   2.015  12.690  0.5561 -0.2282  0.3821
13329TIP3    H161478   1.034   2.035  12.777  0.3429  1.0108  0.2005
13329TIP3    H261479   1.067   1.957  12.652  2.9889  2.6769 -0.2139
13330TIP3   OH261480   1.878   0.769   5.983 -0.3071 -0.1019 -0.2656
13330TIP3    H161481   1.862   0.720   6.064 -0.9528  2.3139  1.1792
13330TIP3    H261482   1.797   0.761   5.934 -0.5960 -0.0341  0.1961
13331TIP3   OH261483   5.388   0.656  14.880 -0.4539 -0.3279  1.1169
13331TIP3    H161484   5.402   0.607  14.961 -1.2050 -0.9330  0.8932
13331TIP3    H261485   5.416   0.596  14.811 -0.8842 -0.2407  0.8669
13332TIP3   OH261486   4.345   1.552  16.415  0.3425 -0.0874  0.0844
13332TIP3    H161487   4.384   1.529  16.330  3.2677 -2.0602  1.7553
13332TIP3    H261488   4.396   1.627  16.446 -0.4071  0.3420  0.3102
13333TIP3   OH261489   5.969   0.231  15.167  0.2896 -0.4534 -0.7283
13333TIP3    H161490   6.009   0.264  15.248 -1.4424 -0.7090  0.2776
13333TIP3    H261491   5.958   0.309  15.112  0.7955 -0.1578 -0.4148
13334TIP3   OH261492   5.946   3.397  12.469 -0.0680  0.4182 -0.2779
13334TIP3    H161493   5.981   3.433  12.388 -1.7817  0.0046 -1.2447
13334TIP3    H261494   5.860   3.363  12.445 -0.8568  0.7910  1.8419
13335TIP3   OH261495   0.334   6.022  14.730 -0.3208  0.0548 -0.3232
13335TIP3    H161496   0.256   5.972  14.708 -0.7950  0.0473  1.2963
13335TIP3    H261497   0.392   5.960  14.773  0.1581  0.3061 -0.5895
13336TIP3   OH261498   4.440   5.017  15.672 -0.3428 -0.0405  0.4657
13336TIP3    H161499   4.470   4.988  15.586  1.0377  0.2077  0.8437
13336TIP3    H261500   4.433   4.936  15.723 -1.6868 -0.2477 -0.0134
13337TIP3   OH261501   4.564   2.852  14.852 -0.1792  0.3900 -0.4340
13337TIP3    H161502   4.649   2.828  14.889 -1.1036  1.7742  2.9185
13337TIP3    H261503   4.521   2.769  14.833  1.5034 -0.3266 -1.3262
13338TIP3   OH261504   2.607   3.074   0.653 -0.4703 -0.2618 -0.1811
13338TIP3    H161505   2.580   3.142   0.592 -1.3088  0.0378  0.4982
13338TIP3    H261506   2.542   3.077   0.723 -0.0738 -1.2334  0.2555
13339TIP3   OH261507   3.439   4.456   1.285  0.1066 -0.0454 -0.0736
13339TIP3    H161508   3.380   4.458   1.209 -1.0633 -0.2623  0.8049
13339TIP3    H261509   3.502   4.387   1.264 -0.3081 -0.2186 -0.7790
13340TIP3   OH261510   3.576   4.668  14.871  0.1385 -0.3038  0.2121
13340TIP3    H161511   3.563   4.602  14.939  0.5004  1.5179  2.1549
13340TIP3    H261512   3.657   4.712  14.895  0.4905  0.1735 -1.6546
13341TIP3   OH261513   3.128   1.657  10.552  0.0466 -0.9717  0.0745
13341TIP3    H161514   3.173   1.639  10.634  0.0736  0.2258  0.3471
13341TIP3    H261515   3.037   1.672  10.578  0.4447  1.5683  0.2211
13342TIP3   OH261516   1.363   6.229  13.748 -0.2943  0.2506  0.2312
13342TIP3    H161517   1.321   6.171  13.684 -0.6250  0.2589  0.4408
13342TIP3    H261518   1.387   6.171  13.820  1.3473 -0.0200 -0.4837
13343TIP3   OH261519   1.882   3.840  10.755  0.1147 -0.3444  0.2348
13343TIP3    H161520   1.791   3.831  10.785  0.2255  1.7534  1.3716
13343TIP3    H261521   1.878   3.907  10.687  0.7403 -0.7428 -0.2050
13344TIP3   OH261522   3.731   0.614   2.005  0.0664  0.9976  0.0807
13344TIP3    H161523   3.667   0.623   1.934  1.1655 -2.0711 -1.5024
13344TIP3    H261524   3.815   0.610   1.959  0.8637 -0.5672  1.5981
13345TIP3   OH261525   1.628   5.097  11.686  0.4075  0.1842 -0.1499
13345TIP3    H161526   1.688   5.064  11.619  0.7922  1.3754 -0.4112
13345TIP3    H261527   1.625   5.027  11.752 -0.0893 -1.0683 -1.4457
13346TIP3   OH261528   1.067   3.655  17.495  0.6628 -0.1182 -0.8759
13346TIP3    H161529   1.044   3.566  17.470 -0.2543  0.1363 -0.9675
13346TIP3    H261530   1.142   3.677  17.440 -0.5300 -0.0181 -2.5263
13347TIP3   OH261531   5.403   2.279   3.863  0.1781  0.4448 -0.5088
13347TIP3    H161532   5.391   2.212   3.796  1.3755  0.8056 -1.1122
13347TIP3    H261533   5.322   2.330   3.860 -1.4839 -1.8979  1.1057
13348TIP3   OH261534   4.336   0.926   6.504  0.3421 -0.2622 -0.4939
13348TIP3    H161535   4.350   0.958   6.593 -0.0989 -2.8586  0.5842
13348TIP3    H261536   4.262   0.977   6.472 -1.2172 -1.0424  1.6370
13349TIP3   OH261537   3.410   0.069   2.707  0.6257 -0.4340 -0.1629
13349TIP3    H161538   3.396   0.026   2.623 -0.4235 -3.1915  1.3050
13349TIP3    H261539   3.464   0.008   2.757  1.0106  1.0144  1.2874
13350TIP3   OH261540   5.263   2.700  14.938 -0.5568 -0.4908 -0.0333
13350TIP3    H161541   5.326   2.720  15.006 -1.9040  1.2823  0.7833
13350TIP3    H261542   5.179   2.691  14.984 -1.0630 -2.0566 -1.1587
13351TIP3   OH261543   0.158   0.784  13.290 -0.7651 -0.2468 -0.1181
13351TIP3    H161544   0.187   0.866  13.331 -1.7229  0.9187 -1.6795
13351TIP3    H261545   0.079   0.760  13.339 -0.4666 -0.2598  0.3650
13352TIP3   OH261546   6.769   4.044   5.491 -0.2841 -0.4597  0.1819
13352TIP3    H161547   6.683   4.065   5.527 -0.1088  1.6002 -0.4418
13352TIP3    H261548   6.825   4.032   5.567 -0.8405 -0.4894  0.5929
13353TIP3   OH261549   5.027   1.883  14.577 -0.3756 -0.6280 -0.0044
13353TIP3    H161550   4.988   1.833  14.648 -0.6568  0.1217  0.3797
13353TIP3    H261551   4.988   1.970  14.584 -0.8755 -0.7142 -1.4664
13354TIP3   OH261552   3.789   0.315  17.495 -0.0600 -0.0163 -0.3151
13354TIP3    H161553   3.740   0.356  17.566 -0.0240  0.3250 -0.4846
13354TIP3    H261554   3.876   0.300  17.531 -0.3084 -0.7180  0.0229
13355TIP3   OH261555   1.102   2.568  11.263  0.6312 -0.2564 -0.0788
13355TIP3    H161556   1.010   2.588  11.283 -0.3271 -2.0812 -2.0992
13355TIP3    H261557   1.132   2.644  11.214 -0.0375  0.0717 -0.0001
13356TIP3   OH261558   5.054   1.054  16.392 -0.0826  0.1673 -0.2240
13356TIP3    H161559   5.111   0.982  16.366 -0.3865  0.6859 -2.6055
13356TIP3    H261560   5.100   1.133  16.363 -2.2169  0.5639 -2.9813
13357TIP3   OH261561   2.139   1.439  15.063  0.2715 -0.6591  0.0551
13357TIP3    H161562   2.227   1.428  15.098  0.7707  0.7986 -0.6554
13357TIP3    H261563   2.105   1.517  15.108 -0.1178 -0.3962 -0.6801
13358TIP3   OH261564   1.668   1.392  11.807 -0.0922  0.1350 -0.0043
13358TIP3    H161565   1.739   1.453  11.824  0.0636  0.3571 -1.2993
13358TIP3    H261566   1.652   1.348  11.890  2.9552 -1.4078 -0.0992
13359TIP3   OH261567   4.706   1.166   4.462 -0.2990 -0.3861  0.1874
13359TIP3    H161568   4.703   1.077   4.428 -1.9636 -0.3989  0.2772
13359TIP3    H261569   4.773   1.210   4.409 -0.3058 -1.3645 -0.6630
13360TIP3   OH261570   0.252   4.107  15.737  0.3546  0.3602 -0.3449
13360TIP3    H161571   0.277   4.077  15.649 -1.0036 -1.2341 -0.2484
13360TIP3    H261572   0.316   4.066  15.795 -1.0521 -1.9574 -0.2869
13361TIP3   OH261573   3.791   5.050  16.633 -0.0630  1.0318  0.1164
13361TIP3    H161574   3.709   5.029  16.589  1.5153 -1.0292 -2.0760
13361TIP3    H261575   3.815   4.969  16.679  1.0720  1.3830  0.1766
13362TIP3   OH261576   5.695   4.312   2.512  0.2878  0.0392 -0.2387
13362TIP3    H161577   5.747   4.381   2.553 -0.6085  0.4960  0.1652
13362TIP3    H261578   5.714   4.233   2.563  0.8902  0.1111 -0.3543
13363TIP3   OH261579   3.963   2.693  16.355  0.0014  0.0316  0.4103
13363TIP3    H161580   3.901   2.624  16.332 -2.1693  1.3952  1.7631
13363TIP3    H261581   3.938   2.719  16.444  3.7096 -0.5281  1.8124
13364TIP3   OH261582   0.626   4.999  14.901  0.2824  0.2939 -0.0891
13364TIP3    H161583   0.713   5.024  14.870  1.0129 -1.8920  0.0557
13364TIP3    H261584   0.598   5.072  14.956  2.2633  0.8093  0.3120
13365TIP3   OH261585   5.874   2.840  14.345  0.6262  0.2943  0.0408
13365TIP3    H161586   5.964   2.811  14.360  0.1571 -0.6456  1.2060
13365TIP3    H261587   5.867   2.923  14.391  1.6110  1.7468 -2.2444
13366TIP3   OH261588   5.991   5.196   5.255  0.7595 -0.1317  0.0940
13366TIP3    H161589   5.921   5.139   5.286  0.6313  0.9442  1.8968
13366TIP3    H261590   5.947   5.258   5.196  0.4391 -0.2678  0.1887
13367TIP3   OH261591   0.465   0.740   3.438 -0.4621 -0.2063 -0.5518
13367TIP3    H161592   0.426   0.825   3.459  0.6064  0.0604  0.5049
13367TIP3    H261593   0.410   0.704   3.369 -2.0506  0.5006  0.3009
13368TIP3   OH261594   2.500   5.011  15.579 -0.0659  0.9092 -0.4382
13368TIP3    H161595   2.409   4.997  15.550  0.9366 -2.1242 -2.6536
13368TIP3    H261596   2.501   5.100  15.612 -3.7935  1.1660 -0.5910
13369TIP3   OH261597   0.875   5.403  12.204  0.5258  0.7679  0.4952
13369TIP3    H161598   0.953   5.419  12.152 -0.2782  0.9309 -0.7127
13369TIP3    H261599   0.802   5.424  12.145 -0.4660 -0.9468  1.0258
13370TIP3   OH261600   3.045   1.952   0.605  0.6409  0.1763 -0.1436
13370TIP3    H161601   3.006   1.985   0.686  0.3245  1.1054 -0.6570
13370TIP3    H261602   3.012   2.010   0.537  1.8371  0.1493 -0.7836
13371TIP3   OH261603   1.671   4.896  14.794 -0.5124  0.1799  0.5042
13371TIP3    H161604   1.676   4.985  14.758 -0.3276 -0.3535 -0.8552
13371TIP3    H261605   1.688   4.907  14.887  0.4733  1.4635  0.2057
13372TIP3   OH261606   3.400   0.218   1.007  0.2422 -0.3860 -0.2000
13372TIP3    H161607   3.331   0.235   1.071  0.4882  1.1603 -0.3018
13372TIP3    H261608   3.436   0.133   1.033 -0.7307 -0.5507  0.7141
13373TIP3   OH261609   0.656   0.555  17.048  0.2013 -0.2974 -0.6207
13373TIP3    H161610   0.742   0.536  17.011 -0.7910 -1.8365 -2.3472
13373TIP3    H261611   0.667   0.637  17.096  2.6847 -0.6412 -0.4690
13374TIP3   OH261612   2.481   1.874   0.543 -0.5579 -0.1671  0.2738
13374TIP3    H161613   2.412   1.896   0.481  0.1100 -0.4328 -0.5973
13374TIP3    H261614   2.508   1.958   0.581 -0.7761  0.0374 -0.0218
13375TIP3   OH261615   2.238   5.881  15.314  0.6527 -0.3853  0.2591
13375TIP3    H161616   2.154   5.918  15.286  1.4310  1.3111  0.0268
13375TIP3    H261617   2.248   5.803  15.260 -0.8550 -0.7361  0.4337
13376TIP3   OH261618   1.476   0.414   4.467  0.0069 -0.3482  0.2712
13376TIP3    H161619   1.429   0.480   4.518 -0.5220 -1.4092  1.1986
13376TIP3    H261620   1.419   0.398   4.391  0.8404  1.2987 -0.7658
13377TIP3   OH261621   5.328   5.582   6.745  0.1408  0.3486 -0.0305
13377TIP3    H161622   5.332   5.627   6.830 -1.3034  0.9875 -0.2851
13377TIP3    H261623   5.348   5.650   6.681  0.2939  0.0795 -0.2717
13378TIP3   OH261624   5.315   2.507   2.855 -0.0235  0.5235 -0.2547
13378TIP3    H161625   5.280   2.423   2.825  0.4209 -0.2944  1.3920
13378TIP3    H261626   5.253   2.572   2.823 -2.1784 -0.7176  1.1456
13379TIP3   OH261627   4.470   1.005   5.951  0.2589  0.0861 -0.3470
13379TIP3    H161628   4.536   0.938   5.933  0.7426  0.8851 -1.6242
13379TIP3    H261629   4.403   0.958   6.002 -0.3505 -1.9304 -2.7611
13380TIP3   OH261630   5.153   2.465  11.073  0.7758 -0.1674  0.3169
13380TIP3    H161631   5.146   2.370  11.081  0.5220 -0.3126 -1.4041
13380TIP3    H261632   5.136   2.497  11.162  2.3883 -1.7867  1.2747
13381TIP3   OH261633   4.107   2.428  11.997  0.0091  0.2243  0.6837
13381TIP3    H161634   4.116   2.479  11.917 -2.0564 -0.1957  0.1394
13381TIP3    H261635   4.145   2.343  11.976 -0.3539  0.1802  0.2079
13382TIP3   OH261636   5.671   4.690   2.168  0.1582 -0.0606 -0.4022
13382TIP3    H161637   5.607   4.701   2.098 -1.5675 -0.3766  1.0590
13382TIP3    H261638   5.665   4.771   2.219  0.1861 -0.5211  0.3376
13383TIP3   OH261639   0.544   3.505  15.859  0.1867 -0.1582  0.1133
13383TIP3    H161640   0.582   3.518  15.945  1.0451  0.7211 -0.3711
13383TIP3    H261641   0.619   3.482  15.803 -0.0240  1.1719 -0.7684
13384TIP3   OH261642   6.308   5.562  17.249  0.1747  0.0833  0.4086
13384TIP3    H161643   6.389   5.545  17.201  0.2885 -0.8741  0.9137
13384TIP3    H261644   6.277   5.646  17.216 -0.4291 -1.1074 -2.2869
13385TIP3   OH261645   5.401   0.328  15.503  0.1643 -0.2275 -0.5697
13385TIP3    H161646   5.483   0.377  15.503 -0.3294  0.7176  1.4444
13385TIP3    H261647   5.428   0.236  15.510  1.0779  0.0564 -0.2065
13386TIP3   OH261648   3.579   3.081  16.363 -0.1887  0.3470 -0.3719
13386TIP3    H161649   3.575   3.030  16.444  0.7546  0.5256 -0.2028
13386TIP3    H261650   3.494   3.065  16.321 -0.2626 -0.6430  0.1098
13387TIP3   OH261651   0.837   6.243   6.135  0.0467  0.0450  0.1075
13387TIP3    H161652   0.794   6.161   6.112  1.4149 -0.6119 -0.2111
13387TIP3    H261653   0.923   6.217   6.166  0.6995  1.3877 -0.4834
13388TIP3   OH261654   4.532   1.828  15.719  0.0195 -0.8157  0.3949
13388TIP3    H161655   4.458   1.807  15.777 -0.6947 -1.3267 -0.6627
13388TIP3    H261656   4.490   1.856  15.638  1.0065 -0.2141  0.0826
13389TIP3   OH261657   4.160   3.884  17.202  0.2552  0.6684  0.5092
13389TIP3    H161658   4.189   3.880  17.111 -1.2945  0.0464  0.0065
13389TIP3    H261659   4.233   3.924  17.249  1.0542  1.0668 -1.0111
13390TIP3   OH261660   4.596   2.041   4.385 -0.4655 -0.5474 -0.1363
13390TIP3    H161661   4.587   1.993   4.468  1.8047  0.4872  0.7945
13390TIP3    H261662   4.521   2.101   4.384 -0.6495 -0.7218  1.0726
13391TIP3   OH261663   3.716   5.984  11.555 -0.2237 -0.0806  0.4905
13391TIP3    H161664   3.664   5.936  11.490  2.9743 -1.7879 -1.0566
13391TIP3    H261665   3.755   5.915  11.610  0.8704  1.0629  1.2062
13392TIP3   OH261666   3.021   0.912   4.923  0.6409  0.2160 -0.2079
13392TIP3    H161667   2.930   0.891   4.900 -0.2080  1.9614  1.3284
13392TIP3    H261668   3.041   0.854   4.996  1.0828 -0.7136 -1.0308
13393TIP3   OH261669   1.348   6.152  17.089 -0.0869 -0.3051 -0.1466
13393TIP3    H161670   1.358   6.127  17.181 -1.1495 -0.7439 -0.1360
13393TIP3    H261671   1.312   6.074  17.046  2.3264 -0.8257 -1.3842
13394TIP3   OH261672   5.632   5.047   0.971 -0.4298 -0.5377  0.6144
13394TIP3    H161673   5.550   5.045   0.921  0.0470 -1.7320 -0.1918
13394TIP3    H261674   5.604   5.057   1.062 -1.3766  0.7336  0.2150
13395TIP3   OH261675   1.895   0.194  17.076  0.3039  0.1955  0.0559
13395TIP3    H161676   1.904   0.280  17.035 -1.0943  0.2712 -0.1415
13395TIP3    H261677   1.843   0.143  17.013  1.4186 -0.9141  0.0056
13396TIP3   OH261678   1.781   0.841  13.425  0.1357 -0.1451  0.4940
13396TIP3    H161679   1.850   0.806  13.369  0.0629  2.0330 -1.1066
13396TIP3    H261680   1.828   0.875  13.502  0.3893 -1.9168  1.1696
13397TIP3   OH261681   2.817   2.046   2.477 -0.6466  0.0523 -0.1462
13397TIP3    H161682   2.909   2.043   2.453 -0.7298 -0.1868 -0.4512
13397TIP3    H261683   2.773   1.996   2.408 -0.8981 -0.6741  0.5236
13398TIP3   OH261684   3.887   0.688   4.967  0.1116 -0.7761  0.2067
13398TIP3    H161685   3.859   0.731   5.048  0.2678  2.4823 -1.2953
13398TIP3    H261686   3.807   0.648   4.932 -0.2863 -0.8945  1.2220
13399TIP3   OH261687   2.851   4.158   0.706  0.1980 -0.5173 -0.2663
13399TIP3    H161688   2.939   4.166   0.742 -0.1677  1.8187  0.2561
13399TIP3    H261689   2.840   4.236   0.651 -2.4207  0.7050  1.7553
13400TIP3   OH261690   4.733   1.924   3.427 -0.2978 -0.1802 -0.5122
13400TIP3    H161691   4.656   1.929   3.484  0.7889 -0.3767  1.0061
13400TIP3    H261692   4.807   1.939   3.485  0.8229  0.0741 -1.9727
13401TIP3   OH261693   1.819   4.121   2.834  1.0647 -0.0128  0.0601
13401TIP3    H161694   1.863   4.062   2.772 -0.3767 -1.4541  0.3271
13401TIP3    H261695   1.733   4.136   2.796  0.8181  0.5650  0.8240
13402TIP3   OH261696   6.468   2.504   3.905 -0.4491 -0.0315 -0.2329
13402TIP3    H161697   6.546   2.523   3.958 -1.5816  1.2953  1.0379
13402TIP3    H261698   6.465   2.409   3.899  1.8716 -0.1135 -1.2934
13403TIP3   OH261699   4.085   4.233   2.057 -0.2469 -0.3482  0.1350
13403TIP3    H161700   4.175   4.265   2.048  0.6489 -2.9080 -0.9600
13403TIP3    H261701   4.034   4.291   2.000  1.2895 -0.7649 -1.8129
13404TIP3   OH261702   3.108   2.636  12.281  0.2046  0.1531 -0.0900
13404TIP3    H161703   3.019   2.666  12.298  0.0442 -0.5173  0.2918
13404TIP3    H261704   3.119   2.646  12.186 -0.3913 -0.0433 -0.1863
13405TIP3   OH261705   1.326   5.224   3.658  0.0722 -0.1268 -0.3523
13405TIP3    H161706   1.273   5.144   3.657 -0.2647  0.0940 -0.9512
13405TIP3    H261707   1.316   5.259   3.570  0.7105  0.2566 -0.2745
13406TIP3   OH261708   5.781   6.610  15.355 -0.3314  0.6614 -0.1232
13406TIP3    H161709   5.798   6.535  15.412  0.0915  0.3347 -0.6696
13406TIP3    H261710   5.857   6.614  15.297  0.1281  2.1199  0.5302
13407TIP3   OH261711   3.576   1.620  12.628  0.0233  0.3496 -0.4861
13407TIP3    H161712   3.585   1.659  12.715  1.7732 -0.3498 -0.3082
13407TIP3    H261713   3.545   1.531  12.644  0.3685  0.2124 -0.5676
13408TIP3   OH261714   1.428   3.138   6.013 -0.4778 -0.1373 -0.0264
13408TIP3    H161715   1.516   3.099   6.011 -0.5452 -0.2988  0.1283
13408TIP3    H261716   1.426   3.194   5.936  0.7850  2.1482  1.4883
13409TIP3   OH261717   4.931   5.269   4.709 -0.9572 -0.4783  0.8547
13409TIP3    H161718   4.986   5.191   4.704  0.1099  0.2505  0.9538
13409TIP3    H261719   4.980   5.336   4.661 -1.3371  0.4240  1.6983
13410TIP3   OH261720   5.450   5.768  15.954  0.2774  0.0339 -0.0672
13410TIP3    H161721   5.370   5.717  15.945  0.2393  0.3480 -1.7760
13410TIP3    H261722   5.517   5.704  15.978 -0.2892 -0.3668  0.4914
13411TIP3   OH261723   2.391   5.983   1.557 -0.3592 -0.1353  0.1782
13411TIP3    H161724   2.486   5.988   1.546 -0.3854 -0.2334 -0.0957
13411TIP3    H261725   2.363   6.074   1.568 -0.2527 -0.0934  0.1016
13412TIP3   OH261726   2.831   4.341  15.832  0.3041 -0.6269  0.3629
13412TIP3    H161727   2.925   4.342  15.848  0.8481  0.1881 -2.3212
13412TIP3    H261728   2.823   4.360  15.739 -2.5025 -1.4814  0.3427
13413TIP3   OH261729   2.669   4.302   4.047  0.0703 -0.4684  0.5222
13413TIP3    H161730   2.671   4.279   4.139  2.6764  0.5503  0.8186
13413TIP3    H261731   2.741   4.364   4.036 -0.6580  0.0724 -2.0529
13414TIP3   OH261732   2.091   4.425  13.487  0.2021 -0.1873 -0.3190
13414TIP3    H161733   2.006   4.382  13.501  0.7588 -1.2195 -0.0260
13414TIP3    H261734   2.083   4.509  13.532  0.1657 -1.2994  1.9005
13415TIP3   OH261735   6.044   5.158   5.607 -0.0260 -0.2238 -0.1999
13415TIP3    H161736   6.023   5.193   5.694  2.1060 -0.8721  0.6401
13415TIP3    H261737   6.012   5.068   5.610 -0.7259  0.0100 -0.4220
13416TIP3   OH261738   2.681   5.558  15.845  0.2234  0.1856 -0.1393
13416TIP3    H161739   2.588   5.575  15.833  0.1767 -0.3628 -0.5891
13416TIP3    H261740   2.724   5.604  15.773  0.1344 -1.1339 -1.0768
13417TIP3   OH261741   1.703   3.651   0.543 -0.3840 -0.4849  0.2151
13417TIP3    H161742   1.719   3.704   0.621  2.8684 -1.1534  0.1455
13417TIP3    H261743   1.644   3.704   0.490  1.5175  2.4643  0.7974
13418TIP3   OH261744   0.620   1.453   6.190 -0.0185  0.4855 -0.2324
13418TIP3    H161745   0.604   1.497   6.273  1.9107  1.3437 -0.2741
13418TIP3    H261746   0.603   1.519   6.123 -0.9531 -0.0194 -0.5112
13419TIP3   OH261747   5.570   0.926  11.873 -0.3010  0.2107  0.3393
13419TIP3    H161748   5.509   0.990  11.836 -1.5653 -0.8011  0.6129
13419TIP3    H261749   5.525   0.891  11.949  0.2760 -1.1359  0.0956
13420TIP3   OH261750   6.632   0.047   2.031 -0.1979  0.4250 -0.4445
13420TIP3    H161751   6.715   0.033   2.075 -0.4528  0.6807  0.1338
13420TIP3    H261752   6.569  -0.004   2.082 -0.8821  2.4172  0.8363
13421TIP3   OH261753   5.288   1.420  13.178  0.1698  0.0434  0.1615
13421TIP3    H161754   5.328   1.342  13.138  1.4869 -0.3160  2.0654
13421TIP3    H261755   5.352   1.489  13.165  0.0865  0.2097  0.6342
13422TIP3   OH261756   2.622   3.775  15.902  0.7848 -0.2784  0.3611
13422TIP3    H161757   2.635   3.690  15.860  2.0504 -0.3191  0.8130
13422TIP3    H261758   2.592   3.833  15.831  0.3534 -0.9711 -0.0366
13423TIP3   OH261759   3.144   4.388   0.212 -0.0792 -0.5862  0.1000
13423TIP3    H161760   3.142   4.447   0.287 -0.7591  0.2670 -0.5852
13423TIP3    H261761   3.230   4.346   0.218  0.3226  0.2911  0.7270
13424TIP3   OH261762   4.924   5.942   1.301 -0.1326  0.2936 -0.3227
13424TIP3    H161763   4.982   5.949   1.377 -0.1108 -0.5415 -0.2487
13424TIP3    H261764   4.928   6.027   1.259  1.0352  0.2976 -0.2307
13425TIP3   OH261765   6.290   4.443  13.434 -0.2381  0.1258 -0.0169
13425TIP3    H161766   6.292   4.427  13.339  2.7315  1.1747 -0.2331
13425TIP3    H261767   6.218   4.505  13.446 -0.6452  0.0113 -1.5592
13426TIP3   OH261768   3.533   2.122  13.919 -0.7420  0.3058  0.1038
13426TIP3    H161769   3.450   2.168  13.934 -0.9171 -0.3040  1.0604
13426TIP3    H261770   3.600   2.188  13.937 -1.0002  0.5692  0.1284
13427TIP3   OH261771   3.612   2.919  11.990  0.7307 -0.7430 -0.1742
13427TIP3    H161772   3.553   2.892  12.060 -0.9418 -1.7264 -1.8352
13427TIP3    H261773   3.677   2.974  12.032 -1.9793  1.3122  1.6614
13428TIP3   OH261774   0.439   1.280   0.569  0.8091 -0.4798  0.3735
13428TIP3    H161775   0.368   1.274   0.505  0.3825 -1.7576  0.9455
13428TIP3    H261776   0.432   1.369   0.604  0.1478 -0.2505 -0.3072
13429TIP3   OH261777   3.688   1.086  12.355 -0.1009  0.2035  0.1207
13429TIP3    H161778   3.727   1.043  12.279  0.6537  0.7930  0.1595
13429TIP3    H261779   3.611   1.033  12.376 -1.8621  1.4785 -2.6088
13430TIP3   OH261780   3.151   6.323  13.694 -0.2281  0.2228 -0.1617
13430TIP3    H161781   3.154   6.228  13.685 -0.7130 -0.0857  2.3312
13430TIP3    H261782   3.192   6.341  13.779 -1.3638  2.1180  0.0464
13431TIP3   OH261783   0.957   1.599   3.284 -0.0167 -0.1826  0.9386
13431TIP3    H161784   0.982   1.533   3.349  0.2680  0.1356  1.1502
13431TIP3    H261785   0.986   1.682   3.321  0.3943 -0.0295  0.2829
13432TIP3   OH261786   1.118   6.423   2.200  0.8111 -0.2842  0.6223
13432TIP3    H161787   1.145   6.455   2.114  0.1196  0.5616  0.7094
13432TIP3    H261788   1.056   6.489   2.232  1.4436 -0.3264  1.9850
13433TIP3   OH261789   4.571   5.064   2.800  0.2266 -0.3412  0.2047
13433TIP3    H161790   4.559   5.154   2.768  0.1444 -0.0132  1.1392
13433TIP3    H261791   4.640   5.071   2.866  1.5869 -1.2882 -1.0529
13434TIP3   OH261792   5.200   2.477   3.865 -0.7017  0.2059  0.6041
13434TIP3    H161793   5.108   2.461   3.884 -0.8672 -0.2425 -0.5053
13434TIP3    H261794   5.199   2.537   3.791 -0.0893  2.8567  2.5768
13435TIP3   OH261795   5.472   0.660   1.424  0.4181  0.4520  0.2639
13435TIP3    H161796   5.448   0.608   1.500  0.7149 -1.3187 -0.7992
13435TIP3    H261797   5.554   0.622   1.393  0.2219  1.0166 -1.0283
13436TIP3   OH261798   2.852   4.581   3.280  0.0051  1.1496  0.0893
13436TIP3    H161799   2.794   4.504   3.275  4.3523 -2.6530  1.4391
13436TIP3    H261800   2.844   4.622   3.194 -2.0371 -1.2409 -1.0051
13437TIP3   OH261801   6.197   1.027   3.962  0.3204 -0.4476  0.0805
13437TIP3    H161802   6.158   0.992   3.882  0.8656 -0.2037 -0.2967
13437TIP3    H261803   6.238   0.951   4.004  0.4779 -0.4809 -0.1340
13438TIP3   OH261804   1.863   0.316   5.443 -0.5018 -0.2067  0.3721
13438TIP3    H161805   1.940   0.315   5.388  0.1439 -1.8255  1.2524
13438TIP3    H261806   1.881   0.252   5.512 -1.7803  0.8514  1.7604
13439TIP3   OH261807   1.937   1.055  15.156 -0.0700  0.2660 -0.3042
13439TIP3    H161808   1.904   0.966  15.147 -1.0418  0.4412  1.0722
13439TIP3    H261809   1.916   1.079  15.247  1.5660  1.3391 -0.1666
13440TIP3   OH261810   6.450   5.079   3.469 -0.1472  0.4304  0.1511
13440TIP3    H161811   6.454   5.000   3.523  3.5837  0.1592 -0.2370
13440TIP3    H261812   6.469   5.151   3.529  0.1374  0.5729 -0.1011
13441TIP3   OH261813   5.091   0.796   2.750 -0.2696  0.5717 -0.3427
13441TIP3    H161814   5.162   0.766   2.694  0.3838 -0.2910  0.8862
13441TIP3    H261815   5.011   0.777   2.701  0.2806 -0.1905 -0.9683
13442TIP3   OH261816   4.533   0.415  13.636 -0.3576  0.5651  0.6194
13442TIP3    H161817   4.601   0.412  13.569  0.8703  0.4545  1.8176
13442TIP3    H261818   4.461   0.364  13.601 -0.5113  2.0511 -1.4047
13443TIP3   OH261819   0.327   0.129   1.289 -0.0138 -0.4711  0.0724
13443TIP3    H161820   0.312   0.082   1.371 -0.3538 -0.9561 -0.2589
13443TIP3    H261821   0.417   0.163   1.297  0.2899 -1.2921  0.2749
13444TIP3   OH261822   5.817   6.569   3.071 -0.5199 -0.5374 -0.4035
13444TIP3    H161823   5.881   6.514   3.026 -0.8650 -0.7507 -0.6394
13444TIP3    H261824   5.870   6.633   3.118 -0.0742 -1.5649  0.5472
13445TIP3   OH261825   0.920   1.868  11.415 -0.7904 -0.7237 -0.4890
13445TIP3    H161826   0.847   1.838  11.470 -0.6479  0.3196  0.2794
13445TIP3    H261827   0.974   1.921  11.473 -0.3830  0.0118 -1.5241
13446TIP3   OH261828   2.359   3.619  12.814  0.5305  0.3128  0.0667
13446TIP3    H161829   2.299   3.595  12.885  0.7433  0.4685  0.3033
13446TIP3    H261830   2.303   3.630  12.737  0.3948 -0.7544 -0.0122
13447TIP3   OH261831   1.931   5.247   3.981  0.2198 -0.0524  0.4313
13447TIP3    H161832   1.994   5.317   3.994 -1.1024  1.2619  0.1341
13447TIP3    H261833   1.908   5.253   3.888  0.0312 -0.8412  0.4181
13448TIP3   OH261834   3.727   0.320  10.586  0.0381 -0.5685  0.0578
13448TIP3    H161835   3.671   0.311  10.509 -0.9144 -0.3691  0.6955
13448TIP3    H261836   3.735   0.414  10.599 -0.0028 -0.6004  0.3279
13449TIP3   OH261837   4.757   4.528   3.878  0.7436  0.2235 -0.2970
13449TIP3    H161838   4.709   4.453   3.844  2.1882 -0.6292 -0.5137
13449TIP3    H261839   4.846   4.496   3.892  1.0324  1.4845  1.0473
13450TIP3   OH261840   5.423   2.509   2.555  0.0821 -0.5341  0.1419
13450TIP3    H161841   5.497   2.568   2.567  0.8378 -1.5427  0.6526
13450TIP3    H261842   5.452   2.426   2.594 -1.2459 -1.0098  0.1774
13451TIP3   OH261843   6.008   1.464   0.165  0.5823 -0.0114  0.4818
13451TIP3    H161844   6.040   1.374   0.164  0.8161  0.0732  0.4068
13451TIP3    H261845   5.945   1.469   0.093  0.2459 -0.2324  0.7566
13452TIP3   OH261846   5.978   3.817  11.187  0.4099  0.0201  0.2518
13452TIP3    H161847   5.927   3.843  11.264  0.5547  0.7515  0.1118
13452TIP3    H261848   5.926   3.749  11.145  0.3178 -0.3724  0.9811
13453TIP3   OH261849   4.681   0.177  17.376  0.5122  0.0279  0.5244
13453TIP3    H161850   4.634   0.234  17.436 -0.0189 -0.3691  0.5028
13453TIP3    H261851   4.755   0.143  17.427  0.0036 -0.3918  0.9954
13454TIP3   OH261852   1.519   3.716  14.166 -0.1468 -0.0490 -0.5990
13454TIP3    H161853   1.502   3.721  14.260 -3.4602  0.2406 -1.0982
13454TIP3    H261854   1.475   3.793  14.130 -1.3669 -1.6215 -2.6362
13455TIP3   OH261855   0.713   6.075   5.086  0.2751 -0.3418 -0.4358
13455TIP3    H161856   0.628   6.112   5.108  0.1922 -1.1139  0.6550
13455TIP3    H261857   0.703   5.981   5.104  1.6638 -0.2931  0.8104
13456TIP3   OH261858   0.727   1.251  16.728 -0.1064 -0.0498 -0.0963
13456TIP3    H161859   0.770   1.171  16.759 -0.5565  0.6592  2.6702
13456TIP3    H261860   0.688   1.289  16.807  0.1313  2.9618 -1.2945
13457TIP3   OH261861   6.680   3.081   4.179 -0.0763  0.0402 -0.1403
13457TIP3    H161862   6.620   3.101   4.252  0.6822 -1.5771  0.9994
13457TIP3    H261863   6.715   2.994   4.201  1.4681  0.2562 -1.5951
13458TIP3   OH261864   4.594   5.551   1.835  0.1027 -1.0853  0.3573
13458TIP3    H161865   4.681   5.559   1.795  0.0070 -0.6523  0.2294
13458TIP3    H261866   4.599   5.605   1.914 -0.7907  0.9492 -0.9083
13459TIP3   OH261867   3.039   4.954  15.349  0.6174 -0.0271 -0.5824
13459TIP3    H161868   3.016   4.967  15.441 -1.3072 -1.9953 -0.7093
13459TIP3    H261869   2.970   5.001  15.301  1.2259  0.4149 -1.0286
13460TIP3   OH261870   5.152   3.618   2.644 -0.5025  0.2516  0.3910
13460TIP3    H161871   5.104   3.619   2.562 -1.0209  1.6442  0.6808
13460TIP3    H261872   5.134   3.531   2.681 -1.3161  0.0806 -0.3628
13461TIP3   OH261873   3.751   2.129  14.852 -0.1979  0.0927 -0.1679
13461TIP3    H161874   3.682   2.074  14.815 -0.3215  0.5552 -0.6275
13461TIP3    H261875   3.828   2.071  14.855 -0.5661 -0.3868  0.2395
13462TIP3   OH261876   3.998   2.642  13.376 -0.0136 -0.2449 -0.1976
13462TIP3    H161877   3.982   2.551  13.400 -1.7624 -0.2092 -1.0173
13462TIP3    H261878   4.032   2.638  13.287  1.0275 -0.1328  0.1848
13463TIP3   OH261879   0.376   5.733   0.854 -0.1519  0.2187  0.0636
13463TIP3    H161880   0.431   5.730   0.776  1.1041  2.8752  0.7365
13463TIP3    H261881   0.404   5.658   0.906 -0.2364 -0.9551 -1.5096
13464TIP3   OH261882   6.292   4.706   3.565  0.6724 -0.1615  0.3903
13464TIP3    H161883   6.285   4.734   3.473  1.5983  2.0488  0.9359
13464TIP3    H261884   6.226   4.757   3.611  2.7114  1.6769  1.4943
13465TIP3   OH261885   6.184   5.098   4.955 -0.4441 -0.0618 -0.6561
13465TIP3    H161886   6.213   5.040   4.885  1.3329 -0.1127  0.0685
13465TIP3    H261887   6.236   5.178   4.944  0.5044 -0.3864  1.0738
13466TIP3   OH261888   5.057   1.032  15.655  0.2516 -0.4303  0.3297
13466TIP3    H161889   4.989   1.059  15.716  0.1028 -1.6677  0.7402
13466TIP3    H261890   5.138   1.067  15.692  0.0549 -0.4631  0.7958
13467TIP3   OH261891   4.215   5.431   2.257  0.4534 -0.3755  0.1997
13467TIP3    H161892   4.165   5.510   2.276  1.1028 -0.5516  3.1063
13467TIP3    H261893   4.148   5.362   2.249  0.0164  0.0950 -0.2445
13468TIP3   OH261894   1.385   0.010   3.337 -0.6614 -0.5223 -0.4140
13468TIP3    H161895   1.370  -0.084   3.327  1.7010 -0.9984 -0.0248
13468TIP3    H261896   1.355   0.048   3.254 -2.2291 -1.4938 -0.3318
13469TIP3   OH261897   0.881   5.144  14.567  0.1489 -0.3404 -0.1694
13469TIP3    H161898   0.888   5.094  14.485  1.9308  1.4779 -1.2098
13469TIP3    H261899   0.840   5.226  14.541  2.4775  1.0528  0.3109
13470TIP3   OH261900   0.633   0.540   5.235 -0.1303 -0.4587 -0.2401
13470TIP3    H161901   0.606   0.453   5.204  0.7338 -0.7751 -0.1171
13470TIP3    H261902   0.710   0.524   5.289 -0.6617  0.2661  0.7733
13471TIP3   OH261903   0.491   2.970  14.523 -0.5311 -0.0176 -0.1624
13471TIP3    H161904   0.471   2.908  14.454 -1.3718  0.2765 -0.1940
13471TIP3    H261905   0.408   2.983  14.569  0.2817 -1.2625  1.7969
13472TIP3   OH261906   2.868   5.078  16.368 -0.3755  0.3429  0.7933
13472TIP3    H161907   2.877   5.036  16.283  1.6364 -1.3259  1.7421
13472TIP3    H261908   2.820   5.015  16.422  0.6391  0.2120  1.5842
13473TIP3   OH261909   2.632   1.051   2.467 -0.4650  0.1351  0.1673
13473TIP3    H161910   2.687   1.031   2.392  0.4262 -0.7572  1.0251
13473TIP3    H261911   2.625   0.969   2.515  0.6288  1.0784  2.0924
13474TIP3   OH261912   0.165   1.799  13.669 -0.1056 -0.2639 -0.0754
13474TIP3    H161913   0.131   1.716  13.703 -0.8113 -0.2583 -0.7351
13474TIP3    H261914   0.134   1.802  13.578  0.6985  0.2917 -0.3423
13475TIP3   OH261915   2.263   1.085   5.206  0.8960 -0.4150  0.5425
13475TIP3    H161916   2.196   1.081   5.139 -0.3964  0.3498  1.7292
13475TIP3    H261917   2.228   1.032   5.278  1.6376 -0.1481  1.1116
13476TIP3   OH261918   1.770   4.819   3.147  0.2035 -0.0166 -0.3928
13476TIP3    H161919   1.841   4.775   3.100  0.8766  0.2837  0.3249
13476TIP3    H261920   1.707   4.843   3.078  0.5817 -0.6742 -0.9806
13477TIP3   OH261921   3.960   2.729   0.572 -0.1165 -0.0534  0.1273
13477TIP3    H161922   3.980   2.798   0.508  0.4886 -0.0246  0.3381
13477TIP3    H261923   3.873   2.751   0.604  0.0377  0.5862  0.1400
13478TIP3   OH261924   0.445   6.708  12.509 -1.1049 -0.3114  0.0795
13478TIP3    H161925   0.509   6.673  12.447 -2.4506 -1.2120 -0.8425
13478TIP3    H261926   0.466   6.664  12.592 -0.5370 -0.5918 -0.2055
13479TIP3   OH261927   5.233   1.655   1.260  0.1657 -0.0571  0.4287
13479TIP3    H161928   5.204   1.653   1.352  0.6490  1.3215  0.6372
13479TIP3    H261929   5.328   1.664   1.266  0.5280 -2.6680 -0.2463
13480TIP3   OH261930   5.915   1.766   3.573  0.0671  0.0563 -0.2193
13480TIP3    H161931   6.002   1.732   3.552  0.1052 -0.9306  1.3370
13480TIP3    H261932   5.892   1.823   3.500  1.6270 -0.4012 -1.0935
13481TIP3   OH261933   6.330   1.033  16.653 -0.0037  0.0237 -0.2269
13481TIP3    H161934   6.287   1.101  16.704  0.8613 -0.3283  1.0285
13481TIP3    H261935   6.318   1.060  16.562  1.2761  2.4396  0.2474
13482TIP3   OH261936   0.526   2.117   0.114  0.4592 -0.1570 -0.4341
13482TIP3    H161937   0.477   2.199   0.102 -1.7106 -1.3875 -0.5236
13482TIP3    H261938   0.593   2.119   0.046 -0.6707  0.7837 -1.5660
13483TIP3   OH261939   1.300   3.155   2.423  0.3861 -0.4418  0.5055
13483TIP3    H161940   1.283   3.247   2.442 -0.7584 -0.4252 -0.4937
13483TIP3    H261941   1.214   3.117   2.405  1.0090 -1.2864 -0.8995
13484TIP3   OH261942   5.668   6.197   6.491  0.2056 -0.0714  0.0088
13484TIP3    H161943   5.625   6.115   6.517  0.3976  0.4885  2.2162
13484TIP3    H261944   5.759   6.173   6.477 -0.1140 -0.5955 -1.3468
13485TIP3   OH261945   0.323   5.215   2.054  0.6618  0.0163  0.7236
13485TIP3    H161946   0.243   5.164   2.064  1.3565 -1.7299 -1.6070
13485TIP3    H261947   0.293   5.299   2.017 -0.1913 -0.0871  1.1558
13486TIP3   OH261948   1.369   2.947  15.588 -0.2817  0.1915 -0.0359
13486TIP3    H161949   1.297   2.884  15.595 -0.4618  0.5045  1.1270
13486TIP3    H261950   1.391   2.968  15.679  1.7031 -0.3775 -0.3387
13487TIP3   OH261951   2.439   0.048   0.533 -0.0977 -0.0557  0.1010
13487TIP3    H161952   2.374  -0.007   0.488  0.7984 -1.3677  0.3442
13487TIP3    H261953   2.422   0.034   0.626 -0.8935  1.3724  0.1904
13488TIP3   OH261954   3.599   6.717  13.052  0.3436 -0.0366 -0.5325
13488TIP3    H161955   3.614   6.622  13.049  1.6380 -0.0598  2.7081
13488TIP3    H261956   3.683   6.754  13.078 -0.3521  1.9407 -0.9226
13489TIP3   OH261957   2.301   0.545  14.746 -0.1342  0.6164  0.1178
13489TIP3    H161958   2.373   0.607  14.735 -1.9220  3.0331  1.1942
13489TIP3    H261959   2.245   0.559  14.670 -1.1706  1.2763  0.9648
13490TIP3   OH261960   3.614   3.823  12.900 -0.0063 -0.3737  0.2464
13490TIP3    H161961   3.612   3.879  12.978  0.4684  0.6196 -0.4412
13490TIP3    H261962   3.685   3.858  12.846 -0.6312 -0.7446 -0.8562
13491TIP3   OH261963   5.539   3.475   3.389 -0.3402 -0.1753 -0.0713
13491TIP3    H161964   5.609   3.423   3.350  0.1716  0.2183  0.3180
13491TIP3    H261965   5.581   3.557   3.415 -0.7419 -0.2867  0.9806
13492TIP3   OH261966   4.112   2.046  13.703  0.7556  0.0692 -0.7803
13492TIP3    H161967   4.055   2.075  13.774 -0.2199  1.8818 -2.1919
13492TIP3    H261968   4.198   2.034  13.744  0.3018  1.3530  0.6555
13493TIP3   OH261969   3.315   0.999  16.861  0.1028  0.2608 -0.0184
13493TIP3    H161970   3.308   1.063  16.932 -1.8482 -1.3097  1.3445
13493TIP3    H261971   3.356   1.046  16.789 -0.2126  2.6819  1.2965
13494TIP3   OH261972   4.300   5.046   2.865 -0.0552 -0.7382 -0.2842
13494TIP3    H161973   4.386   5.022   2.829  0.4192 -0.1785  0.4469
13494TIP3    H261974   4.285   5.135   2.835 -0.6139 -1.0077 -0.8196
13495TIP3   OH261975   4.104   6.664  15.941 -0.1130  0.4667 -0.1865
13495TIP3    H161976   4.068   6.751  15.924  2.8946  1.6586 -1.0594
13495TIP3    H261977   4.181   6.657  15.885  1.4594 -1.5750  1.9679
13496TIP3   OH261978   4.382   6.616   5.594 -0.2860  0.1463  0.5020
13496TIP3    H161979   4.313   6.582   5.537 -1.0376 -0.7253  1.8977
13496TIP3    H261980   4.385   6.710   5.574 -0.4713 -0.1389 -1.0061
13497TIP3   OH261981   6.566   0.397  16.954  0.1628  0.0643  0.2220
13497TIP3    H161982   6.622   0.449  16.896 -0.7411  1.2856  0.4127
13497TIP3    H261983   6.486   0.383  16.905  0.5922 -1.6789 -0.0482
13498TIP3   OH261984   4.813   0.806  11.681  0.1651 -0.4002  0.0807
13498TIP3    H161985   4.863   0.887  11.677 -0.7467  0.1616 -0.3817
13498TIP3    H261986   4.862   0.751  11.741 -0.0233  1.0992  1.7131
13499TIP3   OH261987   6.022   2.904  13.713  0.0399  0.0434  0.0655
13499TIP3    H161988   6.018   2.851  13.792 -2.8840  1.6649  1.1384
13499TIP3    H261989   5.973   2.984  13.734 -2.5060 -0.1989 -3.8752
13500TIP3   OH261990   0.651   2.462  14.783 -0.0351  0.0338 -0.4099
13500TIP3    H161991   0.732   2.424  14.818 -0.2530  0.2192  0.3194
13500TIP3    H261992   0.659   2.453  14.688  1.0635  0.5075 -0.3684
13501TIP3   OH261993   3.837   5.031   4.245 -0.1643 -0.2031 -0.3434
13501TIP3    H161994   3.917   5.079   4.267  1.3824 -2.4421 -0.7513
13501TIP3    H261995   3.820   4.976   4.321 -0.9443 -0.2341 -0.5370
13502TIP3   OH261996   6.659   5.146  17.271  0.5258 -0.0279 -0.0865
13502TIP3    H161997   6.589   5.209  17.257 -0.3705 -1.1035 -0.5962
13502TIP3    H261998   6.724   5.166  17.204 -0.4214 -0.5561 -1.1921
13503TIP3   OH261999   4.577   6.267   2.920 -0.2591  0.0047  0.5670
13503TIP3    H162000   4.528   6.275   3.001  1.2061 -2.0665  1.7571
13503TIP3    H262001   4.528   6.202   2.869 -0.7909  0.7817  0.0604
13504TIP3   OH262002   3.337   4.464   5.667 -0.0597 -0.6568  0.7842
13504TIP3    H162003   3.290   4.412   5.601  2.0181 -4.0724  1.7604
13504TIP3    H262004   3.394   4.520   5.615 -1.4873 -0.1537 -0.3288
13505TIP3   OH262005   5.823   5.383  13.528  0.1243  0.0799 -0.0280
13505TIP3    H162006   5.862   5.443  13.465  0.2480  0.5816  0.5211
13505TIP3    H262007   5.810   5.302  13.478 -2.6914  1.3658 -1.6541
13506TIP3   OH262008   4.916   5.966  16.187 -0.8492 -0.3264 -0.3220
13506TIP3    H162009   4.871   5.941  16.107 -2.2379  1.3552 -0.1214
13506TIP3    H262010   4.879   6.051  16.210  0.6595 -0.0378  1.2448
13507TIP3   OH262011   3.407   0.218  15.133  0.0731 -0.6520  0.4199
13507TIP3    H162012   3.471   0.280  15.099  0.4483 -1.7786 -1.0270
13507TIP3    H262013   3.352   0.196  15.057 -0.5786 -1.4392  1.0954
13508TIP3   OH262014   5.751   1.594   3.364 -0.2647  0.1081 -0.2230
13508TIP3    H162015   5.776   1.605   3.273 -2.6762 -1.1632 -1.1061
13508TIP3    H262016   5.829   1.621   3.413  1.5388 -0.3584 -2.6415
13509TIP3   OH262017   1.135   6.299  16.389 -0.2025 -0.7256  0.4224
13509TIP3    H162018   1.164   6.254  16.310 -0.7130 -1.4627  0.6499
13509TIP3    H262019   1.181   6.254  16.460 -2.2633 -2.3058  0.8493
13510TIP3   OH262020   0.872   3.128   4.605 -0.3434 -0.5116  0.4966
13510TIP3    H162021   0.919   3.144   4.523  0.2155 -0.4815  0.8210
13510TIP3    H262022   0.866   3.214   4.646  0.6317 -0.7461  1.1545
13511TIP3   OH262023   0.008   3.421  14.734 -0.6832  0.4477  0.3381
13511TIP3    H162024  -0.059   3.462  14.788 -0.1475  0.2747  1.1423
13511TIP3    H262025   0.051   3.358  14.792  2.0688  2.5049  0.7391
13512TIP3   OH262026   0.820   5.814   1.579 -0.5676  0.2816 -0.4634
13512TIP3    H162027   0.728   5.816   1.554 -0.6760  1.3808 -0.0402
13512TIP3    H262028   0.822   5.849   1.668  0.2735  0.4613 -0.5429
13513TIP3   OH262029   2.485   1.651  11.828 -0.0638 -0.2361 -0.5750
13513TIP3    H162030   2.560   1.596  11.806  0.4711 -0.0832  0.7824
13513TIP3    H262031   2.523   1.729  11.867 -0.9492 -0.9665  1.9223
13514TIP3   OH262032   4.604   4.694  17.426  0.1509  0.0851  0.1497
13514TIP3    H162033   4.669   4.686  17.496  1.6501  2.0898 -0.9249
13514TIP3    H262034   4.645   4.653  17.350  0.1234  1.2265 -0.4965
13515TIP3   OH262035   4.109   1.544   5.644 -0.8493 -0.0968  0.1724
13515TIP3    H162036   4.059   1.468   5.674 -0.5218 -1.5040 -2.5074
13515TIP3    H262037   4.198   1.528   5.675 -1.3421  0.7981  2.2013
13516TIP3   OH262038   6.094   3.678  12.506  0.0922 -0.4063 -0.4954
13516TIP3    H162039   6.052   3.721  12.580 -0.7550 -1.0164 -0.5989
13516TIP3    H262040   6.188   3.687  12.522 -0.0796  0.1479  0.2419
13517TIP3   OH262041   4.445   5.826  12.966 -0.4204 -0.0989  0.0122
13517TIP3    H162042   4.380   5.893  12.945  0.1369  0.0707 -1.2323
13517TIP3    H262043   4.422   5.798  13.055 -0.6596  1.7355  0.5686
13518TIP3   OH262044   0.244   1.334  17.276  1.3417 -0.4740  0.2087
13518TIP3    H162045   0.151   1.327  17.255  1.2959  2.3143 -0.9599
13518TIP3    H262046   0.253   1.287  17.359 -0.6802 -2.4669 -0.5761
13519TIP3   OH262047   4.773   5.195  12.093  0.0306 -0.1394  0.3354
13519TIP3    H162048   4.804   5.111  12.124  0.7427 -1.5280 -3.5503
13519TIP3    H262049   4.850   5.251  12.092  0.5403 -0.8184 -0.9718
13520TIP3   OH262050   0.066   4.397   0.038  0.5168 -0.2292 -1.0713
13520TIP3    H162051   0.052   4.369   0.128  0.3675  0.9876 -0.6976
13520TIP3    H262052   0.007   4.471   0.027  0.9316 -0.0270 -2.0055
13521TIP3   OH262053   3.123   4.706   2.912  1.0945  0.5878 -0.0583
13521TIP3    H162054   3.058   4.726   2.845  1.7369  0.9007 -0.6044
13521TIP3    H262055   3.193   4.659   2.864  0.9897 -0.3041  0.6333
13522TIP3   OH262056   6.206   5.205   3.390 -0.2314 -0.2203  0.3822
13522TIP3    H162057   6.273   5.147   3.427 -0.2617 -0.3695  0.2004
13522TIP3    H262058   6.237   5.294   3.412 -0.2807 -0.3083  0.8202
13523TIP3   OH262059   3.543   6.752  15.519  0.5160  0.5456  0.2584
13523TIP3    H162060   3.500   6.830  15.482  1.6942  0.6637 -0.9322
13523TIP3    H262061   3.605   6.724  15.452 -0.2529 -1.7778  0.4201
13524TIP3   OH262062   5.447   2.412   2.278 -0.2577  0.7763  0.1747
13524TIP3    H162063   5.415   2.471   2.210 -0.2924  1.3218  0.6608
13524TIP3    H262064   5.434   2.460   2.360  2.3734  1.2990  0.3519
13525TIP3   OH262065   4.877   1.180  15.801  0.2594  1.0482  0.0330
13525TIP3    H162066   4.805   1.130  15.762  0.9452 -0.2158  0.3364
13525TIP3    H262067   4.867   1.166  15.895  2.2325 -1.1238  0.0009
13526TIP3   OH262068   6.673   1.975  15.405  0.2266  0.1975 -0.5231
13526TIP3    H162069   6.686   1.939  15.493  2.1007  0.5130 -0.6381
13526TIP3    H262070   6.761   1.992  15.372 -0.3584 -0.8116 -2.8564
13527TIP3   OH262071   4.121   4.250   1.175 -0.3407  0.2730 -0.4865
13527TIP3    H162072   4.154   4.317   1.115 -0.9193 -0.9678 -2.2780
13527TIP3    H262073   4.061   4.197   1.122 -2.0847  0.0080  1.5910
13528TIP3   OH262074   6.538   3.263   6.927 -0.2195  0.4447  0.2345
13528TIP3    H162075   6.588   3.285   7.005  0.4932 -0.5119  0.0610
13528TIP3    H262076   6.447   3.254   6.958  0.1806 -0.7563  1.1217
13529TIP3   OH262077   0.979   6.508   1.243  0.8527  0.7140  0.3566
13529TIP3    H162078   1.012   6.565   1.313  1.4960  0.6772  0.0825
13529TIP3    H262079   1.030   6.427   1.251  1.8329  1.1781 -0.9653
13530TIP3   OH262080   5.533   5.145   1.227 -0.3307  0.3651  0.5175
13530TIP3    H162081   5.554   5.213   1.291  1.9576  0.1455  0.0825
13530TIP3    H262082   5.541   5.063   1.276  1.3109  0.2043  0.0564
13531TIP3   OH262083   1.403   2.722   2.438  0.1965 -0.5184  0.3669
13531TIP3    H162084   1.427   2.631   2.422  1.8548  0.0857 -0.8028
13531TIP3    H262085   1.311   2.718   2.463 -0.0106 -2.4257 -0.5237
13532TIP3   OH262086   2.705   3.475  14.280 -0.5342  0.3116 -0.0810
13532TIP3    H162087   2.780   3.417  14.290  1.5627  2.5325 -1.7982
13532TIP3    H262088   2.717   3.542  14.348 -1.3750  0.3178  0.0756
13533TIP3   OH262089   1.963   0.955   0.007 -0.0321  0.3389 -0.0117
13533TIP3    H162090   1.928   0.930  -0.078 -1.6695  1.9492  0.1203
13533TIP3    H262091   2.057   0.963  -0.007 -0.2608  0.4418 -1.6461
13534TIP3   OH262092   6.686   4.298   1.905 -0.3230 -0.5493 -0.8181
13534TIP3    H162093   6.676   4.392   1.893  0.6903  0.0232  1.9803
13534TIP3    H262094   6.675   4.261   1.817 -1.6585  2.0539 -1.8580
13535TIP3   OH262095   0.691   6.352  12.995 -0.0846 -0.2561  0.2587
13535TIP3    H162096   0.716   6.300  13.071  1.2170 -0.3410 -0.2126
13535TIP3    H262097   0.683   6.289  12.924 -1.7603 -0.2423  0.4023
13536TIP3   OH262098   1.765   2.920  16.962 -0.1866 -0.3124  0.0056
13536TIP3    H162099   1.856   2.926  16.991 -0.3218  0.0503  0.3670
13536TIP3    H262100   1.730   2.844  17.009 -0.4188  0.3030  0.8481
13537TIP3   OH262101   6.241   2.658  15.243 -0.0545 -0.1123  0.2336
13537TIP3    H162102   6.176   2.712  15.198  0.1846 -0.2264 -0.2551
13537TIP3    H262103   6.229   2.678  15.336 -1.2862 -0.6772  0.2110
13538TIP3   OH262104   4.471   5.176   4.410 -0.2801 -0.2955  0.2047
13538TIP3    H162105   4.511   5.119   4.474  1.0910 -0.3469 -0.6570
13538TIP3    H262106   4.527   5.169   4.332  0.6905  3.0535  0.4063
13539TIP3   OH262107   5.151   4.578  15.221 -0.3911  0.1981  0.0441
13539TIP3    H162108   5.055   4.573  15.230 -0.2141 -0.7166  1.8504
13539TIP3    H262109   5.179   4.486  15.217  0.5129  0.4096  1.1070
13540TIP3   OH262110   2.914   0.429   0.919  0.0046 -0.0104 -0.1340
13540TIP3    H162111   2.822   0.447   0.938  0.4576  0.0388  2.3768
13540TIP3    H262112   2.956   0.515   0.924  0.5301 -0.3277  1.1486
13541TIP3   OH262113   2.106   3.725   0.366 -0.0734  0.3033 -0.3347
13541TIP3    H162114   2.156   3.806   0.374 -0.9765  0.8387 -0.0093
13541TIP3    H262115   2.117   3.682   0.451  1.7138 -0.7241 -1.0166
13542TIP3   OH262116   2.541   4.717   2.969  0.4231 -0.1549 -0.1400
13542TIP3    H162117   2.469   4.680   3.021 -1.4103  2.8038 -0.3400
13542TIP3    H262118   2.575   4.789   3.022  1.4189  0.1918 -1.2064
13543TIP3   OH262119   1.834   0.003  12.892  0.0588  0.2363  0.0712
13543TIP3    H162120   1.853  -0.046  12.813 -3.7369 -1.5128 -0.0057
13543TIP3    H262121   1.839  -0.063  12.962 -2.5343  0.2154  0.3318
13544TIP3   OH262122   0.379   0.079   0.899 -0.0964 -0.0057 -0.1548
13544TIP3    H162123   0.440   0.122   0.959  0.6045 -0.0417 -0.8343
13544TIP3    H262124   0.434   0.038   0.833 -0.8309 -0.6251 -0.3945
13545TIP3   OH262125   2.681   6.595  17.087  0.0962 -0.3736  0.0399
13545TIP3    H162126   2.734   6.605  17.008 -0.9680 -0.1689 -0.6718
13545TIP3    H262127   2.669   6.685  17.119 -2.5913 -0.0112 -1.7143
13546TIP3   OH262128   2.452   0.402  10.935 -0.4063  0.1486  0.2799
13546TIP3    H162129   2.527   0.404  10.876 -1.3580  2.6488 -0.9808
13546TIP3    H262130   2.458   0.484  10.984 -2.2158  0.3325  0.2588
13547TIP3   OH262131   3.451   4.202  11.253  0.0150  0.7257 -0.1240
13547TIP3    H162132   3.376   4.167  11.203 -0.9010  1.5737  0.6155
13547TIP3    H262133   3.468   4.136  11.320 -0.2388  0.6425 -0.1408
13548TIP3   OH262134   3.888   2.354   1.464 -0.1852 -0.6054 -0.2150
13548TIP3    H162135   3.849   2.426   1.413  0.9191  1.2381  1.3799
13548TIP3    H262136   3.813   2.304   1.496 -0.9901 -0.1968 -1.3991
13549TIP3   OH262137   1.738   4.352  12.320 -0.3274  0.5012 -0.1039
13549TIP3    H162138   1.785   4.270  12.337 -1.7329  0.1703  2.6418
13549TIP3    H262139   1.677   4.330  12.250  1.2565  0.0405 -1.3994
13550TIP3   OH262140   5.761   0.079  15.476  0.8598  0.5735 -0.2780
13550TIP3    H162141   5.829   0.083  15.543  0.7915 -2.4029  0.0762
13550TIP3    H262142   5.773  -0.006  15.433 -0.8881  1.1604 -2.1208
13551TIP3   OH262143   6.663   5.449  14.910 -0.1012 -1.0954 -0.4750
13551TIP3    H162144   6.604   5.383  14.875 -0.3380 -0.9891 -0.2764
13551TIP3    H262145   6.657   5.440  15.005 -0.7481 -0.2675 -0.4182
13552TIP3   OH262146   3.357   3.144   1.297 -0.0904  0.2089 -0.1785
13552TIP3    H162147   3.431   3.179   1.347 -0.4470 -0.2447  0.7002
13552TIP3    H262148   3.303   3.100   1.363 -0.0838 -1.2488 -1.1160
13553TIP3   OH262149   1.233   2.229  15.687  0.0653 -0.4280  0.0623
13553TIP3    H162150   1.147   2.191  15.670 -0.0519 -0.4351  0.6370
13553TIP3    H262151   1.292   2.154  15.697 -0.2047 -0.4984  1.3997
13554TIP3   OH262152   4.429   6.239   1.869 -0.1888 -0.3991  0.4558
13554TIP3    H162153   4.399   6.206   1.785  0.4617  1.2785 -0.4762
13554TIP3    H262154   4.511   6.192   1.885  0.0422 -0.2161 -0.1877
13555TIP3   OH262155   4.209   5.511   3.432 -0.2327 -0.2740 -0.1585
13555TIP3    H162156   4.176   5.436   3.383 -1.4573  0.3235 -0.2646
13555TIP3    H262157   4.154   5.584   3.406 -0.0902  0.3320  1.1481
13556TIP3   OH262158   4.836   2.640  16.916 -0.2462  0.0257 -0.5907
13556TIP3    H162159   4.749   2.645  16.954 -0.1727  0.4082 -0.4711
13556TIP3    H262160   4.821   2.629  16.822 -0.4679 -2.8909 -0.3327
13557TIP3   OH262161   5.928   5.792  14.775  0.1323 -0.1559  0.2881
13557TIP3    H162162   5.901   5.776  14.866  2.7949  0.9223  1.3830
13557TIP3    H262163   6.020   5.765  14.773  0.8236  2.0965 -1.4052
13558TIP3   OH262164   1.179   3.345   5.850  0.4562 -0.0509 -0.4425
13558TIP3    H162165   1.166   3.428   5.804  0.6235  0.9501  1.2117
13558TIP3    H262166   1.268   3.319   5.829  0.6588  0.5813 -0.4008
13559TIP3   OH262167   2.933   0.772   5.943  0.5993  0.4266  0.3114
13559TIP3    H162168   2.968   0.801   5.859 -0.5460  1.1864  0.0791
13559TIP3    H262169   2.894   0.687   5.925 -0.2264  0.8790 -0.0939
13560TIP3   OH262170   2.321   2.141   3.312 -0.0890 -0.1987 -0.0524
13560TIP3    H162171   2.329   2.232   3.342  2.1641 -0.0253 -0.9659
13560TIP3    H262172   2.276   2.096   3.383 -0.0887  1.3758  0.9937
13561TIP3   OH262173   6.754   4.161  16.455  0.6083  0.7578  0.2239
13561TIP3    H162174   6.722   4.249  16.438 -0.8752  0.3161  0.5698
13561TIP3    H262175   6.800   4.168  16.539 -1.2281  0.8494  1.2838
13562TIP3   OH262176   3.670   6.165  16.871 -0.5796  0.7797  0.1777
13562TIP3    H162177   3.639   6.114  16.945 -0.2049  1.6421  0.9536
13562TIP3    H262178   3.714   6.240  16.911  0.7103  0.6355 -0.9010
13563TIP3   OH262179   1.130   2.374  16.803 -0.2105 -0.1203  0.7129
13563TIP3    H162180   1.188   2.299  16.797  0.5501  0.3411  1.9691
13563TIP3    H262181   1.174   2.435  16.863 -1.7436  0.4526  1.3185
13564TIP3   OH262182   4.202   6.400   1.940  0.2396  0.3535 -0.0295
13564TIP3    H162183   4.179   6.369   1.853  0.2923  0.4614 -0.0813
13564TIP3    H262184   4.281   6.352   1.962 -0.0900 -0.1004  0.1931
13565TIP3   OH262185   3.567   4.427   2.255  0.7439 -0.2235 -0.8727
13565TIP3    H162186   3.589   4.518   2.271 -1.5872  0.3377 -0.4890
13565TIP3    H262187   3.511   4.429   2.177  1.2910 -1.4273 -1.3231
13566TIP3   OH262188   5.338   6.636  12.924 -0.2209  0.1999  0.5723
13566TIP3    H162189   5.314   6.686  12.846  0.4933  0.9788  0.8412
13566TIP3    H262190   5.400   6.692  12.971 -0.8409 -0.1334  1.8425
13567TIP3   OH262191   0.995   1.586  11.384 -0.0873  0.2550  0.0753
13567TIP3    H162192   0.989   1.549  11.472  1.9331  0.3726  0.2967
13567TIP3    H262193   0.991   1.681  11.397  1.3581  0.3204  0.1882
13568TIP3   OH262194   0.028   0.203   3.750 -0.1825 -0.2514 -0.3323
13568TIP3    H162195  -0.023   0.238   3.823  1.2201  2.1354 -0.4097
13568TIP3    H262196  -0.038   0.172   3.688 -1.6598  3.0315 -0.5938
13569TIP3   OH262197   5.472   5.849  15.438  0.4737 -0.6335  0.1590
13569TIP3    H162198   5.388   5.809  15.417  0.0573  0.4477 -0.2988
13569TIP3    H262199   5.498   5.808  15.521 -0.3634 -1.1803  0.1655
13570TIP3   OH262200   2.249   1.457   5.472  0.0131  0.3984 -0.4620
13570TIP3    H162201   2.337   1.453   5.508 -0.3414 -0.2108  0.3704
13570TIP3    H262202   2.257   1.421   5.384  0.3422 -1.0911  0.1471
13571TIP3   OH262203   3.565   0.161   0.533  0.0237 -0.1797  0.2862
13571TIP3    H162204   3.570   0.071   0.501 -0.8046  0.3805 -1.5116
13571TIP3    H262205   3.497   0.159   0.600 -2.5555 -0.2865 -2.1674
13572TIP3   OH262206   4.232   5.075   1.230 -0.0770 -0.1967  0.0508
13572TIP3    H162207   4.315   5.050   1.272  1.0386 -0.6815 -2.2960
13572TIP3    H262208   4.224   5.169   1.247  1.0579 -0.1049  0.1258
13573TIP3   OH262209   3.417   3.432   4.736  0.6840 -0.2971 -0.1531
13573TIP3    H162210   3.325   3.424   4.709  0.7074  1.3092 -0.8234
13573TIP3    H262211   3.412   3.460   4.827  0.4992  0.3679 -0.3663
13574TIP3   OH262212   6.140   5.928  16.181 -0.8441  0.0238  0.1528
13574TIP3    H162213   6.092   6.011  16.186 -0.8978  0.0282 -0.3805
13574TIP3    H262214   6.223   5.950  16.140 -0.9841 -0.2382 -0.2804
13575TIP3   OH262215   4.342   3.353  12.259  0.1100 -0.3773  0.1105
13575TIP3    H162216   4.387   3.376  12.178  0.2409 -0.5025  0.1466
13575TIP3    H262217   4.301   3.434  12.288  0.0353 -0.3402 -0.0989
13576TIP3   OH262218   5.019   0.684   4.934 -0.2919 -0.2585  0.7204
13576TIP3    H162219   4.989   0.594   4.923 -0.5594 -0.0326 -0.4389
13576TIP3    H262220   4.973   0.734   4.868 -1.4286  1.0662  2.4262
13577TIP3   OH262221   3.736   6.674   2.000  0.3399 -0.3165 -0.3421
13577TIP3    H162222   3.751   6.641   2.089 -0.1051 -0.2859 -0.2541
13577TIP3    H262223   3.788   6.616   1.945  0.8132 -0.1850 -0.0408
13578TIP3   OH262224   3.149   3.561  14.243 -0.2400 -0.5132  0.6056
13578TIP3    H162225   3.103   3.589  14.164  0.1425 -0.4051  0.4173
13578TIP3    H262226   3.233   3.607  14.239  0.2723 -1.4486  0.4461
13579TIP3   OH262227   1.590   5.826  12.372 -0.2282 -0.2641 -0.5476
13579TIP3    H162228   1.613   5.785  12.455  0.7898 -0.7687 -1.0683
13579TIP3    H262229   1.671   5.827  12.322 -0.2206  2.2662 -0.6320
13580TIP3   OH262230   5.071   3.158  15.685 -0.4298  0.1697 -0.7806
13580TIP3    H162231   4.996   3.153  15.745 -0.2560  1.2763 -0.4580
13580TIP3    H262232   5.046   3.103  15.611  0.0074 -2.6221  0.9646
13581TIP3   OH262233   6.394   1.540  12.126 -0.1914  0.0479  0.0500
13581TIP3    H162234   6.385   1.598  12.051  0.6658  0.1335  0.0072
13581TIP3    H262235   6.461   1.580  12.180  0.0044 -0.6003  0.3007
13582TIP3   OH262236   1.459   0.094  17.047  0.4968 -0.3688 -0.0226
13582TIP3    H162237   1.372   0.054  17.037 -0.2199  0.8462  0.9866
13582TIP3    H262238   1.458   0.170  16.989 -0.1466  1.1627  1.8494
13583TIP3   OH262239   3.170   3.012   4.188 -0.0821  0.1807 -0.5109
13583TIP3    H162240   3.155   2.984   4.279 -1.7128  1.4339 -0.3542
13583TIP3    H262241   3.265   3.021   4.182  0.0082  0.8136  1.3162
13584TIP3   OH262242   5.544   2.328  17.293 -0.1219 -0.2240  0.2061
13584TIP3    H162243   5.456   2.296  17.274 -0.4663 -0.5225  2.1397
13584TIP3    H262244   5.548   2.333  17.388  1.7449  0.4125  0.1323
13585TIP3   OH262245   6.255   0.599   5.221  0.3832 -0.2535  0.0615
13585TIP3    H162246   6.273   0.520   5.169 -1.7794 -2.7307  2.7364
13585TIP3    H262247   6.182   0.641   5.175  0.3637 -0.8108 -0.4382
13586TIP3   OH262248   4.095   4.258  11.578 -0.4362  0.3743  0.3870
13586TIP3    H162249   4.020   4.199  11.583 -0.7439  0.8640  1.7687
13586TIP3    H262250   4.062   4.342  11.609  0.1389  1.1758 -1.0582
13587TIP3   OH262251   5.179   1.755  11.758 -0.1451 -0.3624 -0.2826
13587TIP3    H162252   5.219   1.811  11.825 -0.5830  0.8544 -0.9994
13587TIP3    H262253   5.251   1.732  11.700 -0.2289  0.8194 -0.8873
13588TIP3   OH262254   1.011   5.595   6.666 -0.3497  0.1769  0.3282
13588TIP3    H162255   0.953   5.606   6.741 -0.2860  3.0686  0.0810
13588TIP3    H262256   0.953   5.603   6.590 -0.4869 -3.1476 -0.0564
13589TIP3   OH262257   4.950   3.671  16.404  0.3430 -0.5154  0.4681
13589TIP3    H162258   5.018   3.628  16.456 -0.1267  1.8422  3.2744
13589TIP3    H262259   4.996   3.708  16.329  1.7327 -0.9182  1.0951
13590TIP3   OH262260   2.562   5.497   0.208 -0.3627  0.0211  0.3150
13590TIP3    H162261   2.502   5.566   0.237  0.6400  1.1798 -0.2501
13590TIP3    H262262   2.649   5.533   0.224  0.2157 -0.1516 -2.0702
13591TIP3   OH262263   4.959   2.509  16.316 -0.9297 -0.0091  0.0063
13591TIP3    H162264   4.865   2.500  16.332 -0.6999 -0.2496  1.3171
13591TIP3    H262265   4.969   2.488  16.223 -1.9081 -1.9867  0.2881
13592TIP3   OH262266   3.735   6.077  12.834  0.2787  0.1357 -0.8509
13592TIP3    H162267   3.779   5.992  12.833  0.8293  0.4189 -1.0158
13592TIP3    H262268   3.805   6.140  12.818 -0.5866  0.4416 -4.0201
13593TIP3   OH262269   0.659   4.137  12.454 -0.9338  0.0181  0.3317
13593TIP3    H162270   0.714   4.128  12.376 -2.0929 -3.7337 -0.2525
13593TIP3    H262271   0.720   4.164  12.523  0.7211  0.3512 -1.1718
13594TIP3   OH262272   2.120   4.132   6.243 -0.0386  0.5362  0.8501
13594TIP3    H162273   2.106   4.084   6.325  2.6363 -0.2805  0.9193
13594TIP3    H262274   2.190   4.085   6.199 -2.4784 -0.0869 -2.8423
13595TIP3   OH262275   2.395   0.064  12.318 -0.3850 -0.0757 -0.0484
13595TIP3    H162276   2.341   0.017  12.254 -0.4611  0.0245 -0.0576
13595TIP3    H262277   2.364   0.155  12.313  1.4064  0.5314 -1.8216
13596TIP3   OH262278   6.274   2.875  12.982  0.1222 -0.3314 -0.0787
13596TIP3    H162279   6.241   2.913  12.901  1.3114  0.0392 -0.4081
13596TIP3    H262280   6.352   2.926  13.003 -1.0554  0.6906  2.2106
13597TIP3   OH262281   2.413   0.039   3.166 -0.1223  0.1240  0.4464
13597TIP3    H162282   2.418   0.111   3.229  3.7188  1.5995 -1.2012
13597TIP3    H262283   2.484  -0.020   3.191 -0.4982 -0.8612 -0.7049
13598TIP3   OH262284   1.400   5.637  14.536 -0.3892 -0.0002 -0.0086
13598TIP3    H162285   1.495   5.648  14.535 -0.2685 -0.7577  1.0575
13598TIP3    H262286   1.377   5.628  14.629 -1.5380  0.4227 -0.2284
13599TIP3   OH262287   0.650   0.072   1.075  0.1695  0.0983 -0.2254
13599TIP3    H162288   0.731   0.030   1.103  1.4332  1.2531 -1.9067
13599TIP3    H262289   0.630   0.135   1.144  1.9949  1.3579 -0.7678
13600TIP3   OH262290   6.394   6.590  14.473 -0.7438  0.6075 -0.0921
13600TIP3    H162291   6.323   6.645  14.441 -1.4598 -1.3832 -2.1816
13600TIP3    H262292   6.353   6.533  14.538 -0.0287  2.3089  1.9779
13601TIP3   OH262293   6.413   1.432   1.292  0.0808 -0.1110 -0.4506
13601TIP3    H162294   6.350   1.457   1.359  0.1051 -1.4022  0.0935
13601TIP3    H262295   6.359   1.402   1.219 -0.0458 -2.5324  0.5142
13602TIP3   OH262296   5.097   4.108   1.970  0.6239 -0.2967  0.2186
13602TIP3    H162297   5.166   4.106   1.904  0.3758 -1.3819 -0.0347
13602TIP3    H262298   5.138   4.070   2.048  0.1926 -1.3871 -0.0724
13603TIP3   OH262299   5.907   0.174   4.294  0.2460 -0.1272 -0.0531
13603TIP3    H162300   5.935   0.145   4.208  1.0447  0.7267 -0.0889
13603TIP3    H262301   5.891   0.093   4.343  0.7203 -0.6135 -0.6952
13604TIP3   OH262302   1.404   0.891   2.857  0.6317  0.0928 -0.5033
13604TIP3    H162303   1.353   0.912   2.778  1.1760 -1.5041 -1.3360
13604TIP3    H262304   1.339   0.883   2.926  0.0424  0.6741 -0.9752
13605TIP3   OH262305   6.019   5.036  15.974 -0.3876  0.0546 -0.5654
13605TIP3    H162306   6.086   5.069  16.033  0.9829 -1.2433 -1.3129
13605TIP3    H262307   6.000   5.110  15.916 -0.9877  1.0101  0.8060
13606TIP3   OH262308   3.591   4.261   2.983  0.2914  0.5430 -0.0208
13606TIP3    H162309   3.613   4.240   2.892  1.0423  0.6705  0.1291
13606TIP3    H262310   3.557   4.179   3.019  0.5585  0.3345 -0.2441
13607TIP3   OH262311   5.534   6.056   2.352 -0.1275 -0.0477  0.3545
13607TIP3    H162312   5.471   6.005   2.301  0.2101 -0.8685  0.7326
13607TIP3    H262313   5.504   6.146   2.344 -1.8712 -0.5117  1.2674
13608TIP3   OH262314   0.732   5.757  12.079  0.5989  0.0150  0.2153
13608TIP3    H162315   0.751   5.840  12.034 -0.8220  0.6543  0.7074
13608TIP3    H262316   0.771   5.690  12.024 -1.6612  0.6936 -2.4670
13609TIP3   OH262317   2.430   2.901   0.335 -0.3200  0.1021  0.5112
13609TIP3    H162318   2.441   2.914   0.429  0.8525 -0.3811  0.4594
13609TIP3    H262319   2.373   2.824   0.328 -2.1812  1.3699  0.7907
13610TIP3   OH262320   5.498   3.618  16.972  0.0281  0.7001 -0.1310
13610TIP3    H162321   5.568   3.682  16.958  0.5041  0.1743 -0.1883
13610TIP3    H262322   5.534   3.536  16.941 -0.9264  0.5671 -0.9371
13611TIP3   OH262323   2.171   0.160   1.403 -0.3036  0.2430  0.0533
13611TIP3    H162324   2.230   0.093   1.436  0.6555  0.7822 -0.5071
13611TIP3    H262325   2.187   0.162   1.309 -1.0188  0.5863 -0.0674
13612TIP3   OH262326   3.348   1.257  13.406  0.3956  0.2171 -0.2327
13612TIP3    H162327   3.281   1.289  13.344  0.5468  1.0816  0.0387
13612TIP3    H262328   3.431   1.275  13.362  0.5038  0.8373  0.2139
13613TIP3   OH262329   2.076   6.505  11.713  0.0442  0.1525 -0.2007
13613TIP3    H162330   2.160   6.535  11.747  0.4987 -1.8354  0.5768
13613TIP3    H262331   2.063   6.556  11.633  2.2769  0.1165 -0.6604
13614TIP3   OH262332   2.795   6.180  14.370 -0.4006  0.3008  0.5228
13614TIP3    H162333   2.817   6.161  14.461 -2.2265 -0.4129  0.8604
13614TIP3    H262334   2.702   6.201  14.371 -0.3631  0.7122 -1.1274
13615TIP3   OH262335   6.500   3.898   0.102  0.5367  0.1827  0.0098
13615TIP3    H162336   6.412   3.892   0.139  0.6905  0.3343  0.4023
13615TIP3    H262337   6.495   3.848   0.020  0.5818 -1.4453  0.9615
13616TIP3   OH262338   0.954   6.314   1.737  0.5951  0.1263  0.4109
13616TIP3    H162339   1.008   6.389   1.714  1.6840 -0.9217 -0.6085
13616TIP3    H262340   0.908   6.292   1.655  0.6603 -0.5980  0.5638
13617TIP3   OH262341   5.323   5.204   0.109 -0.5626 -0.0522  0.5176
13617TIP3    H162342   5.361   5.253   0.036  1.3540  0.2618  1.6472
13617TIP3    H262343   5.284   5.127   0.068  2.1343 -0.8881 -0.7340
13618TIP3   OH262344   3.402   2.520  12.057  0.0549 -0.2316 -0.4311
13618TIP3    H162345   3.313   2.518  12.024 -0.2236  0.6301  0.2370
13618TIP3    H262346   3.432   2.429  12.049 -0.4571 -0.3115 -1.7431
13619TIP3   OH262347   4.604   3.876  15.090  0.1150 -0.3275  0.5157
13619TIP3    H162348   4.652   3.888  15.009  0.3709 -0.0871  0.7002
13619TIP3    H262349   4.653   3.809  15.138 -0.9036 -1.6358 -0.1907
13620TIP3   OH262350   4.039   1.463  17.145 -0.4513  0.4768  0.2563
13620TIP3    H162351   3.948   1.471  17.173 -0.3501  1.1649  0.4124
13620TIP3    H262352   4.057   1.369  17.147 -2.2449 -0.1342 -3.2388
13621TIP3   OH262353   2.172   0.272  14.737 -0.0750  0.1161 -0.0836
13621TIP3    H162354   2.153   0.333  14.808  0.5937 -0.1870  0.3740
13621TIP3    H262355   2.121   0.304  14.663 -1.9451 -0.3903  0.9122
13622TIP3   OH262356   4.196   5.378  16.232 -0.7839  0.3144 -0.1241
13622TIP3    H162357   4.242   5.323  16.294 -0.3258  0.1314 -0.6218
13622TIP3    H262358   4.110   5.393  16.272 -1.0401 -1.0382 -0.1484
13623TIP3   OH262359   4.039   5.721  12.353 -0.1797 -0.1200 -0.2150
13623TIP3    H162360   4.104   5.701  12.421 -0.9884  1.4461  1.0804
13623TIP3    H262361   3.957   5.732  12.401 -1.3722 -1.7038 -1.7848
13624TIP3   OH262362   1.884   6.217   2.157  0.5101  0.2183 -0.0053
13624TIP3    H162363   1.829   6.187   2.084  1.2202  1.8904 -1.3091
13624TIP3    H262364   1.960   6.160   2.154  0.3576  0.0248 -0.3210
13625TIP3   OH262365   1.582   3.867   2.446  0.1974  0.2640 -0.4303
13625TIP3    H162366   1.641   3.818   2.503 -0.2384 -0.6736 -0.7667
13625TIP3    H262367   1.530   3.920   2.507  0.0374 -0.3972  0.0241
13626TIP3   OH262368   3.909   5.479   6.034  0.3492  0.4886  0.5555
13626TIP3    H162369   3.899   5.425   5.956  2.0845 -0.4604  0.9547
13626TIP3    H262370   3.973   5.546   6.010  1.6868 -0.4260  1.4284
13627TIP3   OH262371   3.029   1.580  14.316 -0.0373 -0.3665  0.2572
13627TIP3    H162372   3.087   1.559  14.243 -1.6608  1.2610 -1.6211
13627TIP3    H262373   2.941   1.577  14.278 -0.8187  2.6358  1.5439
13628TIP3   OH262374   6.499   0.506  15.320  0.2548 -0.5064  0.6329
13628TIP3    H162375   6.453   0.564  15.259  1.3725  1.0093  1.1936
13628TIP3    H262376   6.432   0.483  15.385  0.0130  0.8750  0.8958
13629TIP3   OH262377   4.843   0.744  14.350  0.0043  0.3645  0.2333
13629TIP3    H162378   4.902   0.790  14.290  1.1766 -0.7690  0.4917
13629TIP3    H262379   4.773   0.712  14.293 -0.8521  2.3859  0.0366
13630TIP3   OH262380   5.777   5.399  16.661  0.6892  0.1986  0.9508
13630TIP3    H162381   5.781   5.351  16.744  2.8825  1.0914  1.4202
13630TIP3    H262382   5.851   5.367  16.610 -1.2417 -1.1561 -1.2357
13631TIP3   OH262383   6.757   6.694   4.512  0.2622  0.3352  0.0468
13631TIP3    H162384   6.795   6.642   4.583 -0.9627 -0.1076  0.3981
13631TIP3    H262385   6.803   6.664   4.434 -0.7979 -1.7461  0.1372
13632TIP3   OH262386   6.594   2.638  14.929  0.6644 -0.6857 -0.0859
13632TIP3    H162387   6.641   2.644  15.012  0.9234 -0.7498 -0.2273
13632TIP3    H262388   6.516   2.586  14.949 -0.0108  0.4814  0.4431
13633TIP3   OH262389   4.061   3.779  11.419  0.7002 -0.5107 -0.4165
13633TIP3    H162390   4.090   3.705  11.365 -1.4472 -1.3182 -0.5555
13633TIP3    H262391   3.987   3.816  11.372  0.5878  0.5858  0.5758
13634TIP3   OH262392   3.211   0.087   5.660  0.6304 -0.0403 -0.4550
13634TIP3    H162393   3.302   0.066   5.684  0.5676  0.3851  0.1992
13634TIP3    H262394   3.189   0.024   5.592  2.1275  1.1761 -2.1836
13635TIP3   OH262395   2.222   1.144   6.150 -0.5863 -0.1035  0.2803
13635TIP3    H162396   2.207   1.230   6.110  1.9302  0.3272  0.0897
13635TIP3    H262397   2.158   1.139   6.221 -2.9319  0.5296 -1.6249
13636TIP3   OH262398   3.613   1.002   5.094  0.0086  0.3438  0.2163
13636TIP3    H162399   3.566   0.992   5.012  1.7539 -0.6056 -0.7341
13636TIP3    H262400   3.704   0.982   5.072  0.5828  0.3994  2.3098
13637TIP3   OH262401   2.309   1.424  13.389 -0.5030  0.0347 -0.2531
13637TIP3    H162402   2.265   1.462  13.313  1.2338 -0.6850 -1.6763
13637TIP3    H262403   2.366   1.357  13.353  2.2309  1.3118  1.4085
13638TIP3   OH262404   2.887   0.809  16.189  0.4806 -0.0352  0.2179
13638TIP3    H162405   2.918   0.848  16.271  1.5896 -0.4938  0.0337
13638TIP3    H262406   2.966   0.779  16.146  0.0023  0.9208 -1.4117
13639TIP3   OH262407   4.989   0.454   4.583  0.0715 -0.0994 -0.0779
13639TIP3    H162408   5.024   0.543   4.593  1.1615 -0.4211 -0.8541
13639TIP3    H262409   4.981   0.421   4.672  1.7838  0.0019  0.1473
13640TIP3   OH262410   0.572   0.485   6.073  0.5602 -0.1244  0.2549
13640TIP3    H162411   0.507   0.425   6.110 -0.4268 -0.1387 -1.3885
13640TIP3    H262412   0.556   0.568   6.119  0.3062 -0.4775  0.8245
13641TIP3   OH262413   0.987   0.376  14.878 -0.0708 -0.0818 -0.1228
13641TIP3    H162414   0.920   0.309  14.889  0.1296 -0.2101  0.3172
13641TIP3    H262415   0.992   0.389  14.783 -0.4847 -0.3048 -0.1791
13642TIP3   OH262416   3.905   3.499  12.693 -0.2087 -0.1886  0.3853
13642TIP3    H162417   3.863   3.463  12.772  0.9828  1.0174  1.6070
13642TIP3    H262418   3.927   3.589  12.717  0.3772  0.1299 -1.2744
13643TIP3   OH262419   4.542   4.080   1.544  0.4213  0.3579 -0.3413
13643TIP3    H162420   4.571   4.006   1.489  0.9557 -0.8307  1.4566
13643TIP3    H262421   4.494   4.137   1.484  1.1491 -0.7742 -2.0811
13644TIP3   OH262422   4.904   4.485  15.207  0.6062  0.3278 -0.5484
13644TIP3    H162423   4.825   4.538  15.215  0.2916 -0.2423  0.2752
13644TIP3    H262424   4.904   4.456  15.116 -0.7329 -0.5431 -0.3035
13645TIP3   OH262425   1.622   5.017  16.870  0.0147 -0.2185 -0.0095
13645TIP3    H162426   1.672   4.944  16.834 -0.2135  0.4715 -1.8749
13645TIP3    H262427   1.531   4.990  16.860 -0.1290  0.7579 -1.9237
13646TIP3   OH262428   4.066   4.682  16.796  0.0723  0.0890  0.3987
13646TIP3    H162429   4.093   4.623  16.867  1.0470 -1.9858 -1.5565
13646TIP3    H262430   4.073   4.769  16.834  2.4009 -0.8034  2.3294
13647TIP3   OH262431   6.676   2.856   3.962  0.5247  0.3107  0.9450
13647TIP3    H162432   6.688   2.942   4.002  0.0739  0.5877  0.4970
13647TIP3    H262433   6.760   2.837   3.921  0.2172  1.1652 -0.1361
13648TIP3   OH262434   6.321   0.477  16.136 -0.0828  0.5579  0.6055
13648TIP3    H162435   6.406   0.514  16.162  1.0286 -2.0055  0.8844
13648TIP3    H262436   6.344   0.403  16.079 -2.1619  0.0479  0.3767
13649TIP3   OH262437   4.526   1.231   4.940 -0.2658  0.0696  0.0555
13649TIP3    H162438   4.596   1.227   4.874 -2.1685 -0.1904 -2.0612
13649TIP3    H262439   4.527   1.143   4.980  1.1305  0.3385  0.6783
13650TIP3   OH262440   6.011   6.323   5.425  0.4902 -0.1648  0.1680
13650TIP3    H162441   5.968   6.284   5.349 -0.8326 -0.6017  1.1132
13650TIP3    H262442   6.000   6.418   5.412 -1.1829 -0.2635  0.5788
13651TIP3   OH262443   3.114   6.572   1.872 -0.1621 -0.6364 -0.4129
13651TIP3    H162444   3.200   6.533   1.887 -0.2658  0.0412  2.5977
13651TIP3    H262445   3.131   6.662   1.847  0.0557 -0.1887  1.2478
13652TIP3   OH262446   2.482   2.187   3.037  0.5684 -0.5656  0.1518
13652TIP3    H162447   2.502   2.167   3.128  0.3040 -0.2866  0.2703
13652TIP3    H262448   2.403   2.137   3.018  1.5817 -2.0450 -0.4577
13653TIP3   OH262449   2.647   1.145  17.389  0.3847  0.0459  0.0099
13653TIP3    H162450   2.699   1.224  17.401 -3.3976  2.6197  1.1586
13653TIP3    H262451   2.705   1.086  17.340  4.0176  2.7961  0.5637
13654TIP3   OH262452   1.047   0.439   5.331 -0.7477  0.4647 -0.2798
13654TIP3    H162453   0.968   0.452   5.384 -1.3121  0.1279 -1.0049
13654TIP3    H262454   1.020   0.375   5.265  0.3665 -0.2202 -0.0807
13655TIP3   OH262455   6.363   1.859   5.941 -0.7734  0.5044 -0.1184
13655TIP3    H162456   6.437   1.896   5.990 -2.0161  1.8064  0.8650
13655TIP3    H262457   6.286   1.881   5.994 -1.9415 -0.2239 -1.4455
13656TIP3   OH262458   4.573   6.613   2.603  0.0155 -0.5212 -0.2569
13656TIP3    H162459   4.598   6.577   2.688 -0.2792  0.8193  0.4255
13656TIP3    H262460   4.478   6.604   2.600  0.2208 -3.0172 -1.6348
13657TIP3   OH262461   1.006   0.298  15.770 -0.2177  0.1227 -0.1340
13657TIP3    H162462   0.967   0.358  15.707  0.5103  1.4112  0.5833
13657TIP3    H262463   1.022   0.352  15.847 -2.2505 -1.6555  1.6758
13658TIP3   OH262464   0.441   1.719  16.582  0.0090  0.4621  0.0179
13658TIP3    H162465   0.360   1.686  16.621  0.2403 -0.3333 -0.1646
13658TIP3    H262466   0.421   1.725  16.489 -0.2524  1.5155  0.1255
13659TIP3   OH262467   4.981   6.144   4.511 -0.4249 -0.5655  0.0688
13659TIP3    H162468   4.899   6.194   4.512  0.2069  0.5029  0.3874
13659TIP3    H262469   5.032   6.180   4.584  0.7409 -0.4821 -0.7618
13660TIP3   OH262470   1.602   5.247  12.071  0.5640 -0.3130 -0.2025
13660TIP3    H162471   1.538   5.176  12.084 -0.5012  0.5845 -0.4003
13660TIP3    H262472   1.549   5.324  12.050  1.8028  0.1024 -2.0564
13661TIP3   OH262473   4.873   0.597   3.082 -0.2696  0.0340  0.4615
13661TIP3    H162474   4.851   0.526   3.022  0.6585 -1.2027  1.5336
13661TIP3    H262475   4.958   0.629   3.053 -0.2219  0.0254  0.5900
13662TIP3   OH262476   1.949   1.153  16.189 -0.0080 -0.3674 -0.0478
13662TIP3    H162477   1.954   1.108  16.105 -0.1124 -1.1391  0.3495
13662TIP3    H262478   1.856   1.174  16.199  0.2082  1.1035 -0.8135
13663TIP3   OH262479   0.933   0.554   1.163  0.5010  0.8375  0.2550
13663TIP3    H162480   0.954   0.644   1.189  0.0136  1.1252 -0.3193
13663TIP3    H262481   0.927   0.506   1.245  0.3170  1.4322  0.5907
13664TIP3   OH262482   1.616   0.734  15.317 -0.5298 -0.0413  0.0220
13664TIP3    H162483   1.565   0.814  15.332 -1.6789 -1.1001  2.4188
13664TIP3    H262484   1.561   0.665  15.353  1.7142 -1.5343  0.7692
13665TIP3   OH262485   2.077   1.652   3.611 -0.2484 -0.1893 -0.1129
13665TIP3    H162486   2.082   1.557   3.601 -1.3364 -0.1872 -0.7550
13665TIP3    H262487   2.040   1.666   3.698 -3.1626 -0.4534 -1.1945
13666TIP3   OH262488   5.272   3.683   5.939 -0.3492 -0.5744  0.5134
13666TIP3    H162489   5.321   3.764   5.925  0.7356 -1.2499  0.3013
13666TIP3    H262490   5.182   3.712   5.952  0.0168  0.6654  0.4363
13667TIP3   OH262491   4.554   4.448   1.754 -0.0919 -0.7367  0.2944
13667TIP3    H162492   4.620   4.452   1.685 -0.2055 -1.0379  0.1655
13667TIP3    H262493   4.471   4.436   1.707 -0.3000  0.1625  0.4267
13668TIP3   OH262494   1.334   6.628  15.923 -0.4144  0.1746 -0.3012
13668TIP3    H162495   1.343   6.683  15.845  0.1506 -0.2958 -0.5711
13668TIP3    H262496   1.285   6.551  15.893 -4.1156  1.8607  0.7390
13669TIP3   OH262497   3.646   3.870  16.575 -0.1264 -0.5136 -0.5451
13669TIP3    H162498   3.584   3.849  16.644  0.4779 -0.4494  0.0303
13669TIP3    H262499   3.722   3.906  16.621 -0.6025  1.7344 -1.3964
13670TIP3   OH262500   1.030   2.277   3.168 -0.3299 -0.6430  0.1471
13670TIP3    H162501   1.082   2.318   3.237  1.2914 -1.8666 -0.2954
13670TIP3    H262502   1.055   2.184   3.171 -1.8372 -1.1186 -0.6890
13671TIP3   OH262503   6.295   4.407  15.749 -0.6251  0.2048 -0.1825
13671TIP3    H162504   6.231   4.410  15.821  0.2132 -0.6366  0.6259
13671TIP3    H262505   6.352   4.482  15.764  0.3069 -0.6598  0.7951
13672TIP3   OH262506   3.962   0.977   5.769 -0.1785  0.1490 -0.2786
13672TIP3    H162507   3.970   0.896   5.719  0.2526  0.0281 -0.0206
13672TIP3    H262508   3.919   1.038   5.709  1.0152  0.2399 -1.0855
13673TIP3   OH262509   3.509   0.752   5.207 -0.2039  0.1041 -0.3338
13673TIP3    H162510   3.454   0.729   5.132  0.2547 -0.7846 -0.4163
13673TIP3    H262511   3.549   0.836   5.183  0.7450 -0.6545 -1.5601
13674TIP3   OH262512   5.220   5.491   3.491  0.1666 -0.3792  0.4571
13674TIP3    H162513   5.288   5.442   3.444  2.7733  2.5142  0.8548
13674TIP3    H262514   5.161   5.522   3.422  1.0601 -0.3692 -0.3257
13675TIP3   OH262515   2.838   0.988  13.831 -0.2594 -0.3352 -0.0862
13675TIP3    H162516   2.816   1.043  13.907  1.1302  0.4896 -0.2409
13675TIP3    H262517   2.845   0.900  13.866 -2.5116 -0.4860  0.1801
13676TIP3   OH262518   1.301   0.693  14.518 -0.1001  0.2808 -0.5029
13676TIP3    H162519   1.226   0.750  14.535  1.2561  1.5480  1.6353
13676TIP3    H262520   1.377   0.745  14.545  1.5257 -1.1473 -2.1311
13677TIP3   OH262521   2.164   0.716  12.427  0.6601  0.1382 -0.6840
13677TIP3    H162522   2.202   0.683  12.346  1.3286  0.2426 -0.4172
13677TIP3    H262523   2.186   0.809  12.428  0.6159  0.1459 -0.4016
13678TIP3   OH262524   1.307   3.972  11.896  0.1391 -0.2255 -0.3975
13678TIP3    H162525   1.245   3.989  11.966  1.4709  0.9306  0.5689
13678TIP3    H262526   1.291   4.042  11.832  3.1300  2.8349  1.8392
13679TIP3   OH262527   4.652   6.062   4.670  0.5148 -0.0395  0.1646
13679TIP3    H162528   4.680   5.974   4.694 -0.9775 -0.3842  0.7545
13679TIP3    H262529   4.585   6.048   4.603 -0.7737  0.5460  1.2884
13680TIP3   OH262530   4.224   1.299   5.263  0.2452 -0.1058  0.2182
13680TIP3    H162531   4.244   1.384   5.301 -0.9934  0.4464 -0.3227
13680TIP3    H262532   4.298   1.243   5.289  0.4599  0.7945  1.6279
13681TIP3   OH262533   2.815   0.627  15.798 -0.2797  0.3315  0.1068
13681TIP3    H162534   2.757   0.656  15.868 -1.5570 -1.5200 -0.1122
13681TIP3    H262535   2.757   0.592  15.731  1.0067  0.3081 -1.0541
13682TIP3   OH262536   1.136   0.591  13.605  0.5509 -0.4868  0.4746
13682TIP3    H162537   1.217   0.578  13.654  0.1406 -0.7362  1.0869
13682TIP3    H262538   1.066   0.576  13.668  0.0207  0.2508  0.0816
13683TIP3   OH262539   1.540   1.951   4.954  0.5682  0.2949 -0.0350
13683TIP3    H162540   1.450   1.926   4.932  0.5548  0.8198 -0.5960
13683TIP3    H262541   1.590   1.934   4.873  0.9787 -0.0092  0.2771
13684TIP3   OH262542   3.040   6.098   5.095 -0.2441  0.0152  0.3845
13684TIP3    H162543   3.040   6.028   5.030  0.6258  1.0195 -0.7253
13684TIP3    H262544   3.046   6.178   5.045  0.8381  0.8070  1.7228
13685TIP3   OH262545   0.742   5.433   5.078 -0.3231 -0.3942 -0.6487
13685TIP3    H162546   0.826   5.390   5.094 -0.2886 -0.5340 -1.1754
13685TIP3    H262547   0.717   5.469   5.163 -0.2618 -1.3055 -0.2297
13686TIP3   OH262548   0.227   0.481   6.579  0.1395  0.1555 -0.0105
13686TIP3    H162549   0.312   0.456   6.615  0.6942  1.9387  0.0356
13686TIP3    H262550   0.244   0.563   6.532 -1.5960  0.7040  0.2295
13687TIP3   OH262551   3.862   3.647  15.185  0.4219 -0.4472  0.0028
13687TIP3    H162552   3.793   3.671  15.247  0.2308 -2.2656  0.5671
13687TIP3    H262553   3.934   3.617  15.240  0.5451 -1.3399 -0.6267
13688TIP3   OH262554   1.276   2.795  16.726 -0.4355  0.1039 -0.1177
13688TIP3    H162555   1.308   2.882  16.700  1.0986 -0.0327  1.1703
13688TIP3    H262556   1.201   2.779  16.669 -1.1568  2.5539  0.0379
13689TIP3   OH262557   4.646   4.248   4.448  0.2406 -0.0272  0.5261
13689TIP3    H162558   4.724   4.262   4.394 -0.6168 -0.6682 -0.9691
13689TIP3    H262559   4.617   4.159   4.425 -1.7703  0.7321 -0.1435
13690TIP3   OH262560   1.061   2.934   4.259  0.2434 -0.3665  0.4570
13690TIP3    H162561   1.151   2.927   4.226  0.3833 -0.8218  0.9240
13690TIP3    H262562   1.071   2.950   4.353 -0.1617 -0.0031  0.4381
13691TIP3   OH262563   4.502   0.087  12.280  0.0966 -0.0980 -0.1148
13691TIP3    H162564   4.467   0.143  12.211 -0.0185 -0.1049 -0.0611
13691TIP3    H262565   4.596   0.107  12.281 -0.0579  0.6449  0.4159
13692TIP3   OH262566   5.078   3.949   6.562  0.1647  0.4572  0.0722
13692TIP3    H162567   5.026   3.957   6.642 -0.4210 -0.5015 -0.2043
13692TIP3    H262568   5.145   3.884   6.583 -0.8287 -0.8431 -0.6199
13693TIP3   OH262569   2.315   5.761  14.232  0.1459 -0.0293 -0.5958
13693TIP3    H162570   2.277   5.834  14.182  1.0063  0.2741 -0.8374
13693TIP3    H262571   2.400   5.746  14.190  0.8919  0.2371  0.7800
13694TIP3   OH262572   5.327   1.303  16.746 -0.3012 -0.4708  0.1889
13694TIP3    H162573   5.401   1.251  16.776  0.2072 -1.0355 -1.8834
13694TIP3    H262574   5.263   1.239  16.716 -0.9315  0.0573  0.3664
13695TIP3   OH262575   3.176   4.672  12.134  0.2812  0.4999 -0.2971
13695TIP3    H162576   3.254   4.640  12.178  0.1220  1.3586  0.6564
13695TIP3    H262577   3.103   4.648  12.191 -0.0914  0.3064 -0.8371
13696TIP3   OH262578   1.198   1.574  16.077 -0.3400 -0.2018  0.2720
13696TIP3    H162579   1.115   1.528  16.070  0.6338 -2.0315 -0.0069
13696TIP3    H262580   1.218   1.574  16.170 -0.1269 -0.7981  0.2323
13697TIP3   OH262581   2.305   5.346   5.884  0.1063 -0.1552  0.6954
13697TIP3    H162582   2.376   5.376   5.941  0.1648 -0.0918  0.5893
13697TIP3    H262583   2.253   5.287   5.939  0.0001  0.1290  0.9029
13698TIP3   OH262584   3.225   3.945  14.498 -0.1075 -0.2036 -0.4622
13698TIP3    H162585   3.296   3.886  14.473  1.4607  1.1776  0.5313
13698TIP3    H262586   3.252   4.030  14.464 -2.3295 -0.0052 -1.8830
13699TIP3   OH262587   2.787   1.663   5.138 -0.5406  0.6195 -0.0568
13699TIP3    H162588   2.704   1.619   5.121 -1.0611  1.0941  1.1214
13699TIP3    H262589   2.793   1.667   5.234  0.8881  0.5192 -0.1216
13700TIP3   OH262590   5.011   2.908   1.256  0.4131 -0.1268 -0.3419
13700TIP3    H162591   5.001   2.919   1.161  1.3577  1.9545 -0.2509
13700TIP3    H262592   5.100   2.936   1.274  0.9511 -2.4491  0.9553
13701TIP3   OH262593   3.088   4.663   1.483  0.2497 -0.1124  0.0958
13701TIP3    H162594   3.133   4.583   1.456 -1.2953 -0.8851 -0.2865
13701TIP3    H262595   3.049   4.641   1.568 -0.4412  0.1127 -0.1569
13702TIP3   OH262596   4.259   5.314  15.973  0.3218  0.3637  0.7815
13702TIP3    H162597   4.232   5.333  16.063  0.3494  1.8531  0.4923
13702TIP3    H262598   4.304   5.229  15.980 -0.7954 -0.1687  1.9397
13703TIP3   OH262599   3.410   4.061  17.036 -0.6217  0.2637 -0.3175
13703TIP3    H162600   3.463   3.981  17.033  0.7522  1.0700  1.2855
13703TIP3    H262601   3.458   4.124  16.984 -1.8366  0.0283 -1.7933
13704TIP3   OH262602   1.799   0.254   0.222  0.0407  0.2877  0.3558
13704TIP3    H162603   1.883   0.259   0.176 -0.1787  1.4738  0.0475
13704TIP3    H262604   1.784   0.342   0.254 -1.4650  0.2948 -0.2848
13705TIP3   OH262605   4.522   1.455  11.488  0.3001 -0.0325  0.0464
13705TIP3    H162606   4.579   1.380  11.472 -0.5147 -0.3272 -1.6965
13705TIP3    H262607   4.507   1.493  11.401 -2.1519  0.0187  0.4351
13706TIP3   OH262608   1.943   5.034  10.831  0.5017  0.2447 -0.1967
13706TIP3    H162609   1.878   5.102  10.811 -0.3152 -0.2586  0.6566
13706TIP3    H262610   1.908   4.955  10.789  0.5223 -0.0466  0.3275
13707TIP3   OH262611   2.508   0.558   1.517  0.2296  0.0477 -0.6536
13707TIP3    H162612   2.491   0.564   1.423 -1.0063 -4.0079 -0.9051
13707TIP3    H262613   2.472   0.472   1.542 -0.2468  1.2904  3.7177
13708TIP3   OH262614   1.719   0.995   2.814 -0.8325 -0.0397 -0.0925
13708TIP3    H162615   1.714   1.078   2.767 -0.0784  0.9704  1.4977
13708TIP3    H262616   1.630   0.980   2.846 -1.2174 -0.4398 -1.3051
13709TIP3   OH262617   4.677   0.002  15.682  0.2440 -0.4064 -0.1412
13709TIP3    H162618   4.760  -0.001  15.731  0.5567  0.6717 -0.5772
13709TIP3    H262619   4.613   0.036  15.745  0.4839  0.2781 -0.2663
13710TIP3   OH262620   3.575   4.456   3.183  0.1987 -0.7177  0.5072
13710TIP3    H162621   3.584   4.405   3.103 -2.3830  1.2947 -1.2801
13710TIP3    H262622   3.645   4.521   3.177  1.0762 -1.6192  0.7911
13711TIP3   OH262623   5.290   4.938  14.021  0.0042  0.4030  0.0100
13711TIP3    H162624   5.361   4.882  13.989  0.5976  0.2239  1.5376
13711TIP3    H262625   5.292   5.015  13.964  0.8284 -0.0163 -0.5378
13712TIP3   OH262626   0.988   1.939  15.212  0.0636  0.2519  0.3153
13712TIP3    H162627   1.034   1.891  15.143 -0.8843  0.7051 -0.6587
13712TIP3    H262628   1.052   2.001  15.246  0.4465  0.2487 -0.3929
13713TIP3   OH262629   5.660   6.711   1.628 -0.2763  0.3993  0.1762
13713TIP3    H162630   5.583   6.736   1.576 -0.1923  0.1081 -0.0941
13713TIP3    H262631   5.716   6.665   1.566  0.5420  1.4062  0.1401
13714TIP3   OH262632   5.233   3.856  16.001 -0.3074 -0.5900 -0.4972
13714TIP3    H162633   5.274   3.775  15.970 -0.7822 -2.0728  2.3334
13714TIP3    H262634   5.295   3.893  16.063 -0.1222  1.2775 -1.7101
13715TIP3   OH262635   0.987   0.639   4.482 -0.7414 -0.1216  0.6924
13715TIP3    H162636   0.942   0.680   4.555  0.1640 -0.0594  1.2378
13715TIP3    H262637   1.048   0.578   4.523  0.0526  0.1896  0.0108
13716TIP3   OH262638   3.341   0.758  12.202  0.7119 -0.1852  0.1060
13716TIP3    H162639   3.285   0.683  12.188  0.5828 -0.1415  0.3697
13716TIP3    H262640   3.399   0.732  12.274 -1.5568  1.1388  2.5715
13717TIP3   OH262641   1.421   3.047  13.639  0.0904 -0.5961  0.3387
13717TIP3    H162642   1.438   3.005  13.555 -4.1245 -0.0438 -1.0330
13717TIP3    H262643   1.412   2.974  13.700  0.4950 -1.1809 -0.2780
13718TIP3   OH262644   5.863   2.162  16.951  0.7943  0.3391  0.6613
13718TIP3    H162645   5.895   2.092  17.008  0.7144 -0.6005 -0.4220
13718TIP3    H262646   5.834   2.117  16.871 -4.1306  0.9461  1.8177
13719TIP3   OH262647   0.773   5.354  11.306  0.3837 -0.0213  0.5593
13719TIP3    H162648   0.748   5.328  11.395  1.4234 -2.9462  0.1314
13719TIP3    H262649   0.698   5.402  11.272 -1.6217 -2.0791  1.7990
13720TIP3   OH262650   5.704   0.341  11.275  0.1431 -0.2071 -0.0489
13720TIP3    H162651   5.657   0.265  11.242 -0.1297  0.1017 -0.3712
13720TIP3    H262652   5.661   0.362  11.358  0.5681 -0.7332  0.3146
13721TIP3   OH262653   6.765   1.113   4.085  0.1087 -0.1813  0.5676
13721TIP3    H162654   6.674   1.088   4.099  0.1673  0.4219  2.1557
13721TIP3    H262655   6.761   1.185   4.021 -0.6219  0.5520  1.4246
13722TIP3   OH262656   2.088   3.466  14.911  0.0010 -0.0690 -0.0424
13722TIP3    H162657   2.026   3.416  14.964 -1.2698  0.4471 -1.0155
13722TIP3    H262658   2.148   3.401  14.876 -1.4812 -0.9137 -1.0892
13723TIP3   OH262659   3.083   5.224  16.441  0.3959  0.0190  0.1906
13723TIP3    H162660   3.152   5.165  16.410  0.2203  0.1689 -0.4848
13723TIP3    H262661   3.001   5.182  16.415  0.2641  0.4507 -0.0956
13724TIP3   OH262662   0.083   5.889  17.225 -0.0319  0.1815  0.3370
13724TIP3    H162663  -0.002   5.903  17.267  0.0708  1.1483  0.2291
13724TIP3    H262664   0.147   5.929  17.284  0.1971  0.7963 -0.3213
13725TIP3   OH262665   3.276   4.171  15.955 -0.6788 -0.2898 -0.3188
13725TIP3    H162666   3.368   4.146  15.962 -0.6034  0.1537  0.4207
13725TIP3    H262667   3.276   4.240  15.888 -0.6044 -0.8902 -0.9433
13726TIP3   OH262668   5.998   6.157  16.075 -0.1509  0.5276  0.1304
13726TIP3    H162669   5.933   6.173  16.007 -0.4485  1.2810  0.5808
13726TIP3    H262670   5.969   6.211  16.149  0.0150 -0.4734  0.9517
13727TIP3   OH262671   4.614   0.858  11.181 -0.5291  0.0592 -0.2612
13727TIP3    H162672   4.530   0.896  11.153 -1.2455  2.0619  3.9186
13727TIP3    H262673   4.589   0.775  11.223 -0.3473  0.2999  0.3274
13728TIP3   OH262674   2.458   1.384  15.041  0.8819 -0.0955  0.5018
13728TIP3    H162675   2.498   1.347  15.119  0.9811  1.4773  1.2567
13728TIP3    H262676   2.438   1.309  14.985 -2.1447 -1.6925  3.3730
13729TIP3   OH262677   0.588   0.621  15.981 -0.9611  0.3262  0.3603
13729TIP3    H162678   0.622   0.562  15.914  0.9554  0.7041  0.9411
13729TIP3    H262679   0.533   0.683  15.933 -0.0454  0.2725 -0.7992
13730TIP3   OH262680   1.302   2.507   1.117 -0.4159  0.3457  0.6191
13730TIP3    H162681   1.366   2.457   1.067 -2.0348  0.8520 -2.1682
13730TIP3    H262682   1.251   2.441   1.164 -1.2394 -0.5504 -1.4249
13731TIP3   OH262683   5.404   6.350   2.464 -0.4706  0.1287  0.2473
13731TIP3    H162684   5.420   6.371   2.556 -0.5578  2.2080 -0.1563
13731TIP3    H262685   5.309   6.360   2.455 -0.7398 -1.9150  0.3022
13732TIP3   OH262686   6.425   4.136  12.567 -0.6036 -0.1077 -0.1077
13732TIP3    H162687   6.421   4.231  12.563 -1.5069 -0.1773 -1.7998
13732TIP3    H262688   6.496   4.112  12.508 -0.4174 -0.5026  0.2673
13733TIP3   OH262689   5.581   3.629   2.658 -0.4769 -0.2420 -0.1733
13733TIP3    H162690   5.677   3.623   2.654 -0.4434  0.4160 -0.5087
13733TIP3    H262691   5.551   3.543   2.629  0.0151 -0.5277  0.1451
13734TIP3   OH262692   4.162   4.789   5.383 -0.2105  0.0064 -0.3367
13734TIP3    H162693   4.208   4.858   5.431  1.8819 -1.0116 -0.7368
13734TIP3    H262694   4.104   4.749   5.448  0.6387  0.3259  0.6485
13735TIP3   OH262695   0.670   5.699   2.199 -0.1747 -0.1745 -0.5564
13735TIP3    H162696   0.700   5.757   2.130  0.7687 -0.2645 -0.2298
13735TIP3    H262697   0.626   5.757   2.262  2.9830  0.6814  1.0825
13736TIP3   OH262698   6.441   6.153  16.984  0.2133  0.9833 -0.7482
13736TIP3    H162699   6.454   6.155  17.079  0.5450 -1.5019 -0.6717
13736TIP3    H262700   6.445   6.060  16.961 -4.3380  0.9712 -2.5944
13737TIP3   OH262701   4.516   1.156   0.429 -0.0093  0.3007 -0.9919
13737TIP3    H162702   4.469   1.073   0.433 -1.1960  0.9458 -0.9993
13737TIP3    H262703   4.592   1.138   0.375 -0.1644 -0.8172 -0.8686
13738TIP3   OH262704   2.585   6.363  14.644 -0.0354  0.1185 -0.4080
13738TIP3    H162705   2.560   6.451  14.671  0.3900  0.1161  0.0082
13738TIP3    H262706   2.555   6.356  14.554 -0.9767  0.3287 -0.1171
13739TIP3   OH262707   1.652   2.485   3.345 -0.2876 -0.2852  0.2502
13739TIP3    H162708   1.693   2.405   3.314 -0.5856 -1.3082  2.3138
13739TIP3    H262709   1.608   2.460   3.426 -0.3771  1.9620  0.9818
13740TIP3   OH262710   2.921   2.483   3.617  0.0400 -0.0588  0.0723
13740TIP3    H162711   2.882   2.491   3.530 -1.2887  1.2156  0.7309
13740TIP3    H262712   2.997   2.426   3.605 -1.6010 -2.0919 -1.4248
13741TIP3   OH262713   0.698   6.333  16.600  0.5709  0.1014 -0.1348
13741TIP3    H162714   0.717   6.243  16.627 -0.5660  0.1192  0.7961
13741TIP3    H262715   0.680   6.380  16.681 -0.4619  0.7644 -0.7170
13742TIP3   OH262716   1.526   4.972  16.112 -0.3237 -0.3130 -0.1711
13742TIP3    H162717   1.528   4.879  16.092 -0.7287 -0.4257  0.3103
13742TIP3    H262718   1.611   4.991  16.150 -1.1660 -1.0590  2.2363
13743TIP3   OH262719   4.915   4.223  17.214  0.6406  0.1646  0.5051
13743TIP3    H162720   5.002   4.263  17.225  0.8237 -0.2945  0.7644
13743TIP3    H262721   4.874   4.233  17.300  1.9584 -3.1592  1.6876
13744TIP3   OH262722   1.534   3.401   4.214  0.3022 -0.4060  0.3153
13744TIP3    H162723   1.447   3.364   4.226  0.0592  0.8753  3.0161
13744TIP3    H262724   1.590   3.351   4.273  1.0291  0.0030 -0.0142
13745TIP3   OH262725   1.413   6.475  15.485  0.0007  0.4593  0.5492
13745TIP3    H162726   1.396   6.567  15.463 -2.0056 -0.0640 -0.3797
13745TIP3    H262727   1.326   6.435  15.484  0.9725 -1.7591 -0.5673
13746TIP3   OH262728   5.693   2.957  17.128  0.4086 -0.1469  0.4491
13746TIP3    H162729   5.728   3.027  17.072 -0.5685 -0.8018 -1.0558
13746TIP3    H262730   5.759   2.888  17.125  0.2658 -0.2690 -0.1187
13747TIP3   OH262731   2.912   3.209   3.827 -0.3946  0.5312 -0.1332
13747TIP3    H162732   2.894   3.154   3.751 -1.4264 -1.9634  1.7700
13747TIP3    H262733   3.002   3.187   3.851 -0.0623  1.3327 -0.6230
13748TIP3   OH262734   4.565   1.699   3.351  0.2629 -0.7627  0.1997
13748TIP3    H162735   4.616   1.720   3.429  1.7715 -3.4602  0.0469
13748TIP3    H262736   4.605   1.750   3.281 -0.0526  0.4099  0.8506
13749TIP3   OH262737   1.850   4.895   6.109 -0.2664  0.0914  0.0948
13749TIP3    H162738   1.784   4.957   6.079 -0.6163  0.8357  2.2314
13749TIP3    H262739   1.852   4.906   6.204  1.3429 -1.5219  0.3047
13750TIP3   OH262740   5.752   4.034  15.347 -0.0780 -0.3795  0.1169
13750TIP3    H162741   5.752   4.117  15.395 -5.6670  0.7443 -1.1882
13750TIP3    H262742   5.694   4.049  15.273  0.5836 -4.8288 -1.5872
13751TIP3   OH262743   3.856   2.834   3.251  0.4700 -0.6849 -0.2033
13751TIP3    H162744   3.887   2.924   3.265 -2.1264  0.1464  0.8722
13751TIP3    H262745   3.776   2.844   3.201 -0.3870 -2.3205  0.7606
13752TIP3   OH262746   1.176   5.932  10.870 -0.2915  0.0398  0.2384
13752TIP3    H162747   1.182   5.844  10.906  0.2835  0.0748  0.2266
13752TIP3    H262748   1.233   5.931  10.794 -1.1229  0.1107 -0.4021
13753TIP3   OH262749   5.605   6.689  12.351 -0.0203  0.4606  0.2073
13753TIP3    H162750   5.673   6.747  12.318  1.1214 -0.5145  0.7857
13753TIP3    H262751   5.630   6.602  12.319 -0.0662 -0.1683  1.7896
13754TIP3   OH262752   0.772   5.401  13.635  0.2602  0.0233 -0.4128
13754TIP3    H162753   0.844   5.399  13.571  0.1532  1.5785 -0.6060
13754TIP3    H262754   0.719   5.477  13.610 -1.5278 -1.1332 -0.3337
13755TIP3   OH262755   0.169   6.072   1.148 -0.2501 -0.1323 -0.4621
13755TIP3    H162756   0.255   6.113   1.157 -0.7699  0.7680  0.5514
13755TIP3    H262757   0.110   6.127   1.199 -1.2940 -1.1702 -0.4989
13756TIP3   OH262758   2.985   5.029  13.750  0.0466 -0.6390  0.2044
13756TIP3    H162759   3.071   5.068  13.734 -0.3033  0.0794  0.0444
13756TIP3    H262760   2.928   5.103  13.772 -0.7264 -1.0020 -0.5077
13757TIP3   OH262761   3.617   1.474  10.902 -0.5198  0.9048  0.1814
13757TIP3    H162762   3.595   1.438  10.816 -0.9843  0.8167  0.3340
13757TIP3    H262763   3.534   1.474  10.950  0.1107 -1.2735  1.4408
13758TIP3   OH262764   3.584   3.228  15.940  0.4537 -0.0943 -0.2611
13758TIP3    H162765   3.674   3.198  15.949  0.2462 -0.5868  0.2708
13758TIP3    H262766   3.531   3.153  15.968 -0.2077 -0.8323 -3.1823
13759TIP3   OH262767   0.714   1.398   4.738  0.7651  0.2308 -0.7772
13759TIP3    H162768   0.771   1.347   4.680  1.7772 -1.3957  1.4761
13759TIP3    H262769   0.755   1.484   4.742  0.2569  0.6418 -2.9584
13760TIP3   OH262770   0.958   5.575   3.905  0.0799  0.1000  0.1021
13760TIP3    H162771   1.029   5.638   3.897 -0.2324  0.3812 -0.5870
13760TIP3    H262772   0.949   5.537   3.818  0.5084 -1.1807  0.6006
13761TIP3   OH262773   1.697   4.186  14.068  0.0646  0.4946 -0.1638
13761TIP3    H162774   1.622   4.192  14.009 -0.0071  0.0642 -0.1186
13761TIP3    H262775   1.723   4.277  14.084 -0.7075  0.6615  0.1583
13762TIP3   OH262776   5.295   5.656  12.783 -0.2844  0.1474 -0.0001
13762TIP3    H162777   5.259   5.661  12.694  0.0025  3.5542 -0.0735
13762TIP3    H262778   5.383   5.621  12.770 -0.7953 -0.8802 -0.8401
13763TIP3   OH262779   0.054   0.222   0.446 -0.5470 -0.3303 -0.5500
13763TIP3    H162780  -0.041   0.219   0.431 -0.7870 -1.5213  0.9813
13763TIP3    H262781   0.067   0.295   0.506 -0.2660  0.8250 -1.9531
13764TIP3   OH262782   3.494   6.759   1.578 -0.2584  0.2162  0.3165
13764TIP3    H162783   3.481   6.853   1.565  0.8437  0.2632 -0.6502
13764TIP3    H262784   3.500   6.724   1.489  0.7355 -0.5479  0.6677
13765TIP3   OH262785   3.215   2.797   6.313  0.5574 -0.0198 -0.1498
13765TIP3    H162786   3.211   2.887   6.280  0.6516  0.3689  0.8681
13765TIP3    H262787   3.132   2.758   6.286  0.8281  0.1249 -1.2527
13766TIP3   OH262788   0.654   0.647   1.908 -0.1018 -0.1020  0.3807
13766TIP3    H162789   0.662   0.593   1.830 -1.3231 -0.3675  0.4208
13766TIP3    H262790   0.585   0.709   1.887  0.2786  0.4939  0.8772
13767TIP3   OH262791   6.110   5.206  16.759 -0.6475  0.3990  0.7314
13767TIP3    H162792   6.186   5.231  16.812  0.5449  0.7387 -1.0584
13767TIP3    H262793   6.135   5.228  16.669 -1.3694 -2.8813 -0.4135
13768TIP3   OH262794   4.678   3.708  12.524 -0.1964 -0.2419 -0.0902
13768TIP3    H162795   4.738   3.668  12.461  0.5609 -1.9049  1.5906
13768TIP3    H262796   4.702   3.800  12.525  1.9780 -0.7613  0.0975
13769TIP3   OH262797   3.835   1.812   4.685  0.5958  0.0843 -0.1884
13769TIP3    H162798   3.756   1.861   4.706 -0.2233 -0.6523 -1.4025
13769TIP3    H262799   3.877   1.863   4.615  0.8615  0.1454  0.0139
13770TIP3   OH262800   0.484   5.548   5.473  0.2626  0.5153  0.3474
13770TIP3    H162801   0.481   5.537   5.568 -0.3944  0.1813  0.2918
13770TIP3    H262802   0.488   5.458   5.438  1.8942  0.6519  0.0872
13771TIP3   OH262803   4.025   4.636  13.537 -0.1152 -0.2836 -0.8612
13771TIP3    H162804   4.092   4.649  13.471  0.8935 -1.1458 -0.0351
13771TIP3    H262805   4.073   4.627  13.619 -1.3746  1.7466  0.1943
13772TIP3   OH262806   1.016   3.540  13.534  0.5112  0.1833 -0.2032
13772TIP3    H162807   1.106   3.518  13.509  0.4692  0.6836 -0.8359
13772TIP3    H262808   0.961   3.481  13.482  0.4377  0.9105 -0.9759
13773TIP3   OH262809   4.198   2.157  11.985  0.3213  0.0453  0.1128
13773TIP3    H162810   4.157   2.118  11.908 -1.7918  0.9565  0.6967
13773TIP3    H262811   4.171   2.101  12.058 -1.4265  1.6150  0.7418
13774TIP3   OH262812   2.385   4.680  11.889 -0.9665  0.4474  0.3958
13774TIP3    H162813   2.450   4.631  11.839 -0.7359  0.6456  0.5002
13774TIP3    H262814   2.408   4.664  11.981 -1.9425 -0.6671  0.4667
13775TIP3   OH262815   4.534   4.605  16.269 -0.3712 -0.7197  0.4317
13775TIP3    H162816   4.510   4.513  16.271  0.2694 -0.8759  1.3500
13775TIP3    H262817   4.591   4.617  16.345  0.2994  0.2224 -0.1936
13776TIP3   OH262818   4.350   0.970  15.366 -0.4368 -0.0508 -0.2584
13776TIP3    H162819   4.302   0.891  15.343 -1.3050  0.1645  0.7285
13776TIP3    H262820   4.413   0.942  15.433  0.7828 -0.3116 -1.4716
13777TIP3   OH262821   5.045   5.377   1.542  0.0346  0.6987  0.5921
13777TIP3    H162822   4.997   5.403   1.464  0.8841  0.9142  0.1199
13777TIP3    H262823   5.128   5.424   1.536  0.8868 -0.7151  0.6481
13778TIP3   OH262824   1.100   4.386  13.488  0.1438  0.3933 -0.0436
13778TIP3    H162825   1.157   4.448  13.442  0.5626  0.2694  0.3000
13778TIP3    H262826   1.099   4.418  13.579 -0.6660  0.6277 -0.1301
13779TIP3   OH262827   0.867   5.246  12.977 -0.2463  0.2597  0.3596
13779TIP3    H162828   0.813   5.324  12.972 -0.5972  0.1122  1.4567
13779TIP3    H262829   0.932   5.265  13.046 -1.1823 -0.8758  1.6146
13780TIP3   OH262830   4.465   2.625   5.081  0.3970 -0.8207 -0.2233
13780TIP3    H162831   4.552   2.594   5.108  1.3732  0.8746 -1.2334
13780TIP3    H262832   4.434   2.559   5.019  0.4909 -1.9733  0.9307
13781TIP3   OH262833   4.113   1.832  15.526 -0.2014 -0.1656  0.3864
13781TIP3    H162834   4.040   1.821  15.465  0.5321 -0.7718 -0.4234
13781TIP3    H262835   4.096   1.770  15.596 -0.5217 -0.2222  0.2595
13782TIP3   OH262836   4.095   0.913  13.817  0.3713  0.1908 -0.0280
13782TIP3    H162837   4.176   0.961  13.834  0.6271 -0.5510  0.9158
13782TIP3    H262838   4.123   0.839  13.762  0.2898  0.0764  0.0861
13783TIP3   OH262839   2.055   5.471   5.812 -1.1540 -0.1456  0.2637
13783TIP3    H162840   2.139   5.452   5.854 -0.1062  0.2912 -1.5128
13783TIP3    H262841   2.062   5.564   5.788 -2.1221 -0.1339  0.0039
13784TIP3   OH262842   1.187   0.321  16.664  0.4092  0.3352  0.2213
13784TIP3    H162843   1.094   0.297  16.657  0.0222  1.7044  0.3198
13784TIP3    H262844   1.197   0.352  16.754  0.8670  0.5271  0.1040
13785TIP3   OH262845   4.669   3.495   4.651 -0.7440  0.0725 -0.1421
13785TIP3    H162846   4.583   3.453   4.651  0.8394 -3.4784 -1.1764
13785TIP3    H262847   4.705   3.476   4.564  1.3335  0.9551  0.4605
13786TIP3   OH262848   5.436   0.791  17.401  0.2351  0.4804  0.0602
13786TIP3    H162849   5.382   0.801  17.323  1.8533 -1.7811 -1.4781
13786TIP3    H262850   5.520   0.757  17.368  1.1683 -0.0463  2.7193
13787TIP3   OH262851   4.477   4.573   4.027  0.1804  0.0382  0.0269
13787TIP3    H162852   4.561   4.574   3.981 -0.2228 -0.1192 -0.7311
13787TIP3    H262853   4.490   4.512   4.099  1.0262  0.7873  0.5240
13788TIP3   OH262854   3.022   3.263  12.836 -0.4818  0.1679  0.0462
13788TIP3    H162855   3.055   3.174  12.845 -0.6862 -0.0350 -0.9873
13788TIP3    H262856   3.094   3.311  12.795  0.2385  0.9076  2.0974
13789TIP3   OH262857   1.511   5.624   6.551  0.2181  0.1117 -0.2686
13789TIP3    H162858   1.443   5.630   6.618  0.3266  0.2879 -0.1717
13789TIP3    H262859   1.495   5.700   6.494  1.1064  0.8862  0.4878
13790TIP3   OH262860   0.436   3.240  15.100 -0.2157  0.6673  0.7334
13790TIP3    H162861   0.362   3.249  15.161 -1.0525  1.7804 -0.3855
13790TIP3    H262862   0.457   3.330  15.075  0.4928  0.2606 -0.1665
13791TIP3   OH262863   2.167   6.769  14.559  0.0965 -0.0893  0.3000
13791TIP3    H162864   2.114   6.704  14.605  1.0970 -1.0284  0.1674
13791TIP3    H262865   2.163   6.847  14.615  1.0014 -1.0833  1.8396
13792TIP3   OH262866   6.179   2.779   5.320  0.6784 -0.0742 -0.0668
13792TIP3    H162867   6.187   2.734   5.404 -0.3295 -0.2075 -0.0311
13792TIP3    H262868   6.255   2.749   5.270  0.9934 -0.4167  0.5983
13793TIP3   OH262869   0.673   2.847   4.938  0.1656 -0.3363 -0.1513
13793TIP3    H162870   0.648   2.847   5.030 -0.3629 -2.7578 -0.2090
13793TIP3    H262871   0.660   2.937   4.908 -0.1441  0.3695  1.9883
13794TIP3   OH262872   4.957   2.571  13.333  0.0892 -0.3165 -0.2289
13794TIP3    H162873   4.975   2.663  13.318  1.9991 -0.5532  0.2257
13794TIP3    H262874   4.867   2.568  13.364  0.9500  1.8285  3.0334
13795TIP3   OH262875   5.587   4.103  16.372 -0.8430  0.1183  0.5679
13795TIP3    H162876   5.580   4.088  16.278  1.5254 -0.2522  0.3751
13795TIP3    H262877   5.560   4.021  16.412 -0.2848 -0.3037  0.0986
13796TIP3   OH262878   5.998   4.348   2.085 -0.7752  0.4889  0.2358
13796TIP3    H162879   5.960   4.261   2.086 -1.8990  0.9395  2.1509
13796TIP3    H262880   5.987   4.379   1.995 -1.4228 -0.8756 -0.1761
13797TIP3   OH262881   4.245   6.092  17.478  0.2054 -0.0999  0.0572
13797TIP3    H162882   4.220   6.131  17.561 -0.1466  2.6865 -1.2700
13797TIP3    H262883   4.326   6.044  17.498 -1.4761 -2.1735  2.5925
13798TIP3   OH262884   1.310   5.969  14.910  0.4113  0.2496  0.1658
13798TIP3    H162885   1.302   5.972  15.005  2.0786 -0.8411  0.3773
13798TIP3    H262886   1.248   6.036  14.878 -0.0077  0.7778  2.0032
13799TIP3   OH262887   4.275   1.425  16.958  0.4024 -0.6714 -0.0872
13799TIP3    H162888   4.341   1.385  16.902  0.9400  0.5850 -0.3857
13799TIP3    H262889   4.223   1.479  16.899 -0.5609 -1.2119  0.2406
13800TIP3   OH262890   5.044   4.814  13.007 -0.3731  0.4316 -0.0186
13800TIP3    H162891   5.074   4.868  13.081 -0.4944  0.7520 -0.2009
13800TIP3    H262892   5.083   4.856  12.930  3.4263 -2.3253  0.1221
13801TIP3   OH262893   1.454   4.192   5.150 -0.5515 -0.5526  0.2223
13801TIP3    H162894   1.467   4.273   5.201 -2.2903  0.6631 -1.1547
13801TIP3    H262895   1.453   4.123   5.216  2.8216  0.2533  1.2980
13802TIP3   OH262896   1.194   0.672  12.746  0.2625  0.1912  0.2788
13802TIP3    H162897   1.184   0.713  12.659  0.1514  0.9547  0.6399
13802TIP3    H262898   1.284   0.693  12.772  0.1051  0.4921  0.6000
13803TIP3   OH262899   2.824   2.298   1.473 -0.3813  0.1420  0.5729
13803TIP3    H162900   2.844   2.204   1.475  0.9694  0.3486 -0.9888
13803TIP3    H262901   2.743   2.305   1.423 -0.4980 -0.1962  0.7137
13804TIP3   OH262902   4.729   1.432  16.898  0.1148 -0.2115 -0.7599
13804TIP3    H162903   4.704   1.340  16.899  1.7458 -0.6890  0.4980
13804TIP3    H262904   4.793   1.439  16.826 -0.9679  0.2567 -1.7122
13805TIP3   OH262905   6.626   1.726  17.354  0.2478  0.1997 -0.1762
13805TIP3    H162906   6.653   1.807  17.398 -2.3085  1.5948 -0.9580
13805TIP3    H262907   6.589   1.671  17.423 -4.0785  2.5230 -0.2763
13806TIP3   OH262908   4.452   2.323   2.754  0.1041  0.2402  0.2392
13806TIP3    H162909   4.386   2.261   2.723  0.5552 -1.1964  1.9802
13806TIP3    H262910   4.520   2.320   2.687 -0.1192 -0.7789  0.0327
13807TIP3   OH262911   0.325   2.587  12.893 -0.5406  0.3814  0.0317
13807TIP3    H162912   0.275   2.627  12.965 -0.0685 -0.2030  0.7043
13807TIP3    H262913   0.384   2.657  12.863 -0.3666  0.4757  0.5787
13808TIP3   OH262914   3.303   2.893   5.061 -0.0498 -0.1547 -0.0697
13808TIP3    H162915   3.383   2.888   5.114 -0.6964  1.3646  1.1442
13808TIP3    H262916   3.275   2.985   5.069 -1.1012 -0.3050 -1.6958
13809TIP3   OH262917   5.969   4.250   1.207  0.0371 -0.1961  0.3072
13809TIP3    H162918   5.907   4.183   1.177  0.4731 -0.0255 -1.0394
13809TIP3    H262919   5.921   4.332   1.201  0.6364  0.0540 -1.6232
13810TIP3   OH262920   6.629   3.541  16.984  0.0856  0.9390 -0.2963
13810TIP3    H162921   6.645   3.531  17.078  2.2211  0.0945 -0.6814
13810TIP3    H262922   6.717   3.555  16.947 -0.9823  6.3155 -1.6531
13811TIP3   OH262923   6.245   0.334   1.422 -0.3197  0.5793  1.0692
13811TIP3    H162924   6.324   0.337   1.367 -0.7814  1.1780  0.4277
13811TIP3    H262925   6.204   0.250   1.400 -2.0687  2.0331 -1.7662
13812TIP3   OH262926   1.004   2.013  10.604  0.1639 -0.2253 -0.0355
13812TIP3    H162927   0.936   2.007  10.671  0.8603  0.1322  0.7202
13812TIP3    H262928   0.959   2.050  10.528 -0.6239 -0.5741  0.2525
13813TIP3   OH262929   1.891   5.905  14.108  0.3570  0.1459  0.1028
13813TIP3    H162930   1.873   5.992  14.072 -1.4596 -0.3202 -0.2563
13813TIP3    H262931   1.804   5.871  14.131  1.1298 -1.1661  1.2005
13814TIP3   OH262932   4.251   3.857  11.608 -0.7349  0.2954 -0.1839
13814TIP3    H162933   4.328   3.844  11.553 -1.2059  0.5848 -0.9280
13814TIP3    H262934   4.177   3.836  11.551 -1.3024  1.8806 -0.0918
13815TIP3   OH262935   2.850   4.474  15.573 -0.8353  0.3591 -0.2436
13815TIP3    H162936   2.827   4.559  15.611 -1.5089  0.4921 -0.9117
13815TIP3    H262937   2.809   4.476  15.486 -1.8755 -1.1110  0.1753
13816TIP3   OH262938   2.198   4.478  14.710 -0.2182 -0.0077 -0.3436
13816TIP3    H162939   2.280   4.493  14.757 -0.4205  0.6131 -0.1751
13816TIP3    H262940   2.199   4.385  14.689 -0.2965 -0.3843  1.2103
13817TIP3   OH262941   5.031   6.653  12.382 -0.0508 -0.1925  0.1636
13817TIP3    H162942   5.079   6.644  12.465 -0.4547  0.1049  0.4312
13817TIP3    H262943   4.990   6.739  12.387 -1.8212 -1.0089  0.5837
13818TIP3   OH262944   0.490   3.372  13.140  0.5445 -0.0765  0.1914
13818TIP3    H162945   0.408   3.410  13.108  1.8103  0.0625 -3.3259
13818TIP3    H262946   0.495   3.398  13.232 -3.4723 -0.4266  0.6857
13819TIP3   OH262947   6.002   2.736   5.772 -0.1355  0.0078  0.5333
13819TIP3    H162948   6.022   2.644   5.753 -0.1391  0.4633 -2.0471
13819TIP3    H262949   6.079   2.784   5.742 -0.4634  0.9170  1.1131
13820TIP3   OH262950   0.002   5.233   4.047  0.2195 -0.0324  0.0845
13820TIP3    H162951  -0.054   5.304   4.079  0.0596  0.6157 -1.5008
13820TIP3    H262952   0.085   5.244   4.094  0.2559  1.3304 -0.2530
13821TIP3   OH262953   2.063   6.389   2.995 -0.3072  0.2391 -0.0747
13821TIP3    H162954   1.975   6.406   3.028  0.2499  1.1356  0.9811
13821TIP3    H262955   2.118   6.456   3.035  1.2727 -1.6407  1.0862
13822TIP3   OH262956   3.833   1.722  16.236 -0.0644  0.2474  0.1869
13822TIP3    H162957   3.882   1.776  16.175  1.2614 -1.4204 -0.3049
13822TIP3    H262958   3.860   1.632  16.217 -0.7886 -0.4692  2.1704
13823TIP3   OH262959   2.452   2.397   0.779  0.5579  0.0334  0.2682
13823TIP3    H162960   2.488   2.314   0.750 -1.4747 -0.9534  0.3974
13823TIP3    H262961   2.375   2.373   0.831 -1.0078  1.9976 -0.9772
13824TIP3   OH262962   2.742   0.136   2.695 -0.2357 -0.5725  0.3034
13824TIP3    H162963   2.678   0.071   2.668 -2.3117  1.6510 -0.5435
13824TIP3    H262964   2.695   0.220   2.689  2.8572  1.2681 -0.7259
13825TIP3   OH262965   1.379   1.364   0.793  0.5230 -0.2125  0.1248
13825TIP3    H162966   1.368   1.270   0.780  1.3169 -0.4223  0.8417
13825TIP3    H262967   1.472   1.380   0.775  0.2241  0.5814 -0.7757
13826TIP3   OH262968   3.383   2.984   2.947  0.1724 -0.9573  0.2817
13826TIP3    H162969   3.301   2.936   2.945 -0.4259  0.0493 -0.0614
13826TIP3    H262970   3.358   3.072   2.976  1.2069 -0.7931  0.7139
13827TIP3   OH262971   1.595   4.611   3.274  0.3434 -0.9586  0.2148
13827TIP3    H162972   1.588   4.687   3.217 -1.2697 -0.8859  0.4847
13827TIP3    H262973   1.689   4.603   3.292  0.4972  1.2311  0.5621
13828TIP3   OH262974   2.365   3.657   1.718 -0.0625 -0.2060  0.3084
13828TIP3    H162975   2.411   3.639   1.800  0.8803 -0.8001 -0.3351
13828TIP3    H262976   2.355   3.572   1.677  0.1245  0.1754 -0.5424
13829TIP3   OH262977   3.701   2.884  17.165  0.5155 -0.0714 -0.4826
13829TIP3    H162978   3.613   2.892  17.128  0.1414  2.8891  0.7305
13829TIP3    H262979   3.687   2.890  17.260  1.9409 -0.8744 -0.2005
13830TIP3   OH262980   0.502   1.493   2.173  0.2369 -0.9436 -0.0831
13830TIP3    H162981   0.532   1.584   2.184 -1.4172 -0.2129 -1.2347
13830TIP3    H262982   0.500   1.458   2.262 -0.2425  0.5487  0.5299
13831TIP3   OH262983   2.400   0.413  17.057  0.1711 -0.8500 -0.3368
13831TIP3    H162984   2.463   0.344  17.037  1.4205 -0.3172  1.4833
13831TIP3    H262985   2.380   0.401  17.150  1.9665  2.3329  0.6091
13832TIP3   OH262986   1.639   4.159   0.657 -0.7147 -0.4478 -0.2734
13832TIP3    H162987   1.621   4.096   0.726 -1.4682  0.1570  0.0984
13832TIP3    H262988   1.644   4.106   0.577 -0.2367 -1.1018  0.1789
13833TIP3   OH262989   5.556   0.462   0.511  0.6797 -0.4390  0.3188
13833TIP3    H162990   5.478   0.517   0.500  1.5225  0.5981 -0.8307
13833TIP3    H262991   5.627   0.525   0.522  1.1179 -1.3556  3.8092
13834TIP3   OH262992   0.956   1.018  17.284 -0.2459  0.1710 -0.1772
13834TIP3    H162993   0.881   1.000  17.341 -0.3258  0.8144 -0.0632
13834TIP3    H262994   1.029   0.971  17.324 -0.3636  0.3884  0.3064
13835TIP3   OH262995   3.144   6.328   3.497 -0.3546  0.0920 -0.2360
13835TIP3    H162996   3.219   6.370   3.541  0.0960  1.2288 -1.9688
13835TIP3    H262997   3.068   6.359   3.546  0.0574  2.0686 -0.7177
13836TIP3   OH262998   3.332   2.589   1.505  0.6531  0.8605 -0.4663
13836TIP3    H162999   3.262   2.574   1.569 -0.1046 -1.5436 -1.7110
13836TIP3    H263000   3.295   2.653   1.445 -1.0623 -1.1313 -1.7059
13837TIP3   OH263001   5.937   5.688  15.425  0.0103  0.3068 -0.0807
13837TIP3    H163002   5.847   5.659  15.440  0.1140  0.2563  0.4552
13837TIP3    H263003   5.933   5.783  15.429 -0.4868  0.4922 -2.6810
13838TIP3   OH263004   4.742   5.266  17.336 -0.1820  0.2272  0.2250
13838TIP3    H163005   4.824   5.289  17.379  1.0405 -2.3902 -0.5130
13838TIP3    H263006   4.728   5.335  17.271  0.2432  1.8559  1.8056
13839TIP3   OH263007   5.504   6.188   0.062 -0.5206 -0.2513  0.2679
13839TIP3    H163008   5.543   6.262   0.109 -3.2109  0.9814  0.7638
13839TIP3    H263009   5.578   6.142   0.024  1.3254  2.4074  0.3784
13840TIP3   OH263010   2.550   2.987   3.460  0.0264  0.2890  0.1602
13840TIP3    H163011   2.609   2.923   3.420  0.4950  1.8310 -1.7751
13840TIP3    H263012   2.492   3.013   3.388 -1.6331  0.3736  1.4960
13841TIP3   OH263013   0.890   0.473   0.224 -0.4608  0.0030 -0.2093
13841TIP3    H163014   0.871   0.470   0.318  0.1678  1.1604 -0.0196
13841TIP3    H263015   0.968   0.529   0.217 -1.9110  2.0048 -1.5859
13842TIP3   OH263016   0.708   1.561  15.569  0.7470  0.5898 -0.2048
13842TIP3    H163017   0.619   1.575  15.538  1.3813 -0.0124 -2.5210
13842TIP3    H263018   0.712   1.606  15.653 -0.9035  3.1546 -1.3672
13843TIP3   OH263019   3.808   6.402   2.075  0.2144 -0.1209  0.1757
13843TIP3    H163020   3.876   6.454   2.116  1.0256 -0.2913 -0.9170
13843TIP3    H263021   3.851   6.320   2.050 -0.4726 -0.3758 -0.2140
13844TIP3   OH263022   5.838   2.960  11.218 -0.0183  0.2670 -0.2678
13844TIP3    H163023   5.775   2.961  11.290 -1.0590 -0.1779 -1.1529
13844TIP3    H263024   5.865   3.051  11.208  1.8379  0.0964  2.0974
13845TIP3   OH263025   0.545   3.473  15.006  0.1641 -0.1320 -0.1386
13845TIP3    H163026   0.614   3.538  15.016  0.6902 -0.6739 -0.2163
13845TIP3    H263027   0.488   3.510  14.938  0.3121  0.3639  0.0000
13846TIP3   OH263028   0.479   5.757   0.581  0.0413 -0.0970 -0.4704
13846TIP3    H163029   0.393   5.796   0.593  0.2504  0.1433  0.3098
13846TIP3    H263030   0.538   5.831   0.568  0.3486 -0.1660  0.4439
13847TIP3   OH263031   2.334   5.937  10.625 -0.0975  0.2179 -0.6236
13847TIP3    H163032   2.261   5.957  10.683 -1.4845  2.0358 -2.8408
13847TIP3    H263033   2.363   6.021  10.592  1.4377 -0.6539 -1.6308
13848TIP3   OH263034   6.126   2.558   2.706 -0.3710  0.1453 -0.8186
13848TIP3    H163035   6.196   2.545   2.642 -0.7455 -0.7830 -1.0523
13848TIP3    H263036   6.048   2.574   2.653 -0.6245 -0.3267 -0.5894
13849TIP3   OH263037   5.307   0.909  14.760  0.0759  0.1100 -0.3788
13849TIP3    H163038   5.355   0.978  14.806  1.5002 -0.9835 -0.1404
13849TIP3    H263039   5.340   0.828  14.799 -0.9915 -0.7322 -1.1900
13850TIP3   OH263040   2.926   3.139   1.197 -0.2945 -0.4312 -0.3586
13850TIP3    H163041   2.834   3.154   1.174 -0.1906 -1.2510 -1.3853
13850TIP3    H263042   2.925   3.127   1.292 -0.9048  1.9995  0.0091
13851TIP3   OH263043   1.304   5.141  16.153  0.0396 -0.3749 -0.1934
13851TIP3    H163044   1.328   5.139  16.060 -1.7837  1.5840 -0.8054
13851TIP3    H263045   1.256   5.058  16.167 -1.1519  0.0470 -1.5076
13852TIP3   OH263046   4.299   1.478   6.569 -0.3764 -0.7551 -0.3174
13852TIP3    H163047   4.342   1.559   6.597  0.5552 -0.9915 -0.9954
13852TIP3    H263048   4.322   1.415   6.637 -0.4565 -0.6402 -0.1828
13853TIP3   OH263049   2.817   2.189   3.965  0.2450  0.1787  0.3135
13853TIP3    H163050   2.853   2.176   4.053  1.9752 -0.1149 -0.3855
13853TIP3    H263051   2.891   2.172   3.906 -0.9793 -0.0878 -1.2307
13854TIP3   OH263052   2.727   3.751  11.474 -0.0008 -0.1010  0.2075
13854TIP3    H163053   2.814   3.760  11.437  0.7959 -0.1900  1.9357
13854TIP3    H263054   2.718   3.657  11.493 -0.9593 -0.2811 -1.0200
13855TIP3   OH263055   2.458   2.573  12.770  0.2855  0.3614  0.1217
13855TIP3    H163056   2.493   2.486  12.750 -1.0475 -0.6173  1.7680
13855TIP3    H263057   2.490   2.591  12.859 -0.0841  1.2097  0.0881
13856TIP3   OH263058   4.695   5.425  10.667  0.0200  0.2835  0.2722
13856TIP3    H163059   4.634   5.481  10.714  0.2018  1.1105 -0.4482
13856TIP3    H263060   4.716   5.355  10.728 -1.3846  0.1690  0.6557
13857TIP3   OH263061   0.720   6.368   2.542 -0.4938 -0.3426 -0.4073
13857TIP3    H163062   0.779   6.442   2.552  0.9587 -1.0313 -2.9943
13857TIP3    H263063   0.767   6.294   2.580 -0.0128 -0.7231 -1.6876
13858TIP3   OH263064   4.391   3.784   5.200  0.2702  0.1548 -0.6831
13858TIP3    H163065   4.312   3.744   5.236  1.6963 -0.6169  1.8096
13858TIP3    H263066   4.389   3.874   5.231  0.9357 -0.1976  0.4222
13859TIP3   OH263067   1.324   2.241   3.069  0.0119  0.0108 -0.2704
13859TIP3    H163068   1.415   2.251   3.097 -0.0633  1.2906 -0.4128
13859TIP3    H263069   1.291   2.166   3.119  1.0682 -0.3254 -0.0495
13860TIP3   OH263070   1.973   2.350   3.303 -0.2576 -0.4228  0.5851
13860TIP3    H163071   1.974   2.291   3.379 -0.1380 -0.6834  0.3840
13860TIP3    H263072   1.970   2.291   3.227  0.8798 -0.2031  0.3449
13861TIP3   OH263073   2.873   6.405   2.210 -0.1828 -0.4076  0.1803
13861TIP3    H163074   2.840   6.315   2.214  1.0630 -1.0862 -2.5210
13861TIP3    H263075   2.851   6.435   2.122  0.0081  1.7474  0.8029
13862TIP3   OH263076   5.468   3.690   5.066 -0.1842 -0.2237  0.3022
13862TIP3    H163077   5.406   3.661   4.999 -0.7914 -1.2143  1.2621
13862TIP3    H263078   5.541   3.628   5.061 -1.5251 -2.1430  2.4178
13863TIP3   OH263079   1.774   3.489   4.438  0.2822 -0.0499  0.7939
13863TIP3    H163080   1.753   3.408   4.391 -0.5130  1.5235 -1.7730
13863TIP3    H263081   1.851   3.468   4.490 -0.3833 -2.6619  0.8368
13864TIP3   OH263082   0.354   5.159  13.476  0.3388  0.4490 -0.2954
13864TIP3    H163083   0.269   5.114  13.477 -0.9083  2.5815 -2.0812
13864TIP3    H263084   0.367   5.184  13.385  3.1437 -0.1402 -0.1571
13865TIP3   OH263085   4.556   1.638  14.341 -0.4180  0.1137 -0.7397
13865TIP3    H163086   4.565   1.725  14.303  0.4364  1.7427  2.8334
13865TIP3    H263087   4.472   1.640  14.386  0.1177 -0.4904  0.3193
13866TIP3   OH263088   2.896   5.711  13.530  0.3245  0.0823  0.2019
13866TIP3    H163089   2.880   5.786  13.473  0.9265  1.2140  1.4772
13866TIP3    H263090   2.850   5.733  13.612  0.8239 -0.7664  0.7177
13867TIP3   OH263091   2.546   1.649   0.702  0.0981 -0.4841 -0.4056
13867TIP3    H163092   2.488   1.587   0.657 -0.3584  0.1930 -0.7645
13867TIP3    H263093   2.517   1.735   0.672  0.7351 -0.0933  0.0793
13868TIP3   OH263094   3.784   0.937   0.181 -0.5091  0.3692 -0.0946
13868TIP3    H163095   3.788   0.967   0.090  1.2656  0.6068  0.0418
13868TIP3    H263096   3.789   1.017   0.233 -0.2791  0.1496  0.2248
13869TIP3   OH263097   5.690   3.893   2.339 -0.5101  0.1199 -0.2050
13869TIP3    H163098   5.635   3.912   2.262  1.5650 -1.4529 -2.2278
13869TIP3    H263099   5.775   3.930   2.316  0.3390 -1.0192  1.0342
13870TIP3   OH263100   5.307   1.869   4.859  1.2796  0.8461  0.0701
13870TIP3    H163101   5.320   1.808   4.931 -0.1430 -0.2554 -0.5687
13870TIP3    H263102   5.296   1.954   4.901 -1.0330  0.0085  1.3194
13871TIP3   OH263103   3.319   4.619  12.417  0.2169  0.0841 -0.4304
13871TIP3    H163104   3.414   4.627  12.419  0.2525 -0.2529 -0.7069
13871TIP3    H263105   3.287   4.709  12.407  0.4582  0.3375  0.9038
13872TIP3   OH263106   4.663   6.280   5.720 -0.3369  0.4641  0.9465
13872TIP3    H163107   4.742   6.271   5.667 -1.0609  0.4111 -0.1468
13872TIP3    H263108   4.610   6.345   5.674 -2.2828 -1.6895 -0.0889
13873TIP3   OH263109   5.084   2.776   4.239 -0.3773  0.4375 -0.4201
13873TIP3    H163110   5.023   2.717   4.283  0.6355  0.2095  0.7271
13873TIP3    H263111   5.124   2.722   4.170 -0.6889  0.2854 -0.4837
13874TIP3   OH263112   4.735   3.203   2.711 -0.1773  0.1625 -0.0698
13874TIP3    H163113   4.712   3.246   2.794 -2.1622 -1.9466  0.5715
13874TIP3    H263114   4.653   3.197   2.663  0.6187 -0.2103 -1.4611
13875TIP3   OH263115   1.448   6.485  15.138  0.1162 -0.0011  0.0868
13875TIP3    H163116   1.514   6.551  15.115  0.8197 -1.0030 -0.9087
13875TIP3    H263117   1.492   6.428  15.201 -0.8395  1.0388  1.7699
13876TIP3   OH263118   0.238   4.506   3.606  0.8574 -0.0515 -0.0113
13876TIP3    H163119   0.326   4.475   3.584  0.3369 -0.8813 -1.0505
13876TIP3    H263120   0.190   4.426   3.629 -0.4574 -0.0515 -2.4797
13877TIP3   OH263121   5.969   2.839   4.949  0.3033 -0.1160 -1.1785
13877TIP3    H163122   5.970   2.753   4.908 -0.8919 -0.7456  0.0485
13877TIP3    H263123   5.883   2.875   4.927  0.6993  0.6864 -1.4780
13878TIP3   OH263124   6.723   0.638   3.790 -0.0325  0.2141  0.2560
13878TIP3    H163125   6.781   0.615   3.717 -0.9849  1.0166 -0.7874
13878TIP3    H263126   6.712   0.556   3.838  0.3289 -0.4266 -0.7149
13879TIP3   OH263127   6.368   1.839  12.738  0.1143 -0.2170 -0.3695
13879TIP3    H163128   6.437   1.786  12.780 -0.6661 -0.4407  0.6762
13879TIP3    H263129   6.405   1.863  12.653  0.7670 -1.8507 -0.5794
13880TIP3   OH263130   6.740   0.828  15.001 -0.1437 -0.0361  0.2913
13880TIP3    H163131   6.827   0.866  15.014 -0.4275  0.7935 -0.1403
13880TIP3    H263132   6.753   0.734  15.008  1.1734 -0.0728 -1.8910
13881TIP3   OH263133   0.194   4.519  16.852  0.3993  0.0394  0.1693
13881TIP3    H163134   0.153   4.589  16.801  0.3576  0.6818  1.0576
13881TIP3    H263135   0.121   4.462  16.877  0.3307  0.0788  0.0617
13882TIP3   OH263136   6.329   3.058  17.311  0.2301 -0.7563 -0.4030
13882TIP3    H163137   6.262   3.127  17.310  1.8005  0.8417 -0.5648
13882TIP3    H263138   6.379   3.072  17.231  0.6976 -2.0120 -0.3495
13883TIP3   OH263139   3.575   2.904   3.158  0.2164 -0.5653 -0.3906
13883TIP3    H163140   3.550   2.860   3.239  0.1026 -1.6394 -0.9928
13883TIP3    H263141   3.494   2.909   3.107  0.5977 -1.3554 -1.0998
13884TIP3   OH263142   0.988   0.164   4.916 -0.2278 -0.0981  0.2838
13884TIP3    H163143   0.914   0.178   4.857  0.6629  1.8298 -0.4537
13884TIP3    H263144   1.027   0.082   4.886 -0.0591  0.6047 -1.5533
13885TIP3   OH263145   3.526   0.275  13.347 -0.3322  0.8802 -0.2658
13885TIP3    H163146   3.478   0.275  13.430  0.0351  0.2364 -0.0369
13885TIP3    H263147   3.609   0.232  13.369  0.2235  1.6943 -0.7161
13886TIP3   OH263148   5.987   4.476  12.475  0.1344  0.4047 -0.2423
13886TIP3    H163149   6.007   4.441  12.562  2.3145  1.1455 -0.3883
13886TIP3    H263150   5.957   4.565  12.491 -0.2800  0.2648 -0.2165
13887TIP3   OH263151   5.466   4.702   6.632 -0.5644  0.1971  0.5221
13887TIP3    H163152   5.552   4.662   6.645 -0.3391  0.1339 -1.0352
13887TIP3    H263153   5.408   4.655   6.692  0.2246 -0.6572  0.6263
13888TIP3   OH263154   3.101   2.066   5.535 -0.1055  0.0612  0.0199
13888TIP3    H163155   3.190   2.033   5.521  1.4156  2.9930  1.8221
13888TIP3    H263156   3.087   2.128   5.464 -0.6900 -0.3215 -0.2053
13889TIP3   OH263157   6.068   0.001  11.777  0.4017 -0.2332 -0.0149
13889TIP3    H163158   6.055  -0.022  11.685 -0.4449 -4.1376  0.8914
13889TIP3    H263159   5.980   0.018  11.810  0.6503  0.6397  0.2343
13890TIP3   OH263160   0.619   2.773   1.551 -0.6169  0.2985 -0.4146
13890TIP3    H163161   0.557   2.778   1.478  2.2815  0.3254 -3.1102
13890TIP3    H263162   0.665   2.690   1.537 -0.8014 -0.3399  2.2249
13891TIP3   OH263163   4.902   6.452  14.162 -0.4761 -0.0599  0.4743
13891TIP3    H163164   4.910   6.494  14.076  0.6250 -0.1669  0.5058
13891TIP3    H263165   4.939   6.516  14.223 -0.4564 -0.3370  0.7538
13892TIP3   OH263166   2.820   3.984  10.898 -0.2867  0.2352  0.1818
13892TIP3    H163167   2.887   3.996  10.965  0.7066 -0.8546 -0.5845
13892TIP3    H263168   2.780   4.071  10.888  1.6644  1.1536 -0.0241
13893TIP3   OH263169   6.605   6.059  15.281  0.0536 -0.0565 -0.6229
13893TIP3    H163170   6.544   5.992  15.312 -0.2637  0.2297 -0.6191
13893TIP3    H263171   6.557   6.105  15.212 -0.6393  1.6650  0.9008
13894TIP3   OH263172   4.588   2.915  15.471 -0.4185  0.5096  0.1451
13894TIP3    H163173   4.668   2.944  15.515  0.3373 -0.4562 -0.5452
13894TIP3    H263174   4.545   2.996  15.443 -0.6478  1.1360  2.1386
13895TIP3   OH263175   0.682   6.156  11.412  0.1957 -0.1476 -0.0499
13895TIP3    H163176   0.726   6.237  11.389 -1.4269  1.0040  0.6957
13895TIP3    H263177   0.730   6.088  11.365  2.5645  1.0241  0.5159
13896TIP3   OH263178   5.454   4.957   5.535 -0.2454  0.6748  0.3103
13896TIP3    H163179   5.459   4.878   5.480  0.1361  1.5786 -0.9865
13896TIP3    H263180   5.538   4.957   5.582  0.7425  1.4555 -1.3533
13897TIP3   OH263181   5.152   0.974  11.530 -0.4058  0.5179  0.2327
13897TIP3    H163182   5.077   0.983  11.589 -1.3883 -0.1746 -0.8617
13897TIP3    H263183   5.205   1.052  11.547 -0.6997  0.3878  1.9443
13898TIP3   OH263184   3.509   3.833   4.504  0.0806 -0.2733 -0.3625
13898TIP3    H163185   3.485   3.741   4.488 -0.0931 -0.0985 -1.1235
13898TIP3    H263186   3.603   3.830   4.521 -0.1599 -0.7662  1.0850
13899TIP3   OH263187   4.210   3.468  14.041  0.0086 -0.1484 -0.6336
13899TIP3    H163188   4.137   3.524  14.068  0.0128 -0.9100  1.1061
13899TIP3    H263189   4.267   3.526  13.991 -0.0933  1.3662  0.9137
13900TIP3   OH263190   2.168   1.328   0.791  0.3579 -0.1519 -0.0461
13900TIP3    H163191   2.108   1.401   0.807 -2.2101 -2.3613  1.0157
13900TIP3    H263192   2.166   1.315   0.697  1.5654  1.6518 -0.3657
13901TIP3   OH263193   6.727   3.860  13.956 -0.3304  0.6503  0.7058
13901TIP3    H163194   6.681   3.905  13.884 -0.3922 -0.2074  0.1938
13901TIP3    H263195   6.820   3.871  13.936 -0.3566 -0.3841 -0.0191
13902TIP3   OH263196   0.988   4.422  15.351  0.5156 -0.2194  0.0060
13902TIP3    H163197   1.005   4.369  15.273  1.8579  0.5957 -0.2719
13902TIP3    H263198   0.973   4.510  15.318  1.3653  0.1901  0.6736
13903TIP3   OH263199   3.246   0.263   3.898 -0.2977  0.3182 -0.0643
13903TIP3    H163200   3.331   0.257   3.855 -0.4258  1.0849 -0.4422
13903TIP3    H263201   3.243   0.352   3.933  0.0207 -0.4262  2.0184
13904TIP3   OH263202   1.316   1.846   0.476 -0.3006 -0.0744 -0.5751
13904TIP3    H163203   1.341   1.780   0.540 -0.0169  0.0285 -0.5771
13904TIP3    H263204   1.337   1.807   0.391  0.3195  0.1944 -0.5587
13905TIP3   OH263205   1.052   3.912  16.541  0.3666  0.0488  0.0501
13905TIP3    H163206   0.993   3.848  16.501  0.0201  0.8469 -0.7507
13905TIP3    H263207   1.104   3.861  16.603 -1.3532 -0.6497  1.0055
13906TIP3   OH263208   0.012   0.561  16.181  0.3434  0.0840 -0.3016
13906TIP3    H163209   0.000   0.478  16.136 -0.5908  0.7236 -1.3068
13906TIP3    H263210   0.079   0.544  16.247  1.2129 -1.0883 -1.4305
13907TIP3   OH263211   2.666   4.464   2.296  0.1663 -0.2086  0.8018
13907TIP3    H163212   2.624   4.378   2.300 -0.2201  0.0080  1.5507
13907TIP3    H263213   2.623   4.507   2.222 -1.0156  0.0417  1.6078
13908TIP3   OH263214   4.011   5.946   5.404 -1.0936 -0.2673  0.2749
13908TIP3    H163215   3.934   5.890   5.408 -1.3865  0.0948 -0.2810
13908TIP3    H263216   4.080   5.890   5.369 -2.1527  0.5093 -3.4343
13909TIP3   OH263217   6.723   1.939  17.506  0.2193 -0.3190 -0.0876
13909TIP3    H163218   6.760   1.921  17.592 -0.5718  1.1015  0.5856
13909TIP3    H263219   6.790   1.992  17.462  1.0634 -1.8718 -0.7798
13910TIP3   OH263220   4.429   5.158   0.903 -0.2952  0.0581  0.1509
13910TIP3    H163221   4.461   5.079   0.859  0.9498 -2.4746  4.9112
13910TIP3    H263222   4.469   5.230   0.855  2.1532 -2.4272 -1.8902
13911TIP3   OH263223   0.076   4.336   5.341  0.0620  0.7143  0.6684
13911TIP3    H163224   0.143   4.381   5.290  0.5576 -0.5420  0.1490
13911TIP3    H263225   0.020   4.296   5.275 -0.3948  0.6204  1.1103
13912TIP3   OH263226   2.786   3.055   3.648 -0.4523  0.2905 -0.0183
13912TIP3    H163227   2.764   2.991   3.581  0.6156 -0.5730  0.4258
13912TIP3    H263228   2.710   3.058   3.705 -0.3503 -0.9225  0.2060
13913TIP3   OH263229   0.710   3.360  16.671 -0.6861  0.6572 -0.6257
13913TIP3    H163230   0.713   3.328  16.581  0.7081  0.8007 -0.6496
13913TIP3    H263231   0.796   3.399  16.685 -0.5902 -0.0633  1.0154
13914TIP3   OH263232   5.015   4.336   3.094 -0.2812  0.2244  0.1661
13914TIP3    H163233   5.049   4.286   3.168 -0.9134 -0.9111 -0.2905
13914TIP3    H263234   5.049   4.290   3.017 -2.0337 -0.3887 -0.2877
13915TIP3   OH263235   4.543   3.253  13.185  0.1266  0.1663  0.2184
13915TIP3    H163236   4.503   3.289  13.265  1.5658  1.8924  0.2301
13915TIP3    H263237   4.546   3.326  13.124 -0.2541 -0.9348 -1.1703
13916TIP3   OH263238   3.941   2.924   4.697 -0.4645  0.2908 -0.1059
13916TIP3    H163239   3.962   2.922   4.604 -0.0345  0.5648 -0.0185
13916TIP3    H263240   4.025   2.911   4.741 -0.7390 -0.3458  0.2430
13917TIP3   OH263241   3.566   2.727  16.808  0.2528 -0.4654 -0.1506
13917TIP3    H163242   3.564   2.809  16.857 -1.9595 -1.9404  2.4832
13917TIP3    H263243   3.540   2.751  16.719 -3.2386  1.4074  1.1941
13918TIP3   OH263244   1.991   6.226   1.635  0.1472  0.7551 -0.2799
13918TIP3    H163245   2.067   6.285   1.634  0.1546  0.7445 -1.0746
13918TIP3    H263246   1.997   6.181   1.718  1.8651 -0.3250 -0.9434
13919TIP3   OH263247   3.888   6.021   1.140 -0.2179  0.3503  0.4977
13919TIP3    H163248   3.926   5.971   1.213 -0.2204  0.7772  0.7953
13919TIP3    H263249   3.951   6.091   1.124 -0.1676  0.1981  0.0186
13920TIP3   OH263250   1.123   3.875  15.827  0.0651 -0.0208 -0.2305
13920TIP3    H163251   1.175   3.941  15.780 -0.4109  1.1375  0.7972
13920TIP3    H263252   1.171   3.859  15.907  0.7291 -1.7813 -0.9460
13921TIP3   OH263253   0.821   5.310   1.824  0.5474 -0.2424  0.1357
13921TIP3    H163254   0.743   5.284   1.873  0.6833 -0.8087  0.0586
13921TIP3    H263255   0.856   5.386   1.872 -0.8045  0.8982 -0.5991
13922TIP3   OH263256   0.510   4.406  12.790 -0.6261  1.2524 -0.0481
13922TIP3    H163257   0.490   4.486  12.839  0.6191  1.6528 -0.1768
13922TIP3    H263258   0.547   4.438  12.708 -1.4000  0.5540 -0.6811
13923TIP3   OH263259   1.458   3.716  15.300 -0.1995  0.2394  0.2859
13923TIP3    H163260   1.387   3.653  15.310  0.0086  0.0979  0.9212
13923TIP3    H263261   1.536   3.671  15.333  0.6483 -0.4024 -2.3649
13924TIP3   OH263262   6.269   6.063   4.903 -0.1027 -0.3112  0.0019
13924TIP3    H163263   6.253   6.070   4.997 -1.3270 -2.1043 -0.0249
13924TIP3    H263264   6.288   6.153   4.876  2.2711 -0.0116  2.2526
13925TIP3   OH263265   5.151   2.274  11.977 -0.0866 -0.0725  0.0730
13925TIP3    H163266   5.087   2.239  12.040  0.2219 -2.3568 -0.7783
13925TIP3    H263267   5.234   2.233  12.002  0.1535 -0.5711 -1.4385
13926TIP3   OH263268   6.382   2.061  11.846 -0.5044  0.1289  0.2890
13926TIP3    H163269   6.398   1.996  11.778 -2.1342 -1.2017  1.0949
13926TIP3    H263270   6.297   2.099  11.824  0.4439  2.1170 -0.2039
13927TIP3   OH263271   1.158   0.950  13.437  0.1225  0.0249 -0.4761
13927TIP3    H163272   1.182   1.037  13.404  0.5221  0.1953  0.2567
13927TIP3    H263273   1.184   0.891  13.366 -0.5069  0.5272 -1.1452
13928TIP3   OH263274   0.984   2.327  12.832 -0.2151 -0.0217  0.4680
13928TIP3    H163275   1.073   2.298  12.852  0.1736  1.2328  0.6357
13928TIP3    H263276   0.929   2.281  12.896  0.6267  1.2156  2.1765
13929TIP3   OH263277   1.891   6.175  14.359 -0.4411  0.5177  0.0123
13929TIP3    H163278   1.856   6.091  14.387  0.9461 -0.4038 -0.9187
13929TIP3    H263279   1.845   6.194  14.277  1.6461 -1.0834 -1.6420
13930TIP3   OH263280   0.069   4.253  16.696  0.5666  0.0388 -0.0058
13930TIP3    H163281   0.002   4.279  16.760  0.3683  0.1647 -0.2595
13930TIP3    H263282   0.140   4.216  16.748  0.2678 -0.1548  0.2613
13931TIP3   OH263283   2.882   4.102  16.103  0.3826  0.1989  0.3702
13931TIP3    H163284   2.845   4.073  16.187  0.7809 -0.4349  0.3349
13931TIP3    H263285   2.884   4.024  16.049  1.2990  0.3294  0.1991
13932TIP3   OH263286   6.605   3.056  12.526  0.2589  0.1827  0.0344
13932TIP3    H163287   6.669   3.005  12.576  0.4602  1.4517  1.1107
13932TIP3    H263288   6.521   3.015  12.547  0.6379 -1.1934 -1.0148
13933TIP3   OH263289   6.002   3.799  10.786  0.3575 -0.2093 -0.6463
13933TIP3    H163290   5.957   3.785  10.702  0.2485 -1.9845 -0.3253
13933TIP3    H263291   6.091   3.767  10.770  0.9403  1.3423 -0.6571
13934TIP3   OH263292   6.103   2.958   1.815  0.0254 -0.3745  0.4513
13934TIP3    H163293   6.075   3.035   1.765  0.1148 -0.1251  0.7776
13934TIP3    H263294   6.166   2.993   1.878  0.3846 -0.7842  0.3221
13935TIP3   OH263295   3.018   0.408   4.115 -0.0625  0.0026  0.5202
13935TIP3    H163296   2.959   0.340   4.147 -0.3546 -0.4087 -0.8116
13935TIP3    H263297   2.990   0.423   4.024  1.9421 -0.2981 -0.2000
13936TIP3   OH263298   4.489   2.958  16.163  0.1928 -0.3294  0.4280
13936TIP3    H163299   4.489   2.928  16.254  1.4802 -2.0440 -0.0947
13936TIP3    H263300   4.403   2.932  16.130 -0.3274  0.4014  1.1539
13937TIP3   OH263301   4.379   6.586  14.576  0.0651  0.6140  0.6741
13937TIP3    H163302   4.455   6.592  14.635  0.8599  0.3823 -0.3045
13937TIP3    H263303   4.332   6.509  14.607  1.2583 -0.3718  0.1477
13938TIP3   OH263304   0.137   6.203   2.991 -0.1490  0.2517 -0.6211
13938TIP3    H163305   0.167   6.198   2.900 -0.0584  2.2694 -0.7464
13938TIP3    H263306   0.095   6.289   2.998 -1.7891 -0.5965  0.7847
13939TIP3   OH263307   2.789   5.743  15.052  0.0314  0.7500  0.0558
13939TIP3    H163308   2.720   5.723  15.116  0.6138 -0.7009  0.2651
13939TIP3    H263309   2.750   5.720  14.968  1.1904 -3.1501  0.3895
13940TIP3   OH263310   4.685   6.411  15.306 -0.0156 -0.7737 -0.0994
13940TIP3    H163311   4.627   6.419  15.231  1.0617 -0.2666 -0.8990
13940TIP3    H263312   4.625   6.402  15.381 -1.1156 -0.3637 -0.8960
13941TIP3   OH263313   1.512   5.760   1.936 -0.0322 -0.8144  0.0245
13941TIP3    H163314   1.443   5.732   1.996  1.0714 -1.1847  1.1624
13941TIP3    H263315   1.466   5.776   1.853 -1.8994  1.4590  1.3823
13942TIP3   OH263316   0.203   5.643   3.093 -0.3259  0.8669 -0.4788
13942TIP3    H163317   0.175   5.683   3.175  0.0474  1.5818 -0.6804
13942TIP3    H263318   0.250   5.714   3.048  0.9928 -0.0157 -0.5442
13943TIP3   OH263319   2.790   1.151  12.254  0.1647 -0.7539 -0.1035
13943TIP3    H163320   2.705   1.183  12.225  0.8671 -0.4667 -2.0216
13943TIP3    H263321   2.819   1.215  12.318 -0.4376 -0.0394 -0.5247
13944TIP3   OH263322   3.779   1.892  12.180 -1.0241  0.0539  0.1990
13944TIP3    H163323   3.794   1.982  12.211  1.3254 -0.7507  1.7162
13944TIP3    H263324   3.792   1.838  12.258  2.8283 -1.9610 -1.5739
13945TIP3   OH263325   1.500   2.649   4.529 -0.1264  0.0851  0.0577
13945TIP3    H163326   1.503   2.745   4.526 -0.1676  0.2299  2.7435
13945TIP3    H263327   1.436   2.629   4.596  0.6757 -1.8209  0.3101
13946TIP3   OH263328   4.541   6.730  17.184  0.1998  0.4740  0.1535
13946TIP3    H163329   4.584   6.644  17.183 -0.5279  0.1074 -0.4690
13946TIP3    H263330   4.591   6.781  17.247  0.6082 -0.4267  0.5729
13947TIP3   OH263331   1.392   5.612   5.973  0.2829 -0.2255 -0.6359
13947TIP3    H163332   1.305   5.652   5.966 -1.1240 -2.9411 -0.0238
13947TIP3    H263333   1.445   5.678   6.018 -1.0003  2.0904 -2.2561
13948TIP3   OH263334   3.251   0.618  11.371 -0.2025  0.4800  0.3700
13948TIP3    H163335   3.179   0.581  11.320 -1.1252  0.7017  1.4666
13948TIP3    H263336   3.209   0.656  11.448  1.1292  0.3080  1.2165
13949TIP3   OH263337   3.750   3.465  13.221  0.0536  0.0967 -0.0675
13949TIP3    H163338   3.798   3.545  13.239 -0.1001  0.1625  0.0469
13949TIP3    H263339   3.780   3.438  13.134 -0.8988  1.0126 -0.6985
13950TIP3   OH263340   1.931   0.175   4.378 -0.0130  0.3672 -0.7090
13950TIP3    H163341   1.845   0.146   4.349 -0.6000  1.7737 -0.4544
13950TIP3    H263342   1.980   0.095   4.393 -1.2674 -0.4529 -0.8928
13951TIP3   OH263343   0.306   0.852   4.913 -0.2651 -0.0042 -0.7639
13951TIP3    H163344   0.270   0.806   4.837  1.4984 -2.6823 -0.1010
13951TIP3    H263345   0.336   0.783   4.971  0.0127  1.9991  1.6412
13952TIP3   OH263346   5.745   3.960  10.272 -0.4168 -0.9648 -0.3077
13952TIP3    H163347   5.800   3.883  10.260  4.3933  1.8536  0.8106
13952TIP3    H263348   5.729   3.963  10.367 -0.4807 -0.5393 -0.3311
13953TIP3   OH263349   2.279   0.094   2.372 -0.3928 -0.2940  0.4649
13953TIP3    H163350   2.325   0.165   2.328 -0.4843  0.2375  1.2109
13953TIP3    H263351   2.187   0.107   2.348 -0.4991  0.2493  1.1433
13954TIP3   OH263352   3.851   1.324   4.217 -0.1432  0.0055 -0.5708
13954TIP3    H163353   3.874   1.296   4.305 -0.6549 -0.0531 -0.4513
13954TIP3    H263354   3.833   1.243   4.169 -1.4640  0.1004 -0.2694
13955TIP3   OH263355   1.458   6.234   1.782 -0.0827 -0.0348 -0.2176
13955TIP3    H163356   1.515   6.306   1.810 -1.1621  0.8870 -0.3391
13955TIP3    H263357   1.387   6.277   1.734 -1.6140 -1.0320  1.0900
13956TIP3   OH263358   3.029   1.332   5.840  0.2586  0.1011  0.0396
13956TIP3    H163359   2.956   1.278   5.870  0.9563 -0.4778  0.7284
13956TIP3    H263360   3.069   1.366   5.920 -0.4093  2.0030 -0.3894
13957TIP3   OH263361   1.106   5.303   6.144 -0.3583 -0.5098 -0.2688
13957TIP3    H163362   1.148   5.262   6.220  1.5375 -1.5288 -1.7658
13957TIP3    H263363   1.177   5.315   6.082 -1.8583  0.2672 -1.9050
13958TIP3   OH263364   2.208   1.797   4.301 -0.1922  0.2999 -0.0312
13958TIP3    H163365   2.141   1.767   4.239  0.0508  0.1548 -0.2287
13958TIP3    H263366   2.256   1.864   4.253  0.0713  0.1047 -0.0417
13959TIP3   OH263367   3.663   4.748   1.744  0.1189 -0.1666  0.0260
13959TIP3    H163368   3.692   4.716   1.658 -3.3610 -1.2053 -0.9088
13959TIP3    H263369   3.664   4.671   1.800 -0.5708 -0.1738  0.0336
13960TIP3   OH263370   0.456   6.019  17.204  0.4057 -0.4583 -0.1002
13960TIP3    H163371   0.385   6.052  17.149 -0.6267 -0.5363  1.1477
13960TIP3    H263372   0.442   5.924  17.207 -0.2371 -0.3403  1.2008
13961TIP3   OH263373   5.699   0.760   2.264 -0.8615  0.5288  0.4348
13961TIP3    H163374   5.754   0.694   2.305  0.1248  0.4448 -0.9692
13961TIP3    H263375   5.704   0.835   2.324  0.8633  0.5491  0.3118
13962TIP3   OH263376   1.633   5.639   4.063  0.2293 -0.0668 -0.3042
13962TIP3    H163377   1.629   5.681   4.149  0.0027 -1.2740  0.2921
13962TIP3    H263378   1.623   5.711   4.001  1.8845  1.0416  0.6327
13963TIP3   OH263379   6.374   0.481  14.237  0.2794  0.1920 -0.8237
13963TIP3    H163380   6.414   0.563  14.264 -2.4146  0.8910  1.5706
13963TIP3    H263381   6.393   0.420  14.309 -2.7135  0.5641  0.4202
13964TIP3   OH263382   2.958   4.874  11.831 -0.2480  0.1901  0.3469
13964TIP3    H163383   2.925   4.840  11.914  1.1049  0.9028  1.2142
13964TIP3    H263384   3.000   4.957  11.854  0.9512 -0.0287 -0.8907
13965TIP3   OH263385   5.530   0.451   6.305  1.2971 -0.6976  0.4978
13965TIP3    H163386   5.611   0.400   6.295  0.9059 -1.2187 -0.1010
13965TIP3    H263387   5.465   0.387   6.335  1.0444 -0.3335  0.7320
13966TIP3   OH263388   6.439   1.672  11.018 -0.3564  0.1387 -0.1270
13966TIP3    H163389   6.360   1.622  11.000 -0.7746  0.9935 -0.7646
13966TIP3    H263390   6.406   1.757  11.048  0.3267 -0.2121  1.7678
13967TIP3   OH263391   5.278   3.900  11.714  0.0210 -0.2612  0.0165
13967TIP3    H163392   5.260   3.819  11.666  2.6686  1.8273 -5.3461
13967TIP3    H263393   5.192   3.940  11.728 -1.0954 -2.4310 -0.1976
13968TIP3   OH263394   4.024   0.708   3.449 -0.2990  0.3066  0.0836
13968TIP3    H163395   4.067   0.783   3.491  0.7048 -0.5613  0.6620
13968TIP3    H263396   4.063   0.632   3.491 -0.2867 -0.5756 -1.4775
13969TIP3   OH263397   6.380   5.400   4.786  0.0628  0.8949  0.2346
13969TIP3    H163398   6.424   5.330   4.835  1.0264  1.1356 -0.2690
13969TIP3    H263399   6.425   5.480   4.814  0.4397  1.0650 -0.8179
13970TIP3   OH263400   6.494   6.646   5.942  0.2160 -0.2585  0.2654
13970TIP3    H163401   6.572   6.684   5.902 -0.0171 -0.1951 -0.1305
13970TIP3    H263402   6.447   6.604   5.870 -0.1740 -0.1989  0.4808
13971TIP3   OH263403   4.521   0.930  17.098 -0.0748  0.4392 -0.3326
13971TIP3    H163404   4.582   0.968  17.035 -1.2178 -0.0468 -1.8178
13971TIP3    H263405   4.571   0.864  17.145  1.2697  2.0077  0.5335
13972TIP3   OH263406   4.585   0.699  14.248  0.2930  0.1236 -0.6020
13972TIP3    H163407   4.503   0.697  14.197 -0.7224 -0.7707  0.9595
13972TIP3    H263408   4.556   0.693  14.339  2.0692  1.1264  0.0718
13973TIP3   OH263409   4.939   2.340   3.613  0.2006 -0.2579  0.7344
13973TIP3    H163410   4.880   2.276   3.651 -1.3195 -0.5808 -1.9155
13973TIP3    H263411   4.883   2.413   3.587  1.3546  0.5748  0.4831
13974TIP3   OH263412   3.027   3.872   5.885  0.1365 -0.1859 -0.2650
13974TIP3    H163413   2.982   3.794   5.916 -2.4270 -0.2136 -3.4990
13974TIP3    H263414   2.988   3.890   5.799  1.8755  3.6293 -0.4758
13975TIP3   OH263415   2.654   6.716  13.416 -0.1775  1.1294  0.0185
13975TIP3    H163416   2.733   6.731  13.468  0.1667 -0.2898 -0.0444
13975TIP3    H263417   2.686   6.701  13.327 -0.1493 -2.4774  0.4978
13976TIP3   OH263418   6.313   3.452  12.151 -0.4048 -0.2141 -0.3482
13976TIP3    H163419   6.281   3.517  12.088  0.1787 -1.1448 -1.6366
13976TIP3    H263420   6.237   3.436  12.208 -0.3199  2.1989  0.5736
13977TIP3   OH263421   0.664   2.841  11.147  0.7176  0.2728  0.2010
13977TIP3    H163422   0.703   2.899  11.081  0.0069 -0.2430 -0.6948
13977TIP3    H263423   0.572   2.835  11.122  0.6023 -0.5306  0.8048
13978TIP3   OH263424   2.495   0.922   0.800 -0.3321 -0.7153  0.1288
13978TIP3    H163425   2.541   0.975   0.865 -2.0043  1.1190 -0.1019
13978TIP3    H263426   2.454   0.852   0.851  1.5520 -1.6044  0.4947
13979TIP3   OH263427   6.636   0.021  17.502 -0.2632  0.1811  0.1494
13979TIP3    H163428   6.717  -0.023  17.476 -0.1834  0.6202 -0.3547
13979TIP3    H263429   6.567  -0.026  17.455 -0.0882  1.1898 -1.1794
13980TIP3   OH263430   1.866   3.345  16.819 -0.0816  0.5161  0.1210
13980TIP3    H163431   1.915   3.263  16.818  3.2806  2.3113 -2.3983
13980TIP3    H263432   1.817   3.345  16.737 -0.0083  1.0509  0.0731
13981TIP3   OH263433   2.643   0.316  10.562 -0.2183  0.6232 -0.0893
13981TIP3    H163434   2.576   0.342  10.499 -1.7871 -3.1599 -0.2562
13981TIP3    H263435   2.707   0.267  10.510 -0.1857 -0.3526  0.8249
13982TIP3   OH263436   6.345   6.303  12.146 -0.0150  0.1366 -0.3977
13982TIP3    H163437   6.291   6.382  12.141 -1.2972 -0.4272  2.6750
13982TIP3    H263438   6.422   6.331  12.196 -0.1976 -0.4007  0.1894
13983TIP3   OH263439   2.325   4.804  10.803 -0.1647 -0.7335  0.3744
13983TIP3    H163440   2.420   4.794  10.807 -0.0149 -0.1848 -1.1787
13983TIP3    H263441   2.304   4.796  10.710 -1.8362 -2.4651  0.8397
13984TIP3   OH263442   4.042   4.641  14.837 -0.1935  0.4096 -0.6793
13984TIP3    H163443   4.091   4.560  14.852 -0.2518  0.5499  0.2866
13984TIP3    H263444   4.039   4.649  14.742 -0.5116 -0.9276 -0.8072
13985TIP3   OH263445   6.325   0.019   1.419 -0.0893  0.2076  0.1600
13985TIP3    H163446   6.366  -0.004   1.335  1.3758 -1.6383  1.2886
13985TIP3    H263447   6.398   0.041   1.476 -1.0261  0.9795  1.0941
13986TIP3   OH263448   5.263   0.214   0.813  0.3211  0.2245  0.2132
13986TIP3    H163449   5.203   0.238   0.742 -0.8906  0.4949  1.2845
13986TIP3    H263450   5.348   0.202   0.770  0.2850  3.1002 -0.9123
13987TIP3   OH263451   4.106   1.838  14.058  0.0253 -0.2402  0.2178
13987TIP3    H163452   4.185   1.805  14.014 -0.3192  0.9670 -1.4366
13987TIP3    H263453   4.134   1.855  14.148  1.2507 -1.1739  0.0501
13988TIP3   OH263454   4.336   1.104  17.101  0.5541 -0.1909 -0.7632
13988TIP3    H163455   4.391   1.026  17.096  0.1292 -0.4839 -0.9823
13988TIP3    H263456   4.353   1.141  17.187  0.2599 -0.9062 -0.3871
13989TIP3   OH263457   0.418   2.389  15.347 -0.3087 -0.0446  0.1954
13989TIP3    H163458   0.363   2.380  15.424  0.9525 -1.3517  0.9840
13989TIP3    H263459   0.479   2.316  15.351 -0.3672 -0.3199 -2.1980
13990TIP3   OH263460   0.582   1.363   1.012 -0.3554  0.4962 -0.3631
13990TIP3    H163461   0.627   1.334   0.933 -0.1674 -0.9220  0.2463
13990TIP3    H263462   0.492   1.333   1.000 -0.6207  1.3238 -0.5492
13991TIP3   OH263463   6.478   5.716  13.472  0.1670 -0.1712 -0.1190
13991TIP3    H163464   6.557   5.755  13.434  0.2916 -0.4596 -0.1603
13991TIP3    H263465   6.502   5.700  13.564  0.3984 -0.8942 -0.2972
13992TIP3   OH263466   5.071   0.990  14.312 -1.0241 -0.4855 -0.0902
13992TIP3    H163467   5.014   1.066  14.323  0.3006  0.7380 -1.2438
13992TIP3    H263468   5.097   0.966  14.401 -0.3558  1.3177  0.2504
13993TIP3   OH263469   3.576   2.489  13.797 -0.3175  0.1091 -0.0583
13993TIP3    H163470   3.600   2.452  13.712 -0.8111 -0.3006 -0.0258
13993TIP3    H263471   3.480   2.498  13.792 -0.3259  0.2518  0.3839
13994TIP3   OH263472   2.130   5.195   6.029  0.8333  0.1346  0.8386
13994TIP3    H163473   2.106   5.109   5.994  0.9933 -0.0031  1.0658
13994TIP3    H263474   2.178   5.175   6.109  1.2937  0.4275  0.6351
13995TIP3   OH263475   1.635   4.087   4.686 -0.2596 -0.1088  0.1618
13995TIP3    H163476   1.572   4.158   4.692 -1.1023 -0.9386  1.6027
13995TIP3    H263477   1.717   4.124   4.720 -0.6190  0.2437  0.6435
13996TIP3   OH263478   4.784   2.974   2.865 -0.0718 -0.2168 -0.0390
13996TIP3    H163479   4.717   2.905   2.870 -0.0742 -0.2010  0.1688
13996TIP3    H263480   4.745   3.042   2.810 -0.8258  0.4511  1.2792
13997TIP3   OH263481   0.893   2.508   2.406 -0.5294  0.4971  0.9663
13997TIP3    H163482   0.912   2.489   2.497 -0.8871 -2.2023  0.5422
13997TIP3    H263483   0.830   2.441   2.379  1.0816 -0.0927 -1.7899
13998TIP3   OH263484   2.444   5.901   2.906  0.4466 -0.0348  0.1639
13998TIP3    H163485   2.530   5.890   2.866  0.1871  0.4141 -0.5261
13998TIP3    H263486   2.389   5.938   2.837 -0.3947 -0.6322  0.4888
13999TIP3   OH263487   4.251   0.444  13.107 -0.1361 -0.3647 -0.1316
13999TIP3    H163488   4.286   0.371  13.159  1.0997  0.0431 -0.3685
13999TIP3    H263489   4.316   0.513  13.115 -1.8802  1.2492  1.1737
14000TIP3   OH263490   2.948   1.736  15.463 -0.3007  0.2405  0.1886
14000TIP3    H163491   2.869   1.789  15.447 -0.3007  0.2802  0.3206
14000TIP3    H263492   2.999   1.745  15.382 -0.3799  0.3052  0.1448
14001TIP3   OH263493   4.875   4.217  11.616 -0.1490  0.4848 -0.1075
14001TIP3    H163494   4.782   4.208  11.597  0.1848  0.9452 -2.1231
14001TIP3    H263495   4.918   4.220  11.531  1.7729 -0.1346  0.7696
14002TIP3   OH263496   4.486   2.759  12.259 -0.0793  0.3539 -0.0550
14002TIP3    H163497   4.437   2.702  12.200  0.7264  1.5833 -2.0242
14002TIP3    H263498   4.480   2.846  12.219  2.0221  0.8982  0.6728
14003TIP3   OH263499   2.389   5.588   6.443 -0.2379 -0.0949  0.0804
14003TIP3    H163500   2.459   5.611   6.382  0.0047  0.0139  0.3942
14003TIP3    H263501   2.374   5.669   6.492 -1.3462  0.2117 -0.7234
14004TIP3   OH263502   1.497   4.158   2.234  0.0909 -0.5317 -0.1034
14004TIP3    H163503   1.571   4.127   2.182 -0.1414 -1.8403  0.3197
14004TIP3    H263504   1.535   4.177   2.320 -0.0749 -1.3829  0.1706
14005TIP3   OH263505   3.589   0.407  16.655 -0.1549 -0.4207  0.2155
14005TIP3    H163506   3.668   0.367  16.620  0.1035 -0.1305  0.4556
14005TIP3    H263507   3.582   0.491  16.609 -1.7811 -1.5607 -1.7366
14006TIP3   OH263508   0.800   0.832   0.663  0.1010 -0.3212 -0.5353
14006TIP3    H163509   0.727   0.892   0.680 -0.1673 -1.2618  2.1712
14006TIP3    H263510   0.759   0.756   0.622 -0.5008 -0.8186  0.9127
14007TIP3   OH263511   0.130   6.592  17.413  0.0735 -0.1327 -0.0967
14007TIP3    H163512   0.195   6.558  17.474 -0.2739 -2.2792 -0.8339
14007TIP3    H263513   0.180   6.614  17.334  0.2673  0.9528  0.3071
14008TIP3   OH263514   0.459   2.516  12.005  0.0513 -0.0426 -0.0869
14008TIP3    H163515   0.434   2.609  12.008 -2.9369 -0.7755  2.0222
14008TIP3    H263516   0.397   2.476  11.943  1.5721 -0.6384 -1.2932
14009TIP3   OH263517   3.956   0.627   3.071 -0.0525 -0.2714 -0.3980
14009TIP3    H163518   3.885   0.684   3.099  0.9477  0.0250  1.7287
14009TIP3    H263519   4.002   0.677   3.004  1.2925  1.8869  1.9847
14010TIP3   OH263520   0.706   0.133   0.299 -0.5529 -0.3614  0.1613
14010TIP3    H163521   0.659   0.169   0.224  0.0042 -0.8985 -0.4560
14010TIP3    H263522   0.670   0.045   0.310  0.4873 -0.8918 -0.5055
14011TIP3   OH263523   6.347   1.762  13.310  0.2118  0.4610  0.4762
14011TIP3    H163524   6.335   1.797  13.222  0.8672 -0.9720 -0.2132
14011TIP3    H263525   6.413   1.693  13.300 -2.2049 -2.1565  1.4317
14012TIP3   OH263526   0.584   3.120   0.029  0.5662 -0.0910  0.1933
14012TIP3    H163527   0.590   3.069   0.110  0.4166  0.7109  0.7201
14012TIP3    H263528   0.666   3.103  -0.016  0.8480 -0.1907  0.7345
14013TIP3   OH263529   0.259   4.933   0.685 -0.1617 -0.5145 -0.5208
14013TIP3    H163530   0.324   4.921   0.616  1.4132 -1.5419  1.0627
14013TIP3    H263531   0.293   4.884   0.759 -1.2590  1.3658  1.3466
14014TIP3   OH263532   1.019   1.829  14.568  0.0978 -0.0982 -0.1091
14014TIP3    H163533   1.030   1.774  14.490  0.2469 -0.6798  0.3106
14014TIP3    H263534   1.046   1.773  14.640  0.0744  0.4761  0.3523
14015TIP3   OH263535   3.154   2.991  12.037 -0.2557  0.3735 -0.2741
14015TIP3    H163536   3.226   2.933  12.008 -0.8435  0.3845 -1.8802
14015TIP3    H263537   3.198   3.063  12.081  0.6682 -0.0388 -0.4913
14016TIP3   OH263538   6.045   1.299   5.031 -0.0276 -0.0388  0.4806
14016TIP3    H163539   6.107   1.227   5.018 -1.6377 -1.2846 -0.7274
14016TIP3    H263540   6.057   1.324   5.123  3.2836  0.8405 -0.0367
14017TIP3   OH263541   3.339   4.132  12.936 -0.0483  0.0675  0.4214
14017TIP3    H163542   3.373   4.171  12.855 -1.6626 -0.5646 -0.6122
14017TIP3    H263543   3.406   4.152  13.002  1.2887  0.6500 -1.0399
14018TIP3   OH263544   6.694   1.494   2.202 -0.6833  0.0599  0.2201
14018TIP3    H163545   6.732   1.419   2.248 -1.2110  0.5798  1.5563
14018TIP3    H263546   6.600   1.487   2.219 -0.7278  1.0890  0.4475
14019TIP3   OH263547   5.805   3.430   5.975  0.2526  0.2966  0.1570
14019TIP3    H163548   5.822   3.508   6.029  1.0993  0.4219 -0.2633
14019TIP3    H263549   5.835   3.357   6.028  1.7593  0.4794 -0.3958
14020TIP3   OH263550   2.737   6.564   3.055  0.1329  0.1069 -0.7906
14020TIP3    H163551   2.740   6.476   3.017  0.9236  0.2075 -0.9786
14020TIP3    H263552   2.652   6.568   3.099 -0.6175 -0.1706 -2.1606
14021TIP3   OH263553   2.856   2.709  16.562  0.5023  0.1405 -0.6399
14021TIP3    H163554   2.888   2.620  16.547 -0.2683  0.0983 -2.2926
14021TIP3    H263555   2.762   2.705  16.541  0.2889  1.1656  0.0372
14022TIP3   OH263556   5.278   1.865  14.437  0.3985 -0.1471 -0.4638
14022TIP3    H163557   5.345   1.872  14.506  1.3437 -0.3660 -1.3296
14022TIP3    H263558   5.195   1.864  14.485  1.0674 -1.3497  0.7533
14023TIP3   OH263559   2.483   1.188  16.739 -0.8754  0.5346 -0.0424
14023TIP3    H163560   2.532   1.222  16.664  1.8207  0.4959  1.5351
14023TIP3    H263561   2.521   1.235  16.814 -0.7130 -2.1265  1.6600
14024TIP3   OH263562   2.336   1.568   5.828  0.3325  0.0518 -0.3780
14024TIP3    H163563   2.247   1.590   5.801 -0.4246 -2.0873  0.2202
14024TIP3    H263564   2.390   1.640   5.794 -1.6231  1.4972 -0.5704
14025TIP3   OH263565   6.071   0.423   4.909 -0.2240 -0.3052  0.6212
14025TIP3    H163566   5.988   0.377   4.917 -0.4587  0.3642  2.5055
14025TIP3    H263567   6.119   0.401   4.989  1.2007 -0.2479 -0.1772
14026TIP3   OH263568   2.130   6.097   5.986  0.2999  0.3198 -0.7447
14026TIP3    H163569   2.076   6.019   5.973  0.2558  0.3452 -0.7141
14026TIP3    H263570   2.070   6.171   5.971  1.2378  0.4351 -4.8647
14027TIP3   OH263571   1.653   4.789  17.145  0.2813 -0.0983 -0.8421
14027TIP3    H163572   1.719   4.734  17.186 -0.1054 -0.8435 -1.2035
14027TIP3    H263573   1.702   4.864  17.111  0.9720 -0.7642 -1.3305
14028TIP3   OH263574   2.362   6.611  17.182 -0.3040  0.1413  0.0024
14028TIP3    H163575   2.379   6.661  17.102  1.9075 -0.4532  0.0309
14028TIP3    H263576   2.404   6.662  17.252  0.3951 -0.8287  0.3079
14029TIP3   OH263577   3.288   2.603  17.379 -0.2898  0.9844  0.2638
14029TIP3    H163578   3.379   2.610  17.408 -0.4806  0.7457  0.9176
14029TIP3    H263579   3.253   2.692  17.391  0.3151  1.5209 -1.5787
14030TIP3   OH263580   2.219   4.108   2.062 -0.0509  0.0697 -0.5936
14030TIP3    H163581   2.142   4.056   2.085 -0.0067  0.0129 -0.5767
14030TIP3    H263582   2.187   4.169   1.995 -0.7263  1.6825  1.0857
14031TIP3   OH263583   5.338   4.143  12.897  0.4355 -0.4343  0.3199
14031TIP3    H163584   5.388   4.207  12.847 -0.8817  0.0939 -0.3825
14031TIP3    H263585   5.400   4.072  12.915  1.2023 -0.2163 -1.2730
14032TIP3   OH263586   4.026   0.846   2.117 -0.3891 -0.2843 -0.1952
14032TIP3    H163587   3.965   0.797   2.173 -1.2868 -1.1727 -1.8614
14032TIP3    H263588   4.110   0.803   2.130 -0.5901 -0.4876  0.4539
14033TIP3   OH263589   0.005   4.610  14.580  0.0076  0.0325  0.2353
14033TIP3    H163590  -0.007   4.515  14.581  0.5690 -0.0439  0.0739
14033TIP3    H263591  -0.061   4.643  14.640  0.6415 -0.5642  1.2891
14034TIP3   OH263592   0.173   2.042   5.009 -0.2929 -0.3126  0.2560
14034TIP3    H163593   0.086   2.010   4.988  0.1935 -2.6528  1.4378
14034TIP3    H263594   0.167   2.070   5.101  0.2910 -0.9631  0.5023
14035TIP3   OH263595   3.512   1.282   1.087  0.0188  0.1297 -0.4869
14035TIP3    H163596   3.491   1.364   1.132 -0.3855 -0.3782  0.2717
14035TIP3    H263597   3.521   1.218   1.158 -1.3492 -0.8503 -1.1446
14036TIP3   OH263598   0.155   0.966  12.582  0.0533  0.3785  0.1485
14036TIP3    H163599   0.074   1.013  12.602  0.0500 -0.6074  2.9317
14036TIP3    H263600   0.136   0.875  12.607  0.8089 -0.7226 -2.8456
14037TIP3   OH263601   4.800   4.769   5.232  0.1088 -0.3732 -0.1478
14037TIP3    H163602   4.879   4.794   5.280  0.9921 -1.5212 -0.9074
14037TIP3    H263603   4.751   4.850   5.220  0.0662  0.0260  2.2484
14038TIP3   OH263604   3.810   0.138   1.272  0.4453  0.0119 -0.3145
14038TIP3    H163605   3.777   0.058   1.311  0.3115 -0.3688 -1.1786
14038TIP3    H263606   3.890   0.158   1.321  0.3182 -0.4763  0.0972
14039TIP3   OH263607   2.519   5.302   1.667  0.6868  0.3769 -0.5515
14039TIP3    H163608   2.593   5.245   1.646 -1.1269 -2.5008  0.3546
14039TIP3    H263609   2.461   5.295   1.591  1.1928  2.5515 -1.2213
14040TIP3   OH263610   3.397   4.580   2.481  0.6108  0.0428  0.4843
14040TIP3    H163611   3.335   4.564   2.410  0.3643 -1.2859  0.9699
14040TIP3    H263612   3.343   4.589   2.559  0.9585 -0.0469  0.7410
14041TIP3   OH263613   1.269   4.190  17.075  0.4886 -0.4868  0.0831
14041TIP3    H163614   1.349   4.238  17.054  0.5354  0.1834  1.6421
14041TIP3    H263615   1.225   4.244  17.141 -0.2149 -1.8567  0.7847
14042TIP3   OH263616   5.672   4.485  14.887 -0.6765 -0.0733 -0.0919
14042TIP3    H163617   5.600   4.544  14.863  0.4832  1.6629  0.5033
14042TIP3    H263618   5.719   4.469  14.805 -0.4826  0.5678 -0.1075
14043TIP3   OH263619   2.789   5.255   5.834 -0.9702  0.7889  0.0065
14043TIP3    H163620   2.847   5.294   5.768 -1.2278  1.5430  0.2146
14043TIP3    H263621   2.835   5.177   5.863 -1.0242  0.2314 -1.3449
14044TIP3   OH263622   6.603   4.670   2.240 -0.2547  0.2226 -0.0158
14044TIP3    H163623   6.681   4.700   2.193 -2.7865  3.7213 -2.5078
14044TIP3    H263624   6.572   4.596   2.190  1.1406 -0.9552  0.7725
14045TIP3   OH263625   1.521   1.326   4.856 -0.7191  0.2362  0.5656
14045TIP3    H163626   1.451   1.390   4.838 -0.1346  0.5531 -0.7336
14045TIP3    H263627   1.569   1.362   4.930  0.1720  1.8372 -0.7186
14046TIP3   OH263628   0.094   5.881  16.711  0.4983 -0.6904  0.3110
14046TIP3    H163629   0.075   5.968  16.747  2.4825  0.2813 -0.8204
14046TIP3    H263630   0.058   5.820  16.775 -1.9352  0.9226  0.6139
14047TIP3   OH263631   4.178   6.160   4.785 -0.6437 -0.1056 -0.3855
14047TIP3    H163632   4.272   6.181   4.794 -0.7611  0.1912  0.2126
14047TIP3    H263633   4.176   6.065   4.772 -0.2115 -0.0128 -1.2355
14048TIP3   OH263634   0.089   1.372  11.160 -0.2643 -0.0801  0.7132
14048TIP3    H163635   0.149   1.335  11.096 -0.7332  1.8978 -0.9590
14048TIP3    H263636   0.010   1.393  11.110 -0.7261  1.3264  1.9786
14049TIP3   OH263637   4.026   6.005  13.743 -0.1067  0.0939 -0.1423
14049TIP3    H163638   3.994   6.081  13.695 -0.1403  1.2340  1.5741
14049TIP3    H263639   3.994   6.019  13.833  0.3686 -1.6616  0.3381
14050TIP3   OH263640   5.543   6.153   4.566  0.0332  0.1422 -0.2897
14050TIP3    H163641   5.525   6.064   4.596  0.1025  0.3250  0.3111
14050TIP3    H263642   5.584   6.196   4.642  2.2832 -0.0255 -1.3326
14051TIP3   OH263643   6.509   2.114   1.075  0.0615 -0.2511  0.8240
14051TIP3    H163644   6.567   2.068   1.134  0.3152  0.6291  1.2780
14051TIP3    H263645   6.488   2.050   1.006  1.3496 -0.6554  0.7932
14052TIP3   OH263646   4.789   6.565  12.462 -0.3313  0.1738 -0.2252
14052TIP3    H163647   4.876   6.599  12.440 -1.3386  3.9137  0.8510
14052TIP3    H263648   4.805   6.500  12.530  1.6582 -0.0032 -0.7903
14053TIP3   OH263649   1.565   2.779   5.065 -0.5195 -0.1583 -0.3270
14053TIP3    H163650   1.593   2.692   5.093 -0.0282  0.2406  0.4475
14053TIP3    H263651   1.602   2.839   5.129 -2.0057  0.5147 -0.0438
14054TIP3   OH263652   4.568   4.253   1.244 -0.2921  0.3209  0.3983
14054TIP3    H163653   4.587   4.306   1.166 -2.1319 -0.0751 -0.3661
14054TIP3    H263654   4.613   4.170   1.227  0.7231  0.8186  0.5649
14055TIP3   OH263655   5.447   4.453  15.426 -0.5595  0.0332  0.1592
14055TIP3    H163656   5.484   4.497  15.349  0.3475  0.7594  0.9755
14055TIP3    H263657   5.408   4.373  15.392  0.6843 -0.1380 -0.9274
14056TIP3   OH263658   2.539   3.799  15.385 -0.4144 -0.1944  0.1155
14056TIP3    H163659   2.570   3.865  15.322  0.8779  1.7505  2.6108
14056TIP3    H263660   2.447   3.788  15.363 -0.1082  0.6364 -1.8988
14057TIP3   OH263661   4.528   3.330   5.229 -0.1513  0.0979 -0.5807
14057TIP3    H163662   4.550   3.417   5.194 -0.9409  0.2357 -0.7459
14057TIP3    H263663   4.487   3.348   5.313 -1.5001 -0.0330 -1.1914
14058TIP3   OH263664   0.249   3.462  11.708  0.1214  0.6092 -0.4379
14058TIP3    H163665   0.295   3.502  11.635  0.0486  0.0141 -0.8176
14058TIP3    H263666   0.278   3.370  11.708 -1.6242  0.0159 -1.1728
14059TIP3   OH263667   5.213   4.541   2.111  0.4953 -0.9158 -0.3230
14059TIP3    H163668   5.222   4.636   2.100 -0.1081 -0.8417 -0.1766
14059TIP3    H263669   5.153   4.530   2.184  0.6791 -1.4172 -0.2400
14060TIP3   OH263670   2.626   2.004  12.699  0.5069  0.1077  0.3476
14060TIP3    H163671   2.717   2.033  12.691  0.2475  0.6449 -0.7621
14060TIP3    H263672   2.578   2.056  12.635 -0.1733 -1.9719 -0.9186
14061TIP3   OH263673   2.039   4.387  11.804 -0.5643  0.7991 -0.4486
14061TIP3    H163674   1.975   4.352  11.867 -1.2775  0.3055 -1.4152
14061TIP3    H263675   2.124   4.363  11.840 -0.9793 -0.0345  0.0121
14062TIP3   OH263676   0.530   1.682  15.396  0.2356  0.0525  0.4730
14062TIP3    H163677   0.587   1.746  15.354  1.0992 -0.6629  0.5434
14062TIP3    H263678   0.468   1.657  15.328 -1.0142  1.9787  0.8293
14063TIP3   OH263679   6.489   2.984  13.072  0.1043  0.4638  0.1471
14063TIP3    H163680   6.513   3.042  13.144 -0.9908  1.4874 -0.2885
14063TIP3    H263681   6.538   3.018  12.997  1.6755 -0.9310  0.4705
14064TIP3   OH263682   2.096   4.224  14.557 -0.0478 -0.4468 -0.6867
14064TIP3    H163683   2.076   4.135  14.526  2.8912 -1.7416  0.6994
14064TIP3    H263684   2.020   4.249  14.610 -0.6741 -2.4302 -0.5687
14065TIP3   OH263685   2.014   3.048  12.567 -0.2065 -0.3913  0.1136
14065TIP3    H163686   1.979   3.044  12.478  0.9992 -2.1573 -0.3529
14065TIP3    H263687   1.970   2.977  12.614  0.7705 -0.9305  0.2536
14066TIP3   OH263688   1.397   3.755   0.204 -0.1817 -0.1172 -0.1542
14066TIP3    H163689   1.419   3.662   0.208  0.4532  0.0698  1.8651
14066TIP3    H263690   1.301   3.756   0.201 -0.3228 -0.8712  2.1290
14067TIP3   OH263691   0.043   1.672  12.385  0.4628  0.0990  0.1846
14067TIP3    H163692   0.064   1.673  12.478 -0.3235  0.4581  0.3671
14067TIP3    H263693   0.128   1.679  12.341  0.7577  1.1505  0.8859
14068TIP3   OH263694   0.915   5.551   0.037 -0.5409 -0.1465 -0.5131
14068TIP3    H163695   0.834   5.574  -0.008 -1.6362 -2.0921  0.3449
14068TIP3    H263696   0.887   5.523   0.124  1.3706  1.9725  0.9109
14069TIP3   OH263697   0.683   1.138   2.549  0.4311 -0.2849 -0.4175
14069TIP3    H163698   0.753   1.128   2.485  1.1112  3.4070 -0.5205
14069TIP3    H263699   0.724   1.119   2.633  0.0292 -3.2971 -0.7999
14070TIP3   OH263700   2.862   3.177  15.586 -0.0999  0.2604  0.1179
14070TIP3    H163701   2.848   3.091  15.545  0.5435 -0.4609  1.3332
14070TIP3    H263702   2.923   3.222  15.528  0.8279 -0.7572  0.2570
14071TIP3   OH263703   1.769   1.647  17.325 -0.3402  0.1180  0.1266
14071TIP3    H163704   1.841   1.709  17.329 -0.9102  0.7806  0.4563
14071TIP3    H263705   1.810   1.561  17.334  0.7952  0.1737 -3.0285
14072TIP3   OH263706   6.206   0.048   2.865 -0.3656 -0.3616 -0.0611
14072TIP3    H163707   6.280   0.106   2.849  0.2561 -0.2785  2.5787
14072TIP3    H263708   6.131   0.106   2.876 -0.3377 -0.2795 -0.2967
14073TIP3   OH263709   1.528   4.485  16.198 -0.0409 -0.1800 -0.3274
14073TIP3    H163710   1.538   4.433  16.277 -1.0683  0.1964  0.0671
14073TIP3    H263711   1.510   4.421  16.129  3.3451 -0.7803 -0.8509
14074TIP3   OH263712   3.026   0.153  15.068 -0.4599 -0.9249  0.0619
14074TIP3    H163713   3.060   0.140  14.979 -0.0695 -0.6929  0.1727
14074TIP3    H263714   3.055   0.242  15.091  0.1070 -1.2682  0.7145
14075TIP3   OH263715   6.138   3.597   3.461  0.3637  0.4759  0.3548
14075TIP3    H163716   6.164   3.536   3.529 -0.2324 -0.5347 -0.2988
14075TIP3    H263717   6.046   3.575   3.443  0.2849  1.2365 -0.2400
14076TIP3   OH263718   5.305   3.433   5.650  0.3758  0.0388  0.0331
14076TIP3    H163719   5.349   3.473   5.575  1.5931  1.0023  1.2244
14076TIP3    H263720   5.375   3.405   5.708 -0.5307  0.6832  1.5089
14077TIP3   OH263721   5.756   6.764  12.552 -0.1319  0.2018  0.4263
14077TIP3    H163722   5.692   6.751  12.623 -2.0757  1.5353 -0.9746
14077TIP3    H263723   5.711   6.732  12.474  1.5735 -0.2700 -0.4051
14078TIP3   OH263724   3.195   2.264  17.070  0.0335  0.1768 -0.1652
14078TIP3    H163725   3.115   2.214  17.053  0.0344  0.2414 -0.3625
14078TIP3    H263726   3.258   2.230  17.007  0.7369 -1.2056  1.2425
14079TIP3   OH263727   2.956   3.486  11.173  0.1685 -0.0889  0.0502
14079TIP3    H163728   2.982   3.422  11.107 -2.0504 -0.4115 -0.6067
14079TIP3    H263729   2.957   3.570  11.127  1.3790  0.1314  0.4349
14080TIP3   OH263730   1.537   5.723  15.059  0.2882 -0.0285 -0.0042
14080TIP3    H163731   1.550   5.742  14.966  1.7619 -0.4774  0.0769
14080TIP3    H263732   1.446   5.696  15.066  0.4617 -1.1720 -1.5501
14081TIP3   OH263733   0.654   4.178  14.526 -0.0168  0.2994 -0.0468
14081TIP3    H163734   0.719   4.118  14.563 -0.5845  0.3503  1.0512
14081TIP3    H263735   0.703   4.228  14.460  0.3326 -1.7895 -1.4940
14082TIP3   OH263736   0.538   4.622  14.144  0.1616  0.4674 -0.2863
14082TIP3    H163737   0.536   4.532  14.175  0.4083 -0.0646 -1.7504
14082TIP3    H263738   0.586   4.618  14.061 -0.5620  1.8057 -0.8006
14083TIP3   OH263739   1.873   4.033  16.906 -0.2193 -0.1925 -0.3039
14083TIP3    H163740   1.834   3.979  16.975  0.5721 -1.1150 -0.5598
14083TIP3    H263741   1.961   4.053  16.938  0.2846 -0.9222 -1.1757
14084TIP3   OH263742   5.338   0.543  13.777 -0.3075 -0.2799 -0.3896
14084TIP3    H163743   5.360   0.548  13.684  1.9139  0.7813  0.1222
14084TIP3    H263744   5.419   0.568  13.822 -1.3250 -0.7608  1.8371
14085TIP3   OH263745   4.993   1.818   1.597 -1.0866 -0.3849  0.9864
14085TIP3    H163746   5.062   1.875   1.564  1.3611 -3.0958  1.0129
14085TIP3    H263747   4.912   1.854   1.561  0.5803  1.5146 -1.1261
14086TIP3   OH263748   1.649   4.932   4.263  0.4552 -0.2896 -0.0281
14086TIP3    H163749   1.707   4.995   4.222  0.2080  0.8856  1.3500
14086TIP3    H263750   1.610   4.979   4.337 -0.3608 -1.8046  0.5576
14087TIP3   OH263751   6.030   4.425  13.723  0.3685  0.0991  0.0303
14087TIP3    H163752   6.036   4.341  13.770  1.4773  0.2007  0.0921
14087TIP3    H263753   6.118   4.462  13.730  0.2771  0.5866 -1.2608
14088TIP3   OH263754   4.700   4.874   5.797  0.1770  0.4169 -0.4570
14088TIP3    H163755   4.734   4.947   5.745  1.5404  0.2069  0.0878
14088TIP3    H263756   4.679   4.806   5.733 -0.2820  0.9616 -0.8976
14089TIP3   OH263757   2.719   1.056  14.538 -0.5144  0.5922 -0.1125
14089TIP3    H163758   2.731   0.971  14.580  2.4467 -0.2359 -2.3339
14089TIP3    H263759   2.747   1.120  14.603  1.5420 -0.4661  0.1046
14090TIP3   OH263760   3.407   4.812   4.147 -0.2373 -0.6960 -0.2286
14090TIP3    H163761   3.375   4.901   4.127 -2.7759 -1.3587  0.5828
14090TIP3    H263762   3.403   4.806   4.242 -0.8805 -1.9664 -0.3307
14091TIP3   OH263763   4.160   0.083   4.634  0.2299 -0.0628  0.7382
14091TIP3    H163764   4.220   0.131   4.576  1.6967 -0.5359  1.7886
14091TIP3    H263765   4.115   0.152   4.683  0.4886  0.2870  0.4961
14092TIP3   OH263766   4.383   1.611   4.285  0.4209  0.0492  0.2294
14092TIP3    H163767   4.353   1.583   4.199  0.7149 -1.1941  0.5131
14092TIP3    H263768   4.316   1.578   4.345  0.7425 -0.0010  0.5644
14093TIP3   OH263769   3.206   6.602  14.563  0.1213  0.5553  0.1991
14093TIP3    H163770   3.134   6.550  14.527  1.4636  0.0600 -1.8823
14093TIP3    H263771   3.275   6.538  14.581  0.4453  1.1640  1.2160
14094TIP3   OH263772   2.708   5.856  10.423  0.2715 -0.4620  0.3599
14094TIP3    H163773   2.753   5.774  10.443  0.4244 -0.6339 -0.6027
14094TIP3    H263774   2.616   5.838  10.442  0.2581 -0.9820 -0.1562
14095TIP3   OH263775   1.076   4.981   4.826 -0.3058  0.1046  0.7574
14095TIP3    H163776   0.996   4.978   4.879 -1.2410 -0.3347 -0.6082
14095TIP3    H263777   1.145   5.005   4.887 -1.4692  0.3934  2.0017
14096TIP3   OH263778   0.873   0.845  13.717 -0.3243  0.6625 -0.2756
14096TIP3    H163779   0.825   0.767  13.690  0.1545 -0.5674  2.0995
14096TIP3    H263780   0.834   0.868  13.802  2.1235  0.5865  0.9503
14097TIP3   OH263781   4.117   4.620   1.169  0.1607 -0.5003 -0.4986
14097TIP3    H163782   4.053   4.675   1.214 -1.5459 -2.5561 -0.2963
14097TIP3    H263783   4.163   4.574   1.238 -0.9240 -1.9761 -0.7003
14098TIP3   OH263784   2.982   4.826   2.703  0.5685  0.3721  0.0338
14098TIP3    H163785   3.019   4.846   2.617  0.9403  0.0729  0.1190
14098TIP3    H263786   2.897   4.787   2.685  0.4288  0.7785 -0.1792
14099TIP3   OH263787   5.413   4.930  11.256 -0.1280  0.2137 -0.0734
14099TIP3    H163788   5.403   4.963  11.167  1.3866  0.9293 -0.0048
14099TIP3    H263789   5.485   4.867  11.250  0.6476  0.9785  0.7928
14100TIP3   OH263790   3.205   3.905   2.228 -0.1728 -0.0744  0.1453
14100TIP3    H163791   3.290   3.944   2.211 -0.8044  1.2343 -0.1600
14100TIP3    H263792   3.142   3.972   2.202 -1.2997 -1.0059  0.3712
14101TIP3   OH263793   2.733   4.236   0.078  0.5150  0.3155  0.6384
14101TIP3    H163794   2.646   4.269   0.104 -0.2866 -0.7221 -0.6200
14101TIP3    H263795   2.789   4.313   0.082 -0.7531  1.3004  0.2426
14102TIP3   OH263796   1.157   6.460  15.085 -0.1796 -0.4182  0.2244
14102TIP3    H163797   1.118   6.456  15.172  0.3918  0.6996  0.5461
14102TIP3    H263798   1.249   6.440  15.098 -0.0169  0.1238 -0.0642
14103TIP3   OH263799   3.247   3.393  13.200  0.1031 -0.4284  0.0029
14103TIP3    H163800   3.203   3.308  13.196 -1.3297  0.2851 -0.1861
14103TIP3    H263801   3.206   3.437  13.274  0.4402  0.2977 -0.2384
14104TIP3   OH263802   1.473   0.311   0.272  0.2160 -0.6840  0.5582
14104TIP3    H163803   1.527   0.233   0.263 -0.7847 -1.3700  0.3418
14104TIP3    H263804   1.383   0.278   0.280 -0.1939  0.4271  0.8019
14105TIP3   OH263805   1.782   2.057   4.734 -0.3254  0.6128 -0.2724
14105TIP3    H163806   1.832   2.041   4.814 -0.3948 -0.6412 -0.4731
14105TIP3    H263807   1.708   2.111   4.763 -0.7825 -0.4819  0.6551
14106TIP3   OH263808   3.891   1.947  11.928  0.6468  0.6376  0.5170
14106TIP3    H163809   3.938   1.869  11.897 -0.0351  0.3493  0.1719
14106TIP3    H263810   3.815   1.912  11.975  0.3601  1.0906  0.3978
14107TIP3   OH263811   5.167   0.019  15.378 -0.4297  0.0585 -0.1817
14107TIP3    H163812   5.104   0.082  15.414  0.0894  0.2647  0.3873
14107TIP3    H263813   5.200   0.061  15.298 -1.0640 -0.0843 -0.5217
14108TIP3   OH263814   0.556   2.646   0.202  0.1934 -0.7770 -0.0501
14108TIP3    H163815   0.511   2.647   0.286 -0.1193 -0.3584 -0.2194
14108TIP3    H263816   0.638   2.694   0.218 -0.1624 -0.1270 -0.1396
14109TIP3   OH263817   6.170   2.834  13.510  0.0079  0.6760  0.6261
14109TIP3    H163818   6.114   2.857  13.583 -1.3019  0.8937 -0.4063
14109TIP3    H263819   6.177   2.915  13.459 -1.3470 -0.1257 -0.9136
14110TIP3   OH263820   0.885   6.602  12.510 -0.4386 -0.3301  0.4398
14110TIP3    H163821   0.842   6.618  12.594 -1.6845 -0.7248 -0.1007
14110TIP3    H263822   0.978   6.614  12.528 -0.7347  0.2248  1.7257
14111TIP3   OH263823   2.577   5.772   0.276 -0.1601 -0.0117  0.2943
14111TIP3    H163824   2.584   5.713   0.351 -0.5434  0.5471  0.7842
14111TIP3    H263825   2.651   5.750   0.221  0.1161 -0.4494  0.8311
14112TIP3   OH263826   6.664   6.240  16.550  0.2287  0.6310  0.4297
14112TIP3    H163827   6.703   6.320  16.586  0.4757  0.1870  1.1682
14112TIP3    H263828   6.588   6.271  16.501  0.4396  1.3420  0.5357
14113TIP3   OH263829   0.069   2.806  13.667 -0.3256  0.2676  0.1146
14113TIP3    H163830  -0.010   2.778  13.621 -1.2069  1.1410  1.0360
14113TIP3    H263831   0.131   2.735  13.653 -1.1620 -0.2932 -0.9015
14114TIP3   OH263832   4.902   4.991   4.383 -0.1068 -0.4218 -0.8636
14114TIP3    H163833   4.842   4.971   4.311 -0.5681  1.9941 -1.2466
14114TIP3    H263834   4.960   5.059   4.348  0.3324  0.0705  0.7248
14115TIP3   OH263835   3.128   6.136  12.858  0.3320 -0.6560 -0.2298
14115TIP3    H163836   3.045   6.121  12.902  1.2511  0.3909  2.0319
14115TIP3    H263837   3.116   6.216  12.808  0.4037  0.4207  1.4114
14116TIP3   OH263838   6.717   4.441  15.966 -0.2180 -0.1040  0.4200
14116TIP3    H163839   6.629   4.421  15.935 -0.7618  1.9954  0.4913
14116TIP3    H263840   6.775   4.392  15.907 -1.3766 -0.5012 -0.4183
14117TIP3   OH263841   4.838   5.780  13.210  0.0988  0.0800  0.2591
14117TIP3    H163842   4.774   5.787  13.280  0.2008 -1.2348  0.5013
14117TIP3    H263843   4.920   5.813  13.248 -0.3720  1.7020 -0.0329
14118TIP3   OH263844   2.381   3.643  15.154  0.2567 -0.0889  0.1072
14118TIP3    H163845   2.427   3.632  15.071 -1.0194 -0.5697 -0.5679
14118TIP3    H263846   2.352   3.555  15.177 -1.6842  0.3631 -0.3418
14119TIP3   OH263847   3.651   0.909   4.612 -0.4978  0.4522 -0.2568
14119TIP3    H163848   3.640   0.821   4.648  0.4038  0.6184  0.4600
14119TIP3    H263849   3.595   0.965   4.666 -0.9308  0.3594 -0.5984
14120TIP3   OH263850   1.448   0.020  13.625  0.7062  0.2514  0.6308
14120TIP3    H163851   1.361  -0.017  13.615 -0.5422  2.6751  1.5182
14120TIP3    H263852   1.480  -0.016  13.707  0.3069 -0.2109  0.5903
14121TIP3   OH263853   5.370   5.446   4.891  0.2965  0.2521 -0.1021
14121TIP3    H163854   5.429   5.371   4.888  0.1764  0.0814  1.3315
14121TIP3    H263855   5.409   5.504   4.956 -0.9494  0.2842  0.6317
14122TIP3   OH263856   4.608   5.054  15.047  0.1308 -0.0252 -0.0337
14122TIP3    H163857   4.572   5.075  14.961  1.8605  1.3138 -0.5090
14122TIP3    H263858   4.540   5.081  15.109 -0.0708  1.6418 -0.9148
14123TIP3   OH263859   4.044   1.711  11.754 -0.0664 -0.1177  0.3757
14123TIP3    H163860   4.029   1.616  11.754  2.1019 -0.5121  1.3345
14123TIP3    H263861   4.075   1.730  11.666 -0.5932 -0.2708  0.1525
14124TIP3   OH263862   5.608   4.774  13.572 -0.0006 -0.2915 -0.3614
14124TIP3    H163863   5.632   4.687  13.605  0.0088  0.2692  1.1895
14124TIP3    H263864   5.518   4.787  13.602  0.5932  0.9366  0.9485
14125TIP3   OH263865   1.539   0.120  11.261 -0.2002 -0.1640 -0.3054
14125TIP3    H163866   1.599   0.059  11.219  0.2028 -1.5562  2.0825
14125TIP3    H263867   1.592   0.161  11.329 -0.6873  2.3562 -1.3484
14126TIP3   OH263868   2.944   5.104   2.634 -0.0238 -0.1459 -0.3766
14126TIP3    H163869   2.927   5.015   2.605  1.6562 -0.4423 -0.5565
14126TIP3    H263870   3.027   5.127   2.594  0.1998  1.0453  0.6893
14127TIP3   OH263871   3.610   2.932  14.475  0.3847 -0.2779 -0.1658
14127TIP3    H163872   3.548   2.916  14.545  0.9538 -1.1598  0.1439
14127TIP3    H263873   3.574   3.008  14.428  0.4811  0.9557  1.6373
14128TIP3   OH263874   6.522   2.194  12.228 -0.2244 -0.6608  0.0838
14128TIP3    H163875   6.496   2.183  12.319  0.7582 -0.3098  0.4216
14128TIP3    H263876   6.585   2.266  12.230 -1.8412  0.8747 -1.1768
14129TIP3   OH263877   4.433   1.746   6.523 -0.3445 -0.1953 -0.2777
14129TIP3    H163878   4.422   1.838   6.497 -0.7213 -0.3464 -0.6606
14129TIP3    H263879   4.526   1.729   6.511 -0.0988  0.4054  0.6825
14130TIP3   OH263880   0.639   4.205  17.357 -0.1762 -0.5848  0.6971
14130TIP3    H163881   0.558   4.227  17.311  0.2328 -1.0489 -0.2638
14130TIP3    H263882   0.682   4.290  17.371 -0.3129 -0.4344  0.2324
14131TIP3   OH263883   3.271   5.790  11.888 -0.2279  0.0420 -0.0554
14131TIP3    H163884   3.342   5.785  11.953 -0.3397  0.2780  0.0903
14131TIP3    H263885   3.285   5.875  11.845  0.0320 -0.2558 -0.5585
14132TIP3   OH263886   3.478   0.727  11.582  0.1903  0.1648 -0.1223
14132TIP3    H163887   3.423   0.676  11.641 -1.1411 -0.1700 -1.5602
14132TIP3    H263888   3.440   0.815  11.584  1.9054  0.9323  1.6351
14133TIP3   OH263889   6.140   3.975   6.619 -0.1449 -0.4106  0.0811
14133TIP3    H163890   6.074   3.925   6.571  0.6050  0.5942 -2.1404
14133TIP3    H263891   6.221   3.924   6.609 -0.3189 -1.0992  1.8796
14134TIP3   OH263892   0.582   0.504  12.692 -0.1321  0.2243  0.2780
14134TIP3    H163893   0.629   0.456  12.623 -0.4974  1.5407 -0.9531
14134TIP3    H263894   0.614   0.467  12.774  1.1485 -0.6489 -0.5816
14135TIP3   OH263895   4.676   2.262   0.839 -0.4199 -0.0122 -0.4910
14135TIP3    H163896   4.765   2.229   0.830 -0.4259 -0.2476  0.2113
14135TIP3    H263897   4.621   2.186   0.821 -0.4326 -0.4768  1.3072
14136TIP3   OH263898   5.768   0.029   3.379  0.1278  0.1427 -0.1072
14136TIP3    H163899   5.766  -0.065   3.360  1.4721  0.3409 -1.4601
14136TIP3    H263900   5.712   0.068   3.311 -0.5004  0.3261  0.5039
14137TIP3   OH263901   3.921   6.404   0.687  0.0899  0.1707  0.3035
14137TIP3    H163902   3.943   6.312   0.673  0.1704  0.1782  0.3786
14137TIP3    H263903   4.006   6.448   0.696  0.0448 -0.0387  2.1392
14138TIP3   OH263904   3.407   0.171  15.397  0.1032  0.4831 -0.2570
14138TIP3    H163905   3.417   0.167  15.302  2.1432 -0.6633 -0.0477
14138TIP3    H263906   3.459   0.246  15.425  0.7296 -0.0554  0.0623
14139TIP3   OH263907   4.134   2.381   3.020  0.3110 -0.1030  0.1911
14139TIP3    H163908   4.087   2.445   2.966 -0.7915 -0.1577  1.0387
14139TIP3    H263909   4.130   2.300   2.969  0.1699  0.0881 -0.1056
14140TIP3   OH263910   2.147   2.406   1.893  0.3850 -0.1992  0.9882
14140TIP3    H163911   2.153   2.342   1.963  1.0312  0.2892  1.3961
14140TIP3    H263912   2.175   2.488   1.933  1.2974 -0.0142  0.0285
14141TIP3   OH263913   1.899   1.407  17.338  0.0665 -0.2851  0.3150
14141TIP3    H163914   1.848   1.338  17.380 -3.3942  1.2771 -0.9469
14141TIP3    H263915   1.957   1.360  17.278 -0.6189 -2.1601  1.0310
14142TIP3   OH263916   4.614   3.496  13.058  0.6118 -0.0841 -0.1112
14142TIP3    H163917   4.667   3.520  12.982 -0.2476  0.2482 -0.6119
14142TIP3    H263918   4.524   3.510  13.030  0.3269  2.0554  1.6197
14143TIP3   OH263919   5.925   2.761  11.493  0.6641  0.0290  0.3827
14143TIP3    H163920   5.983   2.695  11.532  0.7632 -0.3463 -0.3847
14143TIP3    H263921   5.906   2.821  11.565  0.4497 -0.9134  1.1314
14144TIP3   OH263922   2.604   3.800   4.804 -0.1439 -0.3363 -0.0095
14144TIP3    H163923   2.574   3.872   4.859  0.6727 -1.0354  1.4155
14144TIP3    H263924   2.535   3.735   4.811  0.2559 -0.6986  0.7856
14145TIP3   OH263925   3.982   0.475  14.696 -0.2825 -0.4985  0.1602
14145TIP3    H163926   3.904   0.419  14.696 -0.4568 -0.2704 -0.4756
14145TIP3    H263927   3.951   0.559  14.662  0.2695 -0.4580 -0.2599
14146TIP3   OH263928   4.525   3.098  14.244 -0.0561 -0.6207  0.5218
14146TIP3    H163929   4.480   3.180  14.221 -0.5211 -1.2303 -0.8329
14146TIP3    H263930   4.543   3.106  14.338  1.4004  1.7622  0.1307
14147TIP3   OH263931   6.138   2.343  13.086 -0.3769  0.7663  0.1862
14147TIP3    H163932   6.210   2.406  13.074  0.5534 -0.1086  1.0442
14147TIP3    H263933   6.125   2.339  13.180  0.2349 -1.0373  0.2144
14148TIP3   OH263934   5.182   0.816  12.492  0.0862 -0.2044  0.0194
14148TIP3    H163935   5.164   0.908  12.473 -1.7349 -0.6229 -0.4754
14148TIP3    H263936   5.191   0.775  12.406 -0.1462 -0.6729  0.2159
14149TIP3   OH263937   2.227   4.919   5.519 -0.2679 -0.4754  0.4083
14149TIP3    H163938   2.137   4.953   5.524 -0.0400  0.4009 -0.9290
14149TIP3    H263939   2.236   4.863   5.596 -1.1285  1.4501  1.9857
14150TIP3   OH263940   3.896   6.039  14.459 -0.1436 -0.1097 -0.1114
14150TIP3    H163941   3.959   6.086  14.514 -1.2958  1.0615  0.2761
14150TIP3    H263942   3.905   6.078  14.373 -0.4367  0.1644 -0.0196
14151TIP3   OH263943   5.979   5.649   1.410 -0.2452  0.4915 -0.6639
14151TIP3    H163944   5.961   5.738   1.440 -0.5626  0.6048 -1.1818
14151TIP3    H263945   6.064   5.628   1.448 -0.9843  0.3119  1.0099
14152TIP3   OH263946   2.667   1.993  11.735  0.3203  0.3257 -0.0093
14152TIP3    H163947   2.698   2.083  11.722  3.8538 -0.6649  0.5578
14152TIP3    H263948   2.691   1.947  11.655 -0.5169 -0.3800  0.1245
14153TIP3   OH263949   4.289   2.735  16.636  0.8269  0.0055  0.0771
14153TIP3    H163950   4.328   2.725  16.549  0.6309 -0.5384  0.0437
14153TIP3    H263951   4.225   2.805  16.625 -0.2445 -1.0336 -0.6070
14154TIP3   OH263952   2.273   3.198   1.748  0.3770 -0.8021  0.1574
14154TIP3    H163953   2.238   3.277   1.706 -0.4076 -0.0537  2.0774
14154TIP3    H263954   2.368   3.208   1.743  0.2884 -0.0180 -0.1097
14155TIP3   OH263955   0.029   4.409   4.093 -0.1419 -0.4547 -0.0430
14155TIP3    H163956   0.094   4.404   4.023  1.3063 -0.8448  1.2826
14155TIP3    H263957  -0.015   4.324   4.091  0.5111 -0.7956  0.1070
14156TIP3   OH263958   5.404   0.334  13.412  0.4488 -0.4059  0.3247
14156TIP3    H163959   5.494   0.363  13.396 -0.5182  2.1966 -1.1045
14156TIP3    H263960   5.410   0.274  13.485  3.4028 -0.6555 -0.0188
14157TIP3   OH263961   6.680   5.568   6.484 -0.2819 -0.1278 -0.2625
14157TIP3    H163962   6.634   5.646   6.515 -0.0201  0.2487 -0.8095
14157TIP3    H263963   6.611   5.503   6.471 -0.4946 -0.0059  0.2480
14158TIP3   OH263964   2.062   5.247   1.470  0.3489 -0.0906 -0.1199
14158TIP3    H163965   2.142   5.195   1.472  1.1412  1.0985  0.3380
14158TIP3    H263966   2.021   5.226   1.386  0.1438 -2.1347  0.4455
14159TIP3   OH263967   5.433   3.409   0.080  0.4276 -0.5189  0.2141
14159TIP3    H163968   5.414   3.394   0.173 -0.1148 -0.2283  0.1535
14159TIP3    H263969   5.414   3.325   0.038  0.0969 -0.4806  0.2818
14160TIP3   OH263970   3.753   0.666   2.593 -0.4089 -0.4958 -0.4116
14160TIP3    H163971   3.696   0.631   2.661 -1.0083  2.0022  0.4645
14160TIP3    H263972   3.696   0.674   2.516 -0.4958 -0.6059 -0.3593
14161TIP3   OH263973   4.190   1.335  13.000  0.3166  0.1443 -0.6130
14161TIP3    H163974   4.221   1.305  13.085  2.4595 -0.8370 -1.6583
14161TIP3    H263975   4.165   1.427  13.014 -1.8668 -0.6665  1.5880
14162TIP3   OH263976   3.913   5.700   4.396  0.3503 -0.5625  0.1561
14162TIP3    H163977   3.866   5.782   4.379  0.9505 -0.3410 -0.4592
14162TIP3    H263978   3.871   5.636   4.339 -0.1979 -0.7213  0.7247
14163TIP3   OH263979   5.058   2.880   6.099 -0.6305  0.3605 -0.3508
14163TIP3    H163980   4.968   2.861   6.073 -0.6320  1.4292 -1.2011
14163TIP3    H263981   5.051   2.955   6.158 -0.2615  0.8919 -0.9631
14164TIP3   OH263982   2.721   4.157  15.664 -0.6235 -0.0007  0.0775
14164TIP3    H163983   2.632   4.133  15.688 -0.8813 -0.8455 -1.5633
14164TIP3    H263984   2.755   4.204  15.740 -2.1271 -0.5156  1.1066
14165TIP3   OH263985   6.394   1.872   3.450  0.1326 -0.0667 -0.1451
14165TIP3    H163986   6.367   1.919   3.529 -1.5307  0.3284 -0.9000
14165TIP3    H263987   6.490   1.875   3.451  0.1288  0.1400  1.7102
14166TIP3   OH263988   6.318   1.716   5.506  0.1989 -0.1833 -0.7614
14166TIP3    H163989   6.341   1.801   5.469 -0.3525  0.7466  0.9238
14166TIP3    H263990   6.249   1.735   5.569  1.9890 -1.4247  1.7608
14167TIP3   OH263991   4.877   1.586   4.841 -0.0251  0.4102 -0.2305
14167TIP3    H163992   4.912   1.666   4.879 -0.5953  0.3069  0.5551
14167TIP3    H263993   4.789   1.578   4.879  0.0832 -0.6604 -0.1570
14168TIP3   OH263994   4.677   5.753  16.312  0.6183  0.1626 -0.2591
14168TIP3    H163995   4.690   5.847  16.314  1.7331  0.0569 -1.1833
14168TIP3    H263996   4.616   5.739  16.239  0.6713  0.1541 -0.3010
14169TIP3   OH263997   2.998   5.361   5.395  0.1339 -0.2455 -0.0683
14169TIP3    H163998   3.020   5.454   5.395  0.7172 -0.3795 -0.2301
14169TIP3    H263999   3.075   5.318   5.357  0.4265 -0.9263  1.2439
14170TIP3   OH264000   5.943   4.349  10.777 -0.7005 -0.1277  0.1071
14170TIP3    H164001   5.983   4.268  10.810 -1.1010 -0.2197  0.3647
14170TIP3    H264002   6.017   4.407  10.762 -0.4369 -0.4205  0.2507
14171TIP3   OH264003   1.481   3.383  16.699  0.1207  0.5614 -0.4894
14171TIP3    H164004   1.431   3.337  16.766  0.6859  2.4249  1.3006
14171TIP3    H264005   1.544   3.319  16.668 -0.5329 -0.5165  0.3223
14172TIP3   OH264006   4.748   4.352   2.425 -0.9112 -0.4501  0.4894
14172TIP3    H164007   4.782   4.424   2.478  0.5366 -1.8738  1.5908
14172TIP3    H264008   4.680   4.313   2.479  0.5038 -1.8462  1.3345
14173TIP3   OH264009   6.111   1.242  12.871 -0.1425  0.5619 -0.3013
14173TIP3    H164010   6.026   1.197  12.870  0.5239 -0.8142  0.5929
14173TIP3    H264011   6.140   1.235  12.962  1.2652  0.3187 -0.7471
14174TIP3   OH264012   5.678   2.422  15.931 -0.1014  0.0746 -0.1087
14174TIP3    H164013   5.750   2.485  15.931 -0.3867  0.4020 -0.2162
14174TIP3    H264014   5.718   2.340  15.902  0.2285  0.2541 -0.1613
14175TIP3   OH264015   0.129   4.473   1.472  0.5178  0.1204 -0.3543
14175TIP3    H164016   0.036   4.469   1.449  0.7211 -2.0006 -1.0508
14175TIP3    H264017   0.131   4.521   1.555 -1.1694  0.4660 -0.4732
14176TIP3   OH264018   4.326   1.528  13.210 -0.2329 -0.3943 -0.1272
14176TIP3    H164019   4.293   1.611  13.244 -0.9671  0.1221 -1.9659
14176TIP3    H264020   4.309   1.465  13.280 -2.9597  0.3183 -0.0279
14177TIP3   OH264021   5.546   4.789  17.429 -0.2907  0.4098  0.3191
14177TIP3    H164022   5.523   4.736  17.352  0.2060  0.9662 -0.2298
14177TIP3    H264023   5.586   4.867  17.392  0.8920  0.2306  1.1717
14178TIP3   OH264024   0.051   0.745  14.273  0.0410  0.5572  0.8970
14178TIP3    H164025   0.073   0.830  14.309  1.2754  0.3541  0.6632
14178TIP3    H264026   0.130   0.693  14.284 -0.5534 -0.4298  0.6392
14179TIP3   OH264027   6.113   2.124  11.852 -0.1927  0.2136  0.6038
14179TIP3    H164028   6.120   2.159  11.940  1.7740 -1.6896  1.3061
14179TIP3    H264029   6.025   2.086  11.848 -0.3126  0.3419  1.7369
14180TIP3   OH264030   3.062   3.666  16.072  0.4890 -0.4232 -0.1208
14180TIP3    H164031   3.114   3.747  16.067  1.5268 -1.1365 -1.7211
14180TIP3    H264032   2.977   3.694  16.103  0.1389  1.6600 -2.6077
14181TIP3   OH264033   3.356   3.040  16.073  0.4308  0.1274 -0.1874
14181TIP3    H164034   3.382   2.948  16.081 -0.7479 -0.2986 -1.0494
14181TIP3    H264035   3.270   3.038  16.032  1.1250  1.6729 -1.9131
14182TIP3   OH264036   6.133   0.392   4.628  0.7908 -0.0860 -0.2135
14182TIP3    H164037   6.228   0.402   4.627  0.7004  1.0066  0.6932
14182TIP3    H264038   6.105   0.428   4.712 -0.3947 -0.7586 -0.2882
14183TIP3   OH264039   4.028   6.472  14.224 -0.3594 -0.1527 -0.7319
14183TIP3    H164040   4.042   6.535  14.153  2.3260  0.0325 -0.1679
14183TIP3    H264041   4.081   6.506  14.296 -0.3398 -2.0935  0.2185
14184TIP3   OH264042   4.433   1.023  16.742  0.1341 -0.0440 -0.5324
14184TIP3    H164043   4.381   1.078  16.684  0.0516  1.1801  0.6491
14184TIP3    H264044   4.375   1.003  16.815  0.4707 -0.9321 -0.4924
14185TIP3   OH264045   3.892   2.282  14.171 -0.0088 -0.1169  0.4114
14185TIP3    H164046   3.858   2.309  14.256  0.4800  1.7822  0.0336
14185TIP3    H264047   3.837   2.328  14.107  0.4513 -0.4992 -0.2749
14186TIP3   OH264048   4.372   1.534   3.385 -0.0956  0.4908  0.0212
14186TIP3    H164049   4.448   1.588   3.361  1.1803 -0.6759  1.2855
14186TIP3    H264050   4.397   1.445   3.362  0.0241 -0.2879  2.8158
14187TIP3   OH264051   4.925   4.866  12.633  0.1272 -0.3794  0.0964
14187TIP3    H164052   4.915   4.919  12.711 -3.0277 -0.9001  0.2052
14187TIP3    H264053   4.936   4.929  12.562 -2.1855  0.4821  0.3962
14188TIP3   OH264054   6.456   3.704  16.533 -0.5575  0.0306 -0.0483
14188TIP3    H164055   6.443   3.649  16.455 -0.3966  0.5354 -0.4392
14188TIP3    H264056   6.460   3.642  16.605 -1.8842 -0.3802 -0.2935
14189TIP3   OH264057   1.136   1.258  13.377 -0.1655  0.4291  0.4104
14189TIP3    H164058   1.221   1.285  13.345  0.1321  1.0347  1.6682
14189TIP3    H264059   1.114   1.321  13.446 -1.8579  0.5912 -0.2130
14190TIP3   OH264060   4.942   5.423   0.690 -0.4273 -0.1665 -0.0028
14190TIP3    H164061   4.969   5.333   0.673  1.2578  0.2770  0.0744
14190TIP3    H264062   4.991   5.475   0.625 -0.2731  0.8021  0.8677
14191TIP3   OH264063   6.767   1.168  15.698  0.4983 -0.0571  0.1356
14191TIP3    H164064   6.686   1.135  15.737  0.5544 -0.8343 -0.3951
14191TIP3    H264065   6.765   1.262  15.715 -0.2948 -0.1358  0.5227
14192TIP3   OH264066   4.827   4.940  14.907  0.4550  0.3148 -0.1996
14192TIP3    H164067   4.833   5.001  14.834  3.1924  2.8050  1.8802
14192TIP3    H264068   4.753   4.971  14.959 -0.5477 -0.5568 -1.0484
14193TIP3   OH264069   4.712   0.392   1.716 -0.1890 -0.0558 -0.3710
14193TIP3    H164070   4.639   0.366   1.773 -0.2163 -0.9013 -0.7768
14193TIP3    H264071   4.684   0.475   1.678 -1.0673 -0.5024 -0.7303
14194TIP3   OH264072   4.789   1.923  15.647  0.1077  0.0874  0.0727
14194TIP3    H164073   4.784   2.018  15.659  0.9294  0.0488  0.8234
14194TIP3    H264074   4.702   1.891  15.670 -0.7724  0.8190 -2.0163
14195TIP3   OH264075   6.205   0.131  14.244  0.3420  0.7511  0.3800
14195TIP3    H164076   6.274   0.117  14.180  0.1772  2.2612 -0.1692
14195TIP3    H264077   6.185   0.043  14.278 -0.1159 -0.2094 -2.1831
14196TIP3   OH264078   2.355   3.077  15.147  0.2027  0.3890  0.3537
14196TIP3    H164079   2.448   3.054  15.150 -0.0332 -0.5514  2.6254
14196TIP3    H264080   2.352   3.159  15.098  2.5168  1.6889  2.1889
14197TIP3   OH264081   1.828   3.335  12.627 -0.2908  0.0520  0.1467
14197TIP3    H164082   1.797   3.426  12.624 -0.3866  0.1195  2.0952
14197TIP3    H264083   1.888   3.328  12.553 -0.0627  1.7814  0.1238
14198TIP3   OH264084   0.900   6.196  14.238 -0.0590  0.5830 -0.0917
14198TIP3    H164085   0.808   6.179  14.219 -0.3064  0.7939  0.8758
14198TIP3    H264086   0.904   6.289  14.261  0.4126  0.6049 -0.2501
14199TIP3   OH264087   1.201   1.722  11.537 -0.1791 -0.7412  0.4493
14199TIP3    H164088   1.203   1.804  11.488 -2.3390  0.0054  1.4623
14199TIP3    H264089   1.214   1.654  11.471 -0.3702  0.3388 -0.7391
14200TIP3   OH264090   0.685   6.740   1.760  0.6426  0.2897  0.2512
14200TIP3    H164091   0.746   6.732   1.834 -0.2771 -0.2300  0.9730
14200TIP3    H264092   0.620   6.671   1.775  1.5001 -1.1187 -2.0891
14201TIP3   OH264093   6.509   5.867   2.964  0.1345  0.1748 -0.1471
14201TIP3    H164094   6.551   5.924   3.028 -0.3839 -0.4861  0.8086
14201TIP3    H264095   6.576   5.853   2.897  1.1320 -0.1330  0.8867
14202TIP3   OH264096   6.416   2.587  16.623 -0.7463  0.4011 -0.2843
14202TIP3    H164097   6.328   2.576  16.586 -0.9226 -0.0547  0.2511
14202TIP3    H264098   6.404   2.571  16.716 -0.3510  1.7242  0.0182
14203TIP3   OH264099   4.743   6.177  16.257  0.0491  0.1995  0.2064
14203TIP3    H164100   4.704   6.225  16.184 -0.3485  0.2696  0.4564
14203TIP3    H264101   4.795   6.242  16.304  0.5310  0.0902 -0.1686
14204TIP3   OH264102   0.425   3.076  13.710 -0.0962  0.3629 -0.6288
14204TIP3    H164103   0.503   3.036  13.751 -0.2541 -1.7081 -2.1944
14204TIP3    H264104   0.393   3.137  13.776  1.1049 -0.9627  1.3072
14205TIP3   OH264105   4.009   3.092  15.653  0.0375  0.1983 -0.2941
14205TIP3    H164106   4.078   3.143  15.695 -0.6806  0.9491 -0.0067
14205TIP3    H264107   3.936   3.153  15.644 -0.6407 -0.6197 -0.4681
14206TIP3   OH264108   4.720   1.464   3.023 -0.6016 -0.1055  0.0556
14206TIP3    H164109   4.635   1.503   3.003 -0.2714  0.7194  0.1884
14206TIP3    H264110   4.781   1.509   2.963 -0.4064 -1.4337 -0.7958
14207TIP3   OH264111   4.742   6.591   1.277 -0.0754  0.3738 -0.1744
14207TIP3    H164112   4.678   6.567   1.344  1.2290 -0.6714  0.7474
14207TIP3    H264113   4.824   6.601   1.325  0.4491  1.8613 -1.3056
14208TIP3   OH264114   3.053   6.230  12.326  0.0812 -0.2766 -0.2991
14208TIP3    H164115   3.141   6.197  12.343  0.0948  0.0155  0.2210
14208TIP3    H264116   3.058   6.323  12.349 -0.6269 -0.4800  0.7592
14209TIP3   OH264117   0.812   6.506  11.625 -0.2832 -0.4120 -0.0529
14209TIP3    H164118   0.750   6.568  11.665 -0.6303 -0.3112 -0.7272
14209TIP3    H264119   0.780   6.495  11.535  0.1076 -1.1363 -0.1092
14210TIP3   OH264120   6.069   1.718  13.950  0.2627  0.1648 -0.4382
14210TIP3    H164121   6.094   1.695  13.861  0.2895  1.3921 -0.7628
14210TIP3    H264122   6.103   1.647  14.004 -0.1333 -0.8205 -1.4423
14211TIP3   OH264123   1.189   1.067  11.168  0.3359  0.4721  0.1781
14211TIP3    H164124   1.095   1.065  11.186  0.1795 -1.3224 -0.5756
14211TIP3    H264125   1.196   1.111  11.083 -0.0528 -1.1677 -0.7369
14212TIP3   OH264126   5.321   0.579  16.892 -0.6545  0.2837  0.2038
14212TIP3    H164127   5.411   0.554  16.913 -0.2780  1.1318 -0.3322
14212TIP3    H264128   5.283   0.500  16.855 -0.2604 -0.2033  0.8071
14213TIP3   OH264129   1.591   5.684   4.337 -0.0927 -0.3492 -0.3922
14213TIP3    H164130   1.641   5.647   4.409 -1.8204 -0.1268  0.9886
14213TIP3    H264131   1.503   5.647   4.347 -0.6358  0.4520 -1.8008
14214TIP3   OH264132   5.602   4.330   0.889  0.5387 -0.1313  0.4297
14214TIP3    H164133   5.640   4.259   0.837 -1.2034 -0.7647 -0.0624
14214TIP3    H264134   5.515   4.298   0.912  0.1223  1.4274  1.1361
14215TIP3   OH264135   4.119   6.697  10.757 -0.0524 -0.0110 -0.3291
14215TIP3    H164136   4.178   6.751  10.809 -0.1295  0.4516 -0.7200
14215TIP3    H264137   4.170   6.671  10.681 -0.5136  0.8463 -0.9475
14216TIP3   OH264138   6.584   2.068   5.745  0.1648 -0.3488 -0.4257
14216TIP3    H164139   6.586   1.973   5.755  2.7205 -0.3507 -0.3677
14216TIP3    H264140   6.643   2.086   5.672 -1.2371  1.1583 -1.2635
14217TIP3   OH264141   4.995   3.032   3.677 -0.5538 -0.1901 -0.2240
14217TIP3    H164142   4.971   3.121   3.653  2.1276  0.9198  0.8678
14217TIP3    H264143   4.938   3.011   3.751 -0.3779  1.1234  0.3074
14218TIP3   OH264144   5.046   2.686   4.572  0.1690  0.5817  0.1125
14218TIP3    H164145   5.058   2.751   4.640  0.2586 -0.4339  1.0978
14218TIP3    H264146   5.055   2.602   4.617  0.2353 -0.1161 -1.1492
14219TIP3   OH264147   0.732   6.476  13.277 -0.3079  0.2668 -0.3152
14219TIP3    H164148   0.637   6.477  13.277 -0.3172 -0.2596 -0.2081
14219TIP3    H264149   0.757   6.562  13.311 -0.7438  0.3642 -0.2349
14220TIP3   OH264150   3.054   0.147   1.643 -0.0110  0.0445  0.3165
14220TIP3    H164151   3.101   0.139   1.560  0.8003  1.7244  0.5781
14220TIP3    H264152   3.123   0.152   1.709 -0.6340 -0.2567  0.9974
14221TIP3   OH264153   2.795   0.127   0.124 -0.2483 -0.6484 -0.5215
14221TIP3    H164154   2.767   0.172   0.044 -1.7813 -1.7713 -0.6759
14221TIP3    H264155   2.764   0.183   0.195 -1.9443 -1.2812 -0.7103
14222TIP3   OH264156   2.603   0.159  11.096  0.1381  0.2373 -0.1128
14222TIP3    H164157   2.682   0.182  11.145  0.3801 -0.0028 -0.3882
14222TIP3    H264158   2.620   0.189  11.007  0.1889 -0.4050 -0.3224
14223TIP3   OH264159   2.839   4.845   3.379 -0.6292  0.9067 -0.3360
14223TIP3    H164160   2.933   4.858   3.374 -0.4651 -0.3050 -0.7100
14223TIP3    H264161   2.827   4.751   3.366 -1.7898  0.8270  1.1017
14224TIP3   OH264162   4.298   0.857   5.403 -0.4478 -0.2813 -0.4572
14224TIP3    H164163   4.314   0.801   5.328 -0.1319  1.3128 -1.6499
14224TIP3    H264164   4.244   0.928   5.368 -1.0708  0.0157  1.0484
14225TIP3   OH264165   0.749   0.983  15.014  0.0644 -0.2970 -0.1319
14225TIP3    H164166   0.671   1.013  15.060  0.6416  0.4323  0.4087
14225TIP3    H264167   0.807   0.951  15.083 -0.3348 -2.2483 -0.6601
14226TIP3   OH264168   4.815   4.569   5.967 -1.1247  0.1103  0.1938
14226TIP3    H164169   4.895   4.517   5.972 -0.6908  0.8782  2.2759
14226TIP3    H264170   4.814   4.602   5.877 -0.4981 -1.9939 -0.6512
14227TIP3   OH264171   3.302   1.039   3.710  0.1186 -0.7655  0.6296
14227TIP3    H164172   3.352   1.117   3.736 -0.5873  0.5463 -1.6387
14227TIP3    H264173   3.344   1.010   3.629 -1.8761 -0.4283 -0.6021
14228TIP3   OH264174   6.618   4.058  15.282 -0.1511 -0.4367  0.4020
14228TIP3    H164175   6.591   3.990  15.344 -2.9902  0.8639  0.7684
14228TIP3    H264176   6.661   4.125  15.337  0.7738 -0.9693  0.3468
14229TIP3   OH264177   0.616   2.178  15.360  0.2908 -0.5678  0.2227
14229TIP3    H164178   0.693   2.191  15.304  0.3322 -0.1035  0.3859
14229TIP3    H264179   0.642   2.212  15.445 -0.4202  0.5078  0.0320
14230TIP3   OH264180   0.097   5.701   3.801  0.4655  0.1197 -0.0162
14230TIP3    H164181   0.169   5.752   3.764 -0.8626  0.6939 -1.9261
14230TIP3    H264182   0.031   5.766   3.826  0.7622 -0.3469  2.2783
14231TIP3   OH264183   0.881   6.103  15.823  0.4021 -0.4440  0.3871
14231TIP3    H164184   0.951   6.047  15.855  0.0938 -1.3006 -0.3961
14231TIP3    H264185   0.844   6.055  15.749  0.3150  0.9026 -0.4916
14232TIP3   OH264186   5.929   5.748  13.591 -0.2616  1.1031 -0.6966
14232TIP3    H164187   5.838   5.719  13.596  0.3525 -0.9615  3.2249
14232TIP3    H264188   5.979   5.667  13.578  1.1720  1.0062  3.6608
14233TIP3   OH264189   3.968   4.922  11.598  0.0190  0.0676 -0.4768
14233TIP3    H164190   4.041   4.877  11.642  1.8805  1.2649 -2.1582
14233TIP3    H264191   3.968   4.887  11.509  0.6749  2.3341 -1.4458
14234TIP3   OH264192   3.496   5.794  12.617  0.2243 -0.3749  0.7039
14234TIP3    H164193   3.510   5.760  12.529 -0.3504 -0.9903  0.8448
14234TIP3    H264194   3.535   5.728  12.675 -1.0983 -0.9425  0.9878
14235TIP3   OH264195   1.087   1.417   2.095 -0.5419 -0.0357 -0.4684
14235TIP3    H164196   1.161   1.432   2.036 -0.1631  2.6428  0.5231
14235TIP3    H264197   1.119   1.351   2.157  0.7574  0.5080 -0.5244
14236TIP3   OH264198   1.938   1.985   6.618  0.2877 -0.1057 -1.0323
14236TIP3    H164199   1.864   2.014   6.672  1.5490 -0.4742  0.9778
14236TIP3    H264200   1.897   1.952   6.538 -1.7570 -0.5088  0.0999
14237TIP3   OH264201   5.308   1.503  12.057  0.7604  0.4193 -1.2963
14237TIP3    H164202   5.218   1.523  12.034  0.4056  0.7424  0.2673
14237TIP3    H264203   5.347   1.472  11.975 -1.5648 -2.6551 -1.4282
14238TIP3   OH264204   5.092   5.946   3.212 -0.9198 -0.0761  0.0870
14238TIP3    H164205   5.082   5.970   3.120 -0.5658 -0.7401 -0.1304
14238TIP3    H264206   5.033   5.871   3.225 -0.4286 -0.4512  0.2071
14239TIP3   OH264207   5.324   2.195  13.299  0.8197  0.0394  0.2925
14239TIP3    H164208   5.341   2.285  13.272 -0.2093  0.2518  0.3171
14239TIP3    H264209   5.356   2.142  13.226  0.4649  0.4857 -0.1975
14240TIP3   OH264210   4.139   2.353   4.767  0.2944 -0.0428  0.9029
14240TIP3    H164211   4.073   2.288   4.789  0.8368 -1.8760 -2.1971
14240TIP3    H264212   4.210   2.339   4.829 -0.5612 -0.8350  1.7195
14241TIP3   OH264213   4.545   4.116   2.858 -0.0777 -0.1428 -0.0698
14241TIP3    H164214   4.625   4.162   2.836  0.6074 -0.6755  1.2504
14241TIP3    H264215   4.491   4.180   2.904  0.4618 -0.3669  0.8840
14242TIP3   OH264216   3.376   6.521  11.954  0.1987 -0.0457  0.2028
14242TIP3    H164217   3.310   6.453  11.966 -0.2742  0.4617  0.5468
14242TIP3    H264218   3.432   6.515  12.031  0.5546 -0.4728 -0.0869
14243TIP3   OH264219   4.499   2.092   4.855  0.5358  0.4580  0.2067
14243TIP3    H164220   4.448   2.029   4.803 -1.2646  1.2783  0.9040
14243TIP3    H264221   4.560   2.130   4.792  0.2053 -0.4775 -0.7083
14244TIP3   OH264222   0.279   6.028  12.554 -0.0472 -0.4083  0.3460
14244TIP3    H164223   0.367   6.039  12.590  0.3151 -1.5755 -0.1453
14244TIP3    H264224   0.274   6.090  12.481  0.5151 -0.6340  0.1134
14245TIP3   OH264225   3.684   6.538  17.267 -0.0490  0.0298 -0.5666
14245TIP3    H164226   3.609   6.479  17.258 -0.0900 -0.2100  1.0057
14245TIP3    H264227   3.676   6.574  17.355  1.1640  0.7510 -0.7185
14246TIP3   OH264228   2.011   5.336  16.038 -0.1372 -0.3510 -0.2820
14246TIP3    H164229   1.990   5.398  16.108 -0.0555  0.3602 -0.8764
14246TIP3    H264230   1.931   5.285  16.026  0.0413 -0.9003  0.7446
14247TIP3   OH264231   3.567   4.837  11.551 -0.0667 -0.4435 -0.5840
14247TIP3    H164232   3.568   4.883  11.635  1.6090 -1.6329  0.1094
14247TIP3    H264233   3.621   4.890  11.493  0.2348 -0.5260 -0.3794
14248TIP3   OH264234   6.111   4.090  12.527 -0.1136  0.4906 -0.0162
14248TIP3    H164235   6.091   4.005  12.488 -0.6623  0.2010  0.8459
14248TIP3    H264236   6.206   4.098  12.520 -0.1477  0.2268 -0.9312
14249TIP3   OH264237   4.471   4.918  13.966 -0.2512 -0.2536  0.4638
14249TIP3    H164238   4.540   4.867  14.008 -0.6689 -1.1026  0.1343
14249TIP3    H264239   4.503   5.008  13.968  1.2654 -0.7427 -0.4973
14250TIP3   OH264240   1.711   1.096   5.522  0.8599  0.1389  0.1695
14250TIP3    H164241   1.636   1.052   5.481  0.1244  0.5358  1.0337
14250TIP3    H264242   1.678   1.184   5.543  1.2969  0.0545  1.3032
14251TIP3   OH264243   3.799   3.215   4.647  0.1035  0.3839 -0.1033
14251TIP3    H164244   3.797   3.122   4.626 -0.6462 -0.2148  2.2789
14251TIP3    H264245   3.892   3.236   4.653  0.3009 -0.6906  1.0649
14252TIP3   OH264246   4.622   5.919  17.345 -0.0673  0.3794 -0.3661
14252TIP3    H164247   4.669   5.862  17.284 -0.4382  2.0640 -2.3473
14252TIP3    H264248   4.669   6.003  17.340 -0.9241  0.9428  0.6488
14253TIP3   OH264249   5.177   1.281   6.088  0.6619 -0.2804 -0.5411
14253TIP3    H164250   5.133   1.225   6.024 -1.0647  0.1376  0.2168
14253TIP3    H264251   5.196   1.222   6.161 -0.5199 -0.0549 -0.0333
14254TIP3   OH264252   4.041   6.404  11.696  0.2211 -0.4593 -0.5102
14254TIP3    H164253   4.023   6.332  11.756 -0.4230 -0.7034 -0.9888
14254TIP3    H264254   4.105   6.368  11.635  1.6957  0.1183  0.6346
14255TIP3   OH264255   3.656   5.850   0.405  0.1560  0.1854 -0.3696
14255TIP3    H164256   3.601   5.835   0.329  0.6264 -0.8757 -0.5246
14255TIP3    H264257   3.602   5.902   0.464 -0.8032 -0.3562 -0.7449
14256TIP3   OH264258   4.672   3.952   0.552  0.3654  0.1353  0.1827
14256TIP3    H164259   4.646   3.861   0.566  0.7877  0.2699  2.2380
14256TIP3    H264260   4.714   3.952   0.466 -0.6240 -1.3662 -0.3532
14257TIP3   OH264261   1.774   1.938  13.017  0.5220  0.2235 -0.2082
14257TIP3    H164262   1.718   1.919  12.941  0.9532 -1.5495 -0.1243
14257TIP3    H264263   1.818   1.855  13.035  1.5101  1.0059  1.1077
14258TIP3   OH264264   4.200   5.194   1.758  0.4117  0.0809  0.0842
14258TIP3    H164265   4.168   5.231   1.676 -0.0770  0.4089  0.4135
14258TIP3    H264266   4.268   5.256   1.786  0.3179  0.1721  0.1124
14259TIP3   OH264267   5.835   2.987   0.423  0.2983 -0.3631 -0.0758
14259TIP3    H164268   5.879   3.047   0.362 -0.2322  0.9913  0.8259
14259TIP3    H264269   5.760   3.037   0.455 -0.3669 -1.6523  0.4608
14260TIP3   OH264270   4.296   5.051   0.447  0.0464 -0.1829 -0.0527
14260TIP3    H164271   4.338   5.086   0.368  0.6899  1.3390  0.9255
14260TIP3    H264272   4.361   4.992   0.485  0.0427 -0.3147 -0.2508
14261TIP3   OH264273   5.896   4.623   2.380 -0.4139  0.2598 -0.4982
14261TIP3    H164274   5.880   4.668   2.297  0.2959 -2.2805 -2.0927
14261TIP3    H264275   5.947   4.686   2.431 -1.7793  2.2996 -1.4848
14262TIP3   OH264276   4.405   3.783  12.685 -0.4524  0.4341 -0.8959
14262TIP3    H164277   4.470   3.845  12.654  0.6774  0.3637  1.1625
14262TIP3    H264278   4.433   3.761  12.774 -1.7903 -1.6975 -0.9360
14263TIP3   OH264279   2.298   2.880  17.037  0.6322  0.0664  0.0531
14263TIP3    H164280   2.328   2.837  17.117  2.0377  1.7568  0.5051
14263TIP3    H264281   2.348   2.961  17.033  0.1518  0.3287 -2.2406
14264TIP3   OH264282   1.503   2.656   5.487 -0.3936 -0.5266 -0.4573
14264TIP3    H164283   1.423   2.691   5.527  0.9125  1.5120  0.5752
14264TIP3    H264284   1.483   2.565   5.467 -1.9886 -0.9707  2.5809
14265TIP3   OH264285   2.377   2.433   2.727 -0.2796 -0.5427 -0.1567
14265TIP3    H164286   2.435   2.436   2.802 -0.9764 -2.0901  0.5053
14265TIP3    H264287   2.329   2.515   2.729  1.7182  0.6982 -0.6361
14266TIP3   OH264288   3.008   1.978  15.837  0.6928 -0.6496 -0.3065
14266TIP3    H164289   3.053   2.062  15.849  1.3505 -0.7008 -2.0791
14266TIP3    H264290   2.956   1.990  15.758 -2.1605 -0.7487  1.4186
14267TIP3   OH264291   5.439   1.347  12.458 -0.8632 -0.2867  0.8623
14267TIP3    H164292   5.358   1.383  12.421 -0.0514  0.5307 -0.1709
14267TIP3    H264293   5.477   1.418  12.509  0.3146  0.0956 -0.4858
14268TIP3   OH264294   4.589   4.636   4.519 -0.1901 -0.3262  0.2327
14268TIP3    H164295   4.555   4.560   4.566 -1.0599 -0.0413  0.0917
14268TIP3    H264296   4.598   4.703   4.587 -0.0778 -0.3507  0.2413
14269TIP3   OH264297   4.451   2.710   1.992  0.3879 -0.3639  0.3141
14269TIP3    H164298   4.545   2.704   1.973  0.2548  0.1915 -0.5654
14269TIP3    H264299   4.427   2.800   1.970 -0.2971 -0.4087  0.8256
14270TIP3   OH264300   0.710   4.810   4.325  0.6010 -0.1491  0.5295
14270TIP3    H164301   0.664   4.748   4.381 -1.0311  0.4628 -0.0775
14270TIP3    H264302   0.642   4.851   4.272  2.1268 -1.2007 -2.4767
14271TIP3   OH264303   4.514   6.764   2.293  0.2180 -0.0454  0.0346
14271TIP3    H164304   4.587   6.826   2.296 -0.1910  0.4206  1.1290
14271TIP3    H264305   4.545   6.688   2.343 -0.1308  0.2845  0.7842
14272TIP3   OH264306   4.204   0.553  16.796 -0.5792  0.4941 -0.2692
14272TIP3    H164307   4.192   0.647  16.787  1.1845  0.7006 -1.0802
14272TIP3    H264308   4.256   0.543  16.876 -1.3680  0.1343  0.2096
14273TIP3   OH264309   5.279   0.974  15.815  0.1725 -0.1328  0.1983
14273TIP3    H164310   5.352   0.952  15.874  0.9623 -1.2669 -1.1371
14273TIP3    H264311   5.252   0.890  15.778 -1.1930  0.3973 -0.0527
14274TIP3   OH264312   3.339   0.124   6.787 -0.3247 -0.2566  0.2448
14274TIP3    H164313   3.272   0.087   6.728 -0.7008  1.0894 -0.2063
14274TIP3    H264314   3.343   0.062   6.860 -1.7954 -0.5675  0.0987
14275TIP3   OH264315   4.722   0.910  14.079  0.0310  0.2017 -0.0361
14275TIP3    H164316   4.684   0.850  14.143  0.7778 -1.5523 -1.1283
14275TIP3    H264317   4.661   0.908  14.005 -0.3561  1.4744  0.2253
14276TIP3   OH264318   5.999   2.275  15.149 -0.2241 -0.6628  0.1779
14276TIP3    H164319   6.088   2.288  15.181 -0.3478  0.0298  0.2456
14276TIP3    H264320   6.002   2.190  15.105  0.5428 -0.5149 -0.0716
14277TIP3   OH264321   5.935   0.579  15.522  0.0762 -0.2834 -0.3416
14277TIP3    H164322   5.981   0.612  15.445 -2.9613  1.6291 -1.5348
14277TIP3    H264323   5.870   0.647  15.542  0.7605 -0.6364  4.0424
14278TIP3   OH264324   5.988   5.245  12.589 -0.1951 -0.1782  0.2235
14278TIP3    H164325   5.933   5.314  12.628  0.3439  0.2094  0.2991
14278TIP3    H264326   5.951   5.232  12.501  0.1806  0.7581 -0.0810
14279TIP3   OH264327   2.200   2.263   4.951  0.5130  0.8422  0.2583
14279TIP3    H164328   2.290   2.257   4.984 -0.0799 -0.0902  1.8633
14279TIP3    H264329   2.193   2.351   4.915  1.0517  2.3513  3.4569
14280TIP3   OH264330   4.358   4.092   5.571 -0.4554 -0.6877  0.6109
14280TIP3    H164331   4.303   4.094   5.649  0.2315  0.3401  1.0997
14280TIP3    H264332   4.447   4.100   5.605 -0.1698  0.1316 -0.2915
14281TIP3   OH264333   2.993   3.670  15.063 -0.9904  0.4035  0.0012
14281TIP3    H164334   2.964   3.636  14.978 -1.8554 -0.4881  0.6226
14281TIP3    H264335   3.077   3.626  15.079 -2.6435 -2.6457  1.3530
14282TIP3   OH264336   6.448   3.202  16.770 -0.4092 -0.2461  0.2160
14282TIP3    H164337   6.384   3.159  16.713 -0.6782 -0.8326  0.9501
14282TIP3    H264338   6.526   3.146  16.765 -0.1519  0.1451 -0.2103
14283TIP3   OH264339   1.630   3.188  16.559 -0.1752 -0.1945 -0.2789
14283TIP3    H164340   1.666   3.108  16.596  0.5874  0.3444  0.1816
14283TIP3    H264341   1.621   3.169  16.465  0.1052 -0.7724 -0.1935
14284TIP3   OH264342   4.987   3.779  16.132 -0.0075  0.3373 -0.1783
14284TIP3    H164343   4.957   3.689  16.118  0.6744  0.1176 -0.2952
14284TIP3    H264344   5.047   3.795  16.059  1.2956  0.2388  0.8302
14285TIP3   OH264345   5.205   5.284   1.817  0.1052  0.0283  0.0294
14285TIP3    H164346   5.204   5.355   1.753  1.2518  1.0148  1.0366
14285TIP3    H264347   5.298   5.261   1.825  0.0323  0.1997  1.6077
14286TIP3   OH264348   0.504   5.495  16.358 -0.3630  0.2953 -0.4654
14286TIP3    H164349   0.483   5.486  16.265 -1.4238 -0.1553 -0.2002
14286TIP3    H264350   0.486   5.587  16.378 -1.8787 -0.0076 -0.3174
14287TIP3   OH264351   0.350   3.120  14.014 -0.6936  0.1500 -0.5566
14287TIP3    H164352   0.294   3.197  14.026 -1.3295  0.2419 -3.3096
14287TIP3    H264353   0.297   3.060  13.961  0.6638 -1.1653 -0.4948
14288TIP3   OH264354   0.090   3.838   1.508  0.0286  0.4909  0.5103
14288TIP3    H164355   0.047   3.919   1.534  0.1118  1.7977 -2.9541
14288TIP3    H264356   0.182   3.862   1.496  0.2807 -0.4072  0.5755
14289TIP3   OH264357   2.658   4.379   3.284 -0.0213  0.7878  0.4352
14289TIP3    H164358   2.578   4.406   3.327 -1.9446 -0.9070 -1.7598
14289TIP3    H264359   2.660   4.284   3.294 -0.3022  0.3654 -2.5760
14290TIP3   OH264360   6.604   2.387  15.157 -0.7584  0.4313  0.0176
14290TIP3    H164361   6.612   2.352  15.068 -1.9360 -0.7077  0.3215
14290TIP3    H264362   6.576   2.312  15.210  0.4034  0.9682  1.4705
14291TIP3   OH264363   1.599   2.895   3.771  0.0409 -0.3805 -0.5436
14291TIP3    H164364   1.678   2.902   3.824 -0.4296  0.1767  0.1030
14291TIP3    H264365   1.630   2.901   3.681  0.5765  2.0594 -0.2763
14292TIP3   OH264366   1.064   4.275   4.285  0.0876  0.1324 -0.5494
14292TIP3    H164367   1.101   4.255   4.199 -1.5142 -0.5551 -1.1126
14292TIP3    H264368   1.139   4.276   4.344  1.2105  0.5693 -1.9444
14293TIP3   OH264369   0.639   5.977  15.102  0.3276  0.2781 -0.1915
14293TIP3    H164370   0.650   5.956  15.010 -3.6359  0.8221 -0.9440
14293TIP3    H264371   0.641   6.072  15.106  1.3766  0.2509  0.4992
14294TIP3   OH264372   4.873   6.300  17.152 -0.3352  0.1911 -0.0948
14294TIP3    H164373   4.812   6.268  17.085  2.3805 -0.5572 -2.3941
14294TIP3    H264374   4.917   6.375  17.110 -0.5958  1.6062  2.0193
14295TIP3   OH264375   6.103   5.511  15.588 -0.2400  1.0641 -0.5679
14295TIP3    H164376   6.126   5.488  15.678 -0.6506 -0.5842 -0.8484
14295TIP3    H264377   6.014   5.547  15.594 -0.8101 -0.2904 -0.4324
14296TIP3   OH264378   3.897   1.732   2.515  0.3797 -0.0048 -0.2815
14296TIP3    H164379   3.903   1.697   2.426  0.0430 -0.3774 -0.1621
14296TIP3    H264380   3.914   1.825   2.505  1.0994 -0.1652 -0.6327
14297TIP3   OH264381   3.091   1.611  16.806  0.0072  0.4259 -0.3714
14297TIP3    H164382   3.003   1.574  16.810 -0.7657  2.2498  1.3131
14297TIP3    H264383   3.077   1.701  16.777  1.1697  1.1159  1.1253
14298TIP3   OH264384   0.804   5.058  12.106  0.3313 -0.2232  0.4731
14298TIP3    H164385   0.796   5.153  12.098  0.9275 -0.1335  0.8642
14298TIP3    H264386   0.762   5.037  12.190 -0.7888 -0.4517 -0.1229
14299TIP3   OH264387   2.872   5.426  11.286 -0.6410  0.1033  0.3403
14299TIP3    H164388   2.813   5.493  11.323  0.5950  0.3500  1.9794
14299TIP3    H264389   2.940   5.476  11.241 -0.0718 -0.0504  1.0114
14300TIP3   OH264390   5.835   4.328  16.253 -0.3298  0.2142 -0.3427
14300TIP3    H164391   5.803   4.273  16.182 -0.7614 -2.1092  1.5003
14300TIP3    H264392   5.760   4.339  16.311  0.1163  1.6742  0.0116
14301TIP3   OH264393   1.665   4.743  12.915 -0.0370 -0.0144 -0.2778
14301TIP3    H164394   1.571   4.751  12.900 -0.1149 -0.4429 -0.0312
14301TIP3    H264395   1.692   4.672  12.857  0.1139  0.0259 -0.2590
14302TIP3   OH264396   6.761   2.574   5.442 -0.1366 -0.3197  0.0200
14302TIP3    H164397   6.708   2.651   5.463 -0.7844 -0.9194  0.6205
14302TIP3    H264398   6.735   2.508   5.506  0.2139 -1.1328 -0.6530
14303TIP3   OH264399   6.158   5.730  12.970 -0.3083  0.0669  0.7886
14303TIP3    H164400   6.242   5.767  12.998 -0.0575 -0.4236  0.6903
14303TIP3    H264401   6.099   5.746  13.043 -0.2470  0.8108  0.6859
14304TIP3   OH264402   1.000   0.072   1.605 -0.0868 -0.4505  0.5534
14304TIP3    H164403   1.088   0.111   1.607 -0.5002  0.4873  0.9885
14304TIP3    H264404   0.959   0.103   1.686 -1.0721 -0.3072  0.0024
14305TIP3   OH264405   1.012   2.110  14.249  0.2131  0.3867  0.6697
14305TIP3    H164406   0.925   2.139  14.274  0.1378  0.3174  0.4939
14305TIP3    H264407   1.001   2.076  14.160  0.5454  0.9993  0.3821
14306TIP3   OH264408   4.445   3.109   0.243  0.0244  0.1071  0.1659
14306TIP3    H164409   4.392   3.172   0.291 -0.9228  0.0482 -0.7676
14306TIP3    H264410   4.408   3.023   0.266 -0.0707  0.0414 -0.2232
14307TIP3   OH264411   1.197   1.776  10.873 -0.1502  0.0483  0.7071
14307TIP3    H164412   1.134   1.706  10.854 -0.6254  0.6449  0.0061
14307TIP3    H264413   1.226   1.805  10.787  0.1835  0.5837  1.0001
14308TIP3   OH264414   4.366   4.157  15.214 -0.1505 -0.2628  0.0254
14308TIP3    H164415   4.360   4.074  15.261 -0.7024 -0.1888  0.1027
14308TIP3    H264416   4.360   4.133  15.122  3.0940 -0.6188 -0.2095
14309TIP3   OH264417   0.881   2.551  12.659 -0.0618 -0.2373  0.0602
14309TIP3    H164418   0.877   2.552  12.755 -2.1734  2.2218  0.0769
14309TIP3    H264419   0.791   2.573  12.632  0.8476  0.7471 -2.4322
14310TIP3   OH264420   2.465   2.318  16.302  0.5621  0.2541  0.2750
14310TIP3    H164421   2.553   2.307  16.267  0.1949 -0.5267 -0.4487
14310TIP3    H264422   2.428   2.391  16.253  0.6116  0.2094  0.1706
14311TIP3   OH264423   4.860   2.864  17.353  0.3449 -0.1568 -0.3000
14311TIP3    H164424   4.810   2.862  17.435  0.2908  2.8758 -0.1355
14311TIP3    H264425   4.800   2.828  17.288 -0.1733 -1.2186  0.7167
14312TIP3   OH264426   5.738   1.175  13.115  0.2496 -0.2462  0.3951
14312TIP3    H164427   5.799   1.246  13.098 -0.4036  0.4863  1.0293
14312TIP3    H264428   5.717   1.183  13.208  1.1278 -2.0543  0.7962
14313TIP3   OH264429   4.232   4.265  14.535  0.1910 -0.4605 -0.1051
14313TIP3    H164430   4.281   4.187  14.509 -1.0103 -1.4922  0.6125
14313TIP3    H264431   4.166   4.276  14.466  0.3400 -0.0872 -0.1907
14314TIP3   OH264432   6.259   2.994   0.422 -0.0421  0.1283  0.2771
14314TIP3    H164433   6.331   3.056   0.437  0.0391  0.2373 -0.5028
14314TIP3    H264434   6.247   2.995   0.327  0.7067 -1.8814  0.1070
14315TIP3   OH264435   1.206   4.796  11.580  0.0403 -0.5790 -0.0075
14315TIP3    H164436   1.171   4.754  11.501  1.7443  1.2292 -1.8307
14315TIP3    H264437   1.295   4.761  11.587  0.6251  0.8340 -0.1419
14316TIP3   OH264438   3.824   3.804  16.789 -0.1872  0.0390 -0.1729
14316TIP3    H164439   3.900   3.820  16.733  0.6032  0.5302  1.0005
14316TIP3    H264440   3.765   3.752  16.735 -0.6851  2.7691 -2.4337
14317TIP3   OH264441   6.039   3.352  16.682 -0.0940 -0.1301 -0.2141
14317TIP3    H164442   6.010   3.262  16.697 -2.2605  0.5794  0.1476
14317TIP3    H264443   6.081   3.350  16.596  0.3856 -1.5782  0.0304
14318TIP3   OH264444   3.567   2.359  10.580  0.2299 -0.6017  0.3166
14318TIP3    H164445   3.499   2.375  10.645  0.6783  0.1085  0.6234
14318TIP3    H264446   3.649   2.382  10.624  0.6205 -0.9300 -0.2219
14319TIP3   OH264447   5.164   0.967  13.191 -0.0463 -0.4347 -0.0465
14319TIP3    H164448   5.187   1.034  13.127  1.3206 -0.3906  0.4666
14319TIP3    H264449   5.087   1.001  13.235 -0.6998 -0.2287 -1.2997
14320TIP3   OH264450   0.748   4.458  17.391 -0.0832 -0.1961 -0.0848
14320TIP3    H164451   0.821   4.479  17.450 -0.2369 -0.4061  0.1825
14320TIP3    H264452   0.771   4.501  17.308 -0.5640  1.3496  0.5515
14321TIP3   OH264453   6.036   2.325  14.172 -0.0046 -0.1400  0.1511
14321TIP3    H164454   6.041   2.304  14.265 -1.1247 -2.4643 -0.2433
14321TIP3    H264455   6.035   2.240  14.128  2.6904  0.8775 -2.1721
14322TIP3   OH264456   0.224   3.399  16.582  0.1549  0.3999 -0.8383
14322TIP3    H164457   0.199   3.307  16.589 -1.1418  0.7932  0.2062
14322TIP3    H264458   0.264   3.419  16.666  1.3933  0.5381 -1.4477
14323TIP3   OH264459   4.743   4.985  14.228  0.2911 -0.4854  0.1536
14323TIP3    H164460   4.822   5.034  14.253  0.2767  0.6889 -1.8708
14323TIP3    H264461   4.710   5.032  14.151 -2.2084 -1.1548  0.7485
14324TIP3   OH264462   0.754   6.589  15.894  0.0585 -0.4726 -0.2761
14324TIP3    H164463   0.838   6.632  15.875 -0.3662  1.4164  1.6808
14324TIP3    H264464   0.778   6.498  15.913  1.4371 -0.3710 -1.3459
14325TIP3   OH264465   0.767   3.878   2.879  0.2483  0.7161  0.2493
14325TIP3    H164466   0.732   3.793   2.907  0.1670  0.4529 -0.6133
14325TIP3    H264467   0.777   3.928   2.960  1.1677 -0.4367  0.8945
14326TIP3   OH264468   2.471   1.936  12.384 -0.6639  0.6635  0.2581
14326TIP3    H164469   2.532   2.004  12.411  0.6645 -0.2576 -0.3109
14326TIP3    H264470   2.519   1.886  12.317 -1.6020 -0.8038  0.6421
14327TIP3   OH264471   6.664   5.434   1.058  0.6757  0.3686  0.2788
14327TIP3    H164472   6.625   5.492   1.123 -1.0341 -0.2817 -0.1264
14327TIP3    H264473   6.651   5.346   1.094  1.6876  0.1255  0.0797
14328TIP3   OH264474   4.835   4.716   2.262 -0.4726 -0.2291 -0.2414
14328TIP3    H164475   4.882   4.641   2.300  0.3407  0.1980 -0.3890
14328TIP3    H264476   4.773   4.677   2.201 -0.6614 -0.8316  0.3159
14329TIP3   OH264477   4.599   4.799  11.353 -0.0615  0.4905 -0.1811
14329TIP3    H164478   4.612   4.759  11.439  0.7292  0.0073 -0.5185
14329TIP3    H264479   4.589   4.892  11.371 -0.4196  0.3326  0.4811
14330TIP3   OH264480   0.686   3.776  11.496  0.4838 -0.0684  0.3399
14330TIP3    H164481   0.697   3.706  11.432 -0.2962  0.1945 -0.0949
14330TIP3    H264482   0.618   3.832  11.459  1.3649  1.1490  0.4865
14331TIP3   OH264483   5.796   4.898  11.514 -0.4853 -0.3609  0.4955
14331TIP3    H164484   5.794   4.993  11.504 -1.9750 -0.4298 -0.0408
14331TIP3    H264485   5.852   4.868  11.442 -2.4594 -0.0711 -1.2528
14332TIP3   OH264486   6.017   6.540  17.330  0.6511 -0.2847  0.6295
14332TIP3    H164487   5.930   6.579  17.318  0.6181 -0.7364 -0.7635
14332TIP3    H264488   6.025   6.529  17.424 -0.4717  0.5170  0.8434
14333TIP3   OH264489   4.101   0.764  17.486 -0.6440  0.2966  0.2482
14333TIP3    H164490   4.080   0.770  17.579 -0.7846  1.7406  0.1511
14333TIP3    H264491   4.191   0.732  17.483 -0.5990  0.3623  0.8897
14334TIP3   OH264492   2.214   6.458  12.799  0.1533  0.0435 -0.1174
14334TIP3    H164493   2.270   6.520  12.845 -1.2157 -0.0405  1.7643
14334TIP3    H264494   2.209   6.382  12.857  1.5954 -1.8375 -2.2470
14335TIP3   OH264495   3.924   1.525   6.536 -0.5198  0.0036 -0.5103
14335TIP3    H164496   3.835   1.546   6.563  0.4797  1.3188  2.1409
14335TIP3    H264497   3.979   1.589   6.581  2.0131 -2.7319  0.6995
14336TIP3   OH264498   2.417   5.969  11.183  0.2982  0.1658 -0.0888
14336TIP3    H164499   2.451   6.052  11.216  0.3332  0.3087 -0.4764
14336TIP3    H264500   2.378   5.992  11.098 -0.5782 -0.0329  0.2574
14337TIP3   OH264501   3.815   0.894  11.859  0.0512 -0.4976 -0.0378
14337TIP3    H164502   3.812   0.959  11.929 -1.0755 -0.8674  0.2686
14337TIP3    H264503   3.743   0.917  11.801 -0.4063 -1.5067  0.1087
14338TIP3   OH264504   4.908   5.545   4.831 -0.4303  0.0914 -0.2734
14338TIP3    H164505   4.841   5.476   4.835  0.4337 -0.6858  1.8141
14338TIP3    H264506   4.990   5.497   4.825  0.0637  1.0353 -1.6751
14339TIP3   OH264507   3.738   4.249   2.715 -0.2505  0.3534 -0.6893
14339TIP3    H164508   3.768   4.317   2.654  1.4425  0.0691 -0.2426
14339TIP3    H264509   3.794   4.173   2.695 -1.6406 -0.7046 -0.7185
14340TIP3   OH264510   5.441   1.063   5.341 -0.1945  0.0692 -0.0916
14340TIP3    H164511   5.370   1.004   5.365 -1.6269  1.6690 -0.2369
14340TIP3    H264512   5.400   1.149   5.332  1.7978  1.1056  0.0346
14341TIP3   OH264513   2.780   2.440   5.017  0.3392  0.1553  0.5923
14341TIP3    H164514   2.819   2.361   5.055  3.4275  1.8433  1.2856
14341TIP3    H264515   2.760   2.416   4.927 -0.6032 -1.9281  1.3010
14342TIP3   OH264516   1.334   5.198   1.692 -0.2322 -0.3935 -0.1809
14342TIP3    H164517   1.243   5.169   1.685  0.0365 -1.4418  0.5223
14342TIP3    H264518   1.329   5.287   1.726 -0.9997 -0.3771 -0.3279
14343TIP3   OH264519   2.329   0.107   5.490 -0.2952  0.2530 -0.4863
14343TIP3    H164520   2.291   0.019   5.491  2.0583 -0.8455  0.0791
14343TIP3    H264521   2.332   0.133   5.582  2.8387 -0.9753 -0.1020
14344TIP3   OH264522   5.329   4.102   0.159 -0.2561 -0.2991 -0.9938
14344TIP3    H164523   5.357   4.044   0.088 -2.5644 -1.1567 -1.2896
14344TIP3    H264524   5.264   4.051   0.208  0.8990  0.4631  1.4646
14345TIP3   OH264525   6.277   0.569  13.738 -0.2396  0.2757 -0.8573
14345TIP3    H164526   6.217   0.615  13.679 -0.6508 -1.4303 -1.8356
14345TIP3    H264527   6.243   0.587  13.825 -1.4244  0.3965 -1.3221
14346TIP3   OH264528   4.792   4.507  17.336 -0.0912  0.2680  0.0412
14346TIP3    H164529   4.859   4.518  17.269 -0.1401  0.9220  0.0953
14346TIP3    H264530   4.834   4.457  17.405  0.5809  1.3067  0.4085
14347TIP3   OH264531   2.616   5.974   5.502  0.3268  0.2859  0.4087
14347TIP3    H164532   2.608   6.029   5.580  0.0757 -0.4364  0.9083
14347TIP3    H264533   2.643   5.888   5.536 -1.8215 -0.6408 -0.0525
14348TIP3   OH264534   4.793   3.525  15.767  0.8017 -0.7118 -0.3114
14348TIP3    H164535   4.884   3.502  15.789  0.6537 -1.6729 -0.6327
14348TIP3    H264536   4.742   3.493  15.841  0.7296 -0.0761 -0.0828
14349TIP3   OH264537   1.840   2.443   1.964  0.2324  0.2427 -0.6250
14349TIP3    H164538   1.878   2.489   2.038  2.1685  0.4863 -1.6971
14349TIP3    H264539   1.868   2.493   1.887  0.9996 -1.7444 -1.7097
14350TIP3   OH264540   6.442   3.181  14.486  0.3941  0.0982 -0.0137
14350TIP3    H164541   6.354   3.151  14.507  0.1659  0.2878 -0.6879
14350TIP3    H264542   6.499   3.132  14.546 -0.1183 -0.4198  0.0542
14351TIP3   OH264543   0.620   6.763  13.624 -0.6382 -0.0245 -0.3669
14351TIP3    H164544   0.534   6.730  13.648 -1.3376  1.2872 -1.0111
14351TIP3    H264545   0.628   6.846  13.672  0.2312 -0.0848 -0.3875
14352TIP3   OH264546   0.312   0.896  13.524  0.6468  0.2588  0.2337
14352TIP3    H164547   0.358   0.939  13.452  0.4166  0.2452  0.0787
14352TIP3    H264548   0.357   0.812  13.535  0.4569  0.1067 -0.1300
14353TIP3   OH264549   6.301   5.404   5.702  0.3017 -0.3138  0.4808
14353TIP3    H164550   6.219   5.441   5.670  0.1326 -0.0950  1.1660
14353TIP3    H264551   6.292   5.401   5.797  0.5407 -1.5929  0.4795
14354TIP3   OH264552   0.449   2.678   4.757 -0.0404 -0.3623  0.3871
14354TIP3    H164553   0.447   2.756   4.812 -2.6678 -1.1714  1.5945
14354TIP3    H264554   0.366   2.682   4.708  0.6149 -1.4917 -0.8676
14355TIP3   OH264555   4.328   5.800  16.381  0.2157 -0.1069  0.4665
14355TIP3    H164556   4.261   5.796  16.313 -1.3187 -2.0768  1.9711
14355TIP3    H264557   4.390   5.866  16.350 -0.9663 -0.1644 -2.2972
14356TIP3   OH264558   1.860   6.246  15.926 -0.0138 -0.0600 -0.1831
14356TIP3    H164559   1.873   6.190  15.850  0.1875 -0.0152 -0.1817
14356TIP3    H264560   1.768   6.271  15.922  0.3679  1.3224 -1.3599
14357TIP3   OH264561   2.014   5.906  14.572 -0.2146 -0.6168 -0.0262
14357TIP3    H164562   2.059   5.988  14.553 -1.1674  0.0577  0.5474
14357TIP3    H264563   2.082   5.851  14.612  0.1382  0.3424  0.7385
14358TIP3   OH264564   0.355   5.828   2.968  0.0259  0.4063 -0.7092
14358TIP3    H164565   0.442   5.796   2.946 -0.4607 -1.0915 -0.6106
14358TIP3    H264566   0.367   5.880   3.048  0.6272 -1.1930  0.2929
14359TIP3   OH264567   0.010   3.033  15.348  0.3953 -0.4875 -0.4229
14359TIP3    H164568  -0.050   3.097  15.385  0.8021 -1.2101  1.6320
14359TIP3    H264569  -0.044   2.955  15.334 -0.0611  0.1706 -2.7543
14360TIP3   OH264570   2.521   3.512  14.598 -0.0597 -0.1478 -0.2492
14360TIP3    H164571   2.617   3.510  14.593 -0.0325  1.0491 -0.5146
14360TIP3    H264572   2.499   3.450  14.668  0.9246 -0.1655  0.0604
14361TIP3   OH264573   4.145   4.256   5.104  0.4426  0.2250  0.2919
14361TIP3    H164574   4.131   4.199   5.028 -1.7347 -1.1622  1.6356
14361TIP3    H264575   4.221   4.309   5.080  0.6614 -1.0936 -2.2894
14362TIP3   OH264576   5.969   1.226  13.518 -0.2224 -0.3064 -0.5769
14362TIP3    H164577   5.969   1.263  13.429 -0.7000  0.0480 -0.4373
14362TIP3    H264578   6.059   1.197  13.532  0.4079  1.6259 -0.3571
14363TIP3   OH264579   1.569   1.056   6.184  0.2315  0.7361 -0.1377
14363TIP3    H164580   1.495   1.027   6.237 -0.6902  0.3477 -1.5717
14363TIP3    H264581   1.570   0.997   6.109  1.1503  1.5928 -0.8404
14364TIP3   OH264582   4.081   5.424  16.675  0.5091  0.6569  0.0285
14364TIP3    H164583   3.995   5.442  16.714 -0.1696 -3.3224  0.8311
14364TIP3    H264584   4.062   5.365  16.602  2.5655 -1.2475  0.9286
14365TIP3   OH264585   0.705   3.047  12.020  0.5267  0.5481 -0.5235
14365TIP3    H164586   0.773   3.040  11.952  1.4973  0.8788  0.3909
14365TIP3    H264587   0.679   3.139  12.018  1.5534  0.8877  0.4584
14366TIP3   OH264588   5.037   1.987  16.254  0.2234 -0.7201 -0.2956
14366TIP3    H164589   5.063   2.078  16.239 -0.9048 -0.2225  0.6261
14366TIP3    H264590   4.945   1.984  16.228 -0.3329 -1.0688  1.6237
14367TIP3   OH264591   5.967   1.846   1.201 -0.3153  0.2957 -1.0406
14367TIP3    H164592   6.023   1.769   1.192 -1.9733 -1.0462 -0.4865
14367TIP3    H264593   6.001   1.891   1.278 -0.0177 -0.5066 -0.6881
14368TIP3   OH264594   2.402   5.583  14.898  0.8563  0.4176  0.0375
14368TIP3    H164595   2.330   5.521  14.887  0.9995  0.2026  0.3041
14368TIP3    H264596   2.374   5.638  14.972  0.5944  0.8643 -0.3882
14369TIP3   OH264597   3.794   3.263  15.616 -0.1075  0.0033 -0.3823
14369TIP3    H164598   3.868   3.322  15.631  0.8915 -0.9940 -1.2445
14369TIP3    H264599   3.724   3.299  15.671  1.7572 -0.4999  2.5189
14370TIP3   OH264600   5.776   3.130  12.855  0.2983  0.3673 -0.0195
14370TIP3    H164601   5.698   3.161  12.901 -0.0188  0.9730 -0.9242
14370TIP3    H264602   5.744   3.062  12.796  0.2571  1.2747 -1.0911
14371TIP3   OH264603   1.273   1.267  16.648  0.1680 -0.4597 -0.1021
14371TIP3    H164604   1.257   1.223  16.732  1.3587 -2.8884 -1.0482
14371TIP3    H264605   1.366   1.288  16.650  0.3413 -1.1119 -1.0532
14372TIP3   OH264606   4.740   4.599   1.222 -0.2586 -0.2106 -0.1599
14372TIP3    H164607   4.804   4.544   1.267 -0.0581  0.5165  0.4620
14372TIP3    H264608   4.761   4.588   1.129  2.0211  1.4401  0.0764
14373TIP3   OH264609   1.891   6.492  11.899  0.2554  0.2129 -0.4575
14373TIP3    H164610   1.894   6.586  11.919 -1.0433  0.2518 -0.3965
14373TIP3    H264611   1.963   6.479  11.837  2.6519  0.5821  2.0716
14374TIP3   OH264612   4.289   4.119   5.846 -0.1914  0.3360 -0.5563
14374TIP3    H164613   4.364   4.073   5.884  0.0634 -0.1919 -1.6557
14374TIP3    H264614   4.214   4.090   5.898  0.0813 -0.7402 -0.7268
14375TIP3   OH264615   2.793   2.919   0.532  0.2605 -0.4002 -0.6435
14375TIP3    H164616   2.718   2.962   0.574 -0.9614 -2.9689  0.0314
14375TIP3    H264617   2.761   2.894   0.446  1.0479  0.2423 -1.1393
14376TIP3   OH264618   3.625   2.168  16.374 -0.0074 -0.2905 -0.0638
14376TIP3    H164619   3.596   2.089  16.328  0.9146 -0.4646 -0.3739
14376TIP3    H264620   3.574   2.239  16.334  0.8272 -0.4226 -1.4399
14377TIP3   OH264621   5.422   4.587   4.810  0.1743  0.3769  0.0471
14377TIP3    H164622   5.465   4.635   4.739  0.2971  1.1035  0.5945
14377TIP3    H264623   5.339   4.559   4.774 -0.4265  2.0367  0.0604
14378TIP3   OH264624   3.385   0.400   1.748  0.5450  0.4591 -0.0080
14378TIP3    H164625   3.312   0.462   1.739  0.4758  0.1906 -1.5298
14378TIP3    H264626   3.460   0.455   1.772  0.0860  0.8778  0.4909
14379TIP3   OH264627   0.918   2.713  14.840 -0.5911  0.3092  0.2990
14379TIP3    H164628   0.832   2.702  14.880 -0.3728  0.2048  0.7428
14379TIP3    H264629   0.940   2.626  14.806 -0.9942  0.5076 -0.5069
14380TIP3   OH264630   1.296   0.504   1.267  0.1569 -0.2882 -0.5756
14380TIP3    H164631   1.220   0.521   1.322 -0.2887  0.0535 -1.2878
14380TIP3    H264632   1.346   0.586   1.271  0.3502 -0.4155 -0.3348
14381TIP3   OH264633   5.303   2.950   3.374  0.4029  0.2211  0.1558
14381TIP3    H164634   5.235   2.907   3.322  0.3233  0.4721  0.0526
14381TIP3    H264635   5.361   2.990   3.310  1.5375 -1.2911  0.1680
14382TIP3   OH264636   6.034   3.758  13.171  0.0440  0.0462  0.3776
14382TIP3    H164637   6.129   3.753  13.163  0.0070  0.8328 -0.9237
14382TIP3    H264638   6.002   3.687  13.115 -0.1409 -0.4852  1.1442
14383TIP3   OH264639   4.881   3.302  13.622  0.1034 -0.2221 -0.6895
14383TIP3    H164640   4.955   3.243  13.611  0.9453  0.6811 -0.0646
14383TIP3    H264641   4.813   3.268  13.563 -0.0616 -2.7676  0.8372
14384TIP3   OH264642   1.802   6.322   0.247 -0.0757  0.1351 -0.2295
14384TIP3    H164643   1.762   6.263   0.311 -0.5888  0.9653  0.2332
14384TIP3    H264644   1.851   6.384   0.301 -0.7633  1.0280 -0.6221
14385TIP3   OH264645   3.693   1.303   3.701  0.4963 -0.1739 -0.2077
14385TIP3    H164646   3.708   1.208   3.696 -1.0886 -0.4027 -1.5224
14385TIP3    H264647   3.755   1.334   3.767  1.2189 -2.0883  0.0695
14386TIP3   OH264648   5.796   4.512   4.880 -0.5922  0.3689  0.4201
14386TIP3    H164649   5.859   4.464   4.825  2.0679  1.4418  2.3040
14386TIP3    H264650   5.795   4.463   4.962 -0.8005  1.4005  1.0465
14387TIP3   OH264651   1.760   2.843  16.517 -0.9648  0.2072 -0.3647
14387TIP3    H164652   1.730   2.752  16.518 -0.4355  0.0228  1.4752
14387TIP3    H264653   1.704   2.887  16.581 -0.9272  1.1026 -0.9321
14388TIP3   OH264654   3.536   6.637   0.419 -0.2248  0.7256  0.6878
14388TIP3    H164655   3.601   6.575   0.453  0.3309  0.6119 -0.5095
14388TIP3    H264656   3.461   6.628   0.478  0.1115 -0.5786  0.9536
14389TIP3   OH264657   5.689   0.363  15.006 -0.2912  0.2017  0.0313
14389TIP3    H164658   5.777   0.400  15.014 -0.2155 -0.0508  0.4196
14389TIP3    H264659   5.680   0.307  15.084 -0.7071  0.0483 -0.1262
14390TIP3   OH264660   1.005   4.710  13.443  0.3715 -0.1394  0.6783
14390TIP3    H164661   0.921   4.749  13.465 -1.0684 -2.7950  0.3304
14390TIP3    H264662   1.013   4.721  13.348 -0.0262 -0.6466  0.5820
14391TIP3   OH264663   1.983   0.370   0.772  0.3262 -0.4613 -0.3879
14391TIP3    H164664   2.039   0.355   0.695 -0.6093  0.7192 -1.3442
14391TIP3    H264665   1.933   0.448   0.750  0.1750  0.0423  1.5345
14392TIP3   OH264666   5.514   5.140   2.325 -0.0371 -0.3212 -0.6535
14392TIP3    H164667   5.561   5.210   2.280  3.2512 -1.7312  0.2422
14392TIP3    H264668   5.501   5.172   2.414 -1.6110  0.3784 -1.1065
14393TIP3   OH264669   3.510   3.632   5.553 -0.0872  0.2144 -0.6944
14393TIP3    H164670   3.423   3.652   5.588 -0.2941 -0.5216 -0.7736
14393TIP3    H264671   3.561   3.605   5.629  0.2876  1.3277 -0.5361
14394TIP3   OH264672   6.597   3.214  15.466 -0.3881  0.4586 -0.1846
14394TIP3    H164673   6.517   3.209  15.518 -1.3409  0.5452 -1.5706
14394TIP3    H264674   6.623   3.306  15.471  0.5630  0.1361  1.5598
14395TIP3   OH264675   5.666   5.027   0.396  0.5472  0.5128 -0.5035
14395TIP3    H164676   5.609   5.010   0.471  1.7924  0.6380  0.5076
14395TIP3    H264677   5.613   5.004   0.319 -1.0562  1.2249  0.3525
14396TIP3   OH264678   4.320   5.359   0.200 -0.4896 -0.2866 -0.3146
14396TIP3    H164679   4.329   5.365   0.105  0.7648  0.0132 -0.1997
14396TIP3    H264680   4.242   5.306   0.213  0.1680 -1.6442 -1.5404
14397TIP3   OH264681   2.029   2.734  16.320 -0.0677  0.4961 -0.1268
14397TIP3    H164682   1.944   2.694  16.302  0.5027 -1.5530  1.3568
14397TIP3    H264683   2.026   2.756  16.413  1.5369 -1.1699  0.3975
14398TIP3   OH264684   0.183   1.998  15.629 -0.2015 -0.0053 -0.2850
14398TIP3    H164685   0.133   1.922  15.658  0.3318 -0.3110 -0.1669
14398TIP3    H264686   0.266   1.992  15.675  0.0781  0.3191 -0.7376
14399TIP3   OH264687   0.215   5.431  12.897 -0.2898 -0.0937  0.8460
14399TIP3    H164688   0.267   5.374  12.841 -0.6846 -0.6720  1.0624
14399TIP3    H264689   0.159   5.480  12.837  1.6599  1.7888  0.4405
14400TIP3   OH264690   3.981   5.207   2.994  0.4189  0.2261 -0.1484
14400TIP3    H164691   4.031   5.239   2.920  0.5799  1.2508  0.3822
14400TIP3    H264692   4.028   5.129   3.023  1.7511  1.1858  0.3619
14401TIP3   OH264693   6.179   1.976   2.853  0.0547 -0.1193 -0.2427
14401TIP3    H164694   6.191   2.028   2.933 -2.0546  0.5722 -0.3069
14401TIP3    H264695   6.222   2.027   2.785 -0.2365  0.5308  0.0498
14402TIP3   OH264696   1.135   3.049  16.334 -0.1379  0.4135 -0.2937
14402TIP3    H164697   1.146   2.960  16.368  0.0714  0.2901 -0.6796
14402TIP3    H264698   1.132   3.104  16.413  3.4438  0.4949 -0.0158
14403TIP3   OH264699   3.612   6.466   6.324  0.3692  0.3099 -0.0425
14403TIP3    H164700   3.522   6.488   6.347  0.3724 -0.9462  1.2996
14403TIP3    H264701   3.655   6.451   6.408  1.8724  0.9593 -0.6548
14404TIP3   OH264702   3.942   4.846   3.424  0.2021  0.0992  0.0284
14404TIP3    H164703   3.910   4.769   3.378 -1.5102  1.3914 -1.0771
14404TIP3    H264704   3.915   4.832   3.515  0.8510 -1.0641  0.0547
14405TIP3   OH264705   6.710   1.165  16.016  0.2318  0.6043  0.1305
14405TIP3    H164706   6.740   1.090  15.965 -2.1035  0.1295 -0.6818
14405TIP3    H264707   6.790   1.212  16.040  1.8265 -2.5294  1.3593
14406TIP3   OH264708   1.679   6.459  13.591 -0.5510  0.1249 -0.4409
14406TIP3    H164709   1.584   6.476  13.594 -0.2497  1.8863  0.9559
14406TIP3    H264710   1.716   6.521  13.654  1.5447 -0.5720 -0.9196
14407TIP3   OH264711   3.831   0.653   4.392 -0.4709 -0.4246  0.3126
14407TIP3    H164712   3.824   0.593   4.466 -0.1381 -0.0400  0.6628
14407TIP3    H264713   3.768   0.620   4.328  0.4781 -1.7807  0.0548
14408TIP3   OH264714   4.203   5.712   1.629 -0.0635 -0.5434  0.1787
14408TIP3    H164715   4.277   5.729   1.571  0.4540  0.3183  1.0557
14408TIP3    H264716   4.219   5.768   1.705 -1.2127 -0.9361  0.7334
14409TIP3   OH264717   0.717   2.893  14.627 -0.3567  0.4860 -0.0068
14409TIP3    H164718   0.693   2.861  14.714  0.7266  0.7579  0.4087
14409TIP3    H264719   0.639   2.937  14.595 -1.7490 -2.0725 -0.3976
14410TIP3   OH264720   1.725   1.642  13.381 -0.2819  0.0887  0.2960
14410TIP3    H164721   1.716   1.732  13.353  2.3557  0.3473  0.0334
14410TIP3    H264722   1.795   1.606  13.327  0.6065 -1.2747  2.2058
14411TIP3   OH264723   3.105   4.690   4.770 -0.0921 -0.4347 -0.0448
14411TIP3    H164724   3.037   4.709   4.705 -0.1744 -1.6242 -0.3222
14411TIP3    H264725   3.157   4.620   4.731  1.0233  0.1501  0.3662
14412TIP3   OH264726   2.084   6.262  17.343 -0.0043 -0.4641 -0.1536
14412TIP3    H164727   2.016   6.307  17.292  2.2845  1.6567 -1.5850
14412TIP3    H264728   2.048   6.258  17.431 -1.6899  1.3266 -0.6692
14413TIP3   OH264729   1.650   4.330  12.833 -0.0194  0.3193  0.1396
14413TIP3    H164730   1.726   4.383  12.810 -1.7125  2.1597 -1.5038
14413TIP3    H264731   1.594   4.388  12.884 -1.2671 -0.3205 -0.4508
14414TIP3   OH264732   2.467   5.204   6.145  0.0590 -0.5932 -0.0210
14414TIP3    H164733   2.497   5.294   6.156  1.5381 -0.9869 -0.6134
14414TIP3    H264734   2.540   5.150   6.174 -0.3669 -1.6107 -0.7750
14415TIP3   OH264735   2.558   2.032   1.564  0.0350  0.2835  0.7779
14415TIP3    H164736   2.498   2.087   1.514  1.5114  0.0721 -1.3643
14415TIP3    H264737   2.502   1.966   1.606 -1.4482  1.7026  1.0899
14416TIP3   OH264738   2.720   1.162   2.173  0.7760 -0.9069  0.3464
14416TIP3    H164739   2.670   1.177   2.253 -2.2077  0.5363 -1.6106
14416TIP3    H264740   2.693   1.075   2.144  0.5160 -0.7386  0.0699
14417TIP3   OH264741   2.571   3.360   4.280  0.5220 -0.0785 -0.0412
14417TIP3    H164742   2.574   3.394   4.190  1.9105  0.7772  0.3100
14417TIP3    H264743   2.577   3.438   4.335 -0.5165 -0.5787  0.8295
14418TIP3   OH264744   0.334   4.639   0.487  0.0013  0.0215  0.2510
14418TIP3    H164745   0.397   4.568   0.475 -2.0477 -1.4529 -4.4714
14418TIP3    H264746   0.387   4.719   0.489  2.1751 -1.3592  2.1181
14419TIP3   OH264747   5.153   4.952  11.625  0.0250  0.2983 -0.5198
14419TIP3    H164748   5.092   4.879  11.634 -0.4279  0.4829 -1.8379
14419TIP3    H264749   5.106   5.027  11.662  0.3255  0.0226  0.4488
14420TIP3   OH264750   4.698   6.492   2.837 -0.4015 -0.2798  0.1745
14420TIP3    H164751   4.684   6.551   2.911 -1.5615  0.1075 -0.3310
14420TIP3    H264752   4.649   6.413   2.860 -1.2275  0.0471 -0.3938
14421TIP3   OH264753   3.469   0.818   0.769  0.3107 -0.1394 -0.3442
14421TIP3    H164754   3.470   0.745   0.707 -1.0482  0.7288 -1.4833
14421TIP3    H264755   3.406   0.879   0.731  1.1287  1.4550  0.7696
14422TIP3   OH264756   0.530   2.961   5.650 -0.2694 -0.2101 -0.2285
14422TIP3    H164757   0.608   2.944   5.702  0.2589  1.0903 -0.5561
14422TIP3    H264758   0.560   3.017   5.578 -0.7219 -2.8803 -2.6788
14423TIP3   OH264759   3.157   6.415   4.137 -0.5744  0.0134  0.3071
14423TIP3    H164760   3.219   6.345   4.159 -1.4238 -0.8800 -0.0606
14423TIP3    H264761   3.166   6.427   4.043 -1.3593 -0.5446  0.1456
14424TIP3   OH264762   0.026   0.185  12.887 -0.6302 -0.1251  0.2418
14424TIP3    H164763   0.053   0.101  12.923  0.1280  0.7448  1.8421
14424TIP3    H264764   0.016   0.242  12.964  3.6070  2.5888 -0.8129
14425TIP3   OH264765   6.354   2.033   0.442  0.1127  0.2579 -0.1127
14425TIP3    H164766   6.404   2.034   0.361 -0.3375  0.5684 -0.3905
14425TIP3    H264767   6.263   2.041   0.414 -0.1985 -1.4170  0.3068
14426TIP3   OH264768   5.075   1.201   2.249  0.0232 -0.1715 -0.5911
14426TIP3    H164769   5.050   1.109   2.243 -0.2164 -0.4042  2.3440
14426TIP3    H264770   5.067   1.235   2.160 -1.9732 -2.4523 -1.3662
14427TIP3   OH264771   5.107   2.745  16.402 -0.7154 -0.1986 -0.0742
14427TIP3    H164772   5.087   2.738  16.309  0.7936 -1.4496 -0.3471
14427TIP3    H264773   5.070   2.665  16.440 -1.1252  0.1981  0.3758
14428TIP3   OH264774   5.049   2.943   0.975 -0.1524  0.3465  0.2014
14428TIP3    H164775   5.041   3.034   1.003 -1.0170  0.2779  0.2047
14428TIP3    H264776   5.012   2.942   0.887 -0.3289 -0.0362  0.2776
14429TIP3   OH264777   5.697   4.287   6.557  0.2492 -0.5316  0.0734
14429TIP3    H164778   5.742   4.316   6.636  0.1156 -1.2857  0.4352
14429TIP3    H264779   5.607   4.316   6.568 -0.4004 -2.8407  1.4177
14430TIP3   OH264780   2.029   2.766  11.541 -0.1458 -0.2684 -0.2407
14430TIP3    H164781   1.971   2.839  11.564  0.9543  0.3663  0.6705
14430TIP3    H264782   2.078   2.748  11.622  0.9419 -0.7439 -0.9744
14431TIP3   OH264783   6.691   3.702  13.735  0.9034 -0.1167  0.5189
14431TIP3    H164784   6.690   3.787  13.691 -1.1156 -0.3910 -0.0725
14431TIP3    H264785   6.691   3.724  13.828  0.5652  0.5346  0.3754
14432TIP3   OH264786   5.518   2.307  11.925  0.4414 -0.7659  0.1106
14432TIP3    H164787   5.500   2.354  11.843  1.2390 -2.4666 -1.0907
14432TIP3    H264788   5.573   2.233  11.899 -0.7259 -2.3634  1.9130
14433TIP3   OH264789   6.655   4.112   5.787 -0.2612  0.5022 -0.4424
14433TIP3    H164790   6.609   4.103   5.703 -0.8897  3.0791 -0.4493
14433TIP3    H264791   6.585   4.109   5.853  0.0302  0.3023 -0.1388
14434TIP3   OH264792   6.316   1.961   4.545 -0.1463 -0.4437 -0.0346
14434TIP3    H164793   6.257   1.887   4.529  1.0946 -1.4843 -0.0677
14434TIP3    H264794   6.301   2.020   4.472 -0.0674 -1.4300 -0.8804
14435TIP3   OH264795   1.300   1.502   1.920 -0.5820 -0.1902  0.4399
14435TIP3    H164796   1.364   1.547   1.865  0.0247  0.5993  1.7218
14435TIP3    H264797   1.316   1.409   1.905 -1.0326 -0.0157 -1.3469
14436TIP3   OH264798   0.352   2.356  12.260 -0.4444  0.7793  0.0662
14436TIP3    H164799   0.396   2.405  12.192 -1.9576  2.5111  0.2655
14436TIP3    H264800   0.392   2.385  12.342  1.1134 -1.0244  0.0204
14437TIP3   OH264801   6.046   1.430  11.310  0.9189 -0.4769  0.2246
14437TIP3    H164802   6.088   1.498  11.363  2.5755 -0.3427 -1.1802
14437TIP3    H264803   6.017   1.475  11.231 -0.2506 -0.9528  0.3546
14438TIP3   OH264804   3.368   0.766  12.672 -0.1937 -0.3375  0.1326
14438TIP3    H164805   3.345   0.677  12.645  1.4108 -0.3763 -1.2613
14438TIP3    H264806   3.284   0.808  12.692 -1.0727 -1.7682 -0.4318
14439TIP3   OH264807   3.976   3.610   5.693  0.1458 -0.2055  0.0377
14439TIP3    H164808   4.025   3.529   5.707  0.0731 -0.2112  0.2761
14439TIP3    H264809   3.989   3.631   5.601 -0.6683 -1.0486 -0.2819
14440TIP3   OH264810   3.665   2.943  13.516 -0.0047 -0.4889 -0.2334
14440TIP3    H164811   3.589   2.896  13.480  1.5172 -1.8784 -1.8310
14440TIP3    H264812   3.729   2.943  13.445  0.4002  3.4982 -0.0827
14441TIP3   OH264813   3.987   1.457   5.932 -0.4030 -0.3408 -0.2806
14441TIP3    H164814   3.924   1.529   5.929 -0.3666 -0.2884  0.2257
14441TIP3    H264815   3.974   1.411   5.849 -1.1708 -0.3826 -0.1430
14442TIP3   OH264816   3.883   5.292   3.840 -0.3222  0.3690  0.1312
14442TIP3    H164817   3.978   5.292   3.848 -0.0229  1.6345 -2.3667
14442TIP3    H264818   3.867   5.304   3.746 -2.9491 -3.0770 -0.0818
14443TIP3   OH264819   2.597   1.409   1.503  0.2260  0.4583 -0.4075
14443TIP3    H164820   2.644   1.394   1.422  0.0605  0.6219 -0.5348
14443TIP3    H264821   2.659   1.456   1.559  0.0755  1.0392 -0.7246
14444TIP3   OH264822   5.125   6.083  13.658 -0.0726 -0.0026 -0.0661
14444TIP3    H164823   5.088   6.170  13.669  3.0224  1.7060 -1.8369
14444TIP3    H264824   5.097   6.035  13.736 -0.7235  3.0052  1.7166
14445TIP3   OH264825   0.521   3.543   0.586 -0.1760  0.0862 -0.4611
14445TIP3    H164826   0.472   3.462   0.594 -0.0540  0.1926  2.0752
14445TIP3    H264827   0.473   3.606   0.639  0.2879  1.4131 -1.5594
14446TIP3   OH264828   1.128   4.131   2.501 -0.2174 -0.4140  0.0043
14446TIP3    H164829   1.142   4.155   2.410 -0.0579  0.2448  0.1967
14446TIP3    H264830   1.040   4.093   2.502  0.1294 -1.2622 -0.5734
14447TIP3   OH264831   0.396   4.778   1.754 -0.3312  0.1617 -0.5728
14447TIP3    H164832   0.362   4.783   1.665 -1.0191  1.7904 -0.2413
14447TIP3    H264833   0.349   4.705   1.793  0.4328 -0.9898 -1.6969
14448TIP3   OH264834   1.831   5.059   0.163  0.4535  0.5178 -0.0347
14448TIP3    H164835   1.777   4.986   0.134  1.7716 -0.5373  0.0638
14448TIP3    H264836   1.777   5.106   0.227 -0.7894  0.2459 -0.8737
14449TIP3   OH264837   5.684   3.126  15.299  0.6812 -0.4021 -0.0774
14449TIP3    H164838   5.594   3.152  15.320  0.7539  1.1281 -1.4684
14449TIP3    H264839   5.737   3.199  15.329  0.9094  1.2552 -3.9780
14450TIP3   OH264840   2.811   0.777   2.470  0.0115  0.5510  0.5406
14450TIP3    H164841   2.900   0.753   2.496  0.1420 -1.1779 -1.3216
14450TIP3    H264842   2.758   0.699   2.489 -1.2773  1.7257  2.1172
14451TIP3   OH264843   3.086   4.753   3.909  0.2475  0.8877 -0.0998
14451TIP3    H164844   2.991   4.763   3.907  0.1671  0.0994 -0.5853
14451TIP3    H264845   3.118   4.814   3.843 -0.0839 -0.3578 -1.4573
14452TIP3   OH264846   6.648   4.342   2.684 -0.1148  0.0077  0.2480
14452TIP3    H164847   6.579   4.324   2.748  1.1636  0.2482  1.7830
14452TIP3    H264848   6.684   4.426   2.711  0.7460 -0.0960 -0.5197
14453TIP3   OH264849   1.685   3.310  13.852  0.0422 -0.3324  0.3386
14453TIP3    H164850   1.771   3.297  13.813 -0.5178 -0.1826 -1.0116
14453TIP3    H264851   1.701   3.363  13.930  1.1451 -0.1113 -0.0227
14454TIP3   OH264852   4.580   6.629   0.013  0.5990 -0.5887  0.2337
14454TIP3    H164853   4.491   6.660  -0.005  0.7157  0.4881  1.3456
14454TIP3    H264854   4.571   6.534   0.021 -0.9949 -0.3347  2.8549
14455TIP3   OH264855   4.818   1.016  15.379  0.3543  0.4845 -0.1054
14455TIP3    H164856   4.748   0.985  15.321  1.0582 -1.4150 -0.0043
14455TIP3    H264857   4.823   1.110  15.362 -0.0835  0.1437 -2.4634
14456TIP3   OH264858   0.191   3.744  13.684  0.4159 -0.4031  0.0452
14456TIP3    H164859   0.173   3.831  13.719  0.2822  0.3633 -1.8045
14456TIP3    H264860   0.143   3.684  13.741  0.7211  0.6874  1.5079
14457TIP3   OH264861   5.887   0.125   3.112 -0.7086  0.1282  0.1473
14457TIP3    H164862   5.955   0.120   3.178 -1.1031 -0.5244  0.5170
14457TIP3    H264863   5.887   0.216   3.084 -1.7215  0.8445  2.3046
14458TIP3   OH264864   5.547   0.684   0.105  0.0069 -0.1774  0.4313
14458TIP3    H164865   5.526   0.725   0.021  0.5110  1.1037  0.9080
14458TIP3    H264866   5.478   0.714   0.165  0.4515  0.0726  0.8202
14459TIP3   OH264867   0.227   4.501  11.555  0.5395 -0.3814 -0.1386
14459TIP3    H164868   0.275   4.437  11.608 -2.3470 -1.3658  1.4848
14459TIP3    H264869   0.167   4.449  11.502 -0.3332  0.8593 -0.4217
14460TIP3   OH264870   2.731   4.134  11.454  0.0896 -0.1369  0.1928
14460TIP3    H164871   2.810   4.142  11.507 -0.0753 -3.2503  1.0969
14460TIP3    H264872   2.762   4.104  11.369  0.0665  1.6421 -0.4873
14461TIP3   OH264873   3.641   0.348   1.346 -0.0126  0.0564 -0.3597
14461TIP3    H164874   3.704   0.280   1.322 -0.0773  0.3174 -1.2920
14461TIP3    H264875   3.616   0.387   1.263 -0.9225  0.3860  0.0667
14462TIP3   OH264876   5.005   4.417   3.428  0.3888 -0.5625  0.2188
14462TIP3    H164877   4.992   4.329   3.393  1.6706 -0.4210 -0.6695
14462TIP3    H264878   5.049   4.404   3.512 -1.4606 -0.8364  1.2122
14463TIP3   OH264879   0.854   0.530   5.009  0.2286 -0.1227  0.7680
14463TIP3    H164880   0.783   0.591   4.990  0.7190  0.1806 -0.1315
14463TIP3    H264881   0.819   0.473   5.078 -0.1025  1.3898  1.9023
14464TIP3   OH264882   0.926   6.589   1.677  0.8503 -0.2014  1.0056
14464TIP3    H164883   1.011   6.633   1.674  0.6007  0.2774  0.5007
14464TIP3    H264884   0.863   6.660   1.661  0.5163 -0.9738 -1.4987
14465TIP3   OH264885   3.872   4.089   3.487 -0.0725  0.8173 -0.7934
14465TIP3    H164886   3.813   4.106   3.561 -2.0318 -0.1808 -2.0274
14465TIP3    H264887   3.880   3.994   3.484  1.1596  0.9134 -1.0240
14466TIP3   OH264888   0.956   6.185   2.234  0.1320  0.5130  0.0278
14466TIP3    H164889   1.015   6.260   2.224  0.3063  0.2396 -1.1284
14466TIP3    H264890   0.892   6.196   2.164  0.0908 -0.3553 -0.0818
14467TIP3   OH264891   2.638   2.624  14.865 -0.0630  0.1401 -0.7497
14467TIP3    H164892   2.582   2.582  14.930  3.0069 -2.5599  0.4361
14467TIP3    H264893   2.633   2.566  14.788  0.5990  0.2217 -0.8600
14468TIP3   OH264894   6.497   3.419   1.871 -0.0375 -0.5137 -0.5137
14468TIP3    H164895   6.421   3.477   1.868  0.9177  0.8971  0.8740
14468TIP3    H264896   6.566   3.468   1.826  0.9494 -0.2621  1.1962
14469TIP3   OH264897   5.695   0.778  16.488 -0.2463  0.2372  0.3059
14469TIP3    H164898   5.763   0.724  16.450  0.3385 -0.1587  1.8418
14469TIP3    H264899   5.630   0.716  16.520 -0.8051  0.5688 -0.1597
14470TIP3   OH264900   0.007   4.163  13.712  0.5934  0.0071 -0.3212
14470TIP3    H164901  -0.070   4.181  13.767  1.4039 -0.9171  1.1882
14470TIP3    H264902   0.055   4.245  13.710  0.4564  0.1059  0.2261
14471TIP3   OH264903   4.206   4.971   6.389  0.3819 -0.2103 -0.6207
14471TIP3    H164904   4.177   5.032   6.457  1.8037 -0.1070 -0.0646
14471TIP3    H264905   4.168   4.887   6.415 -0.8582  0.2344 -0.9082
14472TIP3   OH264906   0.241   4.979  11.784  0.9682  0.2576  0.3474
14472TIP3    H164907   0.276   4.894  11.756 -0.6797 -0.5480  0.5847
14472TIP3    H264908   0.241   4.976  11.879  0.8711  0.5045  0.3575
14473TIP3   OH264909   0.267   4.682  14.539  0.5115 -0.0934  0.5214
14473TIP3    H164910   0.175   4.657  14.546  0.5309 -0.5324 -0.6323
14473TIP3    H264911   0.315   4.611  14.581  0.4468 -1.0704 -0.9817
14474TIP3   OH264912   2.679   3.537   1.584 -0.1834 -0.3839 -0.2333
14474TIP3    H164913   2.705   3.599   1.651 -0.3526 -1.5199  0.9266
14474TIP3    H264914   2.653   3.591   1.509  1.6200  0.8615 -0.0046
14475TIP3   OH264915   1.819   5.317  17.049  0.1359  0.6112 -0.9111
14475TIP3    H164916   1.800   5.323  16.956  2.2879 -2.4282 -1.7075
14475TIP3    H264917   1.766   5.244  17.080 -0.1142  1.2175  0.1441
14476TIP3   OH264918   0.704   1.899  15.272 -0.0317  0.1026  0.3623
14476TIP3    H164919   0.799   1.907  15.283 -0.1006  0.5637  0.6505
14476TIP3    H264920   0.668   1.979  15.312 -0.5353 -0.0296  0.1839
14477TIP3   OH264921   1.067   1.503  10.832  0.9032  0.2986  0.2812
14477TIP3    H164922   1.021   1.420  10.821  0.2504  0.7588 -0.5478
14477TIP3    H264923   1.117   1.514  10.751  1.5772  0.3469  0.7033
14478TIP3   OH264924   5.973   1.555  15.324  1.0301 -0.3760  0.3025
14478TIP3    H164925   5.916   1.600  15.387  0.1658 -1.5438  0.4063
14478TIP3    H264926   6.049   1.612  15.315 -0.6937  1.9173 -0.8512
14479TIP3   OH264927   2.322   2.666   0.937 -0.2873 -0.8625 -0.1586
14479TIP3    H164928   2.299   2.628   0.852 -1.8411 -1.7575  0.6184
14479TIP3    H264929   2.387   2.733   0.916 -0.4051 -1.2612 -2.0158
14480TIP3   OH264930   6.225   0.721  16.255  0.1399 -0.1915 -0.1567
14480TIP3    H164931   6.136   0.731  16.289  0.3481 -0.9610  0.6577
14480TIP3    H264932   6.228   0.631  16.223  0.5112 -0.0437 -0.5431
14481TIP3   OH264933   4.289   0.299  17.251 -0.0736  0.0678 -0.0114
14481TIP3    H164934   4.324   0.224  17.203 -2.1868 -1.1457  0.2288
14481TIP3    H264935   4.235   0.346  17.188 -0.9691 -0.1963  0.5460
14482TIP3   OH264936   3.369   4.646  13.604  0.4660 -0.7187  0.1229
14482TIP3    H164937   3.414   4.573  13.646 -0.6037 -1.7750 -0.4842
14482TIP3    H264938   3.382   4.632  13.510 -1.6967 -1.5089 -0.1159
14483TIP3   OH264939   3.534   2.499  13.079 -0.1829  0.8436 -0.1065
14483TIP3    H164940   3.516   2.515  13.172  0.0410 -0.2037  0.1349
14483TIP3    H264941   3.595   2.568  13.054 -0.5613  1.3762  0.4168
14484TIP3   OH264942   5.678   5.117   3.007  0.5004  0.2958 -0.8014
14484TIP3    H164943   5.686   5.212   3.018 -0.5617  0.4902 -1.5172
14484TIP3    H264944   5.752   5.093   2.952  1.3767  0.5266  0.2341
14485TIP3   OH264945   0.215   1.652   5.376  0.2251  0.5475 -0.0441
14485TIP3    H164946   0.265   1.697   5.444  0.6552  0.1170 -0.0684
14485TIP3    H264947   0.281   1.617   5.317 -0.1846  2.1965 -1.5309
14486TIP3   OH264948   4.092   2.640   6.642  0.3901  0.1457  0.7552
14486TIP3    H164949   4.030   2.688   6.697  0.2125  1.4147 -0.4810
14486TIP3    H264950   4.111   2.561   6.691 -0.2810  0.8992  2.3088
14487TIP3   OH264951   0.350   4.265   6.336  0.7500  0.4498 -0.3415
14487TIP3    H164952   0.286   4.336   6.331 -1.4711 -1.4963 -3.0599
14487TIP3    H264953   0.328   4.218   6.416 -0.2867  0.6766 -0.4735
14488TIP3   OH264954   0.480   2.798   5.165 -0.6298 -0.3297 -0.0343
14488TIP3    H164955   0.452   2.889   5.162 -0.4742 -0.2599  0.4852
14488TIP3    H264956   0.554   2.798   5.226 -1.0215 -0.8994  0.4529
14489TIP3   OH264957   3.513   2.125   5.286 -0.3194 -0.0746  0.4373
14489TIP3    H164958   3.445   2.192   5.274  1.2920  1.5225 -0.3105
14489TIP3    H264959   3.592   2.175   5.307  0.8855 -1.7772  0.1539
14490TIP3   OH264960   0.100   1.396  16.057  0.1900 -0.1538  0.2783
14490TIP3    H164961   0.090   1.356  16.144 -0.8720 -1.0425 -0.2314
14490TIP3    H264962   0.192   1.386  16.036  0.0894 -1.7268  0.4700
14491TIP3   OH264963   3.952   5.134   3.484  0.1858 -0.3343  0.5886
14491TIP3    H164964   3.947   5.055   3.431 -0.7558  0.6252 -0.8490
14491TIP3    H264965   4.042   5.138   3.514  0.9775 -0.5788 -1.5709
14492TIP3   OH264966   4.432   0.786   3.600 -0.4149 -0.0987 -0.6597
14492TIP3    H164967   4.493   0.735   3.547 -2.1125 -1.6900 -1.1839
14492TIP3    H264968   4.488   0.842   3.654  1.5299 -2.0145 -0.5542
14493TIP3   OH264969   5.080   1.946  12.724  0.6344  0.3338 -0.5347
14493TIP3    H164970   5.012   1.904  12.776 -0.1636 -1.0769 -2.5831
14493TIP3    H264971   5.116   2.014  12.781 -0.6549 -0.6519  1.5440
14494TIP3   OH264972   0.334   3.518  14.414  0.3047  0.4484 -0.6739
14494TIP3    H164973   0.392   3.547  14.484 -1.1377 -1.2523  1.3212
14494TIP3    H264974   0.317   3.597  14.362 -0.2219  2.2520  2.0758
14495TIP3   OH264975   0.394   6.014  14.013  0.0663 -0.1816  0.2648
14495TIP3    H164976   0.349   5.948  14.066  0.3784  0.8551  1.8697
14495TIP3    H264977   0.324   6.074  13.986 -0.3397 -1.4716 -1.7876
14496TIP3   OH264978   5.868   2.240  12.520 -0.3023 -0.2571  0.5148
14496TIP3    H164979   5.773   2.250  12.520 -0.1761  1.1189 -0.0722
14496TIP3    H264980   5.888   2.199  12.435 -0.2656  0.8278 -0.0183
14497TIP3   OH264981   0.884   4.742  12.934  0.1794 -0.0295 -0.2102
14497TIP3    H164982   0.856   4.831  12.913  0.7404  0.1686 -0.1308
14497TIP3    H264983   0.866   4.733  13.027 -0.4672 -0.2235 -0.3477
14498TIP3   OH264984   1.442   2.471  16.790  0.3103 -0.0564 -0.0466
14498TIP3    H164985   1.537   2.457  16.782  0.1754 -1.6997  0.8626
14498TIP3    H264986   1.407   2.450  16.704  0.8101  1.1980 -0.5852
14499TIP3   OH264987   1.045   0.893   0.729 -0.4572  0.3133  0.2523
14499TIP3    H164988   1.049   0.981   0.766 -0.1347  0.0262  0.9311
14499TIP3    H264989   0.953   0.879   0.710 -0.3852  1.1861 -0.8478
14500TIP3   OH264990   6.132   0.246  10.866 -0.3226 -0.1734 -0.2757
14500TIP3    H164991   6.198   0.311  10.843 -1.6148  1.5394  0.6095
14500TIP3    H264992   6.071   0.246  10.793 -0.3213 -0.4034 -0.2788
14501TIP3   OH264993   6.188   6.418   5.991  0.5169 -0.2042 -0.0415
14501TIP3    H164994   6.184   6.485   6.060 -0.5206 -1.3186  1.0267
14501TIP3    H264995   6.268   6.369   6.009  1.8389  1.2997 -1.4296
14502TIP3   OH264996   1.107   5.553  14.093  0.0873 -0.0451 -0.3065
14502TIP3    H164997   1.108   5.595  14.179  2.3100 -0.8197  0.1089
14502TIP3    H264998   1.045   5.604  14.042  1.8827  3.1543  0.4410
14503TIP3   OH264999   1.835   0.863  14.866  0.5231 -0.1582 -0.0944
14503TIP3    H165000   1.741   0.876  14.854  0.7732  0.0975 -2.0472
14503TIP3    H265001   1.846   0.768  14.869  0.2706 -0.2126 -0.6713
14504TIP3   OH265002   6.132   3.416   5.023  0.3666  0.5647 -0.0816
14504TIP3    H165003   6.183   3.456   5.092  1.6886 -1.3265  0.0973
14504TIP3    H265004   6.116   3.487   4.961  2.2721  1.4769  0.4008
14505TIP3   OH265005   2.812   2.864  15.662 -0.0130 -0.1807  0.0065
14505TIP3    H165006   2.772   2.922  15.727  1.0899  1.7896 -0.9861
14505TIP3    H265007   2.778   2.777  15.683 -0.9875  0.6574  2.1584
14506TIP3   OH265008   3.663   3.651  13.920 -0.1436  0.1434 -0.0790
14506TIP3    H165009   3.716   3.572  13.926 -1.6737 -0.9002  0.1358
14506TIP3    H265010   3.684   3.699  14.001  2.6276  1.2350 -1.3035
14507TIP3   OH265011   4.463   3.811   3.184  0.4921  0.0069  0.2269
14507TIP3    H165012   4.432   3.740   3.240 -3.5760  1.6237  0.3672
14507TIP3    H265013   4.518   3.864   3.241 -0.6469 -0.3120  1.7080
14508TIP3   OH265014   2.355   1.006  11.112 -0.5303 -0.1306  0.0599
14508TIP3    H165015   2.381   1.096  11.090 -1.1959 -0.3677 -1.8822
14508TIP3    H265016   2.286   0.985  11.049 -1.5805 -1.4249  1.5786
14509TIP3   OH265017   6.290   3.907  12.717  0.0269 -0.2187 -0.7152
14509TIP3    H165018   6.367   3.943  12.761 -0.2009  0.0865 -0.5703
14509TIP3    H265019   6.327   3.849  12.650  0.3867  0.1127 -0.8097
14510TIP3   OH265020   6.304   3.123  17.007 -0.4824  0.0308  0.0546
14510TIP3    H165021   6.353   3.162  16.935 -1.2214 -1.3522 -1.2390
14510TIP3    H265022   6.248   3.194  17.038 -0.1580  0.6471 -0.7209
14511TIP3   OH265023   1.212   1.772   1.926  0.9766 -0.3219 -0.1711
14511TIP3    H165024   1.232   1.682   1.903 -0.1627 -0.8842  0.9226
14511TIP3    H265025   1.291   1.803   1.971  0.3196 -1.8213  2.1969
14512TIP3   OH265026   3.722   0.434  13.159 -0.2150 -0.1761 -0.3663
14512TIP3    H165027   3.653   0.483  13.114  0.9420  2.6413  0.6816
14512TIP3    H265028   3.718   0.465  13.250  1.3128 -1.2188  0.1025
14513TIP3   OH265029   0.036   4.327  11.375 -0.0707 -0.0785 -0.5369
14513TIP3    H165030   0.056   4.309  11.283  1.9490 -0.2330 -0.1116
14513TIP3    H265031   0.063   4.247  11.421 -0.5732  0.1949  0.2452
14514TIP3   OH265032   6.202   6.187  17.433  0.0539 -0.0237 -0.2709
14514TIP3    H165033   6.257   6.186  17.354  2.1551 -0.0007  1.0975
14514TIP3    H265034   6.148   6.108  17.426  0.6414 -0.3435 -1.4345
14515TIP3   OH265035   4.853   5.280   3.210  0.6697  0.0553  0.2675
14515TIP3    H165036   4.827   5.188   3.212  0.9595 -0.1533 -2.1918
14515TIP3    H265037   4.814   5.314   3.130  1.6713  1.7276  0.4497
14516TIP3   OH265038   2.098   3.607  17.224 -0.4365 -0.3812 -0.3197
14516TIP3    H165039   2.054   3.547  17.163 -1.3084 -0.6326  0.5156
14516TIP3    H265040   2.115   3.552  17.301 -3.0648  0.8457  1.2777
14517TIP3   OH265041   6.106   6.558  16.852  0.0760 -0.0786 -0.3145
14517TIP3    H165042   6.120   6.465  16.836 -1.7578 -0.5856  0.6802
14517TIP3    H265043   6.080   6.594  16.767  1.4187 -0.3054 -0.8461
14518TIP3   OH265044   0.604   5.789   3.264 -0.2204  0.6001  0.6841
14518TIP3    H165045   0.653   5.871   3.277 -1.1797  1.7054 -1.9665
14518TIP3    H265046   0.533   5.793   3.328 -0.8004  2.3722  0.0051
14519TIP3   OH265047   1.600   2.728   2.198 -0.9570 -0.1133 -0.2005
14519TIP3    H165048   1.511   2.725   2.233 -0.8828 -3.1872 -0.0269
14519TIP3    H265049   1.591   2.697   2.108 -0.0464 -0.6240 -0.1220
14520TIP3   OH265050   5.400   0.925   3.855  0.3766 -0.0127 -0.9127
14520TIP3    H165051   5.461   0.944   3.927  0.0351  0.0312 -0.6340
14520TIP3    H265052   5.442   0.854   3.807  0.1575 -0.6975 -0.1131
14521TIP3   OH265053   5.900   4.720   1.892  0.1046 -0.2377  0.4453
14521TIP3    H165054   5.864   4.740   1.805  0.7443 -1.2166 -0.0637
14521TIP3    H265055   5.839   4.762   1.953  0.1371  1.2454 -0.4877
14522TIP3   OH265056   2.476   2.769   5.727 -0.1850  0.6161 -0.0952
14522TIP3    H165057   2.444   2.718   5.802 -0.8760  2.1009  0.6625
14522TIP3    H265058   2.509   2.703   5.666  0.6866 -0.6372  1.6275
14523TIP3   OH265059   2.963   5.883   2.946 -0.6670  0.3420  0.6377
14523TIP3    H165060   3.050   5.907   2.978 -1.0442  1.4002  0.8969
14523TIP3    H265061   2.919   5.845   3.023  0.0218 -1.5386  0.1620
14524TIP3   OH265062   0.851   3.436  14.546 -0.2572 -0.2342 -0.0709
14524TIP3    H165063   0.859   3.501  14.476  0.0614 -0.0606  0.1225
14524TIP3    H265064   0.810   3.361  14.504  0.5528 -0.3829 -0.6146
14525TIP3   OH265065   3.714   3.615   0.295 -0.1775  0.6388 -0.0647
14525TIP3    H165066   3.714   3.533   0.345  2.7376  2.0864  2.6680
14525TIP3    H265067   3.775   3.600   0.223  0.2621  0.3317  0.3665
14526TIP3   OH265068   4.502   0.227   0.427 -0.2419 -0.8150  0.2857
14526TIP3    H165069   4.566   0.224   0.356  0.8866  1.3523  1.1326
14526TIP3    H265070   4.417   0.225   0.383  0.3918 -2.1844 -0.9463
14527TIP3   OH265071   2.437   1.221   5.527  0.7599 -0.5653  0.4174
14527TIP3    H165072   2.343   1.223   5.545  0.5538 -1.5552 -0.4221
14527TIP3    H265073   2.448   1.144   5.471  1.8510  0.3898 -0.7285
14528TIP3   OH265074   5.371   3.356  14.165 -0.0931 -0.1487  0.1787
14528TIP3    H165075   5.445   3.299  14.183 -1.7090 -2.8157 -0.9840
14528TIP3    H265076   5.301   3.324  14.223 -1.4752 -0.3218 -1.4985
14529TIP3   OH265077   6.709   5.915  14.965  0.3803 -0.3858  0.1299
14529TIP3    H165078   6.677   5.842  14.912 -0.1181 -0.8288  1.0175
14529TIP3    H265079   6.630   5.960  14.994  0.7063  1.2352 -1.3566
14530TIP3   OH265080   5.754   6.638  14.057 -0.0257 -0.2628  0.2193
14530TIP3    H165081   5.727   6.728  14.072  1.1741  0.2898 -0.7648
14530TIP3    H265082   5.738   6.594  14.141 -0.8970  0.7741  0.6254
14531TIP3   OH265083   1.521   4.300  12.524 -0.2231  0.0574  0.4498
14531TIP3    H165084   1.513   4.207  12.548  0.0418 -0.2381 -0.5320
14531TIP3    H265085   1.605   4.327  12.561  0.3493 -0.4870 -0.4117
14532TIP3   OH265086   6.645   5.435   1.488 -0.3705  0.0740 -0.1690
14532TIP3    H165087   6.670   5.480   1.407  0.0358  0.0721 -0.0440
14532TIP3    H265088   6.583   5.368   1.460  0.2144 -0.3097 -0.5578
14533TIP3   OH265089   6.466   2.037   4.761 -0.8061 -0.6673  0.4015
14533TIP3    H165090   6.463   2.132   4.753 -1.0290 -0.7200 -0.2469
14533TIP3    H265091   6.439   2.005   4.674 -1.5758 -1.3244  0.8670
14534TIP3   OH265092   0.416   0.177  12.150  0.1595  0.2852  0.3250
14534TIP3    H165093   0.372   0.176  12.065  0.7694 -0.0008  0.0107
14534TIP3    H265094   0.346   0.198  12.212 -0.3133  0.3892 -0.2287
14535TIP3   OH265095   5.796   4.001  11.353  0.2674  0.0489  0.2305
14535TIP3    H165096   5.762   4.064  11.417 -1.5156 -0.6634  0.0412
14535TIP3    H265097   5.883   4.034  11.331 -0.9472  2.9991 -0.6114
14536TIP3   OH265098   0.898   0.739   0.070  0.4031 -0.3995  0.1397
14536TIP3    H165099   0.933   0.695  -0.007  0.4814  0.7276 -0.4932
14536TIP3    H265100   0.968   0.797   0.099  0.8929 -1.7913  1.9133
14537TIP3   OH265101   1.391   1.183  17.417 -0.5433  0.3176  0.0173
14537TIP3    H165102   1.306   1.227  17.408 -0.2855  0.5534 -1.5004
14537TIP3    H265103   1.403   1.136  17.334  0.9798  0.5882  0.0594
14538TIP3   OH265104   3.971   3.550  16.842  0.1055  0.3030 -0.4012
14538TIP3    H165105   3.949   3.589  16.927 -2.0619  1.0856 -1.2360
14538TIP3    H265106   3.931   3.463  16.845 -1.2364  0.8614 -1.0853
14539TIP3   OH265107   4.214   2.917  12.149  0.1518  0.1901 -0.2514
14539TIP3    H165108   4.274   2.876  12.086 -0.7224 -0.6036 -0.5783
14539TIP3    H265109   4.127   2.900  12.114 -0.3071  0.6733  0.6269
14540TIP3   OH265110   1.883   2.666  13.195  0.4188  0.3990 -0.3848
14540TIP3    H165111   1.942   2.740  13.207  0.4339  0.6367 -1.7583
14540TIP3    H265112   1.939   2.589  13.205  1.0848  0.6225 -1.9978
14541TIP3   OH265113   0.145   3.782   4.544 -0.2601  0.6534  0.0453
14541TIP3    H165114   0.090   3.710   4.512 -1.2051  1.1767  0.4528
14541TIP3    H265115   0.132   3.783   4.638 -0.8094  1.7735 -0.0171
14542TIP3   OH265116   4.001   5.894   2.882  0.5400 -0.6199  1.4147
14542TIP3    H165117   3.966   5.923   2.966 -1.9619 -1.2668  0.6807
14542TIP3    H265118   3.941   5.931   2.817  0.8349 -2.3347  0.0960
14543TIP3   OH265119   5.279   3.942  17.247 -0.1271 -0.1673  0.4083
14543TIP3    H165120   5.333   3.863  17.245 -0.8116 -0.6382  0.2117
14543TIP3    H265121   5.207   3.924  17.186  0.2834  1.0352 -0.4770
14544TIP3   OH265122   3.306   5.636  10.908  0.4141  0.0053 -0.7554
14544TIP3    H165123   3.274   5.548  10.891  0.5790  0.4272 -3.7662
14544TIP3    H265124   3.385   5.624  10.962  1.0310 -1.7900 -1.9843
14545TIP3   OH265125   4.799   3.491  17.262  0.6667  0.3868  0.6255
14545TIP3    H165126   4.867   3.423  17.267  1.9344  1.6179  0.5256
14545TIP3    H265127   4.758   3.477  17.177  1.0840 -0.0977  0.4937
14546TIP3   OH265128   6.092   6.375   3.735  0.3035 -0.0715  0.0792
14546TIP3    H165129   6.055   6.361   3.822 -0.6514 -2.3860 -0.6359
14546TIP3    H265130   6.104   6.470   3.730  0.7448  0.1146  2.8374
14547TIP3   OH265131   6.326   3.480  15.337 -0.1928  0.8301  0.1300
14547TIP3    H165132   6.354   3.502  15.425 -0.4048  2.2736 -0.1462
14547TIP3    H265133   6.370   3.543  15.280 -0.2756  0.1015 -0.7735
14548TIP3   OH265134   1.359   0.425  11.816  0.0496 -0.2368  0.4413
14548TIP3    H165135   1.432   0.409  11.876  0.4543  1.6266  0.5142
14548TIP3    H265136   1.393   0.400  11.730  1.1922  1.5653  0.3138
14549TIP3   OH265137   0.339   2.904   0.690  0.8364  0.3926 -0.2268
14549TIP3    H165138   0.346   2.999   0.698  0.2507  0.5015 -0.9164
14549TIP3    H265139   0.251   2.884   0.721  1.0433  0.0375  0.1475
14550TIP3   OH265140   0.669   2.297   5.615 -0.0635 -0.4221 -0.2817
14550TIP3    H165141   0.634   2.310   5.527  1.2059  2.5020 -0.4702
14550TIP3    H265142   0.761   2.275   5.601  0.6546  1.9579  0.2322
14551TIP3   OH265143   6.582   1.684   4.398 -0.6190  0.0576  0.1656
14551TIP3    H165144   6.571   1.608   4.340 -2.7506 -0.2372  0.8732
14551TIP3    H265145   6.649   1.657   4.460 -2.0622 -1.7283  1.0521
14552TIP3   OH265146   5.725   2.620   3.475 -0.4612  0.2896  0.1426
14552TIP3    H165147   5.776   2.695   3.505  0.1421  0.4252 -1.1612
14552TIP3    H265148   5.634   2.648   3.481 -0.2178  1.4653 -1.1441
14553TIP3   OH265149   2.636   0.511   3.003  0.2263 -0.3249  0.2976
14553TIP3    H165150   2.693   0.455   3.056 -1.1069 -0.7179  1.3662
14553TIP3    H265151   2.675   0.598   3.010  1.5580 -0.8439 -0.2767
14554TIP3   OH265152   3.561   6.413   6.052  0.0402  0.1112 -0.4564
14554TIP3    H165153   3.559   6.423   6.147 -0.8240  1.5810 -0.6001
14554TIP3    H265154   3.600   6.327   6.038  1.4146  0.4083  1.1795
14555TIP3   OH265155   3.043   4.906   5.391 -0.4622  0.6245 -0.1384
14555TIP3    H165156   3.058   4.920   5.298 -1.2968  1.6445 -0.1449
14555TIP3    H265157   2.953   4.936   5.405 -0.6958 -0.4623  0.8040
14556TIP3   OH265158   3.305   0.456   0.101 -0.6192 -0.5513 -0.2861
14556TIP3    H165159   3.341   0.544   0.086 -0.5514 -0.2172  1.5922
14556TIP3    H265160   3.227   0.452   0.045 -1.8119  1.5272  1.0630
14557TIP3   OH265161   5.906   1.667   1.506  0.0395 -0.0871  0.1113
14557TIP3    H165162   5.932   1.652   1.597  2.0069  1.3896 -0.1366
14557TIP3    H265163   5.968   1.732   1.474 -2.0878  1.2407 -1.5999
14558TIP3   OH265164   5.537   6.371  13.927 -0.5262  0.4446  0.7287
14558TIP3    H165165   5.629   6.392  13.915 -1.1632  2.7542 -1.0835
14558TIP3    H265166   5.520   6.301  13.863 -0.0337  0.0185  1.0636
14559TIP3   OH265167   0.713   5.698   0.898 -0.4999  0.0559  0.1213
14559TIP3    H165168   0.640   5.636   0.908 -1.8069  1.5965  0.4884
14559TIP3    H265169   0.745   5.712   0.986 -1.4406  1.2969  0.2904
14560TIP3   OH265170   1.980   4.968  12.048  0.6410  0.4730  0.5145
14560TIP3    H165171   1.923   5.019  11.991  1.7304 -0.0662 -1.1391
14560TIP3    H265172   1.923   4.935  12.117 -1.0897 -0.2249 -1.1818
14561TIP3   OH265173   5.423   4.576  11.254 -0.4317  0.3586  0.0587
14561TIP3    H165174   5.478   4.654  11.249 -1.6852  1.2289 -0.9813
14561TIP3    H265175   5.430   4.536  11.167 -1.4213  0.4985 -0.0975
14562TIP3   OH265176   4.896   6.047  13.322 -0.5985 -0.3710 -0.2779
14562TIP3    H165177   4.882   6.128  13.370  0.4512 -0.1231 -0.3819
14562TIP3    H265178   4.916   5.982  13.390  2.3406  0.2874 -0.4162
14563TIP3   OH265179   5.287   3.668   1.248 -0.2081 -0.3661 -0.0451
14563TIP3    H165180   5.320   3.733   1.310 -2.3079  0.5675  0.2044
14563TIP3    H265181   5.361   3.609   1.233  1.2976  1.1640  0.9391
14564TIP3   OH265182   6.074   6.442   3.293  0.1764  0.7170  0.5435
14564TIP3    H165183   6.088   6.348   3.291 -2.6431  0.1307  2.2652
14564TIP3    H265184   6.162   6.480   3.290  1.3236 -1.7987 -2.5601
14565TIP3   OH265185   4.480   5.956   0.045  0.0023  0.3685  0.7005
14565TIP3    H165186   4.537   5.930  -0.028 -2.2091  0.7487 -1.2633
14565TIP3    H265187   4.541   5.981   0.115  2.2123 -2.0385 -0.2238
14566TIP3   OH265188   4.912   5.752  17.304  0.5085  0.0145  0.2877
14566TIP3    H165189   4.884   5.704  17.382  0.1961  0.2735  0.3352
14566TIP3    H265190   4.915   5.843  17.332 -2.3523  0.5199 -0.7166
14567TIP3   OH265191   4.135   1.720   1.587  0.7590  0.0799  0.0034
14567TIP3    H165192   4.169   1.809   1.582 -0.8750  0.7088 -0.6626
14567TIP3    H265193   4.158   1.681   1.502  0.7838  0.1294 -0.0127
14568TIP3   OH265194   4.647   5.900   1.293 -0.1036 -0.2948  0.2867
14568TIP3    H165195   4.645   5.944   1.208  2.4587 -0.2434  0.1715
14568TIP3    H265196   4.736   5.865   1.300 -0.1337 -0.0813  3.0569
14569TIP3   OH265197   3.226   3.861  15.021  0.5404 -0.5490 -0.0854
14569TIP3    H165198   3.176   3.848  14.940  0.9625 -0.5613 -0.3478
14569TIP3    H265199   3.221   3.777  15.066 -1.7536  0.1320  1.0903
14570TIP3   OH265200   2.570   0.990  13.094 -0.0844 -0.4068 -0.2055
14570TIP3    H165201   2.550   0.972  13.186  0.3220  0.4479  0.0608
14570TIP3    H265202   2.507   0.938  13.045  0.0410 -1.2891  0.5486
14571TIP3   OH265203   1.911   2.969   5.471  0.1606  0.5178  0.0236
14571TIP3    H165204   1.967   2.973   5.548 -2.2203  0.0449  1.8896
14571TIP3    H265205   1.914   2.877   5.444  0.0763  0.4324  0.2986
14572TIP3   OH265206   4.438   5.150  12.265 -0.0216 -0.4848  0.2375
14572TIP3    H165207   4.502   5.164  12.335  0.0539 -0.6386  0.2011
14572TIP3    H265208   4.458   5.061  12.233  0.9240  0.1337 -0.9794
14573TIP3   OH265209   2.544   3.138  12.504  0.6147  0.2800 -0.4373
14573TIP3    H165210   2.489   3.150  12.581 -0.6736  3.9057 -1.6820
14573TIP3    H265211   2.633   3.145  12.536  0.2529 -1.0577  1.0045
14574TIP3   OH265212   2.364   2.403  17.039 -0.3942  0.5494 -0.1223
14574TIP3    H165213   2.452   2.377  17.066 -0.9182  0.1949  1.3212
14574TIP3    H265214   2.327   2.445  17.116 -0.8788  2.3339 -1.2605
14575TIP3   OH265215   6.534   6.745   3.332 -0.6218  0.3048  0.0140
14575TIP3    H165216   6.586   6.758   3.253 -0.8090 -1.6200 -0.4993
14575TIP3    H265217   6.592   6.769   3.404 -0.8249  3.1796 -0.6901
14576TIP3   OH265218   2.839   4.713   5.994  0.2995  0.0572 -0.1669
14576TIP3    H165219   2.869   4.635   6.040 -0.3492 -0.0314  0.1207
14576TIP3    H265220   2.912   4.775   6.001 -0.9891  1.5073  4.3761
14577TIP3   OH265221   2.987   1.624   0.995 -0.8688  0.5780 -0.2675
14577TIP3    H165222   3.026   1.651   0.912  1.0528 -0.1563  0.3364
14577TIP3    H265223   3.021   1.687   1.059 -0.7175 -0.0444  0.2750
14578TIP3   OH265224   5.569   3.905   3.094 -0.2991 -0.5176 -0.2176
14578TIP3    H165225   5.513   3.965   3.142 -1.2813 -0.2487 -1.6518
14578TIP3    H265226   5.581   3.830   3.153  2.6695  1.8232  2.4887
14579TIP3   OH265227   5.767   3.352   4.263  0.7460  0.0344  0.6797
14579TIP3    H165228   5.750   3.358   4.169 -0.7221 -0.2567  0.8881
14579TIP3    H265229   5.842   3.410   4.279  2.5332 -1.6988 -0.9957
14580TIP3   OH265230   6.759   0.472   4.838 -0.3515  0.1285 -0.4123
14580TIP3    H165231   6.760   0.437   4.749 -2.4386  0.5704 -0.6713
14580TIP3    H265232   6.758   0.394   4.894 -0.3912 -0.1717 -0.8204
14581TIP3   OH265233   4.689   3.623  13.805 -0.0490  0.0067 -0.2670
14581TIP3    H165234   4.719   3.613  13.715  0.6555  0.4526 -0.0823
14581TIP3    H265235   4.617   3.559  13.813 -0.1173 -0.0372 -1.1342
14582TIP3   OH265236   5.329   0.553  17.217  0.1702  0.1280  0.3590
14582TIP3    H165237   5.305   0.462  17.234  1.6309 -0.9809 -2.7541
14582TIP3    H265238   5.248   0.593  17.184 -0.1811 -0.3816  0.5908
14583TIP3   OH265239   0.090   6.313  11.773 -0.3833  0.6651 -0.3470
14583TIP3    H165240   0.093   6.245  11.705 -2.3310  0.3813 -0.2048
14583TIP3    H265241   0.182   6.337  11.786  0.2316 -0.8279 -1.5117
14584TIP3   OH265242   1.532   2.106  16.668  1.2313  0.7176  0.0950
14584TIP3    H165243   1.541   2.013  16.688  1.9803  0.7159 -0.2007
14584TIP3    H265244   1.536   2.110  16.572  1.4955  1.0791  0.1176
14585TIP3   OH265245   4.767   3.629   0.941 -1.1129 -0.2650 -0.1245
14585TIP3    H165246   4.854   3.604   0.973 -0.5539  0.4560 -0.9954
14585TIP3    H265247   4.764   3.596   0.851 -0.7794  1.6997 -0.9265
14586TIP3   OH265248   1.088   0.414  11.256  0.1476 -0.1011  0.2319
14586TIP3    H165249   1.052   0.325  11.253  1.0215 -0.5669  2.2323
14586TIP3    H265250   1.042   0.456  11.328 -0.7324  1.3506 -1.1058
14587TIP3   OH265251   1.423   0.406   2.176 -0.1190  0.1866 -0.7103
14587TIP3    H165252   1.356   0.339   2.160 -1.3893  1.1542  0.2559
14587TIP3    H265253   1.496   0.359   2.215 -1.7122 -0.4306  1.7515
14588TIP3   OH265254   2.475   5.007   4.603  0.4667 -0.1804  0.0439
14588TIP3    H165255   2.462   4.930   4.548  2.7347 -0.2406 -0.4778
14588TIP3    H265256   2.558   4.992   4.648  2.1104  2.7899 -1.6464
14589TIP3   OH265257   2.295   1.495   4.894 -0.2278 -0.3012 -0.3180
14589TIP3    H165258   2.374   1.444   4.879 -0.2183 -0.9239  1.5992
14589TIP3    H265259   2.290   1.555   4.819  1.3223 -1.1361 -1.1317
14590TIP3   OH265260   0.788   5.549   0.306 -0.7756 -0.4315  0.2394
14590TIP3    H165261   0.760   5.536   0.397 -1.7234 -0.2695 -0.0177
14590TIP3    H265262   0.865   5.605   0.312  0.4728 -2.1528  1.0737
14591TIP3   OH265263   5.342   2.159   6.351 -0.4130 -0.2853 -0.7566
14591TIP3    H165264   5.434   2.143   6.331 -0.1924 -0.3849  0.2627
14591TIP3    H265265   5.335   2.254   6.357 -0.3356 -0.2854 -0.6600
14592TIP3   OH265266   4.700   1.147  16.777  0.0067 -0.4347 -0.3979
14592TIP3    H165267   4.734   1.145  16.688 -1.5967 -2.1651 -1.0547
14592TIP3    H265268   4.620   1.199  16.771  0.1866 -0.0852  0.1594
14593TIP3   OH265269   5.661   0.354  12.815  0.1111  0.2265 -0.1423
14593TIP3    H165270   5.730   0.332  12.753 -0.8825 -2.1903 -0.4952
14593TIP3    H265271   5.686   0.310  12.896 -0.6314 -0.0479 -0.0545
14594TIP3   OH265272   5.451   6.734   6.675  0.4157  0.3176 -0.1342
14594TIP3    H165273   5.423   6.825   6.662  0.8324  0.1657 -2.6135
14594TIP3    H265274   5.475   6.729   6.767  0.5177  2.7609  0.0354
14595TIP3   OH265275   3.956   2.365   3.808  0.0130  0.1024 -0.6481
14595TIP3    H165276   3.944   2.272   3.793 -1.2716  0.3154 -1.1251
14595TIP3    H265277   3.998   2.371   3.894  0.0279 -0.9014 -0.5776
14596TIP3   OH265278   1.574   5.598  17.479 -0.6063  0.1342  0.0328
14596TIP3    H165279   1.498   5.555  17.519 -1.9474  0.7638 -1.7143
14596TIP3    H265280   1.601   5.664  17.544 -0.7326 -0.9199  1.2010
14597TIP3   OH265281   1.732   4.482  14.400 -0.2117 -0.5358  0.3670
14597TIP3    H165282   1.687   4.407  14.439  0.8603 -1.3076  0.1508
14597TIP3    H265283   1.666   4.551  14.399 -0.9248 -1.1717  1.4762
14598TIP3   OH265284   0.269   6.466  12.447  0.1883 -0.3809  0.2035
14598TIP3    H165285   0.297   6.379  12.416  1.1560 -0.9835  2.5682
14598TIP3    H265286   0.349   6.507  12.479 -0.5153  0.8066  0.4832
14599TIP3   OH265287   3.537   2.631   0.809  0.0448 -0.1363  0.2325
14599TIP3    H165288   3.586   2.702   0.768 -0.1714  0.1353  0.4497
14599TIP3    H265289   3.453   2.629   0.763  0.8691 -1.7306 -1.3517
14600TIP3   OH265290   5.758   5.473  12.002 -0.1883 -0.2156  0.5456
14600TIP3    H165291   5.796   5.388  11.980 -1.2865 -0.6790  0.3299
14600TIP3    H265292   5.708   5.456  12.082  1.0626  0.6733  1.5467
14601TIP3   OH265293   0.662   4.182  12.837 -0.6341 -0.4170  0.1161
14601TIP3    H165294   0.617   4.264  12.818  0.4556  0.3587  0.7608
14601TIP3    H265295   0.718   4.166  12.760  1.1824  0.9067  1.0857
14602TIP3   OH265296   5.165   0.118  13.981  0.2935  0.3892 -0.2204
14602TIP3    H165297   5.078   0.149  13.958 -0.2531 -0.8052  0.1422
14602TIP3    H265298   5.222   0.193  13.966 -0.8974  1.4317  0.2777
14603TIP3   OH265299   6.422   5.641  14.950 -0.4359  0.0436  0.2857
14603TIP3    H165300   6.398   5.683  15.032 -1.0682 -0.5041  0.3906
14603TIP3    H265301   6.509   5.605  14.966 -0.2476  0.5776  0.4701
14604TIP3   OH265302   5.655   0.262  17.306  0.1326 -0.1634  0.3268
14604TIP3    H165303   5.697   0.342  17.274  1.7540 -1.3379 -0.6418
14604TIP3    H265304   5.587   0.243  17.242  0.5897 -0.2240 -0.1514
14605TIP3   OH265305   5.703   4.206   5.901  0.4290 -0.1736 -0.0717
14605TIP3    H165306   5.696   4.299   5.878 -2.2884 -0.3339 -0.1448
14605TIP3    H265307   5.627   4.188   5.955 -0.1648 -2.7819 -1.5785
14606TIP3   OH265308   1.042   2.754  16.485 -0.0680  0.2032 -0.3804
14606TIP3    H165309   1.033   2.745  16.390 -0.8420 -0.4629 -0.2473
14606TIP3    H265310   1.039   2.665  16.518 -0.2360  0.4653  0.3136
14607TIP3   OH265311   1.366   1.924   6.143 -0.2368  0.0915 -0.2308
14607TIP3    H165312   1.297   1.897   6.202  0.1642  0.8741  0.6318
14607TIP3    H265313   1.446   1.886   6.179 -0.0883 -0.0315 -0.6809
14608TIP3   OH265314   1.748   5.052  16.259 -0.3402  0.1997  0.2040
14608TIP3    H165315   1.731   5.146  16.258  1.5349  0.5869 -1.5322
14608TIP3    H265316   1.817   5.041  16.324  0.1646  0.1875 -0.3287
14609TIP3   OH265317   2.364   5.212  14.402 -0.2422 -0.2628  0.3807
14609TIP3    H165318   2.402   5.135  14.444 -0.0184  0.8985  2.4539
14609TIP3    H265319   2.439   5.260  14.368 -0.2092 -0.0424  0.7589
14610TIP3   OH265320   2.568   2.416  12.539  0.5083 -0.1983 -0.0154
14610TIP3    H165321   2.535   2.390  12.452  2.2923 -2.6156 -0.0531
14610TIP3    H265322   2.639   2.478  12.520 -1.4855  2.2794 -0.0357
14611TIP3   OH265323   2.873   6.655  11.365  0.4731 -0.8982 -0.4512
14611TIP3    H165324   2.925   6.688  11.439  0.3862  0.8068 -1.1107
14611TIP3    H265325   2.786   6.692  11.380  0.2029 -1.3529 -0.8987
14612TIP3   OH265326   6.486   0.071  12.879  0.1026  0.1373 -0.2057
14612TIP3    H165327   6.517   0.160  12.899  0.2498  0.4050 -1.5455
14612TIP3    H265328   6.564   0.016  12.884 -0.0737 -0.0281  1.1271
14613TIP3   OH265329   4.137   1.173  14.476 -0.3446 -0.5749 -0.3888
14613TIP3    H165330   4.125   1.242  14.540 -1.4856 -0.1407 -1.0554
14613TIP3    H265331   4.049   1.151  14.446  0.1896 -0.2857 -2.2989
14614TIP3   OH265332   4.604   1.777   4.817  0.5282 -0.1130  0.3420
14614TIP3    H165333   4.643   1.831   4.749  1.6727 -0.6335  0.5683
14614TIP3    H265334   4.525   1.825   4.843  0.6118  0.5815 -0.6478
14615TIP3   OH265335   3.535   4.048  17.510 -0.3909  0.4520  0.2799
14615TIP3    H165336   3.556   3.996  17.432 -0.6890  0.8192 -0.0521
14615TIP3    H265337   3.523   4.137  17.477  2.9426  1.3660  1.2032
14616TIP3   OH265338   4.336   1.712   3.628  0.0851 -0.4451 -0.2302
14616TIP3    H165339   4.324   1.776   3.558 -1.4083 -0.2638  0.1637
14616TIP3    H265340   4.424   1.676   3.613  0.2403  0.4082 -1.5035
14617TIP3   OH265341   3.140   1.745   1.377  0.1073  0.2266  0.0621
14617TIP3    H165342   3.164   1.835   1.351  0.5430  0.1101  0.0463
14617TIP3    H265343   3.184   1.733   1.461  0.3982 -0.1168 -0.1351
14618TIP3   OH265344   1.414   1.914   4.141  0.7640  0.4375 -0.5428
14618TIP3    H165345   1.485   1.884   4.198 -0.0344 -0.2654  0.0981
14618TIP3    H265346   1.445   1.998   4.107  1.4450  0.6687  0.5840
14619TIP3   OH265347   1.157   6.214   5.287  0.0900  0.1942  0.4134
14619TIP3    H165348   1.217   6.142   5.266  0.1951 -0.2679  2.1403
14619TIP3    H265349   1.158   6.219   5.382  1.6139  3.8240  0.3536
14620TIP3   OH265350   1.992   4.455  12.551  0.5390  0.2455  0.0151
14620TIP3    H165351   2.013   4.475  12.459  1.4038  0.4756  0.2521
14620TIP3    H265352   2.024   4.366  12.564 -0.1362 -0.0162 -0.0647
14621TIP3   OH265353   5.170   6.079   1.911  0.7811  0.1305  0.0467
14621TIP3    H165354   5.212   6.036   1.836 -0.2936 -0.3272 -0.3245
14621TIP3    H265355   5.141   6.006   1.966 -1.6810  0.2524 -0.9237
14622TIP3   OH265356   2.633   3.443   6.600 -0.2565  0.8511 -0.4232
14622TIP3    H165357   2.685   3.453   6.520 -0.7077 -0.6546 -0.9432
14622TIP3    H265358   2.553   3.493   6.583 -0.4773  0.2973 -1.0469
14623TIP3   OH265359   2.569   3.099   5.658 -0.0032 -0.4891 -0.2105
14623TIP3    H165360   2.641   3.044   5.686  0.0635 -0.9726 -1.2870
14623TIP3    H265361   2.494   3.040   5.653 -0.8546  0.2700  2.2511
14624TIP3   OH265362   1.164   3.392   1.422 -0.3381  0.2972  0.3149
14624TIP3    H165363   1.085   3.405   1.474 -0.5461  1.2559 -0.2186
14624TIP3    H265364   1.144   3.431   1.337  0.6470  0.4179  0.1213
14625TIP3   OH265365   3.050   4.320   2.578  0.3362  0.0243 -0.8323
14625TIP3    H165366   3.003   4.271   2.510 -0.5200 -0.0965 -0.1732
14625TIP3    H265367   3.133   4.274   2.587  0.2650 -0.2421 -1.4665
14626TIP3   OH265368   3.468   5.427   0.780 -0.1399  0.4020 -0.4059
14626TIP3    H165369   3.541   5.430   0.841 -0.4040  1.4863 -0.1225
14626TIP3    H265370   3.463   5.516   0.744  0.0971 -0.2258 -2.1282
14627TIP3   OH265371   2.299   0.476   1.326 -0.0184 -0.3816  0.1830
14627TIP3    H165372   2.232   0.503   1.389 -0.2340 -0.0506 -0.1842
14627TIP3    H265373   2.276   0.522   1.245  1.0566  0.3131  0.2440
14628TIP3   OH265374   4.488   5.767   1.488  0.2352 -0.2358 -0.1751
14628TIP3    H165375   4.536   5.806   1.416 -0.3722 -1.0512 -1.0515
14628TIP3    H265376   4.551   5.764   1.560  1.2080 -0.4106 -1.0052
14629TIP3   OH265377   4.217   2.594   5.200 -0.0038 -0.7946  0.1066
14629TIP3    H165378   4.309   2.611   5.176 -0.8205  0.5212 -2.4740
14629TIP3    H265379   4.167   2.626   5.125 -2.6920 -0.1706  2.0512
14630TIP3   OH265380   3.276   5.020  12.854 -0.3051 -0.2915  0.2075
14630TIP3    H165381   3.204   4.963  12.881 -0.2161 -0.0930  0.8906
14630TIP3    H265382   3.269   5.024  12.759  0.7150 -2.8128 -0.0462
14631TIP3   OH265383   1.232   0.446   3.507  0.2191  0.0739  0.4711
14631TIP3    H165384   1.302   0.478   3.563 -0.4728  2.1139  0.2653
14631TIP3    H265385   1.154   0.450   3.562 -0.4602  2.0584 -0.5475
14632TIP3   OH265386   1.655   6.249   2.667 -0.5481  0.0916  0.6140
14632TIP3    H165387   1.729   6.193   2.691 -0.0596  1.5625  2.8209
14632TIP3    H265388   1.605   6.197   2.604  0.6475 -2.2173  1.4499
14633TIP3   OH265389   0.735   5.691   5.774 -0.3150  0.1489 -0.6069
14633TIP3    H165390   0.661   5.654   5.822 -0.5806 -0.1534 -1.2285
14633TIP3    H265391   0.813   5.654   5.816 -0.4438  1.6234  1.0028
14634TIP3   OH265392   0.257   5.033   4.450  0.2281 -0.4842  0.1238
14634TIP3    H165393   0.184   5.022   4.512 -1.3284 -0.5042 -1.6270
14634TIP3    H265394   0.272   4.946   4.415 -1.6168  0.0799 -2.3593
14635TIP3   OH265395   2.793   5.461   1.037  0.0661 -0.0476 -0.7229
14635TIP3    H165396   2.873   5.417   1.009 -0.2512 -0.2667 -1.3090
14635TIP3    H265397   2.800   5.467   1.132  0.1370 -1.3182 -0.6410
14636TIP3   OH265398   3.626   5.391  14.872  0.3235 -0.0047 -0.2374
14636TIP3    H165399   3.602   5.423  14.958 -1.6442  0.5601 -0.9491
14636TIP3    H265400   3.689   5.456  14.839 -0.9754  1.2807 -0.2796
14637TIP3   OH265401   3.441   2.559  17.113 -0.1843  0.1871 -0.0867
14637TIP3    H165402   3.489   2.586  17.192  0.8082  0.2537 -0.6889
14637TIP3    H265403   3.399   2.639  17.082 -0.1887  0.2638  0.1163
14638TIP3   OH265404   5.049   2.144  13.292  0.4343 -0.2177 -0.1035
14638TIP3    H165405   5.142   2.167  13.295  0.7144 -1.2710 -0.4630
14638TIP3    H265406   5.004   2.221  13.327  1.5488 -0.3074  1.6524
14639TIP3   OH265407   3.405   4.862   3.215  0.5251 -0.1049 -0.1686
14639TIP3    H165408   3.340   4.927   3.188 -0.2606 -0.5905  0.4846
14639TIP3    H265409   3.490   4.905   3.200  0.0728  0.4262 -1.3170
14640TIP3   OH265410   0.030   3.327  11.283  0.3202  0.2935  0.1685
14640TIP3    H165411   0.066   3.239  11.290  1.4366  0.6234 -0.9599
14640TIP3    H265412   0.014   3.339  11.189 -0.5232  1.0197  0.3929
14641TIP3   OH265413   5.399   5.285   5.785 -0.7628  0.5175  0.1253
14641TIP3    H165414   5.322   5.235   5.758 -0.1381  0.0985 -0.9370
14641TIP3    H265415   5.463   5.220   5.811  0.3641  0.6332 -2.0786
14642TIP3   OH265416   6.768   6.273   3.986  0.4223  0.4729  0.9005
14642TIP3    H165417   6.833   6.330   4.027  0.5705  0.9155  0.0789
14642TIP3    H265418   6.738   6.216   4.056  0.1867  1.6401  1.7841
14643TIP3   OH265419   4.159   3.687  15.613  0.5098 -0.0960  0.3922
14643TIP3    H165420   4.081   3.696  15.667 -0.6911  0.5479 -1.3767
14643TIP3    H265421   4.220   3.752  15.648  0.3617 -0.7272  1.9059
14644TIP3   OH265422   3.911   2.470   0.297 -0.6300 -0.3645  0.4369
14644TIP3    H165423   3.922   2.398   0.358 -1.2184 -0.7959  0.0410
14644TIP3    H265424   3.831   2.514   0.325 -0.7061 -0.3464  0.1922
14645TIP3   OH265425   1.157   2.351  14.938 -0.0389  0.0811 -0.1202
14645TIP3    H165426   1.238   2.358  14.888  0.5084  1.2230  0.8487
14645TIP3    H265427   1.172   2.277  14.998 -0.3868 -0.7756 -1.0695
14646TIP3   OH265428   0.336   4.560  11.238 -0.1323  0.2513  0.0409
14646TIP3    H165429   0.350   4.653  11.224  2.4349 -0.0929 -0.1071
14646TIP3    H265430   0.314   4.525  11.151  1.2256  0.3980 -0.3894
14647TIP3   OH265431   5.283   4.421  17.078  0.6860 -0.5280 -0.8430
14647TIP3    H165432   5.320   4.391  16.995  0.9551 -0.1077 -0.8802
14647TIP3    H265433   5.359   4.452  17.128  0.4840 -0.4580 -0.5778
14648TIP3   OH265434   2.921   4.263   1.960  0.2942 -0.2533 -0.0400
14648TIP3    H165435   2.837   4.307   1.976  0.0822 -0.2833 -1.0593
14648TIP3    H265436   2.922   4.246   1.866  0.5662 -2.0433  0.2630
14649TIP3   OH265437   4.780   4.440   1.610 -0.0092  0.2450  0.6866
14649TIP3    H165438   4.832   4.401   1.540 -1.0532 -1.3964  0.7574
14649TIP3    H265439   4.810   4.394   1.689 -1.8617 -1.1497  0.6546
14650TIP3   OH265440   2.297   3.411  15.274  0.3746 -0.1512  0.2181
14650TIP3    H165441   2.277   3.367  15.192 -0.1395  0.5045 -0.0196
14650TIP3    H265442   2.387   3.387  15.293  0.6670  0.0954 -0.8064
14651TIP3   OH265443   2.245   3.194   4.607  0.2483 -0.3453 -0.4842
14651TIP3    H165444   2.336   3.163   4.610  0.3996 -0.0022 -1.2344
14651TIP3    H265445   2.242   3.251   4.530  0.1815  2.1537  1.2482
14652TIP3   OH265446   3.266   5.020  13.741 -0.0257  0.5481  0.1576
14652TIP3    H165447   3.256   4.997  13.833  1.9188 -0.0083  0.2857
14652TIP3    H265448   3.310   5.105  13.742  0.9512  0.0615 -0.2258
14653TIP3   OH265449   4.944   2.251   0.252  0.1045 -0.0123 -0.3025
14653TIP3    H165450   4.897   2.224   0.331  2.0644 -0.2777  0.8273
14653TIP3    H265451   4.911   2.339   0.234 -1.3941 -0.4821 -0.0418
14654TIP3   OH265452   1.737   4.651  14.676 -0.6281 -0.5772  0.3859
14654TIP3    H165453   1.819   4.654  14.725  0.7174 -0.9192 -1.7438
14654TIP3    H265454   1.681   4.716  14.720 -0.1606 -2.0187  3.3598
14655TIP3   OH265455   5.404   3.533  11.149 -0.4062 -0.3973  0.1844
14655TIP3    H165456   5.378   3.590  11.221  1.3116  1.6890 -0.7471
14655TIP3    H265457   5.427   3.592  11.078 -0.7165 -2.3512 -1.6508
14656TIP3   OH265458   5.698   6.055   2.865  0.0372 -0.0272 -0.1583
14656TIP3    H165459   5.725   5.964   2.857 -0.8151 -0.6281  2.5006
14656TIP3    H265460   5.620   6.051   2.922  1.1487  2.4535  1.7282
14657TIP3   OH265461   1.382   0.307  15.536  0.6850  0.1535 -0.3839
14657TIP3    H165462   1.360   0.357  15.615 -0.0967  1.0054 -1.1182
14657TIP3    H265463   1.427   0.230  15.569  0.2825  0.4403  0.9103
14658TIP3   OH265464   5.613   2.554  15.153 -0.2601  0.2899  0.0023
14658TIP3    H165465   5.654   2.605  15.084 -0.0418  0.6631  0.4043
14658TIP3    H265466   5.684   2.500  15.189 -0.2781  0.4132  0.2242
14659TIP3   OH265467   0.391   4.137  15.188  0.4921  0.3824 -0.2420
14659TIP3    H165468   0.409   4.051  15.150 -0.4195  0.1447 -0.1707
14659TIP3    H265469   0.409   4.126  15.281 -1.9853 -0.4874  0.2071
14660TIP3   OH265470   6.609   2.417   5.607 -0.3093 -0.4551 -0.4082
14660TIP3    H165471   6.555   2.428   5.685  1.0797  1.5360  0.3391
14660TIP3    H265472   6.552   2.371   5.545 -1.4808 -1.9926  1.7002
14661TIP3   OH265473   4.564   6.682   5.770  0.1040  0.2297  0.3056
14661TIP3    H165474   4.654   6.680   5.739 -0.3482  0.9931 -1.1577
14661TIP3    H265475   4.514   6.636   5.703 -0.5244 -0.7604  1.4180
14662TIP3   OH265476   4.255   2.607  10.662  0.2677  0.9268  0.8530
14662TIP3    H165477   4.220   2.624  10.750  0.6367  1.7799  0.8438
14662TIP3    H265478   4.264   2.694  10.622 -2.4576  0.4675 -1.0589
14663TIP3   OH265479   6.002   6.735  12.235 -0.0248 -0.6529 -0.2677
14663TIP3    H165480   6.074   6.722  12.296  0.0359  1.7336  0.2285
14663TIP3    H265481   5.973   6.646  12.213  1.4186 -1.5977  1.4504
14664TIP3   OH265482   0.125   6.166  13.972  0.2172 -0.4098 -0.0668
14664TIP3    H165483   0.053   6.105  13.990 -0.0577 -0.3522 -0.9062
14664TIP3    H265484   0.082   6.240  13.929  0.5116  0.4863  1.1331
14665TIP3   OH265485   4.500   6.190   6.533  0.1618 -0.1490  0.3532
14665TIP3    H165486   4.577   6.149   6.493  0.2149  0.7212 -0.4697
14665TIP3    H265487   4.470   6.127   6.598  0.5749 -1.2530 -0.4936
14666TIP3   OH265488   2.157   2.495  16.467  0.0715  0.6183  0.1468
14666TIP3    H165489   2.114   2.552  16.531  2.3647  0.6135  1.8074
14666TIP3    H265490   2.089   2.475  16.403 -2.0794  1.4012  2.0662
14667TIP3   OH265491   4.075   5.594   1.880  0.1873  0.2673 -0.2698
14667TIP3    H165492   4.062   5.682   1.845  0.9971  1.2090  1.6072
14667TIP3    H265493   4.166   5.574   1.859  0.7403  0.9195  1.3098
14668TIP3   OH265494   0.987   1.671  16.271 -0.0629 -0.5514  0.2702
14668TIP3    H165495   0.991   1.594  16.328 -2.4067 -1.5316 -0.7407
14668TIP3    H265496   1.006   1.745  16.329  0.3123 -1.7309  1.7086
14669TIP3   OH265497   3.387   6.514   1.866 -0.5324 -0.0313 -0.2184
14669TIP3    H165498   3.472   6.550   1.891 -0.4609 -1.0876  1.1569
14669TIP3    H265499   3.391   6.508   1.770  0.3251  1.3738 -0.2974
14670TIP3   OH265500   1.201   5.521   1.116 -0.3205 -0.3116  0.2960
14670TIP3    H165501   1.198   5.484   1.204  3.4938 -0.9594  0.3170
14670TIP3    H265502   1.212   5.615   1.129  2.1362 -0.5767  0.7193
14671TIP3   OH265503   2.479   6.406   2.135  0.7053 -0.3799 -0.4759
14671TIP3    H165504   2.483   6.499   2.113  1.3264 -0.5970 -1.3500
14671TIP3    H265505   2.536   6.397   2.211  3.3310 -0.5438 -2.3345
14672TIP3   OH265506   5.668   3.548  11.927  0.0072 -0.2573  0.0987
14672TIP3    H165507   5.582   3.586  11.946  0.1294 -0.5235  1.2535
14672TIP3    H265508   5.677   3.476  11.990  0.5192 -1.0933 -0.8935
14673TIP3   OH265509   0.514   5.234   4.281  0.1263  0.0140  0.2363
14673TIP3    H165510   0.581   5.241   4.349 -0.9045  1.0659  1.2094
14673TIP3    H265511   0.431   5.247   4.329 -0.5612  2.3989 -1.4125
14674TIP3   OH265512   5.182   5.226   5.945  0.4613 -0.3420 -0.0578
14674TIP3    H165513   5.129   5.205   6.022 -1.4574 -0.2103 -1.2764
14674TIP3    H265514   5.195   5.142   5.901  2.7828 -0.6532  1.0827
14675TIP3   OH265515   5.275   0.559  16.603 -0.6250 -0.3993 -0.0726
14675TIP3    H165516   5.220   0.596  16.672  1.1438  2.8578 -0.1985
14675TIP3    H265517   5.225   0.574  16.522 -0.4965  0.5969  0.0183
14676TIP3   OH265518   1.478   4.371   1.550  0.3372 -0.0938 -0.2220
14676TIP3    H165519   1.560   4.416   1.527  0.6119  0.7462  2.1127
14676TIP3    H265520   1.427   4.437   1.597 -2.2869 -0.2110 -2.6076
14677TIP3   OH265521   3.577   5.900  13.014 -0.6705 -0.3940 -0.2629
14677TIP3    H165522   3.490   5.874  12.986 -1.4373  1.9309 -0.3082
14677TIP3    H265523   3.602   5.969  12.952  0.5522  0.0215  0.6549
14678TIP3   OH265524   4.483   0.216   1.988 -0.1753  0.2294  0.2057
14678TIP3    H165525   4.472   0.278   2.060 -0.8750 -1.9825  2.1253
14678TIP3    H265526   4.409   0.155   1.997 -0.1278 -0.3139 -2.2482
14679TIP3   OH265527   1.304   3.217   4.586 -0.0337 -0.0980 -0.6371
14679TIP3    H165528   1.377   3.203   4.647 -0.8276 -1.3799  0.0535
14679TIP3    H265529   1.288   3.311   4.590  2.0472  0.3444 -1.3706
14680TIP3   OH265530   2.338   6.138  15.225  0.1520 -0.4038 -0.4615
14680TIP3    H165531   2.260   6.091  15.255  0.2176  0.6026  1.4773
14680TIP3    H265532   2.320   6.159  15.134 -2.0537  0.1744  0.0525
14681TIP3   OH265533   3.375   0.097   5.038 -0.1938 -0.1925 -0.0402
14681TIP3    H165534   3.469   0.087   5.054 -0.3102 -0.7912  0.2988
14681TIP3    H265535   3.335   0.020   5.078 -1.0304  1.0076  1.5769
14682TIP3   OH265536   3.912   4.309  13.788  0.1271 -0.3606 -0.6752
14682TIP3    H165537   3.868   4.227  13.767 -0.0197 -0.1099 -1.3507
14682TIP3    H265538   3.990   4.309  13.732 -0.4374  0.4614 -1.4726
14683TIP3   OH265539   3.642   1.229   0.603  0.0764  0.1037  0.4132
14683TIP3    H165540   3.638   1.159   0.538 -0.5205  0.1494  0.3903
14683TIP3    H265541   3.637   1.184   0.687 -1.3570  0.1589  0.3866
14684TIP3   OH265542   1.434   0.533   1.933 -0.5412  0.1829 -0.4495
14684TIP3    H165543   1.432   0.496   2.022 -0.6635  0.9735 -0.1142
14684TIP3    H265544   1.345   0.562   1.917 -0.1230  1.7673 -0.0697
14685TIP3   OH265545   3.461   1.463  13.577  0.2411  0.4039 -0.1936
14685TIP3    H165546   3.555   1.475  13.592  0.6385 -0.2036 -1.9899
14685TIP3    H265547   3.456   1.409  13.498 -1.6185  1.1960 -0.6675
14686TIP3   OH265548   0.329   4.840  17.016 -0.1567  0.0204  0.1019
14686TIP3    H165549   0.262   4.779  17.047  1.3050 -0.9965  1.3683
14686TIP3    H265550   0.395   4.784  16.975 -0.2863  1.0473 -1.5865
14687TIP3   OH265551   2.378   3.919   3.633  0.3534 -0.3530 -0.0126
14687TIP3    H165552   2.414   3.837   3.599  1.2203 -0.4138  0.9891
14687TIP3    H265553   2.427   3.934   3.714 -0.3090  0.7770  0.1915
14688TIP3   OH265554   2.247   0.060  11.762 -0.0372 -0.5780  0.0350
14688TIP3    H165555   2.280  -0.029  11.779  0.1789 -0.7208 -1.0720
14688TIP3    H265556   2.253   0.070  11.667  0.8171  0.9709  0.2176
14689TIP3   OH265557   0.120   3.941  15.413  0.1475  0.3003 -0.2245
14689TIP3    H165558   0.128   4.035  15.394 -2.8950  1.0293  1.5366
14689TIP3    H265559   0.062   3.908  15.344 -3.0581  0.9513  1.9461
14690TIP3   OH265560   5.565   1.501   3.566  0.8212 -0.3221 -0.2064
14690TIP3    H165561   5.601   1.545   3.488  0.8514 -1.6118 -0.9498
14690TIP3    H265562   5.615   1.538   3.639  1.1750  0.5193 -0.8513
14691TIP3   OH265563   5.170   2.127   0.334  0.1805 -0.0281 -0.1871
14691TIP3    H165564   5.097   2.186   0.317  0.1073 -0.2691 -0.7292
14691TIP3    H265565   5.160   2.057   0.269  0.0119 -0.8746  0.7130
14692TIP3   OH265566   1.634   1.174   3.165  0.3653 -0.7292 -0.2800
14692TIP3    H165567   1.692   1.152   3.091 -0.2785  1.7036 -1.6106
14692TIP3    H265568   1.691   1.170   3.242  1.7906 -0.5202 -1.2790
14693TIP3   OH265569   0.237   3.595  15.181  0.4509  0.4974  0.0159
14693TIP3    H165570   0.222   3.502  15.199  0.2316  0.7784  1.4570
14693TIP3    H265571   0.296   3.624  15.251  1.5418  1.1700 -1.1484
14694TIP3   OH265572   6.566   5.712   3.630 -0.4705  0.6856 -0.1803
14694TIP3    H165573   6.475   5.739   3.622 -0.3006  1.3628  0.0808
14694TIP3    H265574   6.606   5.777   3.689 -0.3005 -0.7891  1.4092
14695TIP3   OH265575   6.522   5.658  16.478  0.2674 -0.1253  0.1264
14695TIP3    H165576   6.452   5.593  16.489  1.6195 -1.4844  1.1284
14695TIP3    H265577   6.590   5.630  16.538  0.3163  3.1409  1.8813
14696TIP3   OH265578   3.839   6.197   5.006  1.1077  0.2582 -0.1828
14696TIP3    H165579   3.795   6.115   4.980  1.4652 -0.1942  0.5875
14696TIP3    H265580   3.875   6.177   5.092  0.4008  1.5312  0.4339
14697TIP3   OH265581   5.643   5.413  12.235 -0.0341  0.0601  0.2613
14697TIP3    H165582   5.623   5.323  12.260 -0.4476 -0.0775 -0.5569
14697TIP3    H265583   5.566   5.463  12.262 -0.5898 -0.1282 -0.9344
14698TIP3   OH265584   0.938   4.730   3.681 -0.3128  0.0082 -0.6031
14698TIP3    H165585   0.861   4.787   3.684 -0.9698 -0.8524 -0.8232
14698TIP3    H265586   0.959   4.715   3.773 -0.0903  0.6531 -0.5412
14699TIP3   OH265587   2.903   1.637  15.031 -0.2680  0.2352 -0.2198
14699TIP3    H165588   2.934   1.728  15.035 -0.7419  0.3827  0.3678
14699TIP3    H265589   2.959   1.595  14.967  1.2347  0.4600  0.8900
14700TIP3   OH265590   5.419   2.575   0.318 -0.1260  0.3629  0.1019
14700TIP3    H165591   5.446   2.656   0.361 -0.1821 -0.0474  0.9335
14700TIP3    H265592   5.480   2.509   0.350 -0.1118  0.0557 -0.5304
14701TIP3   OH265593   6.210   1.723  16.298  0.2675 -0.1564 -0.5173
14701TIP3    H165594   6.258   1.655  16.346 -1.6829 -2.4202 -1.5716
14701TIP3    H265595   6.133   1.678  16.264 -0.7532  2.4604 -1.9181
14702TIP3   OH265596   5.358   3.747  13.871 -0.0254 -0.3781  0.1126
14702TIP3    H165597   5.271   3.785  13.862  0.3417  0.6766  0.8213
14702TIP3    H265598   5.413   3.820  13.900  0.9770 -1.1591  0.2263
14703TIP3   OH265599   4.608   3.421  15.382  0.4505  0.2607 -0.1146
14703TIP3    H165600   4.595   3.326  15.380 -0.4842  0.3834 -0.3075
14703TIP3    H265601   4.626   3.441  15.473  2.3055 -0.2920 -0.3103
14704TIP3   OH265602   3.800   5.359   3.567 -0.1750  0.7723 -0.4746
14704TIP3    H165603   3.848   5.285   3.531  1.3916  1.3563  0.3130
14704TIP3    H265604   3.721   5.365   3.513 -0.9331 -2.1350  0.1297
14705TIP3   OH265605   6.635   5.632   5.357 -0.4051  0.7977  0.1863
14705TIP3    H165606   6.630   5.660   5.448 -0.1632 -0.4390  0.6061
14705TIP3    H265607   6.551   5.589   5.341 -0.1802  0.4019  0.0487
14706TIP3   OH265608   5.124   0.706   2.320 -0.3899  0.1876 -0.1119
14706TIP3    H165609   5.164   0.775   2.267 -0.5545 -0.4978 -1.1671
14706TIP3    H265610   5.163   0.716   2.407  1.6850 -0.1044 -0.9522
14707TIP3   OH265611   6.042   3.998  15.776  0.2355  0.4793  0.9476
14707TIP3    H165612   6.053   4.006  15.681 -0.2906 -1.0071  0.7317
14707TIP3    H265613   5.961   4.046  15.795 -0.0321  0.1911  0.5394
14708TIP3   OH265614   0.943   0.411  15.529  0.2956  0.1589 -0.5449
14708TIP3    H165615   0.854   0.418  15.493  0.0904 -2.4584 -0.7225
14708TIP3    H265616   0.990   0.355  15.467  0.9184 -1.6503  1.4287
14709TIP3   OH265617   5.211   5.342  16.299  0.2924 -0.3388 -0.2028
14709TIP3    H165618   5.124   5.368  16.268  0.0413 -0.9448 -0.0194
14709TIP3    H265619   5.241   5.416  16.350 -0.0312 -0.0401 -0.4355
14710TIP3   OH265620   0.464   4.964   1.930 -0.1411 -0.3824  0.1114
14710TIP3    H165621   0.434   4.905   1.860  0.2267 -0.5637  0.1043
14710TIP3    H265622   0.400   5.035   1.930  0.1896 -0.0754 -0.8132
14711TIP3   OH265623   4.029   5.068  12.893 -0.0858  0.6055  0.3104
14711TIP3    H165624   4.041   5.002  12.826 -0.0643  0.7225  0.1982
14711TIP3    H265625   4.089   5.043  12.963 -2.4154 -1.4021  1.7579
14712TIP3   OH265626   2.924   3.855   2.430 -0.0180 -0.6062  0.5448
14712TIP3    H165627   2.857   3.903   2.478 -0.1874 -0.3879  0.0944
14712TIP3    H265628   2.896   3.858   2.339  0.6586 -0.4113  0.3305
14713TIP3   OH265629   4.381   1.451   5.693  0.5143  0.0252 -0.1165
14713TIP3    H165630   4.407   1.361   5.712 -1.1808 -0.1780  1.4841
14713TIP3    H265631   4.458   1.503   5.715  0.4516 -0.7522  2.2305
14714TIP3   OH265632   3.494   6.643   5.906 -0.5920  0.1165  0.6276
14714TIP3    H165633   3.517   6.553   5.928  1.8582  0.8233  1.3674
14714TIP3    H265634   3.458   6.679   5.987  0.6719  0.4086  1.0947
14715TIP3   OH265635   4.093   0.028   1.153  0.0032  0.3768  0.0753
14715TIP3    H165636   4.088   0.116   1.117  3.8381  1.3153  1.3661
14715TIP3    H265637   4.118  -0.027   1.079  0.3430  0.8739 -0.1833
14716TIP3   OH265638   6.185   2.881  12.092  0.1798  1.0545  0.0989
14716TIP3    H165639   6.238   2.896  12.014 -0.0059 -1.3710 -0.5901
14716TIP3    H265640   6.247   2.845  12.156 -0.0385  1.1873  0.3854
14717TIP3   OH265641   1.755   6.511   1.010 -1.1321 -0.3299 -0.4162
14717TIP3    H165642   1.714   6.453   1.074 -1.4416 -0.4125 -0.6888
14717TIP3    H265643   1.703   6.591   1.013 -0.7864 -0.1095 -0.1366
14718TIP3   OH265644   3.063   5.860   6.196 -0.6619  0.1678  0.0510
14718TIP3    H165645   3.061   5.956   6.201  0.9915  0.1910  1.4812
14718TIP3    H265646   2.971   5.834   6.198 -1.2286  1.7378 -1.9150
14719TIP3   OH265647   3.343   1.079  13.677  0.1706 -0.6810  0.1852
14719TIP3    H165648   3.250   1.092  13.696  0.4089  1.0076  0.3051
14719TIP3    H265649   3.363   1.145  13.610  1.2020 -1.2741 -0.1076
14720TIP3   OH265650   0.182   0.576   5.512  0.0640 -0.2754 -1.1464
14720TIP3    H165651   0.161   0.640   5.580  0.5186  0.2158 -1.4645
14720TIP3    H265652   0.181   0.492   5.558  0.5304  0.0663 -0.4909
14721TIP3   OH265653   3.499   2.567  16.286  0.1377  0.1036 -0.0801
14721TIP3    H165654   3.424   2.584  16.230 -0.0904 -3.0034 -0.8877
14721TIP3    H265655   3.554   2.507  16.235  0.6298 -1.7358  2.4099
14722TIP3   OH265656   6.398   0.717  16.807  0.2681 -0.4052  0.4056
14722TIP3    H165657   6.371   0.726  16.716  1.3609  1.2600  0.2056
14722TIP3    H265658   6.366   0.631  16.833 -2.5579  0.1978 -0.6777
14723TIP3   OH265659   1.500   5.604  17.106 -0.0772 -0.4451  0.1382
14723TIP3    H165660   1.582   5.596  17.156 -0.3440 -2.2156  0.3670
14723TIP3    H265661   1.499   5.527  17.049 -0.7727  0.4648 -1.1415
14724TIP3   OH265662   1.451   5.554   3.447 -0.0738 -0.0297 -0.5328
14724TIP3    H165663   1.470   5.578   3.356 -2.0137 -2.8254 -1.8417
14724TIP3    H265664   1.515   5.485   3.467 -0.3774 -0.2252 -0.2132
14725TIP3   OH265665   3.198   1.916   1.784 -0.1520 -0.2519  0.4350
14725TIP3    H165666   3.249   1.907   1.865  0.6561  0.8078  0.0659
14725TIP3    H265667   3.122   1.969   1.810 -0.2149 -0.4301  0.6238
14726TIP3   OH265668   4.464   0.045   3.483  0.3590 -0.3491  0.0282
14726TIP3    H165669   4.554   0.071   3.504  0.7045 -0.5383 -1.1600
14726TIP3    H265670   4.438   0.104   3.413 -0.3640 -0.4640  0.1957
14727TIP3   OH265671   2.677   2.785   4.758 -0.1378  0.1394 -0.1255
14727TIP3    H165672   2.682   2.693   4.785  1.0802  0.0764 -0.4841
14727TIP3    H265673   2.752   2.826   4.801 -0.3557  0.8413 -0.4091
14728TIP3   OH265674   3.702   0.406  12.539  0.9468  0.4140 -1.1144
14728TIP3    H165675   3.621   0.390  12.588  1.8431 -0.9284  0.0007
14728TIP3    H265676   3.752   0.467  12.593  1.9402 -1.0756 -0.2599
14729TIP3   OH265677   6.606   2.261  13.795 -0.1810  0.0356 -0.2088
14729TIP3    H165678   6.649   2.178  13.814  1.0452  0.4952 -0.8229
14729TIP3    H265679   6.604   2.265  13.699 -1.3915  0.1452 -0.1860
14730TIP3   OH265680   5.095   1.724   5.683 -0.7976 -0.3953  0.2101
14730TIP3    H165681   5.158   1.795   5.669 -0.3760 -0.8670 -0.3278
14730TIP3    H265682   5.123   1.684   5.766  0.4222 -1.4113 -0.6477
14731TIP3   OH265683   0.310   4.741   4.620 -0.0211  0.3796 -0.7456
14731TIP3    H165684   0.260   4.699   4.691  0.9153 -1.2656 -0.9877
14731TIP3    H265685   0.276   4.701   4.540  0.7919  0.1602 -0.9956
14732TIP3   OH265686   2.780   5.511  11.580  1.2519  0.1060  0.6935
14732TIP3    H165687   2.753   5.588  11.629  0.2098  0.6057 -0.5916
14732TIP3    H265688   2.747   5.526  11.492  2.3226 -1.1420  0.0345
14733TIP3   OH265689   0.490   6.517   3.768 -0.3710  0.3723  0.3019
14733TIP3    H165690   0.477   6.452   3.836 -0.4273 -1.7218 -1.5949
14733TIP3    H265691   0.416   6.506   3.708  0.8247  0.5126 -1.2928
14734TIP3   OH265692   5.888   5.211  11.437 -0.3637  0.5645 -0.1371
14734TIP3    H165693   5.948   5.253  11.376  0.0539  2.0061  1.2170
14734TIP3    H265694   5.896   5.261  11.518 -1.6537 -0.6648  0.8068
14735TIP3   OH265695   3.189   1.580   2.852  0.0131 -0.1087  0.5529
14735TIP3    H165696   3.101   1.617   2.852 -0.8095 -1.9764  0.8085
14735TIP3    H265697   3.211   1.571   2.945  0.7272  0.8536  0.4959
14736TIP3   OH265698   5.667   2.302   2.701 -0.6305  0.3152 -0.6757
14736TIP3    H165699   5.716   2.348   2.770 -1.7452  2.1102 -1.0231
14736TIP3    H265700   5.715   2.322   2.620  0.1735 -1.0725 -0.5834
14737TIP3   OH265701   4.757   3.903  17.282  0.0505  0.4081 -0.3596
14737TIP3    H165702   4.663   3.917  17.269  0.3423  0.4065 -3.1908
14737TIP3    H265703   4.799   3.962  17.219  1.8626 -0.9514 -0.5276
14738TIP3   OH265704   1.213   3.498  13.180 -0.7128  0.0069  0.1742
14738TIP3    H165705   1.257   3.549  13.111  0.6716 -1.3339  0.0085
14738TIP3    H265706   1.138   3.459  13.136  0.7319 -1.6800 -0.9392
14739TIP3   OH265707   2.476   5.088   2.658  0.2705 -0.1140 -0.5885
14739TIP3    H165708   2.460   5.015   2.716 -0.5654  0.8039  0.3734
14739TIP3    H265709   2.469   5.051   2.570 -0.8386 -1.0462 -0.1331
14740TIP3   OH265710   3.213   0.485   4.614 -0.2024  0.2893  0.1533
14740TIP3    H165711   3.123   0.518   4.610 -0.8214 -0.9265  2.4033
14740TIP3    H265712   3.207   0.394   4.588  0.0308 -0.2915  2.0008
14741TIP3   OH265713   6.033   2.376  14.881 -0.3019 -0.0308 -0.6844
14741TIP3    H165714   5.954   2.431  14.882 -0.2447  0.0861 -1.8709
14741TIP3    H265715   6.033   2.334  14.967 -1.6936 -0.0773 -0.6758
14742TIP3   OH265716   2.887   6.296  17.381  0.0181 -0.0579  0.1635
14742TIP3    H165717   2.947   6.246  17.436  0.7468 -0.0795 -0.6412
14742TIP3    H265718   2.861   6.236  17.312  0.8824  0.6393 -0.7944
14743TIP3   OH265719   1.046   0.210  13.653  0.4998  0.0842 -0.5227
14743TIP3    H165720   1.000   0.218  13.569  0.0260 -1.5643 -0.4602
14743TIP3    H265721   1.139   0.213  13.630  0.3858 -1.0238 -1.2172
14744TIP3   OH265722   6.687   4.313   4.836  0.3211  0.1970  0.2762
14744TIP3    H165723   6.657   4.234   4.790 -0.5831  1.0094 -0.5648
14744TIP3    H265724   6.695   4.379   4.768  0.4974  1.0008  1.0565
14745TIP3   OH265725   5.158   3.459  16.381  0.3271 -0.0126 -0.1044
14745TIP3    H165726   5.159   3.365  16.397  2.4310 -0.1973 -0.9609
14745TIP3    H265727   5.229   3.493  16.435 -0.0656  1.0285 -0.2169
14746TIP3   OH265728   0.206   6.041  16.469 -0.3107 -0.1252  0.0282
14746TIP3    H165729   0.169   6.125  16.442  0.7132  0.4056  0.2215
14746TIP3    H265730   0.165   6.023  16.554  0.5114  0.8871  0.6565
14747TIP3   OH265731   5.157   3.192   2.886 -0.7214  0.5344 -0.2999
14747TIP3    H165732   5.227   3.257   2.888 -0.4275  0.2515 -1.0113
14747TIP3    H265733   5.137   3.176   2.978 -0.1467  0.9397 -0.0964
14748TIP3   OH265734   0.376   1.119  16.761 -0.2000  0.7078  0.3639
14748TIP3    H165735   0.388   1.175  16.839  2.0637  1.5123 -0.4761
14748TIP3    H265736   0.390   1.178  16.687 -0.7081 -0.3937 -0.6393
14749TIP3   OH265737   2.075   2.174   0.249 -0.0317  0.0047 -0.6027
14749TIP3    H165738   1.985   2.206   0.246 -0.5209 -1.0833  0.9358
14749TIP3    H265739   2.078   2.101   0.187 -0.4900 -0.5394 -0.0011
14750TIP3   OH265740   4.297   2.534  12.154  0.2194 -0.0767 -0.4889
14750TIP3    H165741   4.229   2.535  12.221  0.7884  0.7276  0.1051
14750TIP3    H265742   4.259   2.581  12.080  0.5030  1.4228  0.2668
14751TIP3   OH265743   3.042   0.732  15.758 -0.3540  0.0582 -0.2048
14751TIP3    H165744   3.094   0.659  15.723 -1.5602  0.3009 -2.7709
14751TIP3    H265745   2.953   0.699  15.760 -0.5188  0.5483  1.4536
14752TIP3   OH265746   1.506   4.420  17.331  0.1494 -0.0979  0.1847
14752TIP3    H165747   1.503   4.384  17.242 -0.7934 -1.8136  0.8679
14752TIP3    H265748   1.426   4.473  17.338  0.1906 -0.0152  0.0400
14753TIP3   OH265749   1.166   4.490  15.832  0.4498 -0.5292  0.4508
14753TIP3    H165750   1.193   4.444  15.753  2.5963  2.8022 -0.9678
14753TIP3    H265751   1.110   4.561  15.800  1.4071  0.9275  1.8606
14754TIP3   OH265752   5.613   1.090   5.716 -0.8100 -0.2057  0.1714
14754TIP3    H165753   5.653   1.115   5.633 -0.4480 -1.1941  0.0342
14754TIP3    H265754   5.686   1.064   5.772 -1.1016 -0.2039  0.5624
14755TIP3   OH265755   4.510   5.603  14.145 -0.0041  0.0116  0.2184
14755TIP3    H165756   4.586   5.583  14.091 -0.2405 -2.7424  0.7665
14755TIP3    H265757   4.449   5.646  14.085  0.7200 -0.6894 -1.0665
14756TIP3   OH265758   5.146   4.978  14.803  0.7014  0.0233 -0.0075
14756TIP3    H165759   5.068   5.033  14.801  0.3657 -0.4403  0.2502
14756TIP3    H265760   5.185   4.989  14.716  0.5874  0.5876  0.0089
14757TIP3   OH265761   5.225   0.088   1.077  0.0445  0.1344  0.0611
14757TIP3    H165762   5.194  -0.001   1.062 -1.2231  0.3011  1.4875
14757TIP3    H265763   5.223   0.129   0.991  0.4032 -1.1184 -0.5752
14758TIP3   OH265764   6.082   0.452   5.651  0.7201  0.3024 -0.5850
14758TIP3    H165765   5.998   0.439   5.694  1.2738  0.0436  0.4472
14758TIP3    H265766   6.064   0.438   5.558 -0.4350  0.5755 -0.4176
14759TIP3   OH265767   1.636   0.010  14.360 -0.0976 -0.6025 -0.8759
14759TIP3    H165768   1.602   0.032  14.446  1.8482 -0.6139 -0.0568
14759TIP3    H265769   1.642  -0.086  14.361  1.2795 -0.5255 -0.4547
14760TIP3   OH265770   5.909   0.998   2.710  0.2974  0.1986 -0.2169
14760TIP3    H165771   5.968   0.934   2.671 -0.3684 -0.0127 -0.9056
14760TIP3    H265772   5.824   0.980   2.670 -0.4248 -0.0269  1.3335
14761TIP3   OH265773   5.733   4.333  13.748  0.7244  0.1861 -0.1848
14761TIP3    H165774   5.824   4.362  13.744  1.2788 -1.5348 -0.7211
14761TIP3    H265775   5.714   4.299  13.661 -0.6236  0.9933 -0.2370
14762TIP3   OH265776   5.884   3.842   2.788  0.0220 -0.2024  0.4020
14762TIP3    H165777   5.836   3.858   2.706 -1.1259 -2.4936  0.5422
14762TIP3    H265778   5.855   3.912   2.847 -1.6256 -0.3508 -0.1764
14763TIP3   OH265779   1.974   3.020  16.595  0.2976  0.0856 -0.3277
14763TIP3    H165780   1.901   2.959  16.578 -1.0650  2.0647 -2.2480
14763TIP3    H265781   1.999   3.004  16.686  0.0349 -3.2799 -0.7234
14764TIP3   OH265782   6.328   2.429  11.900  0.0417 -0.8924 -0.4827
14764TIP3    H165783   6.368   2.513  11.876 -0.8691 -0.9773 -2.4723
14764TIP3    H265784   6.257   2.453  11.961 -0.6950 -0.0999 -1.6091
14765TIP3   OH265785   3.009   1.622  17.403  0.2145 -0.0420  0.4592
14765TIP3    H165786   3.031   1.530  17.383  1.1959  0.1003  0.8187
14765TIP3    H265787   3.038   1.670  17.326 -0.0124  0.0069  0.4035
14766TIP3   OH265788   2.726   3.352  11.854  0.2312  0.6738 -0.4261
14766TIP3    H165789   2.761   3.284  11.912 -1.6155 -1.8339 -2.0543
14766TIP3    H265790   2.681   3.413  11.912  0.4827 -0.4188  0.9580
14767TIP3   OH265791   6.597   5.889   4.141  0.2559  0.3485 -0.2934
14767TIP3    H165792   6.526   5.950   4.120  1.8023  1.9051 -1.2821
14767TIP3    H265793   6.564   5.804   4.114 -1.2627  0.9941 -0.6152
14768TIP3   OH265794   1.767   3.323   5.008  0.5341 -0.4311  0.1543
14768TIP3    H165795   1.802   3.316   4.919  2.9694 -1.5980  1.1154
14768TIP3    H265796   1.774   3.235   5.043  0.7697  0.2574  1.9108
14769TIP3   OH265797   5.847   4.054   0.814 -0.3567 -0.6104  0.1013
14769TIP3    H165798   5.867   3.997   0.888  2.2225 -0.6712 -0.5480
14769TIP3    H265799   5.900   4.132   0.829  0.1413 -0.5851 -1.6074
14770TIP3   OH265800   4.457   1.465   5.364  0.0480 -0.0887  0.2101
14770TIP3    H165801   4.502   1.544   5.394 -0.3817 -0.1027  0.9135
14770TIP3    H265802   4.496   1.394   5.415 -1.9180  0.1064  2.1331
14771TIP3   OH265803   3.174   3.845  15.381 -0.1191  0.1422 -0.4758
14771TIP3    H165804   3.219   3.908  15.325 -0.0874  1.8297  1.3393
14771TIP3    H265805   3.230   3.838  15.459  0.0790 -2.4786 -0.7681
14772TIP3   OH265806   2.011   4.506   2.453  0.5104 -0.2570  0.3779
14772TIP3    H165807   2.007   4.601   2.462  1.6992 -0.2188  0.7282
14772TIP3    H265808   2.105   4.487   2.445  0.3529 -1.4555  1.0951
14773TIP3   OH265809   2.322   0.346   2.613 -0.0690  0.2561 -0.6942
14773TIP3    H165810   2.298   0.262   2.653 -1.2561  1.4537  1.3237
14773TIP3    H265811   2.241   0.376   2.572 -0.7240  1.9375  1.6240
14774TIP3   OH265812   2.331   4.856  15.240  0.3087  0.5014  0.0538
14774TIP3    H165813   2.390   4.925  15.273 -1.8584  2.3661  0.2909
14774TIP3    H265814   2.268   4.844  15.311  0.2619 -1.3118 -0.2678
14775TIP3   OH265815   6.321   2.092   1.566 -0.6157 -0.8291 -0.4435
14775TIP3    H165816   6.339   2.177   1.605  2.3706 -0.2530 -2.7623
14775TIP3    H265817   6.236   2.103   1.523  0.0798  1.2912 -1.3747
14776TIP3   OH265818   5.288   4.217   5.812 -0.0360  0.2601 -0.4954
14776TIP3    H165819   5.233   4.223   5.891  1.6555  0.4219  0.7283
14776TIP3    H265820   5.297   4.123   5.797  1.9354  0.1043  1.2548
14777TIP3   OH265821   4.053   5.885  13.489 -0.0936 -0.1706 -0.1357
14777TIP3    H165822   3.988   5.815  13.483  0.4400 -0.8341  1.2865
14777TIP3    H265823   4.074   5.889  13.583  2.7019 -0.7379 -0.6505
14778TIP3   OH265824   0.801   4.154   5.827  0.5402 -0.3389  0.4418
14778TIP3    H165825   0.862   4.131   5.757  1.1898  0.6284  0.6634
14778TIP3    H265826   0.724   4.189   5.781  0.8973  0.1396  0.1925
14779TIP3   OH265827   3.136   5.567  13.378 -0.4322  0.2079 -0.6180
14779TIP3    H165828   3.203   5.633  13.362 -1.3793  1.9906  2.0701
14779TIP3    H265829   3.175   5.510  13.445 -1.7638  1.7625  1.6058
14780TIP3   OH265830   6.042   4.506   5.648 -0.2365  0.2856 -0.4185
14780TIP3    H165831   6.035   4.533   5.557  0.3907  2.1215  0.0212
14780TIP3    H265832   5.987   4.428   5.655 -0.0341 -0.0777 -2.4192
14781TIP3   OH265833   0.787   1.280  15.347  0.0531 -0.4416 -0.0566
14781TIP3    H165834   0.857   1.216  15.347  0.0366 -0.4825 -1.5441
14781TIP3    H265835   0.813   1.345  15.281  1.0189  2.1831  2.6743
14782TIP3   OH265836   4.945   0.987  12.935 -0.8308 -0.6015 -0.1082
14782TIP3    H165837   4.921   1.075  12.963 -1.5059 -0.5502 -0.8074
14782TIP3    H265838   4.869   0.956  12.886 -0.9487 -1.8985  0.8314
14783TIP3   OH265839   2.295   0.646  12.180  1.0113 -0.1703  0.0250
14783TIP3    H165840   2.290   0.701  12.101 -0.2597  0.4402  0.4950
14783TIP3    H265841   2.288   0.556  12.148 -1.6602  0.1306 -0.4677
14784TIP3   OH265842   1.632   2.790   0.278 -0.2289  0.5597 -0.2141
14784TIP3    H165843   1.669   2.861   0.226  2.0108 -0.7368 -0.5304
14784TIP3    H265844   1.694   2.778   0.350 -0.2252 -1.3699 -0.4703
14785TIP3   OH265845   3.220   3.715   4.902 -0.1743 -0.3853 -0.2396
14785TIP3    H165846   3.224   3.762   4.819  0.5887  1.9555  1.0022
14785TIP3    H265847   3.132   3.732   4.935  0.2899  0.7954  0.4823
14786TIP3   OH265848   2.885   5.075   4.434 -0.0857  0.3462  0.3279
14786TIP3    H165849   2.864   5.025   4.354 -1.6030  1.3003  0.0916
14786TIP3    H265850   2.953   5.023   4.477  0.0255 -0.7292 -1.0610
14787TIP3   OH265851   6.333   4.960   0.977  0.5896 -0.1001 -0.0415
14787TIP3    H165852   6.377   4.934   0.896 -0.1388 -0.1596 -0.4217
14787TIP3    H265853   6.242   4.932   0.965  0.6717 -0.9521  1.1758
14788TIP3   OH265854   5.080   6.628   1.029 -0.3115  0.0038 -0.1051
14788TIP3    H165855   5.031   6.566   1.082 -1.4786 -1.7043 -2.9530
14788TIP3    H265856   5.018   6.698   1.009 -0.1399  0.2088  0.0683
14789TIP3   OH265857   0.919   6.422  15.250 -0.5139 -0.3517 -0.8731
14789TIP3    H165858   0.879   6.482  15.187  0.4043  0.6669 -0.5173
14789TIP3    H265859   0.846   6.368  15.282 -2.0446  2.5981  1.0825
14790TIP3   OH265860   5.022   0.010   3.718 -0.2038  0.1718  0.6027
14790TIP3    H165861   4.979   0.001   3.803 -0.6350 -2.2645  0.2051
14790TIP3    H265862   4.961  -0.028   3.655 -0.3801  2.9259 -1.0419
14791TIP3   OH265863   3.830   0.036   5.705 -0.1179 -0.5062 -0.4424
14791TIP3    H165864   3.890   0.106   5.679  0.4735 -0.8910 -0.1459
14791TIP3    H265865   3.789   0.007   5.624  1.5971 -1.5959 -0.9631
14792TIP3   OH265866   5.035   1.432  11.549 -0.1609  0.2111 -0.5364
14792TIP3    H165867   4.975   1.448  11.623  0.2642 -1.4395  0.1944
14792TIP3    H265868   4.976   1.418  11.474 -0.6484  0.2757 -0.1758
14793TIP3   OH265869   2.773   6.185  13.581 -0.0981  0.5113 -0.1982
14793TIP3    H165870   2.706   6.248  13.608  1.1208  1.4011  0.8856
14793TIP3    H265871   2.855   6.233  13.589  0.8465 -1.0980  0.2958
14794TIP3   OH265872   0.132   1.786   3.487  0.0973  0.0710  0.4305
14794TIP3    H165873   0.143   1.730   3.564  0.7234 -0.4546 -0.0335
14794TIP3    H265874   0.197   1.856   3.499  0.9155 -0.5834 -0.1239
14795TIP3   OH265875   3.530   1.665  16.277  0.4413  0.0935  0.6808
14795TIP3    H165876   3.615   1.688  16.240  0.2436 -0.3906 -0.0761
14795TIP3    H265877   3.530   1.569  16.283 -0.5528 -0.0095 -0.5627
14796TIP3   OH265878   0.525   4.314   5.744 -0.8178 -0.3938  0.3772
14796TIP3    H165879   0.475   4.319   5.663 -2.8978 -0.4164  1.5753
14796TIP3    H265880   0.464   4.275   5.807  0.6417 -0.1507  2.0237
14797TIP3   OH265881   1.456   3.757  13.002  0.0726 -0.0437 -0.0084
14797TIP3    H165882   1.366   3.788  13.014  0.1204  0.2886 -0.4654
14797TIP3    H265883   1.446   3.672  12.960 -0.0678 -0.8102  1.5183
14798TIP3   OH265884   2.630   6.282   0.943  0.5120 -0.2037  0.2758
14798TIP3    H165885   2.571   6.328   0.884 -2.0658 -0.5060  2.4408
14798TIP3    H265886   2.656   6.348   1.008  0.7280 -0.6227  0.6244
14799TIP3   OH265887   6.577   2.432  14.534 -0.1702 -0.0153  0.0841
14799TIP3    H165888   6.623   2.473  14.461 -1.3360  0.4056 -0.4397
14799TIP3    H265889   6.578   2.338  14.514 -0.1708  0.0640 -0.2927
14800TIP3   OH265890   4.732   3.670  12.047 -0.2212 -0.3029 -0.5381
14800TIP3    H165891   4.637   3.680  12.042 -0.4836 -1.9780  0.2144
14800TIP3    H265892   4.764   3.691  11.960 -1.1404  1.4871 -0.4771
14801TIP3   OH265893   5.103   5.861  15.493  0.9327 -0.4494  0.0880
14801TIP3    H165894   5.034   5.871  15.427 -1.2848  0.3675  2.3662
14801TIP3    H265895   5.156   5.940  15.484  1.7032 -1.1036 -1.7147
14802TIP3   OH265896   4.653   3.375  17.450 -0.4305  0.4224 -0.2797
14802TIP3    H165897   4.561   3.374  17.425 -0.1505 -2.5567 -1.6808
14802TIP3    H265898   4.695   3.434  17.387 -1.4346  2.6587  1.0329
14803TIP3   OH265899   0.958   3.525  11.456 -0.5411  0.1902 -0.0499
14803TIP3    H165900   0.993   3.469  11.525  0.1472 -0.9209 -1.2700
14803TIP3    H265901   0.863   3.515  11.463 -0.4368 -0.9890 -0.1191
14804TIP3   OH265902   5.635   2.749  14.956 -0.0194  0.2744 -0.4739
14804TIP3    H165903   5.627   2.785  14.868  2.7417  3.4402  0.3779
14804TIP3    H265904   5.612   2.821  15.015 -0.3628 -1.3013  1.4441
14805TIP3   OH265905   1.706   3.506   3.860  0.5500  0.2975  0.0436
14805TIP3    H165906   1.764   3.501   3.936  0.8776 -0.4691 -0.2479
14805TIP3    H265907   1.719   3.423   3.814 -0.0027  0.5513 -0.5926
14806TIP3   OH265908   0.202   6.529   3.944 -0.2411 -0.6389 -0.6975
14806TIP3    H165909   0.207   6.624   3.952 -1.1250 -0.5642 -0.9419
14806TIP3    H265910   0.283   6.497   3.984 -0.5825  0.1362  0.6678
14807TIP3   OH265911   4.112   6.133   5.587  0.3780  0.3861  0.3234
14807TIP3    H165912   4.113   6.056   5.530  1.5513  1.0458 -0.6074
14807TIP3    H265913   4.060   6.106   5.663 -2.3785 -0.1092 -1.5921
14808TIP3   OH265914   1.690   4.321   1.215  0.2220  0.1069 -0.3362
14808TIP3    H165915   1.628   4.255   1.247  1.5034 -1.5558 -1.1314
14808TIP3    H265916   1.724   4.363   1.294 -0.1743 -0.5997  0.2201
14809TIP3   OH265917   0.064   6.763   2.192  0.3804 -0.1931  0.3469
14809TIP3    H165918   0.052   6.681   2.241  0.0020 -0.5797 -0.3686
14809TIP3    H265919   0.158   6.764   2.170  0.3067 -0.6782 -0.0312
14810TIP3   OH265920   0.549   4.258  13.081  0.2566  0.1702 -0.2397
14810TIP3    H165921   0.456   4.239  13.073  0.4040 -0.6656 -0.0215
14810TIP3    H265922   0.587   4.229  12.998  0.3381  0.4472 -0.3026
14811TIP3   OH265923   1.423   4.025  11.041 -0.1768 -0.0594 -0.0989
14811TIP3    H165924   1.511   4.060  11.052  0.8734 -1.8415 -2.1635
14811TIP3    H265925   1.384   4.079  10.971 -1.1271  1.3159  1.4269
14812TIP3   OH265926   3.419   3.096  16.830 -0.0069 -0.1884 -0.3027
14812TIP3    H165927   3.391   3.087  16.739  0.3912  0.6190 -0.5168
14812TIP3    H265928   3.515   3.091  16.826  0.0813  0.9665 -0.0830
14813TIP3   OH265929   1.132   3.129   3.343  0.2440  0.6064 -0.0687
14813TIP3    H165930   1.102   3.112   3.254  0.4516  1.3855 -0.2929
14813TIP3    H265931   1.209   3.185   3.332  0.7121  0.1161  0.5734
14814TIP3   OH265932   1.155   3.940  17.168 -0.1531 -0.1154  0.0249
14814TIP3    H165933   1.221   3.911  17.231 -1.6615  0.9140  2.2011
14814TIP3    H265934   1.202   3.998  17.108  0.8842  0.8386  1.7001
14815TIP3   OH265935   0.456   5.449   5.729 -0.1112 -0.8257 -0.2587
14815TIP3    H165936   0.479   5.513   5.796 -1.1066  0.1007 -0.7696
14815TIP3    H265937   0.430   5.371   5.777  1.9164 -1.1731  0.3670
14816TIP3   OH265938   0.724   5.298  16.467 -0.4094 -0.2493  0.2866
14816TIP3    H165939   0.653   5.360  16.455 -1.7242 -1.6310  0.5964
14816TIP3    H265940   0.702   5.225  16.409  0.7355 -0.7200  0.4244
14817TIP3   OH265941   0.448   5.320  12.466 -0.4889  0.4670  0.2755
14817TIP3    H165942   0.483   5.304  12.378 -0.1711  0.3343  0.4254
14817TIP3    H265943   0.410   5.408  12.461 -0.1884  0.5867  0.0931
14818TIP3   OH265944   1.736   3.248  14.293  0.2640 -0.2732  0.3485
14818TIP3    H165945   1.711   3.201  14.214 -1.3544  1.0282  0.0319
14818TIP3    H265946   1.653   3.271  14.335  0.9613  1.8572  0.7128
14819TIP3   OH265947   5.074   1.430   6.558 -0.1676  0.3622  0.2451
14819TIP3    H165948   5.076   1.510   6.506 -2.3360  0.6669  0.5379
14819TIP3    H265949   5.076   1.359   6.493 -1.5705  0.7283 -0.2297
14820TIP3   OH265950   6.337   3.846   6.036 -0.1545 -0.0178 -0.5398
14820TIP3    H165951   6.409   3.848   5.973  0.1275  1.6965 -0.2067
14820TIP3    H265952   6.261   3.877   5.986  0.2317  2.0997  0.1060
14821TIP3   OH265953   3.237   3.291  17.302  0.1662  0.2428 -0.3744
14821TIP3    H165954   3.299   3.244  17.248  0.6804  0.4044  0.0653
14821TIP3    H265955   3.195   3.224  17.356 -0.1576  0.1150 -0.7873
14822TIP3   OH265956   4.517   4.780   2.781  0.0870 -0.0523 -0.7315
14822TIP3    H165957   4.553   4.747   2.864  0.1557  1.3190 -0.1912
14822TIP3    H265958   4.538   4.873   2.782  0.4390 -0.0906 -2.4866
14823TIP3   OH265959   0.429   4.708   0.841 -0.4568  0.4760 -0.1744
14823TIP3    H165960   0.515   4.677   0.871 -0.6446 -1.5762 -1.5004
14823TIP3    H265961   0.382   4.730   0.921  0.1367 -1.7391  0.8815
14824TIP3   OH265962   3.614   5.159  15.054 -0.7085  0.3468  0.6931
14824TIP3    H165963   3.618   5.209  15.135  0.7795  0.1008  0.7966
14824TIP3    H265964   3.614   5.225  14.985 -1.9157  0.5547  0.8723
14825TIP3   OH265965   5.899   5.099   4.941 -0.2617  0.0412  0.5766
14825TIP3    H165966   5.881   5.186   4.975 -1.5002 -0.2608  0.7252
14825TIP3    H265967   5.995   5.091   4.945 -0.2147  0.9446  1.6552
14826TIP3   OH265968   5.640   3.729   0.921  0.3451 -0.1919 -0.2362
14826TIP3    H165969   5.614   3.653   0.974 -1.2703 -0.0599 -0.7892
14826TIP3    H265970   5.582   3.800   0.950  0.9908  0.5017 -0.5976
14827TIP3   OH265971   1.305   2.141   0.103  0.3204  0.5063 -0.4093
14827TIP3    H165972   1.267   2.055   0.084  1.7962 -0.0733 -0.8524
14827TIP3    H265973   1.230   2.200   0.107 -0.6593 -0.6793 -0.7752
14828TIP3   OH265974   1.393   3.054   5.488  0.5268 -0.4255 -0.7474
14828TIP3    H165975   1.333   3.075   5.416 -0.7071 -0.0432  0.3634
14828TIP3    H265976   1.396   3.133   5.541 -0.7887 -1.5611  1.1376
14829TIP3   OH265977   2.723   1.697  16.513 -0.0169  0.0472  0.6366
14829TIP3    H165978   2.758   1.611  16.538  0.3684 -0.2599 -0.8588
14829TIP3    H265979   2.637   1.678  16.476 -0.0862  0.3562  0.6360
14830TIP3   OH265980   3.429   0.958  11.698  0.3131 -0.1454  0.0231
14830TIP3    H165981   3.335   0.967  11.713 -0.1146 -2.5252 -0.8851
14830TIP3    H265982   3.468   0.973  11.784 -0.9701 -0.0797  0.6137
14831TIP3   OH265983   2.961   1.220   2.094 -0.5284  0.0048  0.0434
14831TIP3    H165984   2.962   1.197   2.001  2.1067 -0.3279  0.0768
14831TIP3    H265985   2.877   1.186   2.126 -2.0189  1.0971 -2.3784
14832TIP3   OH265986   3.893   3.293  12.272  0.1576 -0.7726 -0.0386
14832TIP3    H165987   3.972   3.336  12.303 -0.0345 -0.1543 -0.3858
14832TIP3    H265988   3.821   3.349  12.302 -0.1204 -1.0829 -0.1200
14833TIP3   OH265989   3.990   1.173   4.468 -0.3782  0.1349  0.0005
14833TIP3    H165990   3.996   1.136   4.556  0.8227  1.1221  0.3679
14833TIP3    H265991   4.054   1.124   4.417 -0.8152 -0.1909 -0.2440
14834TIP3   OH265992   0.085   5.569  13.577 -0.2989 -0.6936 -0.0450
14834TIP3    H165993  -0.005   5.570  13.609 -0.5477  0.4293 -0.7143
14834TIP3    H265994   0.128   5.640  13.624 -0.4700  0.4725 -1.5839
14835TIP3   OH265995   4.025   3.973  15.799 -0.2319  0.4052 -0.0462
14835TIP3    H165996   3.991   3.896  15.754  2.0550 -0.4474 -0.4618
14835TIP3    H265997   4.100   3.940  15.849 -0.3773  2.0269  1.3427
14836TIP3   OH265998   3.089   1.177  16.806  0.2281 -0.6122 -0.6794
14836TIP3    H165999   3.118   1.135  16.724  0.2655 -1.3340 -0.3054
14836TIP3    H266000   3.136   1.260  16.807  0.0777 -0.5066 -1.4905
14837TIP3   OH266001   3.581   5.333  16.807 -0.5006 -0.1336 -0.1899
14837TIP3    H166002   3.588   5.309  16.900 -0.2383  1.7583  0.3083
14837TIP3    H266003   3.506   5.282  16.775 -0.3175 -1.1620  0.9204
14838TIP3   OH266004   1.685   1.182  11.300  0.2101 -0.2906 -0.7191
14838TIP3    H166005   1.704   1.216  11.387 -0.3475  0.6744 -0.9540
14838TIP3    H266006   1.590   1.170  11.300  0.4952 -3.2267 -0.1868
14839TIP3   OH266007   1.007   0.798   3.964  0.0954  0.4591  0.8071
14839TIP3    H166008   1.038   0.889   3.963  1.7367 -0.0557 -1.2078
14839TIP3    H266009   1.049   0.759   4.041 -0.8153  1.4237  1.8307
14840TIP3   OH266010   3.736   4.762  13.813  0.0121 -0.3140 -0.4192
14840TIP3    H166011   3.744   4.694  13.746 -2.4848  0.5190 -1.7013
14840TIP3    H266012   3.643   4.761  13.836  0.3822  1.0591  1.2955
14841TIP3   OH266013   1.793   3.044  10.779 -0.0606  0.0967  0.0912
14841TIP3    H166014   1.850   2.999  10.716 -0.3409 -0.9480  0.5494
14841TIP3    H266015   1.715   3.067  10.728  0.7154  1.4438 -0.5118
14842TIP3   OH266016   0.328   6.300   4.874 -0.3659 -0.1200  0.1650
14842TIP3    H166017   0.307   6.270   4.962 -1.0036  1.3080  0.5215
14842TIP3    H266018   0.357   6.391   4.886  0.6094 -0.2517 -0.9755
14843TIP3   OH266019   1.272   5.324   5.336  0.1133 -0.6650  0.6941
14843TIP3    H166020   1.243   5.380   5.264 -2.2687 -1.0830  1.2293
14843TIP3    H266021   1.367   5.333   5.337 -0.0449  2.1072 -0.2462
14844TIP3   OH266022   0.653   3.120   1.881 -0.4673  0.3100  0.5520
14844TIP3    H166023   0.621   3.208   1.900 -2.7001 -0.2201 -0.3780
14844TIP3    H266024   0.632   3.107   1.788 -1.5268 -1.6832  1.0045
14845TIP3   OH266025   0.707   4.705  11.271 -0.1607  0.4400 -0.1457
14845TIP3    H166026   0.661   4.722  11.189  1.1435 -0.8966 -1.2134
14845TIP3    H266027   0.784   4.762  11.268  0.3721 -0.2823 -0.2924
14846TIP3   OH266028   6.318   1.939   1.269  1.2550 -0.1804 -0.2884
14846TIP3    H166029   6.343   2.016   1.218 -0.3554 -0.5057 -1.6553
14846TIP3    H266030   6.281   1.879   1.204 -0.0554 -0.9762  1.1354
14847TIP3   OH266031   4.581   1.289   4.167 -0.8429  0.4964  0.3166
14847TIP3    H166032   4.517   1.259   4.232  0.4677  0.0378  1.4579
14847TIP3    H266033   4.625   1.209   4.138  0.6860  0.9694  1.2036
14848TIP3   OH266034   1.654   1.715   1.538  0.0351 -0.1647  0.0903
14848TIP3    H166035   1.662   1.782   1.606 -0.9002  0.9233 -0.8193
14848TIP3    H266036   1.721   1.738   1.474  0.0990 -0.4428  0.0565
14849TIP3   OH266037   2.849   3.042   5.876 -0.0863 -0.4553  0.2110
14849TIP3    H166038   2.813   2.985   5.808  0.3078  0.8495 -1.1346
14849TIP3    H266039   2.939   3.010   5.889  0.6351  0.6882 -1.5860
14850TIP3   OH266040   5.067   1.810  16.523 -0.2371 -0.2588 -0.3641
14850TIP3    H166041   4.986   1.859  16.535 -0.1750 -0.0505 -0.7534
14850TIP3    H266042   5.073   1.752  16.598  0.5363  1.4905  0.9922
14851TIP3   OH266043   5.768   0.517   2.427 -0.1275  0.3578 -0.6375
14851TIP3    H166044   5.828   0.443   2.428 -2.3241 -1.5550  0.7786
14851TIP3    H266045   5.808   0.580   2.487  0.8306 -0.5484 -0.2814
14852TIP3   OH266046   3.729   5.309   6.884  0.6342  0.2655 -0.4328
14852TIP3    H166047   3.727   5.359   6.966 -0.2400 -2.2816  1.2522
14852TIP3    H266048   3.786   5.234   6.903 -0.7055 -1.1382 -1.6394
14853TIP3   OH266049   5.400   2.511  14.076 -0.0667  0.9290 -1.1052
14853TIP3    H166050   5.396   2.596  14.119 -2.7353  0.5248 -0.3643
14853TIP3    H266051   5.327   2.512  14.014 -0.8170 -1.1615 -0.3417
14854TIP3   OH266052   6.146   6.072  15.098 -0.1967  0.2971  0.6643
14854TIP3    H166053   6.104   6.071  15.012  0.1078 -0.7891  0.5121
14854TIP3    H266054   6.085   6.119  15.154 -0.4588  0.9002 -0.1176
14855TIP3   OH266055   0.782   1.636   0.707  0.2327  0.0099  0.2933
14855TIP3    H166056   0.865   1.596   0.733  1.9420  2.6419 -0.6568
14855TIP3    H266057   0.731   1.641   0.788  0.0579 -3.4564  0.5426
14856TIP3   OH266058   2.365   3.152   2.972 -0.0442 -0.1708  0.0977
14856TIP3    H166059   2.384   3.245   2.960 -0.0689 -0.1408  0.2818
14856TIP3    H266060   2.391   3.134   3.063  1.2439 -0.6561 -0.3435
14857TIP3   OH266061   2.610   5.194   0.977  0.2228 -0.4802 -0.0822
14857TIP3    H166062   2.569   5.269   1.021 -2.0356 -1.3522 -0.5395
14857TIP3    H266063   2.692   5.180   1.025 -0.7510  0.3896  1.9871
14858TIP3   OH266064   3.696   3.857   2.012  0.1336  0.3990 -0.7437
14858TIP3    H166065   3.636   3.785   2.032  0.8692 -0.3158 -1.0282
14858TIP3    H266066   3.775   3.814   1.980  0.8375  1.3137 -0.2919
14859TIP3   OH266067   1.455   2.546  15.511 -0.4067 -0.7422  1.1152
14859TIP3    H166068   1.540   2.581  15.538 -1.0221  1.2876  0.5977
14859TIP3    H266069   1.472   2.503  15.427  0.5480 -2.6154  2.2065
14860TIP3   OH266070   2.535   6.235   3.257 -0.4738  0.3517 -0.4132
14860TIP3    H166071   2.558   6.146   3.285  2.2484  0.2920 -2.4955
14860TIP3    H266072   2.609   6.289   3.282 -0.4874  1.3319 -2.2767
14861TIP3   OH266073   4.978   4.062  13.815 -0.0312  0.5017  0.1729
14861TIP3    H166074   4.969   4.150  13.780  1.8876  1.4061  1.7914
14861TIP3    H266075   4.939   4.067  13.903 -0.2813 -0.3887  0.1226
14862TIP3   OH266076   0.447   1.851   0.064  0.0244 -0.2475  0.2580
14862TIP3    H166077   0.494   1.828  -0.015  0.6876 -0.0657  0.5935
14862TIP3    H266078   0.480   1.937   0.088 -1.0283  0.2210  0.0877
14863TIP3   OH266079   3.480   2.058  17.475 -0.0848  1.1316  0.5234
14863TIP3    H166080   3.540   1.997  17.433 -0.0616  0.4792  1.4876
14863TIP3    H266081   3.401   2.055  17.421 -0.2772 -0.1568  0.8402
14864TIP3   OH266082   2.210   3.591   0.162  0.1638 -0.0100  1.0821
14864TIP3    H166083   2.146   3.635   0.218  1.1146  1.6294  0.9760
14864TIP3    H266084   2.162   3.520   0.121 -1.6699  1.3188  0.8004
14865TIP3   OH266085   3.958   0.503  11.670  0.0563  0.4838 -0.6656
14865TIP3    H166086   3.865   0.526  11.669  0.2060  1.4378  1.6314
14865TIP3    H266087   3.993   0.540  11.589 -1.2784  1.4533 -0.8217
14866TIP3   OH266088   2.745   5.910  15.720  0.2128  0.9491  0.1841
14866TIP3    H166089   2.817   5.959  15.679  0.6167 -0.3067 -0.6705
14866TIP3    H266090   2.685   5.892  15.647  0.2865 -0.1733  0.3924
14867TIP3   OH266091   1.005   5.528  13.537 -0.0434 -0.2410  0.2737
14867TIP3    H166092   1.073   5.515  13.470  1.3865 -0.5052  1.7290
14867TIP3    H266093   0.931   5.565  13.488  1.3224  0.5649 -1.2890
14868TIP3   OH266094   3.359   6.061  16.782 -0.2659  0.1345  0.2970
14868TIP3    H166095   3.428   5.995  16.791 -1.5320 -2.2940 -4.3426
14868TIP3    H266096   3.397   6.126  16.722 -0.8398  0.7437  0.5858
14869TIP3   OH266097   0.374   1.286   4.171 -0.1470  0.6479  0.4995
14869TIP3    H166098   0.464   1.308   4.147 -0.1875 -0.0316 -0.2903
14869TIP3    H266099   0.320   1.329   4.105 -0.3729  0.6233  0.6668
14870TIP3   OH266100   0.314   3.857  12.748  0.1256  0.0256  0.1600
14870TIP3    H166101   0.380   3.819  12.806  0.9875  1.3487  0.0869
14870TIP3    H266102   0.311   3.949  12.772  1.1641  0.8375 -2.4447
14871TIP3   OH266103   0.092   4.282   3.692  0.3177 -0.2371  0.6790
14871TIP3    H166104   0.127   4.310   3.776  3.3265  2.0954 -1.1615
14871TIP3    H266105  -0.002   4.303   3.697  0.5600  0.5298  3.1217
14872TIP3   OH266106   0.869   3.485   2.377  0.0039 -0.1640  0.2579
14872TIP3    H166107   0.845   3.578   2.384  1.1775  0.2635 -0.9517
14872TIP3    H266108   0.797   3.445   2.328  0.2335  0.4639 -0.6247
14873TIP3   OH266109   0.850   5.400   2.536 -0.1608  0.4918  0.1916
14873TIP3    H166110   0.910   5.329   2.512 -1.8562 -0.1243 -2.7402
14873TIP3    H266111   0.883   5.431   2.620  3.0538 -1.0856 -0.2972
14874TIP3   OH266112   3.577   0.799  15.421  0.9226 -0.1610  0.1399
14874TIP3    H166113   3.549   0.779  15.511 -1.1033  3.2932  0.4679
14874TIP3    H266114   3.606   0.890  15.426  1.8292 -0.2357 -2.5410
14875TIP3   OH266115   6.404   5.273  15.313  0.4066  0.2961 -0.1184
14875TIP3    H166116   6.333   5.331  15.342 -0.9285 -2.0172  1.6026
14875TIP3    H266117   6.477   5.293  15.372 -1.0749 -1.7866  2.6502
14876TIP3   OH266118   0.837   1.784  13.921 -0.1276  0.4559 -1.3833
14876TIP3    H166119   0.816   1.802  13.829  1.4206 -0.9301 -2.0852
14876TIP3    H266120   0.864   1.692  13.921 -1.0598  0.1303  0.6687
14877TIP3   OH266121   3.383   3.880  15.582  0.2740 -0.1005 -0.5959
14877TIP3    H166122   3.473   3.897  15.554  0.3288  0.0320 -0.3411
14877TIP3    H266123   3.341   3.966  15.583  0.6964  0.1165  1.1992
14878TIP3   OH266124   3.378   5.707   3.673  0.5042 -0.6013  0.3561
14878TIP3    H166125   3.399   5.784   3.727  4.7607 -0.5254 -1.0773
14878TIP3    H266126   3.402   5.633   3.728 -0.4388 -0.8274  0.4910
14879TIP3   OH266127   4.906   2.897  13.030 -0.2683 -0.0294 -0.1400
14879TIP3    H166128   4.865   2.825  12.982  1.6200 -0.5189 -1.1102
14879TIP3    H266129   4.897   2.873  13.122 -0.2010 -1.2025 -0.4261
14880TIP3   OH266130   5.994   3.152  14.305 -0.3223 -0.4609  0.1829
14880TIP3    H166131   6.044   3.082  14.262  1.0211 -0.6671  1.9624
14880TIP3    H266132   6.029   3.232  14.266 -0.4112 -0.6838 -0.3798
14881TIP3   OH266133   4.787   6.135  13.077  0.2258 -0.3095  0.6334
14881TIP3    H166134   4.823   6.076  13.144 -2.0487  0.3014  2.5104
14881TIP3    H266135   4.705   6.167  13.115 -0.7756  0.6956 -2.1624
14882TIP3   OH266136   5.660   5.423   5.789  0.0779  0.8904  0.3542
14882TIP3    H166137   5.734   5.368   5.765 -0.6129 -0.7251  1.7585
14882TIP3    H266138   5.583   5.377   5.755 -0.3893  1.9975 -0.1528
14883TIP3   OH266139   3.227   4.957   4.348  0.3603 -0.1300 -0.5632
14883TIP3    H166140   3.170   4.885   4.320 -0.8971  0.5943  0.0605
14883TIP3    H266141   3.197   4.979   4.436 -0.0221  1.8890 -1.1530
14884TIP3   OH266142   4.228   1.379  13.447  0.2970 -0.3518 -0.1114
14884TIP3    H166143   4.306   1.396  13.500  0.4337  0.4132 -0.5535
14884TIP3    H266144   4.155   1.393  13.508  0.4260  1.2547 -0.2934
14885TIP3   OH266145   3.412   6.355   5.682  0.0787  0.1122  0.3549
14885TIP3    H166146   3.402   6.401   5.599 -1.5406  0.1490  0.5357
14885TIP3    H266147   3.391   6.421   5.748  0.4864 -0.1564  0.7634
14886TIP3   OH266148   2.399   0.514   5.639  0.0445 -0.4249  0.3263
14886TIP3    H166149   2.396   0.605   5.611  0.5004 -0.3031  0.6681
14886TIP3    H266150   2.416   0.518   5.733  1.3350 -0.8735  0.1320
14887TIP3   OH266151   3.197   1.910  12.204  0.8454 -0.9004  0.6678
14887TIP3    H166152   3.213   1.940  12.115  1.0244 -0.7000  0.7657
14887TIP3    H266153   3.254   1.964  12.259 -1.0647  0.7266  1.1648
14888TIP3   OH266154   1.180   4.728  16.772  0.1628  0.1718 -0.1926
14888TIP3    H166155   1.251   4.708  16.833 -0.5129  0.8169  0.8373
14888TIP3    H266156   1.220   4.719  16.685  0.5397 -3.0533  0.2228
14889TIP3   OH266157   0.033   3.833   4.822 -0.7308  0.4915 -0.0091
14889TIP3    H166158   0.101   3.882   4.869 -1.7959  1.9653  0.0916
14889TIP3    H266159  -0.007   3.777   4.889  0.2602 -0.2820 -0.0409
14890TIP3   OH266160   2.899   2.025   4.567  0.0150  0.1926 -0.1991
14890TIP3    H166161   2.974   2.021   4.507  1.4130  0.2228  1.4378
14890TIP3    H266162   2.861   1.937   4.564 -0.7877  0.5663 -2.0907
14891TIP3   OH266163   5.887   4.908  17.409 -0.2581 -0.0247  0.1187
14891TIP3    H166164   5.902   4.833  17.466  0.2554 -1.3117 -1.6368
14891TIP3    H266165   5.910   4.984  17.463  0.5214 -1.1987  1.5090
14892TIP3   OH266166   1.656   5.440  10.870 -0.2787 -0.4067  0.1495
14892TIP3    H166167   1.569   5.473  10.893 -0.0275  1.1342 -1.0065
14892TIP3    H266168   1.696   5.510  10.819  2.2653 -0.4238  1.9361
14893TIP3   OH266169   0.255   1.656   0.036  0.5471  0.4732  0.6335
14893TIP3    H166170   0.328   1.716   0.047  3.3087 -2.2027 -1.4852
14893TIP3    H266171   0.272   1.585   0.098 -0.1282 -0.3251 -0.0746
14894TIP3   OH266172   4.422   4.807  14.747 -0.1545 -0.2623 -0.6349
14894TIP3    H166173   4.469   4.775  14.825 -1.6213 -0.9700 -0.0098
14894TIP3    H266174   4.440   4.741  14.680 -0.2734 -0.5350 -0.3979
14895TIP3   OH266175   3.059   3.660   2.134  0.4820  0.1390  0.2097
14895TIP3    H166176   3.029   3.688   2.047  0.4796 -0.7169 -0.0687
14895TIP3    H266177   3.128   3.722   2.156  0.8645  0.0309 -0.6427
14896TIP3   OH266178   6.366   1.030   0.390 -0.3970 -0.0581 -0.0340
14896TIP3    H166179   6.356   1.098   0.323  3.2348 -1.1231 -1.9050
14896TIP3    H266180   6.324   0.953   0.352 -0.1749 -0.1267 -0.1400
14897TIP3   OH266181   5.431   4.150  13.448 -0.1892  0.8544 -0.3411
14897TIP3    H166182   5.512   4.176  13.404  0.3415 -0.1063  0.0347
14897TIP3    H266183   5.373   4.122  13.377  0.2293  0.4556 -0.5322
14898TIP3   OH266184   4.699   5.802   3.499 -0.6320 -0.1662 -0.6915
14898TIP3    H166185   4.794   5.814   3.507 -0.2312 -1.3799 -2.7045
14898TIP3    H266186   4.673   5.862   3.429 -1.8080  1.7868  1.3261
14899TIP3   OH266187   0.089   5.126   5.953  0.5913  0.2514  0.1811
14899TIP3    H166188   0.127   5.193   5.897  0.2464  0.8693  0.6726
14899TIP3    H266189   0.107   5.157   6.042 -1.7299  0.9749  0.4536
14900TIP3   OH266190   0.456   1.498  10.573  0.0779 -0.2349 -0.5877
14900TIP3    H166191   0.426   1.474  10.660  0.8100  0.9337  0.0132
14900TIP3    H266192   0.384   1.474  10.515 -0.5105 -0.8083  0.3606
14901TIP3   OH266193   4.635   0.559   0.211 -0.4851 -0.3853  0.3565
14901TIP3    H166194   4.597   0.581   0.296 -0.7243  1.8209 -0.2429
14901TIP3    H266195   4.716   0.610   0.207 -0.5993 -0.2604 -0.8017
14902TIP3   OH266196   0.412   5.990  13.385  0.5267 -0.2054 -0.4810
14902TIP3    H166197   0.436   5.918  13.327 -0.6151  0.7350 -2.2054
14902TIP3    H266198   0.322   6.012  13.361  0.6387  1.4090  0.4080
14903TIP3   OH266199   5.830   0.254   0.469  0.4705 -0.4897 -0.7996
14903TIP3    H166200   5.858   0.345   0.470  1.3347 -0.7380  0.1057
14903TIP3    H266201   5.769   0.247   0.396 -0.2656  0.9984 -0.3451
14904TIP3   OH266202   2.888   0.973  15.921 -0.4872 -0.4739  0.0922
14904TIP3    H166203   2.962   0.989  15.980  0.4668 -1.0940 -0.8958
14904TIP3    H266204   2.821   0.933  15.976 -0.2342  0.4447  1.0845
14905TIP3   OH266205   4.215   2.319  13.367 -0.2841  0.5341 -0.1985
14905TIP3    H166206   4.167   2.362  13.296  0.6452  0.6417 -0.7672
14905TIP3    H266207   4.245   2.236  13.330  1.9458  1.4616 -0.6358
14906TIP3   OH266208   1.193   2.338   0.792 -0.2922  0.5798  0.3067
14906TIP3    H166209   1.153   2.263   0.748  0.9067 -0.4383  0.8747
14906TIP3    H266210   1.136   2.356   0.866  0.0133 -0.5411  0.8353
14907TIP3   OH266211   1.874   2.256   3.795 -0.8470  0.5310 -0.2619
14907TIP3    H166212   1.851   2.175   3.839  0.4275  0.8709  1.1410
14907TIP3    H266213   1.874   2.234   3.702  0.0441 -1.2492  0.1126
14908TIP3   OH266214   1.973   3.083  13.457  0.4337  0.6526 -0.0662
14908TIP3    H166215   2.027   3.005  13.448  0.7084  0.8392 -0.0401
14908TIP3    H266216   1.947   3.104  13.367 -1.6523 -0.8616  0.0873
14909TIP3   OH266217   3.076   3.563  12.042 -0.1776  0.2552  0.0184
14909TIP3    H166218   3.060   3.522  11.957 -0.6422  2.1591 -0.8826
14909TIP3    H266219   3.006   3.629  12.050 -2.1450 -1.9394  3.3752
14910TIP3   OH266220   5.472   3.893   2.625  0.7338 -0.2097  0.4898
14910TIP3    H166221   5.487   3.986   2.643  2.6156  0.1817 -2.3679
14910TIP3    H266222   5.559   3.855   2.619  0.0467 -1.7838 -0.1300
14911TIP3   OH266223   1.333   5.372   0.856  0.2813 -0.5222  0.3648
14911TIP3    H166224   1.390   5.438   0.818  2.3834 -1.5914  1.4604
14911TIP3    H266225   1.294   5.414   0.933  0.6698 -0.1899  0.3795
14912TIP3   OH266226   2.712   3.608   3.924  0.6586  0.4988 -0.5360
14912TIP3    H166227   2.618   3.601   3.908  0.2678 -1.2896  1.9650
14912TIP3    H266228   2.723   3.694   3.964 -0.4759 -0.3982  1.8955
14913TIP3   OH266229   3.188   1.825   4.126 -0.2985 -0.5963 -0.1355
14913TIP3    H166230   3.249   1.776   4.180  0.4223  0.3572 -0.0592
14913TIP3    H266231   3.207   1.917   4.144 -2.7375 -0.2276  1.0067
14914TIP3   OH266232   2.401   0.097   2.901  0.4936 -0.0318  0.6633
14914TIP3    H166233   2.320   0.148   2.907 -0.3338 -1.1790 -0.3220
14914TIP3    H266234   2.425   0.081   2.993 -1.8572 -1.8694  1.0378
14915TIP3   OH266235   0.232   3.147  11.754 -0.3159  0.3407  0.0805
14915TIP3    H166236   0.207   3.139  11.846 -0.7092  1.3739  0.0832
14915TIP3    H266237   0.280   3.066  11.734 -0.2658  0.0885  1.1745
14916TIP3   OH266238   4.321   4.978  14.933  0.6921  0.3728  0.2700
14916TIP3    H166239   4.324   4.903  14.874  2.5395  0.9949 -0.4699
14916TIP3    H266240   4.350   4.942  15.018  1.7657  0.2599 -0.1265
14917TIP3   OH266241   4.045   3.972   1.970  0.1118 -0.4332  0.6907
14917TIP3    H166242   4.039   4.043   2.035  0.8236  0.0480  0.2478
14917TIP3    H266243   4.130   3.932   1.987 -1.1639 -2.6220  2.3632
14918TIP3   OH266244   3.115   5.693   4.687  0.2032  0.0640 -0.0237
14918TIP3    H166245   3.058   5.769   4.679  0.1962  0.0569 -0.0396
14918TIP3    H266246   3.095   5.640   4.610  1.0923  0.6474 -0.6811
14919TIP3   OH266247   6.482   4.625   0.828  0.7041  0.4468 -0.4691
14919TIP3    H166248   6.464   4.719   0.819  2.0926  0.7237 -0.6735
14919TIP3    H266249   6.492   4.594   0.737  1.1580  0.3056 -0.3751
14920TIP3   OH266250   1.175   6.200  13.530  1.2226  0.6077 -0.0589
14920TIP3    H166251   1.175   6.147  13.450  4.7606  0.4682 -0.1361
14920TIP3    H266252   1.124   6.149  13.593  0.0380 -0.2343 -1.6270
14921TIP3   OH266253   5.234   3.960   1.226 -0.3899 -0.0225  0.1650
14921TIP3    H166254   5.264   4.030   1.284 -0.5809 -0.3416  0.6587
14921TIP3    H266255   5.147   3.937   1.260 -0.0854 -0.9082  0.3852
14922TIP3   OH266256   1.891   0.441   5.727  0.4248 -0.4041  0.0512
14922TIP3    H166257   1.796   0.430   5.740  0.3206  0.0963 -0.2388
14922TIP3    H266258   1.911   0.384   5.652  0.5073 -1.1272  0.6119
14923TIP3   OH266259   2.530   1.591  13.526 -0.8673 -0.1347 -0.1410
14923TIP3    H166260   2.482   1.615  13.446 -3.2928  0.9640  1.5265
14923TIP3    H266261   2.464   1.595  13.595  1.0210 -1.6587  1.8551
14924TIP3   OH266262   2.098   5.379   1.100  0.2269  0.0842  0.1338
14924TIP3    H166263   2.143   5.302   1.134 -0.4680  0.5862  2.3361
14924TIP3    H266264   2.007   5.351   1.089  0.3920  0.0011 -1.1422
14925TIP3   OH266265   1.912   6.172   0.051  0.1330  0.9803  0.0671
14925TIP3    H166266   1.921   6.253   0.102 -1.8800  3.5715 -3.2832
14925TIP3    H266267   1.821   6.172   0.022 -0.5969 -3.7048  1.4741
14926TIP3   OH266268   6.323   3.392   3.146 -0.1565 -0.0652  0.5271
14926TIP3    H166269   6.325   3.478   3.187 -1.5078  0.2677 -0.0672
14926TIP3    H266270   6.317   3.331   3.220  0.7851  0.3412  0.9458
14927TIP3   OH266271   5.238   4.377  11.670 -0.5730 -0.4366 -0.8541
14927TIP3    H166272   5.312   4.424  11.633  0.0147 -0.9294 -0.3321
14927TIP3    H266273   5.276   4.299  11.709 -1.2155 -0.1038  0.4907
14928TIP3   OH266274   4.448   1.197  10.933  0.4817 -0.3074 -0.0370
14928TIP3    H166275   4.493   1.129  10.883  0.0868 -0.3404 -0.3520
14928TIP3    H266276   4.513   1.267  10.941  0.2600  0.0754 -1.3935
14929TIP3   OH266277   2.610   0.531  14.622 -0.4700 -0.5662 -0.4114
14929TIP3    H166278   2.588   0.623  14.638 -0.0187 -0.4257 -0.5999
14929TIP3    H266279   2.586   0.516  14.531  2.1110  0.1750 -1.3027
14930TIP3   OH266280   5.965   1.476   4.190  0.7622  0.6169  0.3131
14930TIP3    H166281   5.870   1.489   4.190  0.8287  1.1906  1.0378
14930TIP3    H266282   5.978   1.390   4.149 -0.0516  0.6369  0.0036
14931TIP3   OH266283   4.191   1.257  14.126 -0.6600  0.8588  0.0911
14931TIP3    H166284   4.107   1.250  14.172 -1.0215 -0.1859 -0.7016
14931TIP3    H266285   4.198   1.349  14.102 -2.8146  0.5348 -2.0955
14932TIP3   OH266286   1.803   4.441  14.140 -0.7079  0.3901  0.4200
14932TIP3    H166287   1.781   4.465  14.231 -2.2235  2.8381 -0.4914
14932TIP3    H266288   1.894   4.467  14.129 -1.3150  2.6917  0.4935
14933TIP3   OH266289   3.075   1.988  13.834 -0.2117  0.3182 -0.1245
14933TIP3    H166290   3.021   1.984  13.912 -1.0389  1.1563 -0.6405
14933TIP3    H266291   3.045   2.066  13.787  1.8612  1.2008 -0.1188
14934TIP3   OH266292   2.156   5.349  16.931 -0.0862  0.2806  0.3390
14934TIP3    H166293   2.170   5.433  16.976  0.5290  0.0271  0.6350
14934TIP3    H266294   2.189   5.283  16.993 -1.6637 -0.2801  0.6258
14935TIP3   OH266295   5.292   0.545   1.101 -0.9286 -0.4453 -0.7218
14935TIP3    H166296   5.336   0.553   1.186  0.3941 -0.6723 -1.3655
14935TIP3    H266297   5.205   0.514   1.122 -1.0203  0.6312  0.6504
14936TIP3   OH266298   5.593   3.393   6.883  0.0041 -0.0323  0.3219
14936TIP3    H166299   5.523   3.401   6.948  1.3706 -2.4651  2.2415
14936TIP3    H266300   5.576   3.308   6.842  0.3186  0.5920 -1.1658
14937TIP3   OH266301   4.368   6.716  13.148  0.1598 -0.0776 -0.3834
14937TIP3    H166302   4.282   6.756  13.135 -0.1000 -0.7227 -0.6751
14937TIP3    H266303   4.421   6.748  13.075  0.9507  2.3763  1.1599
14938TIP3   OH266304   6.389   0.182  16.063 -0.2639  0.1117  0.6336
14938TIP3    H166305   6.405   0.144  16.149  0.2630  1.3536  1.1068
14938TIP3    H266306   6.329   0.121  16.020  0.5892 -1.2543  1.3297
14939TIP3   OH266307   3.636   6.286  15.225 -0.0086 -0.0951  0.2134
14939TIP3    H166308   3.563   6.265  15.283  0.5326 -0.4399  0.7829
14939TIP3    H266309   3.630   6.223  15.154 -0.2214 -0.1663  0.2963
14940TIP3   OH266310   1.626   4.388  11.448  0.1115  0.3745 -0.0855
14940TIP3    H166311   1.702   4.404  11.391  0.6621  0.2511  0.6026
14940TIP3    H266312   1.645   4.304  11.489  0.1799  0.9079  1.0032
14941TIP3   OH266313   5.222   5.718  15.714  0.1915 -1.0894  0.1393
14941TIP3    H166314   5.164   5.772  15.661 -0.1467 -0.0062  1.5597
14941TIP3    H266315   5.220   5.632  15.672  1.2345  0.0870 -2.5577
14942TIP3   OH266316   2.318   4.321  16.000  0.0507  0.2050  0.3482
14942TIP3    H166317   2.230   4.299  15.971  0.7643 -1.0552 -0.9659
14942TIP3    H266318   2.314   4.415  16.019 -1.9127 -0.1009  1.6946
14943TIP3   OH266319   1.499   1.959  11.389 -1.1489  0.2686 -0.2517
14943TIP3    H166320   1.483   2.051  11.369  1.2891  0.6986 -0.5841
14943TIP3    H266321   1.576   1.960  11.446 -2.1853 -1.4969  1.2867
14944TIP3   OH266322   3.284   4.628  11.543  0.3650 -0.1037  0.2532
14944TIP3    H166323   3.356   4.660  11.599  1.1765 -0.6357 -0.4554
14944TIP3    H266324   3.319   4.633  11.455 -1.5291  2.4436 -0.4693
14945TIP3   OH266325   1.500   2.751  14.795  0.5892  0.3357  0.2657
14945TIP3    H166326   1.448   2.828  14.819  0.7899  0.5590 -0.0251
14945TIP3    H266327   1.438   2.694  14.748  0.8546  1.0449 -0.9714
14946TIP3   OH266328   2.216   1.810   1.786  0.4392 -0.3928 -0.0953
14946TIP3    H166329   2.153   1.864   1.835 -0.2404 -0.3761 -0.9546
14946TIP3    H266330   2.302   1.838   1.817  0.2464  2.6835 -1.9338
14947TIP3   OH266331   3.426   0.548  15.890  0.3476  0.2487 -0.7107
14947TIP3    H166332   3.432   0.471  15.834  0.8161 -0.6204  0.4790
14947TIP3    H266333   3.489   0.531  15.961  1.1931  2.1852 -0.9450
14948TIP3   OH266334   2.273   0.407   4.429  0.1501  1.3562 -0.1167
14948TIP3    H166335   2.243   0.428   4.517 -0.0913 -0.0424  0.1530
14948TIP3    H266336   2.197   0.423   4.373  0.0402  1.4081  0.0483
14949TIP3   OH266337   5.987   3.146  11.830 -0.5952 -0.1648  0.1011
14949TIP3    H166338   5.996   3.103  11.915 -1.3516 -0.1534  0.1953
14949TIP3    H266339   5.935   3.086  11.778 -0.4793  0.0128 -0.2215
14950TIP3   OH266340   4.349   4.231  11.660  0.0094 -0.3361 -0.3164
14950TIP3    H166341   4.326   4.194  11.745 -1.0927  0.1970 -0.3671
14950TIP3    H266342   4.267   4.233  11.611  0.3562  0.6304 -0.8944
14951TIP3   OH266343   5.025   1.867  12.992  0.1013  0.3399  0.3627
14951TIP3    H166344   5.044   1.774  12.991  1.8079  0.5746  2.3876
14951TIP3    H266345   5.108   1.908  13.017 -0.2378  2.5458 -1.7378
14952TIP3   OH266346   1.664   0.310  17.400  0.2314 -0.1640 -0.5658
14952TIP3    H166347   1.745   0.282  17.358 -0.3544 -0.1018 -1.7569
14952TIP3    H266348   1.639   0.236  17.455  2.5943  0.8660  2.1600
14953TIP3   OH266349   1.216   6.754   4.489  0.3757  0.8662  0.5166
14953TIP3    H166350   1.287   6.773   4.550  0.3148  0.2420  0.7929
14953TIP3    H266351   1.171   6.678   4.527 -0.6860  1.4911  0.5611
14954TIP3   OH266352   5.952   5.182   3.277 -0.6313 -0.1969  0.4499
14954TIP3    H166353   6.043   5.178   3.304 -0.2383 -0.2894 -0.8372
14954TIP3    H266354   5.909   5.110   3.324  0.0126 -0.3521  0.8062
14955TIP3   OH266355   5.927   5.587   6.291  0.0996 -0.2358  0.5654
14955TIP3    H166356   5.921   5.662   6.350 -1.0030 -0.0089  0.1920
14955TIP3    H266357   5.849   5.535   6.311  1.6098 -2.1468  1.9272
14956TIP3   OH266358   0.145   5.859   0.360 -0.2155 -0.0155  0.2003
14956TIP3    H166359   0.054   5.886   0.371  0.0984  2.2582 -2.0811
14956TIP3    H266360   0.147   5.815   0.275  0.6168 -1.3349  0.8637
14957TIP3   OH266361   0.523   3.667   4.920 -0.0785  0.5922  0.3790
14957TIP3    H166362   0.447   3.683   4.977  0.1765  0.8056  0.6627
14957TIP3    H266363   0.485   3.655   4.833 -0.4615  0.4103  0.5669
14958TIP3   OH266364   6.177   5.064  13.106 -0.4677 -0.0258  0.2726
14958TIP3    H166365   6.180   5.046  13.201  4.0285 -1.3323  0.1383
14958TIP3    H266366   6.261   5.031  13.074  0.2184  4.4572 -3.4682
14959TIP3   OH266367   6.114   6.441  13.459  0.3907  0.4122  0.3538
14959TIP3    H166368   6.159   6.403  13.384 -0.8602  2.1289 -1.3290
14959TIP3    H266369   6.100   6.366  13.518  1.7330 -0.9098 -0.9215
14960TIP3   OH266370   4.647   2.480  15.886  0.0999  0.1388  0.6254
14960TIP3    H166371   4.680   2.429  15.812 -0.4410  1.6176 -0.6717
14960TIP3    H266372   4.562   2.441  15.906 -0.5389  0.8187 -0.6842
14961TIP3   OH266373   6.408   3.144   3.581  0.0987 -0.2113 -0.1388
14961TIP3    H166374   6.458   3.070   3.614  0.5952  0.5133  0.7816
14961TIP3    H266375   6.334   3.152   3.640  0.3606  0.3762  0.1185
14962TIP3   OH266376   3.186   2.190  10.619  0.0631 -0.4704 -0.1154
14962TIP3    H166377   3.203   2.235  10.536 -1.1658 -0.3971 -0.3479
14962TIP3    H266378   3.110   2.235  10.655 -0.0860 -1.2185  0.5190
14963TIP3   OH266379   2.486   4.297  12.096  0.2307  0.5716 -0.0462
14963TIP3    H166380   2.575   4.328  12.080  0.1995  1.3798  1.2202
14963TIP3    H266381   2.477   4.299  12.192 -0.0882 -2.4898  0.0816
14964TIP3   OH266382   3.317   0.991   6.870  0.2166 -0.1341  0.5261
14964TIP3    H166383   3.363   1.072   6.849 -0.1523 -0.0352  0.0739
14964TIP3    H266384   3.376   0.921   6.841  0.3665 -0.0175  0.5519
14965TIP3   OH266385   5.382   4.354  15.045 -0.0934  0.2418  0.0996
14965TIP3    H166386   5.331   4.429  15.014  0.4722  0.3546 -0.5757
14965TIP3    H266387   5.412   4.311  14.965 -1.9497 -1.8201  0.3946
14966TIP3   OH266388   1.612   0.718   2.232  0.0276 -0.4199 -0.2242
14966TIP3    H166389   1.671   0.672   2.172  0.9564 -1.9172  1.6987
14966TIP3    H266390   1.671   0.763   2.293 -0.8753  1.8866 -0.9375
14967TIP3   OH266391   1.942   2.498  14.475 -0.1362 -0.0777 -0.6064
14967TIP3    H166392   1.852   2.469  14.461 -0.5779  0.8083  0.2588
14967TIP3    H266393   1.986   2.422  14.514 -0.1346 -0.9496 -2.2150
14968TIP3   OH266394   4.179   5.129  11.222 -0.4000 -0.3885 -0.9564
14968TIP3    H166395   4.192   5.221  11.244 -0.8168 -0.2591 -1.2500
14968TIP3    H266396   4.084   5.117  11.220 -0.3561 -1.0716  0.0745
14969TIP3   OH266397   4.572   3.168  15.749 -0.4728  0.0503 -0.0425
14969TIP3    H166398   4.536   3.080  15.755 -1.6660  0.5487  0.5311
14969TIP3    H266399   4.496   3.224  15.729 -0.0594  1.1520  1.2777
14970TIP3   OH266400   4.797   2.198  12.662  0.0353  0.1268  0.0630
14970TIP3    H166401   4.800   2.109  12.696  1.7514  0.0190 -0.3090
14970TIP3    H266402   4.721   2.199  12.604 -0.2181 -0.9739  0.3555
14971TIP3   OH266403   1.329   6.021   4.285  0.0353 -0.3511  0.2594
14971TIP3    H166404   1.249   6.062   4.252 -0.1171 -1.5540 -0.9467
14971TIP3    H266405   1.312   5.927   4.281  0.4406 -0.6045  2.7872
14972TIP3   OH266406   3.713   2.449  15.580  0.0440 -0.4064 -0.2421
14972TIP3    H166407   3.780   2.420  15.642 -0.1843  0.7687  0.5827
14972TIP3    H266408   3.673   2.367  15.549  0.7700 -1.0554  0.4672
14973TIP3   OH266409   5.827   4.533  11.582  0.1745  0.3876  0.1227
14973TIP3    H166410   5.908   4.547  11.533  0.6872 -1.1662  0.4539
14973TIP3    H266411   5.764   4.503  11.516  0.4491 -0.2948  0.1591
14974TIP3   OH266412   5.744   2.926  13.933  0.2783  0.3657  0.6300
14974TIP3    H166413   5.724   2.843  13.977  0.0068  0.5307  0.8262
14974TIP3    H266414   5.685   2.928  13.857 -1.9757  1.7468  2.2759
14975TIP3   OH266415   3.865   6.306   1.666 -0.0987  0.3253  0.3559
14975TIP3    H166416   3.779   6.299   1.626 -1.4398 -0.8825  3.1638
14975TIP3    H266417   3.867   6.393   1.705 -0.9671 -0.3915  2.0831
14976TIP3   OH266418   5.950   0.736  12.208 -1.0153 -0.6743 -0.5372
14976TIP3    H166419   5.871   0.779  12.174  0.2379  0.7393 -1.7650
14976TIP3    H266420   6.010   0.733  12.133  0.8207  0.0247  0.8345
14977TIP3   OH266421   5.037   5.095  16.831 -0.2981  0.0037 -0.0234
14977TIP3    H166422   4.970   5.038  16.795  0.0223 -0.5518  0.2391
14977TIP3    H266423   5.100   5.035  16.871  0.0008  0.5472  0.3331
14978TIP3   OH266424   6.066   1.706  13.359  0.6724  0.1144 -0.3570
14978TIP3    H166425   6.054   1.738  13.449 -0.2607  0.8811 -0.7265
14978TIP3    H266426   6.149   1.744  13.331  0.2729  1.0749 -0.2895
14979TIP3   OH266427   1.393   6.289   2.223 -0.4572  0.6958 -0.4428
14979TIP3    H166428   1.478   6.293   2.268 -0.3508 -1.0420 -0.4168
14979TIP3    H266429   1.363   6.380   2.220  0.1262  1.0426  2.0280
14980TIP3   OH266430   4.728   1.868   6.007  0.2982  0.4368  0.1319
14980TIP3    H166431   4.752   1.854   6.098 -0.4541 -2.4829  0.0004
14980TIP3    H266432   4.770   1.796   5.960 -0.4916  1.0480 -1.6045
14981TIP3   OH266433   1.568   6.162  15.090  0.2318 -0.2030 -0.2113
14981TIP3    H166434   1.556   6.211  15.171  0.6629 -0.1674 -0.1664
14981TIP3    H266435   1.496   6.099  15.089 -0.9746  1.1317 -0.8034
14982TIP3   OH266436   6.220   5.109  12.670  0.5573  0.0893  0.3282
14982TIP3    H166437   6.145   5.153  12.631  0.4214 -0.2069  0.2526
14982TIP3    H266438   6.276   5.180  12.702  1.3906  0.3917 -1.6874
14983TIP3   OH266439   0.668   2.334  12.119  0.4428 -0.3172  0.1024
14983TIP3    H166440   0.596   2.271  12.112 -0.8986  1.2755 -2.0714
14983TIP3    H266441   0.632   2.415  12.082  2.1868  1.6652  2.4082
14984TIP3   OH266442   3.889   3.770   0.742 -0.4419  0.2641  0.2478
14984TIP3    H166443   3.870   3.812   0.658  0.3658 -1.3307 -0.7791
14984TIP3    H266444   3.823   3.805   0.802 -1.1656  1.2808 -1.0995
14985TIP3   OH266445   4.764   6.266   4.114  0.2823 -0.0615  0.0583
14985TIP3    H166446   4.739   6.195   4.172  0.8889 -0.0435  0.3517
14985TIP3    H266447   4.842   6.234   4.068 -0.7951 -0.4859 -1.5425
14986TIP3   OH266448   3.415   0.968  12.456 -0.0993  0.4783  0.1019
14986TIP3    H166449   3.334   1.017  12.467 -1.1218 -1.0763 -0.2226
14986TIP3    H266450   3.412   0.900  12.524  1.1865  0.7228  0.4308
14987TIP3   OH266451   0.832   3.474  14.826  0.1053  0.3478 -0.1853
14987TIP3    H166452   0.813   3.496  14.734 -1.3767 -0.4371 -0.0897
14987TIP3    H266453   0.802   3.550  14.875  1.7512  1.1689 -0.3905
14988TIP3   OH266454   2.286   2.108   0.733 -0.8023 -0.3330 -0.3374
14988TIP3    H166455   2.210   2.144   0.777 -2.1240 -1.2467 -1.7656
14988TIP3    H266456   2.266   2.015   0.722 -1.2752  0.0632 -4.1202
14989TIP3   OH266457   5.494   4.092   1.248 -0.1123  0.4100 -0.4717
14989TIP3    H166458   5.465   4.183   1.253  0.8448  0.6805  0.6870
14989TIP3    H266459   5.568   4.087   1.308 -0.1936 -1.1557 -0.4518
14990TIP3   OH266460   6.093   1.818  14.948  0.0101 -0.9377 -0.8642
14990TIP3    H166461   6.183   1.801  14.920  1.1090  3.2003 -0.5332
14990TIP3    H266462   6.089   1.786  15.038  0.9570 -1.6131 -1.0490
14991TIP3   OH266463   5.509   1.637   5.152 -0.5433 -0.3248 -0.0412
14991TIP3    H166464   5.488   1.705   5.216 -0.2170  0.0937 -0.3691
14991TIP3    H266465   5.599   1.655   5.126 -0.1855 -1.3583  0.4357
14992TIP3   OH266466   5.597   5.464   0.401  0.2765 -0.1324 -0.6615
14992TIP3    H166467   5.618   5.550   0.364  1.0606  0.6374  1.4602
14992TIP3    H266468   5.682   5.427   0.424 -0.2214 -0.2900  0.9937
14993TIP3   OH266469   5.333   6.186  14.210  0.5881 -0.2377 -0.1139
14993TIP3    H166470   5.315   6.147  14.124  0.8347 -1.7399  0.4890
14993TIP3    H266471   5.364   6.274  14.189 -1.1086  0.1085 -1.4723
14994TIP3   OH266472   4.608   4.632   4.917  0.0698 -0.3699 -0.1560
14994TIP3    H166473   4.524   4.616   4.874  0.0881  0.3673 -0.4723
14994TIP3    H266474   4.654   4.693   4.860 -0.2089  1.2493  1.2583
14995TIP3   OH266475   3.014   0.948  12.398  0.4330 -0.7120  0.1992
14995TIP3    H166476   2.924   0.916  12.408 -0.1779  1.2306  1.5708
14995TIP3    H266477   3.021   0.969  12.305 -0.9655  0.2364  0.2775
14996TIP3   OH266478   0.180   5.796  15.853 -0.6017 -0.8529  0.1926
14996TIP3    H166479   0.232   5.743  15.913  1.4789  1.4194  0.5886
14996TIP3    H266480   0.244   5.852  15.809 -2.6247  1.5415  0.0552
14997TIP3   OH266481   1.702   2.867   3.496  0.2236 -0.3291  0.8064
14997TIP3    H166482   1.618   2.823   3.494 -0.5241  1.0392  0.3664
14997TIP3    H266483   1.759   2.809   3.546 -1.2162 -0.8845  1.8854
14998TIP3   OH266484   0.863   6.391  10.872 -0.3538  0.1111  0.3233
14998TIP3    H166485   0.814   6.388  10.954 -1.2268 -0.4119 -0.2016
14998TIP3    H266486   0.906   6.305  10.867 -0.3530  0.1180  0.2062
14999TIP3   OH266487   1.389   3.728   1.686 -0.8889 -0.3033  0.0601
14999TIP3    H166488   1.325   3.680   1.738  0.6080 -0.0815  2.2337
14999TIP3    H266489   1.430   3.788   1.748 -0.8254  1.9117 -1.9940
15000TIP3   OH266490   3.733   6.234   2.901  0.2352  0.5713 -0.4475
15000TIP3    H166491   3.657   6.214   2.847 -1.0576 -1.1626  1.8348
15000TIP3    H266492   3.807   6.193   2.856 -0.8541 -1.1647 -0.7166
15001TIP3   OH266493   0.557   4.850   4.635 -0.5536  0.2435  0.1470
15001TIP3    H166494   0.560   4.946   4.632  1.0230  0.2117  0.0775
15001TIP3    H266495   0.464   4.830   4.642 -0.9001  1.7890  0.4701
15002TIP3   OH266496   0.230   4.102   3.529  0.3917 -0.3069 -0.2187
15002TIP3    H166497   0.197   4.185   3.565  0.5581 -0.0206 -0.7261
15002TIP3    H266498   0.249   4.049   3.606  0.0435  0.0318  0.1066
15003TIP3   OH266499   1.775   5.388   1.045 -0.3237  0.3801 -0.0852
15003TIP3    H166500   1.770   5.300   1.008 -0.0630 -0.1272  1.0377
15003TIP3    H266501   1.769   5.446   0.970 -0.5560 -0.5957 -0.8422
15004TIP3   OH266502   3.955   5.639   5.507 -0.2079 -0.3632  0.4129
15004TIP3    H166503   3.926   5.573   5.570 -0.8144 -0.2713  0.2296
15004TIP3    H266504   3.877   5.691   5.488 -0.1845 -0.7488 -0.8569
15005TIP3   OH266505   1.570   3.999   5.333 -0.1188 -0.1870  0.2936
15005TIP3    H166506   1.561   3.908   5.305 -0.8209 -0.1481  0.3569
15005TIP3    H266507   1.629   3.995   5.408 -0.5803 -0.6694  0.6453
15006TIP3   OH266508   0.585   1.646   2.901  0.0145 -0.3726 -0.1579
15006TIP3    H166509   0.616   1.670   2.989 -0.1363 -0.5411 -0.0566
15006TIP3    H266510   0.664   1.627   2.851  0.1105 -0.1192 -0.1044
15007TIP3   OH266511   3.310   4.676  16.247  0.3777  0.7312 -0.6546
15007TIP3    H166512   3.255   4.621  16.193 -0.8308 -1.0574  2.1660
15007TIP3    H266513   3.248   4.724  16.303  1.5591  2.0904 -0.4567
15008TIP3   OH266514   0.607   0.906  11.471 -0.0773  0.0976 -0.1730
15008TIP3    H166515   0.650   0.991  11.471  0.2757 -0.0641 -1.2443
15008TIP3    H266516   0.515   0.924  11.452  0.2530  0.1476 -1.8429
15009TIP3   OH266517   3.041   5.634  16.757  0.0244  0.4667 -0.1405
15009TIP3    H166518   3.062   5.541  16.759 -0.0885  0.4503  0.4088
15009TIP3    H266519   3.086   5.670  16.833 -0.9168  0.6521  0.3425
15010TIP3   OH266520   2.280   5.143  12.839  0.0944  0.8941 -0.0870
15010TIP3    H166521   2.374   5.125  12.839 -0.0985 -0.4145  2.0445
15010TIP3    H266522   2.250   5.112  12.924 -2.1496  2.0250 -0.4082
15011TIP3   OH266523   0.978   5.463  11.664 -0.0925  0.7202 -0.0792
15011TIP3    H166524   0.941   5.391  11.614 -0.7556  0.1082  1.2629
15011TIP3    H266525   1.070   5.439  11.677 -0.2472  0.2394  0.1334
15012TIP3   OH266526   2.514   4.641   0.581  0.1978 -0.0173  0.1027
15012TIP3    H166527   2.456   4.633   0.505  0.9561 -1.5821 -0.3560
15012TIP3    H266528   2.486   4.573   0.641  1.4974 -0.7980 -0.1204
15013TIP3   OH266529   1.070   6.725  13.543  0.0205  0.8246  0.5036
15013TIP3    H166530   1.020   6.789  13.594 -0.5602  0.8506 -0.0837
15013TIP3    H266531   1.021   6.716  13.462  1.1460  1.0926 -0.2280
15014TIP3   OH266532   0.746   0.662   4.319  0.2831  0.5341  0.3252
15014TIP3    H166533   0.825   0.675   4.371  0.8493  0.6491 -0.5349
15014TIP3    H266534   0.779   0.644   4.230 -0.6259 -0.5483  0.1859
15015TIP3   OH266535   4.459   1.053   6.252  0.6458  0.0744 -0.0704
15015TIP3    H166536   4.413   1.124   6.295  1.2486  1.7472 -2.0483
15015TIP3    H266537   4.398   1.020   6.186  1.2550  0.5073 -0.8789
15016TIP3   OH266538   5.924   3.970  14.562 -0.1711  0.0410  0.5523
15016TIP3    H166539   5.922   3.876  14.580  1.5711 -0.7903 -2.7485
15016TIP3    H266540   6.017   3.991  14.557 -0.4966  1.2813 -1.3844
15017TIP3   OH266541   6.420   2.152   6.156 -0.4721 -0.0704  0.2251
15017TIP3    H166542   6.484   2.084   6.132  3.1397  3.5664 -1.6571
15017TIP3    H266543   6.347   2.138   6.096  0.2751 -2.0526 -0.3130
15018TIP3   OH266544   3.131   1.713   3.299  0.3542 -0.3806  0.1942
15018TIP3    H166545   3.076   1.644   3.337  1.2998 -0.0963  2.2340
15018TIP3    H266546   3.179   1.669   3.229 -1.8071 -0.8232 -1.1063
15019TIP3   OH266547   4.825   5.021  16.066  0.6746 -0.0614 -0.2903
15019TIP3    H166548   4.784   4.935  16.058  2.3564 -0.8431 -1.0188
15019TIP3    H266549   4.775   5.066  16.135  0.6615 -2.1321  1.1184
15020TIP3   OH266550   2.297   0.238  15.887  0.6588  0.0773 -0.3304
15020TIP3    H166551   2.229   0.304  15.879 -0.5993 -1.1697 -0.2691
15020TIP3    H266552   2.370   0.273  15.836  0.2468  1.7647  0.1744
15021TIP3   OH266553   3.879   3.093   2.755 -0.5154 -0.4979 -0.3162
15021TIP3    H166554   3.821   3.169   2.764  0.6534  0.3256  0.5029
15021TIP3    H266555   3.949   3.123   2.697  0.8639 -0.3563  1.3601
15022TIP3   OH266556   3.821   6.006  15.699 -0.6663 -0.0915  0.1123
15022TIP3    H166557   3.794   6.004  15.790  1.4166 -1.5812  0.7669
15022TIP3    H266558   3.854   6.095  15.685 -0.1979 -0.0966  1.0898
15023TIP3   OH266559   1.341   2.132   2.455 -0.1965  0.0060  0.2869
15023TIP3    H166560   1.259   2.109   2.500  0.1223 -0.9147  0.4353
15023TIP3    H266561   1.338   2.227   2.445 -1.6419 -0.0894 -0.4135
15024TIP3   OH266562   6.483   0.124   3.952  0.1012  0.5611 -0.0748
15024TIP3    H166563   6.523   0.051   3.998  0.2681  0.4703 -0.3623
15024TIP3    H266564   6.397   0.135   3.994 -0.0176  0.0544 -0.1806
15025TIP3   OH266565   5.145   0.305  12.749  0.1376  0.1395  0.1433
15025TIP3    H166566   5.059   0.348  12.746 -0.1110 -0.3747 -0.1273
15025TIP3    H266567   5.127   0.214  12.726  0.6918 -0.0698  0.5172
15026TIP3   OH266568   3.474   5.327   2.616 -0.2763 -0.1327  0.0572
15026TIP3    H166569   3.509   5.407   2.576  3.5102 -0.7224  1.8255
15026TIP3    H266570   3.380   5.331   2.596  0.1202  3.3833 -2.1669
15027TIP3   OH266571   4.397   5.771  10.834  0.5113  0.1163  0.5845
15027TIP3    H166572   4.388   5.857  10.792 -0.1778  0.9339  2.3071
15027TIP3    H266573   4.310   5.731  10.824  0.6467 -0.1239  0.3493
15028TIP3   OH266574   0.919   6.483  16.573  0.1251  0.1207 -0.1231
15028TIP3    H166575   0.874   6.563  16.545 -0.1470  0.1327  0.3347
15028TIP3    H266576   0.855   6.413  16.559 -0.2273  0.1996  0.9752
15029TIP3   OH266577   3.369   5.986   1.300 -0.1436  0.0174 -0.0031
15029TIP3    H166578   3.389   6.078   1.315 -1.1164  0.4490 -1.2225
15029TIP3    H266579   3.440   5.955   1.243 -0.7728  0.4946 -1.0627
15030TIP3   OH266580   3.323   3.009  11.466  0.5543 -0.2028  0.0608
15030TIP3    H166581   3.413   3.008  11.434  0.2397 -0.8661 -0.8284
15030TIP3    H266582   3.272   3.052  11.397 -0.2759 -2.4607 -0.8146
15031TIP3   OH266583   3.645   5.276   0.450  0.0359 -0.1233  0.2342
15031TIP3    H166584   3.553   5.254   0.433  0.1544  0.3103 -1.0487
15031TIP3    H266585   3.662   5.240   0.537 -1.6499  0.7446  0.9617
15032TIP3   OH266586   3.480   1.780   0.873 -0.1926  0.1408 -0.3315
15032TIP3    H166587   3.572   1.758   0.865  0.0337  0.8728  0.1544
15032TIP3    H266588   3.438   1.699   0.904  0.6394  0.3816  1.5647
15033TIP3   OH266589   0.270   2.754  17.463  0.0663  0.0606 -0.3286
15033TIP3    H166590   0.359   2.746  17.429  0.7290  0.8946  1.1415
15033TIP3    H266591   0.254   2.849  17.466 -0.7284 -0.0710 -0.2105
15034TIP3   OH266592   4.626   5.711   4.930  0.4315 -0.3284  0.1343
15034TIP3    H166593   4.594   5.621   4.930 -2.0061  0.4633  0.7913
15034TIP3    H266594   4.651   5.727   4.839 -0.1894 -1.3227 -0.2286
15035TIP3   OH266595   4.487   5.893   0.864 -0.2695 -0.0338  0.1428
15035TIP3    H166596   4.479   5.803   0.834  0.0133  0.1431 -0.4836
15035TIP3    H266597   4.467   5.946   0.786  3.2731  0.4478 -0.6012
15036TIP3   OH266598   5.323   5.902   3.694 -0.1824  0.1852 -0.2949
15036TIP3    H166599   5.231   5.927   3.681 -0.4673 -1.3379 -1.5625
15036TIP3    H266600   5.372   5.979   3.667 -1.0869  0.8875  0.0171
15037TIP3   OH266601   4.009   0.223   1.484  0.1978 -0.0382 -0.3044
15037TIP3    H166602   3.977   0.279   1.554 -1.7979  0.7622 -1.7474
15037TIP3    H266603   4.102   0.245   1.476  0.1348  0.8606  1.1453
15038TIP3   OH266604   4.607   2.459  13.365 -0.4488 -0.2674 -0.0735
15038TIP3    H166605   4.530   2.453  13.421 -0.3204  0.3822  0.1853
15038TIP3    H266606   4.604   2.381  13.310 -1.0736 -0.4431  0.2104
15039TIP3   OH266607   2.672   6.636   2.087 -0.2626  0.0585  0.1554
15039TIP3    H166608   2.606   6.677   2.144 -1.6205 -1.1583 -0.4732
15039TIP3    H266609   2.634   6.640   1.999  0.2588 -1.1430 -0.1425
15040TIP3   OH266610   4.809   0.456   1.341  0.6714 -0.4773  0.1662
15040TIP3    H166611   4.714   0.442   1.350  0.8119 -1.5091  0.1764
15040TIP3    H266612   4.826   0.445   1.247  1.0239 -2.0902  0.3846
15041TIP3   OH266613   3.970   4.064   5.256 -0.1711  0.0565 -0.0005
15041TIP3    H166614   3.944   4.075   5.165 -1.1437 -0.5271  0.1943
15041TIP3    H266615   4.027   4.139   5.274 -1.6339  1.3290 -0.4998
15042TIP3   OH266616   2.427   3.830  16.836  0.2271  0.3237  0.1751
15042TIP3    H166617   2.339   3.862  16.818 -0.8445 -1.1170  2.3788
15042TIP3    H266618   2.450   3.778  16.760 -0.5193  1.2535 -0.7230
15043TIP3   OH266619   6.068   6.252  11.347 -0.4853  0.8017  0.2124
15043TIP3    H166620   6.076   6.330  11.403 -1.7774 -0.6610  2.6098
15043TIP3    H266621   5.974   6.243  11.331 -0.3143 -0.0052 -0.4145
15044TIP3   OH266622   0.372   3.044   5.131 -0.1074 -0.0078  0.9730
15044TIP3    H166623   0.340   3.103   5.200  1.9459  1.2332  0.9467
15044TIP3    H266624   0.432   3.098   5.079  0.2572 -1.5871 -0.3436
15045TIP3   OH266625   5.437   5.655   4.419  0.4163 -0.1556  0.2068
15045TIP3    H166626   5.518   5.659   4.367 -0.1988 -0.3959 -0.8124
15045TIP3    H266627   5.464   5.621   4.504  1.2529 -1.0572 -0.4028
15046TIP3   OH266628   3.431   3.819  16.172 -0.7934 -0.2446  0.4611
15046TIP3    H166629   3.515   3.852  16.140 -1.0298  0.9694  1.0601
15046TIP3    H266630   3.418   3.860  16.257 -3.0102  1.3567 -0.5448
15047TIP3   OH266631   4.857   2.461   0.718  0.1324  0.0291 -0.7114
15047TIP3    H166632   4.922   2.430   0.655 -0.7923 -0.1354 -1.6178
15047TIP3    H266633   4.796   2.388   0.728  2.0728 -1.3257  3.0799
15048TIP3   OH266634   5.800   4.603   4.462 -0.1575 -0.0831  0.3622
15048TIP3    H166635   5.750   4.660   4.520 -1.8532  0.3430 -1.4415
15048TIP3    H266636   5.788   4.640   4.374 -0.8553 -2.8390 -0.8015
15049TIP3   OH266637   1.494   0.055  14.700  0.1335 -0.0505 -0.3236
15049TIP3    H166638   1.572   0.049  14.754  0.5093 -0.0347 -0.8633
15049TIP3    H266639   1.512   0.127  14.639  0.5304 -1.3172 -1.7687
15050TIP3   OH266640   0.685   6.625   5.072  0.0929  0.1160  0.2688
15050TIP3    H166641   0.632   6.632   4.993  1.5660  2.1034 -0.6207
15050TIP3    H266642   0.775   6.617   5.041  0.5648 -1.1168  1.7674
15051TIP3   OH266643   3.862   3.823   3.523  0.0365 -0.1358  0.4588
15051TIP3    H166644   3.805   3.843   3.597 -1.2707 -1.7767 -0.0346
15051TIP3    H266645   3.951   3.829   3.559 -0.4989  0.7393  1.7101
15052TIP3   OH266646   3.735   2.074  13.703  0.0518 -0.7773 -0.1757
15052TIP3    H166647   3.823   2.043  13.722  0.0158 -2.0884 -1.8867
15052TIP3    H266648   3.681   2.041  13.774  0.8430 -0.4388  0.5920
15053TIP3   OH266649   1.883   6.225   5.976 -0.0719 -0.3073  0.1565
15053TIP3    H166650   1.818   6.200   5.911 -0.7783 -1.3552  1.2263
15053TIP3    H266651   1.858   6.177   6.055 -0.4753  2.4916  1.8669
15054TIP3   OH266652   3.157   0.922   4.687  0.8268  0.2434  0.2509
15054TIP3    H166653   3.073   0.916   4.641  1.9368  2.4343 -2.3963
15054TIP3    H266654   3.134   0.928   4.779 -1.7821 -1.0672 -0.2143
15055TIP3   OH266655   0.017   6.122   5.961  0.3910 -0.0598 -1.0334
15055TIP3    H166656  -0.070   6.099   5.930  0.0720  1.9934 -1.8312
15055TIP3    H266657   0.076   6.073   5.904 -0.2402 -0.6398 -1.1973
15056TIP3   OH266658   3.596   4.208   3.537  0.6358  0.1908  0.0489
15056TIP3    H166659   3.566   4.156   3.611  0.7415  1.2363  0.8492
15056TIP3    H266660   3.517   4.229   3.488  0.0773  2.1819  1.6566
15057TIP3   OH266661   6.174   5.080   0.484  0.2402  0.3686 -0.3593
15057TIP3    H166662   6.128   5.078   0.400  2.0440 -3.7418 -1.4634
15057TIP3    H266663   6.114   5.040   0.545 -0.3321  1.6346 -0.0534
15058TIP3   OH266664   1.758   5.859  15.156  0.0081  0.0850 -0.6462
15058TIP3    H166665   1.671   5.823  15.140 -0.2120 -0.9152  2.2492
15058TIP3    H266666   1.817   5.806  15.103 -0.7885 -1.7426  0.2237
15059TIP3   OH266667   5.674   0.876   4.502  0.2468  0.3193  0.0918
15059TIP3    H166668   5.699   0.796   4.457 -1.3531 -0.7839  1.0526
15059TIP3    H266669   5.704   0.865   4.592  1.6511  1.6373 -0.1733
15060TIP3   OH266670   4.562   0.311  15.043  0.2048 -0.7313 -0.3195
15060TIP3    H166671   4.535   0.321  14.952  0.6913 -0.8817 -0.4854
15060TIP3    H266672   4.628   0.380  15.055 -2.1900  1.5305  0.8915
15061TIP3   OH266673   4.071   0.296   5.388  0.2532  0.4520  0.2159
15061TIP3    H166674   4.038   0.208   5.372 -0.7026  0.7220  0.6714
15061TIP3    H266675   4.163   0.291   5.362  1.0346 -1.4845  2.8778
15062TIP3   OH266676   3.764   3.325  14.204  0.3581  0.0941  0.2269
15062TIP3    H166677   3.693   3.354  14.261 -0.2217  1.5327 -1.1530
15062TIP3    H266678   3.720   3.277  14.134  0.9755 -0.8354  0.4521
15063TIP3   OH266679   5.894   6.369  15.525 -0.0150 -0.2395  0.1799
15063TIP3    H166680   5.952   6.354  15.599 -0.4993 -0.1506  0.5814
15063TIP3    H266681   5.940   6.331  15.450 -0.5801 -2.4868  0.9095
15064TIP3   OH266682   4.632   6.176  14.285  0.1169  0.0330  0.1889
15064TIP3    H166683   4.570   6.196  14.356 -0.0962  1.8591 -0.4736
15064TIP3    H266684   4.577   6.168  14.207  0.3108 -2.2896  0.2052
15065TIP3   OH266685   5.584   2.017   4.721 -0.1373  0.0810  0.2889
15065TIP3    H166686   5.668   2.042   4.759 -0.0277  1.6541 -0.8713
15065TIP3    H266687   5.547   1.953   4.782  1.2467  0.4450  1.5481
15066TIP3   OH266688   1.223   4.456  13.760  0.0265  0.1321  0.1459
15066TIP3    H166689   1.294   4.461  13.823 -0.4577 -2.0375  0.9751
15066TIP3    H266690   1.264   4.477  13.676  1.2666  0.5373  0.8263
15067TIP3   OH266691   1.236   4.301   3.635 -0.0199  0.3107  0.0736
15067TIP3    H166692   1.222   4.395   3.643  0.0960  0.3322  0.0313
15067TIP3    H266693   1.297   4.280   3.706  2.5745  0.8340 -1.8653
15068TIP3   OH266694   3.372   6.009  12.492  0.3422  0.6066 -0.2239
15068TIP3    H166695   3.281   6.009  12.521  0.5094 -0.8051  0.3698
15068TIP3    H266696   3.405   5.923  12.517  1.4616  0.5918 -1.6434
15069TIP3   OH266697   1.475   4.595  12.194  0.0152  0.0696  0.1653
15069TIP3    H166698   1.478   4.600  12.098 -2.3411  1.4442  0.0881
15069TIP3    H266699   1.423   4.517  12.213 -1.6190  1.1380  0.2220
15070TIP3   OH266700   1.676   5.793  16.831 -0.3847  0.3025  0.1200
15070TIP3    H166701   1.588   5.763  16.851 -0.9770  1.7008 -0.2812
15070TIP3    H266702   1.666   5.849  16.754  0.9491 -0.0453 -0.3323
15071TIP3   OH266703   6.124   6.642   3.747 -0.4256  0.2733  0.2118
15071TIP3    H166704   6.208   6.684   3.766  0.1409 -0.8232  0.1756
15071TIP3    H266705   6.082   6.701   3.685 -0.1337  1.3569  1.0021
15072TIP3   OH266706   1.653   4.963   0.750  0.7892  0.2985 -0.2605
15072TIP3    H166707   1.590   4.904   0.709 -0.3942  1.1182  0.3007
15072TIP3    H266708   1.737   4.940   0.710 -0.2254  0.8922 -2.9682
15073TIP3   OH266709   3.237   3.947   3.758  0.1994 -0.1366 -0.0241
15073TIP3    H166710   3.297   3.984   3.823  0.5767 -0.3220 -0.2645
15073TIP3    H266711   3.227   3.855   3.784 -0.5227  0.0654  0.4154
15074TIP3   OH266712   0.414   1.201   5.159  0.1476  0.7003  0.0829
15074TIP3    H166713   0.368   1.178   5.079  0.2452  0.7384  0.0151
15074TIP3    H266714   0.349   1.244   5.214 -0.2739 -0.5174  0.5638
15075TIP3   OH266715   0.211   3.480   0.552 -0.1235  0.4677  0.2971
15075TIP3    H166716   0.222   3.570   0.522 -1.0211  0.8423  1.0299
15075TIP3    H266717   0.201   3.487   0.647  2.9406 -0.7142  0.8051
15076TIP3   OH266718   5.554   6.345  16.507  0.1372 -0.4485 -0.1243
15076TIP3    H166719   5.547   6.387  16.422  0.4155 -0.1619 -0.0064
15076TIP3    H266720   5.482   6.281  16.509 -0.4069  0.1522 -0.2250
15077TIP3   OH266721   5.550   5.152  14.680 -0.2335 -0.0711 -0.1556
15077TIP3    H166722   5.609   5.111  14.743 -0.6478  0.0852  0.3377
15077TIP3    H266723   5.596   5.145  14.596 -0.6633 -2.3007 -0.2643
15078TIP3   OH266724   4.317   4.350   1.631 -0.2403  0.3249  0.4997
15078TIP3    H166725   4.341   4.285   1.565  1.3386  1.9238 -0.6052
15078TIP3    H266726   4.222   4.345   1.636 -0.1276 -2.9895  1.5182
15079TIP3   OH266727   3.746   0.153   4.276 -0.9552 -0.1050  0.4169
15079TIP3    H166728   3.712   0.241   4.287 -0.5189 -0.0921  1.8366
15079TIP3    H266729   3.674   0.104   4.238 -1.6593  0.5476  0.8852
15080TIP3   OH266730   1.928   3.503  16.566  0.4672  0.3165  0.0267
15080TIP3    H166731   1.886   3.582  16.534 -1.4943 -0.5712  0.2815
15080TIP3    H266732   1.900   3.434  16.505  0.1399 -0.6067  1.1719
15081TIP3   OH266733   6.517   1.775   2.213 -0.0420  0.3841  0.0677
15081TIP3    H166734   6.585   1.792   2.147  0.8301  1.9258  1.2895
15081TIP3    H266735   6.435   1.795   2.168  0.3870 -0.3744 -1.0866
15082TIP3   OH266736   4.398   6.449  15.988  0.6356  0.0222 -0.1044
15082TIP3    H166737   4.309   6.414  15.979  1.2579 -1.6273 -0.2004
15082TIP3    H266738   4.387   6.529  16.039 -1.0718  0.7408 -1.5023
15083TIP3   OH266739   1.625   2.315  14.899 -0.7625  0.5693 -0.4225
15083TIP3    H166740   1.701   2.362  14.864  0.1184 -0.3212  0.2676
15083TIP3    H266741   1.594   2.370  14.971  1.6354 -0.8818  1.8829
15084TIP3   OH266742   4.348   1.441  12.277 -0.4131 -0.4843  0.1507
15084TIP3    H166743   4.286   1.496  12.230 -0.5025 -0.4615  0.2933
15084TIP3    H266744   4.429   1.493  12.281 -1.2478  0.7981  2.6057
15085TIP3   OH266745   3.608   0.689   3.433  0.3011  0.0217 -0.4921
15085TIP3    H166746   3.657   0.641   3.366 -0.4089  1.5859 -2.2356
15085TIP3    H266747   3.670   0.699   3.506  0.7678 -2.5982 -0.4589
15086TIP3   OH266748   0.662   3.641   0.383 -0.1657 -0.0166  0.3343
15086TIP3    H166749   0.640   3.573   0.319  0.0810 -0.3280  0.5712
15086TIP3    H266750   0.611   3.618   0.461  0.3643 -0.2750  0.6124
15087TIP3   OH266751   0.581   5.033   5.616 -0.3135 -0.4079 -0.0684
15087TIP3    H166752   0.645   5.102   5.600  1.2952 -1.6012  0.8462
15087TIP3    H266753   0.567   4.993   5.531 -1.5429  1.2127 -0.6802
15088TIP3   OH266754   4.929   4.182   0.316  0.5728  0.6692 -0.1707
15088TIP3    H166755   4.932   4.172   0.411 -0.6801  2.1977  0.0727
15088TIP3    H266756   5.021   4.175   0.289  0.9612  0.2936  1.1573
15089TIP3   OH266757   1.136   4.749  12.853  0.4536  1.0515 -0.5352
15089TIP3    H166758   1.051   4.757  12.897  0.8698 -0.4875  0.6242
15089TIP3    H266759   1.116   4.757  12.760 -0.9743  0.6104 -0.2814
15090TIP3   OH266760   6.119   2.062   5.686 -0.1383  0.0150 -0.0036
15090TIP3    H166761   6.146   2.115   5.611 -2.1258  1.9896  0.5585
15090TIP3    H266762   6.194   2.065   5.746  0.7425  0.0345 -1.0739
15091TIP3   OH266763   2.303   5.993   3.395  1.0493  0.0424 -0.1921
15091TIP3    H166764   2.299   6.084   3.424 -0.8687 -0.7620  2.4080
15091TIP3    H266765   2.308   5.999   3.299 -1.2378  2.8644 -0.2704
15092TIP3   OH266766   1.489   5.367   2.360  0.0200  0.1513  0.1205
15092TIP3    H166767   1.408   5.326   2.328  0.4192 -1.0323  0.5763
15092TIP3    H266768   1.506   5.438   2.298 -0.4608 -0.6516 -0.9506
15093TIP3   OH266769   3.757   1.289  17.523  0.0110  0.3034  0.1156
15093TIP3    H166770   3.715   1.239  17.452 -1.4343  0.5310  0.7704
15093TIP3    H266771   3.851   1.276  17.509 -0.2523 -0.0400 -1.5601
15094TIP3   OH266772   1.511   1.064   0.798 -0.0594 -0.6887 -0.1145
15094TIP3    H166773   1.540   0.973   0.793  2.2170 -0.1986  2.0316
15094TIP3    H266774   1.569   1.111   0.738  3.0081  0.0846  3.1371
15095TIP3   OH266775   3.524   1.058  15.255  0.4008 -0.3068 -0.1472
15095TIP3    H166776   3.560   0.971  15.236 -1.3202 -1.3907  1.2735
15095TIP3    H266777   3.477   1.083  15.176 -1.7136 -2.1244  0.4252
15096TIP3   OH266778   0.574   2.583   3.807 -0.6355 -0.6719  0.0443
15096TIP3    H166779   0.636   2.656   3.816 -2.6846  0.9395  2.0822
15096TIP3    H266780   0.606   2.535   3.730  2.5423  0.5849  0.3979
15097TIP3   OH266781   2.984   1.391   3.265  0.4133  0.0513 -0.1281
15097TIP3    H166782   2.963   1.420   3.176  0.9776  0.4172 -0.1468
15097TIP3    H266783   2.933   1.311   3.277 -1.6291  1.3011  0.0977
15098TIP3   OH266784   6.318   2.124  16.429  0.7371 -0.0502  0.2164
15098TIP3    H166785   6.312   2.067  16.506 -1.7637 -1.3523 -0.8182
15098TIP3    H266786   6.379   2.079  16.371  0.8154 -0.3023  0.4945
15099TIP3   OH266787   0.155   0.688   0.994  0.2799 -1.1167 -0.1294
15099TIP3    H166788   0.169   0.605   0.949  1.8585 -0.4505 -0.9018
15099TIP3    H266789   0.241   0.729   0.998 -0.8579  1.7702 -2.2918
15100TIP3   OH266790   0.309   2.348  17.002  0.3306  0.0294  0.1698
15100TIP3    H166791   0.313   2.321  16.910  0.6928 -0.5874  0.3598
15100TIP3    H266792   0.260   2.430  17.000  1.5577  0.7790 -0.7430
15101TIP3   OH266793   0.032   0.474  17.220  0.1258 -0.5021 -0.0039
15101TIP3    H166794  -0.034   0.425  17.269  0.2709 -1.1131 -0.4089
15101TIP3    H266795  -0.017   0.545  17.177 -0.3056 -1.0544 -0.4409
15102TIP3   OH266796   5.773   5.960   4.700 -0.3428  0.4738  0.1233
15102TIP3    H166797   5.723   6.025   4.749  0.7173 -0.2162  2.2367
15102TIP3    H266798   5.820   6.010   4.634 -0.5552  1.6804  0.8650
15103TIP3   OH266799   6.231   6.716   2.608  0.7731  0.4201 -0.2896
15103TIP3    H166800   6.172   6.642   2.613  0.2731  0.8034 -0.4334
15103TIP3    H266801   6.207   6.772   2.682 -0.9479  1.9438 -1.9195
15104TIP3   OH266802   0.382   0.160  17.066  0.0672  0.1669  0.3579
15104TIP3    H166803   0.289   0.143  17.052  0.1228  0.4741 -0.4533
15104TIP3    H266804   0.423   0.074  17.072 -0.1642  0.0316 -0.0265
15105TIP3   OH266805   2.633   6.715  14.851 -0.0235  0.0978  0.5897
15105TIP3    H166806   2.554   6.745  14.807  0.9745 -0.0531 -1.4120
15105TIP3    H266807   2.620   6.739  14.943 -2.4668 -0.1177  0.3785
15106TIP3   OH266808   4.971   3.408  11.915  0.3823  0.0074 -0.0496
15106TIP3    H166809   4.880   3.417  11.888  0.6949 -0.3428 -1.2972
15106TIP3    H266810   5.010   3.494  11.896 -0.0620  0.7429  2.1321
15107TIP3   OH266811   2.420   6.045  11.471  0.1913 -0.2097 -0.5774
15107TIP3    H166812   2.406   5.965  11.421  0.1544  0.1055 -1.0868
15107TIP3    H266813   2.465   6.017  11.550 -0.0664 -0.7660 -0.6206
15108TIP3   OH266814   4.410   3.086   1.258 -0.0821  0.7310  1.1295
15108TIP3    H166815   4.472   3.076   1.185 -0.6862  0.6908  0.6121
15108TIP3    H266816   4.337   3.134   1.220  0.2090  1.9606  2.0813
15109TIP3   OH266817   0.146   4.876   2.625 -0.0500  0.1285 -0.6453
15109TIP3    H166818   0.097   4.838   2.698 -1.3681 -1.0802 -2.0938
15109TIP3    H266819   0.161   4.967   2.651  0.9819 -0.6635  1.8287
15110TIP3   OH266820   4.372   5.638  11.813  0.4653 -0.1655 -0.4246
15110TIP3    H166821   4.427   5.714  11.796  1.4758 -1.2161 -2.0466
15110TIP3    H266822   4.288   5.661  11.773  0.0330  0.9590  1.0291
15111TIP3   OH266823   3.972   4.363   6.816 -0.1810 -0.1362 -0.0520
15111TIP3    H166824   3.966   4.287   6.874 -1.9069  0.2912  0.3972
15111TIP3    H266825   4.041   4.417   6.854 -0.5349 -0.3904  0.9777
15112TIP3   OH266826   4.661   5.894   0.616  0.1913  0.4678  0.3698
15112TIP3    H166827   4.600   5.951   0.569 -0.3531 -0.2092  0.2522
15112TIP3    H266828   4.685   5.944   0.694  0.9748  1.5340 -0.5130
15113TIP3   OH266829   3.230   2.096  14.116 -0.3724  0.1699  0.1773
15113TIP3    H166830   3.163   2.137  14.170 -0.6267  2.2964 -1.6304
15113TIP3    H266831   3.309   2.147  14.134  0.1363 -0.6509  0.3245
15114TIP3   OH266832   2.200   5.713  14.648  0.5369  0.1306 -0.0146
15114TIP3    H166833   2.272   5.692  14.707  1.0919 -0.2206 -0.8056
15114TIP3    H266834   2.193   5.638  14.590 -1.5144 -0.5554  1.0202
15115TIP3   OH266835   6.083   5.517  13.510  0.5764 -0.5619  0.2445
15115TIP3    H166836   6.136   5.444  13.479 -0.4689 -2.8411  3.3602
15115TIP3    H266837   6.078   5.505  13.605 -1.2740  2.5025  0.6836
15116TIP3   OH266838   6.167   3.817  15.286 -0.8373  0.3298  0.8711
15116TIP3    H166839   6.225   3.849  15.216 -1.5347  0.3323  0.2798
15116TIP3    H266840   6.079   3.833  15.252 -1.1857  0.2405  1.7218
15117TIP3   OH266841   3.285   5.912   4.895 -0.2082 -0.0196 -0.5454
15117TIP3    H166842   3.198   5.937   4.866 -0.5030  0.6671  0.8229
15117TIP3    H266843   3.272   5.831   4.944  0.3414 -1.3994 -2.5585
15118TIP3   OH266844   6.359   4.101   2.997 -0.2119 -0.4960 -0.4442
15118TIP3    H166845   6.382   4.067   3.084 -0.8352 -1.8008 -0.7652
15118TIP3    H266846   6.264   4.109   3.000 -0.0784  1.7579 -0.2277
15119TIP3   OH266847   5.155   4.473   0.921 -0.5486 -0.6813 -0.3969
15119TIP3    H166848   5.232   4.519   0.888 -0.0791 -2.0134 -1.2488
15119TIP3    H266849   5.108   4.445   0.842 -1.1346 -1.1359  0.1056
15120TIP3   OH266850   1.159   6.761   2.674  0.1234 -0.2076  0.1706
15120TIP3    H166851   1.152   6.698   2.602  0.0597  0.8348 -0.7595
15120TIP3    H266852   1.243   6.806   2.659 -0.3510  0.6965  0.1823
15121TIP3   OH266853   1.709   5.232  11.020  0.7336  0.4980  0.2164
15121TIP3    H166854   1.625   5.195  11.048  1.2081  0.5075  1.7452
15121TIP3    H266855   1.685   5.300  10.957 -0.5155  1.3817  1.5701
15122TIP3   OH266856   5.586   0.335   1.100 -0.2189 -0.0425  0.4297
15122TIP3    H166857   5.640   0.292   1.034 -1.4437 -2.4195  0.8587
15122TIP3    H266858   5.574   0.424   1.068 -1.6610 -1.3500 -3.1395
15123TIP3   OH266859   2.665   1.223  14.813  0.4391 -0.6492 -0.4099
15123TIP3    H166860   2.693   1.189  14.898  0.5812 -0.8656 -0.5424
15123TIP3    H266861   2.574   1.194  14.804  0.3697 -0.4825 -0.2585
15124TIP3   OH266862   4.693   2.593   3.988  0.3108 -0.1982 -0.7780
15124TIP3    H166863   4.675   2.686   4.000  0.1031 -0.0425 -2.1498
15124TIP3    H266864   4.626   2.563   3.926 -0.2663 -1.5059  0.4104
15125TIP3   OH266865   0.672   0.960  16.150  0.4903 -0.6796  0.2334
15125TIP3    H166866   0.601   0.918  16.197  0.8328  0.0506  1.4296
15125TIP3    H266867   0.735   0.984  16.217  0.6768  1.0277 -0.5014
15126TIP3   OH266868   4.576   1.551  13.051  0.0644  0.2221  0.0148
15126TIP3    H166869   4.654   1.604  13.057 -1.1518  2.3996 -1.7406
15126TIP3    H266870   4.511   1.607  13.008 -1.5636 -2.4207 -1.3209
15127TIP3   OH266871   3.081   4.181   6.603 -0.1753  0.0712  0.4246
15127TIP3    H166872   3.054   4.259   6.554  2.1011 -0.0001 -1.0985
15127TIP3    H266873   3.130   4.216   6.677 -0.8307  0.1151  0.8413
15128TIP3   OH266874   3.483   3.996   2.461 -0.4158  0.1371  0.1026
15128TIP3    H166875   3.463   3.989   2.368  0.5405 -0.0862 -0.0904
15128TIP3    H266876   3.509   4.087   2.474 -2.5484  0.7487  0.5771
15129TIP3   OH266877   0.693   4.362  14.273 -0.6419 -0.0797 -0.1872
15129TIP3    H166878   0.626   4.311  14.226 -0.8234 -0.6353  0.6405
15129TIP3    H266879   0.762   4.376  14.209 -0.4405 -1.6761 -0.3679
15130TIP3   OH266880   1.950   6.524  16.200  0.0891 -0.0196 -0.0575
15130TIP3    H166881   1.986   6.436  16.192  0.9369  0.4290 -1.5899
15130TIP3    H266882   1.990   6.559  16.280  2.1448  0.0209 -1.0517
15131TIP3   OH266883   4.010   2.818   2.512  0.7721 -0.5678 -0.0639
15131TIP3    H166884   4.030   2.910   2.498 -1.2853 -0.1952 -0.9321
15131TIP3    H266885   3.961   2.816   2.595  2.9352 -1.2676  1.2940
15132TIP3   OH266886   2.044   3.734   4.091  0.8156  0.6616  0.1406
15132TIP3    H166887   2.024   3.696   4.006  0.3747  2.6101 -0.6853
15132TIP3    H266888   1.961   3.731   4.139  1.0028 -0.1991  0.4320
15133TIP3   OH266889   3.295   2.352   6.265  0.0181  0.3119 -0.1875
15133TIP3    H166890   3.296   2.341   6.360 -0.1541  0.6749 -0.1410
15133TIP3    H266891   3.229   2.291   6.234 -0.5167  0.7836  0.0065
15134TIP3   OH266892   0.932   5.251   0.440  0.2276  0.1104  0.1256
15134TIP3    H166893   0.880   5.306   0.382  0.9621 -0.3192 -0.9772
15134TIP3    H266894   0.922   5.291   0.527  0.9418  2.1475 -0.6762
15135TIP3   OH266895   2.244   4.058   5.616  0.2847 -0.4224 -0.1753
15135TIP3    H166896   2.285   4.112   5.548  0.5369 -0.3533  0.0294
15135TIP3    H266897   2.313   3.999   5.645  0.8030  0.8973  1.4572
15136TIP3   OH266898   2.964   5.869  16.438  0.2295  0.3441 -0.8828
15136TIP3    H166899   2.938   5.831  16.521  2.7788 -1.7201 -0.9081
15136TIP3    H266900   2.983   5.960  16.458 -1.5659  0.5322  0.1997
15137TIP3   OH266901   1.778   4.867   2.830  0.2795  0.4360  0.1092
15137TIP3    H166902   1.804   4.795   2.773 -1.3463 -0.5199  0.4918
15137TIP3    H266903   1.819   4.944   2.792  0.2610 -0.3630 -1.6339
15138TIP3   OH266904   5.069   1.319   0.535 -0.3357  0.2306 -0.0126
15138TIP3    H166905   5.098   1.392   0.591  0.6402 -2.0434  2.6993
15138TIP3    H266906   5.017   1.264   0.593 -0.0191 -1.8670 -1.6026
15139TIP3   OH266907   6.178   1.236  15.905  0.1826  0.1553 -0.1095
15139TIP3    H166908   6.266   1.198  15.907  0.4994  0.8789 -0.3083
15139TIP3    H266909   6.129   1.178  15.848 -0.2018 -1.8065  2.0511
15140TIP3   OH266910   4.609   1.535   4.955  0.0654 -0.6726 -0.1450
15140TIP3    H166911   4.574   1.581   4.879 -0.2984  0.5664  0.7463
15140TIP3    H266912   4.587   1.443   4.939  2.2021 -0.8489 -2.7332
15141TIP3   OH266913   6.284   3.933   4.747  0.1472 -0.2109  0.1641
15141TIP3    H166914   6.286   3.839   4.765  1.7396 -0.7166 -2.2453
15141TIP3    H266915   6.200   3.947   4.703  0.5393 -0.8332 -0.8182
15142TIP3   OH266916   5.699   2.375   1.798  0.3363 -0.1482  0.0859
15142TIP3    H166917   5.631   2.390   1.864 -1.7271 -0.3083 -1.8756
15142TIP3    H266918   5.757   2.309   1.837  0.7120  1.5570  2.6914
15143TIP3   OH266919   1.450   3.959   1.885  0.3222 -0.1135 -0.2714
15143TIP3    H166920   1.437   4.018   1.811  1.1127 -0.4074 -0.6485
15143TIP3    H266921   1.544   3.958   1.899  0.0648  2.2242  2.6185
15144TIP3   OH266922   4.532   2.187   3.541 -0.4085 -0.1132 -0.7446
15144TIP3    H166923   4.562   2.170   3.452 -0.1435 -0.9614 -0.5013
15144TIP3    H266924   4.602   2.153   3.597 -1.3456 -1.1891 -0.1873
15145TIP3   OH266925   3.907   6.202  16.511  0.4999 -0.2773  0.3388
15145TIP3    H166926   3.903   6.243  16.597  0.6918  0.1005  0.1701
15145TIP3    H266927   3.891   6.273  16.449  2.5062 -0.0728 -0.0411
15146TIP3   OH266928   1.914   4.614   3.066  0.2656  0.8297 -0.1105
15146TIP3    H166929   1.836   4.576   3.026  0.8519 -2.0106  1.1790
15146TIP3    H266930   1.978   4.543   3.065  1.6767  1.9743  1.9863
15147TIP3   OH266931   2.567   4.437  14.231 -0.1996 -0.0800 -1.0915
15147TIP3    H166932   2.495   4.499  14.217  1.3460  1.9261 -0.6768
15147TIP3    H266933   2.605   4.425  14.144 -0.3273 -0.1962 -1.1301
15148TIP3   OH266934   5.216   5.710   2.651 -0.4135 -0.2327  0.2618
15148TIP3    H166935   5.162   5.631   2.648 -0.2759 -0.3005 -2.3929
15148TIP3    H266936   5.306   5.678   2.646 -0.3396  0.0587 -0.3499
15149TIP3   OH266937   0.887   3.902   5.635 -0.9898  0.0236 -0.3505
15149TIP3    H166938   0.952   3.971   5.647  0.0109 -0.8137 -0.7885
15149TIP3    H266939   0.906   3.839   5.704 -0.3354 -0.9486 -1.3671
15150TIP3   OH266940   2.028   1.902   5.223 -0.1793  0.0978  0.1659
15150TIP3    H166941   2.020   1.812   5.256  2.2025 -0.9087 -1.6626
15150TIP3    H266942   2.119   1.926   5.241 -0.5967  1.9386  0.0418
15151TIP3   OH266943   0.066   3.393  15.911 -0.0143  0.0901 -0.0434
15151TIP3    H166944   0.120   3.429  15.982 -0.3567  3.3024 -1.2404
15151TIP3    H266945   0.127   3.342  15.858  1.0079  0.4867  0.7120
15152TIP3   OH266946   0.143   2.430  14.803 -0.2264 -0.9342 -0.0566
15152TIP3    H166947   0.074   2.382  14.848  0.5631 -2.4109 -0.3691
15152TIP3    H266948   0.185   2.366  14.746  1.3482 -0.0671  0.0534
15153TIP3   OH266949   2.196   0.368  12.867  0.2277  0.3057  0.1937
15153TIP3    H166950   2.109   0.385  12.832  1.0559 -0.9637 -2.8809
15153TIP3    H266951   2.182   0.311  12.942 -1.5634 -0.4170 -0.6397
15154TIP3   OH266952   2.727   5.783   3.844 -0.4837 -0.4451 -0.4496
15154TIP3    H166953   2.797   5.847   3.830 -2.4574  2.7419  2.6180
15154TIP3    H266954   2.692   5.765   3.757  2.3488 -0.1358 -1.7701
15155TIP3   OH266955   3.425   1.235   4.384 -0.0411  0.2064 -0.1640
15155TIP3    H166956   3.486   1.169   4.351 -0.1507  0.4551 -0.8826
15155TIP3    H266957   3.472   1.318   4.375  0.3613  0.1624  1.3939
15156TIP3   OH266958   0.725   0.361   1.629  0.5786  0.7469  0.1569
15156TIP3    H166959   0.694   0.277   1.595  0.5798  0.8264 -0.0379
15156TIP3    H266960   0.664   0.382   1.700  0.8779  0.3315  0.5469
15157TIP3   OH266961   4.075   0.358  15.629 -0.2477  0.0941  0.0633
15157TIP3    H166962   3.994   0.394  15.665  0.1073  2.1669 -1.0713
15157TIP3    H266963   4.045   0.299  15.558 -0.8097  2.0190 -1.3943
15158TIP3   OH266964   1.859   2.481   2.799 -0.3279  0.7988 -0.0652
15158TIP3    H166965   1.920   2.459   2.869 -0.2826 -0.4019 -0.4562
15158TIP3    H266966   1.911   2.530   2.736  0.1798  0.0345 -0.2584
15159TIP3   OH266967   0.864   4.955  16.155 -0.9559 -0.2847  0.4053
15159TIP3    H166968   0.770   4.962  16.171 -0.7355  0.8953  1.3607
15159TIP3    H266969   0.877   4.991  16.067 -1.1931  1.3849  1.0206
15160TIP3   OH266970   5.437   2.424  15.788  0.2731 -0.1385  0.2592
15160TIP3    H166971   5.421   2.337  15.751 -0.2639  0.4196 -0.8549
15160TIP3    H266972   5.531   2.426  15.805  0.6104 -0.3082 -1.4005
15161TIP3   OH266973   0.468   0.560  13.142 -0.1120  0.0198 -0.3309
15161TIP3    H166974   0.409   0.507  13.089 -0.9025 -0.7598  1.2405
15161TIP3    H266975   0.536   0.500  13.171 -0.8056 -0.0896  1.1566
15162TIP3   OH266976   2.370   5.087   0.177  0.0631 -0.1157 -0.6218
15162TIP3    H166977   2.440   5.127   0.126  1.9943 -2.0423  0.3549
15162TIP3    H266978   2.347   5.154   0.242 -0.7626  1.4478 -2.4416
15163TIP3   OH266979   1.047   4.148   5.320 -0.2114  0.0299 -0.3216
15163TIP3    H166980   1.084   4.199   5.248 -0.6289  0.7684 -0.0228
15163TIP3    H266981   0.955   4.173   5.323  0.0317  0.8673  1.1751
15164TIP3   OH266982   2.477   4.044   4.347  0.2503 -0.2089  0.0899
15164TIP3    H166983   2.406   4.089   4.300  0.8062 -0.9354 -1.5029
15164TIP3    H266984   2.557   4.088   4.317  0.5641 -0.0812  1.0804
15165TIP3   OH266985   3.266   2.238  13.191 -0.0100  0.0742  0.6664
15165TIP3    H166986   3.206   2.301  13.232 -2.9476 -1.6754 -0.6459
15165TIP3    H266987   3.310   2.288  13.123 -1.3147  1.0489  0.4992
15166TIP3   OH266988   6.014   5.580  15.187 -0.4415  0.3254 -0.3280
15166TIP3    H166989   5.951   5.637  15.143  1.3406  1.8801 -1.0047
15166TIP3    H266990   6.010   5.607  15.279  0.1909  1.4171 -0.5965
15167TIP3   OH266991   2.928   1.771  16.292  0.4205 -0.6674 -0.1512
15167TIP3    H166992   2.997   1.738  16.350  0.7744 -1.1594 -0.8411
15167TIP3    H266993   2.847   1.736  16.329  0.5939 -0.5212  0.3648
15168TIP3   OH266994   6.152   4.332  14.059 -0.2775 -0.4575  0.0517
15168TIP3    H166995   6.192   4.417  14.080 -0.2587 -0.1433 -1.1771
15168TIP3    H266996   6.203   4.269  14.111  0.3988  0.1673  0.1720
15169TIP3   OH266997   0.325   0.632   2.834 -0.0470 -0.0379 -0.0477
15169TIP3    H166998   0.408   0.678   2.843 -0.3866  0.7303 -0.7121
15169TIP3    H266999   0.270   0.670   2.903 -0.3340  0.5688 -0.6093
15170TIP3   OH267000   3.342   4.633   0.001 -0.1995  0.0657  0.7894
15170TIP3    H167001   3.348   4.727  -0.009  2.4716 -0.3059 -3.0072
15170TIP3    H267002   3.415   4.609   0.057 -0.1627  0.1498  0.7766
15171TIP3   OH267003   3.073   0.217  16.176  0.7461 -0.2529 -0.1649
15171TIP3    H167004   3.076   0.307  16.144 -1.7840 -0.8201 -2.3505
15171TIP3    H267005   3.164   0.192  16.185  1.5410  2.4092  0.2446
15172TIP3   OH267006   2.716   0.549   3.411 -0.3696  0.4824  0.2379
15172TIP3    H167007   2.700   0.579   3.501 -1.9609 -0.4151  0.3026
15172TIP3    H267008   2.700   0.626   3.357 -1.7580  0.4719  0.5891
15173TIP3   OH267009   0.704   1.707   1.227 -0.0516 -0.6652 -0.2650
15173TIP3    H167010   0.728   1.690   1.136  0.6381 -2.3850  0.2037
15173TIP3    H267011   0.609   1.723   1.223  0.1548  0.4707 -1.4060
15174TIP3   OH267012   5.794   4.610  12.736  0.2534 -0.4179 -0.2878
15174TIP3    H167013   5.699   4.600  12.730 -0.5224  4.3239  0.3675
15174TIP3    H267014   5.814   4.591  12.828 -0.0281 -1.2765 -0.3902
15175TIP3   OH267015   5.440   2.263   5.258 -0.1852  0.0330  0.1256
15175TIP3    H167016   5.490   2.335   5.298 -0.1092  0.8850 -1.3889
15175TIP3    H267017   5.363   2.306   5.220 -0.1951 -0.6871 -0.7127
15176TIP3   OH267018   5.376   1.978   1.707  0.5493 -0.0341  0.1921
15176TIP3    H167019   5.470   1.974   1.691  0.6599  0.3215  0.7368
15176TIP3    H267020   5.356   2.071   1.710  0.1563 -0.1090 -0.0415
15177TIP3   OH267021   2.249   6.576  15.056 -0.1299  0.0937 -0.1113
15177TIP3    H167022   2.247   6.663  15.093  1.2472  0.1215 -0.0370
15177TIP3    H267023   2.326   6.534  15.096 -0.9705 -1.2802  0.1384
15178TIP3   OH267024   4.859   3.714   4.560  0.7795 -0.1462 -0.4062
15178TIP3    H167025   4.850   3.628   4.518  0.9836 -0.2202 -0.2958
15178TIP3    H267026   4.769   3.742   4.575  0.6463  0.4921 -2.1540
15179TIP3   OH267027   3.585   5.847   4.629  0.3293 -0.3920 -0.5594
15179TIP3    H167028   3.495   5.879   4.619  0.9629  1.2113 -1.3784
15179TIP3    H267029   3.581   5.755   4.601 -0.9647 -0.2142 -1.0173
15180TIP3   OH267030   3.017   3.083   2.912 -0.2477  0.5094  0.1176
15180TIP3    H167031   3.105   3.120   2.905 -0.4159  0.6445 -1.8442
15180TIP3    H267032   3.010   3.055   3.003  1.9113  0.2788  0.2675
15181TIP3   OH267033   1.144   3.141  12.374  0.1761  0.3744 -0.1270
15181TIP3    H167034   1.062   3.187  12.353  0.6449  1.2555 -0.0727
15181TIP3    H267035   1.176   3.110  12.290  0.6629  1.5413 -0.3874
15182TIP3   OH267036   2.505   3.876   5.658 -0.1765  0.3178  0.0798
15182TIP3    H167037   2.548   3.898   5.741 -1.6811  0.6738  0.7907
15182TIP3    H267038   2.529   3.784   5.642  1.4409  0.7151  0.0484
15183TIP3   OH267039   6.743   3.164   4.876 -0.6763  0.0892 -0.3047
15183TIP3    H167040   6.662   3.121   4.850 -0.3764 -0.4173 -0.4005
15183TIP3    H267041   6.808   3.094   4.880 -0.2472  0.4879 -0.2062
15184TIP3   OH267042   5.479   2.852   4.322  0.2852 -0.6032  0.2385
15184TIP3    H167043   5.551   2.901   4.362 -0.6474 -0.3789  1.6973
15184TIP3    H267044   5.443   2.911   4.256  0.1178  0.1125  0.9572
15185TIP3   OH267045   1.207   0.789  14.208 -0.4270 -0.1512  0.0972
15185TIP3    H167046   1.145   0.783  14.135  1.6156 -0.5270 -1.7314
15185TIP3    H267047   1.200   0.879  14.238 -0.8026  0.2333 -1.0817
15186TIP3   OH267048   0.701   3.857   0.936  0.4890  0.0949 -0.0327
15186TIP3    H167049   0.662   3.911   1.005  2.9066  2.8141 -0.6004
15186TIP3    H267050   0.682   3.903   0.855  0.7655 -1.1261 -0.8307
15187TIP3   OH267051   0.811   5.355  16.966 -0.1978  0.3844 -0.2077
15187TIP3    H167052   0.728   5.403  16.972 -1.2751 -1.4950  0.9605
15187TIP3    H267053   0.794   5.286  16.902  0.4410 -0.0621  0.0970
15188TIP3   OH267054   6.387   0.189   1.784 -0.0908  0.5844  0.6526
15188TIP3    H167055   6.333   0.181   1.863  0.8918 -0.6317  1.2487
15188TIP3    H267056   6.355   0.267   1.740 -2.6319 -0.3354  0.7291
15189TIP3   OH267057   3.052   5.430   3.681 -0.4560  0.3030  0.7426
15189TIP3    H167058   2.990   5.471   3.620 -1.2898  0.7774  1.8751
15189TIP3    H267059   3.074   5.499   3.743 -1.5366 -0.8048  2.4296
15190TIP3   OH267060   0.888   3.018  16.828 -0.2093  0.3328  0.3636
15190TIP3    H167061   0.867   2.939  16.777 -1.1560  1.8823 -1.8225
15190TIP3    H267062   0.815   3.028  16.888 -0.7773  0.2620 -0.3028
15191TIP3   OH267063   4.932   4.992  13.453 -0.0699 -0.5445  0.5604
15191TIP3    H167064   4.871   5.033  13.392 -0.5537  2.1265  2.6155
15191TIP3    H267065   4.878   4.930  13.503 -0.3659 -0.4759  0.3269
15192TIP3   OH267066   1.504   0.492  17.505  0.3459 -0.0043 -0.6072
15192TIP3    H167067   1.565   0.564  17.496  0.9815 -0.5147 -0.4630
15192TIP3    H267068   1.548   0.417  17.464 -1.0533  0.0801 -2.3872
15193TIP3   OH267069   4.369   6.090  16.015 -0.2759 -0.5423 -0.0597
15193TIP3    H167070   4.334   6.175  16.040  0.8131 -0.2307  0.4525
15193TIP3    H267071   4.306   6.056  15.951 -0.2367  1.0673 -1.0117
15194TIP3   OH267072   5.228   5.390  16.870 -0.0154  0.2160 -0.7707
15194TIP3    H167073   5.289   5.462  16.880  0.4592 -0.2569 -0.1859
15194TIP3    H267074   5.275   5.325  16.818 -0.1189 -0.0277 -0.5633
15195TIP3   OH267075   1.522   1.490  14.672 -0.1073  0.1514  0.1026
15195TIP3    H167076   1.580   1.430  14.719 -0.0379  0.2577  0.1520
15195TIP3    H267077   1.580   1.539  14.614  0.4059  2.6923  2.5514
15196TIP3   OH267078   4.327   2.814   1.320 -0.3679  0.5836  0.7049
15196TIP3    H167079   4.281   2.891   1.286  0.0074  0.2194 -0.6845
15196TIP3    H267080   4.351   2.764   1.242  1.8259  0.4269  1.4148
15197TIP3   OH267081   4.994   2.572   5.305 -0.4226  0.9989 -0.0920
15197TIP3    H167082   5.014   2.561   5.212 -1.3563 -0.2152 -0.1710
15197TIP3    H267083   5.024   2.661   5.325 -0.2498  1.3045 -1.5642
15198TIP3   OH267084   1.422   5.062   5.811 -0.4463 -0.0955 -0.4701
15198TIP3    H167085   1.455   5.117   5.881  0.2671  0.6218 -1.3493
15198TIP3    H267086   1.327   5.062   5.823 -0.2705 -0.7598  1.0452
15199TIP3   OH267087   2.784   5.182  12.926 -0.2407 -0.3070 -0.7805
15199TIP3    H167088   2.826   5.181  12.841 -0.2899 -0.1447 -0.8070
15199TIP3    H267089   2.855   5.190  12.989 -0.2543  0.4012 -0.8447
15200TIP3   OH267090   4.306   3.209   2.397  0.0314 -0.4728  0.0250
15200TIP3    H167091   4.282   3.164   2.315 -1.7129  1.0002 -0.3414
15200TIP3    H267092   4.325   3.298   2.370  3.5824 -0.8911  0.7279
15201TIP3   OH267093   4.487   3.377   6.545 -0.5143  0.6841  0.0559
15201TIP3    H167094   4.497   3.286   6.573 -1.8700 -0.0944 -1.8112
15201TIP3    H267095   4.393   3.386   6.526 -0.8719  3.1537  2.3336
15202TIP3   OH267096   1.130   4.280   5.091  0.5727 -0.1364 -0.2044
15202TIP3    H167097   1.188   4.262   5.017  0.1630  0.9560 -0.8262
15202TIP3    H267098   1.054   4.324   5.051  0.3191  0.4118  0.8599
15203TIP3   OH267099   3.968   4.389   3.730  0.4796 -0.0515  0.3943
15203TIP3    H167100   3.961   4.312   3.786  0.0972 -0.8567 -0.7297
15203TIP3    H267101   3.895   4.381   3.668  1.0939  0.6201 -0.4439
15204TIP3   OH267102   6.073   6.584  13.704 -0.0772  0.2855  0.0248
15204TIP3    H167103   6.119   6.667  13.690  0.5782 -0.0132  0.3705
15204TIP3    H267104   6.087   6.535  13.622  0.7289 -0.0338  0.3386
15205TIP3   OH267105   4.885   4.044  16.158  0.7714  0.1770  1.0413
15205TIP3    H167106   4.908   3.956  16.129  0.5310  0.9900 -2.0234
15205TIP3    H267107   4.967   4.094  16.149  0.2804  0.8393  0.0018
15206TIP3   OH267108   1.775   3.620   1.352  0.1640 -0.7355  0.4640
15206TIP3    H167109   1.788   3.714   1.357 -0.0112 -0.6159 -0.9020
15206TIP3    H267110   1.680   3.609   1.355 -0.0597 -0.5629 -2.5935
15207TIP3   OH267111   0.075   2.880   4.878 -0.7413  0.7566 -0.2473
15207TIP3    H167112  -0.016   2.867   4.854 -0.8068 -3.5439  1.5342
15207TIP3    H267113   0.077   2.866   4.973  1.9108 -0.7063 -0.4303
15208TIP3   OH267114   0.808   0.451   5.438 -0.1401 -0.1724  0.1590
15208TIP3    H167115   0.806   0.357   5.454  3.5705 -0.8502 -2.1288
15208TIP3    H267116   0.850   0.488   5.515 -0.1834 -0.6232  0.3995
15209TIP3   OH267117   6.630   0.335  16.090 -0.0751  0.0727 -0.5270
15209TIP3    H167118   6.555   0.279  16.110 -2.2195  2.7454 -0.3815
15209TIP3    H267119   6.646   0.321  15.997  0.6510 -2.0452 -0.1260
15210TIP3   OH267120   6.199   0.467   2.849 -0.0781  0.4056  0.1567
15210TIP3    H167121   6.188   0.430   2.761  0.5350 -0.5350  0.4618
15210TIP3    H267122   6.270   0.530   2.839  1.7226 -1.4606  0.4369
15211TIP3   OH267123   3.911   3.712   1.886  0.0227 -0.5818 -0.0378
15211TIP3    H167124   3.964   3.788   1.860 -0.0990 -0.8166 -1.0277
15211TIP3    H267125   3.952   3.638   1.841 -1.4176 -0.6914 -1.2582
15212TIP3   OH267126   1.922   4.309   5.891 -0.2434 -0.1269  0.2094
15212TIP3    H167127   1.847   4.258   5.860 -0.3577  0.3128 -0.2662
15212TIP3    H267128   1.886   4.397   5.907  0.5673  0.7586 -2.2315
15213TIP3   OH267129   3.030   4.181  11.564  0.3000 -0.1827  0.5978
15213TIP3    H167130   3.067   4.123  11.497 -0.3073  1.7759 -1.6170
15213TIP3    H267131   3.095   4.251  11.573 -0.9943  1.2092 -0.3654
15214TIP3   OH267132   0.419   5.148   0.045  0.9060 -0.3323 -0.5969
15214TIP3    H167133   0.497   5.153  -0.011  0.6193  1.2512 -0.8994
15214TIP3    H267134   0.445   5.188   0.128 -0.1059  2.1842 -1.3909
15215TIP3   OH267135   6.136   2.566  14.140 -0.2344  0.4009  0.1453
15215TIP3    H167136   6.220   2.524  14.157  0.8268  2.1314 -0.5618
15215TIP3    H267137   6.076   2.494  14.121  1.2010 -0.8442  0.1909
15216TIP3   OH267138   1.895   5.840  15.474  0.3363 -0.0672 -0.0603
15216TIP3    H167139   1.842   5.920  15.474  2.4777  1.4590  1.2933
15216TIP3    H267140   1.839   5.774  15.433 -3.3528  0.8726  2.8846
15217TIP3   OH267141   4.576   4.368  13.904  0.0039  0.1227 -0.1994
15217TIP3    H167142   4.584   4.277  13.930 -1.9468 -0.1731 -0.4951
15217TIP3    H267143   4.495   4.399  13.944  0.0794  1.4199 -0.9562
15218TIP3   OH267144   3.518   0.656   3.165 -0.3459  0.0689  0.4437
15218TIP3    H167145   3.490   0.647   3.256 -1.0710 -0.6569  0.1612
15218TIP3    H267146   3.514   0.568   3.129  0.0046  0.3321 -0.2815
15219TIP3   OH267147   3.462   3.018  17.261  0.2254  0.4956  0.1614
15219TIP3    H167148   3.443   2.969  17.180  0.2293  0.1674  0.3548
15219TIP3    H267149   3.508   3.097  17.231  1.5157 -0.3026 -0.0590
15220TIP3   OH267150   3.233   0.320  16.450 -0.1884  0.4134 -0.3547
15220TIP3    H167151   3.158   0.353  16.399 -1.0084  0.1940  0.6908
15220TIP3    H267152   3.223   0.225  16.449 -1.7944  0.4527  2.4648
15221TIP3   OH267153   5.339   2.139   5.481 -0.0898  0.2581  0.4128
15221TIP3    H167154   5.367   2.148   5.390 -0.7969 -1.4338 -0.0167
15221TIP3    H267155   5.416   2.160   5.533  1.4041 -2.2064 -0.6771
15222TIP3   OH267156   1.657   2.405  17.288 -0.0958 -0.3541 -0.1996
15222TIP3    H167157   1.679   2.343  17.358  0.0410 -1.2635 -1.0230
15222TIP3    H267158   1.569   2.380  17.260  0.2047 -0.5897 -0.9613
15223TIP3   OH267159   0.840   5.329   4.159  0.3819  0.1824  0.2288
15223TIP3    H167160   0.895   5.253   4.138  1.1163  0.4948  0.9883
15223TIP3    H267161   0.810   5.313   4.249  0.9882  1.0443  0.5963
15224TIP3   OH267162   0.929   2.039  13.990  0.0990  0.9312 -0.2067
15224TIP3    H167163   0.966   2.065  13.906  1.4197  0.5300  0.2291
15224TIP3    H267164   0.870   1.967  13.968 -0.1022  1.2842 -0.8620
15225TIP3   OH267165   0.370   2.914  13.171  0.0402 -0.1684 -0.3848
15225TIP3    H167166   0.349   2.833  13.218  0.1594 -1.6697 -2.7931
15225TIP3    H267167   0.366   2.890  13.079  0.1141  2.5913 -1.1839
15226TIP3   OH267168   6.530   1.299  13.873  0.0706 -0.0020 -0.0141
15226TIP3    H167169   6.576   1.304  13.957  1.1018 -0.3032 -0.5510
15226TIP3    H267170   6.592   1.332  13.809 -1.0017  1.0081 -0.5782
15227TIP3   OH267171   1.457   2.367   0.917  0.0662 -0.3997  0.0853
15227TIP3    H167172   1.503   2.428   0.859  0.2526 -0.6552 -0.0411
15227TIP3    H267173   1.381   2.338   0.866  1.5783 -2.6115 -1.1133
15228TIP3   OH267174   3.093   3.151  17.512 -0.1538  0.2784 -0.1410
15228TIP3    H167175   3.096   3.202  17.594 -3.3828  2.0571 -0.9453
15228TIP3    H267176   3.031   3.081  17.529  1.9491 -1.6769 -0.0346
15229TIP3   OH267177   4.031   5.820   0.010 -0.2936 -0.0337  0.4308
15229TIP3    H167178   4.071   5.734   0.016 -0.3615 -0.1586 -0.6931
15229TIP3    H267179   4.053   5.863   0.092  1.7932 -0.2474  0.0265
15230TIP3   OH267180   4.883   0.625   2.236 -0.0864  0.5788 -0.0486
15230TIP3    H167181   4.969   0.661   2.258  0.2409 -0.2952  0.1736
15230TIP3    H267182   4.826   0.651   2.308 -0.2020  1.7935 -0.5597
15231TIP3   OH267183   1.688   0.426   0.775  0.0677  0.4343 -0.8810
15231TIP3    H167184   1.655   0.469   0.697 -0.4412  0.0345 -0.8884
15231TIP3    H267185   1.645   0.341   0.777 -0.7974  0.8661  0.4313
15232TIP3   OH267186   5.654   6.573  13.573  0.3176 -0.2568 -0.4148
15232TIP3    H167187   5.701   6.490  13.575  3.0221  1.0966 -2.0988
15232TIP3    H267188   5.678   6.617  13.655  0.0398 -0.5029 -0.1954
15233TIP3   OH267189   5.385   2.717   5.365  0.5062 -0.4177 -0.0044
15233TIP3    H167190   5.367   2.796   5.313  0.1967  0.5613  1.5301
15233TIP3    H267191   5.359   2.741   5.454  2.0189 -1.6809  0.8178
15234TIP3   OH267192   1.645   2.209   2.988 -0.0706 -0.9250 -0.2231
15234TIP3    H167193   1.735   2.199   2.955  0.2265  0.5696  0.0565
15234TIP3    H267194   1.590   2.202   2.910  0.5445  1.4028 -0.9345
15235TIP3   OH267195   6.711   0.613  10.658 -0.0236  0.2569  0.3007
15235TIP3    H167196   6.657   0.592  10.733  1.0086  2.3974  1.7415
15235TIP3    H267197   6.787   0.555  10.667  0.0048  0.3666  0.8011
15236TIP3   OH267198   5.796   4.063  14.336  0.1186 -0.4699  0.2872
15236TIP3    H167199   5.856   4.026  14.401  0.4588  0.2931  0.4259
15236TIP3    H267200   5.749   4.131  14.384 -0.5394 -0.7664  0.0610
15237TIP3   OH267201   1.111   6.586   0.737  0.2310 -0.8919 -0.2610
15237TIP3    H167202   1.050   6.525   0.694  0.6385 -1.4354 -0.0818
15237TIP3    H267203   1.124   6.548   0.824  1.4972 -1.2510 -0.5957
15238TIP3   OH267204   5.034   1.709   0.832  0.1930 -0.5511  0.5145
15238TIP3    H167205   4.938   1.712   0.826  0.2315  2.6294 -0.3942
15238TIP3    H267206   5.052   1.679   0.921 -1.6676 -0.3588  0.9966
15239TIP3   OH267207   6.699   1.202  10.800  0.7137 -0.3365  0.4155
15239TIP3    H167208   6.696   1.276  10.861 -0.2552 -0.0037 -0.0128
15239TIP3    H267209   6.771   1.223  10.741 -0.9419  1.4404 -1.1063
15240TIP3   OH267210   6.417   6.187   5.530  0.5407 -0.2181 -0.3050
15240TIP3    H167211   6.469   6.133   5.471  0.6644  0.2980 -0.6690
15240TIP3    H267212   6.481   6.243   5.574  0.3204  0.2285 -0.5549
15241TIP3   OH267213   1.889   1.835   6.362 -0.5970 -0.0990  0.8094
15241TIP3    H167214   1.913   1.743   6.369  1.5330  0.3407  0.0525
15241TIP3    H267215   1.845   1.842   6.277  0.9453 -0.1227 -0.0208
15242TIP3   OH267216   2.402   1.828   1.345 -0.7155  0.2296 -0.2897
15242TIP3    H167217   2.411   1.733   1.356 -0.3721  0.3116  0.2165
15242TIP3    H267218   2.492   1.859   1.332 -0.7503  0.5572  0.2073
15243TIP3   OH267219   2.096   5.305  14.395  0.2743  0.4770 -0.5899
15243TIP3    H167220   2.094   5.401  14.390 -0.4004  0.6747  2.0699
15243TIP3    H267221   2.188   5.284  14.410  0.0886  0.9611  1.4857
15244TIP3   OH267222   1.057   3.537   1.184 -0.2628 -0.2919  0.3461
15244TIP3    H167223   1.016   3.614   1.144 -0.8273  0.0649  1.5768
15244TIP3    H267224   1.065   3.474   1.112  0.3583  0.9663 -0.7126
15245TIP3   OH267225   1.805   0.268  13.826 -0.3371 -0.0905 -0.0325
15245TIP3    H167226   1.728   0.293  13.775 -0.3210  1.6797  0.7419
15245TIP3    H267227   1.848   0.351  13.846  1.5955 -1.0171 -0.1402
15246TIP3   OH267228   4.942   1.242   2.640 -0.4037 -0.4581  0.1913
15246TIP3    H167229   4.928   1.291   2.720 -2.0021  1.1804 -1.0068
15246TIP3    H267230   5.017   1.185   2.659  0.0671  0.7856  2.3893
15247TIP3   OH267231   3.935   0.864  15.846 -0.6304 -0.4125 -0.3627
15247TIP3    H167232   3.841   0.850  15.854 -0.5776 -0.2632  0.6727
15247TIP3    H267233   3.942   0.945  15.795 -1.0263 -1.0174 -1.4115
15248TIP3   OH267234   5.961   1.953   5.085 -0.2948  0.3242 -0.0193
15248TIP3    H167235   6.003   1.949   4.999 -1.1523  0.8696 -0.4696
15248TIP3    H267236   6.003   1.883   5.135  1.4508  1.0955 -0.3199
15249TIP3   OH267237   3.798   4.536   0.886 -0.0391 -0.3086  0.0983
15249TIP3    H167238   3.760   4.543   0.973 -0.7470  0.9930 -0.2884
15249TIP3    H267239   3.740   4.588   0.830 -0.8005 -2.7905 -1.5723
15250TIP3   OH267240   6.164   0.692  14.946 -0.5763  0.5557 -0.0497
15250TIP3    H167241   6.159   0.742  14.864 -1.8119  1.0885  0.3279
15250TIP3    H267242   6.161   0.759  15.015  0.2119  0.0946  0.4514
15251TIP3   OH267243   1.455   2.937   1.788 -0.0610  0.4404  0.0146
15251TIP3    H167244   1.460   2.848   1.824  0.6913  0.1953 -0.6727
15251TIP3    H267245   1.377   2.935   1.732  1.8463 -0.9074 -2.8380
15252TIP3   OH267246   2.650   5.005   0.785  0.2433 -0.1061 -0.6227
15252TIP3    H167247   2.723   4.957   0.825  0.3970  1.5001  1.1525
15252TIP3    H267248   2.638   5.082   0.841 -1.3903  0.8173 -2.1385
15253TIP3   OH267249   2.225   4.096   0.848 -0.0399  0.0173  0.5158
15253TIP3    H167250   2.161   4.054   0.905 -0.3552 -1.2484 -0.7098
15253TIP3    H267251   2.179   4.107   0.764  1.0967 -0.2091 -0.1519
15254TIP3   OH267252   5.165   1.915   6.243 -0.1872 -0.4805 -0.4606
15254TIP3    H167253   5.227   1.887   6.311  0.9002  1.0267 -0.7818
15254TIP3    H267254   5.099   1.966   6.291  0.2344  0.0614 -0.4578
15255TIP3   OH267255   6.040   5.230   3.917  0.1093 -0.3626  0.3851
15255TIP3    H167256   6.059   5.318   3.949 -1.0133  0.0943 -0.1747
15255TIP3    H267257   6.102   5.218   3.844 -2.1412  1.4788 -2.0322
15256TIP3   OH267258   0.619   4.784  12.596 -0.1351  0.2135 -0.2293
15256TIP3    H167259   0.633   4.877  12.611 -0.8599  0.5774 -1.6856
15256TIP3    H267260   0.706   4.745  12.605  0.2969  1.1313 -0.3317
15257TIP3   OH267261   4.512   4.363  15.323  0.2127  0.1364  0.2564
15257TIP3    H167262   4.481   4.293  15.265  2.1874 -0.1028 -0.5866
15257TIP3    H267263   4.535   4.434  15.263  2.1023 -0.0401  0.7162
15258TIP3   OH267264   1.652   5.056   0.373 -0.1384 -0.5021 -0.2961
15258TIP3    H167265   1.668   4.969   0.408 -1.7758 -0.3828  0.9104
15258TIP3    H267266   1.560   5.075   0.397 -0.5625  0.6159 -2.5385
15259TIP3   OH267267   6.426   1.870   4.229  0.3476  0.5374  0.4859
15259TIP3    H167268   6.348   1.924   4.240 -0.1883 -0.1508  0.1555
15259TIP3    H267269   6.449   1.844   4.318 -0.9326 -0.7961  0.4723
15260TIP3   OH267270   4.387   1.306   6.341 -0.4016  0.7568 -0.5758
15260TIP3    H167271   4.375   1.341   6.429  0.3951 -1.0404  0.2681
15260TIP3    H267272   4.332   1.363   6.286 -1.9602  1.1162  1.2398
15261TIP3   OH267273   1.545   4.700  16.374  0.5722  0.1058 -0.2948
15261TIP3    H167274   1.485   4.766  16.340  1.0728  0.3300 -0.7552
15261TIP3    H267275   1.540   4.628  16.310  1.3973  0.4639 -0.7820
15262TIP3   OH267276   4.183   5.516  12.826 -0.3112  0.0477  0.1018
15262TIP3    H167277   4.121   5.564  12.881 -0.5042  0.7001 -0.6576
15262TIP3    H267278   4.265   5.517  12.875 -0.3903  0.9217  0.2305
15263TIP3   OH267279   1.825   1.502  13.629 -0.2479  0.0118 -0.0631
15263TIP3    H167280   1.865   1.578  13.672  0.5010 -0.7786  0.6921
15263TIP3    H267281   1.751   1.538  13.580  0.1653  1.2388  0.1718
15264TIP3   OH267282   1.826   1.500  16.051  0.1038  0.2844  0.7940
15264TIP3    H167283   1.828   1.579  15.997  3.4640 -0.8133 -0.9453
15264TIP3    H267284   1.757   1.446  16.013  1.5633  0.0693 -1.7877
15265TIP3   OH267285   1.372   4.825  17.399 -0.2098  0.1336  0.0409
15265TIP3    H167286   1.441   4.869  17.448 -0.9304  1.3817 -0.0291
15265TIP3    H267287   1.396   4.837  17.307  0.2439 -0.7295  0.0347
15266TIP3   OH267288   2.968   5.530   4.264  0.2358  0.0290  0.2914
15266TIP3    H167289   2.889   5.509   4.214  0.1492 -0.8123  0.7776
15266TIP3    H267290   2.965   5.625   4.273 -0.3860  0.0690 -0.2437
15267TIP3   OH267291   1.271   0.302   2.884 -0.1060 -0.8144 -0.2213
15267TIP3    H167292   1.315   0.388   2.883  0.3928 -1.0433  0.6254
15267TIP3    H267293   1.205   0.308   2.814  0.5939 -0.1008 -0.8481
15268TIP3   OH267294   1.781   3.497  17.295 -0.5246 -0.5873 -0.2893
15268TIP3    H167295   1.825   3.563  17.349 -0.1661  0.2669 -1.5907
15268TIP3    H267296   1.819   3.414  17.325  0.7220 -0.0131 -0.1869
15269TIP3   OH267297   1.267   5.712  13.738 -0.5834 -0.6314  0.4088
15269TIP3    H167298   1.258   5.768  13.815  1.8284  0.3828  0.0242
15269TIP3    H267299   1.177   5.701  13.706 -1.1627  3.4020  0.2089
15270TIP3   OH267300   4.603   1.773  13.713 -0.7135  0.4207  0.0682
15270TIP3    H167301   4.656   1.695  13.698 -0.0684  0.9827 -0.6291
15270TIP3    H267302   4.662   1.835  13.755 -0.9445  0.8955 -0.3054
15271TIP3   OH267303   4.934   4.741   1.662 -0.2535  0.5081 -0.3684
15271TIP3    H167304   4.927   4.694   1.579 -0.3713  0.6238 -0.4252
15271TIP3    H267305   4.919   4.833   1.638 -1.5221  0.4067 -0.0413
15272TIP3   OH267306   5.371   2.140   1.966 -0.2623  0.5475  0.6088
15272TIP3    H167307   5.354   2.102   2.052 -2.5898 -1.6233 -0.6769
15272TIP3    H267308   5.388   2.065   1.909 -0.5358  1.7796 -1.1865
15273TIP3   OH267309   3.732   0.211   5.457  0.1247 -0.6695 -0.0376
15273TIP3    H167310   3.660   0.220   5.394  0.4594  2.1962 -0.1650
15273TIP3    H267311   3.807   0.182   5.405 -0.2372 -0.8898 -0.4457
15274TIP3   OH267312   1.926   1.472  13.207  0.3928  0.2463 -0.3486
15274TIP3    H167313   2.011   1.511  13.190  1.0624 -1.4261 -1.0097
15274TIP3    H267314   1.910   1.414  13.132 -1.1081  0.1550 -0.0046
15275TIP3   OH267315   5.584   3.024   3.235 -0.0851 -0.2751 -0.4158
15275TIP3    H167316   5.674   3.036   3.265 -0.8667  0.7327  1.7441
15275TIP3    H267317   5.580   2.932   3.209  0.8169 -1.2287  2.4188
15276TIP3   OH267318   1.678   5.102   5.345 -0.1281 -0.1031 -0.0040
15276TIP3    H167319   1.688   5.153   5.425 -2.9276 -0.1031  0.4288
15276TIP3    H267320   1.654   5.015   5.374 -2.3570  0.1911 -0.7973
15277TIP3   OH267321   6.380   4.712  17.211  0.3313  0.0422 -0.1510
15277TIP3    H167322   6.392   4.793  17.261 -0.7610  0.6325 -0.8031
15277TIP3    H267323   6.305   4.730  17.155  0.8817 -0.9775 -1.2464
15278TIP3   OH267324   5.884   1.235  11.717 -0.2345  0.5443 -0.3872
15278TIP3    H167325   5.973   1.266  11.735 -1.2950  3.8386  0.0186
15278TIP3    H267326   5.875   1.245  11.622 -0.3452  0.8103 -0.3498
15279TIP3   OH267327   2.133   4.916   4.553  0.2774  0.1096 -0.2625
15279TIP3    H167328   2.187   4.886   4.626  0.5398 -0.8431 -0.8278
15279TIP3    H267329   2.106   4.835   4.509  0.0983  0.6654 -1.1944
15280TIP3   OH267330   0.868   6.364   0.956  0.1488 -0.1741  0.2165
15280TIP3    H167331   0.828   6.410   1.030 -1.1415 -1.1821  0.1558
15280TIP3    H267332   0.795   6.341   0.899  1.1338  0.7217 -1.4898
15281TIP3   OH267333   0.505   4.249  12.077  0.1299  0.0472  0.5699
15281TIP3    H167334   0.502   4.190  12.153 -0.1454  0.4384  0.8675
15281TIP3    H267335   0.512   4.336  12.115 -2.7383  0.5074  0.2526
15282TIP3   OH267336   1.721   5.257  15.018 -0.0370 -0.5965  0.1675
15282TIP3    H167337   1.791   5.208  14.974  1.4351  1.8977 -0.4610
15282TIP3    H267338   1.687   5.316  14.951 -0.6159  0.3729  1.2771
15283TIP3   OH267339   3.528   3.779   3.574 -0.1722  0.1935  0.6740
15283TIP3    H167340   3.582   3.836   3.628  0.6544 -0.3956  0.4934
15283TIP3    H267341   3.465   3.838   3.532  0.9622  1.0452  0.1180
15284TIP3   OH267342   0.470   3.948   5.947 -0.3393  0.0491  0.1963
15284TIP3    H167343   0.515   3.941   6.031 -0.1050  2.5495  0.3505
15284TIP3    H267344   0.377   3.937   5.969 -0.1359 -1.5985  0.3894
15285TIP3   OH267345   0.613   6.113  14.151  0.0139  0.8207  0.6470
15285TIP3    H167346   0.531   6.115  14.103  0.1561  1.7543  0.4171
15285TIP3    H267347   0.611   6.030  14.199 -0.1012 -0.1728 -0.9937
15286TIP3   OH267348   1.935   3.683  14.569  0.1925  0.1087  0.3046
15286TIP3    H167349   1.975   3.619  14.628 -1.0468  0.5821  1.7161
15286TIP3    H267350   1.887   3.630  14.506 -1.6388 -0.4331  2.0455
15287TIP3   OH267351   6.755   6.137  14.348  0.0236 -0.0539 -0.1869
15287TIP3    H167352   6.838   6.098  14.320  0.4749  0.5576  0.2747
15287TIP3    H267353   6.699   6.131  14.271  0.5499 -0.3333 -0.5553
15288TIP3   OH267354   4.216   0.746  15.346 -0.4740  0.1757  0.1672
15288TIP3    H167355   4.136   0.744  15.293 -0.1588 -2.7075 -0.3663
15288TIP3    H267356   4.210   0.667  15.400  2.2573 -0.4125 -0.2764
15289TIP3   OH267357   2.090   4.068   4.279 -0.6140  0.0702 -0.1780
15289TIP3    H167358   2.021   4.110   4.227  0.8784  3.6501  0.4262
15289TIP3    H267359   2.058   4.075   4.369  0.5983  2.1718  0.1523
15290TIP3   OH267360   4.949   4.465  16.864 -0.5407  0.6461 -0.2911
15290TIP3    H167361   4.857   4.489  16.873 -0.6059 -0.2100  2.1029
15290TIP3    H267362   4.979   4.514  16.788 -2.6807  1.7998 -0.4799
15291TIP3   OH267363   3.454   4.922  13.542  0.0067 -0.2098 -0.3707
15291TIP3    H167364   3.375   4.966  13.575  0.0447 -0.5009  0.1226
15291TIP3    H267365   3.456   4.839  13.589 -0.5941 -1.1969 -2.0044
15292TIP3   OH267366   0.714   1.965  15.682 -0.5537 -0.5320 -0.2471
15292TIP3    H167367   0.773   1.895  15.712 -0.4110  0.0823  0.9703
15292TIP3    H267368   0.754   1.998  15.602  0.3992 -0.5792  0.1946
15293TIP3   OH267369   2.804   1.608  13.599 -0.0886 -0.5389  0.5627
15293TIP3    H167370   2.843   1.629  13.514 -0.2001  0.1323  0.6692
15293TIP3    H267371   2.715   1.581  13.578  0.0903 -1.0231  0.4125
15294TIP3   OH267372   2.947   4.766   4.548  0.0593  0.9678 -0.3874
15294TIP3    H167373   2.978   4.709   4.477  1.4247  0.6183  0.4375
15294TIP3    H267374   2.852   4.769   4.537 -0.1408 -1.8147 -0.2366
15295TIP3   OH267375   2.378   1.511   1.099  0.2907 -0.4853 -1.0142
15295TIP3    H167376   2.293   1.474   1.122 -0.3905  1.7724  0.4920
15295TIP3    H267377   2.357   1.588   1.046  1.2519  0.9161  0.5406
15296TIP3   OH267378   2.020   4.602  13.665  0.1778  0.1189 -0.2534
15296TIP3    H167379   1.961   4.549  13.719  0.2775 -0.0528 -0.3141
15296TIP3    H267380   2.079   4.643  13.728  0.0603  0.2078 -0.2012
15297TIP3   OH267381   5.827   2.299  15.626 -0.3931  0.1939  0.2270
15297TIP3    H167382   5.916   2.276  15.600 -0.9672 -1.8011 -0.1648
15297TIP3    H267383   5.809   2.243  15.702 -1.2545  0.6954  0.4079
15298TIP3   OH267384   0.640   2.823   3.552  0.3585  0.7032  0.3592
15298TIP3    H167385   0.626   2.917   3.542 -0.3551  0.7157  1.2873
15298TIP3    H267386   0.735   2.814   3.564  1.0346  0.8838 -3.6068
15299TIP3   OH267387   3.588   3.867  16.959  0.0492  0.7489 -0.3234
15299TIP3    H167388   3.608   3.788  17.008 -0.5931  0.4687 -0.4985
15299TIP3    H267389   3.658   3.874  16.894 -1.0817 -0.9552 -1.8290
15300TIP3   OH267390   1.404   3.933  14.039 -0.7684 -0.0296 -0.0454
15300TIP3    H167391   1.332   3.906  13.982 -1.5554  0.6031  0.6274
15300TIP3    H267392   1.428   4.020  14.007 -1.2954  0.3788  0.6492
15301TIP3   OH267393   3.855   5.333   6.439 -0.4742  0.4066  0.0493
15301TIP3    H167394   3.928   5.331   6.377 -1.2992  2.4338 -1.0868
15301TIP3    H267395   3.830   5.241   6.450  0.0983 -0.0759 -2.1644
15302TIP3   OH267396   6.626   4.430  11.579 -0.3837  0.1400  0.6103
15302TIP3    H167397   6.692   4.395  11.519  0.7987 -0.3710  2.1263
15302TIP3    H267398   6.580   4.353  11.612  0.2254  0.2314  1.7232
15303TIP3   OH267399   3.392   0.224   5.381  0.2774  0.3865  0.0913
15303TIP3    H167400   3.324   0.265   5.434  0.7970 -0.0203  1.1157
15303TIP3    H267401   3.371   0.131   5.384  0.3837  0.3499 -0.3155
15304TIP3   OH267402   6.194   0.045  12.022 -0.2550  0.1908  0.6322
15304TIP3    H167403   6.161  -0.011  12.093  2.5527 -0.7122  1.3696
15304TIP3    H267404   6.141   0.022  11.946 -1.8391 -0.4908  1.8871
15305TIP3   OH267405   3.165   3.616   2.393 -0.2271 -0.5878 -0.3898
15305TIP3    H167406   3.093   3.579   2.443 -0.0058  0.6602  0.9116
15305TIP3    H267407   3.122   3.662   2.320 -0.7900  0.2205  0.4202
15306TIP3   OH267408   4.118   4.299   5.364  0.1913 -0.1309  0.4717
15306TIP3    H167409   4.212   4.307   5.385 -0.0064 -2.6082  2.9829
15306TIP3    H267410   4.114   4.305   5.269  3.0337 -0.7285  0.2254
15307TIP3   OH267411   6.012   4.660   0.709 -0.1643  0.2819 -0.0033
15307TIP3    H167412   6.095   4.612   0.706  0.2426  0.9586  0.2956
15307TIP3    H267413   5.949   4.596   0.742  0.1114 -0.4083 -0.7764
15308TIP3   OH267414   5.710   3.227   5.686  0.1249  0.0924 -0.4294
15308TIP3    H167415   5.730   3.152   5.630 -3.0803  0.4324 -2.2633
15308TIP3    H267416   5.733   3.303   5.632 -0.7699  0.4175 -0.3664
15309TIP3   OH267417   0.162   3.670   1.723 -0.2168  0.1851 -0.8882
15309TIP3    H167418   0.190   3.733   1.790  1.3754  0.8583 -2.1153
15309TIP3    H267419   0.135   3.724   1.649 -0.1898 -0.5528 -1.4518
15310TIP3   OH267420   1.803   0.134  14.071  0.2268 -0.4522 -0.1153
15310TIP3    H167421   1.737   0.065  14.057 -0.9078  0.0045  2.3713
15310TIP3    H267422   1.831   0.159  13.983 -3.6986  0.0035 -1.4528
15311TIP3   OH267423   2.908   3.147   5.192 -0.1780 -0.3643  0.5748
15311TIP3    H167424   2.851   3.168   5.118 -0.2472  0.3307  0.8276
15311TIP3    H267425   2.939   3.058   5.173  0.9688  0.3308 -1.0583
15312TIP3   OH267426   0.555   5.556   5.952  0.4301 -0.3653 -0.1456
15312TIP3    H167427   0.577   5.483   6.009  2.1611  1.1266  1.2011
15312TIP3    H267428   0.544   5.630   6.011 -1.4383  0.4818 -1.4583
15313TIP3   OH267429   1.221   4.961  12.576 -0.5760  0.1291 -0.3517
15313TIP3    H167430   1.186   4.874  12.561 -0.1031  0.1436 -1.5991
15313TIP3    H267431   1.261   4.956  12.663 -0.3206 -0.9638 -0.5243
15314TIP3   OH267432   6.213   2.623  17.033  0.4462  0.5067 -0.3639
15314TIP3    H167433   6.152   2.569  17.084  2.5180 -3.6057 -1.7449
15314TIP3    H267434   6.231   2.699  17.089 -1.3227 -1.1123  2.6738
15315TIP3   OH267435   5.938   1.951   3.033  0.6605  0.3225  0.0810
15315TIP3    H167436   5.931   2.032   3.083 -4.6224  0.6779 -0.6016
15315TIP3    H267437   5.958   1.979   2.944 -0.8644  0.9862 -0.0936
15316TIP3   OH267438   1.469   4.883  12.161 -0.2129  0.2890 -0.0861
15316TIP3    H167439   1.431   4.940  12.094  0.0191 -0.5091 -0.9059
15316TIP3    H267440   1.448   4.794  12.132 -0.4208 -0.0592  1.0892
15317TIP3   OH267441   2.858   2.765   2.525 -0.2623  0.3801  0.8556
15317TIP3    H167442   2.883   2.740   2.614  2.4786  2.5916  0.8513
15317TIP3    H267443   2.879   2.689   2.472  1.8822  0.3728  1.6204
15318TIP3   OH267444   3.191   2.702  14.127 -0.0765  0.5425 -0.0284
15318TIP3    H167445   3.139   2.711  14.047  0.3652 -1.7583 -0.6415
15318TIP3    H267446   3.130   2.726  14.197 -1.4718 -0.3974 -0.8607
15319TIP3   OH267447   4.465   4.896   0.690  0.2592  0.1019 -0.0427
15319TIP3    H167448   4.375   4.862   0.685  0.6586 -0.9707 -0.1084
15319TIP3    H267449   4.520   4.822   0.666  1.1377  0.9510 -0.6861
15320TIP3   OH267450   2.932   0.523   2.271 -0.2061 -0.1519  0.2012
15320TIP3    H167451   2.837   0.511   2.264 -0.3429 -0.2693  1.8281
15320TIP3    H267452   2.952   0.592   2.208 -1.1592 -1.0027 -1.0959
15321TIP3   OH267453   6.212   5.331  13.217 -0.9919  0.3429  0.0485
15321TIP3    H167454   6.289   5.388  13.214 -0.9461  0.3832  1.2897
15321TIP3    H267455   6.225   5.269  13.145  0.4972  0.0055  0.5630
15322TIP3   OH267456   3.201   5.438   3.397  0.1432  0.1582  0.3900
15322TIP3    H167457   3.145   5.364   3.373  0.3234  0.4875 -1.2198
15322TIP3    H267458   3.257   5.403   3.466  0.1869 -1.2278 -0.2874
15323TIP3   OH267459   1.653   5.683  15.410  0.2154  0.7263  0.1983
15323TIP3    H167460   1.585   5.691  15.344  0.1106 -1.4967 -0.0477
15323TIP3    H267461   1.622   5.735  15.484 -1.7362 -0.1314  0.0429
15324TIP3   OH267462   3.745   0.576  11.879 -0.5435 -0.6179  0.2238
15324TIP3    H167463   3.767   0.666  11.903 -0.0255 -0.1327 -1.8105
15324TIP3    H267464   3.744   0.577  11.783  1.5697 -3.2185  0.0381
15325TIP3   OH267465   2.186   1.185   5.634 -0.0686 -0.0851  0.8137
15325TIP3    H167466   2.131   1.217   5.706 -0.5062 -0.0418  0.4661
15325TIP3    H267467   2.123   1.152   5.569  0.3474 -1.2060  0.9494
15326TIP3   OH267468   0.719   1.944  12.747 -0.5649  0.1436 -0.1865
15326TIP3    H167469   0.808   1.948  12.713 -0.4470  2.5495  0.2098
15326TIP3    H267470   0.663   1.947  12.670 -0.3022 -0.4381 -0.3994
15327TIP3   OH267471   6.715   1.361  11.407  0.4879 -0.1935 -0.3789
15327TIP3    H167472   6.767   1.344  11.328 -0.1979 -0.0987 -0.8600
15327TIP3    H267473   6.662   1.437  11.385  1.5493  0.9390  0.7986
15328TIP3   OH267474   5.818   3.776   1.581  0.0490 -0.3559  0.0076
15328TIP3    H167475   5.730   3.745   1.604 -0.3376  0.5032 -0.2659
15328TIP3    H267476   5.831   3.747   1.491 -0.0218 -0.3605 -0.0013
15329TIP3   OH267477   3.731   6.049  10.978 -0.2255  0.1810  0.3987
15329TIP3    H167478   3.809   6.016  10.933 -2.0483 -1.2163 -2.0407
15329TIP3    H267479   3.718   5.988  11.051 -0.8727 -1.8080 -1.2530
15330TIP3   OH267480   2.550   6.688   1.001  0.6874  0.3049 -0.5009
15330TIP3    H167481   2.562   6.778   1.032 -3.3918  0.7231  0.5050
15330TIP3    H267482   2.483   6.695   0.933  0.1705 -1.9348 -0.3139
15331TIP3   OH267483   3.342   1.692   1.989  0.8191  0.7271 -0.7996
15331TIP3    H167484   3.279   1.717   2.057 -0.5247 -1.1865 -1.2315
15331TIP3    H267485   3.423   1.674   2.037  0.0107 -0.2066  0.2768
15332TIP3   OH267486   5.166   3.695   5.319 -0.5061 -0.1571 -0.0811
15332TIP3    H167487   5.088   3.680   5.372  0.7712 -1.5847  1.5046
15332TIP3    H267488   5.171   3.619   5.261 -0.5019  0.1466 -0.4887
15333TIP3   OH267489   2.731   0.544  16.427 -1.1821 -0.2482  0.0456
15333TIP3    H167490   2.817   0.508  16.406 -0.8857  1.5045 -1.9879
15333TIP3    H267491   2.749   0.620  16.483 -1.2250  1.1604 -1.7842
15334TIP3   OH267492   5.543   0.609   3.685 -0.1147  0.0150  0.3896
15334TIP3    H167493   5.628   0.653   3.685  0.2247 -0.6141 -0.4090
15334TIP3    H267494   5.532   0.578   3.595 -0.6088 -1.0153  0.7829
15335TIP3   OH267495   1.838   1.305  12.214  0.0138  0.3197 -0.1141
15335TIP3    H167496   1.882   1.235  12.167 -0.3692  1.2616 -1.9596
15335TIP3    H267497   1.745   1.282  12.211  0.0051  0.2659  0.4229
15336TIP3   OH267498   1.345   5.628   4.422  0.0911 -0.1661  0.0649
15336TIP3    H167499   1.371   5.538   4.444  0.7339  0.0543  0.2339
15336TIP3    H267500   1.362   5.678   4.501 -3.7138 -0.5186  1.2566
15337TIP3   OH267501   0.844   2.680  11.265  0.5110 -0.4457  0.2436
15337TIP3    H167502   0.773   2.738  11.237  0.5371 -0.7057 -0.3734
15337TIP3    H267503   0.799   2.603  11.300  0.4814 -0.3025  0.5200
15338TIP3   OH267504   5.102   0.892   0.546 -0.1133  0.4561 -0.4607
15338TIP3    H167505   5.112   0.929   0.458  2.7957 -0.5789 -0.6906
15338TIP3    H267506   5.166   0.939   0.599 -0.5935 -0.1330  0.6771
15339TIP3   OH267507   6.498   4.761  15.279  0.5804  0.1735  0.1236
15339TIP3    H167508   6.564   4.738  15.214  0.2294  2.7185 -1.2596
15339TIP3    H267509   6.433   4.811  15.230  0.1090  1.9023  2.3508
15340TIP3   OH267510   1.480   4.701   2.931 -0.0159 -0.5069  0.0187
15340TIP3    H167511   1.457   4.689   2.839 -1.2822 -0.7948  0.3458
15340TIP3    H267512   1.395   4.708   2.976  0.5755 -0.5679  1.1819
15341TIP3   OH267513   2.425   5.668   3.973 -0.4315 -0.4393  0.0848
15341TIP3    H167514   2.410   5.711   3.888 -0.3593  2.2732  1.3385
15341TIP3    H267515   2.339   5.667   4.015 -0.3371 -1.1519  0.2819
15342TIP3   OH267516   2.166   1.284  15.429 -0.3871 -0.0313 -0.2664
15342TIP3    H167517   2.205   1.363  15.391 -1.4270  0.2317 -0.8050
15342TIP3    H267518   2.234   1.250  15.488  0.4546  0.7030 -0.7893
15343TIP3   OH267519   1.497   6.030  13.516  0.2503 -0.0107  0.4148
15343TIP3    H167520   1.557   6.079  13.573  0.1478 -0.0383  0.5472
15343TIP3    H267521   1.470   6.094  13.450  0.5751 -0.0514  0.2421
15344TIP3   OH267522   4.894   3.813  11.581  0.3726  0.1691  0.0580
15344TIP3    H167523   4.821   3.864  11.545  1.4224  1.1589 -0.7333
15344TIP3    H267524   4.884   3.727  11.542  0.2596  0.6257 -0.9555
15345TIP3   OH267525   0.654   3.524  11.314  0.5691  0.4888 -0.2572
15345TIP3    H167526   0.675   3.436  11.283  1.1141  0.3123  0.5898
15345TIP3    H267527   0.622   3.570  11.236  1.2114 -0.1588 -0.9162
15346TIP3   OH267528   0.728   4.997  12.386  0.1695  0.4488 -0.0311
15346TIP3    H167529   0.806   4.978  12.438  0.1734  0.2527 -0.1081
15346TIP3    H267530   0.664   5.029  12.451  0.7132  1.8350 -0.1398
15347TIP3   OH267531   0.145   2.105   0.949 -0.3233 -0.1968 -0.4167
15347TIP3    H167532   0.162   2.087   1.041  0.6183 -1.1814 -0.7521
15347TIP3    H267533   0.136   2.200   0.943  0.0246 -0.0928  0.6205
15348TIP3   OH267534   5.681   5.900  17.253 -0.4269 -0.1929  0.1750
15348TIP3    H167535   5.629   5.867  17.180  1.7145 -2.3077 -0.5171
15348TIP3    H267536   5.620   5.952  17.305 -3.5733 -3.4729  0.1167
15349TIP3   OH267537   3.015   4.190   3.932 -0.2128 -0.5009  0.1988
15349TIP3    H167538   3.005   4.265   3.873  2.2856 -0.4933 -0.2910
15349TIP3    H267539   3.029   4.116   3.873 -0.6583 -1.0170  0.7320
15350TIP3   OH267540   1.038   6.526  14.438  0.0550  0.1143 -0.4427
15350TIP3    H167541   1.110   6.477  14.400 -0.2714  0.1501 -1.1142
15350TIP3    H267542   0.965   6.514  14.378 -0.1717  1.0145 -0.3703
15351TIP3   OH267543   6.404   0.466   2.338  0.2715  1.3178  0.1177
15351TIP3    H167544   6.452   0.460   2.421  2.5422 -0.0823 -1.2117
15351TIP3    H267545   6.407   0.377   2.302  1.2661  2.3034 -2.4657
15352TIP3   OH267546   1.892   4.341  16.106 -0.4269  0.1252 -0.0441
15352TIP3    H167547   1.845   4.380  16.032 -0.0750 -1.1041 -0.9686
15352TIP3    H267548   1.958   4.285  16.064  1.0980  0.9142  1.2156
15353TIP3   OH267549   1.649   2.724  11.649  1.3479  0.1218 -0.1740
15353TIP3    H167550   1.658   2.778  11.727  0.1941 -0.4648  0.4015
15353TIP3    H267551   1.566   2.751  11.610  0.4809 -1.5231  0.4090
15354TIP3   OH267552   2.984   5.726  15.276  0.1296 -0.0367 -0.4598
15354TIP3    H167553   2.892   5.727  15.302 -0.1289 -1.5015 -1.2233
15354TIP3    H267554   3.019   5.809  15.309 -0.9608 -0.3354  1.5795
15355TIP3   OH267555   4.672   6.620  12.122 -0.1713  0.2769 -0.1395
15355TIP3    H167556   4.655   6.610  12.216 -1.7558  1.5889 -0.2388
15355TIP3    H267557   4.600   6.573  12.080  0.7095 -0.5849 -0.7214
15356TIP3   OH267558   0.074   1.639  12.657 -0.3680 -0.2556  0.3622
15356TIP3    H167559   0.087   1.550  12.689 -0.0343 -0.4371 -0.2586
15356TIP3    H267560   0.151   1.687  12.688  0.0136 -0.4597 -0.2674
15357TIP3   OH267561   2.122   5.597  14.395 -0.3647  0.1381 -0.0156
15357TIP3    H167562   2.028   5.612  14.383 -0.3696  2.2740  1.9772
15357TIP3    H267563   2.163   5.674  14.356  0.4962 -0.1553  0.2922
15358TIP3   OH267564   1.641   0.637  11.377 -0.1625 -0.1933 -0.2200
15358TIP3    H167565   1.601   0.692  11.444 -0.7164 -0.2311 -0.5111
15358TIP3    H267566   1.708   0.587  11.424  0.5857  0.9594 -0.0224
15359TIP3   OH267567   0.019   6.546  16.934 -0.5598  0.0632 -0.3731
15359TIP3    H167568   0.096   6.509  16.978  0.2635  1.7196 -0.3635
15359TIP3    H267569   0.030   6.521  16.843  0.4882  1.0280 -0.5347
15360TIP3   OH267570   3.128   4.402  15.538  0.5079  0.4465  0.1688
15360TIP3    H167571   3.075   4.346  15.482  1.2058 -0.3513  0.3031
15360TIP3    H267572   3.064   4.453  15.589 -0.1192  0.4653 -0.6312
15361TIP3   OH267573   3.686   6.114   6.923 -0.2720  0.1186  0.4090
15361TIP3    H167574   3.705   6.071   7.006 -2.4256 -1.2935  0.2492
15361TIP3    H267575   3.738   6.067   6.859 -0.2530 -0.2055  0.6609
15362TIP3   OH267576   1.223   1.687  17.325  0.3885 -0.3367 -0.1936
15362TIP3    H167577   1.242   1.600  17.358  0.9787 -0.3914 -0.6550
15362TIP3    H267578   1.128   1.689  17.315  0.1695 -0.2605  1.6114
15363TIP3   OH267579   2.722   4.003   1.659 -0.2494 -0.0696  0.1677
15363TIP3    H167580   2.783   3.937   1.626 -0.2121 -0.1964  0.4914
15363TIP3    H267581   2.693   3.970   1.744 -1.7602 -0.6303 -0.5377
15364TIP3   OH267582   0.098   2.905  13.291  0.6294  0.1141  0.9097
15364TIP3    H167583   0.163   2.842  13.260  2.0481  1.0365  1.8980
15364TIP3    H267584   0.135   2.940  13.372 -0.3885  1.7711  0.7035
15365TIP3   OH267585   2.721   1.127   2.981 -0.4534 -0.4463  0.6591
15365TIP3    H167586   2.791   1.193   2.981 -0.6753 -0.2071  1.0789
15365TIP3    H267587   2.739   1.074   2.903 -0.5051  0.3627  0.0795
15366TIP3   OH267588   5.899   6.717   4.787 -0.5855  0.4556 -0.2772
15366TIP3    H167589   5.956   6.792   4.801  0.0242 -0.4562  2.8793
15366TIP3    H267590   5.952   6.655   4.736 -0.1146  1.0476 -0.5170
15367TIP3   OH267591   3.622   0.438  12.081  0.4487 -0.1457  0.3211
15367TIP3    H167592   3.656   0.468  11.997  0.4658 -0.6666  0.1391
15367TIP3    H267593   3.673   0.486  12.146  0.6967 -0.0233  0.0371
15368TIP3   OH267594   0.807   5.121   4.754  0.3450  1.0152  0.0202
15368TIP3    H167595   0.793   5.059   4.683  0.0494  0.5872  0.4402
15368TIP3    H267596   0.719   5.148   4.779  0.4710  1.5539 -0.1153
15369TIP3   OH267597   4.629   4.243   4.132 -0.3212 -0.3977  0.2202
15369TIP3    H167598   4.722   4.261   4.115 -0.5567  0.3408 -0.2829
15369TIP3    H267599   4.604   4.180   4.064 -0.3578 -0.1028 -0.0391
15370TIP3   OH267600   3.779   2.404   4.582  0.5865 -0.0532 -0.3049
15370TIP3    H167601   3.729   2.330   4.617  0.8131 -0.0368  0.0632
15370TIP3    H267602   3.774   2.394   4.487 -2.9124  1.7618 -0.4840
15371TIP3   OH267603   4.543   6.381  15.034 -0.1581  0.1159  0.1636
15371TIP3    H167604   4.566   6.460  14.984  0.0467 -0.1465 -0.1596
15371TIP3    H267605   4.482   6.335  14.977 -0.7068  0.3095  0.5902
15372TIP3   OH267606   4.560   2.862   3.135 -0.1307  0.7679  0.8764
15372TIP3    H167607   4.545   2.795   3.203  1.4185  1.2128  1.7078
15372TIP3    H267608   4.561   2.813   3.053 -0.4368 -0.0260  1.3368
15373TIP3   OH267609   0.585   6.338  14.393  0.2107  0.3245  0.2602
15373TIP3    H167610   0.506   6.289  14.369  1.1613 -1.3306  0.3434
15373TIP3    H267611   0.637   6.276  14.444  0.8163  1.9299  1.6900
15374TIP3   OH267612   4.780   3.735   0.401 -0.1174  0.1078  0.3598
15374TIP3    H167613   4.768   3.793   0.326  1.1989  0.0236  0.0554
15374TIP3    H267614   4.866   3.695   0.386  0.2822  0.2873  2.0480
15375TIP3   OH267615   0.724   2.291  13.414 -0.3950  0.0512 -0.5522
15375TIP3    H167616   0.690   2.258  13.498 -1.0395 -0.1040 -0.8647
15375TIP3    H267617   0.657   2.353  13.385 -1.0500 -1.1888 -1.7957
15376TIP3   OH267618   1.304   1.281   4.134  0.0788  0.4785  0.5200
15376TIP3    H167619   1.238   1.255   4.198  0.2618  0.5656  0.7486
15376TIP3    H267620   1.387   1.268   4.179  0.2900 -0.9397 -0.2493
15377TIP3   OH267621   6.013   3.167   1.638 -0.4026 -0.3213 -0.1806
15377TIP3    H167622   6.029   3.254   1.601 -0.3127 -0.6215 -0.8661
15377TIP3    H267623   5.948   3.128   1.580 -0.6845 -0.5881  0.3130
15378TIP3   OH267624   3.334   1.241   6.057 -0.0490  0.2772  0.6442
15378TIP3    H167625   3.304   1.159   6.017  1.1140 -1.1243  2.4764
15378TIP3    H267626   3.408   1.268   6.003 -1.2635  0.9166 -0.7787
15379TIP3   OH267627   6.327   4.470   2.970 -0.2266 -0.1048  0.0951
15379TIP3    H167628   6.368   4.425   2.895  0.7049  2.6156 -1.1800
15379TIP3    H267629   6.335   4.409   3.042  2.3038 -1.3966 -1.1524
15380TIP3   OH267630   6.748   1.652  11.297  0.3444  0.1815  0.0548
15380TIP3    H167631   6.818   1.644  11.362 -2.0666  2.5530  3.2577
15380TIP3    H267632   6.779   1.722  11.238  0.8331  1.0070  1.2538
15381TIP3   OH267633   1.658   1.313   4.495  0.0768  0.4637  0.4525
15381TIP3    H167634   1.643   1.314   4.589  1.0448 -0.1980  0.6322
15381TIP3    H267635   1.730   1.251   4.483 -1.7215 -1.4400 -0.9843
15382TIP3   OH267636   0.381   4.750  11.672 -0.4867  0.1316  0.2822
15382TIP3    H167637   0.358   4.662  11.642  0.5503 -0.2968  0.6704
15382TIP3    H267638   0.430   4.788  11.600  0.2006 -0.1137  0.6091
15383TIP3   OH267639   2.144   3.569   5.580 -0.2792  0.4294 -0.1488
15383TIP3    H167640   2.191   3.536   5.656 -0.8227 -1.2057 -0.4733
15383TIP3    H267641   2.066   3.514   5.574  0.6380 -0.7920 -2.9162
15384TIP3   OH267642   2.191   3.403  15.889 -0.0421 -0.0903  0.3555
15384TIP3    H167643   2.283   3.419  15.869 -0.3156 -0.5426 -1.3826
15384TIP3    H267644   2.170   3.465  15.959  1.2204  0.9528 -0.1630
15385TIP3   OH267645   5.472   5.248  13.246 -0.2598  0.7549  0.9771
15385TIP3    H167646   5.403   5.307  13.278 -1.5393 -0.2576  0.1538
15385TIP3    H267647   5.425   5.172  13.213  1.1638  0.6509 -0.9456
15386TIP3   OH267648   6.119   1.596  13.036  0.3109 -0.0638 -0.0324
15386TIP3    H167649   6.160   1.683  13.046  0.9679 -0.4725  1.1204
15386TIP3    H267650   6.110   1.584  12.942 -1.1091  1.8474 -0.2113
15387TIP3   OH267651   1.708   6.714  13.762  0.1327  0.3096  0.1544
15387TIP3    H167652   1.728   6.808  13.756 -0.9250  0.5612  0.4097
15387TIP3    H267653   1.735   6.690  13.850  1.6275  0.0565 -0.3418
15388TIP3   OH267654   5.119   3.661   1.501  0.3721  0.1852  0.2317
15388TIP3    H167655   5.179   3.619   1.439 -1.8911 -1.8724 -0.7088
15388TIP3    H267656   5.103   3.595   1.568 -3.2528 -0.6896 -1.2700
15389TIP3   OH267657   6.581   3.777   2.315  0.3689  0.0596  0.0778
15389TIP3    H167658   6.670   3.781   2.281  0.9540 -0.5714  1.4711
15389TIP3    H267659   6.551   3.688   2.295  0.5032 -0.1244  0.6754
15390TIP3   OH267660   5.337   2.678  11.065 -0.2519 -0.1741 -0.7538
15390TIP3    H167661   5.274   2.606  11.061 -1.0854  0.5396 -0.8446
15390TIP3    H267662   5.408   2.645  11.120 -0.7624 -0.9561 -0.5484
15391TIP3   OH267663   3.736   4.720  12.030 -0.0807 -0.3815  0.7493
15391TIP3    H167664   3.742   4.625  12.046 -1.1472 -0.3411  1.4985
15391TIP3    H267665   3.664   4.749  12.086 -0.2169  0.7639  0.0066
15392TIP3   OH267666   3.215   0.467  16.061  0.2050  0.0769  0.2044
15392TIP3    H167667   3.138   0.465  16.004  0.9879 -1.7166 -0.8488
15392TIP3    H267668   3.288   0.485  16.002  1.0787 -2.1925  0.5149
15393TIP3   OH267669   3.909   3.842  13.055  0.0710 -0.0245  0.2010
15393TIP3    H167670   3.837   3.826  13.115  0.4570 -1.8999  0.2308
15393TIP3    H267671   3.919   3.937  13.054 -3.1031  0.4089 -0.6549
15394TIP3   OH267672   4.692   3.586   4.900  0.1235  0.3813  0.1133
15394TIP3    H167673   4.721   3.497   4.922  0.5316  0.1377 -1.3183
15394TIP3    H267674   4.677   3.584   4.806  2.4666  2.4356 -0.4190
15395TIP3   OH267675   6.385   3.995  16.552  0.1191 -0.8072 -0.2037
15395TIP3    H167676   6.408   4.046  16.474  0.8982  0.3076  0.7179
15395TIP3    H267677   6.384   3.905  16.521 -1.0084 -0.2950 -1.8236
15396TIP3   OH267678   0.044   2.072   0.550 -0.2424  0.2276  0.2039
15396TIP3    H167679  -0.029   2.014   0.569  0.6547 -0.7433  0.8255
15396TIP3    H267680   0.008   2.138   0.491 -2.2703  1.2371  2.4023
15397TIP3   OH267681   5.569   4.577  17.228  0.1022 -1.0247 -0.4327
15397TIP3    H167682   5.592   4.547  17.316  2.3486 -0.3218 -0.7087
15397TIP3    H267683   5.653   4.579  17.181 -0.3707  2.4387 -1.3965
15398TIP3   OH267684   0.967   0.134  11.917  0.1207  0.2689 -0.3000
15398TIP3    H167685   0.973   0.043  11.945 -0.7507  0.6531  1.2523
15398TIP3    H267686   1.054   0.170  11.934 -0.4635  0.5866  2.4521
15399TIP3   OH267687   6.678   4.757  16.400 -0.5268  0.1300 -0.7700
15399TIP3    H167688   6.699   4.682  16.344 -1.2547  0.1795 -1.1087
15399TIP3    H267689   6.584   4.752  16.414 -0.7592  1.5066 -1.5729
15400TIP3   OH267690   3.876   0.508  15.295  0.3379 -0.8188 -0.5209
15400TIP3    H167691   3.951   0.567  15.287 -0.3421  0.0896 -0.4428
15400TIP3    H267692   3.872   0.487  15.388  0.2964 -0.5977 -0.4718
15401TIP3   OH267693   2.532   4.626  15.295 -0.5921  0.0174  0.3194
15401TIP3    H167694   2.467   4.675  15.245  0.7332  0.7136 -0.7966
15401TIP3    H267695   2.580   4.693  15.344 -1.8703 -0.6518  2.6041
15402TIP3   OH267696   1.671   4.143  15.821  0.0607  0.9750 -0.4144
15402TIP3    H167697   1.624   4.160  15.739 -1.2864 -1.2273 -0.1789
15402TIP3    H267698   1.722   4.064  15.803  0.5728  1.0717  0.5696
15403TIP3   OH267699   3.599   4.525   2.837 -0.3301  0.0081  0.0716
15403TIP3    H167700   3.647   4.503   2.757  1.4251  1.1930  0.7390
15403TIP3    H267701   3.620   4.454   2.897 -1.0425 -0.4958 -0.2647
15404TIP3   OH267702   6.387   6.055  16.154 -0.0685 -0.4496  0.8592
15404TIP3    H167703   6.476   6.046  16.188  0.2796 -0.0059  0.0670
15404TIP3    H267704   6.378   6.147  16.132 -0.8643 -0.4103  1.3013
15405TIP3   OH267705   5.326   6.538  16.712  0.0119  0.3757  0.1097
15405TIP3    H167706   5.311   6.459  16.659  0.5283  1.7671 -2.2327
15405TIP3    H267707   5.422   6.545  16.719  0.0915  2.1178 -1.9194
15406TIP3   OH267708   5.048   2.616   2.013 -0.0245  0.4982  0.0319
15406TIP3    H167709   5.096   2.548   1.966 -1.5476  1.2378 -2.7822
15406TIP3    H267710   5.014   2.674   1.945 -0.8519  2.7182  2.1797
15407TIP3   OH267711   0.274   2.253  14.603 -0.0426  0.2641 -0.7336
15407TIP3    H167712   0.254   2.163  14.630 -0.9053  1.1248  1.7552
15407TIP3    H267713   0.211   2.272  14.533 -0.5159 -0.7314 -0.5879
15408TIP3   OH267714   4.929   1.635   3.442 -0.1483 -0.6638  0.4101
15408TIP3    H167715   4.965   1.689   3.371  1.1939  0.4623  1.8455
15408TIP3    H267716   4.850   1.596   3.406 -0.0131  0.6133 -1.3888
15409TIP3   OH267717   4.793   3.100   0.793  0.4767 -0.2729  0.4030
15409TIP3    H167718   4.876   3.067   0.758  0.3846 -0.2008  0.1080
15409TIP3    H267719   4.754   3.025   0.837  0.7618 -0.2700  0.6608
15410TIP3   OH267720   2.964   3.528  15.763 -0.1203 -0.0637  0.0355
15410TIP3    H167721   3.002   3.457  15.815 -0.9833 -0.8101 -0.3302
15410TIP3    H267722   3.024   3.602  15.776  1.8019 -1.3606 -0.9778
15411TIP3   OH267723   2.348   1.015   5.806 -1.1794  0.0790  0.1425
15411TIP3    H167724   2.428   1.066   5.803 -0.4531 -1.0520 -1.7739
15411TIP3    H267725   2.288   1.060   5.745 -0.8015 -0.8569 -0.9633
15412TIP3   OH267726   2.410   3.895   5.227 -0.3317  0.3974  0.1057
15412TIP3    H167727   2.340   3.862   5.285  0.1648 -0.2104  0.3730
15412TIP3    H267728   2.490   3.885   5.278 -0.0708  1.3156 -0.1146
15413TIP3   OH267729   0.646   5.631  17.149  0.3261  0.3927 -0.6081
15413TIP3    H167730   0.692   5.695  17.096 -1.1555  0.6016 -1.7096
15413TIP3    H267731   0.601   5.575  17.086 -0.2374 -0.3092  0.3858
15414TIP3   OH267732   4.161   6.111   6.229 -0.0341 -0.1983  0.3101
15414TIP3    H167733   4.126   6.046   6.290  0.5869 -0.7882  0.0502
15414TIP3    H267734   4.194   6.181   6.285 -4.1351  1.8049  0.5573
15415TIP3   OH267735   2.905   2.941  11.459 -0.2113 -0.4781 -0.1701
15415TIP3    H167736   2.947   2.973  11.380 -2.0464  1.0234 -0.6011
15415TIP3    H267737   2.959   2.974  11.531  1.4453 -1.8228 -0.7223
15416TIP3   OH267738   0.047   3.270  13.128  0.0816 -0.2242  0.7275
15416TIP3    H167739  -0.031   3.322  13.149  0.8424  1.6961 -0.9197
15416TIP3    H267740   0.120   3.329  13.146  1.0060 -0.9016 -0.6656
15417TIP3   OH267741   4.009   1.224  16.561 -0.0259  0.3322  0.3593
15417TIP3    H167742   3.956   1.181  16.629  0.1091 -1.1131 -0.4143
15417TIP3    H267743   4.045   1.152  16.510 -0.5120  1.3859 -1.5516
15418TIP3   OH267744   4.398   4.391  12.024  0.0724  0.0122  0.1116
15418TIP3    H167745   4.377   4.305  11.987 -0.0089 -1.7735  3.7838
15418TIP3    H267746   4.390   4.378  12.119 -2.0616  4.6707  0.8390
15419TIP3   OH267747   3.715   1.850   2.788 -0.6085  0.7104  0.7019
15419TIP3    H167748   3.636   1.817   2.830 -2.7462  1.5842 -2.2965
15419TIP3    H267749   3.688   1.869   2.698  2.7367  2.2046 -0.1361
15420TIP3   OH267750   1.263   6.615   5.371 -0.1412  0.0337  0.5890
15420TIP3    H167751   1.324   6.673   5.416 -1.3979  1.1208  0.9777
15420TIP3    H267752   1.177   6.644   5.400 -0.9250 -0.3727 -1.1887
15421TIP3   OH267753   5.339   1.472   4.315  0.7079 -0.3357  0.4727
15421TIP3    H167754   5.361   1.392   4.362  1.6190  0.7737  2.0224
15421TIP3    H267755   5.378   1.542   4.367 -3.4686  1.5526  1.4329
15422TIP3   OH267756   4.773   0.892  13.683 -0.3214  0.7053  0.4348
15422TIP3    H167757   4.693   0.944  13.696  0.2913  1.5509  0.9105
15422TIP3    H267758   4.828   0.912  13.759 -0.6991 -1.9033  1.4824
15423TIP3   OH267759   5.973   2.417   5.012 -0.2591  0.0165 -0.1225
15423TIP3    H167760   5.905   2.393   4.948 -1.2704 -0.0820  0.9525
15423TIP3    H267761   6.055   2.405   4.964 -0.9995  1.0192 -1.7581
15424TIP3   OH267762   4.503   2.856  14.466  0.6380  0.5689 -0.0607
15424TIP3    H167763   4.577   2.884  14.519  1.4629  1.3529 -1.5713
15424TIP3    H267764   4.520   2.764  14.447  1.9519  1.0671 -1.4871
15425TIP3   OH267765   4.130   4.331  13.617  0.3184  0.1873  0.2150
15425TIP3    H167766   4.123   4.342  13.522 -1.3005  0.2110  0.3052
15425TIP3    H267767   4.223   4.313  13.632  0.7338  0.8895 -1.2872
15426TIP3   OH267768   0.795   3.552   6.232 -0.0576 -0.1776 -0.5110
15426TIP3    H167769   0.761   3.595   6.310  0.1560  0.3454 -0.7060
15426TIP3    H267770   0.757   3.464   6.234 -2.5453  0.7913 -1.4494
15427TIP3   OH267771   0.008   3.203   2.161 -0.0655  0.0294 -0.3866
15427TIP3    H167772   0.074   3.272   2.155 -0.9484  1.0621  1.2809
15427TIP3    H267773   0.040   3.146   2.231  0.8876 -1.5924 -2.0371
15428TIP3   OH267774   4.821   3.956  12.404 -0.1463 -0.0054  0.7111
15428TIP3    H167775   4.855   3.875  12.365 -0.4354  0.2764 -0.1560
15428TIP3    H267776   4.758   3.989  12.340  1.9914  2.4024 -0.3518
15429TIP3   OH267777   1.532   2.847  12.443 -0.1918 -0.1294  0.7270
15429TIP3    H167778   1.594   2.905  12.486 -0.5619 -0.1749  1.3268
15429TIP3    H267779   1.572   2.760  12.452 -0.3509 -0.1622  1.1334
15430TIP3   OH267780   3.467   6.465  13.136  0.1386  0.2585  0.0634
15430TIP3    H167781   3.498   6.376  13.119 -0.2652 -0.4905  2.7257
15430TIP3    H267782   3.505   6.488  13.221 -1.4036  1.8191  0.4004
15431TIP3   OH267783   4.890   6.144  10.809  0.4490 -0.4873 -0.0897
15431TIP3    H167784   4.807   6.133  10.763 -0.3003  1.0797  0.7788
15431TIP3    H267785   4.899   6.065  10.863 -1.1676 -0.1206  0.7930
15432TIP3   OH267786   1.649   4.488  15.643 -0.0069  0.3390 -0.6028
15432TIP3    H167787   1.742   4.500  15.627  0.3450  0.3286  1.1934
15432TIP3    H267788   1.606   4.549  15.584  1.1299  0.2491 -1.5462
15433TIP3   OH267789   2.282   6.371  16.756 -0.4080 -0.5369 -0.1372
15433TIP3    H167790   2.346   6.300  16.749  0.1034 -0.0155 -0.8460
15433TIP3    H267791   2.313   6.438  16.695 -0.1520  0.8639  1.4616
15434TIP3   OH267792   5.661   0.490  10.864 -0.8069 -0.2997  0.2268
15434TIP3    H167793   5.567   0.479  10.848 -0.7967  0.0612 -0.1146
15434TIP3    H267794   5.676   0.584  10.850 -0.2094 -0.5291 -0.7836
15435TIP3   OH267795   4.438   3.242   6.246  0.1280  0.3276  0.0517
15435TIP3    H167796   4.367   3.270   6.303 -0.2268  0.5095 -0.4775
15435TIP3    H267797   4.456   3.318   6.190 -0.1071 -0.1200 -0.6535
15436TIP3   OH267798   4.524   3.731   1.545 -0.4887  0.6339  0.4925
15436TIP3    H167799   4.454   3.692   1.493  0.3780  0.6495 -0.7320
15436TIP3    H267800   4.562   3.798   1.487  1.4903 -0.3889  0.5297
15437TIP3   OH267801   3.936   1.628  10.769 -0.2336 -0.1060 -0.5768
15437TIP3    H167802   3.978   1.711  10.748 -0.2498 -0.5202 -2.4180
15437TIP3    H267803   3.876   1.612  10.696  1.2286 -2.6693 -1.3842
15438TIP3   OH267804   2.877   5.597   3.523  0.2651 -0.8516 -0.3413
15438TIP3    H167805   2.900   5.591   3.431 -0.7960  0.8404 -0.7750
15438TIP3    H267806   2.936   5.664   3.558 -0.6918  0.0129 -0.3247
15439TIP3   OH267807   5.689   3.083   1.029  0.4297  0.3288  0.2290
15439TIP3    H167808   5.678   2.996   0.991 -0.3813  0.9279 -0.9807
15439TIP3    H267809   5.626   3.085   1.101  0.0789  0.0895 -0.0638
15440TIP3   OH267810   2.183   2.168  17.359 -0.5233 -0.3413 -0.5523
15440TIP3    H167811   2.110   2.199  17.412 -0.0177  0.3123 -0.2308
15440TIP3    H267812   2.217   2.093  17.408 -0.8816 -0.5610 -0.6317
15441TIP3   OH267813   1.991   0.945   2.786  0.1688 -0.1721  0.3985
15441TIP3    H167814   2.045   0.912   2.858  0.3523 -1.7640 -0.4190
15441TIP3    H267815   1.907   0.964   2.827  0.3885 -0.6646  1.1176
15442TIP3   OH267816   2.343   4.691  12.856 -0.2512 -0.1159  0.1244
15442TIP3    H167817   2.266   4.674  12.911 -0.4068 -0.3709 -0.1671
15442TIP3    H267818   2.401   4.616  12.873 -0.9981 -1.0538 -1.2677
15443TIP3   OH267819   2.877   5.061   6.042 -0.0298  0.4475 -0.6406
15443TIP3    H167820   2.939   5.041   6.112 -1.6851 -0.2077  0.7039
15443TIP3    H267821   2.828   5.137   6.073  0.0471  0.9418 -1.6708
15444TIP3   OH267822   5.549   6.011   0.380 -0.3075 -0.1863 -0.2329
15444TIP3    H167823   5.566   6.039   0.290 -0.0571  0.3727 -0.0136
15444TIP3    H267824   5.621   5.952   0.402  0.1024  0.3536 -0.1068
15445TIP3   OH267825   3.975   2.699  11.121 -0.2353 -0.2751  0.1280
15445TIP3    H167826   3.971   2.791  11.148  2.1389  0.2308 -0.9641
15445TIP3    H267827   3.902   2.689  11.059 -0.7887  0.7389  0.5934
15446TIP3   OH267828   5.292   1.414  13.697  0.3326  0.6361  0.1280
15446TIP3    H167829   5.282   1.449  13.786  1.0125  1.3365 -0.0620
15446TIP3    H267830   5.327   1.487  13.646  2.0365 -0.3855 -0.2292
15447TIP3   OH267831   2.389   1.652   3.989  0.0960  0.0426 -0.2810
15447TIP3    H167832   2.409   1.578   4.048 -0.5697  0.6163  0.6935
15447TIP3    H267833   2.342   1.612   3.916 -1.0942 -0.4137  0.6888
15448TIP3   OH267834   3.930   0.860   4.541 -0.1297 -0.1753  0.3885
15448TIP3    H167835   3.896   0.804   4.471  0.7685  0.4695 -0.6002
15448TIP3    H267836   3.858   0.918   4.562  0.2469  1.0988 -1.5974
15449TIP3   OH267837   6.237   1.121  13.536  0.5099  0.1205 -0.6235
15449TIP3    H167838   6.251   1.150  13.626 -0.9577 -1.3749  0.1396
15449TIP3    H267839   6.285   1.039  13.529 -0.2904 -0.3448 -0.8296
15450TIP3   OH267840   0.088   4.088   0.973  0.0937  0.5430  0.4249
15450TIP3    H167841   0.007   4.110   1.018  0.1543 -0.1389  0.8689
15450TIP3    H267842   0.088   4.145   0.896 -0.2738  1.3248  0.9831
15451TIP3   OH267843   5.553   6.476   3.955 -0.6386  0.0284  0.2469
15451TIP3    H167844   5.564   6.422   4.033 -0.7126 -0.5457 -0.1332
15451TIP3    H267845   5.461   6.501   3.955 -1.4090 -2.4474 -1.2095
15452TIP3   OH267846   2.924   0.850  11.151 -0.5208 -0.2784 -0.2311
15452TIP3    H167847   3.019   0.864  11.147 -0.4259  0.0850  2.0915
15452TIP3    H267848   2.887   0.938  11.141 -0.4666 -0.0425  1.3709
15453TIP3   OH267849   2.689   6.731   0.490 -0.3849  0.2665  0.6033
15453TIP3    H167850   2.596   6.742   0.471 -0.0851  0.4731 -0.8643
15453TIP3    H267851   2.713   6.651   0.445  0.7931  1.8006 -1.6830
15454TIP3   OH267852   2.574   1.406  12.355  0.3483 -0.2056  0.1995
15454TIP3    H167853   2.656   1.450  12.335  1.2870 -1.8051  0.3487
15454TIP3    H267854   2.519   1.421  12.278  0.8148  0.7745  0.0502
15455TIP3   OH267855   0.224   3.937   4.349  0.4322  0.3059 -0.0389
15455TIP3    H167856   0.209   3.885   4.428  2.4327  0.1926  0.3327
15455TIP3    H267857   0.148   3.995   4.343 -0.8584 -1.2396  0.6811
15456TIP3   OH267858   0.217   2.623   6.225  0.2527  0.1578 -0.3261
15456TIP3    H167859   0.155   2.684   6.184 -0.5218 -1.2189 -1.3043
15456TIP3    H267860   0.163   2.551   6.255  1.2443 -0.4519  0.0337
15457TIP3   OH267861   3.793   0.490   2.291 -0.1073 -0.2764  0.2007
15457TIP3    H167862   3.754   0.438   2.221  1.1028 -0.0786 -0.6598
15457TIP3    H267863   3.752   0.457   2.371 -2.7867  0.6173 -0.6797
15458TIP3   OH267864   0.440   1.430  11.268  0.4762  0.2118 -0.1847
15458TIP3    H167865   0.518   1.479  11.242 -0.3358  1.0641 -1.0793
15458TIP3    H267866   0.428   1.366  11.197  0.3181  0.1250 -0.0787
15459TIP3   OH267867   0.447   1.651  14.213 -0.4244  0.4372  0.1435
15459TIP3    H167868   0.388   1.638  14.139  1.3707 -0.7800 -1.1642
15459TIP3    H267869   0.528   1.683  14.174  0.3930  0.3116  1.6512
15460TIP3   OH267870   1.050   1.365  14.527 -0.4294 -0.6501 -0.0136
15460TIP3    H167871   1.001   1.447  14.526  4.2610  2.7038  2.1114
15460TIP3    H267872   1.088   1.358  14.440 -0.6485 -0.3731 -0.1306
15461TIP3   OH267873   3.043   4.502   5.481  0.1423  0.2171  0.3078
15461TIP3    H167874   3.103   4.436   5.515  3.3614  1.4465 -2.4015
15461TIP3    H267875   3.060   4.579   5.534 -0.0610  0.1739  0.4340
15462TIP3   OH267876   4.337   3.913   4.504 -0.7801 -0.5417 -0.3114
15462TIP3    H167877   4.337   3.938   4.412 -0.4827  0.8123  0.0443
15462TIP3    H267878   4.348   3.995   4.552  0.5410 -1.3821  0.8870
15463TIP3   OH267879   3.210   4.396   4.850  0.0389 -0.1598  0.1722
15463TIP3    H167880   3.257   4.315   4.867  0.4579 -0.4076 -1.8789
15463TIP3    H267881   3.247   4.429   4.768 -3.0785 -0.2210 -1.4342
15464TIP3   OH267882   4.587   3.801   4.601  0.3549 -0.6405 -0.3901
15464TIP3    H167883   4.534   3.783   4.678  0.4112 -0.1950 -0.2455
15464TIP3    H267884   4.529   3.852   4.544  0.9957  0.9419  0.2936
15465TIP3   OH267885   0.060   2.791   2.160  0.4539  0.2014  0.0954
15465TIP3    H167886   0.126   2.787   2.091  1.6329 -1.1500  1.2632
15465TIP3    H267887   0.018   2.705   2.159  0.3161  0.2530  0.9117
15466TIP3   OH267888   6.733   4.438  15.323  0.6559 -0.6795  0.3757
15466TIP3    H167889   6.706   4.504  15.260  1.5661 -0.8921 -0.2433
15466TIP3    H267890   6.659   4.432  15.384 -0.1550 -0.3439 -0.5538
15467TIP3   OH267891   6.308   2.598   1.243 -0.3844  0.9274  0.0369
15467TIP3    H167892   6.403   2.610   1.246 -0.1478 -0.5221 -0.8339
15467TIP3    H267893   6.283   2.626   1.156 -0.7344  1.1221  0.1995
15468TIP3   OH267894   2.957   3.679  15.348 -0.1174  0.1591 -0.0064
15468TIP3    H167895   3.045   3.717  15.348 -0.5455  1.1772  0.5157
15468TIP3    H267896   2.945   3.647  15.259  1.0867 -0.7535  0.1143
15469TIP3   OH267897   3.410   5.350  15.628  0.4753 -0.5921 -0.5674
15469TIP3    H167898   3.412   5.257  15.608  0.2247 -0.8072  0.3548
15469TIP3    H267899   3.417   5.354  15.724  0.3198  0.3229 -0.5870
15470TIP3   OH267900   0.949   6.451   4.087 -0.5638  0.3171  0.1528
15470TIP3    H167901   0.991   6.535   4.106  0.5774  0.2986 -1.9989
15470TIP3    H267902   0.994   6.388   4.144 -0.1114  0.8433  0.3851
15471TIP3   OH267903   5.015   5.359  17.042 -0.3071  0.3125  0.1060
15471TIP3    H167904   4.998   5.270  17.070 -2.1298 -0.1249 -2.1460
15471TIP3    H267905   5.104   5.356  17.006 -1.2003 -1.2660 -2.1861
15472TIP3   OH267906   5.062   1.925   4.185 -0.7533 -0.0087  0.2322
15472TIP3    H167907   5.119   1.850   4.205 -2.7717 -1.4070  1.0231
15472TIP3    H267908   5.122   1.992   4.154  1.1051 -2.1439 -1.1515
15473TIP3   OH267909   4.517   1.015  12.131  0.0154 -1.0150  0.7850
15473TIP3    H167910   4.507   1.081  12.063  0.6897 -0.0734  1.5697
15473TIP3    H267911   4.499   0.932  12.087  2.0406 -0.6102 -0.9585
15474TIP3   OH267912   6.097   6.096   2.386  0.0753  0.2808 -0.1214
15474TIP3    H167913   6.107   6.001   2.391 -0.3339  0.1824 -1.0732
15474TIP3    H267914   6.003   6.111   2.400  0.1607  0.5624  0.1724
15475TIP3   OH267915   1.168   6.431  15.831  0.8570 -0.0917  0.4656
15475TIP3    H167916   1.144   6.345  15.865  1.7992 -0.7003 -0.3260
15475TIP3    H267917   1.106   6.447  15.760  1.3168 -0.5987 -0.0588
15476TIP3   OH267918   2.638   4.816  17.379  0.2447 -0.3855 -0.1280
15476TIP3    H167919   2.571   4.834  17.445  0.5714  1.0994 -0.1661
15476TIP3    H267920   2.615   4.730  17.345 -1.7148  0.1089 -0.2167
15477TIP3   OH267921   1.418   0.751  12.833 -0.1126  0.1840 -0.0291
15477TIP3    H167922   1.437   0.840  12.863 -0.1558  0.6068 -1.1657
15477TIP3    H267923   1.469   0.694  12.889  1.0388  1.0265 -0.1921
15478TIP3   OH267924   5.068   0.421  15.893  0.3830 -0.0822 -1.0509
15478TIP3    H167925   5.111   0.401  15.810  0.4326 -0.5362 -0.9157
15478TIP3    H267926   4.987   0.370  15.891  0.8706 -0.9165 -0.3771
15479TIP3   OH267927   1.547   0.780  15.002 -0.2063  0.0125  0.3082
15479TIP3    H167928   1.561   0.693  15.038 -0.4200  0.1205  0.6542
15479TIP3    H267929   1.560   0.839  15.076 -0.6861  0.2349  0.2150
15480TIP3   OH267930   3.056   5.424   1.779 -0.3772 -0.7823  0.4058
15480TIP3    H167931   3.059   5.510   1.737 -1.3778 -0.4980  0.8658
15480TIP3    H267932   3.040   5.363   1.707  1.4961 -0.7438 -0.0802
15481TIP3   OH267933   6.724   4.953   2.309  0.2474 -0.2594 -0.1282
15481TIP3    H167934   6.719   5.025   2.372  1.1142 -0.9130  0.7329
15481TIP3    H267935   6.810   4.914   2.325  1.2203  0.5122 -2.8038
15482TIP3   OH267936   0.925   2.099  13.371  0.1051  0.1330  0.3484
15482TIP3    H167937   0.922   2.106  13.275  0.7454 -0.4792  0.2787
15482TIP3    H267938   0.872   2.172  13.402  0.6352  0.8695 -0.4576
15483TIP3   OH267939   3.080   0.725  13.668  0.2811  0.1582 -0.1866
15483TIP3    H167940   3.088   0.695  13.577 -0.3359  0.6042 -0.3922
15483TIP3    H267941   3.021   0.661  13.709  0.2950  0.1430 -0.1908
15484TIP3   OH267942   4.749   5.475  17.085  0.5317 -0.0263  0.3394
15484TIP3    H167943   4.820   5.510  17.139  0.5851 -0.6716  0.6953
15484TIP3    H267944   4.793   5.426  17.016  0.4262 -1.7694  1.4730
15485TIP3   OH267945   2.735   6.755   6.334 -0.2971  0.5045  0.4185
15485TIP3    H167946   2.692   6.679   6.296  2.1663  1.0502 -4.2716
15485TIP3    H267947   2.677   6.828   6.314 -0.2942  0.4246  0.1014
15486TIP3   OH267948   0.400   1.590   1.942  0.3329  0.4812  0.3151
15486TIP3    H167949   0.450   1.549   2.013 -0.0315  0.5723  0.6316
15486TIP3    H267950   0.311   1.553   1.952  0.4897 -0.1899 -0.6443
15487TIP3   OH267951   6.226   6.193   1.027  0.5498  0.9722  0.1277
15487TIP3    H167952   6.222   6.125   1.095  0.9393  0.0389 -0.7571
15487TIP3    H267953   6.281   6.155   0.958 -2.2863  0.6010 -2.1092
15488TIP3   OH267954   1.601   3.466  17.075  0.2364  0.1151 -0.2310
15488TIP3    H167955   1.606   3.374  17.049 -0.0620 -0.3202  1.1619
15488TIP3    H267956   1.675   3.478  17.135 -1.2245  0.0266  1.6996
15489TIP3   OH267957   0.701   3.238  15.086 -0.0125  0.5122 -0.4865
15489TIP3    H167958   0.609   3.238  15.114 -0.1466  1.4568 -0.9134
15489TIP3    H267959   0.701   3.188  15.004  0.3944 -2.3399  1.1047
15490TIP3   OH267960   2.374   6.118   3.675  0.3791  0.0133 -0.1975
15490TIP3    H167961   2.364   6.157   3.588  0.6623 -1.6165 -1.0052
15490TIP3    H267962   2.428   6.040   3.660 -0.5591 -0.9648  1.2373
15491TIP3   OH267963   4.906   3.871  12.818  0.0211 -0.2535 -0.0103
15491TIP3    H167964   4.973   3.809  12.786 -1.1514 -1.4781 -0.1783
15491TIP3    H267965   4.948   3.916  12.891  1.3260 -0.3819 -0.6493
15492TIP3   OH267966   6.457   0.072  12.055 -0.0360  0.6701  0.3693
15492TIP3    H167967   6.363   0.065  12.036  0.0594  1.4308 -0.4607
15492TIP3    H267968   6.500   0.053  11.972  0.4830  1.6554  0.3988
15493TIP3   OH267969   1.026   2.890  15.190  0.0178  0.5276  0.6262
15493TIP3    H167970   1.072   2.865  15.270  0.6819 -0.5164 -0.0571
15493TIP3    H267971   1.078   2.851  15.119 -0.1015  2.0883 -0.3730
15494TIP3   OH267972   5.422   5.639   6.272  0.8098  0.1433 -0.5995
15494TIP3    H167973   5.444   5.703   6.205 -0.1047 -1.4008 -2.5061
15494TIP3    H267974   5.408   5.557   6.223 -0.3972 -0.9521  1.4257
15495TIP3   OH267975   6.690   0.159  12.619  1.0152 -0.8835 -0.1843
15495TIP3    H167976   6.770   0.114  12.591  1.2611  0.1431 -1.2151
15495TIP3    H267977   6.716   0.205  12.698  0.8353 -2.2903  0.7257
15496TIP3   OH267978   3.658   5.014   3.473  0.5250 -1.2167  0.3342
15496TIP3    H167979   3.724   5.036   3.407  1.7868  0.5688  2.0609
15496TIP3    H267980   3.709   4.990   3.551 -0.8413 -0.1848  1.5997
15497TIP3   OH267981   1.893   6.480   4.917 -0.1295 -0.3834  0.3381
15497TIP3    H167982   1.979   6.523   4.921 -0.7861  1.0971 -0.4755
15497TIP3    H267983   1.873   6.475   4.824 -0.4397 -1.7827  0.4555
15498TIP3   OH267984   3.625   5.803   2.205 -0.0193 -0.7541 -0.0175
15498TIP3    H167985   3.654   5.859   2.134 -2.2964  0.2237 -0.2823
15498TIP3    H267986   3.619   5.716   2.166  1.9196 -0.9043 -0.0638
15499TIP3   OH267987   6.372   6.123  17.232  0.0331 -0.5259  0.0198
15499TIP3    H167988   6.351   6.033  17.208 -0.5611 -0.8254  1.5252
15499TIP3    H267989   6.451   6.116  17.286 -1.3345 -0.4658  2.1435
15500TIP3   OH267990   1.596   0.734  13.614 -0.1024 -0.4328  0.2081
15500TIP3    H167991   1.619   0.712  13.705 -0.0079 -1.5435 -0.0616
15500TIP3    H267992   1.662   0.797  13.587  1.0735 -1.5598  0.3118
15501TIP3   OH267993   2.701   3.325  16.928  0.2185 -0.5896 -0.3449
15501TIP3    H167994   2.722   3.418  16.930  0.6693 -0.7031  0.7094
15501TIP3    H267995   2.703   3.302  16.835  2.2443 -0.0240 -0.4953
15502TIP3   OH267996   2.796   6.152   6.246  0.0097  0.0123 -0.3083
15502TIP3    H167997   2.774   6.243   6.265 -1.2102 -0.5519  1.1718
15502TIP3    H267998   2.886   6.142   6.279  0.0671  0.6102 -0.2745
15503TIP3   OH267999   1.749   2.194  17.465 -0.0149  0.2166 -0.7968
15503TIP3    H168000   1.675   2.183  17.525  0.9216  0.7214  0.4905
15503TIP3    H268001   1.800   2.114  17.475  0.5551  0.6252 -0.2914
15504TIP3   OH268002   3.449   0.773  17.220  0.3277  0.0372 -0.0344
15504TIP3    H168003   3.505   0.842  17.254  0.8307  0.4530 -1.6381
15504TIP3    H268004   3.509   0.702  17.197 -0.1310 -0.7451  1.0616
15505TIP3   OH268005   5.068   3.478  11.023  0.0109 -0.7493  0.3258
15505TIP3    H168006   5.035   3.389  11.032  0.6017 -1.0107 -0.0638
15505TIP3    H268007   5.156   3.476  11.060  0.5175 -0.6408 -0.8195
15506TIP3   OH268008   5.260   4.685  12.681 -0.6105 -0.0106 -0.4821
15506TIP3    H168009   5.242   4.697  12.774  2.4091 -1.4355  0.4137
15506TIP3    H268010   5.247   4.591  12.666 -0.0846  0.0281 -1.2469
15507TIP3   OH268011   0.609   6.475   1.268 -0.1111 -0.5760  0.7673
15507TIP3    H168012   0.666   6.516   1.333 -2.2107 -0.0033  2.3964
15507TIP3    H268013   0.607   6.382   1.292 -0.0896 -0.5426  0.9009
15508TIP3   OH268014   2.947   3.261   3.322 -0.0747  0.1247 -0.0331
15508TIP3    H168015   2.914   3.260   3.232  1.7716  0.8702 -0.7592
15508TIP3    H268016   2.938   3.170   3.351 -2.1859  0.1733 -0.3539
15509TIP3   OH268017   2.897   0.620   3.078  0.6127  0.2513 -0.1381
15509TIP3    H168018   2.937   0.534   3.064  3.5561  1.4681  0.1320
15509TIP3    H268019   2.939   0.676   3.013 -1.1354  1.5555 -0.1918
15510TIP3   OH268020   5.929   3.899  13.493 -0.0872 -0.4698  0.1155
15510TIP3    H168021   5.847   3.854  13.513 -0.4405  0.4437  0.7993
15510TIP3    H268022   5.931   3.905  13.398 -0.2738 -1.4782  0.0432
15511TIP3   OH268023   3.376   2.893  15.219 -0.2812  0.2546 -1.0010
15511TIP3    H168024   3.366   2.955  15.292  0.1716  1.2649 -1.7788
15511TIP3    H268025   3.387   2.808  15.262  0.2345  0.8657  0.1213
15512TIP3   OH268026   3.953   5.930   6.086 -0.5960  0.4331 -0.5674
15512TIP3    H168027   4.012   5.855   6.076 -1.2943 -0.0769 -0.9952
15512TIP3    H268028   3.890   5.901   6.152  0.5239  1.5597  1.0553
15513TIP3   OH268029   2.637   2.572   4.201  0.3843  0.1115 -0.1816
15513TIP3    H168030   2.609   2.480   4.195  0.6834 -0.3038  2.8323
15513TIP3    H268031   2.733   2.568   4.199  0.3944  0.3659 -0.1952
15514TIP3   OH268032   5.500   4.027  11.833  0.0426  0.0434  0.5703
15514TIP3    H168033   5.459   4.090  11.892  1.2996 -1.0968  2.7837
15514TIP3    H268034   5.429   4.000  11.774 -0.8767  2.3360  0.5216
15515TIP3   OH268035   3.050   2.525   1.132  0.0585 -0.9474 -0.1324
15515TIP3    H168036   3.077   2.551   1.044  1.8975 -0.4602  0.5267
15515TIP3    H268037   2.992   2.450   1.119 -0.8216 -0.0084 -1.8073
15516TIP3   OH268038   5.948   0.214   2.756  0.2893  0.4057 -0.0701
15516TIP3    H168039   5.883   0.145   2.769  2.8460 -1.9606  1.1390
15516TIP3    H268040   5.905   0.294   2.788 -1.7380 -1.1800  1.4032
15517TIP3   OH268041   1.807   6.218  12.972 -0.4349  0.2084  0.2423
15517TIP3    H168042   1.811   6.217  13.067 -1.1263  0.9774  0.2910
15517TIP3    H268043   1.893   6.188  12.944 -0.2502 -0.0844  1.1072
15518TIP3   OH268044   5.812   0.927  12.996  0.4833 -0.0695  0.3404
15518TIP3    H168045   5.874   0.970  12.938 -1.0745  1.2424 -0.4542
15518TIP3    H268046   5.776   0.999  13.049 -0.7044 -0.7026  0.4251
15519TIP3   OH268047   5.670   2.078   5.351  0.0076 -0.6392  0.1724
15519TIP3    H168048   5.629   2.163   5.338  0.3880 -0.2629  1.2734
15519TIP3    H268049   5.748   2.079   5.296 -0.8028 -0.9055 -1.0263
15520TIP3   OH268050   4.383   5.679  11.468 -0.4402  0.0973 -0.3093
15520TIP3    H168051   4.364   5.586  11.458  0.4169 -0.3322  1.5457
15520TIP3    H268052   4.464   5.682  11.520  0.4667  1.8831 -1.7171
15521TIP3   OH268053   6.429   2.228  16.972 -0.4175  0.3931 -0.9706
15521TIP3    H168054   6.362   2.212  16.906 -1.4181  2.6096 -0.5680
15521TIP3    H268055   6.381   2.241  17.053  0.5983  0.7179 -0.4005
15522TIP3   OH268056   5.236   2.354  17.014 -0.5710 -0.1233 -0.4068
15522TIP3    H168057   5.205   2.264  17.005  1.1702 -0.7421 -0.5371
15522TIP3    H268058   5.252   2.364  17.108 -3.5082  1.0719  0.0899
15523TIP3   OH268059   4.318   3.845   4.142 -1.1073 -0.1425 -0.1895
15523TIP3    H168060   4.381   3.789   4.097 -2.1901  0.4529 -2.6136
15523TIP3    H268061   4.264   3.785   4.193 -0.3037 -0.9367 -0.2430
15524TIP3   OH268062   5.558   2.246   0.040  0.1306  0.5404 -0.0679
15524TIP3    H168063   5.521   2.219   0.124 -2.2381  0.4029 -1.0694
15524TIP3    H268064   5.590   2.164   0.000 -0.9321  0.2004 -0.2692
15525TIP3   OH268065   2.331   5.537   5.529  0.0657 -0.2417 -0.0221
15525TIP3    H168066   2.418   5.551   5.567 -0.6455  2.5657  0.8033
15525TIP3    H268067   2.299   5.625   5.508 -2.4649 -1.1985 -0.5859
15526TIP3   OH268068   2.158   4.307   0.066  0.4899 -0.5494  0.1237
15526TIP3    H168069   2.180   4.369   0.136  1.3140 -0.2994 -0.3567
15526TIP3    H268070   2.108   4.238   0.111 -2.5218  1.5359  0.3190
15527TIP3   OH268071   2.633   6.671  11.979 -0.3286 -0.8816  0.2749
15527TIP3    H168072   2.715   6.625  11.994  0.5178  0.5122  0.1673
15527TIP3    H268073   2.565   6.609  12.005  0.7669 -1.9311  0.7386
15528TIP3   OH268074   0.322   0.377   4.644  0.1413  0.4920 -0.1863
15528TIP3    H168075   0.389   0.425   4.594  0.0066 -0.1540 -1.0174
15528TIP3    H268076   0.332   0.286   4.615  1.6895 -0.4015  2.7770
15529TIP3   OH268077   5.004   6.694   3.277  0.0107 -0.6558 -0.2266
15529TIP3    H168078   5.098   6.681   3.262  0.0512 -3.6488  1.7520
15529TIP3    H268079   4.990   6.788   3.261  2.4995 -0.7402 -4.3154
15530TIP3   OH268080   6.604   0.698   3.109  0.6269  0.1364 -0.2987
15530TIP3    H168081   6.545   0.682   3.182 -0.9178 -1.7574 -1.8775
15530TIP3    H268082   6.569   0.776   3.066  0.9680  0.6738  0.3765
15531TIP3   OH268083   1.738   3.953  14.640  0.3460  0.6221 -0.4536
15531TIP3    H168084   1.765   3.876  14.590 -1.1415  0.8754 -1.7153
15531TIP3    H268085   1.653   3.930  14.676  0.3224  1.3409 -0.0199
15532TIP3   OH268086   3.379   6.066   5.423  0.2070 -0.0650  0.0023
15532TIP3    H168087   3.441   6.112   5.366  1.6419 -2.0989 -0.1926
15532TIP3    H268088   3.342   5.998   5.368  0.2260 -0.8896  0.9721
15533TIP3   OH268089   4.395   5.587  16.197 -0.3012 -0.0960  0.6076
15533TIP3    H168090   4.328   5.526  16.227 -0.9204  0.5116  0.4614
15533TIP3    H268091   4.353   5.672  16.196  0.1241  0.1273 -0.5999
15534TIP3   OH268092   3.490   3.902  11.216 -0.0522 -0.4242  0.4465
15534TIP3    H168093   3.519   3.859  11.136 -2.2489 -2.5960  0.7069
15534TIP3    H268094   3.417   3.957  11.189  1.1090  1.2079  0.5346
15535TIP3   OH268095   5.362   5.802   5.754 -0.4768  0.0985  0.0121
15535TIP3    H168096   5.423   5.738   5.790  1.6238  1.2310 -1.3735
15535TIP3    H268097   5.284   5.750   5.732  0.6871 -1.7513  0.0490
15536TIP3   OH268098   2.422   3.354  16.095 -0.1557 -0.1502  0.1635
15536TIP3    H168099   2.352   3.344  16.030  2.1060 -2.7376 -2.1476
15536TIP3    H268100   2.452   3.444  16.084 -1.8429  0.4080 -0.1377
15537TIP3   OH268101   6.355   6.121  15.473  0.1178  0.3001 -0.2932
15537TIP3    H168102   6.429   6.068  15.442 -0.3981 -0.4136 -0.3275
15537TIP3    H268103   6.312   6.066  15.537  0.4411  1.2785  0.7949
15538TIP3   OH268104   5.733   6.262   3.336 -0.0734  0.0730  0.8566
15538TIP3    H168105   5.758   6.276   3.245 -1.6973  3.8088  0.7978
15538TIP3    H268106   5.648   6.217   3.331  0.5969 -1.2377  0.6716
15539TIP3   OH268107   1.896   4.309   6.251  0.5260  0.1581 -0.3687
15539TIP3    H168108   1.976   4.272   6.290 -0.0519  0.2809  0.9942
15539TIP3    H268109   1.907   4.403   6.261 -0.0437  0.1517  0.3664
15540TIP3   OH268110   4.588   5.519   2.279  0.0015  0.2546 -0.4799
15540TIP3    H168111   4.669   5.472   2.260  0.9970  1.7301 -0.0662
15540TIP3    H268112   4.566   5.494   2.369 -0.4087 -0.6932 -0.8344
15541TIP3   OH268113   3.863   3.833  12.428  0.3825  0.1867 -0.4291
15541TIP3    H168114   3.852   3.879  12.345 -0.8919  1.1976  0.2808
15541TIP3    H268115   3.923   3.888  12.478 -2.0131  1.7875  0.8591
15542TIP3   OH268116   0.823   3.209   0.614 -0.3574 -0.0211 -0.1124
15542TIP3    H168117   0.767   3.247   0.681 -0.5107 -1.8681  0.8727
15542TIP3    H268118   0.785   3.239   0.531 -1.4280  0.6013  0.5796
15543TIP3   OH268119   6.145   3.691  17.419 -0.6664 -0.2633 -0.3255
15543TIP3    H168120   6.067   3.745  17.409  0.0446  0.8003 -0.2266
15543TIP3    H268121   6.164   3.692  17.512 -0.6772 -0.7484 -0.3115
15544TIP3   OH268122   2.153   3.491  13.993 -0.5116 -0.3037  0.3944
15544TIP3    H168123   2.111   3.432  14.055  0.2931 -1.9893 -0.5641
15544TIP3    H268124   2.243   3.459  13.988 -0.2214  0.6196 -0.6673
15545TIP3   OH268125   0.882   5.891   1.820 -0.0012 -0.5205 -0.1055
15545TIP3    H168126   0.927   5.976   1.817  1.0898 -0.8111  3.5105
15545TIP3    H268127   0.949   5.827   1.798  0.2794 -0.6511  1.0404
15546TIP3   OH268128   4.470   3.155   4.074 -0.9510  0.3275  0.1012
15546TIP3    H168129   4.400   3.093   4.054  0.3147 -1.0763 -0.2065
15546TIP3    H268130   4.466   3.219   4.003 -2.3132  0.6574  0.4476
15547TIP3   OH268131   2.372   6.048   2.204 -0.5369 -0.1342 -0.2062
15547TIP3    H168132   2.456   6.080   2.172 -0.2315  0.2030  0.9063
15547TIP3    H268133   2.316   6.048   2.126  0.4701 -0.3279 -0.9527
15548TIP3   OH268134   5.782   0.121  12.245 -0.0497  0.2811  0.1530
15548TIP3    H168135   5.858   0.064  12.239 -0.8672 -0.8694  0.5184
15548TIP3    H268136   5.813   0.198  12.293  1.0367  0.1252 -0.2680
15549TIP3   OH268137   1.518   6.290   1.104 -0.0858 -0.2410 -0.0752
15549TIP3    H168138   1.458   6.362   1.125  0.0890 -0.4974  1.3790
15549TIP3    H268139   1.530   6.244   1.187  2.2758 -0.1013 -0.2946
15550TIP3   OH268140   3.065   4.173  13.022 -0.3103 -0.5186 -0.2211
15550TIP3    H168141   3.157   4.156  13.003 -0.3766  0.1252 -1.2253
15550TIP3    H268142   3.064   4.262  13.057 -0.7296  0.3444 -2.2360
15551TIP3   OH268143   3.896   5.217   5.380 -0.0484 -0.0443 -0.2062
15551TIP3    H168144   3.990   5.206   5.364  0.2694 -1.0138  2.0784
15551TIP3    H268145   3.860   5.236   5.293  2.1038 -0.5981 -1.2968
15552TIP3   OH268146   4.090   4.785   2.038  0.2243  0.1935 -0.4205
15552TIP3    H168147   4.132   4.823   1.961 -0.8355  0.7757 -0.7432
15552TIP3    H268148   4.152   4.800   2.109  0.9471  0.2149 -1.0405
15553TIP3   OH268149   2.278   4.442   5.837  0.2013 -0.0126 -0.1143
15553TIP3    H168150   2.196   4.492   5.841  1.8163  2.7789  1.0188
15553TIP3    H268151   2.283   4.397   5.922  0.2493  0.5292  0.1738
15554TIP3   OH268152   3.901   5.270  16.882 -0.3299  0.6376 -0.4135
15554TIP3    H168153   3.934   5.360  16.891 -0.3810  0.4620  2.2047
15554TIP3    H268154   3.808   5.281  16.864 -0.1637  1.0872 -1.0587
15555TIP3   OH268155   5.291   0.752  12.797 -0.1147  0.2402 -0.4566
15555TIP3    H168156   5.291   0.697  12.718 -1.7910  1.7802 -1.6232
15555TIP3    H268157   5.233   0.706  12.858  2.0652 -1.5322  0.3917
15556TIP3   OH268158   5.170   5.783   3.992 -0.3149 -0.0865  0.0587
15556TIP3    H168159   5.262   5.782   3.964 -0.4106  1.2612 -0.3411
15556TIP3    H268160   5.134   5.702   3.955  0.1510  0.4728 -1.7467
15557TIP3   OH268161   4.998   6.336   2.020  0.5189  0.6041 -0.1489
15557TIP3    H168162   5.057   6.261   2.023  0.1747  0.2876 -0.8915
15557TIP3    H268163   5.052   6.410   2.047  1.1991  0.2831 -0.5919
15558TIP3   OH268164   3.255   5.355   6.967 -0.6863  0.1040 -0.0043
15558TIP3    H168165   3.237   5.431   6.913 -0.9850 -0.6089 -0.9423
15558TIP3    H268166   3.265   5.283   6.904 -0.0658 -0.5594  0.8364
15559TIP3   OH268167   5.320   2.345  12.650  0.1704  0.1736 -0.1826
15559TIP3    H168168   5.255   2.277  12.669 -1.1496  0.9516 -1.6623
15559TIP3    H268169   5.320   2.352  12.555  0.9284  1.6319 -0.1042
15560TIP3   OH268170   3.568   0.017  16.087 -0.1201  0.1154  0.5683
15560TIP3    H168171   3.511  -0.055  16.061 -1.0237  0.6084  1.1531
15560TIP3    H268172   3.641  -0.026  16.132 -0.8438 -0.4142  1.2641
15561TIP3   OH268173   3.501   3.157   5.473 -0.4379 -0.1351  0.0775
15561TIP3    H168174   3.487   3.063   5.465  1.0870 -0.3138 -1.3228
15561TIP3    H268175   3.595   3.166   5.491 -0.2595  1.1282 -1.2499
15562TIP3   OH268176   5.573   2.315  13.989 -0.0697  0.0771 -0.0709
15562TIP3    H168177   5.661   2.353  13.981  0.4503 -1.2913 -1.1771
15562TIP3    H268178   5.518   2.389  14.017  1.0649  1.4311 -1.2245
15563TIP3   OH268179   5.075   3.066   0.678 -0.8480 -0.3852  0.1164
15563TIP3    H168180   5.062   3.143   0.622 -1.2630  0.0822  0.8280
15563TIP3    H268181   5.102   2.997   0.618  0.2129  0.4849 -0.4587
15564TIP3   OH268182   3.141   1.828   3.549  0.1300  0.4262 -0.2632
15564TIP3    H168183   3.214   1.888   3.564  1.1316 -0.3211 -1.9062
15564TIP3    H268184   3.170   1.773   3.477 -1.7425 -0.4483 -0.3947
15565TIP3   OH268185   0.628   4.922   1.085  0.2034  0.4919  0.0224
15565TIP3    H168186   0.572   4.887   1.154 -0.8207  0.0312 -1.0118
15565TIP3    H268187   0.659   4.845   1.037  0.3421  0.8402 -0.4623
15566TIP3   OH268188   3.346   4.764   0.307  0.0281  1.2517 -0.5770
15566TIP3    H168189   3.424   4.803   0.348  0.3694 -1.5759  1.7969
15566TIP3    H268190   3.380   4.689   0.258 -1.1310  0.0694  0.3671
15567TIP3   OH268191   5.104   3.647  12.811 -0.0669  0.1739 -0.2650
15567TIP3    H168192   5.182   3.611  12.770 -0.7182  0.5499 -1.8982
15567TIP3    H268193   5.128   3.656  12.904  1.9687  0.6855 -0.7855
15568TIP3   OH268194   3.080   3.086  11.613  0.8136  0.1766 -0.0824
15568TIP3    H168195   3.173   3.064  11.605  0.6029 -0.3294 -1.5085
15568TIP3    H268196   3.048   3.030  11.683  1.5847  0.3579  0.4200
15569TIP3   OH268197   2.173   0.715  13.864  0.8176  0.3536  0.0302
15569TIP3    H168198   2.114   0.785  13.893  0.7657 -0.0558  0.9691
15569TIP3    H268199   2.251   0.760  13.833  0.2328  0.8787 -0.7002
15570TIP3   OH268200   2.209   0.175   5.211 -0.9388  0.6280  0.5627
15570TIP3    H168201   2.138   0.113   5.195  0.9315 -1.7098  0.6274
15570TIP3    H268202   2.212   0.184   5.307 -1.4724  1.1758  0.5332
15571TIP3   OH268203   4.805   0.124  14.035  0.0245  0.5763  0.2449
15571TIP3    H168204   4.883   0.102  13.986 -1.5686 -0.5447 -1.9578
15571TIP3    H268205   4.765   0.195  13.985 -0.8498  0.4894  0.7957
15572TIP3   OH268206   5.706   5.749   4.071 -0.1827  0.2335  0.4814
15572TIP3    H168207   5.673   5.793   4.149 -1.7179  1.3187 -0.7056
15572TIP3    H268208   5.780   5.803   4.042  0.4003 -0.1812  1.1665
15573TIP3   OH268209   4.037   4.365   2.835  0.2155  0.1684  0.2062
15573TIP3    H168210   4.061   4.342   2.746  0.5568 -1.6551  0.7414
15573TIP3    H268211   3.941   4.367   2.834  0.2196  2.0308 -0.6123
15574TIP3   OH268212   3.727   5.412   5.503  0.1512  0.5183  0.0548
15574TIP3    H168213   3.748   5.465   5.426  2.4649  0.3208  0.4832
15574TIP3    H268214   3.760   5.325   5.482 -0.2963  0.1548  0.8104
15575TIP3   OH268215   5.630   4.438  11.415 -0.1053 -0.2049 -0.5292
15575TIP3    H168216   5.586   4.462  11.334 -0.4137 -0.2022 -0.3638
15575TIP3    H268217   5.568   4.463  11.484  0.8092  1.2823 -0.2060
15576TIP3   OH268218   0.548   5.213   2.232 -0.3360 -0.4278  0.0234
15576TIP3    H168219   0.475   5.209   2.169 -0.0511  0.4891 -0.3851
15576TIP3    H268220   0.532   5.294   2.280  0.4831 -0.1617 -0.1497
15577TIP3   OH268221   5.804   2.201   4.787  0.2577 -0.0036  0.1313
15577TIP3    H168222   5.778   2.289   4.815 -1.7578 -0.5693  0.1764
15577TIP3    H268223   5.823   2.210   4.694  1.6155  0.7747  0.4630
15578TIP3   OH268224   0.436   4.669   5.885 -0.2354 -0.2459  0.3349
15578TIP3    H168225   0.372   4.736   5.862 -0.3283 -0.2359  0.6201
15578TIP3    H268226   0.521   4.714   5.878 -0.1609 -0.5530 -1.1356
15579TIP3   OH268227   0.983   6.308  15.681  0.2480 -0.9515 -0.0081
15579TIP3    H168228   0.950   6.252  15.751  1.0065 -0.6151  0.6348
15579TIP3    H268229   0.905   6.337  15.635 -0.2517 -1.3374  0.5788
15580TIP3   OH268230   2.899   5.094  13.472 -0.6696  0.4237  0.6330
15580TIP3    H168231   2.905   5.081  13.567  0.5760 -0.4460  0.4594
15580TIP3    H268232   2.990   5.094  13.442 -1.0816 -3.0524 -1.0325
15581TIP3   OH268233   6.151   5.507   3.944 -0.4506  0.3702 -0.3834
15581TIP3    H168234   6.245   5.491   3.936 -0.2795  0.7526  0.6893
15581TIP3    H268235   6.140   5.598   3.916 -0.5094  0.3073 -0.5643
15582TIP3   OH268236   4.273   4.140  11.901 -0.5212 -0.2224 -0.8362
15582TIP3    H168237   4.266   4.047  11.921  0.4585 -0.0641  0.3705
15582TIP3    H268238   4.194   4.179  11.940  0.5124 -0.1666  1.3581
15583TIP3   OH268239   6.168   3.037  14.098 -0.0766 -0.0262 -0.3427
15583TIP3    H168240   6.101   3.054  14.033  0.6014  0.9108 -0.8153
15583TIP3    H268241   6.169   2.942  14.107 -0.8790 -0.1012 -0.9419
15584TIP3   OH268242   0.429   3.743   0.805 -0.2525  0.0439 -0.4149
15584TIP3    H168243   0.347   3.784   0.833 -0.8331 -1.0783 -0.4191
15584TIP3    H268244   0.492   3.816   0.799 -1.2061  0.8938 -0.2808
15585TIP3   OH268245   5.357   2.059  11.523  0.3705  0.2783  0.2128
15585TIP3    H168246   5.431   2.014  11.484  0.1696  1.0961 -1.1771
15585TIP3    H268247   5.359   2.147  11.484 -0.3898  0.8389  1.3626
15586TIP3   OH268248   4.691   6.352   3.220  0.0098  0.0435 -0.3505
15586TIP3    H168249   4.755   6.281   3.224  0.3239  0.3825  1.5096
15586TIP3    H268250   4.608   6.308   3.202  0.0274 -0.9490  1.7417
15587TIP3   OH268251   5.759   2.981  12.176 -0.0579 -0.3124  0.2569
15587TIP3    H168252   5.707   3.061  12.180  1.5425  0.7235  2.0512
15587TIP3    H268253   5.695   2.911  12.165 -1.5978  1.0933 -0.1213
15588TIP3   OH268254   0.975   0.477   6.603  0.7521  0.3431 -0.0346
15588TIP3    H168255   0.891   0.490   6.647 -0.5149  1.0713 -2.4977
15588TIP3    H268256   1.035   0.537   6.647 -0.4012  0.9279  0.7878
15589TIP3   OH268257   0.322   3.350  16.977  0.6695 -0.2430  0.7832
15589TIP3    H168258   0.386   3.316  17.039  1.0281  0.2744  0.7052
15589TIP3    H268259   0.375   3.390  16.907  0.2662  0.3596  0.8117
15590TIP3   OH268260   5.340   4.668   1.739 -0.5798 -0.0160  0.4554
15590TIP3    H168261   5.374   4.629   1.658 -0.3556 -0.3468  0.7028
15590TIP3    H268262   5.324   4.759   1.717  0.0207  0.0304  0.1941
15591TIP3   OH268263   0.907   4.687   6.424  0.2935 -0.2551 -0.2656
15591TIP3    H168264   0.962   4.686   6.502 -1.4616 -0.2811  1.0405
15591TIP3    H268265   0.964   4.656   6.353  1.9320 -0.2248  0.9855
15592TIP3   OH268266   1.380   6.398   3.718  0.4366  0.3934 -0.2774
15592TIP3    H168267   1.431   6.419   3.796  0.0235  0.3719  0.0010
15592TIP3    H268268   1.385   6.302   3.711 -1.5167  0.1306  1.1227
15593TIP3   OH268269   6.622   1.896   0.678  0.2565 -0.1169  0.9606
15593TIP3    H168270   6.528   1.911   0.687  0.6089  1.9146  1.9206
15593TIP3    H268271   6.655   1.897   0.768  1.4021  1.0333  0.5568
15594TIP3   OH268272   1.867   5.308   3.714  0.3757  0.1050  0.0171
15594TIP3    H168273   1.787   5.256   3.705  0.2250  0.1964  0.7896
15594TIP3    H268274   1.838   5.398   3.704  0.3068  0.1662  0.7039
15595TIP3   OH268275   2.049   3.993   1.287 -0.0289  0.4141  0.5189
15595TIP3    H168276   1.989   3.944   1.231  0.1720  1.6514 -0.8701
15595TIP3    H268277   2.112   3.927   1.317  0.0022 -0.2872 -0.9445
15596TIP3   OH268278   3.361   2.248  12.662 -0.2745  0.2021 -0.1938
15596TIP3    H168279   3.397   2.315  12.719  1.8674 -0.9164 -0.1269
15596TIP3    H268280   3.429   2.232  12.597 -1.7001 -0.2338 -1.6468
15597TIP3   OH268281   4.028   2.847  14.324 -0.5864 -0.0908  0.3577
15597TIP3    H168282   4.007   2.849  14.418  0.5226  0.4113  0.6068
15597TIP3    H268283   4.122   2.864  14.320 -0.7012  0.3352 -0.8784
15598TIP3   OH268284   0.663   5.156   1.238 -0.2176  1.0461 -0.1077
15598TIP3    H168285   0.578   5.192   1.214  0.0384  0.2761 -2.3772
15598TIP3    H268286   0.666   5.070   1.197  1.5263  0.9046  0.2155
15599TIP3   OH268287   0.040   2.744  16.710  0.2977  0.5452  0.2144
15599TIP3    H168288   0.047   2.725  16.616  2.7856  0.6448  0.3255
15599TIP3    H268289   0.013   2.836  16.713 -1.8213  0.0078 -0.3353
15600TIP3   OH268290   4.248   6.625  15.112  0.6381 -0.0112  0.6031
15600TIP3    H168291   4.319   6.669  15.159  0.4884  1.4329 -0.4545
15600TIP3    H268292   4.271   6.634  15.019 -1.2902  1.2330  0.1853
15601TIP3   OH268293   5.210   5.731   4.299  0.5827 -0.2191 -0.5416
15601TIP3    H168294   5.299   5.702   4.318  0.3382 -1.6560 -1.4172
15601TIP3    H268295   5.194   5.703   4.209 -1.5759 -2.2699  0.3662
15602TIP3   OH268296   6.361   1.884  16.125 -0.0264 -0.2132 -0.1573
15602TIP3    H168297   6.308   1.822  16.174  0.0724 -2.5917 -2.8058
15602TIP3    H268298   6.325   1.881  16.036  2.0574  1.0684 -1.1135
15603TIP3   OH268299   0.190   0.694  15.266  0.0009 -1.2518 -0.4893
15603TIP3    H168300   0.249   0.624  15.296 -0.9008 -1.4577  0.8983
15603TIP3    H268301   0.109   0.648  15.243 -0.5690 -0.6940  0.3417
15604TIP3   OH268302   4.130   2.168  17.058 -0.0285 -0.5749  0.0956
15604TIP3    H168303   4.101   2.078  17.047  0.1000 -0.7788  1.2946
15604TIP3    H268304   4.225   2.162  17.069 -0.0746 -0.3449  0.6403
15605TIP3   OH268305   0.395   1.145   1.592 -1.0697  0.0743  0.0517
15605TIP3    H168306   0.334   1.207   1.632 -0.7414  0.7292 -0.4371
15605TIP3    H268307   0.400   1.174   1.500  0.5778  0.5231  0.2604
15606TIP3   OH268308   4.254   0.336  15.996 -0.5970 -0.4096 -0.3057
15606TIP3    H168309   4.326   0.278  15.972  0.8096  1.2180 -0.2204
15606TIP3    H268310   4.175   0.285  15.978  0.5501 -2.5597  0.3801
15607TIP3   OH268311   1.119   4.690  12.592  0.0052  0.2185 -0.0569
15607TIP3    H168312   1.115   4.597  12.613  1.4130 -0.2986 -1.8364
15607TIP3    H268313   1.181   4.696  12.519  1.3727  2.7668  1.1887
15608TIP3   OH268314   3.477   4.840   4.724  0.7220 -0.0502  0.1296
15608TIP3    H168315   3.386   4.828   4.752 -0.0822  0.0843 -2.1930
15608TIP3    H268316   3.476   4.920   4.671  1.8328 -0.9019 -1.2646
15609TIP3   OH268317   0.148   5.444   1.558 -0.6192 -0.5397  0.0569
15609TIP3    H168318   0.138   5.539   1.552 -1.0465 -0.6280 -0.7805
15609TIP3    H268319   0.063   5.409   1.532 -0.7559 -1.1480  1.2380
15610TIP3   OH268320   2.106   6.503   2.368  0.2539 -0.1883 -0.4741
15610TIP3    H168321   2.057   6.548   2.300  0.8288  0.8330 -0.2326
15610TIP3    H268322   2.039   6.462   2.423 -0.6287  3.2264  1.3116
15611TIP3   OH268323   0.258   4.328   2.556  0.1820  0.2197  0.8211
15611TIP3    H168324   0.224   4.416   2.571  1.3957  0.4257  2.6726
15611TIP3    H268325   0.339   4.342   2.507 -1.1556 -0.1299 -1.6505
15612TIP3   OH268326   0.836   3.269  11.881 -0.3098  0.2739  0.7307
15612TIP3    H168327   0.847   3.192  11.825 -0.2999  0.6455  0.2152
15612TIP3    H268328   0.890   3.337  11.840  0.7774  0.1712  1.9537
15613TIP3   OH268329   4.367   2.340  16.044 -0.3186 -0.7179  0.1251
15613TIP3    H168330   4.319   2.272  15.998 -0.5920 -0.4897  0.0697
15613TIP3    H268331   4.428   2.293  16.101  0.6497 -1.0134 -1.0933
15614TIP3   OH268332   1.935   1.773   2.613  0.0162  0.6307  0.1978
15614TIP3    H168333   2.007   1.837   2.613 -0.8817  1.6673 -0.6738
15614TIP3    H268334   1.969   1.700   2.665  2.1079  0.6161 -1.0713
15615TIP3   OH268335   4.711   2.655  14.193 -0.1263  0.9092  0.4340
15615TIP3    H168336   4.697   2.747  14.215 -0.5945  1.0647 -0.4857
15615TIP3    H268337   4.803   2.650  14.168  0.0903  0.9730  1.1829
15616TIP3   OH268338   3.357   4.216   4.547  0.0410  0.2755 -0.0695
15616TIP3    H168339   3.389   4.130   4.573  0.1627  0.0130 -1.0499
15616TIP3    H268340   3.436   4.266   4.527  0.1453  1.4514  2.8535
15617TIP3   OH268341   4.029   5.028   0.558  0.1004  0.5348  0.0693
15617TIP3    H168342   4.121   5.048   0.542  0.4820 -1.3199 -0.2771
15617TIP3    H268343   4.000   4.982   0.480 -0.6320 -0.3981  0.8592
15618TIP3   OH268344   2.608   5.552   0.844 -0.2235 -0.2460 -0.1063
15618TIP3    H168345   2.516   5.531   0.864 -0.9545  2.3687 -0.2538
15618TIP3    H268346   2.657   5.517   0.917 -1.3600 -1.4887  0.1073
15619TIP3   OH268347   3.561   3.704   5.149  0.7665 -0.4708  0.2651
15619TIP3    H168348   3.510   3.641   5.099 -1.4221 -0.3242  2.1876
15619TIP3    H268349   3.505   3.782   5.156  0.9470 -0.4790  2.8472
15620TIP3   OH268350   2.809   0.848   1.743  0.4725  0.5116  0.1327
15620TIP3    H168351   2.736   0.869   1.800 -1.0913 -2.7205 -0.4214
15620TIP3    H268352   2.768   0.829   1.658  2.2696  1.0553 -0.9125
15621TIP3   OH268353   6.074   4.386  17.114 -0.4063  0.0196  0.2788
15621TIP3    H168354   6.040   4.430  17.036  0.2650  0.6179  0.3084
15621TIP3    H268355   6.005   4.397  17.179 -0.6413  0.2181  0.0020
15622TIP3   OH268356   6.416   4.948   0.529 -0.0518 -0.0510 -0.4005
15622TIP3    H168357   6.477   5.013   0.495 -0.1519 -0.0522 -0.5832
15622TIP3    H268358   6.330   4.988   0.520 -0.0603  0.0265  0.0353
15623TIP3   OH268359   4.565   3.809  14.210  0.2611 -0.1080 -0.1167
15623TIP3    H168360   4.493   3.833  14.152 -0.8477 -2.3582  0.1870
15623TIP3    H268361   4.565   3.876  14.278  1.3736  2.3996 -2.4489
15624TIP3   OH268362   5.142   3.929   0.287 -0.3512 -0.1278 -0.0590
15624TIP3    H168363   5.125   3.927   0.381 -1.4935  1.1789 -0.2062
15624TIP3    H268364   5.105   3.848   0.254  0.6306 -0.9081  0.6734
15625TIP3   OH268365   1.492   4.030   5.693 -0.0527  0.3347  0.1612
15625TIP3    H168366   1.430   3.958   5.699 -0.3860  0.7126  1.5660
15625TIP3    H268367   1.573   3.996   5.731  0.2528  0.2167 -0.5874
15626TIP3   OH268368   0.042   5.076   3.575  0.4008 -0.4564  0.0357
15626TIP3    H168369   0.060   5.088   3.668  2.9024 -1.7222 -0.2065
15626TIP3    H268370  -0.015   5.150   3.552 -1.0102 -0.5957  2.7067
15627TIP3   OH268371   3.341   0.555   1.022 -0.1541  0.7896 -0.2966
15627TIP3    H168372   3.313   0.547   0.931 -1.6530  0.9091  0.1150
15627TIP3    H268373   3.287   0.626   1.058 -0.9791 -0.4920  1.1501
15628TIP3   OH268374   0.706   5.431   1.354  0.3950 -0.4385 -0.6437
15628TIP3    H168375   0.792   5.404   1.321  0.4202 -1.9955  0.5732
15628TIP3    H268376   0.651   5.353   1.344 -0.3062 -0.1164  0.4817
15629TIP3   OH268377   2.993   3.449   3.058  0.5266 -0.3547  0.4540
15629TIP3    H168378   3.086   3.431   3.046  0.6134  0.8488 -0.8732
15629TIP3    H268379   2.982   3.455   3.153  2.2247  1.5029  0.5982
15630TIP3   OH268380   2.477   2.050  16.924  0.0705  0.0628  0.1210
15630TIP3    H168381   2.398   2.044  16.978  0.1390 -0.1510  0.2024
15630TIP3    H268382   2.548   2.033  16.986  0.0913 -1.1252 -0.2095
15631TIP3   OH268383   4.031   4.697  15.351 -0.0445  0.0097  0.1662
15631TIP3    H168384   3.938   4.688  15.371  0.0227  0.2736  0.6262
15631TIP3    H268385   4.043   4.791  15.336  0.0945 -0.0615 -0.1746
15632TIP3   OH268386   0.751   5.892  11.629  0.3123 -0.1407 -0.7409
15632TIP3    H168387   0.676   5.882  11.688  1.5210 -1.4212  0.6576
15632TIP3    H268388   0.725   5.847  11.549 -0.3434 -0.7506 -0.1964
15633TIP3   OH268389   4.731   3.035  12.798 -0.3538  0.3313  0.0903
15633TIP3    H168390   4.747   3.048  12.891  1.5327 -0.4050 -0.0835
15633TIP3    H268391   4.693   2.948  12.791 -2.0599  1.0149  0.2640
15634TIP3   OH268392   3.161   1.765   4.672  0.3970 -0.0633  0.5067
15634TIP3    H168393   3.252   1.793   4.673 -0.0990  1.6559  0.0107
15634TIP3    H268394   3.130   1.778   4.762  0.3608  0.3391  0.4370
15635TIP3   OH268395   6.608   2.778  13.909  0.0614 -0.0418  0.0296
15635TIP3    H168396   6.568   2.691  13.919  1.1953 -0.7082 -1.0077
15635TIP3    H268397   6.564   2.816  13.833  1.0492 -0.5943 -0.8368
15636TIP3   OH268398   3.709   2.274   5.421  0.4985 -0.1605  0.0896
15636TIP3    H168399   3.743   2.234   5.500  0.1494 -0.0456  0.3007
15636TIP3    H268400   3.711   2.368   5.439 -1.7825 -0.2169  0.8897
15637TIP3   OH268401   2.924   0.417  10.992 -0.0510 -0.2776 -0.0455
15637TIP3    H168402   2.980   0.351  10.950 -0.7342 -0.1559 -1.1904
15637TIP3    H268403   2.855   0.365  11.034  0.5321 -0.3892  0.8027
15638TIP3   OH268404   5.484   1.102  12.597 -0.5398 -0.0815  0.7615
15638TIP3    H168405   5.469   1.182  12.547  0.7066 -0.4863 -0.2880
15638TIP3    H268406   5.572   1.112  12.633 -0.9413 -0.3478  1.8672
15639TIP3   OH268407   4.230   0.918   3.876  0.1489  0.1160 -0.4141
15639TIP3    H168408   4.305   0.978   3.868  0.4078  0.0843  1.3855
15639TIP3    H268409   4.269   0.832   3.888 -0.1718  0.0149 -0.0575
15640TIP3   OH268410   0.323   6.445   0.039 -0.0829 -0.0548 -0.6778
15640TIP3    H168411   0.352   6.536   0.031 -0.9453  0.1860 -1.1275
15640TIP3    H268412   0.301   6.435   0.132 -1.0061  0.5194 -0.8224
15641TIP3   OH268413   3.065   3.573   6.199  0.4023  0.7937  0.3946
15641TIP3    H168414   3.084   3.626   6.277 -1.1441  0.0451  1.3278
15641TIP3    H268415   3.100   3.487   6.219 -0.6979  0.3894  0.5960
15642TIP3   OH268416   1.810   3.641  15.893  0.2198  0.3155 -0.6757
15642TIP3    H168417   1.818   3.601  15.980  0.9022  1.9073  0.0363
15642TIP3    H268418   1.785   3.568  15.836  1.3268 -1.1155  0.5452
15643TIP3   OH268419   0.027   1.594   1.049 -0.0288 -0.2999 -0.5024
15643TIP3    H168420   0.047   1.503   1.070 -0.2928 -0.5284 -1.1956
15643TIP3    H268421  -0.055   1.612   1.094  0.1384 -0.3382 -0.1838
15644TIP3   OH268422   2.890   3.955  16.571  0.9193  0.1772 -0.1817
15644TIP3    H168423   2.968   3.926  16.618  1.5435 -0.5180 -1.5750
15644TIP3    H268424   2.891   3.905  16.489 -2.9281 -2.6448  1.1868
15645TIP3   OH268425   2.581   1.342   3.142  0.3825 -0.3398  0.1896
15645TIP3    H168426   2.503   1.352   3.088  0.2985  1.1102  0.5425
15645TIP3    H268427   2.653   1.338   3.079  0.4511  2.8721 -0.1035
15646TIP3   OH268428   6.590   0.340   2.035 -0.2668  0.3356 -0.1643
15646TIP3    H168429   6.667   0.357   1.980  0.0346  0.0605  0.1643
15646TIP3    H268430   6.577   0.245   2.029 -0.0153  0.2534  0.5186
15647TIP3   OH268431   4.530   4.123  15.636 -0.3711 -0.2359 -0.1138
15647TIP3    H168432   4.440   4.155  15.639 -0.0898  0.5435  0.5774
15647TIP3    H268433   4.569   4.157  15.717  0.2883 -1.3263  0.0422
15648TIP3   OH268434   5.918   3.895  15.185  0.1955  0.3555  0.0495
15648TIP3    H168435   5.899   3.928  15.273  0.8643 -0.2364  0.4245
15648TIP3    H268436   5.832   3.877  15.148 -0.0896  0.4155  0.6561
15649TIP3   OH268437   2.669   1.603   3.221  1.0389 -0.5038 -0.3986
15649TIP3    H168438   2.745   1.558   3.185  1.2799 -1.6163  1.3802
15649TIP3    H268439   2.603   1.534   3.230  0.3378  0.1393 -0.5057
15650TIP3   OH268440   1.121   3.340  14.603  0.2225 -0.2698  0.0923
15650TIP3    H168441   1.034   3.377  14.596 -0.0628 -0.3892  2.2287
15650TIP3    H268442   1.134   3.326  14.697  2.0459 -1.4312 -0.2651
15651TIP3   OH268443   2.391   3.243  17.246 -0.2478 -0.5205  0.4095
15651TIP3    H168444   2.383   3.339  17.245  0.9578 -0.3826  1.1210
15651TIP3    H268445   2.429   3.221  17.161 -0.2534 -0.3268  0.3559
15652TIP3   OH268446   2.852   5.076   3.159 -0.1074  0.6367 -0.0461
15652TIP3    H168447   2.793   5.151   3.146 -1.4856 -0.3918  0.1088
15652TIP3    H268448   2.891   5.092   3.245 -0.3262  1.2287 -0.0472
15653TIP3   OH268449   3.348   3.388  12.636 -0.3278 -0.8510 -0.1463
15653TIP3    H168450   3.402   3.311  12.618 -0.1716 -0.6396 -0.5881
15653TIP3    H268451   3.404   3.446  12.687 -0.6628 -1.3068  0.7783
15654TIP3   OH268452   0.056   4.912  17.313  0.1814  0.1735 -0.1879
15654TIP3    H168453  -0.001   4.989  17.311  0.6272  0.5005 -1.8301
15654TIP3    H268454   0.140   4.944  17.344  0.4191  0.3840 -1.0541
15655TIP3   OH268455   3.532   0.118  14.808 -0.4778 -0.3245  0.1206
15655TIP3    H168456   3.509   0.073  14.727  1.6266 -2.0737  0.3937
15655TIP3    H268457   3.627   0.129  14.803 -0.7417  3.3577  0.5376
15656TIP3   OH268458   6.180   2.726  13.918 -0.0851 -0.0124 -0.1124
15656TIP3    H168459   6.208   2.676  13.842  0.8664  0.0878  0.1586
15656TIP3    H268460   6.178   2.662  13.990  0.3597  0.1802  0.0692
15657TIP3   OH268461   2.093   3.295   4.946  0.2636 -0.2596  0.5538
15657TIP3    H168462   2.034   3.233   4.903  0.8424 -1.3764  1.3135
15657TIP3    H268463   2.146   3.241   5.004  3.0087  0.4761 -1.0767
15658TIP3   OH268464   0.173   3.032   4.562 -0.3284  0.1876  0.7685
15658TIP3    H168465   0.266   3.023   4.581 -0.5684 -0.9740  1.5755
15658TIP3    H268466   0.160   3.125   4.543  1.3414  0.0451 -1.4504
15659TIP3   OH268467   4.388   4.388   5.334  0.4303  0.0843 -0.1684
15659TIP3    H168468   4.465   4.333   5.316  1.2315  0.6709  1.2406
15659TIP3    H268469   4.425   4.473   5.357 -0.6460  0.3808  0.5172
15660TIP3   OH268470   0.773   2.367  15.470  0.0069 -0.2244  0.1883
15660TIP3    H168471   0.813   2.367  15.384 -1.3147 -1.1128 -0.4654
15660TIP3    H268472   0.837   2.324  15.527 -0.5779 -3.0932 -1.1512
15661TIP3   OH268473   4.211   3.595   1.386 -0.4295 -0.1059  0.0719
15661TIP3    H168474   4.255   3.678   1.367 -0.6741  0.1025  0.4038
15661TIP3    H268475   4.141   3.590   1.321 -0.8454  0.2853  0.4719
15662TIP3   OH268476   1.154   4.829  11.846  0.3781 -0.2294  0.0057
15662TIP3    H168477   1.233   4.807  11.895  0.2651  0.9620  0.7647
15662TIP3    H268478   1.176   4.809  11.755  0.5860 -2.4765  0.4924
15663TIP3   OH268479   4.397   4.130  16.933  0.1090 -0.2138 -0.7398
15663TIP3    H168480   4.432   4.122  17.021  0.2590 -0.5763 -0.8290
15663TIP3    H268481   4.334   4.058  16.925 -0.4411  0.2551 -0.6809
15664TIP3   OH268482   6.003   4.601   3.225  0.5963  0.2341 -0.4814
15664TIP3    H168483   6.063   4.627   3.155  0.5967  0.0292 -0.5581
15664TIP3    H268484   6.044   4.635   3.305  0.7776  0.1585 -0.5416
15665TIP3   OH268485   5.021   6.413  14.444  0.0681  0.6824 -0.1175
15665TIP3    H168486   4.957   6.346  14.467  0.3887 -0.1480 -1.4911
15665TIP3    H268487   5.057   6.384  14.360 -0.0762  2.7946 -0.9920
15666TIP3   OH268488   6.391   4.167  15.183 -0.6370 -0.5524  1.0091
15666TIP3    H168489   6.360   4.100  15.122  0.7968 -1.2424  0.9833
15666TIP3    H268490   6.468   4.127  15.224  0.5310  1.2429  0.6757
15667TIP3   OH268491   1.365   1.864  14.054 -0.0961 -0.8242  0.1822
15667TIP3    H168492   1.335   1.947  14.017 -0.8380 -1.4216 -0.6017
15667TIP3    H268493   1.328   1.863  14.142 -2.2575 -1.4001 -0.6522
15668TIP3   OH268494   1.469   2.964   2.323 -0.1283  0.0598 -0.5648
15668TIP3    H168495   1.448   2.874   2.346  0.6251  0.3819  1.6779
15668TIP3    H268496   1.402   3.016   2.367  0.6592  0.6560 -0.0280
15669TIP3   OH268497   5.873   6.487   1.713  0.4247  0.0482  0.1836
15669TIP3    H168498   5.877   6.541   1.792  0.1530  1.4506 -0.7264
15669TIP3    H268499   5.873   6.550   1.641  1.1210 -1.2101 -0.9618
15670TIP3   OH268500   4.454   2.814  11.432  0.3719  0.1071  0.1543
15670TIP3    H168501   4.377   2.860  11.400  0.2966 -0.8583 -1.1473
15670TIP3    H268502   4.517   2.819  11.361  1.2133  0.1642  0.8805
15671TIP3   OH268503   2.598   3.917  12.395  0.0888  0.4733  0.4293
15671TIP3    H168504   2.676   3.934  12.343 -0.1767  1.1569  0.2423
15671TIP3    H268505   2.530   3.973  12.357 -0.3174  0.3901  1.0065
15672TIP3   OH268506   2.839   2.776  13.123 -0.6354 -0.2854 -0.4636
15672TIP3    H168507   2.842   2.830  13.202  3.7963  0.4684 -0.9153
15672TIP3    H268508   2.822   2.838  13.052  0.9614 -0.0177 -0.6281
15673TIP3   OH268509   3.676   4.705   0.697  0.1223  0.2359  0.0746
15673TIP3    H168510   3.698   4.790   0.734 -0.3809  0.6030 -0.4665
15673TIP3    H268511   3.647   4.723   0.608 -0.6967 -0.4137  0.1922
15674TIP3   OH268512   2.919   4.287  12.190  0.1262  0.3376  0.0493
15674TIP3    H168513   2.906   4.369  12.239 -2.1694 -0.4712  0.9207
15674TIP3    H268514   3.014   4.281  12.178  0.4861  2.2415  1.4833
15675TIP3   OH268515   2.556   1.396   4.851  0.2543  0.5754  0.0392
15675TIP3    H168516   2.565   1.303   4.829  2.0781  0.4540  1.0862
15675TIP3    H268517   2.598   1.442   4.779 -0.5983  0.5983 -0.4514
15676TIP3   OH268518   4.856   6.289  15.969 -0.3124  0.5049  0.1653
15676TIP3    H168519   4.801   6.342  16.026 -1.4311  0.8867 -1.1932
15676TIP3    H268520   4.846   6.328  15.882 -1.2370 -1.8773 -0.9171
15677TIP3   OH268521   5.056   4.718  17.335  0.2633 -0.1380 -0.2091
15677TIP3    H168522   5.030   4.668  17.258  1.0678  0.9987 -1.2620
15677TIP3    H268523   4.994   4.791  17.338  1.6655  1.1605 -1.2381
15678TIP3   OH268524   5.401   3.206   3.133  0.1116 -0.3317  0.2011
15678TIP3    H168525   5.476   3.154   3.163  0.5113  0.0727 -0.0846
15678TIP3    H268526   5.361   3.152   3.065 -0.7490 -1.2140  1.3720
15679TIP3   OH268527   0.636   3.202  15.740  0.1567 -0.1689 -0.4784
15679TIP3    H168528   0.543   3.217  15.721 -0.2790 -1.1849  0.6726
15679TIP3    H268529   0.638   3.185  15.835  1.2418 -1.9861 -0.7699
15680TIP3   OH268530   2.826   5.125   1.098  0.7001  0.2609  0.0119
15680TIP3    H168531   2.824   5.074   1.179 -0.3381 -0.7919 -0.6449
15680TIP3    H268532   2.918   5.152   1.088  0.4961  2.3704  2.6742
15681TIP3   OH268533   5.667   1.221   2.021  0.0536  0.4890 -0.5553
15681TIP3    H168534   5.620   1.155   1.970  1.9407 -0.9674 -0.5603
15681TIP3    H268535   5.651   1.197   2.112  1.0298 -0.2527 -0.5589
15682TIP3   OH268536   3.319   0.008  12.341 -0.0244  0.0513  0.0301
15682TIP3    H168537   3.329   0.098  12.312  0.6601 -0.5233 -1.6580
15682TIP3    H268538   3.409  -0.025  12.348 -0.2906 -0.9709 -1.0475
15683TIP3   OH268539   4.930   0.935  12.258 -0.2247 -0.4248 -0.0477
15683TIP3    H168540   4.857   0.878  12.282 -2.3340  2.1383  0.0153
15683TIP3    H268541   4.956   0.976  12.340  1.5892 -1.5068 -0.0152
15684TIP3   OH268542   5.562   0.296   4.569  0.1027  0.0594  0.8645
15684TIP3    H168543   5.653   0.319   4.589 -0.2265  1.0548  1.3273
15684TIP3    H268544   5.534   0.362   4.506 -0.1998 -0.4537  0.4541
15685TIP3   OH268545   0.700   1.981  16.298  0.1839  0.4565  0.2859
15685TIP3    H168546   0.674   2.045  16.364  2.6809  0.6687  1.1881
15685TIP3    H268547   0.794   1.995  16.287 -0.0134  0.1159 -3.0136
15686TIP3   OH268548   3.957   6.205  14.249 -0.0180 -0.3469 -0.3829
15686TIP3    H168549   4.008   6.284  14.233  0.3048 -0.4201  0.2746
15686TIP3    H268550   3.866   6.235  14.250  0.0887 -0.0220 -0.3747
15687TIP3   OH268551   5.523   3.377   5.803 -0.4784 -0.1952 -0.4423
15687TIP3    H168552   5.590   3.398   5.869  1.0407  2.3280 -2.5524
15687TIP3    H268553   5.563   3.308   5.749 -0.8681 -0.8136  0.0481
15688TIP3   OH268554   4.892   0.113  16.388 -0.2534 -0.6600  0.1394
15688TIP3    H168555   4.848   0.182  16.337 -1.3400 -2.4866 -1.5418
15688TIP3    H268556   4.832   0.094  16.460  0.2867  0.4521  0.9095
15689TIP3   OH268557   2.452   3.714   4.235 -0.1369  0.6402 -0.0925
15689TIP3    H168558   2.502   3.695   4.314 -0.1764  2.0733  0.3049
15689TIP3    H268559   2.374   3.760   4.267  0.2098  1.9253 -0.9939
15690TIP3   OH268560   6.462   2.638  14.670 -0.2656 -0.5330 -0.1903
15690TIP3    H168561   6.475   2.548  14.638  1.4356  0.3443 -2.1846
15690TIP3    H268562   6.492   2.635  14.761 -1.2368 -2.1909  0.1171
15691TIP3   OH268563   2.191   2.690   0.316  0.1504 -0.4004  0.3889
15691TIP3    H168564   2.205   2.643   0.234 -2.2092  1.1173 -1.0082
15691TIP3    H268565   2.127   2.637   0.364 -1.1069  0.3779 -0.3649
15692TIP3   OH268566   1.154   2.777  15.586 -0.0928 -0.6359 -0.0501
15692TIP3    H168567   1.117   2.694  15.616 -1.4967 -0.0121  0.0458
15692TIP3    H268568   1.090   2.843  15.614  1.1814  0.5255  0.2309
15693TIP3   OH268569   1.264   0.751  12.039 -0.1623 -0.4005  0.3178
15693TIP3    H168570   1.310   0.803  12.105  0.0990  1.1995 -1.0384
15693TIP3    H268571   1.240   0.670  12.084 -0.6583  0.9140  2.5933
15694TIP3   OH268572   3.840   1.360   3.916 -0.0873 -0.1059  0.3243
15694TIP3    H168573   3.848   1.455   3.921 -0.6511  0.1011 -1.6451
15694TIP3    H268574   3.860   1.329   4.004 -2.5941  2.0061  1.7688
15695TIP3   OH268575   5.433   4.605  14.746 -0.1458 -0.1897 -0.0497
15695TIP3    H168576   5.437   4.689  14.701 -0.6008 -0.0776  0.1093
15695TIP3    H268577   5.346   4.603  14.785 -1.1085 -1.7581 -2.0734
15696TIP3   OH268578   0.978   3.216  17.114 -0.3888  0.3111  0.2299
15696TIP3    H168579   1.000   3.300  17.153  1.5461 -0.7495  1.5688
15696TIP3    H268580   0.962   3.236  17.022 -0.7520  2.2349  0.6638
15697TIP3   OH268581   2.539   5.724  14.531  0.1655 -0.9206 -0.0892
15697TIP3    H168582   2.463   5.674  14.502 -0.3994 -0.3359  0.3567
15697TIP3    H268583   2.518   5.815  14.508  0.4621 -0.6737  0.5773
15698TIP3   OH268584   4.663   4.551   3.274  0.4803  0.6299 -0.2519
15698TIP3    H168585   4.592   4.589   3.223 -0.5179  0.1991  0.7564
15698TIP3    H268586   4.637   4.566   3.365  1.6246  0.3511  0.1336
15699TIP3   OH268587   1.628   5.513  14.218 -0.2870  0.2952  0.0751
15699TIP3    H168588   1.579   5.452  14.163 -0.5598 -1.0675  1.7431
15699TIP3    H268589   1.719   5.503  14.190 -0.7311  2.0816 -2.3272
15700TIP3   OH268590   4.850   6.363   3.511 -0.3437  0.6650 -0.1977
15700TIP3    H168591   4.767   6.351   3.556 -0.9313  0.1636 -1.3669
15700TIP3    H268592   4.905   6.291   3.541 -0.9118  0.0261 -0.6731
15701TIP3   OH268593   4.570   1.231  12.324 -0.0390 -0.5491  0.5778
15701TIP3    H168594   4.645   1.248  12.380 -0.1966  1.0214  0.3675
15701TIP3    H268595   4.603   1.171  12.257  0.8226 -0.4674  0.9182
15702TIP3   OH268596   3.122   1.237   3.552  0.1715  0.0926  1.5526
15702TIP3    H168597   3.198   1.182   3.568 -0.0288 -0.6236  0.1754
15702TIP3    H268598   3.148   1.295   3.481 -0.4196  0.1087  1.3405
15703TIP3   OH268599   0.789   2.759  13.329 -0.5464 -0.6684 -0.1586
15703TIP3    H168600   0.753   2.806  13.254 -1.2730  0.2499  0.7294
15703TIP3    H268601   0.717   2.702  13.357 -0.8550  0.1603  0.7863
15704TIP3   OH268602   0.012   6.426  13.568  0.2304 -0.5114 -0.2826
15704TIP3    H168603   0.065   6.501  13.594  0.3897 -1.0580  1.0112
15704TIP3    H268604  -0.076   6.463  13.556  0.4959  0.0445 -0.5833
15705TIP3   OH268605   4.523   0.031   4.710 -0.0476  0.4942  0.4325
15705TIP3    H168606   4.509  -0.029   4.783  2.5886 -1.3442 -0.4102
15705TIP3    H268607   4.452   0.010   4.649 -0.5601 -0.0436  1.1904
15706TIP3   OH268608   5.247   0.165  10.684 -0.8593 -0.4834 -0.2867
15706TIP3    H168609   5.293   0.156  10.768  3.5691 -2.2464 -2.5776
15706TIP3    H268610   5.189   0.090  10.680 -0.4845 -0.8533  0.8549
15707TIP3   OH268611   6.698   3.393  17.509 -0.0148  0.1035  0.0595
15707TIP3    H168612   6.623   3.363  17.560 -0.1699 -0.0114 -0.2339
15707TIP3    H268613   6.675   3.373  17.418  1.0834 -1.5268  0.0949
15708TIP3   OH268614   3.620   0.472   1.075  1.2457 -0.1514  0.0880
15708TIP3    H168615   3.529   0.493   1.054  1.4041  0.6378  0.1408
15708TIP3    H268616   3.647   0.411   1.007 -0.0079 -2.2430  1.3765
15709TIP3   OH268617   2.583   5.321  16.432 -0.2782 -0.4199 -0.2736
15709TIP3    H168618   2.604   5.379  16.506 -1.1591 -1.0438  0.4882
15709TIP3    H268619   2.609   5.371  16.355  0.9285  0.1481  0.4553
15710TIP3   OH268620   6.332   0.119   5.300 -0.6853  0.0477  0.3777
15710TIP3    H168621   6.260   0.179   5.318 -0.8205 -0.0244  0.0881
15710TIP3    H268622   6.302   0.068   5.224 -1.1773 -1.3739  1.4803
15711TIP3   OH268623   2.272   3.010  12.647  0.0656 -0.0691  0.0443
15711TIP3    H168624   2.179   2.991  12.634 -0.2485  0.8453  0.8006
15711TIP3    H268625   2.317   2.930  12.619 -0.9077 -0.3510 -0.7872
15712TIP3   OH268626   1.838   1.371  12.937 -0.0605 -0.4324 -0.5178
15712TIP3    H168627   1.931   1.357  12.923 -0.4444 -0.9993 -3.0468
15712TIP3    H268628   1.796   1.337  12.858 -2.3797  0.3838  0.2529
15713TIP3   OH268629   2.105   0.693  15.990  0.3177 -0.3569 -0.1138
15713TIP3    H168630   2.166   0.763  16.015  0.0555 -0.6577  1.4593
15713TIP3    H268631   2.028   0.739  15.957  0.8170  0.0568 -0.7207
15714TIP3   OH268632   4.178   6.253  13.083  0.1381  0.1710 -0.2963
15714TIP3    H168633   4.228   6.330  13.109 -1.5933  1.3961 -0.4160
15714TIP3    H268634   4.098   6.258  13.135 -1.1765 -0.0970 -2.1904
15715TIP3   OH268635   0.405   3.103   4.297  0.2687 -0.5707  0.3611
15715TIP3    H168636   0.412   3.154   4.216 -3.1220 -2.5255 -1.3878
15715TIP3    H268637   0.469   3.032   4.286  1.8027  0.7151  0.7453
15716TIP3   OH268638   5.015   1.945   0.986 -0.5443 -0.0930 -0.8647
15716TIP3    H168639   5.004   1.850   0.977  2.5369 -1.4935  4.7756
15716TIP3    H268640   4.956   1.968   1.058 -0.7986  2.2428 -1.7608
15717TIP3   OH268641   4.142   3.428   0.799  0.2608 -0.1932  0.6152
15717TIP3    H168642   4.130   3.338   0.770 -0.1346  0.4168 -1.2435
15717TIP3    H268643   4.235   3.446   0.786 -0.1006  0.3984 -1.3405
15718TIP3   OH268644   5.468   6.170  13.725 -0.0664  0.2648 -0.2269
15718TIP3    H168645   5.403   6.200  13.662  0.0424  0.0289 -0.4560
15718TIP3    H268646   5.531   6.120  13.672  1.0059  1.5543 -0.2276
15719TIP3   OH268647   5.432   2.077   5.049 -0.3959  0.0718 -0.0143
15719TIP3    H168648   5.514   2.061   5.001 -1.3068 -0.3538 -1.5022
15719TIP3    H268649   5.448   2.157   5.098  1.2881 -0.6079  0.6154
15720TIP3   OH268650   6.501   1.611  16.205 -0.5444 -0.2626  0.2778
15720TIP3    H168651   6.435   1.614  16.135 -1.7919 -1.8882  1.2905
15720TIP3    H268652   6.464   1.549  16.269  1.8478 -0.9876  1.0466
15721TIP3   OH268653   2.702   4.936   3.611  0.4932 -0.0055  0.4506
15721TIP3    H168654   2.655   4.856   3.638 -0.7358  0.4020 -0.3902
15721TIP3    H268655   2.738   4.914   3.524  1.8146 -0.2761  1.0404
15722TIP3   OH268656   3.216   1.988   5.775  0.3351  0.1851 -0.8240
15722TIP3    H168657   3.171   2.068   5.751  0.0675  0.0929 -0.6357
15722TIP3    H268658   3.291   1.983   5.716  1.0092  1.1709 -0.0744
15723TIP3   OH268659   2.914   2.426   2.168 -0.1593 -0.3088 -0.4436
15723TIP3    H168660   2.924   2.396   2.077  1.4484 -1.1554 -0.0271
15723TIP3    H268661   2.866   2.509   2.160 -0.8409 -0.8099 -1.9808
15724TIP3   OH268662   2.594   3.256   5.015  0.2763  0.1680  0.6555
15724TIP3    H168663   2.514   3.265   4.962  1.3652 -1.3724 -1.4138
15724TIP3    H268664   2.566   3.212   5.095 -1.0257  0.0147  0.1370
15725TIP3   OH268665   1.093   5.084   5.652  0.5133 -0.2986  0.3290
15725TIP3    H168666   1.187   5.078   5.635  0.5271 -1.1274  0.6303
15725TIP3    H268667   1.082   5.050   5.741 -0.0446  0.0313  0.3943
15726TIP3   OH268668   6.350   0.522   1.213 -0.0902 -0.0519  0.0055
15726TIP3    H168669   6.395   0.440   1.194 -1.0907 -0.3721 -1.0575
15726TIP3    H268670   6.259   0.497   1.230 -0.0663  0.6731  1.3478
15727TIP3   OH268671   2.056   2.174   4.117 -0.2963  0.3371  0.1885
15727TIP3    H168672   1.962   2.155   4.109 -0.5246  1.1734  0.6644
15727TIP3    H268673   2.097   2.125   4.046 -1.3813  1.8273 -1.5500
15728TIP3   OH268674   2.021   0.472  12.503  0.4328 -0.1150 -0.2332
15728TIP3    H168675   2.078   0.546  12.483  2.1047 -0.6173  2.2129
15728TIP3    H268676   1.947   0.511  12.549  1.1163  0.1243  0.6987
15729TIP3   OH268677   6.242   2.272   5.200 -0.3909 -0.2004  0.0587
15729TIP3    H168678   6.301   2.196   5.195  0.1870  0.1270  1.3793
15729TIP3    H268679   6.295   2.345   5.170 -0.2841  0.0030  0.7200
15730TIP3   OH268680   5.244   3.854  14.811 -0.3350 -0.1737  0.1492
15730TIP3    H168681   5.327   3.895  14.785 -0.7357  0.7175  0.2462
15730TIP3    H268682   5.270   3.782  14.867  0.3765  0.2350  0.3593
15731TIP3   OH268683   4.806   0.503   0.807 -0.2130  0.0503 -0.0339
15731TIP3    H168684   4.856   0.551   0.741  1.0590  1.4110  1.8276
15731TIP3    H268685   4.715   0.531   0.793 -0.0033  0.1217 -1.3383
15732TIP3   OH268686   5.687   0.187   3.760 -0.3168 -0.4842 -0.8910
15732TIP3    H168687   5.771   0.228   3.741 -0.9691  0.6003 -1.5904
15732TIP3    H268688   5.689   0.103   3.715 -0.3092  0.3480 -2.5083
15733TIP3   OH268689   0.435   2.404   3.639 -0.1418  0.9997 -0.2454
15733TIP3    H168690   0.388   2.357   3.708  0.6532  0.0336 -0.3418
15733TIP3    H268691   0.399   2.369   3.558  1.5400 -0.6435 -0.3368
15734TIP3   OH268692   0.083   4.645   1.706  0.1511 -0.0380 -0.2602
15734TIP3    H168693   0.139   4.609   1.775  0.3812  0.3232 -0.2532
15734TIP3    H268694  -0.006   4.630   1.737  0.2321 -0.8725 -0.3974
15735TIP3   OH268695   1.350   2.754  11.567  0.4918  0.0490 -0.0181
15735TIP3    H168696   1.343   2.789  11.478 -2.5520 -4.1137 -1.7863
15735TIP3    H268697   1.345   2.831  11.624  0.2749  2.7643 -3.3772
15736TIP3   OH268698   0.420   5.749  17.263  0.6982  0.0750 -0.4853
15736TIP3    H168699   0.491   5.687  17.246  1.2173  0.0573  1.5017
15736TIP3    H268700   0.359   5.701  17.319 -0.6845  0.2372 -1.8089
15737TIP3   OH268701   5.721   2.638  13.944  0.4033  0.0505 -0.4928
15737TIP3    H168702   5.755   2.550  13.958 -1.1371 -0.6237 -0.7577
15737TIP3    H268703   5.709   2.645  13.849 -0.3135  0.2050 -0.3985
15738TIP3   OH268704   1.334   4.532  13.295  0.2847 -0.0014 -0.6739
15738TIP3    H168705   1.415   4.568  13.260  0.3055  0.4700 -0.1409
15738TIP3    H268706   1.286   4.504  13.217 -0.3347  2.4110 -1.2534
15739TIP3   OH268707   5.208   0.168  11.630  0.0258  0.4474  0.0121
15739TIP3    H168708   5.237   0.257  11.650 -3.5787  1.4451  1.6249
15739TIP3    H268709   5.222   0.119  11.711 -0.5667  0.3486  0.0645
15740TIP3   OH268710   6.585   4.444   0.613  0.3103  0.1054 -0.3026
15740TIP3    H168711   6.672   4.479   0.594  0.2681 -0.1436 -0.9802
15740TIP3    H268712   6.526   4.499   0.562 -0.3615  2.6873  2.8596
15741TIP3   OH268713   2.507   4.841  12.695 -0.7835 -0.5860 -0.3996
15741TIP3    H168714   2.494   4.786  12.617  0.8103 -0.5630 -0.7145
15741TIP3    H268715   2.443   4.808  12.758 -1.8002 -0.9027 -1.5682
15742TIP3   OH268716   0.018   1.248  16.553 -0.0714 -0.0393 -0.0745
15742TIP3    H168717   0.112   1.232  16.551  0.1638  1.1089  0.7460
15742TIP3    H268718  -0.003   1.259  16.646 -1.0153 -0.2569 -0.2477
15743TIP3   OH268719   2.216   3.423  17.372  0.3517 -0.0061  0.3946
15743TIP3    H168720   2.175   3.345  17.409  0.8261  0.5201  2.1059
15743TIP3    H268721   2.276   3.453  17.440  1.5180  0.8300 -0.9599
15744TIP3   OH268722   5.779   0.013   2.795  0.7511  0.2279 -0.2069
15744TIP3    H168723   5.786  -0.035   2.877  0.8888 -1.3469 -1.1008
15744TIP3    H268724   5.834  -0.036   2.733 -0.4199  0.5687 -1.5750
15745TIP3   OH268725   2.558   1.706  12.889  0.0350  0.1677  0.2788
15745TIP3    H168726   2.508   1.788  12.892  0.1604  0.2377  0.4734
15745TIP3    H268727   2.581   1.696  12.797 -2.2773 -1.0465 -0.2525
15746TIP3   OH268728   3.369   5.396   4.822  0.3762  0.3087 -0.2684
15746TIP3    H168729   3.328   5.461   4.879  3.1139  0.3132  1.8964
15746TIP3    H268730   3.423   5.447   4.762  0.8385  0.1403 -0.0008
15747TIP3   OH268731   0.103   3.698   1.140  0.3393  0.2996  0.0405
15747TIP3    H168732   0.010   3.674   1.140  0.9820 -2.5000 -0.5448
15747TIP3    H268733   0.147   3.621   1.176  2.3938  1.9359  1.2195
15748TIP3   OH268734   4.507   4.946   3.420 -0.2834 -0.0025 -0.7384
15748TIP3    H168735   4.589   4.931   3.373  0.2974 -3.1075  0.9703
15748TIP3    H268736   4.440   4.949   3.352  0.8806 -0.8411 -1.9722
15749TIP3   OH268737   3.070   2.262   5.358  0.9886 -0.0267 -0.6375
15749TIP3    H168738   3.060   2.355   5.380 -1.1701 -0.2215 -0.5320
15749TIP3    H268739   3.111   2.262   5.272  0.3595  1.0664 -0.9637
15750TIP3   OH268740   4.837   2.254  16.582  0.0372  0.1108  0.1293
15750TIP3    H168741   4.930   2.263  16.563  0.0245  0.7388  0.3468
15750TIP3    H268742   4.801   2.341  16.567 -0.6093 -0.2453 -0.4477
15751TIP3   OH268743   3.250   2.672  10.870 -0.2213 -0.2235 -0.2847
15751TIP3    H168744   3.203   2.640  10.793 -0.5734 -1.0144  0.2396
15751TIP3    H268745   3.194   2.741  10.906 -0.4890 -0.4619 -0.2415
15752TIP3   OH268746   6.297   2.332  12.782 -0.0070 -0.3898  0.1680
15752TIP3    H168747   6.316   2.296  12.695 -0.0829 -1.3145  0.5325
15752TIP3    H268748   6.371   2.304  12.836  0.7976  1.3998  0.0875
15753TIP3   OH268749   1.790   1.927   3.896  0.0806 -0.1779 -0.6353
15753TIP3    H168750   1.733   2.000   3.875 -0.1868 -0.2478 -0.1779
15753TIP3    H268751   1.754   1.853   3.846 -1.7511 -0.8337  1.4704
15754TIP3   OH268752   2.790   4.045  14.847 -0.6098  0.4530 -0.0777
15754TIP3    H168753   2.819   4.105  14.778 -0.7992  0.1421 -0.4299
15754TIP3    H268754   2.697   4.067  14.861 -0.6626  0.2849 -0.1620
15755TIP3   OH268755   4.841   2.796  13.564  0.1912 -0.5826  0.2170
15755TIP3    H168756   4.907   2.728  13.580 -0.2033 -1.1769 -0.6171
15755TIP3    H268757   4.758   2.750  13.567 -0.1445  0.0345  0.5137
15756TIP3   OH268758   1.269   4.688  16.517 -0.2594  0.0230  0.0466
15756TIP3    H168759   1.184   4.645  16.508 -0.4567  0.4669 -0.2627
15756TIP3    H268760   1.308   4.682  16.429  1.3875 -2.9279  0.8594
15757TIP3   OH268761   1.643   0.831  16.656 -0.3140  0.4757  0.2066
15757TIP3    H168762   1.695   0.864  16.584 -2.0605  0.6095 -1.0712
15757TIP3    H268763   1.671   0.882  16.732  2.1477 -0.2303 -0.1433
15758TIP3   OH268764   4.218   5.929  15.808  0.3699  0.6718  0.2557
15758TIP3    H168765   4.218   5.835  15.827  0.8947  0.9624  1.8893
15758TIP3    H268766   4.222   5.935  15.713 -1.3454 -0.9612  0.0350
15759TIP3   OH268767   1.163   1.807  12.657  0.3802 -0.1123 -0.1043
15759TIP3    H168768   1.227   1.795  12.587 -1.3784 -0.2168 -1.7899
15759TIP3    H268769   1.079   1.783  12.617 -0.7495  0.1784  1.9493
15760TIP3   OH268770   1.217   3.310  13.925 -0.4083  0.0245 -0.2811
15760TIP3    H168771   1.256   3.386  13.969 -0.0217  0.1116 -0.7671
15760TIP3    H268772   1.290   3.271  13.877 -0.7597 -0.2520 -0.5921
15761TIP3   OH268773   4.360   1.195   4.730  0.2832  0.1048  0.0675
15761TIP3    H168774   4.409   1.223   4.806  0.8482 -1.0043  0.1319
15761TIP3    H268775   4.398   1.110   4.706 -0.6886 -0.1420 -0.7056
15762TIP3   OH268776   1.434   6.130  11.393  0.2266  0.3362 -0.4757
15762TIP3    H168777   1.427   6.225  11.382  0.1191  0.2729 -0.9649
15762TIP3    H268778   1.393   6.094  11.314  1.5576 -0.1081 -0.9918
15763TIP3   OH268779   5.351   1.344  11.232 -0.4239  0.4795 -0.2722
15763TIP3    H168780   5.375   1.384  11.315  0.1684  2.2065 -1.2430
15763TIP3    H268781   5.272   1.390  11.205 -1.4314 -1.0179 -0.0507
15764TIP3   OH268782   5.574   2.277  16.728  0.1726  0.0273  0.1029
15764TIP3    H168783   5.614   2.205  16.680 -0.6164 -0.6972  0.5096
15764TIP3    H268784   5.488   2.288  16.687  0.5009  1.1291 -0.3288
15765TIP3   OH268785   4.981   1.267   5.601  0.3510  0.2167  0.4910
15765TIP3    H168786   4.926   1.331   5.555  0.5092 -0.5260 -0.7818
15765TIP3    H268787   4.931   1.185   5.595  1.1923 -0.2759  0.0781
15766TIP3   OH268788   3.517   5.916   6.576  0.5633 -0.1141 -0.1539
15766TIP3    H168789   3.480   5.870   6.651  1.2512 -1.0367 -0.3661
15766TIP3    H268790   3.453   5.903   6.506 -0.6166  1.6664  0.5247
15767TIP3   OH268791   0.251   5.179   4.907  0.3212  0.1176  0.2315
15767TIP3    H168792   0.165   5.218   4.923 -0.1001 -1.2480  1.5222
15767TIP3    H268793   0.235   5.112   4.841  0.6114  0.6018 -0.3351
15768TIP3   OH268794   2.418   0.830  11.359  0.5063  0.5332 -0.1703
15768TIP3    H168795   2.508   0.825  11.328 -0.1213 -1.9344 -1.8706
15768TIP3    H268796   2.370   0.871  11.287  0.1394  1.2497  0.4634
15769TIP3   OH268797   5.477   5.027  16.795  0.2720 -0.0889 -0.6080
15769TIP3    H168798   5.523   5.025  16.879 -0.3527  1.5643 -0.1740
15769TIP3    H268799   5.541   4.997  16.731  1.2483  0.0993  0.2630
15770TIP3   OH268800   3.149   2.938  13.148 -0.3403 -0.9199 -0.5012
15770TIP3    H168801   3.241   2.961  13.166 -0.4367  0.1822 -1.2891
15770TIP3    H268802   3.138   2.852  13.187  0.5280 -0.3008  1.2369
15771TIP3   OH268803   6.192   2.691   0.999  0.0463  0.2702  0.0882
15771TIP3    H168804   6.106   2.653   1.018  0.7488 -0.8367  1.1679
15771TIP3    H268805   6.179   2.738   0.916 -1.0359 -1.7520 -0.9700
15772TIP3   OH268806   5.270   4.910  12.558 -0.0342  0.1995 -0.2758
15772TIP3    H168807   5.283   4.972  12.630 -1.5552  1.2221 -0.8354
15772TIP3    H268808   5.265   4.824  12.601  0.7379  0.5946  0.6472
15773TIP3   OH268809   1.091   3.491  12.457 -0.3141 -0.0795  0.0931
15773TIP3    H168810   1.001   3.508  12.428  0.3257 -0.7955 -2.5263
15773TIP3    H268811   1.145   3.508  12.381  1.7693 -0.1536  1.4696
15774TIP3   OH268812   3.045   0.601   5.391 -0.1342 -0.0381  0.1337
15774TIP3    H168813   3.085   0.639   5.469  2.0151 -0.0575 -0.8655
15774TIP3    H268814   2.969   0.553   5.423 -1.8675  3.3886  1.6937
15775TIP3   OH268815   2.610   0.660   5.950 -0.7313  0.1355  0.3233
15775TIP3    H168816   2.684   0.598   5.951 -0.2125  0.7421  1.9069
15775TIP3    H268817   2.628   0.717   5.875 -0.3969 -0.6471 -0.2094
15776TIP3   OH268818   4.100   4.779  12.782  0.1485  0.1539  0.7371
15776TIP3    H168819   4.016   4.733  12.780 -0.2969  0.9437  0.4968
15776TIP3    H268820   4.132   4.768  12.871 -0.4640  0.2642  0.9750
15777TIP3   OH268821   5.226   3.966   4.268 -0.5340 -0.2317  0.0856
15777TIP3    H168822   5.197   4.012   4.347 -1.7311  0.2336 -0.5894
15777TIP3    H268823   5.209   3.874   4.286  0.3251 -0.2581  0.8175
15778TIP3   OH268824   1.918   0.031   2.544  0.3871 -0.0896 -0.2045
15778TIP3    H168825   1.985  -0.021   2.589  0.2900  0.6690  0.8580
15778TIP3    H268826   1.881   0.086   2.613 -1.1499 -0.2990 -0.8340
15779TIP3   OH268827   2.027   1.601  15.755 -0.3367 -1.3099  0.0683
15779TIP3    H168828   2.029   1.648  15.671  0.6445 -0.3717  0.5870
15779TIP3    H268829   1.989   1.663  15.817  0.2877 -1.4518  0.6102
15780TIP3   OH268830   2.809   1.957   3.214  0.5465  0.0003 -0.1322
15780TIP3    H168831   2.832   1.986   3.126 -1.6128  0.0487 -0.7277
15780TIP3    H268832   2.744   2.021   3.244  2.3885  0.9516  2.1909
15781TIP3   OH268833   2.935   5.420  15.027  0.6481 -0.5579 -0.2245
15781TIP3    H168834   2.898   5.418  15.115  1.8746 -0.8700  0.3068
15781TIP3    H268835   2.877   5.478  14.978  0.2498  0.0551  0.9346
15782TIP3   OH268836   1.971   5.619   5.501 -0.6633 -0.4250  0.3517
15782TIP3    H168837   2.059   5.656   5.508 -0.8519 -0.1416  1.3404
15782TIP3    H268838   1.923   5.681   5.446 -0.6140  0.1359  0.9304
15783TIP3   OH268839   0.580   1.213   3.970  0.3018  0.4929  0.5156
15783TIP3    H168840   0.571   1.235   3.877  0.3019 -2.1292 -0.1946
15783TIP3    H268841   0.517   1.141   3.984 -1.5963  2.4734  3.2379
15784TIP3   OH268842   4.270   5.251   4.554 -0.7600  0.1314 -0.0218
15784TIP3    H168843   4.269   5.213   4.642 -0.1950  0.1359 -0.0082
15784TIP3    H268844   4.337   5.202   4.507 -0.2550  0.8759 -0.1024
15785TIP3   OH268845   3.683   3.107  12.432  0.2495  0.2957  0.0098
15785TIP3    H168846   3.745   3.170  12.394 -0.0501  0.7760  0.3116
15785TIP3    H268847   3.739   3.034  12.461  0.6599  0.6515  0.1348
15786TIP3   OH268848   5.727   3.208  13.712 -0.0411  0.3960 -0.8350
15786TIP3    H168849   5.708   3.120  13.678  0.7199 -0.2946  0.4434
15786TIP3    H268850   5.653   3.227  13.769 -0.2894  0.6705 -1.2420
15787TIP3   OH268851   3.075   1.881  14.278 -0.0055  0.4462  0.2856
15787TIP3    H168852   3.072   1.855  14.186  2.4247  1.2577 -0.1039
15787TIP3    H268853   3.061   1.800  14.326 -0.8344 -0.0763 -0.7989
15788TIP3   OH268854   2.893   1.622   1.430  0.3988 -0.1341  0.6302
15788TIP3    H168855   2.981   1.659   1.430  0.9595 -1.4138  1.0090
15788TIP3    H268856   2.904   1.532   1.460 -0.8210 -0.8448 -0.8527
15789TIP3   OH268857   4.777   2.510   5.471 -0.8108 -0.0474 -0.5088
15789TIP3    H168858   4.817   2.459   5.541 -0.6033 -0.1347 -0.6905
15789TIP3    H268859   4.847   2.522   5.406 -0.7165  0.8994 -0.2411
15790TIP3   OH268860   2.207   3.955   4.060 -0.2568  0.8510 -0.1963
15790TIP3    H168861   2.155   3.877   4.074  0.3845  0.1973 -1.3073
15790TIP3    H268862   2.172   4.019   4.121 -1.2687 -0.0788  0.2173
15791TIP3   OH268863   1.486   1.822  13.545 -0.1519  0.6332 -0.0038
15791TIP3    H168864   1.526   1.817  13.458  0.6798 -0.3774  0.4148
15791TIP3    H268865   1.555   1.855  13.601 -0.6847  1.2677  0.2944
15792TIP3   OH268866   4.365   6.064  11.870 -0.6465 -0.7940 -0.2629
15792TIP3    H168867   4.452   6.072  11.830 -0.6213  1.7420  0.1328
15792TIP3    H268868   4.379   6.009  11.947 -0.0724 -3.0564 -1.8915
15793TIP3   OH268869   6.172   3.319   2.938 -0.4082 -0.7856  0.1035
15793TIP3    H168870   6.223   3.249   2.898 -1.1533 -1.9023  1.0503
15793TIP3    H268871   6.224   3.349   3.012  0.2804  0.2534 -0.7649
15794TIP3   OH268872   2.490   1.970  13.103  0.7139 -0.1085 -0.5042
15794TIP3    H168873   2.492   2.064  13.117  0.4723 -0.0953 -0.5456
15794TIP3    H268874   2.439   1.959  13.022 -1.1663 -0.3886  0.6516
15795TIP3   OH268875   6.089   1.133   5.727 -0.0991 -0.1565 -0.3803
15795TIP3    H168876   6.065   1.072   5.796 -1.2138  0.7324  0.0490
15795TIP3    H268877   6.171   1.172   5.756 -0.1324 -0.3907  0.0338
15796TIP3   OH268878   5.962   3.101  13.927 -0.5721  0.6487  0.4450
15796TIP3    H168879   5.900   3.166  13.893 -1.4978 -0.8602 -0.9471
15796TIP3    H268880   5.907   3.026  13.950  0.5889 -0.1713  0.6331
15797TIP3   OH268881   0.708   0.513  14.587 -0.1751 -0.0794 -0.0192
15797TIP3    H168882   0.769   0.447  14.620  0.4326  1.1123  1.3469
15797TIP3    H268883   0.764   0.580  14.548 -0.4681  1.3814  1.8874
15798TIP3   OH268884   6.661   4.223   0.744 -0.0907  0.0428  0.3184
15798TIP3    H168885   6.583   4.170   0.758 -0.0438 -0.2893 -0.6181
15798TIP3    H268886   6.629   4.303   0.701  0.1212 -0.2668 -0.4328
15799TIP3   OH268887   3.445   5.008  17.192 -0.5587 -0.0830 -0.2545
15799TIP3    H168888   3.491   4.992  17.274  0.0767 -0.2690 -0.6435
15799TIP3    H268889   3.363   4.960  17.201 -1.0136  0.8155  0.7248
15800TIP3   OH268890   3.356   6.149  17.041 -0.0884 -0.2656  0.2863
15800TIP3    H168891   3.354   6.154  16.946  0.6157  1.4659  0.3206
15800TIP3    H268892   3.365   6.056  17.061 -3.7137 -1.1062 -1.2173
15801TIP3   OH268893   6.044   1.200  17.115 -0.6240  0.6942 -0.2936
15801TIP3    H168894   6.135   1.170  17.106 -0.6308 -0.6683  2.8602
15801TIP3    H268895   6.012   1.206  17.025  1.6631 -1.7897 -1.4212
15802TIP3   OH268896   2.256   0.090  15.045  0.4290 -0.1169  0.0709
15802TIP3    H168897   2.318   0.151  15.005 -0.1098  0.0956 -0.4549
15802TIP3    H268898   2.205   0.143  15.106 -0.2990  0.0575 -0.6691
15803TIP3   OH268899   6.765   6.535   0.134 -0.0264 -0.0792 -0.7281
15803TIP3    H168900   6.791   6.445   0.154 -0.3849  0.2817  1.6282
15803TIP3    H268901   6.788   6.546   0.041  1.0607 -2.2159 -0.7871
15804TIP3   OH268902   1.224   5.202   4.688  0.2451 -0.0141  0.1343
15804TIP3    H168903   1.240   5.112   4.660 -2.1486 -0.3635 -0.3629
15804TIP3    H268904   1.171   5.194   4.767  0.1777  0.9470  0.2024
15805TIP3   OH268905   2.419   0.425  13.165  0.3835 -0.1270  0.0644
15805TIP3    H168906   2.417   0.344  13.114  1.2423  0.0119 -0.2048
15805TIP3    H268907   2.493   0.413  13.225 -1.0120 -0.5637  1.7634
15806TIP3   OH268908   6.575   2.966   3.678  0.0322 -0.0458  0.5100
15806TIP3    H168909   6.652   2.988   3.625  1.0188 -2.1285  0.9282
15806TIP3    H268910   6.596   2.999   3.765 -0.5000  1.2317  0.1636
15807TIP3   OH268911   0.864   6.183   2.966 -0.4450  0.2234 -0.1175
15807TIP3    H168912   0.882   6.271   2.933 -0.4450  0.7469  1.2234
15807TIP3    H268913   0.769   6.179   2.973 -0.4161  0.3197  0.3477
15808TIP3   OH268914   6.232   1.177  14.810  0.4354 -0.3336 -0.2265
15808TIP3    H168915   6.312   1.128  14.826  0.7741  0.8343  2.1284
15808TIP3    H268916   6.260   1.269  14.809 -0.6678  0.0160 -0.8551
15809TIP3   OH268917   1.336   3.806   2.868 -0.0008  0.2551 -0.1814
15809TIP3    H168918   1.304   3.852   2.790 -1.7966 -0.0650  0.3370
15809TIP3    H268919   1.257   3.778   2.914  1.0385 -0.3548  1.3008
15810TIP3   OH268920   0.868   2.600   0.170  0.0550 -0.4905  0.1866
15810TIP3    H168921   0.884   2.514   0.209  0.4235 -0.5827 -0.1593
15810TIP3    H268922   0.952   2.625   0.131  0.0200  0.1481  0.5182
15811TIP3   OH268923   1.499   4.864   3.521 -0.0085  0.1931 -0.7810
15811TIP3    H168924   1.428   4.922   3.493  1.0658  1.6165 -0.6652
15811TIP3    H268925   1.579   4.914   3.503  0.9061 -0.7265  0.5577
15812TIP3   OH268926   6.309   2.339   1.691  0.4151 -0.4625 -0.4099
15812TIP3    H168927   6.279   2.381   1.610 -0.1078 -0.3046 -0.1423
15812TIP3    H268928   6.276   2.396   1.761  0.2253 -0.9920 -0.0622
15813TIP3   OH268929   3.128   0.198  13.649  0.5543 -0.2863  0.3323
15813TIP3    H168930   3.081   0.273  13.611  1.4910  0.2179  0.1449
15813TIP3    H268931   3.096   0.123  13.600  1.4859  0.3103 -1.2754
15814TIP3   OH268932   3.525   5.144   3.888  0.1056 -0.3997  0.2594
15814TIP3    H168933   3.489   5.058   3.908  1.0662 -0.4983  1.7302
15814TIP3    H268934   3.614   5.126   3.857  0.8278  0.0828  1.9170
15815TIP3   OH268935   3.855   2.112  15.246  0.1392 -0.2182 -0.1673
15815TIP3    H168936   3.883   2.194  15.204  1.6991 -1.1229 -1.0110
15815TIP3    H268937   3.903   2.110  15.329  1.0271 -0.7902 -0.6737
15816TIP3   OH268938   5.139   3.301  14.331  0.4916 -0.2748 -0.4786
15816TIP3    H168939   5.089   3.237  14.281 -3.8852 -1.1526  4.2238
15816TIP3    H268940   5.199   3.249  14.385  1.1923  0.1659 -0.8144
15817TIP3   OH268941   3.629   2.735   2.871  0.5635  0.1165 -0.7281
15817TIP3    H168942   3.612   2.772   2.957  2.2505 -0.6175 -0.0359
15817TIP3    H268943   3.542   2.720   2.834 -0.1946  0.6041  0.7729
15818TIP3   OH268944   2.641   6.092  13.144 -0.8776  0.2451 -0.5801
15818TIP3    H168945   2.660   6.010  13.098 -1.0684  0.2881 -0.7372
15818TIP3    H268946   2.727   6.131  13.161 -0.8044  0.2125 -0.8748
15819TIP3   OH268947   2.338   1.151   0.200 -0.0958  0.2583 -0.4576
15819TIP3    H168948   2.269   1.216   0.214  1.5736  2.0772 -0.2776
15819TIP3    H268949   2.418   1.203   0.188  1.0686 -1.7295 -1.8502
15820TIP3   OH268950   5.584   6.715  13.018  0.0254 -0.3172  0.4584
15820TIP3    H168951   5.626   6.801  13.016 -0.6243  0.0506 -3.0345
15820TIP3    H268952   5.658   6.653  13.017  0.5275  0.2708 -1.2207
15821TIP3   OH268953   4.112   3.033  16.919 -0.0658 -0.1632 -0.0173
15821TIP3    H168954   4.073   3.028  17.006  1.2448 -3.6449  0.5502
15821TIP3    H268955   4.055   2.980  16.864  0.4367 -0.0062 -0.7041
15822TIP3   OH268956   2.313   6.453  16.168 -0.4652 -0.2627 -0.0072
15822TIP3    H168957   2.348   6.459  16.080 -1.2101  2.8920 -0.1902
15822TIP3    H268958   2.242   6.389  16.162  1.1116 -2.0285 -1.0108
15823TIP3   OH268959   1.167   4.982   5.901  0.5409 -0.1640 -0.0738
15823TIP3    H168960   1.100   4.913   5.906  0.7975 -0.3966  0.2532
15823TIP3    H268961   1.190   4.999   5.992  0.4632  0.3788 -0.1530
15824TIP3   OH268962   2.923   3.643   5.418  0.3843 -0.2046 -0.0784
15824TIP3    H168963   3.002   3.595   5.395  1.5317  1.3136  0.5576
15824TIP3    H268964   2.935   3.729   5.377  0.2016  0.8670  2.0289
15825TIP3   OH268965   5.255   3.450   5.243  0.2187 -0.2685 -0.1457
15825TIP3    H168966   5.167   3.413   5.235 -0.0396  0.3007  0.0265
15825TIP3    H268967   5.312   3.383   5.206 -0.1328 -1.3011  1.1081
15826TIP3   OH268968   4.600   2.862   4.025 -0.1092 -0.0429  0.9774
15826TIP3    H168969   4.678   2.913   4.003  0.5384 -2.0495 -1.9195
15826TIP3    H268970   4.534   2.928   4.047  1.2212  1.9627 -0.6848
15827TIP3   OH268971   5.963   0.781   4.002 -0.4134  0.4141 -0.4950
15827TIP3    H168972   5.920   0.861   3.974 -1.1118  0.1358 -0.2458
15827TIP3    H268973   5.999   0.743   3.921  0.3873  1.2368 -0.5348
15828TIP3   OH268974   4.761   3.114  14.709 -0.5548  0.2058  0.5754
15828TIP3    H168975   4.792   3.055  14.641  0.1807  1.1662  0.0444
15828TIP3    H268976   4.690   3.067  14.753 -1.2499 -0.3152 -1.0525
15829TIP3   OH268977   2.345   2.454   3.060 -0.1800 -0.4210  0.0039
15829TIP3    H168978   2.397   2.375   3.048 -0.2662 -0.4242 -0.3503
15829TIP3    H268979   2.386   2.519   3.003 -1.2774 -0.7611 -1.2079
15830TIP3   OH268980   0.433   4.206   5.174  0.0516  0.3009  0.2264
15830TIP3    H168981   0.521   4.172   5.164  0.2393  0.8137  0.0528
15830TIP3    H268982   0.388   4.144   5.230  0.8270  0.5745  1.1662
15831TIP3   OH268983   3.794   0.185   0.247 -0.1353  0.0972  0.2820
15831TIP3    H168984   3.823   0.276   0.245  1.1209 -0.2909 -0.0761
15831TIP3    H268985   3.797   0.161   0.340 -3.1666  1.2075  0.7603
15832TIP3   OH268986   2.130   3.234   0.035 -0.2427  0.0778 -0.4500
15832TIP3    H168987   2.066   3.302   0.057  0.9959  0.7801  1.1663
15832TIP3    H268988   2.120   3.169   0.105 -0.5223 -0.7896 -1.2742
15833TIP3   OH268989   4.656   1.268   5.524  0.2102  0.1346  0.0484
15833TIP3    H168990   4.664   1.313   5.608  1.9668 -0.4056  0.2105
15833TIP3    H268991   4.659   1.175   5.546 -0.5460 -0.0361 -0.5260
15834TIP3   OH268992   1.153   2.764   0.316 -0.1102  0.3869  0.7003
15834TIP3    H168993   1.164   2.711   0.395  0.9315  0.5123  0.6527
15834TIP3    H268994   1.223   2.734   0.258 -1.2679 -0.1734 -0.4536
15835TIP3   OH268995   4.720   4.221  11.901  0.1242  0.2461 -0.8520
15835TIP3    H168996   4.672   4.159  11.846 -0.0549  0.3631 -0.8278
15835TIP3    H268997   4.802   4.234  11.854 -0.5803  1.3986 -1.8175
15836TIP3   OH268998   3.828   2.018   4.960 -0.1062  0.1526  0.1334
15836TIP3    H168999   3.886   1.961   5.011 -2.3940 -1.5332  0.9854
15836TIP3    H269000   3.809   2.092   5.018  2.2693  1.5317 -0.7027
15837TIP3   OH269001   5.423   0.119   0.357 -0.0265  0.5401  0.0885
15837TIP3    H169002   5.419   0.190   0.293 -1.4050  1.2128  0.8557
15837TIP3    H269003   5.385   0.044   0.312 -0.3312  0.8187 -0.1239
15838TIP3   OH269004   5.063   5.975   3.638 -0.7804 -0.2746  0.8009
15838TIP3    H169005   5.057   6.054   3.586  0.2682 -0.8549 -0.2246
15838TIP3    H269006   5.034   5.905   3.580  1.4824 -1.0896  0.5732
15839TIP3   OH269007   2.325   5.498  12.833  0.0916 -0.4163 -0.9681
15839TIP3    H169008   2.327   5.470  12.925 -1.3489 -2.3770 -1.4714
15839TIP3    H269009   2.413   5.478  12.800  0.0619 -1.4338 -0.4702
15840TIP3   OH269010   3.793   5.815   0.987  0.1450  0.6636  0.4211
15840TIP3    H169011   3.876   5.780   0.954  0.4163  0.6624  1.0948
15840TIP3    H269012   3.818   5.894   1.035 -0.1016  0.0297  1.6314
15841TIP3   OH269013   3.561   4.002  12.493  0.1655  1.1973  0.2395
15841TIP3    H169014   3.631   3.972  12.435 -0.8390 -0.2795 -0.2636
15841TIP3    H269015   3.505   4.056  12.437  0.2231  1.3647  0.3404
15842TIP3   OH269016   5.591   6.513   4.478  0.1618  0.3561 -0.0002
15842TIP3    H169017   5.607   6.604   4.453  0.8382  0.9218  2.2839
15842TIP3    H269018   5.536   6.519   4.557  2.1080 -1.0830  1.5646
15843TIP3   OH269019   2.242   4.341   1.679  0.2050  0.0335 -0.0761
15843TIP3    H169020   2.162   4.363   1.632 -1.3635  0.7079  2.6629
15843TIP3    H269021   2.312   4.387   1.631 -1.4776  1.9795 -0.8251
15844TIP3   OH269022   2.956   2.848   0.780  0.4946  0.2728  0.7119
15844TIP3    H169023   2.897   2.870   0.708 -0.1864 -0.1887  1.1217
15844TIP3    H269024   3.000   2.931   0.801 -1.4424  1.1094  1.7108
15845TIP3   OH269025   1.672   5.108   3.659  0.2005  0.0785 -0.7644
15845TIP3    H169026   1.641   5.078   3.744  0.9516 -1.4347 -1.0040
15845TIP3    H269027   1.730   5.039   3.628 -1.2588 -0.1573 -3.2104
15846TIP3   OH269028   1.612   0.314   2.384 -0.4935 -0.0416  0.3684
15846TIP3    H169029   1.700   0.349   2.375 -0.6335  0.0259 -0.9233
15846TIP3    H269030   1.574   0.363   2.457  0.6887 -0.4382  1.2887
15847TIP3   OH269031   5.786   0.589  13.546  0.4805  0.4274 -0.6625
15847TIP3    H169032   5.772   0.514  13.604  0.4932 -0.4160 -1.7292
15847TIP3    H269033   5.845   0.646  13.595 -0.0695  0.0758  0.4457
15848TIP3   OH269034   1.583   1.790  16.283  0.0931  0.7621  0.5997
15848TIP3    H169035   1.671   1.819  16.260  0.3065  0.9039  1.5720
15848TIP3    H269036   1.584   1.696  16.267  0.3972  0.7721  0.5502
15849TIP3   OH269037   4.406   5.157  12.704 -0.4432  0.0894  0.3163
15849TIP3    H169038   4.352   5.098  12.651  0.1247  1.4998 -1.9685
15849TIP3    H269039   4.349   5.182  12.777 -0.8896 -2.7404  1.0380
15850TIP3   OH269040   4.635   5.715  12.286  0.3011  0.3445  0.0651
15850TIP3    H169041   4.613   5.696  12.377 -1.8856  3.2728  0.3004
15850TIP3    H269042   4.608   5.637  12.238 -1.5653 -0.0257  1.6013
15851TIP3   OH269043   1.297   6.573  17.293 -0.0634  0.0118 -0.0569
15851TIP3    H169044   1.352   6.531  17.228 -1.2468 -0.2430 -0.9391
15851TIP3    H269045   1.304   6.517  17.371  0.4844 -0.3154 -0.3391
15852TIP3   OH269046   1.936   3.261  17.354 -0.1514  0.0721 -0.0860
15852TIP3    H169047   1.984   3.207  17.416  0.2644 -1.5494 -1.7197
15852TIP3    H269048   1.856   3.211  17.336  0.4971 -0.3469 -2.0468
15853TIP3   OH269049   0.029   0.433   5.177  0.1316  0.1116 -0.1126
15853TIP3    H169050  -0.047   0.381   5.205  0.1330 -0.2957 -0.8223
15853TIP3    H269051   0.008   0.522   5.203 -0.0252 -0.1862  0.8290
15854TIP3   OH269052   4.704   5.130  13.623 -0.2409 -0.0451 -0.1628
15854TIP3    H169053   4.739   5.046  13.651 -2.6361 -0.6182  1.4173
15854TIP3    H269054   4.622   5.108  13.579  0.4103  1.3268 -2.2066
15855TIP3   OH269055   1.375   1.917  17.263 -0.2004  0.0486  0.4684
15855TIP3    H169056   1.442   1.886  17.323  0.3510 -1.1561 -0.7221
15855TIP3    H269057   1.311   1.846  17.258 -0.5932  0.4140  0.1452
15856TIP3   OH269058   5.758   4.050   1.888 -0.3334  0.2695 -0.3740
15856TIP3    H169059   5.845   4.085   1.906 -1.0008  1.4193  0.7994
15856TIP3    H269060   5.706   4.072   1.965 -1.4909 -1.0455 -0.7229
15857TIP3   OH269061   5.913   4.757  11.298  0.0183 -0.3083 -0.0919
15857TIP3    H169062   6.002   4.726  11.313 -0.1765  0.6001  4.0201
15857TIP3    H269063   5.920   4.816  11.223  3.1764  0.7526  0.8931
15858TIP3   OH269064   2.191   5.927  14.904  0.3308  0.0013 -0.2597
15858TIP3    H169065   2.204   5.989  14.832  0.7100 -1.1466 -1.2046
15858TIP3    H269066   2.145   5.853  14.864 -0.1524 -0.3193  0.8556
15859TIP3   OH269067   1.974   6.131   5.546  0.3726 -0.3382 -0.2567
15859TIP3    H169068   2.042   6.185   5.586 -0.0125 -0.6376  0.8336
15859TIP3    H269069   1.951   6.178   5.466 -0.5287  1.5798  1.0558
15860TIP3   OH269070   4.727   1.942   4.615 -0.9974 -0.0489 -0.1515
15860TIP3    H169071   4.719   2.035   4.637 -0.5583 -0.5098  2.2310
15860TIP3    H269072   4.818   1.932   4.586 -1.8453  0.7530 -3.5574
15861TIP3   OH269073   0.790   3.940  12.024  0.0134 -0.5852  0.2360
15861TIP3    H169074   0.786   3.878  11.951 -1.0360 -1.3135  0.8677
15861TIP3    H269075   0.762   4.023  11.987 -1.6511 -1.1970  0.0219
15862TIP3   OH269076   2.295   4.668   4.250 -0.4306  0.2799 -0.7895
15862TIP3    H169077   2.241   4.686   4.173 -1.7200  1.0827  0.2562
15862TIP3    H269078   2.234   4.632   4.314  0.6610 -0.5906 -0.2077
15863TIP3   OH269079   0.474   4.955   3.527 -0.2569  0.7512  0.1104
15863TIP3    H169080   0.456   4.913   3.443 -0.5074 -0.7364  0.8881
15863TIP3    H269081   0.411   4.916   3.587  0.1898  1.4984  1.0890
15864TIP3   OH269082   1.696   0.195  11.458  0.3370  0.2065 -0.1233
15864TIP3    H169083   1.630   0.232  11.517  1.8651  1.5583  0.8351
15864TIP3    H269084   1.774   0.185  11.513  0.4386 -3.2768 -0.6928
15865TIP3   OH269085   1.218   2.275   5.002  0.0412 -0.1117  0.1457
15865TIP3    H169086   1.284   2.206   4.992 -0.4504 -0.9708  2.3439
15865TIP3    H269087   1.260   2.342   5.054 -0.8889 -0.8913  2.0080
15866TIP3   OH269088   3.713   0.802  13.215  0.1324 -0.4020  0.2321
15866TIP3    H169089   3.674   0.887  13.197  1.7919  0.3593  0.0487
15866TIP3    H269090   3.764   0.782  13.136  0.8208 -0.9257  0.7977
15867TIP3   OH269091   0.082   0.023  14.393 -0.2358  0.0616 -0.1879
15867TIP3    H169092   0.102  -0.044  14.328  0.0128  0.8669 -0.9715
15867TIP3    H269093   0.161   0.077  14.397 -0.7091  0.7771 -0.1812
15868TIP3   OH269094   5.559   6.711  15.231 -0.6442 -0.4988 -0.2809
15868TIP3    H169095   5.638   6.668  15.266  1.4348  2.5589 -0.8563
15868TIP3    H269096   5.551   6.677  15.142 -0.8458 -1.8541  0.2310
15869TIP3   OH269097   5.028   3.894  12.025 -0.3816  0.1598  0.4569
15869TIP3    H169098   5.112   3.891  12.072  0.0211 -2.3198 -0.2632
15869TIP3    H269099   5.047   3.942  11.944  0.5154 -0.7979  0.0751
15870TIP3   OH269100   2.938   5.646  16.000 -0.1890 -0.2201  0.3913
15870TIP3    H169101   2.852   5.688  16.000  0.1719  0.5485 -0.5178
15870TIP3    H269102   2.919   5.552  16.000 -1.0163 -0.0611  0.6499
15871TIP3   OH269103   6.553   3.389  13.880  0.2694 -0.7590  0.6045
15871TIP3    H169104   6.587   3.414  13.966 -1.7066 -0.5293  1.3849
15871TIP3    H269105   6.585   3.299  13.868  0.4315 -0.8655  1.6718
15872TIP3   OH269106   0.907   1.658  10.988 -0.4236  0.3457  0.0201
15872TIP3    H169107   0.864   1.694  10.910  0.2695  2.4133  0.5321
15872TIP3    H269108   0.963   1.589  10.954 -2.4274 -0.9163 -0.9161
15873TIP3   OH269109   4.663   5.175   4.620 -0.3352 -0.0056  0.2619
15873TIP3    H169110   4.748   5.175   4.574 -0.2449  0.8250  0.4195
15873TIP3    H269111   4.665   5.254   4.674 -0.8683 -0.4329  0.9203
15874TIP3   OH269112   2.135   0.689   1.426  0.1360  0.2001  0.1746
15874TIP3    H169113   2.182   0.745   1.488  0.4023  0.0596  0.0990
15874TIP3    H269114   2.044   0.690   1.457  0.0088  1.1802 -0.1779
15875TIP3   OH269115   1.977   2.203  16.530  0.1037 -0.5468 -0.9546
15875TIP3    H169116   1.938   2.271  16.475 -1.6180 -0.9174 -0.2430
15875TIP3    H269117   1.924   2.126  16.514 -0.2549 -0.7456  0.9936
15876TIP3   OH269118   1.624   2.965   5.272 -0.0921  0.0545  0.4982
15876TIP3    H169119   1.649   2.981   5.363  0.1010  0.2943  0.4031
15876TIP3    H269120   1.529   2.950   5.276 -0.4518  2.0415  0.5085
15877TIP3   OH269121   3.318   6.088  12.234 -0.4100  0.1701 -0.3424
15877TIP3    H169122   3.285   5.998  12.228  0.8126 -0.2145 -1.8902
15877TIP3    H269123   3.353   6.094  12.323  1.3600 -1.6167 -0.8404
15878TIP3   OH269124   0.662   4.473  14.849  0.5321  0.1170 -0.1036
15878TIP3    H169125   0.584   4.528  14.856 -1.2287 -2.0076 -1.6200
15878TIP3    H269126   0.693   4.487  14.760  0.4283 -0.8497 -0.2970
15879TIP3   OH269127   1.621   2.112  17.211  1.0618  0.2765 -0.3258
15879TIP3    H169128   1.688   2.143  17.272  0.1949 -0.4173  1.0089
15879TIP3    H269129   1.561   2.060  17.264  0.8877 -1.3269 -1.9733
15880TIP3   OH269130   2.835   2.134  17.505  0.0855 -0.0759  0.4659
15880TIP3    H169131   2.781   2.059  17.482 -0.0744 -0.0072  0.6130
15880TIP3    H269132   2.921   2.097  17.524  0.5079 -0.0215 -1.2038
15881TIP3   OH269133   6.258   2.335  14.389  0.2186 -0.2974 -0.0738
15881TIP3    H169134   6.212   2.408  14.430  0.4474 -0.9152  1.3281
15881TIP3    H269135   6.194   2.264  14.388 -0.4876  0.2560 -2.7170
15882TIP3   OH269136   4.606   5.228  12.492  0.1412  0.1366 -0.6512
15882TIP3    H169137   4.640   5.304  12.540  2.4529 -1.2801  0.1211
15882TIP3    H269138   4.524   5.206  12.537  1.4397 -0.1755  1.7018
15883TIP3   OH269139   5.672   0.251   0.224 -0.1062 -0.1272 -0.0410
15883TIP3    H169140   5.722   0.313   0.171 -1.4933  0.4758 -0.6886
15883TIP3    H269141   5.602   0.304   0.262  0.3336 -0.7275  1.7132
15884TIP3   OH269142   6.486   0.493  12.860 -0.0736  0.4714  0.0022
15884TIP3    H169143   6.562   0.541  12.893  2.0058 -1.4777 -1.6099
15884TIP3    H269144   6.464   0.535  12.777 -1.0532  1.2430  0.6204
15885TIP3   OH269145   0.453   2.543   6.446  0.4452 -0.4801 -0.3204
15885TIP3    H169146   0.434   2.511   6.358 -0.6809  1.2229 -0.7641
15885TIP3    H269147   0.367   2.553   6.487  1.0198 -3.2774  1.8132
15886TIP3   OH269148   1.901   4.761   4.724  0.6422 -0.0379 -0.0099
15886TIP3    H169149   1.968   4.803   4.778  1.9186  0.8365 -2.1497
15886TIP3    H269150   1.950   4.711   4.659 -0.8098 -0.6679 -0.6706
15887TIP3   OH269151   2.411   0.429   1.900  0.1683  0.3373  0.7733
15887TIP3    H169152   2.473   0.426   1.973  1.0314  0.6877  0.0771
15887TIP3    H269153   2.446   0.367   1.836 -0.1866  0.5606  0.3535
15888TIP3   OH269154   0.780   0.870  14.022  0.4478 -0.0647  0.4511
15888TIP3    H169155   0.714   0.808  14.052  0.1261 -0.1228 -0.3416
15888TIP3    H269156   0.743   0.956  14.041  2.0269  0.0011  4.0572
15889TIP3   OH269157   3.962   4.060  15.529 -0.2621 -0.1076 -0.3148
15889TIP3    H169158   3.936   4.057  15.621  1.2499  0.1166  0.1530
15889TIP3    H269159   3.899   4.117  15.487  1.6459  3.7224  1.5511
15890TIP3   OH269160   4.824   3.571  11.478 -0.4141  0.0469  0.4751
15890TIP3    H169161   4.775   3.505  11.528 -0.6671 -0.9835 -1.0353
15890TIP3    H269162   4.894   3.521  11.437  0.0360  0.9420  0.1424
15891TIP3   OH269163   0.894   1.709  15.460  0.5809  0.0481  0.3306
15891TIP3    H169164   0.860   1.794  15.431  2.0781 -0.2509 -2.7168
15891TIP3    H269165   0.817   1.656  15.475 -0.3605  1.1737 -0.3541
15892TIP3   OH269166   6.390   2.828  17.480 -0.1482  0.7201  0.1165
15892TIP3    H169167   6.475   2.866  17.460  0.0391  0.0515 -0.3972
15892TIP3    H269168   6.328   2.879  17.430 -0.1885  1.8883  1.2952
15893TIP3   OH269169   3.638   6.240   1.074  0.2680  0.3984 -0.1223
15893TIP3    H169170   3.579   6.293   1.021  0.2468  0.5444  0.0497
15893TIP3    H269171   3.717   6.231   1.020  0.8085  1.7551  0.4049
15894TIP3   OH269172   2.448   1.942  15.404  0.6760 -0.1657  0.0878
15894TIP3    H169173   2.426   1.875  15.469 -1.6071 -0.0963 -0.5387
15894TIP3    H269174   2.376   2.005  15.409  0.0844 -0.4688 -2.8861
15895TIP3   OH269175   4.852   4.453   1.006 -0.2615  0.0238 -0.4406
15895TIP3    H169176   4.903   4.420   1.080  0.7590  0.8716 -0.7452
15895TIP3    H269177   4.783   4.387   0.994  1.0029 -1.3938 -0.2860
15896TIP3   OH269178   5.939   4.525  12.960  0.6462 -0.4557 -0.1339
15896TIP3    H169179   5.947   4.459  12.892  0.7110  0.1188 -0.6940
15896TIP3    H269180   5.872   4.491  13.019 -0.7336 -0.1444 -1.4456
15897TIP3   OH269181   3.339   3.144   0.260  0.1686  0.1398 -0.3700
15897TIP3    H169182   3.267   3.202   0.234  0.0594  0.4791  0.6357
15897TIP3    H269183   3.296   3.060   0.280  0.0452  0.3229  0.1647
15898TIP3   OH269184   3.999   2.974  15.126  0.7282  0.6785  0.3898
15898TIP3    H169185   4.044   3.049  15.087  0.3223  0.2663 -0.9350
15898TIP3    H269186   3.952   3.011  15.201  1.2705  1.5725  0.3064
15899TIP3   OH269187   1.959   6.137   6.717  1.2442 -0.3486  0.0401
15899TIP3    H169188   2.039   6.116   6.765  0.7380 -0.1947  0.9980
15899TIP3    H269189   1.889   6.116   6.779  0.6340  2.0961  0.2798
15900TIP3   OH269190   1.697   0.113  12.075  0.5151 -0.2303  0.1903
15900TIP3    H169191   1.608   0.111  12.111 -0.0071 -0.0556 -1.0687
15900TIP3    H269192   1.716   0.022  12.054  0.5338 -0.2267  0.1913
15901TIP3   OH269193   0.995   2.911   0.832  0.2398 -0.2909  0.4470
15901TIP3    H169194   0.977   2.893   0.740 -0.5448 -0.7367  0.6788
15901TIP3    H269195   1.071   2.856   0.853 -0.1187 -0.8566  0.2879
15902TIP3   OH269196   2.017   3.237   5.349 -0.6126 -0.3659 -0.4242
15902TIP3    H169197   1.982   3.149   5.364 -0.0497 -0.3027  1.6051
15902TIP3    H269198   2.101   3.238   5.394 -0.7593  1.3178 -0.1016
15903TIP3   OH269199   6.500   1.969  13.416 -0.1841 -0.5183  0.0740
15903TIP3    H169200   6.435   1.905  13.386 -1.1852  0.2730  0.4648
15903TIP3    H269201   6.562   1.977  13.344 -0.3945 -1.4571 -0.2222
15904TIP3   OH269202   5.119   0.779  17.469 -0.0625  0.1936 -0.1706
15904TIP3    H169203   5.106   0.757  17.377 -0.9801  0.2205 -0.0546
15904TIP3    H269204   5.161   0.865  17.467  0.0149  0.1475 -0.5663
15905TIP3   OH269205   6.093   1.053  12.078 -0.1643 -0.4028  0.2417
15905TIP3    H169206   6.007   1.065  12.038 -0.3971  1.7010  1.2314
15905TIP3    H269207   6.075   1.033  12.169  0.3654  0.8414  0.6442
15906TIP3   OH269208   6.627   4.770  17.492  0.4460  0.7339 -1.0628
15906TIP3    H169209   6.679   4.764  17.572  0.8493  1.0195 -1.2997
15906TIP3    H269210   6.672   4.835  17.439  0.6217 -0.0059 -1.8524
15907TIP3   OH269211   1.016   2.915  13.346  0.2556  0.1798 -0.5685
15907TIP3    H169212   1.033   2.977  13.275  1.2429 -0.3397 -0.8086
15907TIP3    H269213   0.927   2.884  13.331  0.6891 -0.4438 -2.0048
15908TIP3   OH269214   5.818   2.397  13.983  0.4768 -0.5521 -0.0136
15908TIP3    H169215   5.859   2.403  14.069  0.6937 -0.1629 -0.1375
15908TIP3    H269216   5.877   2.342  13.932  1.8239  1.4123 -0.7164
15909TIP3   OH269217   2.808   2.520   3.017  0.2929  0.1438  0.5306
15909TIP3    H169218   2.870   2.468   2.966  0.2953  0.0634  0.6155
15909TIP3    H269219   2.862   2.576   3.072  0.2898 -0.2508  0.9355
15910TIP3   OH269220   6.469   2.801   0.528 -0.1200 -0.6427  0.0081
15910TIP3    H169221   6.420   2.720   0.538  1.4044 -1.7653 -1.1043
15910TIP3    H269222   6.416   2.854   0.469  0.5254 -2.3570 -2.2292
15911TIP3   OH269223   4.634   4.030  16.295 -0.1078 -0.3534  0.2694
15911TIP3    H169224   4.637   3.936  16.312  0.0694 -0.4768 -0.3911
15911TIP3    H269225   4.718   4.050  16.253 -0.1668  0.0860  0.3480
15912TIP3   OH269226   3.668   0.696  13.937  0.3152  0.2513 -0.3388
15912TIP3    H169227   3.654   0.743  14.019  2.8128 -1.0522  0.9460
15912TIP3    H269228   3.733   0.749  13.890  0.8916 -0.3537 -0.2369
15913TIP3   OH269229   6.493   4.144   5.564  0.2870  0.6120  0.0506
15913TIP3    H169230   6.517   4.228   5.523  0.7001  0.0951 -0.7990
15913TIP3    H269231   6.411   4.162   5.610  0.4322  1.5127 -0.0263
15914TIP3   OH269232   5.113   0.772  15.066 -0.2465  0.2705 -0.4921
15914TIP3    H169233   5.103   0.797  15.157 -0.3755 -1.2630 -0.0531
15914TIP3    H269234   5.146   0.682  15.069 -1.2045 -0.1679 -1.9362
15915TIP3   OH269235   4.176   5.021  14.700 -0.2344  0.3001  0.2824
15915TIP3    H169236   4.197   4.968  14.777 -0.0511  1.9605  1.4161
15915TIP3    H269237   4.255   5.016  14.645 -1.2322 -2.9507 -1.1345
15916TIP3   OH269238   6.540   4.406  11.874  0.3536 -1.5031  0.8170
15916TIP3    H169239   6.456   4.361  11.869  0.4772 -1.6191 -1.1686
15916TIP3    H269240   6.518   4.494  11.906 -0.6714 -1.2761 -0.4249
15917TIP3   OH269241   0.670   1.423   1.302  0.0073  0.3279 -0.0862
15917TIP3    H169242   0.663   1.511   1.265  1.3465  0.5431  0.1487
15917TIP3    H269243   0.687   1.367   1.227  0.5960  0.4687 -0.0579
15918TIP3   OH269244   0.791   4.925   4.990 -0.1612 -0.0077  1.1139
15918TIP3    H169245   0.802   4.866   4.915 -1.7711 -0.1380  0.9403
15918TIP3    H269246   0.797   5.013   4.953 -0.0242 -0.0646  0.9992
15919TIP3   OH269247   4.154   4.716  11.667  0.2039  0.1065 -0.2751
15919TIP3    H169248   4.226   4.687  11.723  0.7345 -0.2238 -1.1168
15919TIP3    H269249   4.119   4.635  11.629  1.0798  0.4528 -1.9000
15920TIP3   OH269250   3.286   5.443  14.197 -0.5880  0.7537 -0.4692
15920TIP3    H169251   3.349   5.506  14.231 -0.6949  0.5926  0.0303
15920TIP3    H269252   3.206   5.494  14.183 -0.7017  0.7120  0.0195
15921TIP3   OH269253   2.940   0.792   1.216 -0.3452 -0.1253  0.0841
15921TIP3    H169254   2.950   0.886   1.235  0.4054 -0.4807  1.5652
15921TIP3    H269255   2.862   0.787   1.160 -1.0145  1.2866  0.8330
15922TIP3   OH269256   6.230   0.268  13.882  0.1467  0.5497  0.4772
15922TIP3    H169257   6.290   0.326  13.928  0.6316  1.6411 -1.4464
15922TIP3    H269258   6.145   0.285  13.923  0.7464  0.5847  1.7638
15923TIP3   OH269259   2.943   2.128  17.002  0.0432 -0.0126  0.1484
15923TIP3    H169260   2.961   2.077  16.923  0.8323 -0.9937  0.9335
15923TIP3    H269261   2.864   2.178  16.980  0.7745  0.4519 -1.5693
15924TIP3   OH269262   1.511   0.798   0.493  0.0761  0.1723 -0.0869
15924TIP3    H169263   1.481   0.734   0.429 -0.7069  0.4121  0.0287
15924TIP3    H269264   1.444   0.797   0.562 -0.3641  1.6686 -0.4560
15925TIP3   OH269265   6.361   3.730  16.094  0.1508 -0.1881 -0.4853
15925TIP3    H169266   6.299   3.710  16.024  1.6015  2.0561 -2.5717
15925TIP3    H269267   6.447   3.730  16.051  1.2236  0.2490  1.5288
15926TIP3   OH269268   1.947   2.668   6.274 -0.3422  0.2581  0.2555
15926TIP3    H169269   1.902   2.587   6.250 -0.0054  0.5502 -1.4797
15926TIP3    H269270   2.037   2.642   6.293  0.1263  0.3616 -1.6521
15927TIP3   OH269271   1.987   5.753   3.841  0.6594 -0.1280 -0.5658
15927TIP3    H169272   1.958   5.674   3.886  1.2689 -0.5794 -0.9522
15927TIP3    H269273   1.948   5.747   3.754 -2.4397  1.8533  0.4899
15928TIP3   OH269274   3.337   2.608   5.149 -0.3246 -0.2872 -0.6606
15928TIP3    H169275   3.429   2.592   5.126 -0.0363 -1.4308  1.0859
15928TIP3    H269276   3.331   2.703   5.161  0.2370 -0.0271 -2.2462
15929TIP3   OH269277   5.866   1.105  12.329 -0.2282 -0.1335 -0.0761
15929TIP3    H169278   5.787   1.057  12.355 -0.6820 -0.1851 -1.5020
15929TIP3    H269279   5.938   1.052  12.364 -0.7918 -0.3675  0.7803
15930TIP3   OH269280   5.752   6.627  11.116 -0.2286  0.1544 -0.3736
15930TIP3    H169281   5.846   6.630  11.131 -0.0301 -0.2314 -1.4382
15930TIP3    H269282   5.730   6.534  11.117 -0.6993  0.2632  0.4039
15931TIP3   OH269283   5.481   2.726   3.490  0.5210  0.4496 -0.5232
15931TIP3    H169284   5.408   2.666   3.502  0.0786  1.2740  1.2322
15931TIP3    H269285   5.442   2.806   3.457  0.7278  0.6679 -0.2410
15932TIP3   OH269286   3.455   2.803  13.417  0.3192  0.2366 -0.0375
15932TIP3    H169287   3.431   2.877  13.362  0.5165 -0.9195 -1.7741
15932TIP3    H269288   3.434   2.726  13.364 -0.8178 -1.0229  2.0639
15933TIP3   OH269289   2.466   0.591  16.529  0.0589  0.1222 -0.0949
15933TIP3    H169290   2.542   0.544  16.496  0.6583  0.6847  0.4461
15933TIP3    H269291   2.404   0.592  16.456 -0.1746 -1.9061  0.0223
15934TIP3   OH269292   4.669   2.983   0.347 -0.4076 -0.1095  0.1131
15934TIP3    H169293   4.732   3.008   0.280 -0.1343  0.4947  0.5886
15934TIP3    H269294   4.602   3.052   0.344 -0.4706 -0.1599  0.3595
15935TIP3   OH269295   5.009   4.547  13.768 -0.5749  0.1656  0.4006
15935TIP3    H169296   5.039   4.637  13.772 -0.6486  0.1405  1.8491
15935TIP3    H269297   5.047   4.505  13.845  1.7618 -1.7815 -1.6390
15936TIP3   OH269298   1.513   0.615   3.224  0.2288 -0.3709 -0.5357
15936TIP3    H169299   1.529   0.530   3.265 -0.0412 -0.0068  0.3492
15936TIP3    H269300   1.563   0.612   3.143 -1.9698 -2.4816 -1.9893
15937TIP3   OH269301   3.143   3.716   0.331 -0.2586  0.2113 -0.8605
15937TIP3    H169302   3.234   3.745   0.335  0.2668 -1.2668 -1.5999
15937TIP3    H269303   3.134   3.653   0.402 -0.0058 -1.4522 -2.2510
15938TIP3   OH269304   0.434   2.887  12.011  0.8998 -0.5340 -0.3335
15938TIP3    H169305   0.491   2.963  12.025  0.7563 -0.5520  0.3669
15938TIP3    H269306   0.399   2.900  11.923 -0.5938  1.1935  0.4544
15939TIP3   OH269307   5.782   1.722  17.153 -0.1535 -0.6741  0.1691
15939TIP3    H169308   5.871   1.755  17.165  0.0142 -1.2496  0.5795
15939TIP3    H269309   5.743   1.779  17.087  0.3589 -0.1138  0.3434
15940TIP3   OH269310   2.351   6.539  12.065  0.2855 -0.4002  0.3589
15940TIP3    H169311   2.296   6.610  12.098  0.7177 -0.5912  1.5476
15940TIP3    H269312   2.384   6.496  12.144  0.1941 -1.7996 -0.3344
15941TIP3   OH269313   4.156   1.306  12.480 -0.1405  0.1202 -0.1824
15941TIP3    H169314   4.073   1.263  12.500 -0.5098  0.6551 -0.5147
15941TIP3    H269315   4.138   1.399  12.495  0.8253  0.1101  1.1731
15942TIP3   OH269316   2.290   1.560   1.680  0.0228  0.0566  0.5312
15942TIP3    H169317   2.223   1.544   1.613  0.1936 -0.2013  0.4182
15942TIP3    H269318   2.268   1.646   1.716  0.1080  0.3317 -0.0687
15943TIP3   OH269319   1.211   3.845   0.433 -0.2120 -0.1429  0.2611
15943TIP3    H169320   1.151   3.917   0.451 -0.4002  0.0365 -0.9653
15943TIP3    H269321   1.210   3.837   0.337  0.6261 -1.0729  0.3157
15944TIP3   OH269322   1.400   4.728  11.935  0.0676 -0.0062  0.0095
15944TIP3    H169323   1.428   4.638  11.917  2.3764  0.6071  0.2441
15944TIP3    H269324   1.461   4.782  11.884 -0.4267  1.4522  0.9179
15945TIP3   OH269325   1.391   6.446   6.058 -0.6906 -0.2481  0.0408
15945TIP3    H169326   1.416   6.408   5.974  0.7366  1.7671 -0.5350
15945TIP3    H269327   1.437   6.394   6.124  1.6684  0.7447 -0.7460
15946TIP3   OH269328   4.883   4.397  13.301  0.1788  1.2248  0.0364
15946TIP3    H169329   4.915   4.468  13.246 -2.0508  2.0450 -0.2968
15946TIP3    H269330   4.891   4.430  13.390  4.6756 -0.4468  0.5616
15947TIP3   OH269331   2.098   4.287  12.255 -0.0394 -0.3217  0.6377
15947TIP3    H169332   2.006   4.262  12.241  0.2721 -0.5497 -1.2821
15947TIP3    H269333   2.125   4.237  12.332 -1.1203 -1.3871  0.3550
15948TIP3   OH269334   5.707   4.228   5.424  0.2315 -0.6979 -0.3189
15948TIP3    H169335   5.619   4.267   5.425  1.4498  2.2724  0.4803
15948TIP3    H269336   5.695   4.141   5.463 -2.3112 -0.3107 -0.0601
15949TIP3   OH269337   1.602   2.887  12.744 -0.5664  0.4602  0.5624
15949TIP3    H169338   1.511   2.897  12.717 -0.2921  2.9263  0.3187
15949TIP3    H269339   1.638   2.824  12.681 -1.8147  0.2736 -0.0116
15950TIP3   OH269340   0.574   3.831  15.513 -0.4055  0.3399 -0.6170
15950TIP3    H169341   0.521   3.856  15.589 -1.1521 -0.2124 -0.9437
15950TIP3    H269342   0.655   3.798  15.550 -0.4004  0.9128 -0.0918
15951TIP3   OH269343   1.165   5.768   0.692  0.4861  0.0049 -0.4343
15951TIP3    H169344   1.083   5.720   0.702  0.6258  0.0891  1.3025
15951TIP3    H269345   1.170   5.786   0.598 -0.7236 -1.3131 -0.7886
15952TIP3   OH269346   0.783   2.636  14.509 -0.3864 -0.0228 -0.1100
15952TIP3    H169347   0.861   2.634  14.564 -0.7852 -1.3136  0.4373
15952TIP3    H269348   0.750   2.726  14.518 -0.3626 -0.1511  1.6514
15953TIP3   OH269349   3.649   5.540   6.293  0.1542 -0.0374 -0.0428
15953TIP3    H169350   3.565   5.585   6.293  0.5564  0.8112 -2.0923
15953TIP3    H269351   3.648   5.487   6.214  1.5364 -0.0146 -0.1004
15954TIP3   OH269352   6.431   0.288  11.102  0.4928 -0.5182  0.2954
15954TIP3    H169353   6.363   0.253  11.159  0.2857 -2.0356 -0.8110
15954TIP3    H269354   6.425   0.383  11.111 -1.1005 -0.6640  0.9593
15955TIP3   OH269355   3.088   3.284  15.059  0.3266  0.3149 -0.5489
15955TIP3    H169356   3.115   3.193  15.067  0.2148  0.1494 -1.9749
15955TIP3    H269357   3.152   3.324  15.001 -0.9794  0.5449 -1.8936
15956TIP3   OH269358   4.222   6.052  11.622  0.0734  0.4733  0.1146
15956TIP3    H169359   4.244   6.076  11.712 -0.3945  0.2569  0.2893
15956TIP3    H269360   4.303   6.015  11.587 -0.7861 -3.8206  1.9329
15957TIP3   OH269361   0.341   4.121   6.849 -0.0401 -0.1425 -0.0047
15957TIP3    H169362   0.289   4.045   6.824  0.1995 -0.6701  1.0760
15957TIP3    H269363   0.422   4.085   6.884 -0.5008  0.5280  1.8488
15958TIP3   OH269364   5.118   0.124   0.234  0.1336  0.1447  0.6264
15958TIP3    H169365   5.044   0.166   0.277  0.8575  1.4686  0.6330
15958TIP3    H269366   5.090   0.033   0.221 -1.3611  0.5424  0.8881
15959TIP3   OH269367   5.290   5.907   1.715 -0.4520 -0.3859  0.3925
15959TIP3    H169368   5.335   5.928   1.632  0.1613 -2.9129  0.0187
15959TIP3    H269369   5.345   5.841   1.756 -2.1987 -1.2450  1.4728
15960TIP3   OH269370   2.739   4.192  14.121  0.1491 -0.3963  0.4735
15960TIP3    H169371   2.720   4.285  14.112 -0.8139 -0.6603 -0.4404
15960TIP3    H269372   2.654   4.149  14.115  0.6990 -1.4110 -0.4165
15961TIP3   OH269373   0.891   3.728  13.117  0.2994  0.1101 -0.1369
15961TIP3    H169374   0.854   3.816  13.118 -1.0116 -0.4259 -0.0455
15961TIP3    H269375   0.848   3.683  13.190 -0.3420 -1.1184 -1.2431
15962TIP3   OH269376   2.540   4.863  16.360  0.3753 -0.2087  0.3886
15962TIP3    H169377   2.477   4.915  16.410  1.4685 -0.1036  1.7102
15962TIP3    H269378   2.506   4.864  16.270 -1.1821  0.3257  0.9459
15963TIP3   OH269379   3.153   6.288   4.455 -0.0952 -0.5368 -0.6491
15963TIP3    H169380   3.098   6.330   4.521  0.8351  0.0909 -0.2494
15963TIP3    H269381   3.207   6.227   4.504  2.1537  1.4845 -0.4355
15964TIP3   OH269382   3.411   2.657   2.735  0.2577 -0.3185  0.1268
15964TIP3    H169383   3.377   2.574   2.769 -1.3155 -0.4508 -1.6168
15964TIP3    H269384   3.452   2.635   2.652  1.2169  0.4550  0.3640
15965TIP3   OH269385   1.798   4.184  16.316 -0.1564 -0.7903 -0.2376
15965TIP3    H169386   1.815   4.230  16.234 -2.0210  0.3685 -0.0465
15965TIP3    H269387   1.756   4.102  16.290  0.3649 -0.9898 -0.4669
15966TIP3   OH269388   0.913   1.066  16.760 -0.0513  0.0246  0.2473
15966TIP3    H169389   0.969   0.990  16.778 -1.4485 -0.8920  0.8294
15966TIP3    H269390   0.849   1.034  16.696  0.3834  1.2157 -0.8230
15967TIP3   OH269391   0.887   3.781  15.870 -0.1754  0.2223 -0.0776
15967TIP3    H169392   0.972   3.822  15.887 -0.6212  0.7572  1.0328
15967TIP3    H269393   0.895   3.743  15.783  1.2996  0.0002  0.1302
15968TIP3   OH269394   5.029   0.908  14.851 -0.0524  0.1998 -0.2383
15968TIP3    H169395   5.028   0.840  14.918 -0.1821  1.2041  0.8151
15968TIP3    H269396   5.121   0.928  14.836 -0.0324  1.9367  1.7575
15969TIP3   OH269397   5.859   4.068   0.307  0.0871 -0.1169 -0.2098
15969TIP3    H169398   5.881   4.014   0.383 -0.5414  0.7308  0.6115
15969TIP3    H269399   5.765   4.054   0.295  0.3659 -1.0001 -1.4667
15970TIP3   OH269400   2.401   3.225  12.717 -0.0729 -0.3689  0.7643
15970TIP3    H169401   2.346   3.149  12.695 -1.0027  0.4829  0.0818
15970TIP3    H269402   2.402   3.227  12.812  0.2452 -1.4326  0.7981
15971TIP3   OH269403   6.124   5.403  11.810  0.0630  0.9870 -0.3440
15971TIP3    H169404   6.115   5.328  11.869 -0.7228  0.9303 -0.5172
15971TIP3    H269405   6.155   5.474  11.866 -1.1204  1.0648  0.2621
15972TIP3   OH269406   3.929   2.944  11.203  0.0984 -0.4272 -0.4675
15972TIP3    H169407   3.842   2.979  11.188 -0.1927 -0.5631  0.7972
15972TIP3    H269408   3.988   3.019  11.196 -0.3927  0.1391  1.0358
15973TIP3   OH269409   1.910   2.919   2.474  0.5591 -0.2709 -0.0290
15973TIP3    H169410   1.910   3.004   2.431  0.6892  0.7742  1.9232
15973TIP3    H269411   1.857   2.863   2.417 -0.4367  1.4010 -0.8074
15974TIP3   OH269412   0.979   4.631  14.887 -0.0086  0.0542 -0.1062
15974TIP3    H169413   0.917   4.575  14.934  0.2442 -0.1685 -0.0366
15974TIP3    H269414   0.950   4.720  14.908  0.8125 -0.0154  1.4728
15975TIP3   OH269415   2.807   2.666  12.269  0.3632 -0.0015 -0.0397
15975TIP3    H169416   2.808   2.603  12.341 -0.1702  1.4236  1.2601
15975TIP3    H269417   2.746   2.629  12.206  0.2128 -0.8822  0.5978
15976TIP3   OH269418   1.613   1.802  12.075  0.3119  0.1509 -0.2409
15976TIP3    H169419   1.596   1.747  12.151  0.0495 -0.7461 -0.9260
15976TIP3    H269420   1.709   1.805  12.069  0.3959 -2.2088 -1.5223
15977TIP3   OH269421   4.580   1.880  12.267 -0.1452 -0.0186  0.3713
15977TIP3    H169422   4.671   1.854  12.252  0.5735  2.0939  0.7613
15977TIP3    H269423   4.531   1.836  12.197  1.1742 -1.0196  0.0184
15978TIP3   OH269424   6.185   1.026   6.265 -0.0041 -0.1525  0.1447
15978TIP3    H169425   6.197   0.965   6.338  3.7109  1.1212  0.7796
15978TIP3    H269426   6.246   0.996   6.198 -2.3427 -0.4581 -1.9932
15979TIP3   OH269427   6.080   5.080  14.369 -0.0622 -0.2650  0.3147
15979TIP3    H169428   6.019   5.054  14.438 -0.6224  0.8412  0.2466
15979TIP3    H269429   6.123   4.998  14.344 -1.2064 -0.9944  0.6578
15980TIP3   OH269430   4.222   2.454  16.442 -0.1878 -0.0897 -0.4215
15980TIP3    H169431   4.254   2.536  16.405  1.1792 -0.1842  0.4945
15980TIP3    H269432   4.176   2.480  16.522  0.4851 -0.2256  0.0172
15981TIP3   OH269433   5.236   0.507   5.656 -0.4800  0.3129  0.2897
15981TIP3    H169434   5.202   0.593   5.680 -0.4892  0.6652 -0.9251
15981TIP3    H269435   5.158   0.457   5.631 -0.4987 -0.1250  1.2116
15982TIP3   OH269436   3.841   6.050   2.665  0.6809 -0.2761  0.1037
15982TIP3    H169437   3.908   6.088   2.607  0.7505  1.1651  1.0709
15982TIP3    H269438   3.758   6.085   2.631  0.8484  1.9721  1.8097
15983TIP3   OH269439   5.842   3.712  12.079  0.3653  0.2869 -0.0656
15983TIP3    H169440   5.827   3.653  12.006  0.0604  0.2447  0.0323
15983TIP3    H269441   5.775   3.780  12.070 -0.8637 -0.7086  1.2177
15984TIP3   OH269442   1.556   4.681   0.678  0.2695  0.4386  0.2474
15984TIP3    H169443   1.571   4.592   0.647 -1.5738 -0.0139  0.5305
15984TIP3    H269444   1.500   4.670   0.755  0.5093  1.8170  0.6414
15985TIP3   OH269445   2.382   6.201  14.734 -0.4770  0.0704 -0.1582
15985TIP3    H169446   2.318   6.186  14.664  1.0103  0.1920 -1.6087
15985TIP3    H269447   2.446   6.262  14.696  0.2820  0.2704  1.3685
15986TIP3   OH269448   2.581   6.541   2.376 -0.1030 -0.0536  0.1653
15986TIP3    H169449   2.507   6.602   2.383 -0.0165 -0.0530  1.3206
15986TIP3    H269450   2.643   6.585   2.318 -0.6019  0.3744 -0.0507
15987TIP3   OH269451   0.156   4.173  17.106  0.2141  0.7531 -0.1486
15987TIP3    H169452   0.202   4.204  17.027  0.6610  1.3527  0.3412
15987TIP3    H269453   0.142   4.080  17.089  2.9646  0.1586  0.2731
15988TIP3   OH269454   0.903   1.739  14.243 -0.3634 -0.8257 -0.2716
15988TIP3    H169455   0.989   1.740  14.202  1.4067 -0.7077  3.0597
15988TIP3    H269456   0.865   1.825  14.225  1.1757 -0.0758 -0.0173
15989TIP3   OH269457   4.196   2.694  10.934 -0.0827 -0.1937  0.7006
15989TIP3    H169458   4.273   2.677  10.987  0.5740  0.6524  0.0431
15989TIP3    H269459   4.125   2.705  10.998  0.4803 -0.2270  1.3420
15990TIP3   OH269460   5.702   2.110  11.569  0.7672 -0.0354  0.1208
15990TIP3    H169461   5.633   2.176  11.583  0.8326  0.2312 -0.7896
15990TIP3    H269462   5.767   2.154  11.515  1.4541 -0.4360  0.5971
15991TIP3   OH269463   5.823   5.315  14.669  0.5082 -0.5097 -0.1123
15991TIP3    H169464   5.843   5.361  14.588 -1.1775  0.3038 -0.1080
15991TIP3    H269465   5.836   5.381  14.738 -2.4077  0.2274 -0.1462
15992TIP3   OH269466   3.960   3.135   1.641  0.1203 -0.2141  0.1700
15992TIP3    H169467   3.879   3.178   1.671 -0.6354 -0.5859 -1.2386
15992TIP3    H269468   4.005   3.203   1.591  0.3444 -0.2129  0.3732
15993TIP3   OH269469   5.279   1.476  16.024  0.1881  0.1175 -0.1088
15993TIP3    H169470   5.208   1.451  16.084  0.5664 -0.7720 -0.0170
15993TIP3    H269471   5.283   1.404  15.961  2.7317 -1.1884  1.4063
15994TIP3   OH269472   5.034   4.243  12.042  0.4504  0.4360 -0.2181
15994TIP3    H169473   5.051   4.260  11.950 -0.7769  0.5853 -0.4280
15994TIP3    H269474   5.017   4.329  12.080  2.8633  0.6237  0.5917
15995TIP3   OH269475   0.972   4.446   1.193 -0.4150 -0.7859  0.3162
15995TIP3    H169476   1.035   4.474   1.127 -2.2564 -0.4818 -1.4051
15995TIP3    H269477   0.940   4.528   1.231  0.6849 -0.9615  1.6913
15996TIP3   OH269478   2.309   4.637   3.821 -0.1304 -0.1761 -0.1099
15996TIP3    H169479   2.234   4.631   3.879 -0.7531  0.6560 -0.8017
15996TIP3    H269480   2.354   4.552   3.831 -1.0206 -0.5953  0.4814
15997TIP3   OH269481   2.548   5.954  15.527  0.3185 -0.0237  0.4712
15997TIP3    H169482   2.539   5.956  15.432  2.6128  0.7196  0.2156
15997TIP3    H269483   2.504   6.035  15.556 -1.2927 -0.7587  0.1901
15998TIP3   OH269484   6.732   4.480  13.241 -0.3138 -0.1031  0.6019
15998TIP3    H169485   6.723   4.430  13.160 -0.0494 -0.8299  1.0101
15998TIP3    H269486   6.695   4.566  13.221  0.8870  0.1656 -0.6816
15999TIP3   OH269487   5.632   1.808  15.996  0.1819 -0.2635 -0.0948
15999TIP3    H169488   5.599   1.728  15.954  0.8274  0.1892 -1.5517
15999TIP3    H269489   5.703   1.837  15.938 -0.9258  2.1052 -0.3402
16000TIP3   OH269490   1.256   1.935   4.960 -0.0860 -0.1799  0.2708
16000TIP3    H169491   1.182   1.983   4.998 -1.9267 -1.9406 -0.8475
16000TIP3    H269492   1.246   1.845   4.993  1.2927 -0.5582 -0.2750
16001TIP3   OH269493   4.051   0.317   0.055  0.2311 -0.1379  0.8547
16001TIP3    H169494   4.017   0.404   0.037  0.6784  0.0346  0.8506
16001TIP3    H269495   4.115   0.301  -0.014  1.3109  0.1701  1.7570
16002TIP3   OH269496   6.232   0.642  13.083 -0.0442  0.1482  0.1017
16002TIP3    H169497   6.249   0.564  13.136  1.0352 -0.1973 -0.7181
16002TIP3    H269498   6.230   0.610  12.993  2.3139  1.2967 -0.4471
16003TIP3   OH269499   4.589   2.210  13.243  0.3364  0.3952 -0.0777
16003TIP3    H169500   4.641   2.129  13.236  1.1846  0.7767  1.3115
16003TIP3    H269501   4.498   2.180  13.240  0.6350 -0.5442 -0.2364
16004TIP3   OH269502   5.973   0.185   5.016  0.0321  0.2662  1.0681
16004TIP3    H169503   6.034   0.153   4.950 -1.2861 -1.8429  0.8046
16004TIP3    H269504   5.990   0.131   5.093 -0.7896  0.3685  1.3331
16005TIP3   OH269505   4.939   3.486  14.279 -0.4362 -0.3899 -0.6085
16005TIP3    H169506   5.023   3.440  14.281 -0.6133 -0.7605 -1.3612
16005TIP3    H269507   4.877   3.426  14.320 -0.0852  0.4752  1.3315
16006TIP3   OH269508   5.455   3.843   3.920 -0.6823 -0.2237  0.1895
16006TIP3    H169509   5.426   3.760   3.957  0.6261 -0.3898  0.9058
16006TIP3    H269510   5.468   3.900   3.995 -0.9878  0.4497 -0.2550
16007TIP3   OH269511   0.140   3.459   2.086 -0.1706  0.0729  0.0355
16007TIP3    H169512   0.227   3.419   2.094  0.0045  0.1148 -1.3812
16007TIP3    H269513   0.114   3.478   2.176  1.4251  0.3443  0.4797
16008TIP3   OH269514   3.329   6.142   5.029 -0.0519  0.3449 -0.1867
16008TIP3    H169515   3.304   6.069   4.974 -0.1428  0.6642 -0.5753
16008TIP3    H269516   3.287   6.218   4.989 -1.0297  0.4287  0.9424
16009TIP3   OH269517   4.708   5.564   3.214  0.3578  0.0478  0.2214
16009TIP3    H169518   4.680   5.517   3.136 -1.2679  0.4829  0.5023
16009TIP3    H269519   4.629   5.606   3.246  0.9633 -0.2291  2.1965
16010TIP3   OH269520   2.256   4.549  11.485  0.1023  0.3173  0.1641
16010TIP3    H169521   2.293   4.478  11.536  0.5227  0.0430 -0.5117
16010TIP3    H269522   2.257   4.517  11.395  0.9044  1.4196 -0.2443
16011TIP3   OH269523   6.381   4.202  15.607  0.6531  0.0219  0.1010
16011TIP3    H169524   6.300   4.171  15.565  1.7059  0.6403 -2.5748
16011TIP3    H269525   6.354   4.281  15.654 -0.6390 -0.8720  0.9630
16012TIP3   OH269526   4.436   0.593   5.846  0.5257 -0.2892  0.1019
16012TIP3    H169527   4.388   0.663   5.803  0.5769 -0.1345  0.2926
16012TIP3    H269528   4.415   0.514   5.796  1.9355  0.1465 -1.2699
16013TIP3   OH269529   2.730   2.347  17.388 -0.5280  0.4090  0.0863
16013TIP3    H169530   2.637   2.327  17.398 -0.7951  1.7864  0.5967
16013TIP3    H269531   2.775   2.280  17.439 -1.2446 -0.1861 -0.0473
16014TIP3   OH269532   3.027   5.393   2.521 -0.5590  0.2372  0.3735
16014TIP3    H169533   3.020   5.381   2.426  0.1479 -1.7559  0.5243
16014TIP3    H269534   3.105   5.343   2.546  0.3969  2.2825  1.7823
16015TIP3   OH269535   6.386   2.567  16.156 -0.1756 -0.1227 -0.6297
16015TIP3    H169536   6.376   2.510  16.080  3.5375 -1.6835 -0.1521
16015TIP3    H269537   6.433   2.515  16.220 -0.4902  2.1277  1.6015
16016TIP3   OH269538   6.646   1.391  12.375  0.9378 -0.1630  0.1091
16016TIP3    H169539   6.736   1.360  12.390  1.0253 -0.3344 -0.7294
16016TIP3    H269540   6.657   1.474  12.328  0.6532 -0.4018 -0.3850
16017TIP3   OH269541   1.276   1.001   5.213 -0.2051 -0.0982  0.4618
16017TIP3    H169542   1.358   1.048   5.232  0.3238 -1.0611  0.5892
16017TIP3    H269543   1.248   0.968   5.299 -0.2306 -0.5613  0.2763
16018TIP3   OH269544   6.034   4.382   2.368 -0.5598 -0.0836 -0.1892
16018TIP3    H169545   6.037   4.371   2.273  0.9494  0.9689 -0.2995
16018TIP3    H269546   5.989   4.465   2.381 -0.4279 -0.0382 -0.0084
16019TIP3   OH269547   3.386   3.056  15.442  0.1373 -0.3446 -0.1288
16019TIP3    H169548   3.348   3.023  15.523 -0.9343  0.1269 -0.4299
16019TIP3    H269549   3.476   3.079  15.466 -0.0190 -0.6669  0.8019
16020TIP3   OH269550   5.657   5.109  15.680 -0.1893  0.3787  0.2458
16020TIP3    H169551   5.607   5.189  15.698 -1.5315 -0.0786 -1.3064
16020TIP3    H269552   5.596   5.038  15.695  0.5079 -0.2911 -0.0135
16021TIP3   OH269553   3.491   2.662   4.816  0.2213 -0.2584 -0.1503
16021TIP3    H169554   3.553   2.734   4.805  0.2968 -0.1927  0.6241
16021TIP3    H269555   3.406   2.699   4.791  0.2916  0.0428  0.0511
16022TIP3   OH269556   3.831   5.572   3.000  0.7020  0.0447 -0.4616
16022TIP3    H169557   3.761   5.508   2.994  0.7163  0.0438 -0.6295
16022TIP3    H269558   3.790   5.650   3.037  1.2566 -0.9207  2.3848
16023TIP3   OH269559   0.294   2.549   2.231  0.2979 -0.2364  0.1892
16023TIP3    H169560   0.202   2.538   2.207  0.9066 -1.2382 -1.9813
16023TIP3    H269561   0.309   2.644   2.228 -0.1023 -0.1840 -2.0582
16024TIP3   OH269562   1.464   4.142   3.655 -0.2191 -0.0521 -0.4363
16024TIP3    H169563   1.422   4.200   3.591  0.2447 -0.2403 -0.9239
16024TIP3    H269564   1.540   4.107   3.608  0.0947 -0.2353  0.2065
16025TIP3   OH269565   1.696   4.826  14.230  0.0405 -0.8381  0.3507
16025TIP3    H169566   1.762   4.845  14.297  0.0397 -0.6970  0.3126
16025TIP3    H269567   1.616   4.808  14.279  0.3375 -1.9825  0.4404
16026TIP3   OH269568   1.355   0.708  17.293  0.1423 -0.3790  0.1697
16026TIP3    H169569   1.385   0.775  17.232  1.5310  1.9124  3.1178
16026TIP3    H269570   1.432   0.685  17.344 -1.4378 -0.1618  2.8159
16027TIP3   OH269571   2.949   5.867  14.740  0.3655  0.7441  0.8249
16027TIP3    H169572   2.932   5.774  14.758  1.1550  0.4243 -0.0459
16027TIP3    H269573   3.044   5.875  14.741  0.2980  1.5724  1.0000
16028TIP3   OH269574   6.031   5.680   4.707  0.1843 -0.0678  0.3703
16028TIP3    H169575   6.083   5.604   4.682  1.9186  1.3063 -0.3737
16028TIP3    H269576   6.095   5.749   4.723 -1.3629  1.4130  0.4652
16029TIP3   OH269577   6.067   3.762   5.034  0.4474 -0.2791  0.3463
16029TIP3    H169578   6.156   3.784   5.060  0.7178 -0.3284 -0.4848
16029TIP3    H269579   6.078   3.701   4.961 -0.2542  0.4116 -0.3639
16030TIP3   OH269580   5.479   3.445   2.135 -0.5644 -0.1881 -0.5102
16030TIP3    H169581   5.486   3.350   2.125  2.1430 -0.3024  1.4452
16030TIP3    H269582   5.535   3.480   2.065 -0.8312 -0.0532 -0.6587
16031TIP3   OH269583   3.630   3.140  14.027  0.3216 -0.1375 -0.4729
16031TIP3    H169584   3.575   3.120  13.951 -0.0336  0.5863 -0.4132
16031TIP3    H269585   3.659   3.054  14.059 -0.6817 -0.5282 -0.5711
16032TIP3   OH269586   0.301   0.655   5.886 -0.0446 -0.2479 -0.0523
16032TIP3    H169587   0.285   0.717   5.815 -0.0322 -0.7997 -0.5508
16032TIP3    H269588   0.396   0.653   5.895 -0.0846  0.6546  0.7506
16033TIP3   OH269589   3.742   5.337  14.008  0.7085 -0.3098 -0.0233
16033TIP3    H169590   3.656   5.319  14.047  1.3185 -1.5806  0.7989
16033TIP3    H269591   3.745   5.432  13.999 -0.4457 -0.1783  0.7221
16034TIP3   OH269592   1.856   0.212  13.461 -0.0354 -0.5650 -0.1194
16034TIP3    H169593   1.844   0.305  13.480 -1.0204 -0.9570  1.2973
16034TIP3    H269594   1.876   0.209  13.367  1.6545  1.1974  0.1247
16035TIP3   OH269595   5.217   5.578  17.384 -0.2777 -0.1000  0.4524
16035TIP3    H169596   5.158   5.633  17.333  0.4397  0.5164  0.2618
16035TIP3    H269597   5.165   5.550  17.460 -0.5178  1.2595  0.8192
16036TIP3   OH269598   2.329   2.280  11.231  0.2981 -0.8153  0.5165
16036TIP3    H169599   2.379   2.201  11.210 -0.4443 -0.9127 -0.9976
16036TIP3    H269600   2.356   2.344  11.165 -0.0064 -0.1826  0.9959
16037TIP3   OH269601   6.238   2.098   3.077 -0.2938 -0.2744  0.1036
16037TIP3    H169602   6.306   2.042   3.117 -2.0617 -2.2190  0.5669
16037TIP3    H269603   6.286   2.174   3.045  2.0087 -1.2312  1.0284
16038TIP3   OH269604   0.523   3.837  13.655  0.0373  0.5691 -0.2175
16038TIP3    H169605   0.607   3.835  13.609 -0.0224  0.1745 -0.3195
16038TIP3    H269606   0.540   3.793  13.738 -0.5151 -1.3247 -1.0464
16039TIP3   OH269607   3.328   1.436   5.444 -0.3250 -0.0719 -0.0798
16039TIP3    H169608   3.238   1.405   5.459  0.0874 -0.4376  1.9789
16039TIP3    H269609   3.380   1.355   5.437  0.2262  0.1057  1.6096
16040TIP3   OH269610   5.704   2.814  16.877  0.1921  0.2865  0.0453
16040TIP3    H169611   5.655   2.857  16.947 -1.3984  0.2586 -0.9752
16040TIP3    H269612   5.654   2.733  16.860  1.5817 -0.6138  0.1087
16041TIP3   OH269613   2.322   5.257  11.227  0.1697 -0.1002  0.1914
16041TIP3    H169614   2.370   5.233  11.148 -1.4100 -1.8092 -0.3110
16041TIP3    H269615   2.353   5.195  11.293 -0.2422 -0.2235  0.2684
16042TIP3   OH269616   0.854   0.718  16.097  0.3173  0.2465  0.1696
16042TIP3    H169617   0.798   0.665  16.040 -0.7348  0.8947  0.5656
16042TIP3    H269618   0.820   0.807  16.087 -0.0379  0.3448  1.9710
16043TIP3   OH269619   6.009   1.492   3.846  0.5929 -0.3639 -0.0744
16043TIP3    H169620   6.043   1.428   3.909  1.0379 -0.3076 -0.2507
16043TIP3    H269621   6.079   1.557   3.839  0.6050 -0.4396 -0.7290
16044TIP3   OH269622   5.334   5.117   2.118  0.2408 -0.0694  0.5419
16044TIP3    H169623   5.390   5.113   2.195  0.0448  0.6333  0.7279
16044TIP3    H269624   5.268   5.183   2.139  0.2629  0.2326 -0.2861
16045TIP3   OH269625   2.428   3.881   3.890 -0.7909  0.1339 -0.0785
16045TIP3    H169626   2.371   3.922   3.955 -0.7139  1.1919 -0.6680
16045TIP3    H269627   2.505   3.938   3.886 -0.0358 -0.8428  0.1127
16046TIP3   OH269628   5.812   4.884   5.916 -0.3150 -0.9441 -0.0788
16046TIP3    H169629   5.804   4.822   5.988 -1.3794 -0.7178  0.0109
16046TIP3    H269630   5.905   4.909   5.917  0.0111 -2.0989  0.2246
16047TIP3   OH269631   4.337   3.187   3.473 -0.5048  0.0516 -0.3214
16047TIP3    H169632   4.301   3.232   3.396 -0.3058 -0.7782 -0.9024
16047TIP3    H269633   4.261   3.170   3.528 -0.7674 -0.1147 -0.7294
16048TIP3   OH269634   5.824   6.396   4.674 -0.5210  0.0262 -0.7611
16048TIP3    H169635   5.787   6.458   4.611 -0.8053 -0.8514 -1.4645
16048TIP3    H269636   5.918   6.413   4.672 -0.6347  0.6843 -0.6737
16049TIP3   OH269637   2.806   4.143  11.176  0.2198 -0.5086  0.4583
16049TIP3    H169638   2.774   4.228  11.146 -1.0720 -1.0049  0.3637
16049TIP3    H269639   2.879   4.122  11.117  1.1207  0.9019  1.0238
16050TIP3   OH269640   3.706   4.488   2.565  0.3282 -0.1819 -0.3106
16050TIP3    H169641   3.735   4.464   2.477  0.8083 -1.5147  0.1954
16050TIP3    H269642   3.636   4.552   2.550 -2.2512 -3.0847 -1.8538
16051TIP3   OH269643   4.972   2.818   0.138  0.2330 -0.0429  0.0043
16051TIP3    H169644   4.962   2.744   0.198  1.4264  0.3097  0.6660
16051TIP3    H269645   4.893   2.816   0.084  0.3007 -1.8663 -0.0733
16052TIP3   OH269646   5.061   4.104  12.280  0.0317 -0.3411 -0.0985
16052TIP3    H169647   5.068   4.156  12.200 -0.3974 -0.3275 -0.1320
16052TIP3    H269648   4.967   4.102  12.299  0.0756 -0.8030  0.0983
16053TIP3   OH269649   5.323   0.277   2.591 -0.4574 -0.2546  0.0046
16053TIP3    H169650   5.317   0.371   2.574 -0.5161 -0.0995  0.8283
16053TIP3    H269651   5.322   0.270   2.687 -0.5768 -1.1036 -0.0524
16054TIP3   OH269652   3.857   6.412  16.368  0.1135 -0.4059  0.0996
16054TIP3    H169653   3.878   6.445  16.281  0.2956 -1.9936 -0.5050
16054TIP3    H269654   3.895   6.475  16.428  1.7252 -0.3014 -0.9784
16055TIP3   OH269655   0.506   0.232  16.689 -0.1438 -0.4969 -0.0813
16055TIP3    H169656   0.413   0.254  16.687  0.2041  1.0523 -0.2500
16055TIP3    H269657   0.539   0.273  16.768  0.6300  0.0331 -0.6632
16056TIP3   OH269658   4.045   1.565  13.599  0.4310  1.1407  0.6294
16056TIP3    H169659   4.033   1.512  13.678  0.7404 -0.4235 -0.3206
16056TIP3    H269660   4.120   1.620  13.618 -0.4844  1.9812  2.0051
16057TIP3   OH269661   4.490   5.891  14.057  0.1170  0.2602 -0.6662
16057TIP3    H169662   4.457   5.837  13.986  1.9758 -0.8060 -0.7849
16057TIP3    H269663   4.523   5.970  14.014 -0.1592  0.2948 -0.8119
16058TIP3   OH269664   1.577   5.283   6.775  0.2690 -0.2603  0.1470
16058TIP3    H169665   1.565   5.358   6.833 -0.2927  1.4035 -1.9758
16058TIP3    H269666   1.500   5.229   6.788 -0.5437  0.8221 -0.0208
16059TIP3   OH269667   3.880   1.202   1.577 -0.0032  0.1773 -0.8548
16059TIP3    H169668   3.890   1.275   1.517 -0.6638  1.0133  0.0206
16059TIP3    H269669   3.970   1.175   1.597  0.4833  3.0177  1.4705
16060TIP3   OH269670   1.648   6.148   5.875 -0.1765  0.2793  0.8472
16060TIP3    H169671   1.619   6.239   5.862  1.0359  0.7257  1.1812
16060TIP3    H269672   1.570   6.103   5.908 -0.6946  1.2885  1.0475
16061TIP3   OH269673   2.312   0.873   3.809  0.6769  0.3796  0.1339
16061TIP3    H169674   2.264   0.795   3.783  1.9228 -0.0321 -1.0856
16061TIP3    H269675   2.294   0.937   3.740  0.8793  0.6353  0.3132
16062TIP3   OH269676   3.972   1.613  14.171  0.3060 -0.2491 -0.7519
16062TIP3    H169677   4.022   1.660  14.104 -0.0205  1.9682  0.4482
16062TIP3    H269678   3.998   1.522  14.161  0.4123 -0.0040 -3.7438
16063TIP3   OH269679   0.826   5.910  14.049  0.4217  0.0089  0.1647
16063TIP3    H169680   0.840   5.991  14.000 -0.8687  0.2149  0.1215
16063TIP3    H269681   0.876   5.922  14.130 -0.3643  1.1654  0.4987
16064TIP3   OH269682   2.157   4.682  16.970 -0.1661 -0.5111 -0.5736
16064TIP3    H169683   2.084   4.686  17.032  0.0818 -0.8268 -0.2610
16064TIP3    H269684   2.235   4.681  17.025  0.2750  3.0517 -0.8749
16065TIP3   OH269685   2.773   0.321   0.332  0.1005 -0.0706  0.0537
16065TIP3    H169686   2.772   0.405   0.287 -2.3157  1.4726  2.6691
16065TIP3    H269687   2.866   0.302   0.346  0.8169  0.7979 -2.7415
16066TIP3   OH269688   4.188   6.304  12.355  0.3224  0.3084  0.0599
16066TIP3    H169689   4.266   6.359  12.360 -0.4803  1.5018 -0.0271
16066TIP3    H269690   4.176   6.272  12.444  1.6079 -0.9378 -0.1773
16067TIP3   OH269691   6.115   1.173   4.301  0.5154  0.3475 -0.5134
16067TIP3    H169692   6.171   1.122   4.358 -0.8695  0.5033  1.0622
16067TIP3    H269693   6.031   1.127   4.302 -0.5732  2.2301  0.4118
16068TIP3   OH269694   3.387   4.197   0.541 -0.3909 -0.2075  0.0043
16068TIP3    H169695   3.445   4.261   0.582 -0.9363 -1.1888  2.4905
16068TIP3    H269696   3.307   4.246   0.522  0.1396  0.4424 -0.5880
16069TIP3   OH269697   0.791   0.394  12.531  0.1633  0.5077 -0.0043
16069TIP3    H169698   0.821   0.303  12.533  0.0341  0.4460 -0.7370
16069TIP3    H269699   0.843   0.438  12.599  0.3977 -0.0577  0.1839
16070TIP3   OH269700   2.405   2.750  17.248  0.1674 -0.1954 -0.0766
16070TIP3    H169701   2.472   2.809  17.284  1.0566  0.2483 -2.3302
16070TIP3    H269702   2.380   2.695  17.323  1.6146  0.9245  1.3143
16071TIP3   OH269703   5.999   5.921   0.970  0.5262 -0.3380 -0.2611
16071TIP3    H169704   6.045   5.839   0.957 -0.5234 -1.0761  0.5082
16071TIP3    H269705   6.029   5.977   0.898  2.7467 -0.6926  0.3168
16072TIP3   OH269706   5.524   1.951   2.327 -0.9098 -0.2139 -0.4408
16072TIP3    H169707   5.603   1.896   2.323 -1.9715 -2.1337  2.3195
16072TIP3    H269708   5.558   2.040   2.331  1.1030 -0.9273 -0.1860
16073TIP3   OH269709   1.110   2.872   1.755  0.1691 -0.7894  0.9700
16073TIP3    H169710   1.168   2.835   1.688  0.4407 -0.6346  1.1180
16073TIP3    H269711   1.140   2.962   1.766  0.3901 -0.9342  1.5942
16074TIP3   OH269712   4.885   5.673   3.759 -0.0950 -0.3136  0.7620
16074TIP3    H169713   4.938   5.603   3.722  2.8815  1.5361  1.1771
16074TIP3    H269714   4.876   5.650   3.852 -1.3709 -1.3679  0.4037
16075TIP3   OH269715   3.423   5.502   3.834 -0.7440 -0.2965  0.1563
16075TIP3    H169716   3.354   5.528   3.894  1.1527  0.4446  2.1291
16075TIP3    H269717   3.492   5.466   3.890  0.4874 -1.0351 -1.7229
16076TIP3   OH269718   0.577   3.992   2.222 -0.2180 -0.4971  0.9314
16076TIP3    H169719   0.631   3.916   2.199 -0.8694 -1.2396  1.7949
16076TIP3    H269720   0.608   4.061   2.163 -0.3860 -1.7334 -0.7035
16077TIP3   OH269721   1.565   1.403   4.056  0.3833  0.4395 -0.0195
16077TIP3    H169722   1.550   1.338   3.988 -1.3574 -1.2467  1.8266
16077TIP3    H269723   1.580   1.352   4.135  1.7478  2.3196  1.0190
16078TIP3   OH269724   4.863   1.682  15.525  0.2187  0.2639 -0.0449
16078TIP3    H169725   4.840   1.761  15.574 -0.8268 -1.2632  2.1178
16078TIP3    H269726   4.953   1.662  15.552 -0.5051 -0.8241  1.7779
16079TIP3   OH269727   6.546   1.795   5.673  0.3310 -0.0183 -0.2347
16079TIP3    H169728   6.497   1.714   5.688  2.2648 -1.1253  0.4726
16079TIP3    H269729   6.624   1.768   5.624  1.5280  1.2111  0.8726
16080TIP3   OH269730   1.608   6.490  14.830  0.1920  0.4578  0.0787
16080TIP3    H169731   1.573   6.550  14.896 -0.4299 -0.5544  0.6931
16080TIP3    H269732   1.670   6.435  14.879 -1.9123 -1.7823  0.3813
16081TIP3   OH269733   5.759   1.062  15.841  0.3115  0.4173  0.4542
16081TIP3    H169734   5.763   0.998  15.770  0.3735 -1.6788  2.2548
16081TIP3    H269735   5.752   1.146  15.796  1.4214 -0.7066 -2.0424
16082TIP3   OH269736   5.718   2.680   0.730 -0.5066  0.4122 -0.0592
16082TIP3    H169737   5.689   2.632   0.809  1.4524  1.1536  1.1744
16082TIP3    H269738   5.689   2.625   0.657  1.8295 -2.8847  1.2625
16083TIP3   OH269739   0.564   4.306  16.922  0.2589  0.1788  0.0135
16083TIP3    H169740   0.572   4.320  16.828  0.5482 -1.3662 -0.2157
16083TIP3    H269741   0.589   4.390  16.961 -0.6735  1.1100 -1.2862
16084TIP3   OH269742   2.504   6.089   5.744 -0.3526  0.1091 -0.0478
16084TIP3    H169743   2.595   6.059   5.752  0.1206  1.5024  0.1758
16084TIP3    H269744   2.511   6.185   5.736 -1.8910  0.4104  1.6687
16085TIP3   OH269745   4.738   3.540  14.995  0.3344  0.6090 -0.1648
16085TIP3    H169746   4.753   3.603  14.925 -0.2907 -0.4689 -1.2979
16085TIP3    H269747   4.779   3.460  14.965 -0.8401 -0.1655  0.2237
16086TIP3   OH269748   6.652   5.587   2.088  0.4030  0.5964  0.3749
16086TIP3    H169749   6.612   5.674   2.095 -1.9186 -0.5178  2.1332
16086TIP3    H269750   6.627   5.543   2.169  2.1424 -1.4878 -0.1614
16087TIP3   OH269751   6.436   3.678   4.421 -0.4223  0.5020 -0.0900
16087TIP3    H169752   6.469   3.736   4.352  0.7994  0.2810  0.2756
16087TIP3    H269753   6.503   3.609   4.427  0.2174  1.2382  2.2240
16088TIP3   OH269754   4.978   6.161   1.068 -0.6007  0.5245  0.4844
16088TIP3    H169755   4.988   6.121   0.982 -1.5782 -1.2131  1.1216
16088TIP3    H269756   4.902   6.219   1.059 -0.3086  0.8434  0.0259
16089TIP3   OH269757   2.266   5.357   0.804 -0.0094  0.1241  0.0906
16089TIP3    H169758   2.348   5.361   0.854 -0.3349  2.0676  0.5672
16089TIP3    H269759   2.199   5.381   0.868 -0.9852 -1.4303 -0.2955
16090TIP3   OH269760   2.999   0.640  14.092  0.3285  0.1131  0.6152
16090TIP3    H169761   2.944   0.580  14.043 -0.1182 -0.0011  1.2484
16090TIP3    H269762   3.088   0.605  14.083  0.2003 -0.1123  0.2115
16091TIP3   OH269763   1.251   0.617  16.610 -0.2202  0.2328  0.5318
16091TIP3    H169764   1.263   0.532  16.653  0.9536  0.3324  0.4289
16091TIP3    H269765   1.283   0.603  16.520  3.1602  1.5756  1.3631
16092TIP3   OH269766   6.231   6.705   5.840  0.0807  0.1043 -0.3343
16092TIP3    H169767   6.169   6.753   5.786 -0.5510  0.1372  0.3999
16092TIP3    H269768   6.262   6.634   5.784 -1.0333 -0.2434 -0.5455
16093TIP3   OH269769   3.113   0.279   6.187  0.2448  0.5150 -0.3019
16093TIP3    H169770   3.159   0.227   6.253  1.3957 -0.9743 -2.1851
16093TIP3    H269771   3.181   0.329   6.143 -0.1528 -0.1744 -1.7765
16094TIP3   OH269772   2.764   1.469   2.680 -0.2379  0.1607  0.4220
16094TIP3    H169773   2.844   1.428   2.647  0.3981 -0.4398  2.5195
16094TIP3    H269774   2.765   1.450   2.774 -2.0981  1.4270  0.7496
16095TIP3   OH269775   0.736   4.480   4.317 -0.6406  0.1481 -0.9146
16095TIP3    H169776   0.652   4.520   4.340 -1.4805 -1.6211 -0.7533
16095TIP3    H269777   0.713   4.405   4.262  0.9336  0.3826 -1.9616
16096TIP3   OH269778   5.021   2.134   6.349 -0.1162  0.1721 -0.0197
16096TIP3    H169779   5.098   2.178   6.386 -0.2005 -0.6211  1.1708
16096TIP3    H269780   4.983   2.198   6.289  1.2343  0.7354 -0.3198
16097TIP3   OH269781   2.475   3.914  13.526 -0.4731 -0.4413 -0.8770
16097TIP3    H169782   2.520   3.929  13.442  1.0017  0.0800 -0.0200
16097TIP3    H269783   2.506   3.984  13.583 -0.8157 -1.2661  0.3591
16098TIP3   OH269784   3.802   2.310   2.431 -0.6351  0.2712 -0.1120
16098TIP3    H169785   3.783   2.401   2.407 -1.5086 -0.2950 -1.7700
16098TIP3    H269786   3.884   2.291   2.387 -0.1549  0.4170  0.7098
16099TIP3   OH269787   4.489   2.457   6.245 -0.3058 -0.4087 -0.4036
16099TIP3    H169788   4.482   2.367   6.277  0.0770 -1.8465 -3.8939
16099TIP3    H269789   4.406   2.472   6.198 -1.3947  2.0369  2.0717
16100TIP3   OH269790   0.329   4.375  15.060 -1.0351 -0.2031  0.3339
16100TIP3    H169791   0.371   4.303  15.107  0.2352 -0.6063 -1.3242
16100TIP3    H269792   0.277   4.332  14.993 -0.4103  0.4007 -0.5562
16101TIP3   OH269793   6.609   3.379  14.148  0.2500 -0.4095  0.2689
16101TIP3    H169794   6.521   3.385  14.186  0.3631  0.9565  0.3898
16101TIP3    H269795   6.649   3.304  14.192 -0.2088  0.1062  1.6301
16102TIP3   OH269796   0.794   1.677   3.099 -0.7088  0.5033  0.2338
16102TIP3    H169797   0.820   1.600   3.049 -1.2923  1.0931 -1.0279
16102TIP3    H269798   0.857   1.682   3.171  0.4722 -0.0808 -0.7371
16103TIP3   OH269799   0.411   2.212   2.813 -0.4034  0.1961 -0.7968
16103TIP3    H169800   0.345   2.259   2.762 -0.0974  0.8293 -0.6189
16103TIP3    H269801   0.372   2.126   2.831 -1.7182  1.0149  0.4197
16104TIP3   OH269802   6.475   1.949   3.197  0.1744  0.2490 -0.0386
16104TIP3    H169803   6.435   1.927   3.281 -0.7010 -1.1430 -0.7865
16104TIP3    H269804   6.521   1.870   3.171  0.4348  0.6641 -0.8672
16105TIP3   OH269805   4.867   4.461  14.679 -0.1746 -0.3852  0.0192
16105TIP3    H169806   4.957   4.461  14.648 -0.1252 -0.7587  0.1591
16105TIP3    H269807   4.849   4.552  14.703 -0.6695  0.2529 -2.4551
16106TIP3   OH269808   4.185   3.801  13.755  0.0378  0.7895 -0.2529
16106TIP3    H169809   4.157   3.722  13.709  0.4795  0.0256  0.7418
16106TIP3    H269810   4.280   3.804  13.742 -0.1280  1.8924 -1.3733
16107TIP3   OH269811   0.558   5.466  15.760  0.1794  0.1669  0.3311
16107TIP3    H169812   0.577   5.530  15.829  0.8633  0.7392 -0.3609
16107TIP3    H269813   0.463   5.457  15.762  0.1910  0.0810  1.4112
16108TIP3   OH269814   2.612   0.179   4.474  0.2216  0.0184 -0.2863
16108TIP3    H169815   2.630   0.092   4.510  0.8425  0.6595  1.0240
16108TIP3    H269816   2.520   0.175   4.448 -0.5674 -0.2300  2.2647
16109TIP3   OH269817   6.063   4.545   4.338 -0.4530 -0.3112 -0.4750
16109TIP3    H169818   6.148   4.588   4.351 -0.9254  1.0569 -1.6208
16109TIP3    H269819   6.002   4.594   4.393 -0.9063  0.2216 -1.4184
16110TIP3   OH269820   0.067   5.546   2.668  0.1358  0.3226 -0.2530
16110TIP3    H169821   0.082   5.500   2.586 -2.5794 -3.1428  0.9516
16110TIP3    H269822   0.143   5.526   2.722 -0.3754 -1.7309 -0.2374
16111TIP3   OH269823   5.603   5.844  16.754  0.4628  0.4102 -0.1062
16111TIP3    H169824   5.638   5.884  16.674  0.1018  1.2522  0.1495
16111TIP3    H269825   5.653   5.762  16.763  0.4867  0.2822 -1.2035
16112TIP3   OH269826   0.211   6.663   3.619  0.0479  0.6456  0.6815
16112TIP3    H169827   0.194   6.716   3.698  0.8672  2.1819 -0.1229
16112TIP3    H269828   0.209   6.573   3.650 -2.1778  1.0634  1.9897
16113TIP3   OH269829   0.905   4.722  16.792 -0.6467 -0.7242 -0.5496
16113TIP3    H169830   0.996   4.750  16.806 -1.0407 -0.3458  1.5455
16113TIP3    H269831   0.853   4.800  16.810 -1.5226 -1.6777  1.2747
16114TIP3   OH269832   5.621   1.066   1.691 -0.0286 -0.2871  0.8403
16114TIP3    H169833   5.691   1.113   1.647 -0.3840 -0.4229  0.1233
16114TIP3    H269834   5.661   0.984   1.719  0.2593 -0.0972  1.0012
16115TIP3   OH269835   2.206   2.312   3.690  0.5600 -0.3577 -0.1587
16115TIP3    H169836   2.237   2.298   3.779  1.5992 -0.2180 -0.4942
16115TIP3    H269837   2.130   2.254   3.682  0.0220  0.1407  1.0363
16116TIP3   OH269838   3.366   6.618   6.175  0.2954  0.0687 -1.2448
16116TIP3    H169839   3.316   6.548   6.131  0.2245 -0.8956  0.2851
16116TIP3    H269840   3.383   6.583   6.263 -0.8179  2.4864  0.0101
16117TIP3   OH269841   0.478   3.548   0.979 -0.0899  0.0144  0.3531
16117TIP3    H169842   0.449   3.627   0.934  2.5250 -0.7824 -3.1528
16117TIP3    H269843   0.513   3.579   1.062 -1.2100  2.1966  0.0854
16118TIP3   OH269844   1.147   5.094   2.941  0.3512 -0.0175  0.1500
16118TIP3    H169845   1.127   5.177   2.898  1.4243 -1.0016 -2.4376
16118TIP3    H269846   1.234   5.108   2.980  1.5334 -0.4882 -2.1438
16119TIP3   OH269847   1.142   3.607   4.721 -0.2974  0.0884 -0.2336
16119TIP3    H169848   1.116   3.566   4.804  0.8046 -1.6811 -0.7210
16119TIP3    H269849   1.154   3.700   4.744  0.7344 -0.4778  1.7800
16120TIP3   OH269850   5.256   6.536  15.485  0.5247 -0.4280  0.0769
16120TIP3    H169851   5.236   6.629  15.481 -2.3720 -1.0209 -2.1483
16120TIP3    H269852   5.290   6.515  15.398 -0.0619 -1.6800  0.1351
16121TIP3   OH269853   1.697   1.441   1.850  0.3705  0.3254  0.7457
16121TIP3    H169854   1.678   1.348   1.864 -1.9047  0.7990  1.2611
16121TIP3    H269855   1.702   1.477   1.939  1.1043  0.7350  0.5445
16122TIP3   OH269856   4.296   0.742  11.459 -0.1864  0.1254  0.1678
16122TIP3    H169857   4.210   0.700  11.472 -0.4615  1.1521  2.1311
16122TIP3    H269858   4.276   0.835  11.449  0.7302  0.5993  2.1883
16123TIP3   OH269859   3.153   5.551  17.266 -0.1670 -0.0946 -0.0007
16123TIP3    H169860   3.233   5.525  17.220  0.6175  0.0383  1.2470
16123TIP3    H269861   3.149   5.646  17.254 -0.1176 -0.0952 -0.0213
16124TIP3   OH269862   3.587   1.615   2.097 -0.0618  0.3841 -0.0621
16124TIP3    H169863   3.585   1.562   2.177  0.5844 -0.6289 -0.6909
16124TIP3    H269864   3.673   1.598   2.059 -0.9513 -0.4952 -1.8345
16125TIP3   OH269865   0.227   1.674   0.466 -0.2297 -0.3043  0.1971
16125TIP3    H169866   0.137   1.661   0.493 -0.1135 -1.5474  0.0729
16125TIP3    H269867   0.267   1.587   0.475  0.6932  0.0127 -0.6642
16126TIP3   OH269868   3.641   4.672   5.028 -0.6349  0.0681 -0.7145
16126TIP3    H169869   3.632   4.649   5.121  1.9655  0.5006 -0.2804
16126TIP3    H269870   3.579   4.742   5.014 -0.8397  0.2149  0.8012
16127TIP3   OH269871   0.628   4.390   0.089  0.7195 -0.0338 -0.1918
16127TIP3    H169872   0.541   4.429   0.090  1.0201  0.7434 -1.6321
16127TIP3    H269873   0.669   4.426   0.011  1.0170 -3.2227 -1.6483
16128TIP3   OH269874   5.301   2.543  17.301  0.3193 -0.7031  1.1113
16128TIP3    H169875   5.339   2.576  17.383  3.5289 -0.9193 -0.1397
16128TIP3    H269876   5.316   2.449  17.304  1.6110 -0.5738 -0.1976
16129TIP3   OH269877   6.265   2.608  15.730 -0.3859 -0.2037 -0.5582
16129TIP3    H169878   6.186   2.662  15.729 -0.3605 -0.0982  1.0292
16129TIP3    H269879   6.323   2.650  15.667 -1.1046  0.4774 -0.7896
16130TIP3   OH269880   3.235   0.964  15.337  0.2385  0.0881  0.0956
16130TIP3    H169881   3.312   1.020  15.350 -0.1504  0.3822  1.2929
16130TIP3    H269882   3.187   0.970  15.421 -1.9085  1.1646 -1.1099
16131TIP3   OH269883   3.590   4.258   4.915 -0.3500 -0.1184  0.5863
16131TIP3    H169884   3.500   4.224   4.920 -0.6316  0.3910 -0.5737
16131TIP3    H269885   3.623   4.224   4.832  0.8216 -0.9234  1.3504
16132TIP3   OH269886   5.939   1.628   1.808  0.2569  0.0260  0.5151
16132TIP3    H169887   5.919   1.584   1.890  1.3321  0.8313  1.2382
16132TIP3    H269888   6.029   1.600   1.787 -0.3037 -0.8598 -0.8609
16133TIP3   OH269889   3.444   5.091  15.505 -0.9529  0.1021  0.3746
16133TIP3    H169890   3.403   5.027  15.447 -0.7144 -0.6188  0.9794
16133TIP3    H269891   3.500   5.144  15.449 -0.5426 -0.7345 -0.0109
16134TIP3   OH269892   2.052   1.866   4.575  0.1311 -0.0381 -0.0444
16134TIP3    H169893   2.083   1.850   4.486  0.1468  0.4763 -0.1353
16134TIP3    H269894   1.978   1.806   4.586 -1.1487  1.2588 -1.1215
16135TIP3   OH269895   0.715   2.124  16.970 -0.5141 -0.2190  0.1685
16135TIP3    H169896   0.687   2.034  16.956  0.6783 -0.7756  1.1910
16135TIP3    H269897   0.758   2.148  16.888  0.1618 -0.9821  0.2866
16136TIP3   OH269898   2.015   2.899   6.393 -1.0989  0.0862  0.0546
16136TIP3    H169899   1.978   2.832   6.336 -1.9765  0.0254  0.6705
16136TIP3    H269900   2.083   2.853   6.443  0.0513  0.2652 -1.2831
16137TIP3   OH269901   6.214   4.487  12.047  0.1001  0.4738 -0.5551
16137TIP3    H169902   6.124   4.508  12.074  0.3535  1.0476 -0.1380
16137TIP3    H269903   6.268   4.554  12.090  0.9805 -1.1447  0.9929
16138TIP3   OH269904   1.395   3.697  11.799 -0.1044 -0.3593  0.5318
16138TIP3    H169905   1.323   3.756  11.819  1.3368  0.8895  2.3642
16138TIP3    H269906   1.424   3.663  11.884  2.5858  0.6273  0.1348
16139TIP3   OH269907   5.926   5.900  16.584  0.2509 -0.7533 -0.4533
16139TIP3    H169908   5.949   5.890  16.677 -0.5861  1.6060  0.0922
16139TIP3    H269909   5.842   5.854  16.575 -0.4912  0.3708  0.4100
16140TIP3   OH269910   3.163   3.414   4.273 -0.0808 -0.0749 -0.1372
16140TIP3    H169911   3.197   3.391   4.360  0.4243  1.1888  0.0067
16140TIP3    H269912   3.239   3.410   4.215  0.0016  1.0799 -0.1305
16141TIP3   OH269913   6.133   5.184  15.600 -0.0077  0.2793 -0.4450
16141TIP3    H169914   6.110   5.143  15.517 -0.3908  0.3356 -0.3706
16141TIP3    H269915   6.111   5.276  15.589 -0.8013  0.1531 -0.0248
16142TIP3   OH269916   5.835   1.956   4.114  0.0780 -0.6225 -0.0759
16142TIP3    H169917   5.825   1.892   4.044  0.3059 -0.8074  0.0610
16142TIP3    H269918   5.761   2.015   4.102  0.6501 -0.0898 -1.0496
16143TIP3   OH269919   4.435   2.719   1.093  0.5491 -0.3568 -0.2950
16143TIP3    H169920   4.453   2.628   1.069  0.5520 -0.2624 -0.6524
16143TIP3    H269921   4.520   2.755   1.115  0.5563 -0.4230 -0.2137
16144TIP3   OH269922   2.767   4.480  15.199 -0.2370 -0.1543 -0.2864
16144TIP3    H169923   2.733   4.568  15.219  0.6011 -0.1498  1.2625
16144TIP3    H269924   2.691   4.422  15.211 -0.6053  0.2579 -0.5683
16145TIP3   OH269925   0.249   6.396  12.109  0.1767 -0.5941  0.2047
16145TIP3    H169926   0.301   6.477  12.108 -0.1238 -0.3125  2.1495
16145TIP3    H269927   0.179   6.414  12.172 -0.1972 -2.1918  0.2837
16146TIP3   OH269928   4.003   5.712  11.434  0.2182 -0.2884  0.1041
16146TIP3    H169929   4.024   5.721  11.527 -0.5153 -0.7699  0.3261
16146TIP3    H269930   4.002   5.618  11.418  0.9117 -0.1941 -0.5352
16147TIP3   OH269931   0.844   4.056   4.327 -0.0454 -0.4356  0.5159
16147TIP3    H169932   0.782   4.125   4.305 -0.5814 -1.2630 -0.6481
16147TIP3    H269933   0.929   4.089   4.296 -0.4151 -0.5949 -0.7157
16148TIP3   OH269934   1.261   2.417   4.413 -0.9734 -0.1618 -0.5037
16148TIP3    H169935   1.292   2.412   4.503 -2.7405 -1.1811  0.0984
16148TIP3    H269936   1.336   2.388   4.360 -0.5165 -1.4385  0.7794
16149TIP3   OH269937   2.764   5.139   2.369  0.1157  0.1516 -0.4628
16149TIP3    H169938   2.770   5.215   2.312 -1.3951  0.2432 -0.5335
16149TIP3    H269939   2.845   5.140   2.420  1.6906 -0.1289 -2.8165
16150TIP3   OH269940   0.035   1.060   1.263 -0.2257 -0.3705 -0.2627
16150TIP3    H169941  -0.014   0.983   1.235 -1.8240  0.0575  1.2073
16150TIP3    H269942  -0.032   1.122   1.293  1.0335  1.4433 -1.0071
16151TIP3   OH269943   0.272   2.202   0.456  0.4525 -0.2861  0.2485
16151TIP3    H169944   0.281   2.167   0.367 -0.7500 -2.1806  0.8018
16151TIP3    H269945   0.203   2.149   0.496  0.4141  1.0230  2.0885
16152TIP3   OH269946   2.961   3.263   5.724  0.3844  0.2636  0.1549
16152TIP3    H169947   2.984   3.216   5.644  2.7749 -0.1343  0.9991
16152TIP3    H269948   2.934   3.194   5.786  1.3574  0.2450  0.5744
16153TIP3   OH269949   0.951   0.966   5.234  0.0117 -0.8822  0.0716
16153TIP3    H169950   0.984   0.883   5.198 -0.1200 -1.0167  0.2655
16153TIP3    H269951   1.009   0.985   5.307  1.0702  0.0248 -0.9474
16154TIP3   OH269952   1.180   1.943  17.501  0.2832  0.1230  0.3502
16154TIP3    H169953   1.223   1.865  17.466 -1.5764 -1.0235  0.4945
16154TIP3    H269954   1.182   2.006  17.428 -0.7899 -1.1325 -0.8256
16155TIP3   OH269955   3.287   1.427   5.748  0.7403  0.4101 -0.2923
16155TIP3    H169956   3.270   1.334   5.765 -1.8802  1.0775  1.3366
16155TIP3    H269957   3.237   1.446   5.669 -0.6236  0.8713  0.6431
16156TIP3   OH269958   5.270   3.106   2.025 -0.0331  0.3576 -0.6585
16156TIP3    H169959   5.204   3.130   2.089  0.7321 -0.8121  0.6418
16156TIP3    H269960   5.351   3.145   2.058  0.6005 -1.2352 -0.2217
16157TIP3   OH269961   1.217   1.287  14.922  0.1423 -0.0981  0.7185
16157TIP3    H169962   1.230   1.359  14.860 -1.0257  0.9002  1.5956
16157TIP3    H269963   1.187   1.214  14.868  0.9974  0.1696 -0.1371
16158TIP3   OH269964   2.739   3.815  13.068 -0.5748 -0.1821 -0.4899
16158TIP3    H169965   2.807   3.756  13.035  0.2050 -0.0837  0.8846
16158TIP3    H269966   2.745   3.891  13.009  2.6222  1.1549  1.2922
16159TIP3   OH269967   5.054   6.529  16.785  0.0732 -1.0291 -0.9095
16159TIP3    H169968   5.019   6.541  16.697  0.6531 -0.8831 -1.1249
16159TIP3    H269969   5.145   6.501  16.772 -0.2323 -2.3214 -0.3720
16160TIP3   OH269970   3.272   4.088  16.384 -0.2530 -0.5233 -0.3621
16160TIP3    H169971   3.261   4.103  16.478  0.8861 -0.8856 -0.1577
16160TIP3    H269972   3.250   3.996  16.371 -0.5436 -0.4399 -0.4833
16161TIP3   OH269973   1.589   6.506  14.367  0.0977  0.0760  0.2242
16161TIP3    H169974   1.501   6.494  14.332 -0.6163  0.0263  1.9457
16161TIP3    H269975   1.628   6.418  14.365 -1.1552 -0.6212  2.5743
16162TIP3   OH269976   6.455   3.384   0.106  0.4440 -0.6329 -0.4230
16162TIP3    H169977   6.455   3.370   0.201  1.6116  0.0532 -0.3099
16162TIP3    H269978   6.370   3.350   0.077 -0.8958  1.1126  1.1595
16163TIP3   OH269979   2.311   0.951   1.431  0.3335  0.0880  0.0606
16163TIP3    H169980   2.266   0.911   1.505 -0.2059 -0.8599 -0.7596
16163TIP3    H269981   2.383   1.000   1.470 -0.2284 -0.0103  1.2422
16164TIP3   OH269982   5.380   2.643  17.046 -0.8554 -0.6031  0.5259
16164TIP3    H169983   5.288   2.640  17.021 -0.7405 -1.3659  0.1523
16164TIP3    H269984   5.381   2.606  17.135 -0.7832 -1.6993  0.0884
16165TIP3   OH269985   0.953   4.480  10.791  0.0182 -0.1218 -0.1062
16165TIP3    H169986   0.876   4.464  10.738  0.8812 -0.7304 -1.2088
16165TIP3    H269987   1.026   4.481  10.729  1.2312 -2.1425  1.1843
16166TIP3   OH269988   3.622   3.009   1.287 -0.2578  0.3173  0.1533
16166TIP3    H169989   3.570   2.952   1.344  1.2965 -0.5165  0.7863
16166TIP3    H269990   3.649   2.951   1.215  0.6160  0.4840  0.3472
16167TIP3   OH269991   3.165   1.327   6.578  0.3885  0.2108  0.0297
16167TIP3    H169992   3.085   1.365   6.613 -0.2399 -1.9516  1.1097
16167TIP3    H269993   3.235   1.376   6.621 -0.3828  0.4534  1.0554
16168TIP3   OH269994   2.992   0.087   4.256 -0.2159  0.3009 -0.3766
16168TIP3    H169995   2.897   0.103   4.259 -0.0596  1.0852  1.7968
16168TIP3    H269996   3.007   0.017   4.319  0.4729 -1.2019 -2.1131
16169TIP3   OH269997   4.275   2.495  11.216  0.3354  0.3982  0.3414
16169TIP3    H169998   4.288   2.582  11.177 -1.0078 -0.2345 -1.6424
16169TIP3    H269999   4.202   2.508  11.277  0.6016  0.7907  0.5878
16170TIP3   OH270000   5.560   0.255   3.422  0.2646 -0.1483 -0.1692
16170TIP3    H170001   5.653   0.263   3.441  0.3992  0.0657 -0.9130
16170TIP3    H270002   5.518   0.306   3.492  0.5650 -2.0271  1.4492
16171TIP3   OH270003   4.840   4.945  16.717  1.0249 -0.1977 -0.0975
16171TIP3    H170004   4.789   5.012  16.764  1.7066 -0.3004  0.8224
16171TIP3    H270005   4.782   4.916  16.647  0.1950  0.3945  0.3195
16172TIP3   OH270006   1.154   1.060   0.099 -0.2272  0.1627  0.4274
16172TIP3    H170007   1.161   1.115   0.177 -0.0254  0.0223  0.5090
16172TIP3    H270008   1.119   1.118   0.032  0.0086  0.3970  0.5050
16173TIP3   OH270009   3.923   4.586   2.061 -0.1916  0.1960  0.1408
16173TIP3    H170010   3.972   4.668   2.052 -0.2316  0.0494 -2.0869
16173TIP3    H270011   3.953   4.532   1.987  0.4310 -2.1548  1.9754
16174TIP3   OH270012   2.723   6.454  12.215 -0.5116  0.1308  0.7715
16174TIP3    H170013   2.746   6.380  12.159 -1.3679  1.2304 -1.1340
16174TIP3    H270014   2.803   6.474  12.263  0.2864 -0.8263 -0.1063
16175TIP3   OH270015   4.071   2.612  11.792  0.6782  0.6811  0.2195
16175TIP3    H170016   4.007   2.563  11.740  0.8618  1.6918 -1.0084
16175TIP3    H270017   4.137   2.641  11.729  2.1849 -0.0206  1.3967
16176TIP3   OH270018   2.222   2.501  15.392  0.5945  0.7786 -0.1243
16176TIP3    H170019   2.275   2.424  15.371  0.2367  0.9239 -1.6851
16176TIP3    H270020   2.273   2.575  15.360 -0.4622  0.9269 -1.5984
16177TIP3   OH270021   5.212   5.855   2.415  0.4140  0.1738  0.6679
16177TIP3    H170022   5.289   5.829   2.365  0.6780  0.1670  1.0737
16177TIP3    H270023   5.206   5.790   2.486  0.2786  0.4152  0.8800
16178TIP3   OH270024   0.842   4.599   6.814  0.1911  0.3362 -0.4594
16178TIP3    H170025   0.830   4.692   6.835 -0.6978 -0.0823  1.0371
16178TIP3    H270026   0.932   4.593   6.783  1.2718  1.2794  2.1763
16179TIP3   OH270027   6.013   3.395   6.237 -0.7631 -0.4634  0.0443
16179TIP3    H170028   6.088   3.454   6.227 -0.6702 -0.5373  0.3046
16179TIP3    H270029   5.937   3.453   6.243 -0.4410 -0.2168  2.8674
16180TIP3   OH270030   0.556   2.405   4.042 -0.5457 -0.4371 -0.5336
16180TIP3    H170031   0.534   2.483   3.991 -1.9470  1.2324  2.3530
16180TIP3    H270032   0.629   2.433   4.097 -0.9100 -1.2387  0.3717
16181TIP3   OH270033   3.744   4.447   1.680  0.4347  0.3964 -0.3583
16181TIP3    H170034   3.702   4.480   1.760 -0.4753  1.9679 -1.4324
16181TIP3    H270035   3.689   4.374   1.652  0.7664 -0.1749  0.4251
16182TIP3   OH270036   3.846   3.064  16.232  0.0211  0.4725  0.0008
16182TIP3    H170037   3.754   3.070  16.256  0.1740  0.6822  0.5461
16182TIP3    H270038   3.846   3.064  16.136 -0.7121 -2.0206 -0.0765
16183TIP3   OH270039   0.116   4.403   4.342  0.1302 -0.4664 -0.0751
16183TIP3    H170040   0.088   4.312   4.348 -2.3739  0.1403 -1.1913
16183TIP3    H270041   0.079   4.434   4.260 -1.0138  2.1459  1.3127
16184TIP3   OH270042   0.470   6.209  13.172 -0.1904 -0.7315  0.0145
16184TIP3    H170043   0.435   6.258  13.246 -1.7601  2.4322 -2.5493
16184TIP3    H270044   0.413   6.132  13.165 -1.7896  0.3494  0.5285
16185TIP3   OH270045   1.649   0.603  16.017 -0.0434  0.5430  0.9601
16185TIP3    H170046   1.565   0.564  16.041  0.2306 -0.2695  0.6618
16185TIP3    H270047   1.674   0.557  15.936  0.8919  0.4667  1.2846
16186TIP3   OH270048   5.778   0.972  17.059 -0.3170 -0.2914 -0.7179
16186TIP3    H170049   5.850   0.990  16.998  1.0037  2.8644  1.4972
16186TIP3    H270050   5.739   1.058  17.076 -2.8352 -1.5381  0.3391
16187TIP3   OH270051   4.202   5.748   4.446  0.0386 -0.0757 -0.0644
16187TIP3    H170052   4.229   5.657   4.434 -0.4224 -0.1410 -0.7023
16187TIP3    H270053   4.112   5.751   4.413 -0.0528  0.5518  0.2118
16188TIP3   OH270054   2.223   1.806   0.729  0.0170 -0.2347  0.0490
16188TIP3    H170055   2.151   1.849   0.682  1.0569  0.2568 -1.1367
16188TIP3    H270056   2.234   1.722   0.685  2.2024  0.9675 -1.9076
16189TIP3   OH270057   4.916   4.784  11.639 -0.0054 -0.2544  0.4601
16189TIP3    H170058   4.886   4.760  11.726  0.1571  1.1024  0.9169
16189TIP3    H270059   4.907   4.704  11.587  0.8174 -1.3656  1.9488
16190TIP3   OH270060   6.305   4.681  14.610 -0.5416  0.6092  0.0093
16190TIP3    H170061   6.337   4.669  14.699 -1.8177  1.6224  0.6313
16190TIP3    H270062   6.291   4.775  14.601  1.3900  0.7936 -1.9423
16191TIP3   OH270063   3.298   2.174   2.502  0.4357 -0.0444  0.0505
16191TIP3    H170064   3.292   2.265   2.471 -0.3149  1.4499  4.0021
16191TIP3    H270065   3.384   2.169   2.544  0.7771 -1.4523 -0.7484
16192TIP3   OH270066   3.713   2.014   2.515 -0.0546  0.2795  0.3458
16192TIP3    H170067   3.661   2.040   2.439  1.6413  0.1959 -0.9165
16192TIP3    H270068   3.804   2.028   2.488  0.6011  2.4631  3.2024
16193TIP3   OH270069   5.189   3.606  12.017  0.6300 -0.3640 -0.3406
16193TIP3    H170070   5.258   3.557  12.063  0.8684  1.1890  1.0562
16193TIP3    H270071   5.119   3.614  12.081  0.2695  0.3965 -0.8180
16194TIP3   OH270072   4.176   1.439   3.546 -0.1956 -0.7478  0.2162
16194TIP3    H170073   4.249   1.497   3.523  0.2279 -0.7904  1.3743
16194TIP3    H270074   4.175   1.372   3.478  0.9612 -0.8386  0.2688
16195TIP3   OH270075   5.934   2.016   2.309 -0.1969  0.0904 -0.5034
16195TIP3    H170076   5.961   2.058   2.391  1.6653 -0.7191 -0.6521
16195TIP3    H270077   5.855   1.967   2.332 -0.4669  0.9346  0.4614
16196TIP3   OH270078   2.285   5.136   1.135 -0.0089 -0.5794 -0.2322
16196TIP3    H170079   2.343   5.100   1.203  0.2064 -2.0616 -1.1805
16196TIP3    H270080   2.306   5.087   1.056 -1.0730  0.3373 -1.1203
16197TIP3   OH270081   0.656   3.610   0.002 -0.2801  0.6417  0.2507
16197TIP3    H170082   0.710   3.669   0.056  0.9502 -0.0951 -0.1364
16197TIP3    H270083   0.684   3.628  -0.087  0.5349 -0.9200  0.1655
16198TIP3   OH270084   6.106   3.514  16.202  0.5136 -0.4961 -0.4111
16198TIP3    H170085   6.043   3.450  16.234 -2.6491  2.2894 -0.5111
16198TIP3    H270086   6.091   3.517  16.107  1.8668 -0.7733 -0.6587
16199TIP3   OH270087   0.516   3.674   1.879 -0.3057  0.3541  0.2123
16199TIP3    H170088   0.429   3.660   1.841 -1.1412  0.9433  1.8148
16199TIP3    H270089   0.542   3.760   1.848 -1.0541  0.9022  1.0532
16200TIP3   OH270090   4.500   2.639   3.288 -0.4408 -0.2399  0.2068
16200TIP3    H170091   4.439   2.658   3.360 -0.4127  1.1170 -0.1056
16200TIP3    H270092   4.543   2.558   3.315  0.7730  1.0678  2.5525
16201TIP3   OH270093   6.182   5.242  13.482  0.5673 -0.5267 -0.0852
16201TIP3    H170094   6.197   5.149  13.500  0.9255 -0.4113  0.2261
16201TIP3    H270095   6.206   5.252  13.389  2.6872 -0.3261  0.4209
16202TIP3   OH270096   1.614   2.510   5.147 -0.0312  0.3638  1.0748
16202TIP3    H170097   1.653   2.479   5.228  2.1205  1.3207  0.4903
16202TIP3    H270098   1.664   2.465   5.078 -1.3570  0.0835  0.2517
16203TIP3   OH270099   4.919   1.110  17.311 -0.3479  0.2635  0.1134
16203TIP3    H170100   4.950   1.037  17.257  1.3931  0.8481  0.2599
16203TIP3    H270101   4.824   1.101  17.311 -0.4208  0.1174 -2.8759
16204TIP3   OH270102   1.508   0.316   2.681 -0.8834  0.4031 -0.2386
16204TIP3    H170103   1.430   0.269   2.653 -0.4980 -0.7398  0.5337
16204TIP3    H270104   1.566   0.248   2.715  0.0790  1.3362  0.0440
16205TIP3   OH270105   4.802   1.341   3.532 -0.5269  0.0300 -0.5742
16205TIP3    H170106   4.893   1.331   3.560 -0.2583  1.1947 -0.9670
16205TIP3    H270107   4.800   1.306   3.442 -0.5998 -0.4867 -0.3766
16206TIP3   OH270108   0.235   4.398  14.509  0.0433 -0.4288  0.2018
16206TIP3    H170109   0.289   4.367  14.581 -1.0275 -1.1135  0.7261
16206TIP3    H270110   0.145   4.384  14.538 -0.4104 -1.1816 -1.4655
16207TIP3   OH270111   5.616   5.003  17.046  0.2601  0.3187  0.0546
16207TIP3    H170112   5.651   5.001  17.135 -1.4363  0.2148  0.7367
16207TIP3    H270113   5.588   5.094  17.033  1.7581  0.6838 -0.9116
16208TIP3   OH270114   3.192   6.320  16.403  1.0286  0.0661 -0.1689
16208TIP3    H170115   3.106   6.362  16.397  1.2600  0.6494  0.5941
16208TIP3    H270116   3.182   6.240  16.350 -0.6387 -0.9729  1.5688
16209TIP3   OH270117   6.091   2.393  13.724 -0.4693  0.6774 -0.1114
16209TIP3    H170118   6.058   2.303  13.719 -0.0416  0.5430 -0.6147
16209TIP3    H270119   6.136   2.398  13.808 -0.5890  0.4520 -0.0351
16210TIP3   OH270120   5.554   5.821  14.474 -0.3016  0.2410 -0.1107
16210TIP3    H170121   5.554   5.781  14.387  2.1882 -0.5174  0.1585
16210TIP3    H270122   5.518   5.909  14.459 -1.0393 -0.2904 -1.6751
16211TIP3   OH270123   6.406   0.019  13.866  0.4002 -0.0225  0.5549
16211TIP3    H170124   6.335   0.081  13.846  1.2564  0.5863 -0.7220
16211TIP3    H270125   6.365  -0.067  13.856 -0.0048  0.3044 -0.9283
16212TIP3   OH270126   0.809   2.272  15.197  0.1347 -0.4983  0.4084
16212TIP3    H170127   0.817   2.311  15.110 -2.1699 -1.2543 -0.2112
16212TIP3    H270128   0.895   2.233  15.213  1.7999  2.6843  0.0818
16213TIP3   OH270129   2.395   0.382   0.937  0.1030 -0.6145  0.1853
16213TIP3    H170130   2.339   0.454   0.966  0.1228 -1.0448  1.3038
16213TIP3    H270131   2.353   0.350   0.857  0.3834  0.9623 -0.6408
16214TIP3   OH270132   3.743   4.670   5.858 -0.0533  0.3323 -0.1301
16214TIP3    H170133   3.828   4.693   5.898  0.2288 -0.4708 -0.2622
16214TIP3    H270134   3.753   4.580   5.830 -0.3640  0.7753 -1.7433
16215TIP3   OH270135   3.237   3.649  11.559  0.0172 -0.8802  0.6734
16215TIP3    H170136   3.298   3.705  11.606  2.3657 -1.0665 -1.8610
16215TIP3    H270137   3.257   3.561  11.590 -0.4615 -0.7592  1.3484
16216TIP3   OH270138   1.775   2.042  12.542 -0.1472  0.5389  0.2739
16216TIP3    H170139   1.694   2.040  12.490 -0.4511 -1.0681  0.7699
16216TIP3    H270140   1.811   1.954  12.534  0.2018  0.4758  2.1436
16217TIP3   OH270141   1.660   2.358   2.603 -0.4321 -0.2068 -0.1325
16217TIP3    H170142   1.675   2.422   2.672  1.6253 -1.7790  0.9931
16217TIP3    H270143   1.737   2.364   2.547 -0.2012 -1.6489 -0.0120
16218TIP3   OH270144   3.697   5.294   1.464 -0.0474 -0.3476  0.1359
16218TIP3    H170145   3.748   5.213   1.465 -0.4719 -0.6239  0.1299
16218TIP3    H270146   3.750   5.356   1.415  0.0783 -0.7634 -0.2603
16219TIP3   OH270147   6.099   0.321   7.105 -0.7165  0.7658  0.2261
16219TIP3    H170148   6.020   0.268   7.093 -1.1330  1.4066  0.1193
16219TIP3    H270149   6.068   0.401   7.147 -0.1474  1.0967  0.0245
16220TIP3   OH270150   1.554   5.415  10.604  0.2841  0.2966  0.0698
16220TIP3    H170151   1.510   5.419  10.519  0.0202  0.0627  0.1913
16220TIP3    H270152   1.515   5.485  10.656  0.4538  0.4475 -0.0038
16221TIP3   OH270153   1.429   1.008  15.893  0.0431 -0.1882  0.2891
16221TIP3    H170154   1.334   1.023  15.891 -0.5766 -3.1359  1.2161
16221TIP3    H270155   1.455   1.005  15.801 -1.2262 -1.4729 -0.0647
16222TIP3   OH270156   0.463   1.542   3.928  0.4192 -0.0889 -0.1110
16222TIP3    H170157   0.494   1.454   3.907  1.2375  0.1317  0.1491
16222TIP3    H270158   0.368   1.536   3.919  0.6072 -0.3560 -2.5239
16223TIP3   OH270159   0.841   0.654   2.122  0.4581  0.7902  0.1912
16223TIP3    H170160   0.781   0.642   2.048  0.4993  0.2139  0.2429
16223TIP3    H270161   0.925   0.675   2.083  0.7940 -0.7749 -0.0058
16224TIP3   OH270162   1.646   2.663  17.166 -0.1340 -0.1229 -0.1720
16224TIP3    H170163   1.730   2.709  17.171 -0.1586 -0.0407 -0.4650
16224TIP3    H270164   1.667   2.572  17.186 -0.1810  0.1129  0.9971
16225TIP3   OH270165   4.936   6.507  12.162  0.5288  0.0027  0.6356
16225TIP3    H170166   4.851   6.551  12.162  0.9966  0.9309  0.2383
16225TIP3    H270167   4.981   6.542  12.240  0.9177  0.2546  0.2994
16226TIP3   OH270168   4.865   1.720   1.314  0.5958  0.0069 -0.3649
16226TIP3    H170169   4.818   1.672   1.382  1.5553 -0.5524 -0.0908
16226TIP3    H270170   4.860   1.812   1.342  2.5779 -0.3811  1.4743
16227TIP3   OH270171   6.545   5.129   5.184  0.4509 -0.5341  0.3580
16227TIP3    H170172   6.483   5.200   5.168  2.7796  1.4370 -0.4492
16227TIP3    H270173   6.569   5.138   5.277  1.6279  0.5275 -0.0328
16228TIP3   OH270174   4.036   0.177  15.880  0.2966  0.0854 -0.1990
16228TIP3    H170175   3.947   0.205  15.856  0.7206 -0.3519 -2.4537
16228TIP3    H270176   4.093   0.229  15.824  1.2811 -2.3056 -1.5528
16229TIP3   OH270177   5.461   0.623   1.730  0.7381  0.0960 -0.3786
16229TIP3    H170178   5.526   0.693   1.740 -0.5417  1.3292 -0.2919
16229TIP3    H270179   5.410   0.626   1.810 -1.3197  1.2436 -1.6357
16230TIP3   OH270180   0.749   2.885   0.947  0.3411  0.8330 -0.2076
16230TIP3    H170181   0.701   2.833   0.882 -0.1761  1.5197 -0.3997
16230TIP3    H270182   0.834   2.903   0.906  0.9696 -0.7847  0.3250
16231TIP3   OH270183   5.854   0.067   6.191 -0.1256 -0.5591  0.0950
16231TIP3    H170184   5.911   0.129   6.145  1.4495 -2.1694 -0.2186
16231TIP3    H270185   5.884   0.071   6.282  0.1989 -1.0794  0.0142
16232TIP3   OH270186   2.226   4.861   0.095 -0.5190 -0.1714  0.1843
16232TIP3    H170187   2.256   4.950   0.111  2.2824 -0.7158 -1.3464
16232TIP3    H270188   2.180   4.865   0.011  0.9775 -0.3804 -0.6717
16233TIP3   OH270189   3.882   2.991  13.057 -0.2499 -0.0770  0.2799
16233TIP3    H170190   3.963   2.989  13.006 -0.6519  2.0486 -0.5574
16233TIP3    H270191   3.821   3.040  13.002 -2.4811 -2.4482  0.4286
16234TIP3   OH270192   6.166   3.075  14.541 -0.2508  0.5415 -0.2218
16234TIP3    H170193   6.129   2.998  14.584 -1.1160 -0.2984 -2.3014
16234TIP3    H270194   6.093   3.110  14.489  0.4763  2.0265 -0.2859
16235TIP3   OH270195   2.189   2.246   2.526 -0.0388  0.1817  0.5726
16235TIP3    H170196   2.130   2.322   2.523 -0.4450 -0.1315  0.5209
16235TIP3    H270197   2.277   2.284   2.523 -0.2335  0.6650  0.7939
16236TIP3   OH270198   2.106   0.886  14.915  0.4535 -0.0576 -0.8104
16236TIP3    H170199   2.015   0.911  14.929 -0.0912 -2.0430 -0.5334
16236TIP3    H270200   2.102   0.815  14.851  1.4734 -2.3107  1.4656
16237TIP3   OH270201   1.061   5.477  12.019 -0.0831 -0.5606  0.6585
16237TIP3    H170202   1.129   5.535  12.053 -0.0866 -0.3597  0.3318
16237TIP3    H270203   1.097   5.443  11.937  0.0220 -1.2229  0.9740
16238TIP3   OH270204   0.106   6.504  13.148 -0.2040 -0.0764  0.0823
16238TIP3    H170205   0.175   6.466  13.094 -0.3103 -0.4356  0.2029
16238TIP3    H270206   0.153   6.551  13.217 -0.0747 -1.2674  0.8366
16239TIP3   OH270207   4.000   5.143   4.793  0.2926 -0.4724  0.6635
16239TIP3    H170208   3.922   5.181   4.834 -0.4212 -1.2064  0.0178
16239TIP3    H270209   4.012   5.059   4.836  0.1795 -0.7693  0.1296
16240TIP3   OH270210   2.542   2.046   3.789  0.4841  0.1572  0.2275
16240TIP3    H170211   2.584   2.000   3.862  0.2337 -1.0784 -0.3689
16240TIP3    H270212   2.535   1.979   3.720  2.5674  1.7817 -1.7094
16241TIP3   OH270213   6.073   1.414  13.357 -0.0188 -0.2569 -0.0272
16241TIP3    H170214   6.166   1.394  13.368 -0.4337 -0.8130  3.6891
16241TIP3    H270215   6.070   1.510  13.350  0.7864 -0.2086  0.1368
16242TIP3   OH270216   1.764   0.514   4.701 -0.1851 -0.4470  0.1119
16242TIP3    H170217   1.722   0.501   4.616  0.9333 -0.7598 -0.4199
16242TIP3    H270218   1.692   0.529   4.762 -0.9556  1.4384 -1.1613
16243TIP3   OH270219   1.859   4.857  14.000 -0.5086  0.4908  0.0070
16243TIP3    H170220   1.792   4.859  14.069 -0.1922  0.1781  0.3250
16243TIP3    H270221   1.926   4.918  14.030  0.6873 -1.2866  1.0724
16244TIP3   OH270222   1.295   3.540   5.119 -0.1720 -0.2152  0.0284
16244TIP3    H170223   1.347   3.475   5.167 -0.9911  1.0296  2.8342
16244TIP3    H270224   1.348   3.620   5.123 -0.2754 -0.0672 -1.2128
16245TIP3   OH270225   3.908   4.062   4.372 -0.4276 -0.2552  0.2275
16245TIP3    H170226   3.965   4.127   4.414 -1.9549 -1.0286  3.8172
16245TIP3    H270227   3.874   4.107   4.294  3.0106  1.0876 -0.6792
16246TIP3   OH270228   0.468   6.652  15.384 -0.1153  0.2718 -0.1676
16246TIP3    H170229   0.459   6.685  15.294 -0.4839 -0.5286 -0.4267
16246TIP3    H270230   0.560   6.666  15.405  0.2218 -0.5061 -1.0605
16247TIP3   OH270231   4.934   5.214   5.014 -0.0209  0.0988 -0.2435
16247TIP3    H170232   4.916   5.200   4.921 -2.1944 -0.2483  0.1795
16247TIP3    H270233   4.994   5.289   5.016 -2.0895  1.9307 -1.8400
16248TIP3   OH270234   2.914   0.197   4.742  0.4213 -0.1789 -0.1458
16248TIP3    H170235   2.966   0.165   4.815 -0.1720 -0.2411  0.2583
16248TIP3    H270236   2.897   0.119   4.689 -0.6643 -0.4801  0.6121
16249TIP3   OH270237   2.299   3.739  12.163  0.0401  0.1408 -0.3653
16249TIP3    H170238   2.322   3.663  12.110 -0.6556 -0.8328  0.7104
16249TIP3    H270239   2.206   3.730  12.180  0.0750  0.9062  0.3067
16250TIP3   OH270240   4.653   3.223  12.565  0.7754  0.2633  0.5440
16250TIP3    H170241   4.663   3.308  12.608 -0.1399  1.4292 -1.4181
16250TIP3    H270242   4.621   3.165  12.634  2.8776  1.0703  2.3122
16251TIP3   OH270243   6.226   0.971  14.558  0.0979 -0.0789 -0.1041
16251TIP3    H170244   6.175   0.930  14.488  0.9572  1.0944 -1.4670
16251TIP3    H270245   6.173   1.044  14.588  0.2332  0.1196 -0.3454
16252TIP3   OH270246   3.441   0.422  11.469  0.1434  0.1495 -0.6493
16252TIP3    H170247   3.413   0.361  11.537 -1.8298 -0.0283 -1.5492
16252TIP3    H270248   3.374   0.491  11.470  0.4037  0.4494 -1.9926
16253TIP3   OH270249   0.450   4.061  13.835 -0.0570  0.2723  0.4007
16253TIP3    H170250   0.462   4.021  13.749 -2.9855  0.4521 -0.1929
16253TIP3    H270251   0.492   4.000  13.896  1.5953 -0.1300 -1.0592
16254TIP3   OH270252   1.421   3.426  17.292  0.3794  0.3123  0.5036
16254TIP3    H170253   1.430   3.332  17.301 -2.5144  0.0053  1.0749
16254TIP3    H270254   1.490   3.452  17.231  1.0889 -2.1721  0.1764
16255TIP3   OH270255   4.106   1.433  11.288  0.2476 -0.3087 -0.2844
16255TIP3    H170256   4.175   1.404  11.228  0.3088  1.5246 -1.1581
16255TIP3    H270257   4.025   1.398  11.250  0.5259 -1.3358  0.0198
16256TIP3   OH270258   3.996   3.383  16.015 -0.1359  0.2754 -0.5874
16256TIP3    H170259   4.063   3.442  16.050 -1.4150  0.8645  0.9754
16256TIP3    H270260   3.914   3.415  16.053 -0.9303 -2.2893  0.0015
16257TIP3   OH270261   1.551   5.513  11.953 -0.0465 -0.3825 -0.0284
16257TIP3    H170262   1.605   5.592  11.954 -1.5093  0.6637 -0.0598
16257TIP3    H270263   1.568   5.473  11.867  1.1322 -0.4426  0.2138
16258TIP3   OH270264   3.855   1.107   4.924 -0.1628  0.3121 -0.0318
16258TIP3    H170265   3.798   1.178   4.893  0.3727  1.0261  0.5776
16258TIP3    H270266   3.894   1.071   4.844 -1.5481 -0.2751 -0.4681
16259TIP3   OH270267   4.956   1.380   3.234 -0.7223  0.1749 -0.1588
16259TIP3    H170268   4.989   1.431   3.160 -1.3105 -0.2191 -0.7162
16259TIP3    H270269   4.866   1.358   3.208 -1.3952  1.1274  1.2513
16260TIP3   OH270270   3.721   2.557   5.659 -0.3452 -0.0363  0.1265
16260TIP3    H170271   3.793   2.589   5.605 -0.6748 -0.7086 -0.7414
16260TIP3    H270272   3.760   2.544   5.746  0.2840  0.7140 -0.0319
16261TIP3   OH270273   3.846   0.708  17.005  0.2919  0.2650  0.3564
16261TIP3    H170274   3.823   0.658  17.084  1.3736 -2.3024 -0.8401
16261TIP3    H270275   3.808   0.658  16.933  1.9875  0.7974 -0.9714
16262TIP3   OH270276   0.183   5.000   0.329 -0.3552  0.4562 -0.3395
16262TIP3    H170277   0.216   5.044   0.408 -0.3273 -2.1218  1.2130
16262TIP3    H270278   0.155   5.072   0.272 -0.9409  2.4767  2.2483
16263TIP3   OH270279   1.566   3.506   3.099 -0.5760  0.0563  0.0226
16263TIP3    H170280   1.586   3.569   3.029  0.5173 -0.1410  0.1313
16263TIP3    H270281   1.478   3.475   3.078 -0.1276 -0.2877 -1.5052
16264TIP3   OH270282   0.118   5.571  11.952  0.1668  0.0257  0.1720
16264TIP3    H170283   0.105   5.589  12.045  0.0769 -1.2285  0.4242
16264TIP3    H270284   0.067   5.638  11.907  1.3081  1.4921  0.9862
16265TIP3   OH270285   6.198   1.519  11.053 -0.0312 -0.0680  0.1736
16265TIP3    H170286   6.132   1.571  11.099 -0.8780  1.0951 -2.2068
16265TIP3    H270287   6.148   1.448  11.013  0.4573 -0.2130 -0.1853
16266TIP3   OH270288   3.016   2.121   1.900  0.1274 -0.0177  0.0706
16266TIP3    H170289   3.047   2.143   1.988  2.3358  0.0608 -0.6829
16266TIP3    H270290   2.982   2.204   1.866  0.2314  0.1890  0.4575
16267TIP3   OH270291   3.608   6.768  13.473  0.1258  0.1353  0.2086
16267TIP3    H170292   3.607   6.685  13.521  1.6918  0.4557  0.8605
16267TIP3    H270293   3.563   6.829  13.531 -3.4512 -0.7197 -1.3746
16268TIP3   OH270294   6.605   6.632  13.183  0.1449 -0.1755  0.1699
16268TIP3    H170295   6.627   6.716  13.222  0.1895 -0.5459  0.9513
16268TIP3    H270296   6.677   6.574  13.206  0.6148 -0.1820 -1.2192
16269TIP3   OH270297   5.371   4.547   6.323 -0.0428  0.0325 -0.3122
16269TIP3    H170298   5.460   4.557   6.357 -0.2990  1.5744 -0.0053
16269TIP3    H270299   5.324   4.502   6.392 -0.1608  1.7095  0.7522
16270TIP3   OH270300   3.428   2.176  11.723  0.0387  0.7098 -0.2521
16270TIP3    H170301   3.358   2.194  11.660  0.9405  2.0551 -0.9354
16270TIP3    H270302   3.383   2.150  11.803 -1.2690  1.9981 -0.5274
16271TIP3   OH270303   0.728   3.774  14.569  0.5884 -0.1489  0.0962
16271TIP3    H170304   0.783   3.757  14.493  1.8047  0.3851  0.8226
16271TIP3    H270305   0.756   3.861  14.600 -0.5013  0.0375  0.6261
16272TIP3   OH270306   3.387   6.507  16.461  0.0930 -0.2527 -0.3762
16272TIP3    H170307   3.325   6.442  16.429 -1.2616  0.6708  0.2667
16272TIP3    H270308   3.392   6.573  16.391 -0.6810  0.3295  0.0994
16273TIP3   OH270309   4.413   3.448   6.082 -0.1451  0.0059 -0.0999
16273TIP3    H170310   4.408   3.531   6.035 -0.6248  0.0607  0.0426
16273TIP3    H270311   4.336   3.399   6.052 -0.1968 -0.1439  0.2777
16274TIP3   OH270312   3.798   3.965   2.273  0.0312 -0.2270  0.0562
16274TIP3    H170313   3.735   3.916   2.220  1.3931 -2.0533  0.0411
16274TIP3    H270314   3.767   4.056   2.268 -2.1004 -0.9191 -0.6223
16275TIP3   OH270315   0.042   3.996  12.420 -0.2580  0.2695 -1.0052
16275TIP3    H170316   0.132   3.989  12.450 -0.3482  0.4861 -0.6695
16275TIP3    H270317   0.013   4.082  12.452 -0.5341  0.2645 -1.2384
16276TIP3   OH270318   3.243   2.245  15.047  0.1508  0.3018 -0.3372
16276TIP3    H170319   3.277   2.306  14.982 -1.3412  1.2425 -0.2851
16276TIP3    H270320   3.188   2.299  15.104 -0.7645 -0.9900  0.0563
16277TIP3   OH270321   5.444   1.140  17.352  0.3839 -0.4147  0.1442
16277TIP3    H170322   5.394   1.161  17.273  0.2946  1.3210  0.6363
16277TIP3    H270323   5.395   1.068  17.392 -0.6353 -0.0404 -0.3870
16278TIP3   OH270324   6.080   4.822   0.920 -0.5905  0.0089  0.2630
16278TIP3    H170325   6.009   4.883   0.901 -1.1421 -1.0314 -1.2304
16278TIP3    H270326   6.074   4.757   0.850  2.6671  0.5958 -0.7427
16279TIP3   OH270327   0.529   1.452  15.051 -0.1254 -0.1307  0.3133
16279TIP3    H170328   0.497   1.375  15.005  2.3620 -1.5091  0.6851
16279TIP3    H270329   0.561   1.418  15.135 -1.3496  1.7549  1.6092
16280TIP3   OH270330   6.474   2.859  11.085  0.3168  0.1574 -0.4785
16280TIP3    H170331   6.475   2.955  11.092 -0.1194  0.1457 -0.2416
16280TIP3    H270332   6.566   2.834  11.083  0.4461  0.6682 -1.7012
16281TIP3   OH270333   3.709   0.004  16.495 -0.5148 -0.0994 -0.0116
16281TIP3    H170334   3.662   0.005  16.578  1.6077  1.6290  1.2926
16281TIP3    H270335   3.722   0.097  16.474 -0.5213 -0.5053 -2.0027
16282TIP3   OH270336   1.369   3.874  16.924  0.1761  0.4213  0.2844
16282TIP3    H170337   1.453   3.868  16.880  0.6111  1.0970  1.0030
16282TIP3    H270338   1.313   3.924  16.864  0.4553  0.4533  0.0521
16283TIP3   OH270339   4.947   5.281   1.257 -0.1353  0.3694 -0.5227
16283TIP3    H170340   5.019   5.318   1.206 -0.6908  2.0855 -0.1274
16283TIP3    H270341   4.868   5.302   1.207 -0.5743  0.9035  0.3592
16284TIP3   OH270342   5.208   3.019  13.115 -0.1848  0.2076 -0.0993
16284TIP3    H170343   5.298   3.015  13.083  0.3763  0.2617  1.3955
16284TIP3    H270344   5.178   3.107  13.090  0.4439  0.4689  0.0391
16285TIP3   OH270345   3.886   3.184  15.267  0.4255 -0.6025 -0.4457
16285TIP3    H170346   3.943   3.247  15.311  1.8664 -0.6886 -2.0845
16285TIP3    H270347   3.804   3.232  15.253  0.8389  0.2632 -0.0047
16286TIP3   OH270348   6.221   2.022   4.862 -0.1366 -0.1198 -0.0744
16286TIP3    H170349   6.307   2.004   4.822 -0.4181  0.2348 -0.8602
16286TIP3    H270350   6.164   1.953   4.827 -0.2096 -0.2567  0.3164
16287TIP3   OH270351   2.051   2.360  17.520 -0.6145 -0.3160 -0.0569
16287TIP3    H170352   2.143   2.376  17.496 -0.2802 -0.8803  0.7897
16287TIP3    H270353   2.007   2.443  17.501  0.2799  0.3138  0.5090
16288TIP3   OH270354   4.008   4.075   1.497  0.2425 -0.2671 -0.5935
16288TIP3    H170355   3.994   3.980   1.506  0.7164 -0.4223 -1.4349
16288TIP3    H270356   3.958   4.113   1.569 -2.2947 -0.9624 -1.8666
16289TIP3   OH270357   6.274   6.561  12.194  0.0170  0.4097  0.5353
16289TIP3    H170358   6.261   6.548  12.288 -0.2819  0.1232  0.4568
16289TIP3    H270359   6.363   6.594  12.187  0.6539 -1.1223  0.8053
16290TIP3   OH270360   4.007   5.015   6.589  0.0923 -0.0358  0.2108
16290TIP3    H170361   3.922   5.040   6.553  1.0838 -0.3927 -2.5801
16290TIP3    H270362   3.994   4.927   6.623 -0.5599 -0.2480 -0.5591
16291TIP3   OH270363   1.761   3.763  15.077  0.1464  0.5108  0.4174
16291TIP3    H170364   1.750   3.687  15.133  0.0061  2.2219  2.8540
16291TIP3    H270365   1.825   3.736  15.011  0.1746 -1.6422  1.2669
16292TIP3   OH270366   1.126   5.998   0.893  0.2504  0.1954  0.0403
16292TIP3    H170367   1.125   5.906   0.867 -1.8720 -0.0315  0.6860
16292TIP3    H270368   1.077   6.042   0.824 -0.6825  0.4575  0.8470
16293TIP3   OH270369   3.692   1.400  12.241  0.4569  0.5095  0.4070
16293TIP3    H170370   3.632   1.465  12.276 -0.9650 -0.6996  0.3118
16293TIP3    H270371   3.665   1.317  12.280 -0.0518 -0.6066 -2.0768
16294TIP3   OH270372   1.829   5.686  11.264  0.7773 -0.1371 -0.2112
16294TIP3    H170373   1.885   5.760  11.243  1.7989 -0.2465  1.9266
16294TIP3    H270374   1.741   5.714  11.237  1.4403  1.0393 -1.2538
16295TIP3   OH270375   2.585   4.889   3.212 -0.0969  0.0816 -0.0841
16295TIP3    H170376   2.676   4.883   3.242  0.2161 -0.7340 -1.1400
16295TIP3    H270377   2.534   4.848   3.282  0.1543  1.8138  1.1922
16296TIP3   OH270378   6.042   0.304  15.441 -0.7100 -0.1130 -0.0356
16296TIP3    H170379   5.950   0.320  15.420 -0.6566  0.9883  0.5289
16296TIP3    H270380   6.041   0.234  15.506 -1.0515 -1.1429 -1.1054
16297TIP3   OH270381   6.700   0.813  10.475  0.2531  0.0977 -0.4944
16297TIP3    H170382   6.688   0.736  10.530  0.6613 -0.7881 -1.6039
16297TIP3    H270383   6.623   0.868  10.492  0.9410  0.4283  1.8139
16298TIP3   OH270384   0.090   1.118  15.215 -0.0722 -0.2113  0.2576
16298TIP3    H170385   0.166   1.092  15.267 -0.5650 -2.4851 -0.0700
16298TIP3    H270386   0.056   1.196  15.260  0.4625 -1.1364  2.4191
16299TIP3   OH270387   1.194   5.561   2.387  0.0766 -0.4202 -0.2282
16299TIP3    H170388   1.109   5.604   2.384  0.4412  0.3035 -0.4755
16299TIP3    H270389   1.195   5.505   2.309 -0.5266 -1.1256  0.2690
16300TIP3   OH270390   4.933   3.186   1.066  0.5721 -0.5247  0.0394
16300TIP3    H170391   4.923   3.268   1.115 -1.9011 -0.8123  0.1087
16300TIP3    H270392   4.852   3.178   1.015  0.9929 -2.6752 -0.3739
16301TIP3   OH270393   5.546   2.479   6.326  0.4624 -0.1342  0.0636
16301TIP3    H170394   5.575   2.393   6.355  0.6620 -0.6531 -1.5598
16301TIP3    H270395   5.522   2.525   6.407  3.4879 -0.5110  1.2970
16302TIP3   OH270396   1.316   5.355   5.956 -0.8542 -0.7502 -0.3242
16302TIP3    H170397   1.383   5.292   5.984 -1.8057 -0.7475  2.2773
16302TIP3    H270398   1.344   5.438   5.995 -2.0869 -0.6635  0.4355
16303TIP3   OH270399   5.046   2.969   4.035 -0.6558 -0.5535 -0.8112
16303TIP3    H170400   5.037   2.904   4.104  0.6931  1.6021  1.5857
16303TIP3    H270401   5.131   2.951   3.994  0.6464  0.7348  1.1624
16304TIP3   OH270402   5.630   1.790   3.665  0.1165  0.3817  0.2841
16304TIP3    H170403   5.705   1.732   3.658 -0.2388  0.0222 -0.6699
16304TIP3    H270404   5.617   1.824   3.577 -1.5162 -0.4222  0.1758
16305TIP3   OH270405   4.690   5.355   2.742 -0.0032 -0.3544  0.0438
16305TIP3    H170406   4.779   5.329   2.722  0.4935 -0.4488  2.1800
16305TIP3    H270407   4.688   5.449   2.724  0.5760 -0.3160  0.1721
16306TIP3   OH270408   2.472   5.218   4.274 -0.2716  0.2533 -0.3269
16306TIP3    H170409   2.403   5.165   4.314  0.8871  0.7379  2.5456
16306TIP3    H270410   2.432   5.304   4.260 -1.4671 -0.6260 -2.8366
16307TIP3   OH270411   1.736   1.449   1.580 -0.0309 -0.2456 -0.4502
16307TIP3    H170412   1.727   1.540   1.554  2.1002 -0.4851 -2.3354
16307TIP3    H270413   1.728   1.450   1.675  1.1773  2.1154 -0.3076
16308TIP3   OH270414   1.664   1.715  15.321 -0.5348  0.4550  0.0198
16308TIP3    H170415   1.734   1.755  15.372 -0.2241  0.7523 -0.6225
16308TIP3    H270416   1.635   1.784  15.261 -1.0108  0.1687 -0.0900
16309TIP3   OH270417   0.049   5.838   2.526 -0.2263 -0.3739 -0.1094
16309TIP3    H170418  -0.022   5.825   2.589  0.1099 -0.5374  0.2448
16309TIP3    H270419   0.129   5.833   2.579  0.0625 -0.4985 -0.5487
16310TIP3   OH270420   1.352   2.290   1.624 -0.0083 -0.0166 -0.2132
16310TIP3    H170421   1.337   2.196   1.613 -0.2269 -0.0526  0.3423
16310TIP3    H270422   1.414   2.313   1.555 -1.6975 -0.0969 -1.8466
16311TIP3   OH270423   0.311   0.628  14.103 -0.7644 -0.6126 -0.1954
16311TIP3    H170424   0.280   0.538  14.116  1.1553 -1.6626 -2.0769
16311TIP3    H270425   0.263   0.658  14.025 -0.6546 -0.4093 -0.1842
16312TIP3   OH270426   4.903   1.352  14.467 -0.2690  0.2419  0.0616
16312TIP3    H170427   4.867   1.427  14.514 -0.2968  0.1325  0.2160
16312TIP3    H270428   4.838   1.332  14.400  0.7119  1.6915 -1.3914
16313TIP3   OH270429   1.498   2.729  15.838  0.0677 -0.1775 -0.3912
16313TIP3    H170430   1.495   2.801  15.776  0.2709  1.1308  1.0771
16313TIP3    H270431   1.408   2.696  15.839  0.3249 -1.0892 -2.3062
16314TIP3   OH270432   5.819   0.094  16.690  0.9125 -0.2169  0.0304
16314TIP3    H170433   5.893   0.083  16.630  0.7869 -2.6917  0.2358
16314TIP3    H270434   5.751   0.036  16.655  0.3601 -0.6968  1.7997
16315TIP3   OH270435   0.836   4.395  16.460 -0.1201  0.9307  0.5312
16315TIP3    H170436   0.894   4.379  16.385 -0.3599  0.5882  0.4142
16315TIP3    H270437   0.860   4.482  16.491 -0.0069  1.0700  0.0647
16316TIP3   OH270438   1.550   3.311   0.275 -0.2676 -0.0314  0.0668
16316TIP3    H170439   1.507   3.225   0.280 -0.7547  0.2639  1.4857
16316TIP3    H270440   1.542   3.346   0.364 -0.0668  1.4837 -0.4971
16317TIP3   OH270441   4.385   4.544   0.607  0.8045  0.0190 -0.0315
16317TIP3    H170442   4.344   4.626   0.577  2.8095  1.9165  1.9948
16317TIP3    H270443   4.442   4.518   0.534 -0.2000  0.1517 -0.8812
16318TIP3   OH270444   0.635   3.441   5.894 -0.3621 -0.3934 -0.1128
16318TIP3    H170445   0.682   3.494   5.830 -0.1484 -0.2781  0.1405
16318TIP3    H270446   0.591   3.374   5.841 -0.7184  0.0903 -0.4436
16319TIP3   OH270447   0.654   2.955  13.144  0.2548  0.1055  0.5117
16319TIP3    H170448   0.571   3.000  13.162 -0.0776 -0.2668 -0.0557
16319TIP3    H270449   0.633   2.893  13.074  1.5618  1.7825 -1.5016
16320TIP3   OH270450   5.310   5.182  13.947 -0.7518 -0.0585 -0.1357
16320TIP3    H170451   5.398   5.218  13.940 -0.5242 -0.3052  1.1817
16320TIP3    H270452   5.286   5.159  13.857  0.7704 -0.5459 -0.4511
16321TIP3   OH270453   5.087   0.112   2.254 -0.2617 -0.4558  0.6152
16321TIP3    H170454   5.176   0.125   2.285  0.3730 -1.0609 -0.8518
16321TIP3    H270455   5.053   0.200   2.240  0.2625 -0.2266  0.7740
16322TIP3   OH270456   1.903   4.850   5.669 -0.1050 -0.4789  0.2944
16322TIP3    H170457   1.867   4.774   5.624  2.1390 -2.3681  1.4945
16322TIP3    H270458   1.938   4.905   5.599  3.0882 -3.2194 -0.5070
16323TIP3   OH270459   6.675   1.547  14.507 -0.7434 -0.6209  0.6331
16323TIP3    H170460   6.636   1.617  14.560 -0.1646 -0.3669  0.7324
16323TIP3    H270461   6.722   1.493  14.569  2.3713  1.2774  0.1438
16324TIP3   OH270462   3.241   3.278   5.472  0.4191  0.1187 -0.0977
16324TIP3    H170463   3.311   3.221   5.440  0.2931 -0.4841  0.6667
16324TIP3    H270464   3.225   3.248   5.562  0.1177  1.1383  0.2037
16325TIP3   OH270465   3.857   2.203   3.474  0.2718  0.0568  0.2074
16325TIP3    H170466   3.850   2.181   3.381 -1.0802  0.4804  0.1848
16325TIP3    H270467   3.787   2.153   3.515 -0.9234  1.9276  0.5803
16326TIP3   OH270468   3.359   6.107  15.131 -0.5043  0.4397 -0.0067
16326TIP3    H170469   3.310   6.188  15.117  1.3808  1.8678  1.1310
16326TIP3    H270470   3.328   6.074  15.216 -1.6010 -0.3107 -0.6833
16327TIP3   OH270471   4.448   2.470  12.459 -0.1196 -0.4828  0.4725
16327TIP3    H170472   4.365   2.434  12.428  0.1093 -0.6693  0.0574
16327TIP3    H270473   4.435   2.485  12.553 -0.7066 -0.2598  0.3601
16328TIP3   OH270474   3.582   2.271  15.251  0.3147 -0.0626 -0.2131
16328TIP3    H170475   3.678   2.270  15.249  0.3135  0.0211 -0.3661
16328TIP3    H270476   3.557   2.227  15.170  0.2349  2.0278 -1.4014
16329TIP3   OH270477   2.842   6.149   3.389  0.4840  0.5285  0.0482
16329TIP3    H170478   2.828   6.056   3.367 -1.4172  1.1186 -1.5633
16329TIP3    H270479   2.930   6.168   3.356 -0.5660  0.2121 -3.2863
16330TIP3   OH270480   2.370   6.302  13.419 -0.0385  0.3378  0.0455
16330TIP3    H170481   2.387   6.391  13.449  1.1752 -0.6161  2.4396
16330TIP3    H270482   2.304   6.269  13.480  0.3821 -0.7530 -0.0708
16331TIP3   OH270483   2.652   3.177   1.119  0.0568  0.3347 -0.4971
16331TIP3    H170484   2.577   3.213   1.166 -0.3732 -2.5241  1.2286
16331TIP3    H270485   2.624   3.089   1.092  2.7678 -0.8829  0.2942
16332TIP3   OH270486   0.105   0.681  16.984  0.6058 -0.3806  0.0605
16332TIP3    H170487   0.131   0.763  16.942  0.0495 -0.1766  0.0983
16332TIP3    H270488   0.180   0.623  16.973  0.7525 -0.0866 -0.5683
16333TIP3   OH270489   0.763   5.319   1.024 -0.4768  0.0330 -0.4199
16333TIP3    H170490   0.727   5.274   1.101  0.1635  0.2236 -0.0043
16333TIP3    H270491   0.848   5.278   1.010  0.6951  1.9723  0.7427
16334TIP3   OH270492   0.421   5.591  13.024 -0.1421 -0.0577  0.3760
16334TIP3    H170493   0.348   5.541  12.988  0.9203 -0.2087 -1.7241
16334TIP3    H270494   0.454   5.642  12.950  2.4183 -0.6413  1.0092
16335TIP3   OH270495   3.540   3.354   2.063 -0.0385  0.0949 -1.0191
16335TIP3    H170496   3.531   3.436   2.112  3.2051  0.0009 -0.0160
16335TIP3    H270497   3.623   3.364   2.016  0.8517 -2.8786 -0.2610
16336TIP3   OH270498   6.431   1.523   2.858  0.5578 -0.0346 -0.6784
16336TIP3    H170499   6.459   1.475   2.937 -0.9110 -2.3526 -1.4585
16336TIP3    H270500   6.446   1.615   2.880  1.7822 -0.6975  1.6565
16337TIP3   OH270501   1.732   3.781   2.113  0.2051 -0.7594 -0.5883
16337TIP3    H170502   1.638   3.781   2.131  0.0803 -0.9613 -1.2264
16337TIP3    H270503   1.755   3.874   2.110  0.4322 -0.6836  1.5486
16338TIP3   OH270504   2.689   4.842   0.573  0.0310 -0.2773 -0.7111
16338TIP3    H170505   2.637   4.762   0.582 -1.7380  0.8961  0.2288
16338TIP3    H270506   2.678   4.887   0.657  0.5391  1.2030 -1.3960
16339TIP3   OH270507   5.180   5.658  11.236  0.4177 -0.2660 -0.2176
16339TIP3    H170508   5.241   5.637  11.166  1.6302  1.4434  0.2681
16339TIP3    H270509   5.235   5.692  11.307 -1.0042  0.5363  0.5527
16340TIP3   OH270510   2.687   4.104   6.125  0.0776 -0.2787 -0.3089
16340TIP3    H170511   2.612   4.160   6.105  1.2215  1.8697  1.1002
16340TIP3    H270512   2.650   4.015   6.130 -2.8281  0.9074  2.4684
16341TIP3   OH270513   5.164   2.990   4.443 -0.2518  0.5518  0.1005
16341TIP3    H170514   5.110   2.915   4.420 -1.7709  2.1829 -2.0822
16341TIP3    H270515   5.125   3.024   4.523  1.1508 -1.5200  1.7903
16342TIP3   OH270516   3.134   4.410   3.357 -0.1127  0.1976  0.5223
16342TIP3    H170517   3.079   4.459   3.418 -2.0476  1.0466 -1.7679
16342TIP3    H270518   3.178   4.478   3.305 -0.5962 -0.4718 -0.7923
16343TIP3   OH270519   4.227   0.174  14.988  0.4265 -0.1063 -0.0846
16343TIP3    H170520   4.255   0.094  14.943  0.9528  0.3532 -0.5992
16343TIP3    H270521   4.202   0.234  14.917  0.6782  0.4134  0.2572
16344TIP3   OH270522   1.611   0.068   2.750 -0.0141  0.1109 -0.3497
16344TIP3    H170523   1.634   0.067   2.843 -0.2672  0.1220 -0.2845
16344TIP3    H270524   1.565  -0.015   2.736 -0.7070  0.4684 -0.2692
16345TIP3   OH270525   6.134   4.723  17.452  0.0781  0.1213  0.2340
16345TIP3    H170526   6.097   4.808  17.431 -0.9381 -0.8062 -2.0484
16345TIP3    H270527   6.227   4.732  17.432  0.4291  1.2663  2.1040
16346TIP3   OH270528   2.639   2.437   1.075 -0.0700 -0.5659  0.1117
16346TIP3    H170529   2.592   2.434   0.992  0.8880 -0.2243 -0.4581
16346TIP3    H270530   2.705   2.369   1.067  1.0971  0.5519 -0.0859
16347TIP3   OH270531   4.765   2.512   6.223  0.1366 -0.1220  0.3670
16347TIP3    H170532   4.676   2.485   6.201  0.0013 -1.3236  2.1649
16347TIP3    H270533   4.821   2.444   6.185  0.4331  1.2093 -1.7271
16348TIP3   OH270534   3.106   1.351   2.621  0.6964  0.8065 -0.1113
16348TIP3    H170535   3.021   1.338   2.578  0.9416  0.3011 -0.4560
16348TIP3    H270536   3.137   1.435   2.587 -0.6135  2.0648  1.6396
16349TIP3   OH270537   4.627   2.321  14.745 -0.2062  0.1493  0.5778
16349TIP3    H170538   4.667   2.235  14.760 -3.7632 -1.7981  0.0262
16349TIP3    H270539   4.570   2.334  14.821 -1.9370  0.5464 -0.7281
16350TIP3   OH270540   5.499   2.128  13.015  0.2075  0.0898 -0.3510
16350TIP3    H170541   5.425   2.189  13.016  1.3895  1.5959 -0.7839
16350TIP3    H270542   5.560   2.165  13.079 -0.0624 -2.0491  1.2652
16351TIP3   OH270543   3.716   5.660  11.372  0.0332 -0.0742  0.5276
16351TIP3    H170544   3.737   5.654  11.279 -0.4756  1.9347  0.2475
16351TIP3    H270545   3.800   5.678  11.415 -0.0532  1.2969  0.1675
16352TIP3   OH270546   0.686   4.377   3.021 -0.2449  0.4971 -0.8904
16352TIP3    H170547   0.667   4.460   3.064 -0.2676  0.2345 -0.3766
16352TIP3    H270548   0.704   4.400   2.930  0.7727  1.1801 -0.5299
16353TIP3   OH270549   4.680   0.557  16.972 -0.1538  0.3233  0.0270
16353TIP3    H170550   4.682   0.481  17.031  1.4543 -0.3229 -0.7927
16353TIP3    H270551   4.587   0.569  16.952 -0.4743 -1.3199  0.3431
16354TIP3   OH270552   2.395   1.399   1.869  0.4159 -0.5189  0.3959
16354TIP3    H170553   2.454   1.460   1.913  3.0741 -2.1416 -0.7151
16354TIP3    H270554   2.368   1.445   1.789 -0.4225  0.5030  1.2509
16355TIP3   OH270555   3.553   2.038  12.096  0.6173  0.2756  0.3747
16355TIP3    H170556   3.618   1.968  12.105 -1.5892 -2.0913 -0.7320
16355TIP3    H270557   3.496   2.028  12.172 -0.7307 -0.3140 -0.6781
16356TIP3   OH270558   2.061   3.560   1.859  0.4157  0.3104  0.1768
16356TIP3    H170559   2.104   3.588   1.778  2.4426 -1.6621  0.4905
16356TIP3    H270560   2.031   3.471   1.841  0.0014  0.2213  1.2608
16357TIP3   OH270561   3.171   2.181   2.774  0.0857 -0.5373 -0.3957
16357TIP3    H170562   3.183   2.151   2.684 -2.8608  2.0070 -1.8371
16357TIP3    H270563   3.244   2.241   2.789  0.9766 -1.4989 -0.8175
16358TIP3   OH270564   6.633   1.779  14.750 -0.4748 -0.5060  0.6998
16358TIP3    H170565   6.653   1.705  14.807 -0.2654  0.6501  2.1934
16358TIP3    H270566   6.706   1.782  14.688 -0.0719 -1.0592  1.1382
16359TIP3   OH270567   1.836   3.820   4.700  0.0057  0.1549  0.1090
16359TIP3    H170568   1.809   3.864   4.781 -0.4651 -0.6407  0.3917
16359TIP3    H270569   1.873   3.736   4.729  1.1811  0.4649 -0.4006
16360TIP3   OH270570   5.009   3.563  17.467  0.0163  0.1457  0.2850
16360TIP3    H170571   4.923   3.595  17.495 -0.4787  0.0017 -1.0103
16360TIP3    H270572   5.013   3.583  17.374  1.6996  0.7860  0.4649
16361TIP3   OH270573   1.749   2.743   5.677  0.4454  0.0709 -0.0041
16361TIP3    H170574   1.764   2.743   5.582 -0.4956 -0.0826 -0.1678
16361TIP3    H270575   1.662   2.782   5.687  0.1918 -0.6479  0.7289
16362TIP3   OH270576   4.258   2.402  17.517  0.3272  0.4298 -0.2331
16362TIP3    H170577   4.198   2.458  17.467 -0.5464  1.1640  1.5303
16362TIP3    H270578   4.330   2.384  17.457 -0.4266  1.6635 -1.5744
16363TIP3   OH270579   4.800   6.097  15.472  0.7724  0.4166  0.0007
16363TIP3    H170580   4.834   6.026  15.418  1.7108  0.4256  0.5478
16363TIP3    H270581   4.837   6.177  15.432 -1.9127  0.8430 -1.8595
16364TIP3   OH270582   4.711   1.055   4.115  0.2351 -0.4573  0.1702
16364TIP3    H170583   4.670   0.984   4.166 -0.8277 -2.0374 -2.6524
16364TIP3    H270584   4.773   1.010   4.058  3.0866  1.5011  1.5446
16365TIP3   OH270585   6.152   0.910   0.745  0.0254 -0.0956 -0.4205
16365TIP3    H170586   6.064   0.874   0.757 -0.1876  0.5925  0.1884
16365TIP3    H270587   6.144   0.968   0.670 -0.4607  1.2126  0.6052
16366TIP3   OH270588   0.798   5.369   0.755  0.0714  0.8107 -0.6636
16366TIP3    H170589   0.781   5.355   0.848  1.1121  3.6950  0.0681
16366TIP3    H270590   0.889   5.342   0.742 -0.1995  0.0123 -0.9795
16367TIP3   OH270591   0.591   6.636   4.352  0.0340  0.2166  0.2334
16367TIP3    H170592   0.618   6.723   4.382  0.2950 -0.0388  0.7574
16367TIP3    H270593   0.573   6.588   4.432  1.3751 -0.6879  0.0143
16368TIP3   OH270594   5.387   4.693   3.520 -0.0937  0.7008 -0.4001
16368TIP3    H170595   5.342   4.641   3.454  2.0613  0.4203 -1.7558
16368TIP3    H270596   5.399   4.632   3.594  0.6116 -0.1424 -1.1819
16369TIP3   OH270597   6.666   1.750  16.680 -0.7393 -0.3303  0.7064
16369TIP3    H170598   6.712   1.682  16.730 -0.0812 -0.4096  0.0204
16369TIP3    H270599   6.698   1.739  16.591 -2.3260 -0.5656  0.1317
16370TIP3   OH270600   5.653   5.934   4.303  0.3067  0.2715 -0.3292
16370TIP3    H170601   5.710   5.867   4.338  1.8490  1.1276 -1.1145
16370TIP3    H270602   5.599   5.962   4.378  0.5048 -0.9356  0.2803
16371TIP3   OH270603   1.814   5.852   2.259 -0.3018  0.2942  0.0224
16371TIP3    H170604   1.902   5.815   2.264 -0.3293  0.1961 -0.2179
16371TIP3    H270605   1.782   5.827   2.172  0.1911  2.0667 -0.7014
16372TIP3   OH270606   2.904   2.524  15.472  0.2557  0.1717  0.2312
16372TIP3    H170607   2.969   2.453  15.466 -0.4835 -0.3956 -1.8258
16372TIP3    H270608   2.921   2.579  15.395  1.0678  2.5414  1.9740
16373TIP3   OH270609   0.210   6.251   5.125 -0.1305  0.3508  0.0208
16373TIP3    H170610   0.161   6.328   5.097 -2.0720 -0.8106  0.0491
16373TIP3    H270611   0.232   6.268   5.216  0.6259  1.4078 -0.3366
16374TIP3   OH270612   4.468   1.195  14.125 -0.8939 -0.2668 -0.5501
16374TIP3    H170613   4.475   1.269  14.065 -1.5001 -0.2882 -0.6491
16374TIP3    H270614   4.380   1.202  14.162 -0.8314 -0.7405 -0.3016
16375TIP3   OH270615   6.490   1.484   0.768  0.1295  1.3584  0.0471
16375TIP3    H170616   6.557   1.502   0.702  1.2127  0.7484  0.9525
16375TIP3    H270617   6.423   1.434   0.720  0.4213  1.7571 -0.8050
16376TIP3   OH270618   3.489   0.082   5.716 -0.7125  0.4120 -0.1474
16376TIP3    H170619   3.502  -0.007   5.747 -0.5494  0.7713  0.8300
16376TIP3    H270620   3.545   0.088   5.638  1.6268  0.5566  1.4455
16377TIP3   OH270621   1.169   2.513   3.094 -0.9451  0.8495  0.2410
16377TIP3    H170622   1.216   2.431   3.080 -0.8956  0.8991  0.1249
16377TIP3    H270623   1.077   2.491   3.075 -0.7765  1.1192 -0.9623
16378TIP3   OH270624   1.377   4.734  17.073  0.6154 -0.1393  0.4895
16378TIP3    H170625   1.460   4.741  17.120  0.7199  1.5320  0.1203
16378TIP3    H270626   1.386   4.653  17.022  2.3840  0.4267 -0.1896
16379TIP3   OH270627   1.431   0.462   3.710 -0.6634  0.3719 -0.5485
16379TIP3    H170628   1.428   0.416   3.794 -0.5357  1.2224 -0.0713
16379TIP3    H270629   1.510   0.428   3.667 -0.8983 -0.2944 -0.4699
16380TIP3   OH270630   4.837   2.286  12.145  0.1283  0.3648  0.1285
16380TIP3    H170631   4.869   2.197  12.127 -0.2725  0.0207  1.0602
16380TIP3    H270632   4.744   2.284  12.121  0.1536  0.5795  0.0071
16381TIP3   OH270633   5.589   3.544  17.409  0.0659  0.6334  0.2820
16381TIP3    H170634   5.680   3.548  17.438 -0.3003 -1.6027  1.9789
16381TIP3    H270635   5.546   3.488  17.473 -2.1834  0.3911 -1.3443
16382TIP3   OH270636   2.834   1.357  13.273  0.4370  0.4816 -0.7335
16382TIP3    H170637   2.900   1.426  13.266  1.0959  0.0399  0.8082
16382TIP3    H270638   2.882   1.280  13.306 -0.8565  0.2146  0.6566
16383TIP3   OH270639   2.753   3.198   2.532 -0.4299  0.0498 -0.0246
16383TIP3    H170640   2.756   3.184   2.626 -1.4968  0.6554  0.1206
16383TIP3    H270641   2.779   3.114   2.494  0.8256  0.0383  0.7936
16384TIP3   OH270642   2.782   4.606   6.462 -0.3120 -0.6452 -0.3314
16384TIP3    H170643   2.749   4.695   6.454  0.1113 -0.5559 -1.2415
16384TIP3    H270644   2.772   4.569   6.374  3.2051 -0.1520 -1.0927
16385TIP3   OH270645   3.303   4.380  16.752 -0.1531 -0.3252  0.0003
16385TIP3    H170646   3.279   4.438  16.680  0.8346 -0.2557 -0.2877
16385TIP3    H270647   3.390   4.410  16.779  0.9249 -2.3531 -0.9218
16386TIP3   OH270648   0.329   3.992  10.813 -0.3640 -0.3397  0.0349
16386TIP3    H170649   0.357   3.935  10.885  3.6724  1.6264  0.3265
16386TIP3    H270650   0.326   4.079  10.851 -1.2679  0.3455 -1.5164
16387TIP3   OH270651   1.008   2.058   1.371  0.4659  0.0959 -0.0527
16387TIP3    H170652   0.930   2.003   1.365  1.1256 -1.1999  2.3261
16387TIP3    H270653   0.986   2.125   1.435  0.7166  0.8507 -0.7279
16388TIP3   OH270654   5.352   1.192  14.090  0.4969  0.5838 -0.1293
16388TIP3    H170655   5.370   1.235  14.173 -1.6205  1.2705  0.0316
16388TIP3    H270656   5.389   1.104  14.100  1.9769  1.2786  0.7740
16389TIP3   OH270657   0.876   1.357  15.614 -0.0750 -0.3116 -0.1942
16389TIP3    H170658   0.878   1.296  15.540  1.0451  0.5993 -0.9459
16389TIP3    H270659   0.803   1.415  15.595  1.1899  0.9411 -1.4815
16390TIP3   OH270660   4.530   4.680  11.633  0.1539  0.2217  0.1913
16390TIP3    H170661   4.508   4.716  11.719 -2.2438  1.6861 -0.9126
16390TIP3    H270662   4.463   4.614  11.617  1.7888 -1.5095  0.2455
16391TIP3   OH270663   5.768   4.260  15.547  0.3770 -0.7195  0.3698
16391TIP3    H170664   5.767   4.219  15.633 -0.4786  0.3684  0.9037
16391TIP3    H270665   5.735   4.348  15.562 -1.5135 -1.0564 -1.3265
16392TIP3   OH270666   5.941   4.087   6.160 -0.4265 -0.0005 -0.1794
16392TIP3    H170667   6.016   4.041   6.199 -1.3592 -1.1893  0.2600
16392TIP3    H270668   5.892   4.121   6.234  0.5112  2.2522 -0.4958
16393TIP3   OH270669   6.753   4.219  11.886  0.3733  0.1611 -0.4489
16393TIP3    H170670   6.707   4.158  11.944  0.7796  1.7420  1.6961
16393TIP3    H270671   6.689   4.289  11.870  0.4943  0.0712 -1.3854
16394TIP3   OH270672   2.950   6.665   2.916 -0.2324  0.3137  0.6440
16394TIP3    H170673   2.967   6.595   2.853 -0.1475  0.4968  0.4674
16394TIP3    H270674   2.873   6.634   2.965 -0.2918  0.1686  0.4603
16395TIP3   OH270675   1.632   4.510  16.695 -0.7625 -0.2839  0.0007
16395TIP3    H170676   1.671   4.488  16.780  2.7619  0.6635 -1.1972
16395TIP3    H270677   1.706   4.509  16.634 -3.4254 -3.0795 -3.5953
16396TIP3   OH270678   1.371   1.727  12.491 -0.2667 -0.7671  0.2721
16396TIP3    H170679   1.361   1.655  12.553  2.1170  0.0029  1.6880
16396TIP3    H270680   1.396   1.685  12.409  0.0347 -1.6154  0.7886
16397TIP3   OH270681   5.212   4.919  15.791 -0.1516  0.3837 -0.4950
16397TIP3    H170682   5.146   4.852  15.807 -1.0036  1.5790  1.4836
16397TIP3    H270683   5.189   4.957  15.707 -1.0123 -0.2957 -0.5770
16398TIP3   OH270684   4.001   1.911   3.938  0.3045  0.3609 -0.2338
16398TIP3    H170685   4.074   1.861   3.904  1.1214  1.4500 -0.1345
16398TIP3    H270686   3.925   1.855   3.925  0.7935  0.1348 -2.4902
16399TIP3   OH270687   0.937   0.229   5.187 -0.4720  0.3420  0.0877
16399TIP3    H170688   0.953   0.204   5.096  0.5265 -1.6406  0.7301
16399TIP3    H270689   0.845   0.255   5.189 -0.5974  0.1155 -1.4211
16400TIP3   OH270690   4.501   1.119  13.674 -0.3095 -0.6574 -0.0189
16400TIP3    H170691   4.415   1.141  13.710 -0.4881 -0.4460 -0.5737
16400TIP3    H270692   4.482   1.069  13.595  0.0751 -0.5581 -0.1775
16401TIP3   OH270693   2.570   6.564   1.551 -0.8695  0.0006 -0.4427
16401TIP3    H170694   2.626   6.625   1.502 -1.7511  0.4968 -0.8687
16401TIP3    H270695   2.545   6.498   1.487  0.2984 -0.9715  0.0890
16402TIP3   OH270696   2.761   5.034  15.368  0.7583  0.4178  0.8041
16402TIP3    H170697   2.764   5.119  15.412  0.7187  0.3030  1.0283
16402TIP3    H270698   2.730   4.974  15.435  0.1340  0.3486  0.4602
16403TIP3   OH270699   6.045   3.811   0.648 -0.4282 -0.7102 -0.4346
16403TIP3    H170700   5.996   3.771   0.721  0.1596 -0.5166  0.0704
16403TIP3    H270701   6.136   3.790   0.666 -0.1720  0.3175 -0.5074
16404TIP3   OH270702   2.840   1.492   5.642 -0.1295 -0.3053  0.0391
16404TIP3    H170703   2.899   1.510   5.715  2.1287 -3.2752 -0.8431
16404TIP3    H270704   2.776   1.430   5.678 -0.0308 -0.4706 -0.0664
16405TIP3   OH270705   1.384   2.170  14.908  0.1476  0.0511 -0.5208
16405TIP3    H170706   1.347   2.168  14.820  1.0184 -0.2542 -0.8858
16405TIP3    H270707   1.471   2.208  14.897 -0.6460  2.3894  0.5725
16406TIP3   OH270708   4.186   5.025  12.557  0.3100  0.1654 -0.1719
16406TIP3    H170709   4.132   5.055  12.484  0.8284 -1.0151 -1.0898
16406TIP3    H270710   4.124   5.006  12.627 -0.5991 -1.6485 -1.3732
16407TIP3   OH270711   3.906   6.472  13.708 -0.2160  0.4100 -0.6609
16407TIP3    H170712   3.923   6.391  13.659  0.1847  0.7576 -1.0986
16407TIP3    H270713   3.811   6.474  13.717 -0.1644 -1.1568  1.1448
16408TIP3   OH270714   5.334   5.064  17.353 -0.1048  0.0200  0.2640
16408TIP3    H170715   5.384   5.008  17.294  0.6878  2.4707 -1.5069
16408TIP3    H270716   5.369   5.152  17.340 -3.9497  1.6954 -0.0962
16409TIP3   OH270717   1.939   6.103  15.709  0.5867 -0.3309 -0.1667
16409TIP3    H170718   2.009   6.042  15.685 -0.5651 -0.4976 -3.7733
16409TIP3    H270719   1.869   6.084  15.646 -0.2785  3.8997 -0.7602
16410TIP3   OH270720   6.675   0.216   1.072 -0.1012  0.0399 -0.2126
16410TIP3    H170721   6.714   0.160   1.005  1.1153 -0.2497  0.6839
16410TIP3    H270722   6.742   0.220   1.141 -0.5058  1.9501  0.1056
16411TIP3   OH270723   0.487   5.558   1.011 -0.2527  0.8814 -0.4913
16411TIP3    H170724   0.514   5.615   1.083 -0.2195  0.5748 -0.2533
16411TIP3    H270725   0.514   5.470   1.040 -0.5260  0.7153 -0.7385
16412TIP3   OH270726   4.706   0.947  16.363 -0.6438 -0.2244  0.2793
16412TIP3    H170727   4.722   0.914  16.275 -2.7400 -3.2026  0.8980
16412TIP3    H270728   4.739   0.879  16.421 -0.4637  1.0985  1.8126
16413TIP3   OH270729   0.091   6.465   2.132  0.0286 -0.0559 -0.5194
16413TIP3    H170730   0.175   6.484   2.174 -0.3686  2.6663 -0.7668
16413TIP3    H270731   0.071   6.375   2.156  1.0929  0.5069  2.9359
16414TIP3   OH270732   5.232   6.713   5.195  0.0031 -0.3459  0.4243
16414TIP3    H170733   5.159   6.773   5.182  1.4763  1.0426 -2.1170
16414TIP3    H270734   5.297   6.764   5.244  0.0364 -0.9595  1.0439
16415TIP3   OH270735   6.034   2.690  12.490  0.0370  0.7663 -0.1588
16415TIP3    H170736   6.019   2.637  12.569  1.3510  0.3785 -0.1553
16415TIP3    H270737   5.946   2.719  12.464 -0.5605 -0.2766  0.6266
16416TIP3   OH270738   2.368   6.357   4.731  0.1558 -0.2432  0.0439
16416TIP3    H170739   2.394   6.299   4.803 -0.4125 -0.8044 -0.1946
16416TIP3    H270740   2.409   6.441   4.753 -1.1218 -0.0045  1.7710
16417TIP3   OH270741   3.777   4.333  12.397 -0.5662 -0.2829 -0.2282
16417TIP3    H170742   3.869   4.350  12.377 -0.1712 -2.6085 -0.6578
16417TIP3    H270743   3.728   4.377  12.328  0.1295  1.5856  0.4023
16418TIP3   OH270744   2.829   1.506  16.854 -0.7904  0.3197 -0.1260
16418TIP3    H170745   2.790   1.423  16.883 -1.3046  1.0641  1.3782
16418TIP3    H270746   2.762   1.572  16.874 -0.7173  1.0283 -2.0318
16419TIP3   OH270747   6.007   0.999   2.456  0.2302  0.1452  0.1660
16419TIP3    H170748   6.021   1.044   2.373 -2.1187  2.1356  0.7505
16419TIP3    H270749   6.042   1.058   2.522 -0.2253 -0.2390  0.7636
16420TIP3   OH270750   4.712   1.014  15.664 -0.3666  0.4300 -0.2835
16420TIP3    H170751   4.738   0.931  15.704  2.0333  0.8630 -0.8024
16420TIP3    H270752   4.742   1.007  15.573 -1.4464  1.3217 -0.7271
16421TIP3   OH270753   4.695   5.897  14.227  0.4691  0.5891  0.6737
16421TIP3    H170754   4.676   5.983  14.264 -1.1278  0.6274 -0.1465
16421TIP3    H270755   4.623   5.880  14.167  2.6137  0.3103 -2.0521
16422TIP3   OH270756   0.983   4.194   3.932  0.2115  0.6584 -0.4218
16422TIP3    H170757   0.995   4.127   3.865 -0.9323 -0.8239  0.7694
16422TIP3    H270758   1.066   4.197   3.979  0.9737  1.6125 -1.7634
16423TIP3   OH270759   0.632   3.872  12.657  0.0240  0.0096  0.3320
16423TIP3    H170760   0.555   3.925  12.633 -0.2916 -1.2477 -1.6843
16423TIP3    H270761   0.631   3.871  12.753 -2.1702  0.4777  0.3748
16424TIP3   OH270762   3.787   6.239  11.713  0.3254  0.1122 -0.0366
16424TIP3    H170763   3.817   6.299  11.645 -0.4958  1.6615  0.8941
16424TIP3    H270764   3.760   6.160  11.666  1.2463  0.5205 -1.3193
16425TIP3   OH270765   6.519   1.329  14.923 -0.1784 -0.7556  0.3868
16425TIP3    H170766   6.511   1.243  14.881  1.0620 -0.3795 -0.6913
16425TIP3    H270767   6.452   1.383  14.881  1.1167 -0.3570 -1.2532
16426TIP3   OH270768   4.459   3.987  12.272 -0.2555  0.0618 -0.0648
16426TIP3    H170769   4.367   3.972  12.250 -1.1113  1.8324  1.9794
16426TIP3    H270770   4.464   3.972  12.366  1.2995  1.0345  0.0421
16427TIP3   OH270771   2.156   5.408   5.368 -0.9352  0.1237  0.0005
16427TIP3    H170772   2.209   5.334   5.338 -0.8004  0.2367 -0.0360
16427TIP3    H270773   2.213   5.455   5.429 -1.2774 -0.2274  0.6070
16428TIP3   OH270774   2.904   5.138  12.676  0.6066 -0.3002 -0.0210
16428TIP3    H170775   2.854   5.056  12.673  0.4060 -0.1630 -0.8810
16428TIP3    H270776   2.969   5.129  12.606 -1.7437  1.6772 -2.7314
16429TIP3   OH270777   5.687   0.134   2.338 -0.5861 -0.2484  0.2356
16429TIP3    H170778   5.719   0.169   2.421  2.2550 -0.3133 -0.7256
16429TIP3    H270779   5.605   0.180   2.322  0.0873  1.6268  1.8539
16430TIP3   OH270780   2.288   3.211  14.306 -0.9018  0.3166  0.2224
16430TIP3    H170781   2.254   3.129  14.343 -0.3542  0.0640  0.1787
16430TIP3    H270782   2.214   3.271  14.308 -0.7570  0.5176  2.3359
16431TIP3   OH270783   4.381   5.044  14.518 -0.3530  0.0244 -0.7097
16431TIP3    H170784   4.438   5.069  14.445 -0.2679 -0.1851 -0.7134
16431TIP3    H270785   4.395   4.950  14.529 -2.1376 -0.4607 -1.9976
16432TIP3   OH270786   6.472   2.091   2.342 -0.3936  0.1505  0.2583
16432TIP3    H170787   6.394   2.037   2.326 -1.3978  0.8475  2.4657
16432TIP3    H270788   6.545   2.032   2.323 -1.4252 -0.8550 -0.8516
16433TIP3   OH270789   5.383   0.942  12.105  0.2664  0.3123 -0.4149
16433TIP3    H170790   5.299   0.987  12.102 -0.6365 -1.1790  0.9634
16433TIP3    H270791   5.432   0.987  12.175 -0.5749 -0.6989  0.8585
16434TIP3   OH270792   5.982   4.458  14.425 -0.3520  0.7324 -0.1426
16434TIP3    H170793   5.907   4.432  14.478 -0.9260  1.5578 -0.5204
16434TIP3    H270794   5.979   4.554  14.426  1.1903  0.7966  0.5257
16435TIP3   OH270795   3.673   4.976  16.131 -0.5022  0.1236 -0.0892
16435TIP3    H170796   3.758   4.946  16.100 -0.0112  0.7190  0.6380
16435TIP3    H270797   3.615   4.901  16.120  0.0985 -0.2611 -0.6673
16436TIP3   OH270798   2.150   2.335  14.378  0.3276 -0.1289  0.0315
16436TIP3    H170799   2.222   2.293  14.331 -0.7342 -2.9866  0.7522
16436TIP3    H270800   2.086   2.356  14.311  0.3341 -0.8877 -0.2175
16437TIP3   OH270801   3.954   5.634   4.666  0.2708  0.3620 -0.0265
16437TIP3    H170802   3.939   5.666   4.577 -0.8574  1.6521  0.5913
16437TIP3    H270803   3.948   5.539   4.658  3.8263  0.1470 -1.9306
16438TIP3   OH270804   5.985   1.735  12.676 -0.3261  0.0087 -0.3250
16438TIP3    H170805   6.011   1.827  12.665 -1.1190  0.6158  2.1752
16438TIP3    H270806   6.060   1.694  12.719  0.2323 -0.6783 -1.9116
16439TIP3   OH270807   6.365   4.937  17.364 -0.2071  0.0998  0.3555
16439TIP3    H170808   6.320   4.944  17.448  1.2986 -1.0903  1.3035
16439TIP3    H270809   6.429   5.009  17.364 -1.0772  0.9071 -0.3757
16440TIP3   OH270810   0.663   0.416  15.487 -0.3501  0.1364  0.0704
16440TIP3    H170811   0.642   0.339  15.433 -1.2874 -0.1864  0.8680
16440TIP3    H270812   0.590   0.476  15.472 -0.6699  0.0062  1.0194
16441TIP3   OH270813   4.616   2.359   1.202  0.0951 -0.3610  0.0444
16441TIP3    H170814   4.542   2.309   1.168 -0.4849  0.7417 -0.3600
16441TIP3    H270815   4.691   2.327   1.153 -0.4608 -0.0066 -1.0667
16442TIP3   OH270816   5.090   0.082  17.283 -0.3537  0.1295  0.4896
16442TIP3    H170817   5.071  -0.011  17.272 -0.8187  0.3824 -1.0735
16442TIP3    H270818   5.127   0.108  17.199  0.1226  1.2836  1.0451
16443TIP3   OH270819   5.388   1.943  11.840  1.2535 -0.4478  0.0169
16443TIP3    H170820   5.470   1.966  11.883  0.7208  1.7703 -0.0225
16443TIP3    H270821   5.397   1.974  11.750  0.7611 -1.1598 -0.2934
16444TIP3   OH270822   0.632   1.644   0.982 -0.0907 -0.2674  0.1330
16444TIP3    H170823   0.548   1.683   0.957 -1.0388 -2.4755 -0.4370
16444TIP3    H270824   0.612   1.551   0.995  2.0226 -0.6302  1.3113
16445TIP3   OH270825   6.140   3.747   2.820 -0.6715  0.4727  0.2602
16445TIP3    H170826   6.134   3.661   2.779  0.7287  0.1791  0.6125
16445TIP3    H270827   6.071   3.798   2.779 -0.9911 -0.5836 -0.5547
16446TIP3   OH270828   1.894   4.709   1.523  0.1349  0.2554  0.0861
16446TIP3    H170829   1.977   4.728   1.566  2.3893 -1.7956 -2.9204
16446TIP3    H270830   1.902   4.748   1.436 -1.4508 -1.2121 -0.7860
16447TIP3   OH270831   4.337   2.637   3.971 -0.1004 -0.2978  0.5058
16447TIP3    H170832   4.371   2.715   4.015 -2.7958  0.5455  1.2500
16447TIP3    H270833   4.295   2.670   3.892  1.3332 -1.3961 -0.7783
16448TIP3   OH270834   1.539   5.841   0.616 -0.0229 -0.2241 -0.1710
16448TIP3    H170835   1.504   5.930   0.615  0.0742 -0.1695 -1.7400
16448TIP3    H270836   1.464   5.786   0.592  0.3408 -0.3585 -1.0414
16449TIP3   OH270837   0.023   1.250   0.084 -0.3731 -0.2379  0.2679
16449TIP3    H170838  -0.008   1.320   0.026 -1.3272 -0.0773  0.9384
16449TIP3    H270839   0.093   1.207   0.035 -1.9093 -0.8716 -1.5060
16450TIP3   OH270840   4.950   3.659  16.927  0.5552 -0.3417  0.2834
16450TIP3    H170841   4.995   3.650  16.843  2.1826  0.9737  0.9623
16450TIP3    H270842   4.863   3.691  16.905  1.1409  0.4836 -0.8810
16451TIP3   OH270843   5.253   6.421   4.017 -0.1545 -0.4211  0.7427
16451TIP3    H170844   5.268   6.358   4.087  0.1691 -1.7111 -0.4615
16451TIP3    H270845   5.204   6.373   3.951  0.3968  0.4703 -0.3560
16452TIP3   OH270846   0.300   4.328  15.982 -0.1279  0.9808  0.0829
16452TIP3    H170847   0.243   4.333  16.060  0.9859  0.0883  0.9819
16452TIP3    H270848   0.380   4.373  16.009  0.2033  0.8129 -0.6176
16453TIP3   OH270849   5.761   5.938  13.256 -0.0931 -0.0827 -0.4068
16453TIP3    H170850   5.765   5.923  13.162  1.8175  0.8345 -0.5238
16453TIP3    H270851   5.755   6.033  13.265  2.4287  0.0800  0.3645
16454TIP3   OH270852   4.779   3.161   6.528  0.5553 -0.5967 -0.0173
16454TIP3    H170853   4.731   3.120   6.600  0.8083  1.2586  1.2740
16454TIP3    H270854   4.859   3.193   6.568  0.3655  1.1404 -0.9316
16455TIP3   OH270855   3.754   1.637   3.736  0.2261 -0.3061  0.0508
16455TIP3    H170856   3.709   1.609   3.657  0.2681  1.5262 -0.6632
16455TIP3    H270857   3.847   1.621   3.718  0.4014  1.5760 -0.9706
16456TIP3   OH270858   2.182   3.792  16.225 -0.1383 -0.3002 -0.1800
16456TIP3    H170859   2.261   3.832  16.190 -0.3367  0.4085  0.1520
16456TIP3    H270860   2.209   3.756  16.310  0.0991 -1.1018 -0.5894
16457TIP3   OH270861   2.470   4.895   3.814  0.2009  0.0655 -0.0869
16457TIP3    H170862   2.412   4.830   3.851  1.0628 -0.5213  0.2628
16457TIP3    H270863   2.450   4.976   3.862  0.6127 -0.4497  0.9765
16458TIP3   OH270864   0.217   3.459  13.270 -0.0296  0.6388 -0.3907
16458TIP3    H170865   0.228   3.554  13.270  0.1193  0.6625  1.3933
16458TIP3    H270866   0.233   3.433  13.361  1.1355 -1.2390 -1.0713
16459TIP3   OH270867   6.197   0.343  12.940  0.2528 -0.0095  1.1247
16459TIP3    H170868   6.265   0.336  12.874  0.6908  0.4457  1.5182
16459TIP3    H270869   6.244   0.345  13.024 -0.1855  0.9371  1.3699
16460TIP3   OH270870   6.724   2.170  17.067  0.4794  0.0162 -0.0576
16460TIP3    H170871   6.662   2.196  16.999  1.9987 -0.3414 -1.6366
16460TIP3    H270872   6.730   2.074  17.059 -0.4911 -0.2363  1.6619
16461TIP3   OH270873   3.016   6.516   0.097 -0.6475 -0.4870 -0.3772
16461TIP3    H170874   3.081   6.558   0.152 -1.2178  1.4490 -1.0957
16461TIP3    H270875   3.041   6.424   0.095 -0.0345 -0.4305  2.2406
16462TIP3   OH270876   0.508   3.662  17.286  0.7024 -0.2830 -0.1332
16462TIP3    H170877   0.447   3.730  17.257  0.8070 -0.8369 -1.7294
16462TIP3    H270878   0.586   3.711  17.313  0.2963  0.3045 -0.0006
16463TIP3   OH270879   0.602   5.227  13.089  0.3835  0.2553 -0.0213
16463TIP3    H170880   0.570   5.191  13.006 -0.6881  0.1585  0.4174
16463TIP3    H270881   0.686   5.268  13.067 -0.1746  0.7600 -1.2677
16464TIP3   OH270882   5.992   6.098  12.882 -0.0719  0.1934 -0.4220
16464TIP3    H170883   6.081   6.083  12.914  0.5193 -0.1144 -2.1170
16464TIP3    H270884   5.936   6.051  12.945  1.0487 -0.6833 -0.0402
16465TIP3   OH270885   1.371   0.548  13.191  0.3772 -0.0430 -0.2629
16465TIP3    H170886   1.301   0.484  13.176  1.8703 -1.4023 -1.7992
16465TIP3    H270887   1.339   0.602  13.263 -2.2958 -0.5435 -0.9640
16466TIP3   OH270888   0.177   4.764  13.374 -0.6519  0.2805  0.3936
16466TIP3    H170889   0.237   4.806  13.313  0.9246 -0.6598  1.2224
16466TIP3    H270890   0.101   4.740  13.321  0.0605  0.7589 -0.8748
16467TIP3   OH270891   0.892   2.592  15.590  0.4143 -0.0757  0.6198
16467TIP3    H170892   0.856   2.508  15.560 -2.9010  0.6012  2.2045
16467TIP3    H270893   0.833   2.658  15.553  2.1079  1.4869  0.5752
16468TIP3   OH270894   2.864   1.981   5.187  0.2649  0.2029  0.7726
16468TIP3    H170895   2.896   1.925   5.258  0.5026  0.6451  1.0193
16468TIP3    H270896   2.783   1.939   5.158  1.2903 -1.1897 -0.1891
16469TIP3   OH270897   4.411   3.614  16.006 -0.3549 -0.2433  0.3712
16469TIP3    H170898   4.462   3.544  15.965  0.0056  1.9327 -3.2752
16469TIP3    H270899   4.475   3.680  16.030 -0.8465 -0.4336  2.4046
16470TIP3   OH270900   1.113   4.748  11.335  0.3989  0.2112  0.2198
16470TIP3    H170901   1.095   4.655  11.325 -1.0409  0.4814  0.0359
16470TIP3    H270902   1.182   4.766  11.271  1.9175 -1.0273  1.4320
16471TIP3   OH270903   2.829   0.962   2.751 -0.6621  0.1941 -0.7357
16471TIP3    H170904   2.919   0.993   2.757  0.0416 -1.7909 -0.3199
16471TIP3    H270905   2.828   0.905   2.674 -1.6785  0.5031 -0.9775
16472TIP3   OH270906   0.097   3.495   2.365 -0.0451 -0.2349  0.0771
16472TIP3    H170907   0.182   3.452   2.373 -0.0057 -1.1848 -3.6013
16472TIP3    H270908   0.037   3.439   2.414  1.1441 -0.4209  1.3898
16473TIP3   OH270909   0.500   5.575   2.013 -0.7376  0.2171 -0.2604
16473TIP3    H170910   0.561   5.584   1.939 -1.0535  1.5678 -0.3796
16473TIP3    H270911   0.535   5.634   2.079  0.6705 -2.4038  1.5103
16474TIP3   OH270912   3.123   6.429   3.862 -0.0522 -0.0731 -0.1218
16474TIP3    H170913   3.091   6.342   3.838  0.3945 -0.0662 -0.8018
16474TIP3    H270914   3.054   6.489   3.834 -0.1173 -0.1712 -0.1730
16475TIP3   OH270915   6.461   6.310  13.628  0.2546  0.0869  0.2235
16475TIP3    H170916   6.406   6.309  13.706  1.1959  0.3150  0.9193
16475TIP3    H270917   6.493   6.401  13.622  0.2450  0.0571 -0.3954
16476TIP3   OH270918   1.614   3.982  15.547  0.2587  0.6480 -0.5410
16476TIP3    H170919   1.607   4.078  15.545 -0.0688  0.6156 -0.9723
16476TIP3    H270920   1.536   3.951  15.502 -1.1867  0.0955  2.1326
16477TIP3   OH270921   1.932   4.889   0.978 -0.0636 -0.3370 -0.6006
16477TIP3    H170922   1.962   4.970   0.936 -0.6767 -1.0994 -2.6527
16477TIP3    H270923   1.929   4.825   0.907 -2.0174 -1.4992  0.4223
16478TIP3   OH270924   5.942   2.154  13.763 -0.4531  0.5516  0.1536
16478TIP3    H170925   5.938   2.122  13.673 -1.0691  0.1634  0.3128
16478TIP3    H270926   5.892   2.090  13.814  1.1985 -0.0900  1.0381
16479TIP3   OH270927   6.090   4.133   3.017  0.0214 -0.0387 -0.0586
16479TIP3    H170928   6.073   4.167   2.929  0.2261  0.3847  0.0617
16479TIP3    H270929   6.022   4.172   3.072  0.5082  0.5141  0.1579
16480TIP3   OH270930   5.245   2.390  15.978 -0.0161 -0.1059 -0.0449
16480TIP3    H170931   5.289   2.425  15.900 -0.3843  1.4094  0.4147
16480TIP3    H270932   5.160   2.360  15.946  0.3860 -0.8323 -0.4769
16481TIP3   OH270933   5.308   3.037   6.160  0.1579  0.7169 -0.0294
16481TIP3    H170934   5.356   3.116   6.185 -0.1553  0.4350  1.5816
16481TIP3    H270935   5.228   3.041   6.212 -0.0696 -0.4381 -0.2774
16482TIP3   OH270936   0.549   4.745  13.477  0.3927  0.3533 -0.2678
16482TIP3    H170937   0.541   4.703  13.563 -1.3196  1.2538  0.0615
16482TIP3    H270938   0.542   4.673  13.414  0.1868 -0.1572  0.3266
16483TIP3   OH270939   4.600   2.698   4.263  0.8019 -0.2405  0.0352
16483TIP3    H170940   4.691   2.725   4.273  0.9743  0.0625 -1.9666
16483TIP3    H270941   4.563   2.758   4.199 -0.5562 -0.9604  0.0941
16484TIP3   OH270942   1.978   0.924  15.571 -1.1295 -0.3129  0.3119
16484TIP3    H170943   2.009   0.855  15.513  3.9015  1.0374  0.9158
16484TIP3    H270944   1.928   0.877  15.639  0.3278 -3.1103 -0.3797
16485TIP3   OH270945   5.973   6.595   2.653 -0.1498 -0.1224 -0.2056
16485TIP3    H170946   5.970   6.534   2.726  1.6980 -0.2600 -0.2129
16485TIP3    H270947   5.944   6.544   2.578  2.0987 -1.2721 -0.3541
16486TIP3   OH270948   2.252   2.390  12.394  0.6839  0.4101  0.8031
16486TIP3    H170949   2.267   2.394  12.488  0.9205  0.6228  0.7563
16486TIP3    H270950   2.167   2.432  12.381  0.6358  0.3520  0.9234
16487TIP3   OH270951   3.083   3.884   4.361 -0.0963 -0.5182 -0.5024
16487TIP3    H170952   3.045   3.961   4.318 -1.1935 -0.0043  1.2916
16487TIP3    H270953   3.032   3.810   4.328 -3.6889  0.2444  2.6249
16488TIP3   OH270954   4.261   3.921   2.591  0.6933 -0.6335  0.4532
16488TIP3    H170955   4.232   3.879   2.510  0.1122 -0.2503  0.4529
16488TIP3    H270956   4.180   3.953   2.631  0.9163 -1.1823  1.3931
16489TIP3   OH270957   6.076   2.250  15.989 -0.4918 -0.4127 -0.4579
16489TIP3    H170958   6.114   2.214  16.069  2.0855 -0.1036 -1.4361
16489TIP3    H270959   6.105   2.341  15.987  1.2236 -0.9097 -2.6218
16490TIP3   OH270960   2.805   5.968  16.640  0.8915  0.5877 -0.6589
16490TIP3    H170961   2.856   6.047  16.626  0.2790  0.9614 -0.8014
16490TIP3    H270962   2.778   5.940  16.553  1.3921  0.0199 -0.6436
16491TIP3   OH270963   1.043   4.413  12.679 -0.0083  0.4279 -0.4495
16491TIP3    H170964   1.019   4.372  12.763 -1.6453  1.3082 -0.4476
16491TIP3    H270965   1.128   4.375  12.658  1.5051  1.6919  2.6514
16492TIP3   OH270966   2.668   6.473   4.359  0.2230 -0.1339  0.3997
16492TIP3    H170967   2.757   6.439   4.351  0.5806  0.3016  2.1854
16492TIP3    H270968   2.620   6.430   4.288  1.7774 -0.5823 -0.4303
16493TIP3   OH270969   2.175   1.580   2.191 -0.1719 -0.1416 -0.3336
16493TIP3    H170970   2.182   1.593   2.286 -0.3143 -1.1942 -0.1667
16493TIP3    H270971   2.241   1.513   2.172  0.1920  0.4172 -1.0611
16494TIP3   OH270972   4.477   4.837  16.747  0.0724 -0.1935 -0.5163
16494TIP3    H170973   4.385   4.865  16.745  0.1851  0.2087 -0.2184
16494TIP3    H270974   4.473   4.741  16.754 -0.3447 -0.0827  1.2579
16495TIP3   OH270975   2.791   1.206  15.811  0.2656 -0.4502 -0.4146
16495TIP3    H170976   2.848   1.256  15.870 -0.8218 -0.8876  1.0478
16495TIP3    H270977   2.808   1.114  15.833 -1.9482 -0.5915  1.0690
16496TIP3   OH270978   4.106   5.432  12.353  0.2035 -0.3717  0.2590
16496TIP3    H170979   4.157   5.505  12.319  0.6842 -0.2239  1.2560
16496TIP3    H270980   4.131   5.426  12.445 -1.6292 -0.2401  0.8174
16497TIP3   OH270981   6.408   2.779   3.035 -0.3925 -0.2293 -0.3935
16497TIP3    H170982   6.428   2.778   2.941  0.5540 -2.9465 -0.2364
16497TIP3    H270983   6.356   2.700   3.050  0.8368 -0.7205  1.6260
16498TIP3   OH270984   3.057   6.365  11.861 -0.0529 -0.3868 -0.2742
16498TIP3    H170985   3.105   6.411  11.792 -0.8885  1.5366  0.3530
16498TIP3    H270986   3.124   6.318  11.910  1.0517  1.2162 -0.1857
16499TIP3   OH270987   3.095   5.205   4.274 -0.5470  0.1216 -0.0673
16499TIP3    H170988   3.101   5.242   4.362 -0.4317 -0.9438  0.3811
16499TIP3    H270989   3.162   5.137   4.272 -1.8555 -1.2058 -0.3122
16500TIP3   OH270990   4.817   4.170  14.644 -0.1688 -0.1343 -0.3357
16500TIP3    H170991   4.797   4.152  14.736  0.9104 -0.4461 -0.1439
16500TIP3    H270992   4.850   4.260  14.643  2.1146 -0.8879  0.0095
16501TIP3   OH270993   5.616   3.963   6.610  0.6110  0.6302  0.7424
16501TIP3    H170994   5.559   4.034   6.578  1.1278  1.0430  0.7164
16501TIP3    H270995   5.585   3.945   6.699 -1.0137 -0.7121 -0.0543
16502TIP3   OH270996   3.803   6.208   6.342  0.0176 -0.3990 -0.1919
16502TIP3    H170997   3.743   6.242   6.408  1.2881  1.7886 -0.0925
16502TIP3    H270998   3.889   6.240   6.368  0.6377  0.0609 -2.5882
16503TIP3   OH270999   0.473   1.912   2.003  0.1090  0.1601  0.0302
16503TIP3    H171000   0.565   1.929   2.024  1.3842 -2.6788 -2.5460
16503TIP3    H271001   0.445   1.846   2.067  0.5100 -0.4090 -0.3738
16504TIP3   OH271002   4.302   5.853  13.685  1.3135  0.2916 -0.0644
16504TIP3    H171003   4.216   5.880  13.718  1.7967  0.7356  0.8775
16504TIP3    H271004   4.310   5.897  13.600  0.4476 -0.0883 -0.3568
16505TIP3   OH271005   2.165   0.887   1.651 -0.4597  0.4011 -0.2882
16505TIP3    H171006   2.074   0.912   1.666  0.1309  3.0980 -0.7749
16505TIP3    H271007   2.184   0.824   1.721 -1.6735  2.4864  2.0916
16506TIP3   OH271008   4.160   0.485   1.246 -0.6917  0.2404  0.5713
16506TIP3    H171009   4.240   0.475   1.192 -0.7175  0.2605  0.5293
16506TIP3    H271010   4.183   0.444   1.329 -0.1314  1.5539  1.0769
16507TIP3   OH271011   3.706   0.426   3.841 -0.6916  0.2128 -0.5064
16507TIP3    H171012   3.641   0.361   3.865  0.9402 -1.8568 -1.3498
16507TIP3    H271013   3.710   0.423   3.745  1.1522 -0.3245 -0.4610
16508TIP3   OH271014   2.682   1.102   0.453  0.4204 -0.2917 -0.1306
16508TIP3    H171015   2.641   1.159   0.519 -1.6463 -0.8858 -0.8463
16508TIP3    H271016   2.735   1.162   0.401 -0.4200  0.7233  0.1350
16509TIP3   OH271017   1.284   5.320   4.220  0.2822 -0.5124  0.1898
16509TIP3    H171018   1.340   5.351   4.149 -0.2810  0.8200  0.2821
16509TIP3    H271019   1.271   5.227   4.202  0.1585 -0.2122 -1.4440
16510TIP3   OH271020   0.706   3.073  14.859  0.2674 -0.4779  0.5032
16510TIP3    H171021   0.663   3.057  14.775  1.4830 -1.3770  0.0347
16510TIP3    H271022   0.798   3.090  14.837  0.6586 -0.9767  1.6646
16511TIP3   OH271023   5.063   3.451   5.837 -0.0401  0.2347 -0.2384
16511TIP3    H171024   5.073   3.413   5.924 -0.4754  0.0034 -0.2873
16511TIP3    H271025   5.152   3.457   5.803  0.0151 -1.1287 -0.3835
16512TIP3   OH271026   3.026   5.409  12.841  0.2536 -0.1082  0.7211
16512TIP3    H171027   2.933   5.413  12.864  0.0788  1.0710 -0.1350
16512TIP3    H271028   3.069   5.466  12.906  0.6192 -1.8504  2.0916
16513TIP3   OH271029   0.234   0.618   4.744  0.2213  0.7653 -0.1627
16513TIP3    H171030   0.241   0.525   4.721 -0.2002  1.0003 -1.2941
16513TIP3    H271031   0.173   0.619   4.818 -0.2627  0.1877 -0.5366
16514TIP3   OH271032   2.086   3.745  15.809 -0.0889  0.3122  1.0599
16514TIP3    H171033   2.007   3.738  15.755  1.0653 -0.1815 -0.6645
16514TIP3    H271034   2.088   3.663  15.859 -1.0558  0.6651  1.6932
16515TIP3   OH271035   5.740   6.219  16.840  0.8678 -0.4355 -0.0812
16515TIP3    H171036   5.692   6.206  16.921  2.0013  0.9905  0.8757
16515TIP3    H271037   5.826   6.180  16.856  0.9865 -0.4567 -0.7365
16516TIP3   OH271038   2.049   3.664   1.588  0.2110 -0.2399  0.2969
16516TIP3    H171039   1.965   3.618   1.588 -0.2470  0.5505 -0.5079
16516TIP3    H271040   2.024   3.757   1.595  1.0474 -0.0260  0.5138
16517TIP3   OH271041   5.565   0.127  16.959  0.1740  0.5934 -0.0735
16517TIP3    H171042   5.578   0.221  16.964 -1.7520  0.8941 -0.0624
16517TIP3    H271043   5.515   0.114  16.878 -1.6766 -0.1344  1.1454
16518TIP3   OH271044   3.026   5.805   5.356  0.0271 -0.6309  0.6705
16518TIP3    H171045   2.972   5.884   5.353 -0.7563 -1.1736  0.1123
16518TIP3    H271046   3.112   5.833   5.324 -0.2600 -0.0125  0.4266
16519TIP3   OH271047   6.719   5.254   1.752  0.1330  0.0944 -0.1334
16519TIP3    H171048   6.766   5.323   1.797  2.7736 -1.7211  0.1468
16519TIP3    H271049   6.665   5.213   1.820 -0.3720  0.9776  0.0060
16520TIP3   OH271050   5.443   0.252  16.195 -0.3683 -0.1078 -0.3265
16520TIP3    H171051   5.391   0.332  16.191 -0.1433  0.0090 -1.1833
16520TIP3    H271052   5.534   0.282  16.190 -0.1894 -0.3093  1.1399
16521TIP3   OH271053   1.221   0.839  13.764 -0.4318 -0.1876 -0.3061
16521TIP3    H171054   1.153   0.797  13.816 -1.0717  1.7923  0.5615
16521TIP3    H271055   1.186   0.840  13.675 -1.4138  0.4866  0.0654
16522TIP3   OH271056   2.459   0.177  13.001  0.3543 -0.2244 -0.1622
16522TIP3    H171057   2.534   0.168  12.941 -0.1108 -0.2719 -0.7408
16522TIP3    H271058   2.384   0.146  12.951 -0.2168  0.7141  0.0797
16523TIP3   OH271059   3.984   0.935   3.035  0.1733 -0.2643  0.4635
16523TIP3    H171060   3.978   0.939   3.130 -1.5820  1.7698  0.3261
16523TIP3    H271061   3.906   0.887   3.008  1.0313 -1.4734  0.0335
16524TIP3   OH271062   1.307   2.932  12.768 -0.2948  0.1278 -0.1850
16524TIP3    H171063   1.317   2.994  12.695  2.9662 -1.2517 -1.1167
16524TIP3    H271064   1.228   2.882  12.746  0.3605  0.0197 -2.6178
16525TIP3   OH271065   2.147   2.082  13.136 -0.0293 -0.3621 -0.0011
16525TIP3    H171066   2.073   2.138  13.111  0.6539  0.3262 -0.5268
16525TIP3    H271067   2.215   2.143  13.164  0.3802 -0.9852  0.3834
16526TIP3   OH271068   0.508   3.166  11.575 -0.2566 -0.4640 -0.3981
16526TIP3    H171069   0.514   3.257  11.602  1.5947 -0.5680 -0.3283
16526TIP3    H271070   0.599   3.135  11.573 -0.5691 -1.5021 -3.1478
16527TIP3   OH271071   5.106   2.537   3.087  0.1416  0.1815  0.2195
16527TIP3    H171072   5.052   2.552   3.009 -0.4187 -0.9110  0.3689
16527TIP3    H271073   5.192   2.570   3.064  0.3120 -1.2311 -1.3241
16528TIP3   OH271074   1.247   5.873   5.408 -0.3415 -0.1506  0.9289
16528TIP3    H171075   1.274   5.927   5.334 -4.9761  1.8857  0.3650
16528TIP3    H271076   1.241   5.785   5.371 -0.5839  0.4652 -0.6082
16529TIP3   OH271077   4.209   2.856  12.461 -0.2177 -0.6671  0.3857
16529TIP3    H171078   4.257   2.911  12.522  0.3885 -0.5589 -0.1801
16529TIP3    H271079   4.182   2.915  12.391 -1.8038 -0.5762  1.0352
16530TIP3   OH271080   3.245   3.064  15.041 -0.1385  0.0940  0.0498
16530TIP3    H171081   3.242   3.029  14.952 -0.4978 -0.8502  0.4235
16530TIP3    H271082   3.303   3.004  15.089 -1.4083 -0.4897  0.9013
16531TIP3   OH271083   3.113   1.489   1.250  0.2209  0.3827 -0.3163
16531TIP3    H171084   3.118   1.444   1.335  0.8778  0.0849 -0.5058
16531TIP3    H271085   3.142   1.578   1.268  0.6510  0.2363 -0.2897
16532TIP3   OH271086   3.101   3.991  14.025  0.3799 -0.0030  0.5085
16532TIP3    H171087   3.165   4.015  13.957 -1.5315  0.8408 -1.0918
16532TIP3    H271088   3.078   4.073  14.068 -0.6985 -0.0505  0.0555
16533TIP3   OH271089   5.996   2.214  10.456 -0.2576 -0.4429 -0.3383
16533TIP3    H171090   5.970   2.154  10.526  0.5394  1.1627  1.4047
16533TIP3    H271091   5.915   2.262  10.435  0.1737  1.5498  2.0720
16534TIP3   OH271092   3.213   6.536  15.766  0.1734 -0.0502 -0.0842
16534TIP3    H171093   3.175   6.452  15.739  0.4104  0.7046 -3.2204
16534TIP3    H271094   3.138   6.596  15.770  0.2334  0.0023  0.2162
16535TIP3   OH271095   6.151   0.768   1.794  0.3109  0.1058 -0.2884
16535TIP3    H171096   6.201   0.841   1.757 -1.0654  1.8924  1.1788
16535TIP3    H271097   6.141   0.791   1.887 -2.6390 -0.4535 -0.3856
16536TIP3   OH271098   4.258   5.348   0.582 -0.2348 -0.4166  0.4955
16536TIP3    H171099   4.177   5.350   0.633 -0.8411 -2.2829 -0.3114
16536TIP3    H271100   4.252   5.267   0.531  2.3827 -0.8728  0.7923
16537TIP3   OH271101   4.717   1.643  17.074 -0.2477 -0.0131  0.1319
16537TIP3    H171102   4.671   1.601  17.147 -0.0680  0.9135  0.7987
16537TIP3    H271103   4.735   1.572  17.013  1.9694 -1.3930  2.1910
16538TIP3   OH271104   3.111   3.116  16.590  0.7025  0.8989  0.2345
16538TIP3    H171105   3.070   3.166  16.661  2.6980  1.1936  1.2643
16538TIP3    H271106   3.125   3.029  16.627 -1.3796 -0.0617 -1.0432
16539TIP3   OH271107   3.160   3.497   0.493 -0.0613  0.0497  0.2782
16539TIP3    H171108   3.074   3.473   0.529  0.7987 -1.3290  1.5228
16539TIP3    H271109   3.223   3.458   0.554  1.4569 -0.0860 -1.3187
16540TIP3   OH271110   6.302   2.868  17.092  0.3680 -0.2879 -0.5595
16540TIP3    H171111   6.393   2.865  17.120  0.7717  1.2142 -1.5724
16540TIP3    H271112   6.290   2.957  17.059 -1.9557  0.0910  1.1124
16541TIP3   OH271113   2.920   6.605  12.044  0.4513 -0.0997  0.3341
16541TIP3    H171114   2.895   6.683  11.995  0.6545  0.1752  0.6613
16541TIP3    H271115   2.917   6.534  11.980 -0.3218  0.0746  0.1735
16542TIP3   OH271116   5.923   5.653  12.842 -0.8876  0.4644  0.0755
16542TIP3    H171117   5.922   5.577  12.900 -0.2418 -1.2645 -2.0401
16542TIP3    H271118   6.010   5.692  12.854 -0.4450 -0.3794 -0.3104
16543TIP3   OH271119   4.339   4.497  11.595 -0.1638  0.0285 -0.0095
16543TIP3    H171120   4.324   4.460  11.508  1.0056 -0.4075 -0.0448
16543TIP3    H271121   4.329   4.422  11.654  1.1657 -0.1455  0.0178
16544TIP3   OH271122   1.635   2.533  16.091  0.0360 -0.1068  0.1382
16544TIP3    H171123   1.632   2.445  16.052  1.6889 -0.9147  1.6951
16544TIP3    H271124   1.550   2.571  16.070  0.3781 -0.8602 -3.2536
16545TIP3   OH271125   0.042   1.388  14.290  0.1911 -0.2352 -0.0493
16545TIP3    H171126   0.072   1.462  14.236 -2.3174 -0.3182 -1.7647
16545TIP3    H271127  -0.004   1.429  14.363 -1.4533  0.0272 -1.1520
16546TIP3   OH271128   3.729   5.814   3.116 -0.4114  0.4263 -0.4405
16546TIP3    H171129   3.673   5.786   3.188  0.6188  0.1913  0.2876
16546TIP3    H271130   3.800   5.862   3.157  1.5802 -1.8610 -0.9844
16547TIP3   OH271131   4.592   1.792  11.429  0.0580 -0.2540 -0.2459
16547TIP3    H171132   4.506   1.785  11.388  0.2619  0.8939 -0.8833
16547TIP3    H271133   4.637   1.860  11.381  0.5301  0.7168  1.4838
16548TIP3   OH271134   3.741   6.744   2.726  0.0560 -0.1372  0.7462
16548TIP3    H171135   3.781   6.688   2.659  0.2107  0.5605  0.2406
16548TIP3    H271136   3.675   6.689   2.767 -1.4905  0.0181 -1.3583
16549TIP3   OH271137   0.158   0.050  13.848 -0.5876 -0.0150 -0.3889
16549TIP3    H171138   0.064   0.058  13.835 -0.8807  2.2007  2.1918
16549TIP3    H271139   0.188   0.140  13.861  1.7894 -0.7355 -0.4726
16550TIP3   OH271140   1.817   1.058   4.964 -0.5911  0.0033 -0.2054
16550TIP3    H171141   1.752   0.990   4.982 -0.2226 -0.4169 -0.4266
16550TIP3    H271142   1.820   1.110   5.043  2.0803 -2.6834  1.7026
16551TIP3   OH271143   1.579   4.839   5.410  0.0542 -0.1864  0.4014
16551TIP3    H171144   1.608   4.799   5.492 -0.4174  0.8889  1.1161
16551TIP3    H271145   1.524   4.773   5.369  0.1477 -0.6708  1.0367
16552TIP3   OH271146   0.008   3.770   0.703 -0.4299  0.0694  0.1814
16552TIP3    H171147  -0.007   3.858   0.668 -0.7974 -0.3854 -0.8488
16552TIP3    H271148   0.102   3.763   0.712 -0.4539  0.9276  1.2413
16553TIP3   OH271149   3.663   2.837   3.846 -0.3196 -0.1777  0.3475
16553TIP3    H171150   3.599   2.816   3.915 -0.7025  2.5055  0.9414
16553TIP3    H271151   3.747   2.836   3.891 -0.3916 -0.0036  0.4917
16554TIP3   OH271152   4.576   3.031  17.041 -0.5602  0.3153 -0.1648
16554TIP3    H171153   4.648   3.091  17.020 -0.4590  0.3444  0.2516
16554TIP3    H271154   4.498   3.074  17.006 -0.8567  1.8668  2.1423
16555TIP3   OH271155   0.094   6.573   5.309 -0.0316  0.0739  0.4066
16555TIP3    H171156   0.149   6.494   5.307  2.4820  1.5503  2.9048
16555TIP3    H271157   0.041   6.562   5.388 -1.6689 -0.2668 -0.7108
16556TIP3   OH271158   3.841   4.712  11.783 -0.0960 -0.1460 -0.3057
16556TIP3    H171159   3.777   4.718  11.854  0.8029  1.2069  0.4191
16556TIP3    H271160   3.852   4.802  11.753  2.0644 -0.2289  0.1197
16557TIP3   OH271161   3.844   2.953  16.959 -0.6562  0.3105 -0.4101
16557TIP3    H171162   3.824   2.948  17.053  1.7110 -0.0006  0.1494
16557TIP3    H271163   3.884   2.868  16.939 -2.2478 -0.1121 -2.0453
16558TIP3   OH271164   6.619   3.675   1.795  1.0826  0.7545 -0.3536
16558TIP3    H171165   6.578   3.673   1.708  0.9828  0.8169 -0.3073
16558TIP3    H271166   6.713   3.673   1.776  1.0594 -0.8908 -0.4312
16559TIP3   OH271167   3.648   1.973  11.349  0.1061 -0.3475 -0.0309
16559TIP3    H171168   3.576   1.928  11.396  1.3615 -0.0014  2.3953
16559TIP3    H271169   3.690   1.903  11.299 -1.4660 -0.6913 -0.9512
16560TIP3   OH271170   2.977   5.425  14.736  0.4124  0.3810 -0.0686
16560TIP3    H171171   2.949   5.344  14.779  2.5964 -0.2884  0.2228
16560TIP3    H271172   3.024   5.474  14.804  2.5677  0.0079 -1.1819
16561TIP3   OH271173   3.855   0.683   1.515 -0.1672 -0.4865 -0.4051
16561TIP3    H171174   3.901   0.675   1.431  2.1608 -1.0762  0.8635
16561TIP3    H271175   3.835   0.592   1.539  1.3259 -0.5268  0.7830
16562TIP3   OH271176   2.103   3.853  10.986  0.0368  0.1126 -0.1498
16562TIP3    H171177   2.112   3.946  11.006 -2.4844  0.1592  1.2171
16562TIP3    H271178   2.050   3.850  10.906 -0.7895 -0.1042  0.3873
16563TIP3   OH271179   4.958   2.753   3.415  0.1808 -1.0162 -0.0202
16563TIP3    H171180   5.011   2.772   3.338 -0.8649 -3.3854 -1.4436
16563TIP3    H271181   4.895   2.825   3.418  0.4906 -0.6681 -1.1448
16564TIP3   OH271182   3.281   1.937  15.862 -0.2072  0.6545  0.2853
16564TIP3    H171183   3.276   1.983  15.778 -0.3715 -1.6054 -1.0339
16564TIP3    H271184   3.202   1.882  15.863  2.2121 -3.1941 -0.5598
16565TIP3   OH271185   0.435   3.436  11.962 -0.0385 -0.0732 -0.1834
16565TIP3    H171186   0.344   3.424  11.987  0.0766 -0.0261  0.2641
16565TIP3    H271187   0.484   3.430  12.044  0.3100  0.4315 -0.3453
16566TIP3   OH271188   6.611   6.415  12.615 -0.2045  0.3105 -0.0470
16566TIP3    H171189   6.539   6.468  12.581  0.4279  0.5689 -1.0472
16566TIP3    H271190   6.682   6.478  12.631  0.4116 -0.1594 -0.8448
16567TIP3   OH271191   3.554   5.688  14.929 -0.4019  0.2204 -0.9466
16567TIP3    H171192   3.574   5.623  14.996  3.0721 -2.2551 -4.0019
16567TIP3    H271193   3.592   5.769  14.963 -1.3754 -0.1725  1.2637
16568TIP3   OH271194   0.212   0.413   5.981 -0.3437 -0.3094 -0.2018
16568TIP3    H171195   0.263   0.482   5.938 -0.0770  0.3810  1.1472
16568TIP3    H271196   0.121   0.438   5.968 -0.2683  1.5362  2.0195
16569TIP3   OH271197   5.634   6.610   2.354  0.2331  0.3182 -0.2189
16569TIP3    H171198   5.654   6.611   2.448 -0.6044 -1.7116  0.0309
16569TIP3    H271199   5.636   6.702   2.328 -0.9724  1.0743  2.1002
16570TIP3   OH271200   0.287   1.735  12.251 -0.1208 -0.1143 -0.1690
16570TIP3    H171201   0.346   1.809  12.267  1.6204 -1.0668 -1.7853
16570TIP3    H271202   0.245   1.755  12.168 -0.3574 -0.4991 -0.1459
16571TIP3   OH271203   2.195   5.069  10.910 -0.6731 -0.2016  0.9064
16571TIP3    H171204   2.111   5.035  10.882  0.1783 -1.5571 -0.1433
16571TIP3    H271205   2.256   4.996  10.900  0.6059  0.6876  1.7682
16572TIP3   OH271206   0.611   5.946  14.827 -0.2057  0.0713 -0.0652
16572TIP3    H171207   0.705   5.928  14.826 -0.3791 -0.8514 -0.6849
16572TIP3    H271208   0.597   6.009  14.756 -0.1452 -0.2805 -0.3909
16573TIP3   OH271209   3.558   1.211  14.669 -0.1878  0.2846 -0.4903
16573TIP3    H171210   3.621   1.247  14.732  0.8389 -0.5954 -0.9986
16573TIP3    H271211   3.540   1.123  14.701 -1.3135  0.5724 -0.2656
16574TIP3   OH271212   6.764   0.219  16.434  0.1573 -0.2829 -0.3022
16574TIP3    H171213   6.686   0.243  16.384  0.8708 -0.2153 -1.4117
16574TIP3    H271214   6.756   0.125  16.448  0.7233 -0.6083 -1.9722
16575TIP3   OH271215   1.466   3.775   3.429  0.1192 -0.0119 -0.3639
16575TIP3    H171216   1.459   3.857   3.380 -0.3529  0.8475  1.0722
16575TIP3    H271217   1.548   3.784   3.478 -0.6579  0.3222  0.9593
16576TIP3   OH271218   2.078   1.484  12.104  0.0942  0.6845  0.3951
16576TIP3    H171219   2.148   1.531  12.059  1.3039 -0.1721  1.3323
16576TIP3    H271220   2.070   1.527  12.189  0.7420 -0.3449  0.9918
16577TIP3   OH271221   3.980   3.624   6.026  0.2989 -0.4174 -0.4248
16577TIP3    H171222   4.055   3.584   6.069  1.0696  2.5887  1.3705
16577TIP3    H271223   4.003   3.625   5.933  1.3582 -1.7368 -0.1987
16578TIP3   OH271224   5.022   3.375  12.226 -0.5484  0.0958  0.4500
16578TIP3    H171225   4.984   3.410  12.146  1.9747  1.7905 -0.1139
16578TIP3    H271226   4.958   3.395  12.294 -1.6611  0.7597 -0.7548
16579TIP3   OH271227   2.261   5.156   6.286 -0.2422 -0.2448 -0.2866
16579TIP3    H171228   2.243   5.243   6.322 -0.0574 -0.2168 -0.2611
16579TIP3    H271229   2.352   5.160   6.258  0.2653 -0.9403  1.1939
16580TIP3   OH271230   4.396   5.056  15.995  0.5525 -0.3908  0.9067
16580TIP3    H171231   4.409   4.983  15.934  1.3515  1.6000 -1.4665
16580TIP3    H271232   4.485   5.088  16.013  0.2758 -0.4879  2.6200
16581TIP3   OH271233   6.271   0.191   2.441  0.1011  0.6313 -0.1209
16581TIP3    H171234   6.270   0.114   2.497  0.0310  0.4764 -0.3353
16581TIP3    H271235   6.332   0.170   2.371  0.6381  1.0567  0.2164
16582TIP3   OH271236   0.767   1.990   2.050 -0.0123 -0.1298 -0.0825
16582TIP3    H171237   0.796   1.906   2.014  0.2642  1.0264 -2.8575
16582TIP3    H271238   0.848   2.037   2.069 -0.1112  0.3462 -0.7811
16583TIP3   OH271239   1.711   2.319  15.869 -0.6823  0.1403 -0.0936
16583TIP3    H171240   1.731   2.407  15.838 -0.8916  0.1069 -0.3282
16583TIP3    H271241   1.730   2.262  15.795  0.1565 -0.0965  0.2948
16584TIP3   OH271242   1.835   2.095   5.263  0.5430 -0.2228 -0.3741
16584TIP3    H171243   1.822   2.129   5.352 -0.5869 -0.1833 -0.5379
16584TIP3    H271244   1.903   2.028   5.272  1.0273  0.3524  0.3735
16585TIP3   OH271245   4.419   2.933   3.422  0.0899  0.0545 -0.1874
16585TIP3    H171246   4.383   3.003   3.476 -0.6594  0.4386 -1.1530
16585TIP3    H271247   4.513   2.936   3.438 -0.2590 -1.0155  2.4487
16586TIP3   OH271248   4.465   0.107   6.165 -0.2786 -0.1285  0.9002
16586TIP3    H171249   4.444   0.199   6.179  0.2085  0.4123 -1.5078
16586TIP3    H271250   4.506   0.079   6.246 -0.1101  1.8712  1.5507
16587TIP3   OH271251   4.277   1.305   2.179 -0.3677  0.3974  0.0116
16587TIP3    H171252   4.372   1.319   2.170 -0.2071  0.4566  1.5480
16587TIP3    H271253   4.242   1.322   2.092  0.5393  4.4049  0.2435
16588TIP3   OH271254   5.799   5.909  14.059 -1.0378 -0.7329  0.3361
16588TIP3    H171255   5.706   5.926  14.076 -1.4564 -1.4167 -1.0883
16588TIP3    H271256   5.845   5.971  14.115 -2.3603 -0.2829  0.9684
16589TIP3   OH271257   4.249   2.056  17.308  0.8720 -0.3707 -0.0930
16589TIP3    H171258   4.249   2.036  17.402  0.8589  0.9945  0.2149
16589TIP3    H271259   4.166   2.100  17.293  2.3107  2.6986  0.0458
16590TIP3   OH271260   6.617   0.961  12.644 -0.3787 -0.0458 -0.2604
16590TIP3    H171261   6.589   1.020  12.575 -1.6803  0.3780  0.5911
16590TIP3    H271262   6.672   1.014  12.701  1.1210 -0.5298 -1.2180
16591TIP3   OH271263   3.926   0.125  10.538 -0.1077  0.3003  0.6678
16591TIP3    H171264   3.845   0.176  10.544 -1.1533 -0.9211 -1.8148
16591TIP3    H271265   3.967   0.153  10.456 -0.0791 -1.8708 -0.1224
16592TIP3   OH271266   0.806   6.325  12.434  0.1431 -0.3209 -0.7509
16592TIP3    H171267   0.850   6.403  12.468 -0.5039  0.1421 -0.9612
16592TIP3    H271268   0.855   6.252  12.472  1.1749  0.1736 -1.0846
16593TIP3   OH271269   2.283   2.265  13.936  0.1209 -0.3741 -0.6561
16593TIP3    H171270   2.275   2.358  13.957 -1.6150 -0.8751  1.3133
16593TIP3    H271271   2.201   2.243  13.892  0.5552 -0.9650 -1.1965
16594TIP3   OH271272   4.268   0.250  15.261 -0.3097  0.2942  0.0376
16594TIP3    H171273   4.341   0.189  15.274 -2.1628 -2.1015 -0.1985
16594TIP3    H271274   4.242   0.237  15.170 -1.7468  0.2384  0.4431
16595TIP3   OH271275   2.750   2.601  11.395 -0.5658  0.1998  0.0745
16595TIP3    H171276   2.684   2.532  11.401  0.2993 -0.6252  0.4093
16595TIP3    H271277   2.820   2.573  11.454  1.3051 -0.3510 -2.2484
16596TIP3   OH271278   5.931   1.285  15.206  0.3361 -0.2208 -0.0760
16596TIP3    H171279   5.949   1.370  15.246  1.0913 -1.2758  1.9050
16596TIP3    H271280   5.847   1.258  15.243  0.8386 -1.0265  0.4919
16597TIP3   OH271281   1.157   1.390  15.674 -0.0585  0.0690 -0.0154
16597TIP3    H171282   1.187   1.315  15.724  1.3895 -1.1839 -2.5244
16597TIP3    H271283   1.065   1.371  15.655  0.1687 -0.8604 -0.2351
16598TIP3   OH271284   3.363   2.676  12.409  0.2795  0.3412  0.7477
16598TIP3    H171285   3.280   2.655  12.366 -0.6356 -0.7183  2.8870
16598TIP3    H271286   3.414   2.595  12.404  0.8787  0.7366  0.1875
16599TIP3   OH271287   5.931   5.312  17.248  0.0779  0.1525  0.0129
16599TIP3    H171288   6.018   5.274  17.244 -0.2727 -0.5497 -2.4709
16599TIP3    H271289   5.943   5.404  17.223  0.0877 -0.0404 -0.7205
16600TIP3   OH271290   1.800   4.316  14.729  0.3514 -0.9976  0.0311
16600TIP3    H171291   1.741   4.288  14.659 -0.6701  1.3203 -0.1193
16600TIP3    H271292   1.780   4.409  14.742  1.8140 -0.9030  2.1359
16601TIP3   OH271293   6.710   2.781  12.232  0.1313  0.2068 -0.2266
16601TIP3    H171294   6.642   2.732  12.278  0.9574  0.6495  1.5416
16601TIP3    H271295   6.750   2.717  12.173 -1.3533 -0.2173 -0.8160
16602TIP3   OH271296   5.531   2.609   4.677 -0.1877 -0.0601 -1.1148
16602TIP3    H171297   5.481   2.671   4.623  0.0057  1.4008  0.2877
16602TIP3    H271298   5.478   2.529   4.678 -1.9911  1.0675 -0.5716
16603TIP3   OH271299   3.550   4.679   1.065 -0.4079 -0.5222  0.0160
16603TIP3    H171300   3.489   4.722   1.125 -0.7863 -0.2688 -0.5399
16603TIP3    H271301   3.496   4.652   0.991  0.4129  1.2190 -1.2923
16604TIP3   OH271302   4.564   4.913   2.314  0.4253 -0.3940 -0.0644
16604TIP3    H171303   4.569   4.871   2.228 -1.6183 -1.2063  0.1514
16604TIP3    H271304   4.576   4.840   2.376 -0.7711 -0.2964  0.3115
16605TIP3   OH271305   0.540   3.268   3.165  0.0910 -0.5913  0.2421
16605TIP3    H171306   0.511   3.183   3.132  0.5256 -0.6344 -0.0289
16605TIP3    H271307   0.514   3.268   3.257  0.9307 -1.3980  0.4926
16606TIP3   OH271308   1.700   2.354  14.456  0.6264 -0.1496 -0.5591
16606TIP3    H171309   1.719   2.261  14.469  1.1899 -0.0240 -0.4506
16606TIP3    H271310   1.683   2.361  14.362 -0.8528 -0.6027 -0.3456
16607TIP3   OH271311   3.246   2.188   3.946 -0.5080  0.2517  0.7083
16607TIP3    H171312   3.263   2.280   3.925 -0.2298  0.3338  1.2823
16607TIP3    H271313   3.171   2.164   3.890  0.7931  0.1890 -1.0868
16608TIP3   OH271314   0.294   4.105   6.568 -0.3563  0.4400 -0.2980
16608TIP3    H171315   0.213   4.132   6.611 -0.7696  1.1821 -1.4965
16608TIP3    H271316   0.359   4.104   6.639 -1.0005  1.6614  0.3529
16609TIP3   OH271317   4.254   1.888   2.008  0.3827 -0.5581 -0.0047
16609TIP3    H171318   4.306   1.839   1.944  1.7088 -0.7486  1.1635
16609TIP3    H271319   4.237   1.972   1.964 -0.3089 -1.3326 -1.2889
16610TIP3   OH271320   5.862   3.549   0.570  0.2353  0.1116 -0.0891
16610TIP3    H171321   5.935   3.567   0.510 -0.5569  0.1537 -1.0524
16610TIP3    H271322   5.881   3.604   0.646  0.9328  0.5316 -0.5492
16611TIP3   OH271323   0.711   6.313   6.753 -0.2076 -0.8008 -0.1526
16611TIP3    H171324   0.701   6.398   6.797  1.2893 -1.1210  0.8952
16611TIP3    H271325   0.802   6.314   6.721 -0.5703 -1.5148 -1.2615
16612TIP3   OH271326   6.207   0.780   6.398  0.1788  0.2057  0.8319
16612TIP3    H171327   6.295   0.743   6.394 -0.1691 -0.5442 -0.5028
16612TIP3    H271328   6.166   0.753   6.316 -1.8835 -0.9697  2.1684
16613TIP3   OH271329   4.654   6.105   1.940  0.1172  0.4666  0.2136
16613TIP3    H171330   4.721   6.155   1.894  1.2091 -0.1754  1.0726
16613TIP3    H271331   4.672   6.014   1.916 -1.4915  0.3896 -0.8764
16614TIP3   OH271332   6.166   1.485  12.779 -0.1287  0.2057  0.3129
16614TIP3    H171333   6.148   1.396  12.811 -0.2394  0.3162  0.5517
16614TIP3    H271334   6.248   1.476  12.731 -0.5435 -0.1907 -0.3392
16615TIP3   OH271335   5.832   2.029  12.694 -0.4071  0.0442 -0.1527
16615TIP3    H171336   5.879   2.087  12.634 -1.4637 -0.5158 -1.5710
16615TIP3    H271337   5.774   1.978  12.638 -2.7448  0.7372  1.4891
16616TIP3   OH271338   4.341   0.518  14.415 -0.1375  0.2984 -0.6332
16616TIP3    H171339   4.311   0.608  14.402  0.7360  0.7965  0.5872
16616TIP3    H271340   4.383   0.519  14.501 -1.6790 -1.7001  0.2232
16617TIP3   OH271341   6.514   3.963  13.804 -0.1820 -0.0455  0.4663
16617TIP3    H171342   6.466   3.898  13.856  0.1189 -0.4525  0.2420
16617TIP3    H271343   6.455   3.983  13.732  0.5327 -1.6175 -0.6058
16618TIP3   OH271344   3.860   4.942  17.272  0.2278 -0.1932  0.1408
16618TIP3    H171345   3.863   4.932  17.176  0.2445  1.8687 -0.1124
16618TIP3    H271346   3.803   4.871  17.301 -1.4490  0.3284 -1.6231
16619TIP3   OH271347   1.225   2.581  15.143 -0.0155 -0.5231 -0.7534
16619TIP3    H171348   1.251   2.500  15.099  1.3179 -0.2298 -0.5607
16619TIP3    H271349   1.203   2.641  15.072  0.4585 -0.5879 -0.9570
16620TIP3   OH271350   0.572   4.495   0.528  0.4865 -0.0584  0.0200
16620TIP3    H171351   0.561   4.487   0.622 -1.7224  0.1058 -0.1618
16620TIP3    H271352   0.514   4.428   0.491  0.6588  0.4340 -1.2089
16621TIP3   OH271353   4.304   6.363   6.444 -0.7722  0.3191 -0.1602
16621TIP3    H171354   4.377   6.308   6.472 -1.4469  0.2277  1.5121
16621TIP3    H271355   4.327   6.451   6.475 -0.4163  0.7071 -1.4762
16622TIP3   OH271356   2.157   5.621   1.244  0.4269  0.1318  0.6815
16622TIP3    H171357   2.132   5.615   1.336  0.1246  0.0480  0.5943
16622TIP3    H271358   2.093   5.567   1.198 -0.7508  1.8667  0.1728
16623TIP3   OH271359   5.430   4.630   0.648  0.1979 -0.0895  0.7168
16623TIP3    H171360   5.394   4.543   0.665 -0.7139  0.5153  1.9769
16623TIP3    H271361   5.354   4.685   0.630  0.7520  0.5092  0.1158
16624TIP3   OH271362   0.216   1.056  16.511 -0.2208 -0.1594  0.2437
16624TIP3    H171363   0.283   1.119  16.539 -0.4819  0.4784 -0.5227
16624TIP3    H271364   0.252   0.970  16.534  0.6928  0.1990  0.1861
16625TIP3   OH271365   0.902   5.534   5.948 -0.0045  0.3574 -0.4834
16625TIP3    H171366   0.987   5.547   5.905  1.6147  0.7574  2.5728
16625TIP3    H271367   0.882   5.442   5.932  0.8001  0.3502 -1.5997
16626TIP3   OH271368   2.230   0.512  15.229 -0.3805  0.4481 -0.2835
16626TIP3    H171369   2.146   0.502  15.275 -0.4214  1.1590 -0.1909
16626TIP3    H271370   2.232   0.604  15.203 -0.0552  0.2092 -1.1370
16627TIP3   OH271371   3.820   5.496   2.671  0.6313  0.4253 -0.2303
16627TIP3    H171372   3.736   5.508   2.716 -0.7593 -0.3794 -2.4254
16627TIP3    H271373   3.876   5.565   2.707 -0.7694  0.6710  1.6852
16628TIP3   OH271374   1.014   4.054   1.632  0.2116 -0.3369 -0.7166
16628TIP3    H171375   1.053   4.141   1.629  1.4791 -0.8535 -0.1531
16628TIP3    H271376   1.086   3.995   1.610 -0.6436 -1.2447 -1.1646
16629TIP3   OH271377   0.384   6.392  15.513 -0.3571 -0.4862 -0.1180
16629TIP3    H171378   0.402   6.469  15.459  2.7271 -0.8216  0.2773
16629TIP3    H271379   0.368   6.322  15.449 -0.7947 -0.0559 -0.4960
16630TIP3   OH271380   1.531   5.606  15.981  0.0002 -0.5600 -0.4236
16630TIP3    H171381   1.529   5.684  15.926  4.2419 -0.5422 -0.9279
16630TIP3    H271382   1.525   5.533  15.919 -1.9185 -0.6714 -0.1509
16631TIP3   OH271383   1.796   5.524   0.824 -0.0460  0.0536 -0.0494
16631TIP3    H171384   1.826   5.610   0.794 -1.3379  0.0914 -1.3256
16631TIP3    H271385   1.729   5.499   0.761  0.7757 -2.2161 -0.1084
16632TIP3   OH271386   6.006   4.829   4.460  0.2988 -0.1761  0.2972
16632TIP3    H171387   5.980   4.915   4.494  0.7586  0.4907 -0.9720
16632TIP3    H271388   6.058   4.790   4.531  0.9261  1.0258  0.5212
16633TIP3   OH271389   3.540   2.501   4.600  0.2340  0.0906  0.4782
16633TIP3    H171390   3.627   2.464   4.586 -0.5999 -1.7954  0.0023
16633TIP3    H271391   3.548   2.552   4.681  1.6703 -0.3705  0.6525
16634TIP3   OH271392   3.534   5.291   5.668  0.2092  0.1495  0.0061
16634TIP3    H171393   3.594   5.218   5.685 -0.5804 -0.6542 -0.6306
16634TIP3    H271394   3.586   5.352   5.615  1.2395  0.6167  1.4663
16635TIP3   OH271395   5.770   1.309  14.638 -0.0295  0.2306 -0.2333
16635TIP3    H171396   5.793   1.399  14.662 -0.6095  0.5684 -0.9207
16635TIP3    H271397   5.735   1.272  14.719  0.1508  0.6401  0.0405
16636TIP3   OH271398   5.492   0.493   2.429 -0.1557 -0.3726 -0.0835
16636TIP3    H171399   5.521   0.518   2.516 -0.0980 -3.4109  0.8836
16636TIP3    H271400   5.574   0.481   2.379 -0.1931  1.5390 -0.6745
16637TIP3   OH271401   2.280   1.073  12.181 -0.3793 -0.4881 -0.3615
16637TIP3    H171402   2.198   1.113  12.152  0.6271  0.7553 -1.6672
16637TIP3    H271403   2.284   0.990  12.132 -0.7315 -0.4213 -0.5080
16638TIP3   OH271404   6.122   3.866   4.021 -0.4662 -0.4626  0.2866
16638TIP3    H171405   6.076   3.947   3.998 -0.4649 -0.8465 -1.2247
16638TIP3    H271406   6.052   3.805   4.047 -0.6539 -0.5091 -0.3095
16639TIP3   OH271407   1.952   2.982   0.577 -0.5561  0.1516 -0.0213
16639TIP3    H171408   1.890   3.050   0.604 -0.1397  0.3303  0.5106
16639TIP3    H271409   2.033   3.029   0.558 -0.7079 -0.0271 -1.1858
16640TIP3   OH271410   1.718   0.110  14.857  0.2091  0.3714  0.0900
16640TIP3    H171411   1.687   0.198  14.838  0.6125  0.6979  0.8966
16640TIP3    H271412   1.813   0.120  14.866  0.7576 -0.7148 -3.0339
16641TIP3   OH271413   2.697   1.328  17.009 -0.0040  0.2932  0.5931
16641TIP3    H171414   2.733   1.381  17.080  2.0843 -1.4504  0.9658
16641TIP3    H271415   2.609   1.304  17.039  1.0013 -0.8443  2.9325
16642TIP3   OH271416   1.406   2.264  11.664 -0.0706  0.3628  0.4872
16642TIP3    H171417   1.426   2.177  11.697 -0.0906 -0.1458 -0.7923
16642TIP3    H271418   1.481   2.287  11.608 -0.6063  0.6569 -0.1257
16643TIP3   OH271419   6.041   6.207   1.491 -0.2682  0.5045  0.3655
16643TIP3    H171420   6.026   6.271   1.560  1.0575  0.8508  0.3546
16643TIP3    H271421   5.962   6.212   1.436 -2.3376 -1.2714  2.9367
16644TIP3   OH271422   6.641   5.291   3.515 -0.2673 -0.3262 -0.3535
16644TIP3    H171423   6.623   5.342   3.436  0.3804 -1.4155 -1.2422
16644TIP3    H271424   6.703   5.345   3.564  0.7208 -0.4106 -1.4663
16645TIP3   OH271425   1.393   3.042   0.278  0.4576 -0.4207 -0.4577
16645TIP3    H171426   1.381   2.968   0.337 -0.0620 -0.4575 -0.5997
16645TIP3    H271427   1.309   3.089   0.280 -0.2183 -1.4131 -2.4845
16646TIP3   OH271428   4.082   1.072   4.732  0.0640  0.0342  0.2223
16646TIP3    H171429   4.098   0.978   4.722 -1.3120 -0.0298 -2.1765
16646TIP3    H271430   4.169   1.112   4.727  0.4765 -0.9712 -1.3621
16647TIP3   OH271431   3.798   4.553  13.268 -0.2919 -0.2321 -0.7373
16647TIP3    H171432   3.725   4.506  13.308  1.0832 -1.0740  0.9414
16647TIP3    H271433   3.801   4.637  13.315 -0.3959 -0.0560 -1.0445
16648TIP3   OH271434   5.803   1.541   0.375  0.2578  0.1261  0.0935
16648TIP3    H171435   5.870   1.493   0.326  0.5852  2.2613 -1.7100
16648TIP3    H271436   5.723   1.489   0.363  1.2904 -1.8900  1.3786
16649TIP3   OH271437   4.180   4.673   6.145  0.2481  0.0005 -0.1738
16649TIP3    H171438   4.264   4.715   6.124  0.5462 -0.2487  0.5110
16649TIP3    H271439   4.170   4.685   6.239  0.3103 -1.4233  0.0281
16650TIP3   OH271440   3.111   0.739   0.452  0.1095 -0.1169  0.1615
16650TIP3    H171441   3.121   0.656   0.404  0.1367 -0.0495  0.0506
16650TIP3    H271442   3.043   0.787   0.404 -0.5916 -0.4741  0.7797
16651TIP3   OH271443   5.639   5.182   6.529  0.7004  0.1230 -0.5029
16651TIP3    H171444   5.629   5.150   6.619 -1.2095  0.6080 -0.4937
16651TIP3    H271445   5.734   5.190   6.517  1.0473 -1.2358  0.9922
16652TIP3   OH271446   6.399   6.096  14.743 -0.2184  0.0065  0.2265
16652TIP3    H171447   6.454   6.023  14.716  0.8457  1.1237 -0.8099
16652TIP3    H271448   6.456   6.173  14.734 -1.9033  1.2077 -0.7340
16653TIP3   OH271449   1.457   3.967   4.448  0.4788  0.0967  0.1504
16653TIP3    H171450   1.491   3.990   4.361 -1.1285 -2.0974 -1.1603
16653TIP3    H271451   1.395   4.037   4.468 -2.2561 -1.3331 -2.4791
16654TIP3   OH271452   3.019   2.734  11.055 -0.4202 -0.6913  0.0014
16654TIP3    H171453   2.934   2.753  11.097  0.1105 -1.2215  1.3904
16654TIP3    H271454   2.999   2.669  10.989 -1.7703  2.2165 -2.7208
16655TIP3   OH271455   3.218   2.693  15.833 -0.1118  0.0073  0.7753
16655TIP3    H171456   3.300   2.739  15.819 -0.7829  0.8588 -0.5956
16655TIP3    H271457   3.159   2.758  15.869 -0.8892  0.1108 -0.5991
16656TIP3   OH271458   2.559   5.632   1.327 -0.5179  0.0547  0.1204
16656TIP3    H171459   2.563   5.686   1.406  1.1435  1.0205 -0.5824
16656TIP3    H271460   2.548   5.542   1.360  0.1647  0.4407  1.4541
16657TIP3   OH271461   3.887   1.101   4.068 -0.7540  1.0003 -0.1516
16657TIP3    H171462   3.825   1.105   3.995 -2.2332 -1.4804  0.8291
16657TIP3    H271463   3.917   1.010   4.069 -1.3767  0.7311  2.7167
16658TIP3   OH271464   0.949   1.469  16.763 -0.0292  0.3125 -0.2129
16658TIP3    H171465   0.946   1.380  16.800  0.1498  0.0947 -0.7146
16658TIP3    H271466   0.893   1.465  16.686  0.3780  0.4986 -0.5228
16659TIP3   OH271467   1.762   3.215   1.153 -0.1269  0.2674 -0.4360
16659TIP3    H171468   1.701   3.214   1.227  0.7327 -1.1216  0.2805
16659TIP3    H271469   1.758   3.305   1.120  1.0451  1.5575  2.6133
16660TIP3   OH271470   5.953   5.924   1.489 -0.0128  0.3004  0.4024
16660TIP3    H171471   5.904   5.991   1.537  3.3042  2.9926  0.3730
16660TIP3    H271472   5.989   5.970   1.413  2.5296 -1.4363  0.4223
16661TIP3   OH271473   2.777   5.451  13.506  0.5762  0.5494 -0.1329
16661TIP3    H171474   2.827   5.529  13.529  0.2291  0.7251  0.0296
16661TIP3    H271475   2.694   5.484  13.471 -0.3838  0.2525  1.7585
16662TIP3   OH271476   6.106   5.932  17.447  0.1611  0.3319  0.6134
16662TIP3    H171477   6.015   5.903  17.439  0.3101 -1.1247  3.0990
16662TIP3    H271478   6.153   5.882  17.381 -0.6276 -0.0358  0.3161
16663TIP3   OH271479   1.543   4.810   1.018  0.3185 -0.7015 -0.2140
16663TIP3    H171480   1.552   4.727   1.065  0.0713 -1.4741 -1.4709
16663TIP3    H271481   1.613   4.808   0.953  0.8568  0.4886  0.3125
16664TIP3   OH271482   2.030   6.717   1.599  0.0092  0.6185  0.4218
16664TIP3    H171483   2.095   6.775   1.560  0.7976 -1.7215 -2.1438
16664TIP3    H271484   2.081   6.656   1.652 -0.0512 -0.9000 -1.1701
16665TIP3   OH271485   6.442   3.768   1.278 -0.2302  0.0714  0.4175
16665TIP3    H171486   6.498   3.725   1.214 -0.3248 -0.7782  0.8905
16665TIP3    H271487   6.365   3.794   1.228  0.9122  2.0324 -0.4357
16666TIP3   OH271488   1.488   5.538   6.889 -0.2777 -0.4717 -0.0309
16666TIP3    H171489   1.453   5.596   6.821  0.1597  0.2868  0.3654
16666TIP3    H271490   1.412   5.492   6.923 -0.4904 -0.9243 -1.0819
16667TIP3   OH271491   1.337   2.485  16.112 -0.2155 -0.3597  0.1553
16667TIP3    H171492   1.376   2.399  16.097  0.5457 -0.0996  0.5767
16667TIP3    H271493   1.318   2.486  16.206  1.3655  0.5623  0.4872
16668TIP3   OH271494   2.285   2.346  13.333  0.2529 -0.2571 -0.1438
16668TIP3    H171495   2.202   2.371  13.374  0.0846  0.7438 -1.0488
16668TIP3    H271496   2.270   2.357  13.239  0.4805 -2.9626 -0.5826
16669TIP3   OH271497   0.746   5.203  16.745 -0.4138 -0.1241  0.6443
16669TIP3    H171498   0.726   5.110  16.731 -0.0808  0.0802 -1.3633
16669TIP3    H271499   0.745   5.242  16.658  2.6732  1.1130  1.0122
16670TIP3   OH271500   5.312   2.145  13.560  0.0419  0.0260  0.1351
16670TIP3    H171501   5.310   2.183  13.472 -0.1362 -0.4277 -0.0612
16670TIP3    H271502   5.402   2.114  13.571 -0.2960 -1.2483 -0.4756
16671TIP3   OH271503   0.251   0.561   3.821 -0.2291 -0.6359  0.3629
16671TIP3    H171504   0.323   0.520   3.868  0.5482  0.6151  0.3152
16671TIP3    H271505   0.250   0.651   3.853  1.1978  0.6823 -2.8654
16672TIP3   OH271506   5.103   6.385   3.322 -0.2194  0.3249 -0.1687
16672TIP3    H171507   5.015   6.418   3.338  0.3421  1.5792  0.3891
16672TIP3    H271508   5.141   6.375   3.409  1.0491  2.2211 -0.4634
16673TIP3   OH271509   4.785   1.115   1.070  0.3025 -0.1153 -0.0982
16673TIP3    H171510   4.771   1.094   1.162  0.4746 -0.1375 -0.0763
16673TIP3    H271511   4.833   1.198   1.072  0.4252 -0.1857 -0.1662
16674TIP3   OH271512   6.446   0.280   1.226  0.0471  0.0990  0.0113
16674TIP3    H171513   6.537   0.293   1.251 -0.0381  2.9235 -0.8732
16674TIP3    H271514   6.448   0.208   1.162  1.7776  0.6882 -0.6346
16675TIP3   OH271515   2.265   3.483   5.824  0.3465 -0.1585 -0.0270
16675TIP3    H171516   2.322   3.556   5.849 -0.6577  0.0735  1.7907
16675TIP3    H271517   2.300   3.408   5.871 -1.5572  0.2713  2.2394
16676TIP3   OH271518   6.188   5.270   4.375  0.0072 -0.2900 -0.1248
16676TIP3    H171519   6.190   5.237   4.285 -0.7718  0.7802 -0.5623
16676TIP3    H271520   6.208   5.194   4.429 -1.8103 -1.5165 -1.0740
16677TIP3   OH271521   0.712   3.699  14.887 -0.1148 -0.3327 -0.3843
16677TIP3    H171522   0.749   3.755  14.956  1.2244 -1.1176 -0.4277
16677TIP3    H271523   0.729   3.747  14.806 -1.6645  0.5777 -0.2100
16678TIP3   OH271524   5.735   4.646  14.565 -0.0401  0.3247  0.4618
16678TIP3    H171525   5.718   4.555  14.590  0.6187 -0.4083 -1.5049
16678TIP3    H271526   5.803   4.676  14.626  1.9170 -1.5407 -0.6473
16679TIP3   OH271527   4.934   5.944   6.025  0.9461  0.2136  0.1850
16679TIP3    H171528   4.926   5.966   6.118 -1.4419  1.6952 -0.2923
16679TIP3    H271529   4.912   5.851   6.021  1.6921 -0.0277  1.1444
16680TIP3   OH271530   0.224   2.048  17.445  0.0198  0.8366 -0.0968
16680TIP3    H171531   0.268   2.072  17.364  0.0545  0.7228 -0.1125
16680TIP3    H271532   0.265   1.966  17.472  0.4713  1.2187  0.3945
16681TIP3   OH271533   0.622   1.491   1.785 -0.5098  0.3172  0.1913
16681TIP3    H171534   0.571   1.564   1.820  0.1602  1.1959 -0.6250
16681TIP3    H271535   0.709   1.501   1.824 -0.4193 -0.0679  0.0959
16682TIP3   OH271536   0.470   1.732   3.137  0.9459 -0.7000 -0.6367
16682TIP3    H171537   0.466   1.637   3.147  0.9527 -0.7245 -0.8631
16682TIP3    H271538   0.527   1.761   3.209 -0.5711 -0.6654  0.6174
16683TIP3   OH271539   4.100   5.596  13.636  0.0844 -0.0563 -0.3405
16683TIP3    H171540   4.101   5.675  13.689  0.5567 -0.7183  0.6662
16683TIP3    H271541   4.039   5.537  13.682 -1.8991  0.4171 -2.1684
16684TIP3   OH271542   0.980   5.292  12.431 -0.2989 -0.1005 -0.2130
16684TIP3    H171543   0.983   5.201  12.401 -0.4777 -0.2670  0.2635
16684TIP3    H271544   0.934   5.339  12.361  1.1425 -0.0822 -1.1922
16685TIP3   OH271545   1.301   6.525   5.696  0.0850 -0.4605 -0.5668
16685TIP3    H171546   1.212   6.544   5.667 -0.2340  0.9678  1.1344
16685TIP3    H271547   1.353   6.600   5.664 -0.0680  0.5736  1.4350
16686TIP3   OH271548   5.371   3.596  13.182  0.3221 -0.1659  0.2101
16686TIP3    H171549   5.416   3.538  13.244  0.7705  0.1378  0.1677
16686TIP3    H271550   5.409   3.575  13.097  1.6045  1.2621  0.3980
16687TIP3   OH271551   3.502   3.191  11.675 -0.3533  0.6497  0.2317
16687TIP3    H171552   3.478   3.099  11.666 -1.3454  0.9728 -0.6073
16687TIP3    H271553   3.590   3.189  11.713 -0.5198 -0.6293  0.5888
16688TIP3   OH271554   3.448   1.066  16.636  0.2617 -0.0202 -0.4525
16688TIP3    H171555   3.541   1.061  16.618  0.5991  2.7897  0.0297
16688TIP3    H271556   3.420   1.148  16.596 -1.5692  0.1709  1.0574
16689TIP3   OH271557   6.522   6.188  14.158 -0.3898  0.1253  0.0142
16689TIP3    H171558   6.472   6.206  14.237 -3.3542 -0.3177 -1.5847
16689TIP3    H271559   6.463   6.212  14.086  2.0169  0.2439 -2.0941
16690TIP3   OH271560   4.335   0.763  14.173 -0.3244  0.3260 -0.4593
16690TIP3    H171561   4.256   0.708  14.167 -0.0296 -0.0820 -0.6480
16690TIP3    H271562   4.305   0.843  14.218  0.1674 -1.7310  4.0455
16691TIP3   OH271563   5.115   4.177  16.132 -0.3436  0.6973  0.0382
16691TIP3    H171564   5.189   4.129  16.095 -0.4872  0.9603 -0.6198
16691TIP3    H271565   5.130   4.268  16.105 -1.5976  0.5571 -1.3107
16692TIP3   OH271566   2.918   6.369   1.909 -0.6092  0.4675  0.2779
16692TIP3    H171567   2.989   6.409   1.859 -0.6143 -0.5178 -0.5344
16692TIP3    H271568   2.848   6.356   1.845 -0.7934 -0.3724  0.6412
16693TIP3   OH271569   2.921   6.243   0.375 -0.2497 -0.2265 -0.2510
16693TIP3    H171570   2.880   6.224   0.459  0.3595 -1.4679 -0.2168
16693TIP3    H271571   2.954   6.158   0.345  1.8859  0.6361 -0.4845
16694TIP3   OH271572   2.844   4.367  17.370 -0.5942  0.0108 -0.3390
16694TIP3    H171573   2.809   4.281  17.393 -3.0106  0.3872 -2.0995
16694TIP3    H271574   2.875   4.404  17.452  1.1452 -2.7379  0.3786
16695TIP3   OH271575   6.635   5.235   0.098  0.1162 -0.3089 -0.1281
16695TIP3    H171576   6.561   5.198   0.145  1.5486 -2.0428  0.8637
16695TIP3    H271577   6.710   5.222   0.156  1.6085 -0.6915 -2.0373
16696TIP3   OH271578   3.257   5.847   0.682  0.6237  0.3973  0.3038
16696TIP3    H171579   3.284   5.895   0.761  1.4129 -0.5161  0.6082
16696TIP3    H271580   3.327   5.865   0.619  1.4696 -1.1430  0.7547
16697TIP3   OH271581   5.563   1.569   1.173 -0.4746  0.0632 -0.7661
16697TIP3    H171582   5.514   1.642   1.134 -0.9898  0.7171  1.0258
16697TIP3    H271583   5.636   1.611   1.218 -0.2901 -0.6171 -0.4330
16698TIP3   OH271584   0.380   4.949  16.375 -0.4962  0.1768  0.1162
16698TIP3    H171585   0.374   4.866  16.421 -0.3929  0.5106  0.7333
16698TIP3    H271586   0.335   4.934  16.292 -0.1736 -0.5956  0.0767
16699TIP3   OH271587   0.984   3.285   2.124 -0.1165 -0.1832  0.1007
16699TIP3    H171588   1.065   3.236   2.136 -0.4116 -0.6449  0.2342
16699TIP3    H271589   0.997   3.365   2.176 -0.0662 -0.6286  0.7935
16700TIP3   OH271590   2.442   6.356  11.644  0.0863 -0.5202 -0.6941
16700TIP3    H171591   2.518   6.297  11.641  0.5251  0.0612 -1.1046
16700TIP3    H271592   2.425   6.377  11.552 -0.1640 -0.1285 -0.5572
16701TIP3   OH271593   1.021   5.647   1.505 -0.0138  0.6482 -0.0608
16701TIP3    H171594   0.950   5.711   1.517  0.0228  1.1609 -2.2650
16701TIP3    H271595   0.976   5.566   1.481  0.0731  0.4548  0.4067
16702TIP3   OH271596   0.666   1.445  12.866 -0.2413 -0.0011  0.3163
16702TIP3    H171597   0.706   1.358  12.879 -0.7958 -0.1579  1.0076
16702TIP3    H271598   0.727   1.505  12.909 -0.9759 -0.2933  1.8086
16703TIP3   OH271599   4.368   3.434  17.350  0.1279 -0.1175  0.0356
16703TIP3    H171600   4.396   3.525  17.339 -0.0098 -0.0035  0.5954
16703TIP3    H271601   4.290   3.426  17.295  1.0606 -0.3622 -1.3253
16704TIP3   OH271602   2.205   0.462   3.131 -0.0282 -0.3370  0.8053
16704TIP3    H171603   2.156   0.490   3.208  1.3929 -0.4059  1.7620
16704TIP3    H271604   2.239   0.543   3.093  0.4651 -0.4113  1.0815
16705TIP3   OH271605   2.191   5.784   2.919  0.5154  0.7830  0.2900
16705TIP3    H171606   2.128   5.814   2.854  0.6603  1.6884  0.5428
16705TIP3    H271607   2.265   5.752   2.869 -0.8042 -1.9945 -0.0776
16706TIP3   OH271608   2.228   3.324  16.604  0.6241 -0.7411  0.4558
16706TIP3    H171609   2.215   3.418  16.615 -2.4356 -1.0438  0.4079
16706TIP3    H271610   2.240   3.291  16.693 -2.3577 -0.6709  0.9954
16707TIP3   OH271611   5.939   4.969   4.683  0.1906 -0.5103 -0.3752
16707TIP3    H171612   5.903   4.881   4.697  0.1942 -0.5005 -0.3000
16707TIP3    H271613   5.918   5.016   4.764  0.3778 -0.5060 -0.3291
16708TIP3   OH271614   5.688   1.519  15.028 -0.7148  0.1302 -0.2995
16708TIP3    H171615   5.763   1.516  15.087 -0.8360 -0.0829 -0.1549
16708TIP3    H271616   5.642   1.600  15.051 -0.4709  0.3157 -0.4626
16709TIP3   OH271617   1.668   2.574   0.082 -0.4573 -0.2054  0.5253
16709TIP3    H171618   1.670   2.579   0.178 -0.2228 -0.8322  0.5606
16709TIP3    H271619   1.758   2.588   0.055 -0.8369  2.0522  0.2523
16710TIP3   OH271620   1.482   5.766   4.644 -0.0053 -0.0540 -0.1791
16710TIP3    H171621   1.535   5.837   4.608  0.2721 -0.0064  0.3224
16710TIP3    H271622   1.543   5.714   4.695 -0.1107 -0.9219 -0.9142
16711TIP3   OH271623   5.974   5.549  12.238  0.5245  0.1222  0.4552
16711TIP3    H171624   6.007   5.476  12.186 -0.6640  1.4953 -2.4065
16711TIP3    H271625   5.990   5.626  12.184 -1.9304  1.4966  1.5630
16712TIP3   OH271626   0.386   2.922  11.704  0.8296 -0.0137 -0.3751
16712TIP3    H171627   0.355   2.839  11.669  0.1695 -0.1446  0.4973
16712TIP3    H271628   0.443   2.957  11.636 -0.0645 -0.4771 -1.3863
16713TIP3   OH271629   0.511   0.884  12.847 -0.5432 -0.3367  0.6544
16713TIP3    H171630   0.483   0.797  12.818 -1.0749  0.0581 -0.0525
16713TIP3    H271631   0.439   0.942  12.821  0.1174  0.4196  0.4775
16714TIP3   OH271632   0.304   3.142   3.745  0.1662 -0.3400  0.2696
16714TIP3    H171633   0.241   3.214   3.749  0.4581  0.0673 -1.4548
16714TIP3    H271634   0.389   3.186   3.741  0.3376 -0.7489 -0.9319
16715TIP3   OH271635   0.632   1.017   6.084  0.1895  0.0699 -0.3221
16715TIP3    H171636   0.545   1.048   6.110 -0.4966 -0.8261 -1.4655
16715TIP3    H271637   0.682   1.096   6.069 -0.6246  0.6051 -0.2922
16716TIP3   OH271638   3.753   0.453   1.588  0.4512 -0.1084 -0.2466
16716TIP3    H171639   3.714   0.414   1.509 -0.6831  0.1194  0.1814
16716TIP3    H271640   3.730   0.393   1.658 -0.8963  1.0388  0.3439
16717TIP3   OH271641   1.067   1.419  16.402 -0.3277 -0.1577  0.0914
16717TIP3    H171642   1.137   1.383  16.348  0.7527  0.9583  0.6954
16717TIP3    H271643   1.056   1.356  16.473  0.3680 -0.1315  0.2259
16718TIP3   OH271644   2.319   2.595  13.681  0.3271  0.3851  0.2526
16718TIP3    H171645   2.337   2.685  13.711  1.1623 -0.2595  1.7977
16718TIP3    H271646   2.269   2.556  13.753 -0.1961 -0.3474 -0.4900
16719TIP3   OH271647   4.264   6.539   4.909  0.0220 -0.0361  0.4079
16719TIP3    H171648   4.283   6.532   4.815  0.6420 -0.2068  0.5388
16719TIP3    H271649   4.170   6.528   4.915 -0.0453  0.1391 -0.2130
16720TIP3   OH271650   2.264   5.099   1.785  0.1875  0.5488 -0.7231
16720TIP3    H171651   2.325   5.149   1.840  0.3293  0.8311 -1.1374
16720TIP3    H271652   2.180   5.108   1.829  0.0908  1.6492 -1.1110
16721TIP3   OH271653   3.331   1.550  12.971 -0.6929 -1.0253  0.4611
16721TIP3    H171654   3.284   1.606  12.908 -0.0621 -0.4872  0.4641
16721TIP3    H271655   3.309   1.461  12.943  0.4525 -0.8291 -1.2294
16722TIP3   OH271656   2.768   6.060   5.722  0.3533 -0.1835  0.0452
16722TIP3    H171657   2.862   6.043   5.713  0.9466  2.3866  0.6410
16722TIP3    H271658   2.758   6.096   5.810 -0.7686  1.8404 -0.8407
16723TIP3   OH271659   2.751   2.594  15.689 -0.0927  0.0168 -0.7639
16723TIP3    H171660   2.673   2.541  15.672 -1.1183  1.3534 -0.4194
16723TIP3    H271661   2.812   2.569  15.620 -0.6888 -1.2757 -0.8691
16724TIP3   OH271662   6.636   2.058   5.263  0.5258  0.2284 -0.2599
16724TIP3    H171663   6.659   2.122   5.195 -0.6816 -0.7449 -1.6527
16724TIP3    H271664   6.677   1.976   5.234 -1.1400 -0.5248 -0.5891
16725TIP3   OH271665   4.888   5.566  15.849 -0.5644 -0.4218  0.0699
16725TIP3    H171666   4.910   5.529  15.764 -1.2703  0.7449 -0.6596
16725TIP3    H271667   4.864   5.657  15.830  0.7258  0.3172  1.7203
16726TIP3   OH271668   5.755   4.123  14.694  0.5842 -0.1149  0.3707
16726TIP3    H171669   5.800   4.069  14.629  1.6654  0.8785  0.2458
16726TIP3    H271670   5.662   4.105  14.680  0.5716  1.7343 -3.1046
16727TIP3   OH271671   3.883   4.769  16.613  0.2542 -0.3205  0.5469
16727TIP3    H171672   3.947   4.754  16.544  1.3652  1.7827  1.0198
16727TIP3    H271673   3.915   4.717  16.687  0.4291 -0.6432  0.2507
16728TIP3   OH271674   4.702   0.319  13.436  0.2432  0.6045 -0.3182
16728TIP3    H171675   4.719   0.321  13.342 -1.0735 -0.8341 -0.6250
16728TIP3    H271676   4.786   0.345  13.476  0.9252  0.8978 -1.8545
16729TIP3   OH271677   2.119   6.614  12.534 -0.2154  0.3376  0.0657
16729TIP3    H171678   2.104   6.579  12.446  0.9182 -0.9290  0.3483
16729TIP3    H271679   2.208   6.586  12.556 -1.5957 -2.2829  2.9058
16730TIP3   OH271680   0.083   2.266   5.183  0.3766  0.0528 -0.4512
16730TIP3    H171681   0.144   2.207   5.228 -0.1782 -0.1768  0.0137
16730TIP3    H271682   0.128   2.291   5.102  0.7810 -0.6997 -0.4649
16731TIP3   OH271683   0.875   0.228   2.077 -0.7531  0.1811 -0.1124
16731TIP3    H171684   0.889   0.245   2.170  0.3891  0.6803 -0.3589
16731TIP3    H271685   0.799   0.282   2.055 -0.5779  0.6365  0.3659
16732TIP3   OH271686   5.483   2.766   6.196 -0.3758 -0.1283  0.5926
16732TIP3    H171687   5.515   2.693   6.249 -1.5022 -0.3733  0.9659
16732TIP3    H271688   5.389   2.770   6.214 -0.6696  0.2335 -0.8530
16733TIP3   OH271689   2.218   1.434  15.899 -0.5907  0.3582  0.7928
16733TIP3    H171690   2.174   1.440  15.984 -1.0733  1.5072  0.4769
16733TIP3    H271691   2.169   1.494  15.842 -0.1998 -0.2992 -0.2666
16734TIP3   OH271692   3.983   6.748   3.663 -0.4726  0.5426  0.1907
16734TIP3    H171693   4.039   6.765   3.587  0.1412  1.4745  0.8310
16734TIP3    H271694   3.978   6.832   3.708  0.8951 -0.4187  2.3239
16735TIP3   OH271695   4.156   2.909  17.234  0.4522  0.2363  0.4184
16735TIP3    H171696   4.209   2.983  17.265  0.2435  0.9877 -0.9236
16735TIP3    H271697   4.214   2.833  17.241  1.0060  0.6952  0.8949
16736TIP3   OH271698   0.170   0.798  10.591 -0.0578 -0.2036  0.0454
16736TIP3    H171699   0.100   0.809  10.526  1.0889 -0.8970 -1.3812
16736TIP3    H271700   0.144   0.853  10.664 -1.8070  0.0023 -0.6796
16737TIP3   OH271701   2.652   1.034   5.847 -0.3726  0.1725 -0.0920
16737TIP3    H171702   2.684   1.029   5.937  0.1799  0.6831 -0.2442
16737TIP3    H271703   2.670   1.125   5.821 -2.6743  0.7138  0.0546
16738TIP3   OH271704   4.568   4.815  11.900 -0.3905  0.1564  0.2506
16738TIP3    H171705   4.545   4.777  11.985  0.0156  0.0805  0.3292
16738TIP3    H271706   4.510   4.890  11.891  0.8104  1.3006  1.4546
16739TIP3   OH271707   2.334   6.415  13.914  0.6233  0.1290  0.0704
16739TIP3    H171708   2.364   6.350  13.850 -1.9231 -0.8185 -0.2882
16739TIP3    H271709   2.330   6.497  13.865  2.0358  0.1808  0.0073
16740TIP3   OH271710   1.480   5.786   0.250  0.0037  0.3006  0.3211
16740TIP3    H171711   1.563   5.806   0.292 -0.0070 -0.0861  0.5351
16740TIP3    H271712   1.491   5.816   0.160 -0.2386  1.7975  0.7780
16741TIP3   OH271713   5.078   6.245  10.626  0.2899 -0.5833 -0.3106
16741TIP3    H171714   5.145   6.176  10.635 -0.0691 -0.8474  0.4336
16741TIP3    H271715   5.008   6.218  10.686  0.0802  0.3579 -0.1213
16742TIP3   OH271716   1.708   3.510   2.444 -0.1464 -0.4037 -0.3089
16742TIP3    H171717   1.660   3.513   2.526 -1.4673 -0.8505 -1.0485
16742TIP3    H271718   1.687   3.425   2.406  0.8288 -0.4022 -0.9044
16743TIP3   OH271719   4.826   2.359   5.698 -0.3633 -0.1305  0.3146
16743TIP3    H171720   4.880   2.282   5.678 -1.8167 -1.1081 -0.0346
16743TIP3    H271721   4.777   2.335   5.776 -0.7489  0.4923  0.2722
16744TIP3   OH271722   6.553   1.697   5.228  0.6423  0.6202 -0.0070
16744TIP3    H171723   6.612   1.772   5.231 -0.1099  1.2194  0.1956
16744TIP3    H271724   6.594   1.632   5.284  0.3899  1.5696  1.3383
16745TIP3   OH271725   4.465   1.793   1.114  0.0159  0.0672  0.7097
16745TIP3    H171726   4.470   1.852   1.039 -1.8636 -0.7968 -0.1576
16745TIP3    H271727   4.469   1.852   1.190  0.0634  1.1330 -0.0909
16746TIP3   OH271728   1.485   4.244   5.521 -0.2126  0.0053  0.1754
16746TIP3    H171729   1.490   4.182   5.593 -2.4096  0.5168  0.8574
16746TIP3    H271730   1.473   4.191   5.443 -0.7972 -0.4906  0.5938
16747TIP3   OH271731   6.347   0.686   2.167 -0.3518 -0.0611  0.0898
16747TIP3    H171732   6.389   0.628   2.230  0.0339  1.0305  0.8567
16747TIP3    H271733   6.337   0.632   2.088  1.1928 -0.7803  0.3513
16748TIP3   OH271734   4.082   6.038  15.447 -0.2269  0.1226  0.4585
16748TIP3    H171735   4.016   6.102  15.420 -0.3220 -0.0583  0.2566
16748TIP3    H271736   4.122   6.076  15.525  0.8264  1.1889 -0.5611
16749TIP3   OH271737   1.277   0.041   1.083 -0.0530  0.4067 -0.4757
16749TIP3    H171738   1.242  -0.029   1.138  1.2420 -0.4606 -0.7224
16749TIP3    H271739   1.252   0.122   1.128 -1.3370 -0.1984 -0.0476
16750TIP3   OH271740   6.338   4.391  13.086 -0.1421 -0.7082 -0.2202
16750TIP3    H171741   6.433   4.404  13.085  0.0399 -1.8277  0.6521
16750TIP3    H271742   6.326   4.297  13.079 -1.2679 -0.4950 -1.9409
16751TIP3   OH271743   5.462   4.588   2.898  0.0360  0.2147 -0.5622
16751TIP3    H171744   5.463   4.634   2.982 -0.2118  0.4539 -0.6865
16751TIP3    H271745   5.491   4.654   2.835 -2.9010  1.0826 -1.1604
16752TIP3   OH271746   3.635   4.907   2.094 -0.3240 -0.2837 -0.0684
16752TIP3    H171747   3.728   4.885   2.093 -0.6813 -2.2296 -3.0602
16752TIP3    H271748   3.595   4.840   2.149  0.0267  0.8044  1.5709
16753TIP3   OH271749   2.570   1.693   1.614 -0.0556 -0.0582 -0.0444
16753TIP3    H171750   2.527   1.712   1.697 -0.9325 -0.3179 -0.4276
16753TIP3    H271751   2.538   1.606   1.590  1.0366 -0.4543 -0.1212
16754TIP3   OH271752   2.688   5.413   0.643 -0.0630 -0.1700  0.5223
16754TIP3    H171753   2.654   5.465   0.715  1.0157  0.0445  0.8937
16754TIP3    H271754   2.753   5.355   0.683  0.0110 -0.5684 -0.1591
16755TIP3   OH271755   4.977   2.326  12.838  0.3363  0.1599 -0.4407
16755TIP3    H171756   4.960   2.420  12.829  0.3788  0.1201 -0.9241
16755TIP3    H271757   4.942   2.287  12.758 -0.9697 -0.4179  0.3716
16756TIP3   OH271758   5.806   1.808   5.448 -0.2621 -0.3176  0.0969
16756TIP3    H171759   5.769   1.896   5.442  1.0548  0.2029 -0.9291
16756TIP3    H271760   5.884   1.811   5.394  0.4472 -1.8086  0.9674
16757TIP3   OH271761   4.594   1.655  11.677 -0.6179  0.2177  0.6418
16757TIP3    H171762   4.570   1.579  11.624  1.4149  0.3893 -0.6220
16757TIP3    H271763   4.572   1.731  11.622 -1.7820  0.5583  1.5270
16758TIP3   OH271764   4.201   5.150   2.094  0.0241 -0.4657 -0.6133
16758TIP3    H171765   4.223   5.060   2.118  0.0630 -0.3265 -0.1223
16758TIP3    H271766   4.277   5.180   2.043  0.1824 -0.5834 -0.4503
16759TIP3   OH271767   6.125   1.702   4.120  0.0305  0.1459  0.2799
16759TIP3    H171768   6.087   1.620   4.153  1.3717  0.5472  3.0485
16759TIP3    H271769   6.060   1.769   4.142 -0.0832  0.1212  0.0235
16760TIP3   OH271770   4.753   5.759  12.962 -0.3518  0.1340 -0.3927
16760TIP3    H171771   4.664   5.795  12.967 -0.4458 -0.2454  1.0187
16760TIP3    H271772   4.782   5.753  13.053  0.9543 -0.1785 -0.8090
16761TIP3   OH271773   3.460   5.398   1.638 -0.2543 -0.0340  0.3679
16761TIP3    H171774   3.414   5.476   1.607 -1.2379 -0.4320  0.7903
16761TIP3    H271775   3.540   5.395   1.586  0.1216  1.6200  0.7833
16762TIP3   OH271776   4.064   2.891   6.043 -0.0655  0.6606 -0.7435
16762TIP3    H171777   4.038   2.980   6.067 -0.4620  0.1965  0.5953
16762TIP3    H271778   4.135   2.869   6.103 -0.7640 -0.3542 -0.2573
16763TIP3   OH271779   1.729   6.143   1.943 -0.0692  0.6666 -0.7186
16763TIP3    H171780   1.642   6.107   1.958  0.6718 -0.7787  0.2318
16763TIP3    H271781   1.758   6.102   1.861  0.6000 -0.6040  0.1366
16764TIP3   OH271782   0.853   0.897   3.707  0.0010 -0.2520  0.3242
16764TIP3    H171783   0.784   0.876   3.644  0.0898 -1.5007  0.6199
16764TIP3    H271784   0.816   0.873   3.792  0.0564  0.9820  0.7133
16765TIP3   OH271785   3.766   3.870   5.056 -0.4058 -0.3495 -0.2502
16765TIP3    H171786   3.795   3.793   5.008  0.3869 -0.0437 -0.2854
16765TIP3    H271787   3.680   3.846   5.091  0.9417 -2.2493  2.0236
16766TIP3   OH271788   6.203   1.669   4.794  0.6515  0.0730 -0.0835
16766TIP3    H171789   6.282   1.648   4.743  0.4548  0.4501 -0.5504
16766TIP3    H271790   6.160   1.738   4.744 -0.0789 -0.2625  0.0690
16767TIP3   OH271791   1.202   4.436  16.713 -0.3216 -0.2703 -0.9117
16767TIP3    H171792   1.111   4.432  16.684 -0.7409 -1.9631  0.4663
16767TIP3    H271793   1.228   4.345  16.723  1.0654  0.2060  0.0929
16768TIP3   OH271794   4.072   3.796  10.926  0.0734 -0.0236 -0.3566
16768TIP3    H171795   4.085   3.706  10.896  0.7909 -0.2636  0.6399
16768TIP3    H271796   3.977   3.809  10.923 -0.1007 -1.0697  0.2174
16769TIP3   OH271797   4.113   2.579  13.905  0.0701  0.0137  0.3519
16769TIP3    H171798   4.125   2.530  13.986  0.0505 -1.4144 -0.4818
16769TIP3    H271799   4.074   2.516  13.844 -0.0767  1.1034 -0.7234
16770TIP3   OH271800   5.483   1.511  16.626 -0.2346 -0.0718 -0.2747
16770TIP3    H171801   5.431   1.445  16.672 -0.6196  1.1138  1.0855
16770TIP3    H271802   5.534   1.462  16.562 -0.1107 -1.7617  1.0434
16771TIP3   OH271803   6.449   2.866  16.588 -0.5238 -0.1046  0.4297
16771TIP3    H171804   6.364   2.897  16.619 -0.3130 -0.6743  1.6242
16771TIP3    H271805   6.438   2.771  16.580 -0.2538 -0.0844 -0.2723
16772TIP3   OH271806   0.709   4.463   5.892 -0.2426 -0.3356  0.3504
16772TIP3    H171807   0.694   4.547   5.850  0.6652 -0.7239 -0.8145
16772TIP3    H271808   0.642   4.405   5.855 -0.9885 -0.1082  1.2923
16773TIP3   OH271809   3.180   3.238  11.315  0.3091  0.1667 -0.5962
16773TIP3    H171810   3.112   3.181  11.281  0.7269 -0.6245 -0.1302
16773TIP3    H271811   3.173   3.319  11.263  1.6155 -1.3331 -3.3284
16774TIP3   OH271812   4.441   2.500   5.720  0.3010  0.1402 -0.3715
16774TIP3    H171813   4.470   2.542   5.639  1.8239  0.1222  0.1437
16774TIP3    H271814   4.514   2.510   5.780 -0.1067 -1.4129  0.4420
16775TIP3   OH271815   2.848   3.440   1.907 -0.6331 -0.3755 -0.5085
16775TIP3    H171816   2.823   3.526   1.941  1.3154  0.1190 -0.1949
16775TIP3    H271817   2.885   3.459   1.821  0.7413 -0.7338 -0.0253
16776TIP3   OH271818   5.231   3.386   4.453 -0.4541  0.0648  0.4834
16776TIP3    H171819   5.152   3.413   4.408 -1.9448 -1.3758  2.0905
16776TIP3    H271820   5.277   3.330   4.390  0.1045  2.0427 -0.9821
16777TIP3   OH271821   0.796   1.211  12.938 -0.0625 -0.7115 -0.2602
16777TIP3    H171822   0.806   1.126  12.895 -1.7962 -1.3836  0.5549
16777TIP3    H271823   0.770   1.189  13.028  0.5934  0.6826  0.2924
16778TIP3   OH271824   6.044   5.185   6.265 -0.4636 -0.4224  0.2871
16778TIP3    H171825   6.037   5.095   6.231 -0.0888 -0.2778 -0.1831
16778TIP3    H271826   6.137   5.196   6.284 -0.6554 -0.4716  1.2958
16779TIP3   OH271827   4.611   0.117   5.144  0.2993  0.7142  0.0565
16779TIP3    H171828   4.552   0.187   5.117 -0.8616 -0.0969  0.4136
16779TIP3    H271829   4.562   0.037   5.128  0.7864  0.0727  1.5790
16780TIP3   OH271830   2.001   5.237  14.664  0.2420 -0.6674  0.4211
16780TIP3    H171831   2.053   5.256  14.585  0.4342 -2.0005  0.2061
16780TIP3    H271832   1.917   5.206  14.630  1.0391 -3.2853  0.6506
16781TIP3   OH271833   6.498   6.354  11.829 -0.0969 -0.3913 -0.3370
16781TIP3    H171834   6.492   6.269  11.786 -1.6839 -1.1942  1.2986
16781TIP3    H271835   6.407   6.382  11.839  0.3367  0.8882  0.3164
16782TIP3   OH271836   3.386   2.988   3.592 -0.2974 -0.3435  0.5606
16782TIP3    H171837   3.417   3.005   3.680 -0.1090  3.2185 -0.0407
16782TIP3    H271838   3.452   3.027   3.535 -1.2533 -1.0470 -1.1176
16783TIP3   OH271839   3.754   3.519  11.888  0.6721 -0.1047 -0.1318
16783TIP3    H171840   3.687   3.579  11.920  0.4592 -0.4351  0.0343
16783TIP3    H271841   3.791   3.564  11.811  0.8550  0.4685  0.2775
16784TIP3   OH271842   1.716   1.968  13.716 -0.2597  0.4516  0.1749
16784TIP3    H171843   1.804   1.997  13.736  0.1661  0.2417 -1.2870
16784TIP3    H271844   1.690   1.915  13.792  0.0549  2.1903  1.5467
16785TIP3   OH271845   4.050   3.194   4.932 -0.6723 -0.2771 -0.2832
16785TIP3    H171846   4.078   3.269   4.879 -1.5627 -0.3026 -0.8132
16785TIP3    H271847   4.041   3.123   4.870 -1.6073 -0.3421 -0.0798
16786TIP3   OH271848   4.972   2.227   4.647  0.0415 -0.2920  0.4810
16786TIP3    H171849   5.033   2.200   4.716  1.0729  0.8744  0.0743
16786TIP3    H271850   5.001   2.178   4.570 -0.7172 -1.1241  0.7111
16787TIP3   OH271851   0.850   3.090   6.067  0.5544 -0.5234 -0.0520
16787TIP3    H171852   0.826   3.138   6.146 -1.2134 -0.4109 -0.6324
16787TIP3    H271853   0.785   3.020   6.061  1.9082 -1.8041 -0.3014
16788TIP3   OH271854   5.102   5.346  14.751 -0.0435 -0.0846  0.5146
16788TIP3    H171855   5.164   5.273  14.747  0.6234  0.5274 -0.9418
16788TIP3    H271856   5.016   5.303  14.759  0.3755 -1.0169  0.1970
16789TIP3   OH271857   2.986   1.725  12.148  0.1283 -0.4432  0.2927
16789TIP3    H171858   2.933   1.777  12.087 -0.0404  0.4390  1.1602
16789TIP3    H271859   3.068   1.775  12.157  0.5151 -1.0376  0.0850
16790TIP3   OH271860   0.340   0.855   0.661  0.0070 -0.4392  1.0317
16790TIP3    H171861   0.405   0.788   0.683  0.9675 -0.9698 -2.7143
16790TIP3    H271862   0.265   0.806   0.627  0.3978  0.2299 -0.9866
16791TIP3   OH271863   1.668   1.548  15.087  0.2601 -0.2255 -0.0184
16791TIP3    H171864   1.686   1.608  15.159  2.0738 -0.1987 -0.4286
16791TIP3    H271865   1.576   1.563  15.065  0.5336  2.1101  0.1674
16792TIP3   OH271866   5.333   5.265  12.124  0.3232 -0.2807 -0.2633
16792TIP3    H171867   5.288   5.218  12.054  0.6542 -0.9450 -0.0389
16792TIP3    H271868   5.323   5.209  12.201  1.0948 -0.2029 -0.0924
16793TIP3   OH271869   5.717   2.813   6.089  0.9597 -0.0010  0.0459
16793TIP3    H171870   5.780   2.857   6.147  1.1297  0.3934 -0.4287
16793TIP3    H271871   5.632   2.827   6.132  1.1524 -0.2613  0.5231
16794TIP3   OH271872   6.769   4.664   5.038 -0.2913  0.2413  0.3697
16794TIP3    H171873   6.716   4.744   5.050  0.2479  0.3733  2.2129
16794TIP3    H271874   6.754   4.614   5.118  0.3007 -0.9817 -0.2653
16795TIP3   OH271875   1.122   0.716  17.142 -0.1706 -0.2336  0.1065
16795TIP3    H171876   1.054   0.762  17.191  0.1982  0.5238 -0.0809
16795TIP3    H271877   1.196   0.711  17.202 -0.0195 -0.0899 -0.0681
16796TIP3   OH271878   3.658   6.040   4.865 -0.4720  0.2688 -0.3961
16796TIP3    H171879   3.667   5.959   4.814  2.0694  2.3241 -3.5957
16796TIP3    H271880   3.596   6.093   4.816  1.0647  1.8240 -0.7460
16797TIP3   OH271881   6.497   6.068  11.808  0.3180  0.0912 -0.6204
16797TIP3    H171882   6.586   6.081  11.842  0.2736 -2.9412  1.0489
16797TIP3    H271883   6.499   5.981  11.769 -2.0901 -0.4400  0.2585
16798TIP3   OH271884   0.017   2.112   3.372 -0.1061 -0.3918 -0.1632
16798TIP3    H171885   0.100   2.089   3.331  0.8554  1.5611  0.5708
16798TIP3    H271886  -0.034   2.155   3.303  0.2316  0.0344 -0.1499
16799TIP3   OH271887   3.595   5.976  17.052  0.5312 -0.2742 -0.1300
16799TIP3    H171888   3.546   5.935  16.981 -1.2807 -1.4208  1.6843
16799TIP3    H271889   3.663   5.912  17.074  0.0262 -0.6766  0.2716
16800TIP3   OH271890   0.134   3.161   0.524 -0.1826 -0.2660  0.0198
16800TIP3    H171891   0.144   3.256   0.525 -2.2358  0.1027 -2.7828
16800TIP3    H271892   0.193   3.132   0.454 -0.9144 -0.8416 -0.3664
16801TIP3   OH271893   5.697   4.633  16.435 -0.5499 -0.3104 -0.0410
16801TIP3    H171894   5.615   4.673  16.408 -0.2075 -0.3439 -1.2261
16801TIP3    H271895   5.683   4.539  16.424 -0.8209 -0.4133  1.1549
16802TIP3   OH271896   0.132   2.710  16.377  0.3060 -0.1703 -0.4072
16802TIP3    H171897   0.062   2.772  16.399 -0.4082 -1.5523  1.4754
16802TIP3    H271898   0.213   2.759  16.391 -0.2531  0.6701 -0.0537
16803TIP3   OH271899   3.046   5.853  11.454 -1.0310  0.3327 -0.8295
16803TIP3    H171900   3.057   5.928  11.395  0.9383 -0.2506 -1.2618
16803TIP3    H271901   3.104   5.786  11.419 -1.3207 -0.7399  0.6525
16804TIP3   OH271902   0.138   1.232   5.794 -0.3586  0.4005  0.0743
16804TIP3    H171903   0.079   1.171   5.749  1.2309 -0.2148 -1.2629
16804TIP3    H271904   0.107   1.233   5.885 -0.6775 -2.1048  0.0521
16805TIP3   OH271905   2.159   3.291   6.347 -0.6073  0.2678 -0.1337
16805TIP3    H171906   2.131   3.260   6.261 -0.7121 -0.7619  0.2538
16805TIP3    H271907   2.078   3.313   6.392 -0.7272 -1.1985  0.4255
16806TIP3   OH271908   6.013   3.109  12.140  0.4900  0.7197  0.1334
16806TIP3    H171909   5.930   3.081  12.177  1.2385  0.8895  2.0477
16806TIP3    H271910   6.075   3.041  12.167  1.2787  1.4003  0.0718
16807TIP3   OH271911   3.849   1.800   0.432 -0.1108 -0.2686  0.3475
16807TIP3    H171912   3.938   1.773   0.409 -0.4227 -1.1636  0.1637
16807TIP3    H271913   3.855   1.824   0.525  0.0941 -1.4291  0.6588
16808TIP3   OH271914   5.236   5.263   6.346 -0.0224  0.5215 -0.7039
16808TIP3    H171915   5.174   5.249   6.417  0.9644  1.5207  0.3825
16808TIP3    H271916   5.194   5.327   6.289 -0.7983 -0.2528 -1.0253
16809TIP3   OH271917   2.943   3.619   0.737 -0.4217  0.3463  0.5705
16809TIP3    H171918   2.902   3.620   0.650  0.0755 -0.6045  0.3047
16809TIP3    H271919   2.967   3.527   0.750 -0.1851  0.5438  1.5731
16810TIP3   OH271920   3.190   0.457   3.434 -0.0406 -0.9024  0.2660
16810TIP3    H171921   3.147   0.532   3.393 -0.7614 -1.2352  0.3844
16810TIP3    H271922   3.235   0.413   3.362 -0.5029 -0.9494 -0.0004
16811TIP3   OH271923   5.606   4.011   0.253  1.0180  0.3633  0.4650
16811TIP3    H171924   5.537   4.076   0.242  0.4112 -0.1685  1.0232
16811TIP3    H271925   5.565   3.928   0.231  1.1092 -0.1191  2.0059
16812TIP3   OH271926   3.007   5.899   0.990 -0.1380  0.0683 -0.6248
16812TIP3    H171927   2.924   5.944   1.003 -0.2498 -0.2700 -0.1321
16812TIP3    H271928   3.035   5.924   0.902 -0.4654  0.6540 -0.5641
16813TIP3   OH271929   0.818   6.647  12.800 -0.6761  0.2041 -0.3708
16813TIP3    H171930   0.822   6.652  12.895  0.1865 -1.9115 -0.2401
16813TIP3    H271931   0.817   6.738  12.771  1.0398  0.9325  1.6033
16814TIP3   OH271932   1.543   6.679  16.818  0.4642  0.0515  0.2447
16814TIP3    H171933   1.502   6.739  16.880  2.1344  1.7057 -0.1343
16814TIP3    H271934   1.607   6.734  16.772  2.4250 -2.1448  0.1933
16815TIP3   OH271935   3.541   4.582   0.184 -0.6370 -0.3707  0.5727
16815TIP3    H171936   3.549   4.487   0.176  0.9547 -0.3142  1.2529
16815TIP3    H271937   3.625   4.617   0.153 -1.6397  0.9239 -0.8766
16816TIP3   OH271938   1.864   4.221   4.749  0.0550  0.0121 -0.1253
16816TIP3    H171939   1.858   4.316   4.755  0.9967  0.1433 -1.1045
16816TIP3    H271940   1.955   4.200   4.768  0.4092 -0.4785 -2.1065
16817TIP3   OH271941   1.837   4.758  17.500  0.5344 -0.0730 -0.2268
16817TIP3    H171942   1.861   4.668  17.522  1.5984  0.4446  0.8765
16817TIP3    H271943   1.786   4.788  17.576  0.1405  0.2422 -0.6104
16818TIP3   OH271944   4.926   3.999   4.224 -0.3480 -0.1876 -0.4975
16818TIP3    H171945   4.847   3.976   4.174  0.4752 -1.9654 -1.0656
16818TIP3    H271946   4.967   3.915   4.243  0.8384  0.6447  0.7641
16819TIP3   OH271947   6.258   4.181   5.675 -0.4474  0.0047 -0.3563
16819TIP3    H171948   6.223   4.236   5.605 -0.6374  0.7037  0.2673
16819TIP3    H271949   6.197   4.108   5.681 -0.1394 -0.3335 -1.2623
16820TIP3   OH271950   5.777   5.021   6.315  0.0670  0.2048 -0.1698
16820TIP3    H171951   5.779   4.972   6.397 -1.1533 -2.0477 -1.3996
16820TIP3    H271952   5.855   5.077   6.318  1.3438 -1.5363  1.4912
16821TIP3   OH271953   4.862   2.894  14.245  0.2157 -0.3004 -0.0840
16821TIP3    H171954   4.873   2.986  14.222  0.3036 -0.0652  0.8692
16821TIP3    H271955   4.952   2.859  14.245  0.5088  0.2890  2.2239
16822TIP3   OH271956   0.807   4.774   4.753 -0.5068  0.0997  0.3332
16822TIP3    H171957   0.859   4.726   4.688 -1.5529  1.7109 -1.8018
16822TIP3    H271958   0.729   4.803   4.705 -0.8948  2.1637  2.0747
16823TIP3   OH271959   5.911   4.106   4.353  0.5744 -0.2101 -0.2980
16823TIP3    H171960   5.982   4.151   4.306 -0.1282 -0.0806 -1.2628
16823TIP3    H271961   5.913   4.017   4.319  1.6872 -0.8422  1.3022
16824TIP3   OH271962   6.458   4.022   5.184 -0.6247 -0.1383  0.0460
16824TIP3    H171963   6.472   4.014   5.090  0.5027  0.2325  0.1626
16824TIP3    H271964   6.370   4.058   5.193 -0.4061  0.6775 -0.8959
16825TIP3   OH271965   3.571   0.333   4.921 -0.2174  0.2508  0.2799
16825TIP3    H171966   3.505   0.349   4.853  0.7258  0.5924 -0.5709
16825TIP3    H271967   3.623   0.260   4.886 -1.5337 -1.6109  1.9789
16826TIP3   OH271968   3.295   6.175   4.204 -0.0311  1.1194  0.0504
16826TIP3    H171969   3.224   6.202   4.263 -0.1264  0.0115  0.4728
16826TIP3    H271970   3.362   6.138   4.262 -1.3603 -2.7888 -0.5992
16827TIP3   OH271971   6.511   5.225   1.375  0.3156  0.4859 -0.5384
16827TIP3    H171972   6.483   5.189   1.291  0.2409  2.6379 -1.5017
16827TIP3    H271973   6.433   5.216   1.431  0.2745 -0.6936 -0.7507
16828TIP3   OH271974   2.917   1.525  15.661 -0.2147  0.3474  0.2248
16828TIP3    H171975   2.936   1.581  15.586 -0.2617  2.0229  1.4224
16828TIP3    H271976   2.935   1.436  15.629  1.4772  1.1460 -1.2384
16829TIP3   OH271977   2.982   1.288   0.108 -0.1670  0.7014 -0.0623
16829TIP3    H171978   2.914   1.243   0.158  0.5711 -1.3836 -0.8174
16829TIP3    H271979   3.016   1.354   0.168 -0.7107 -0.3370  1.4585
16830TIP3   OH271980   0.439   4.215   2.974 -0.5633  0.0210 -0.3567
16830TIP3    H171981   0.531   4.198   2.995 -0.5068  0.2159 -0.4363
16830TIP3    H271982   0.429   4.310   2.988 -0.7737 -0.0140 -0.2661
16831TIP3   OH271983   0.773   5.822  13.603  0.4200  0.3844  0.7290
16831TIP3    H171984   0.736   5.910  13.591  1.7793  0.9493  0.4219
16831TIP3    H271985   0.770   5.783  13.515  1.6590  0.9107  0.4320
16832TIP3   OH271986   1.789   5.359   2.729  0.1923 -0.9716  0.0394
16832TIP3    H171987   1.763   5.320   2.646 -0.0081 -1.4300  0.3178
16832TIP3    H271988   1.834   5.289   2.776 -1.4762 -1.3276  1.1658
16833TIP3   OH271989   0.285   3.178   1.732 -0.4193 -0.1872 -0.7991
16833TIP3    H171990   0.235   3.129   1.797 -1.5763  2.0108  0.1139
16833TIP3    H271991   0.298   3.264   1.773  1.8690  0.1541 -2.1090
16834TIP3   OH271992   6.562   4.092  16.787 -0.3482  0.7013  0.4490
16834TIP3    H171993   6.471   4.065  16.776 -0.4961  0.8942  1.1451
16834TIP3    H271994   6.592   4.043  16.864 -0.2259  1.5225  0.9387
16835TIP3   OH271995   3.607   2.150   2.309  0.8425  0.4393 -0.4117
16835TIP3    H171996   3.683   2.191   2.351  0.5668  1.7559 -1.1369
16835TIP3    H271997   3.582   2.211   2.240 -1.9673  0.9286  0.9063
16836TIP3   OH271998   3.237   1.389  16.848  0.6059  0.5436  0.3705
16836TIP3    H171999   3.316   1.403  16.795 -0.3600  1.9637 -0.7781
16836TIP3    H272000   3.185   1.469  16.835 -1.5193 -0.8018  0.1991
16837TIP3   OH272001   2.677   1.781   1.379  0.1654 -0.2247  0.7031
16837TIP3    H172002   2.729   1.702   1.363  1.0566  0.3684  0.6253
16837TIP3    H272003   2.639   1.767   1.466 -0.8595 -1.3656  0.1049
16838TIP3   OH272004   2.481   2.307  15.952 -0.6730 -0.2243 -0.0031
16838TIP3    H172005   2.567   2.265  15.942 -0.5102  0.1853 -0.3453
16838TIP3    H272006   2.469   2.357  15.871 -0.5871  0.8925  0.6548
16839TIP3   OH272007   1.204   2.542  12.075 -0.1507 -0.6307 -0.0737
16839TIP3    H172008   1.166   2.538  11.988  0.1671  0.8392 -0.3135
16839TIP3    H272009   1.295   2.570  12.061  0.1606 -1.2150  0.6778
16840TIP3   OH272010   3.590   3.630  16.309 -0.5324  0.2146  0.2746
16840TIP3    H172011   3.512   3.684  16.300 -0.8212 -0.1750  0.4044
16840TIP3    H272012   3.578   3.583  16.391 -0.0372  0.3448  0.4271
16841TIP3   OH272013   4.111   6.026  16.456  0.4323  0.4950 -0.0786
16841TIP3    H172014   4.192   6.045  16.504 -0.4883 -2.4916  3.0194
16841TIP3    H272015   4.048   6.089  16.491  0.3229 -0.1904  0.9829
16842TIP3   OH272016   1.480   4.035  12.641  0.2040  0.9468 -0.0884
16842TIP3    H172017   1.553   3.983  12.674  0.5673  1.0613 -0.6813
16842TIP3    H272018   1.404   3.978  12.650  0.1447  1.2393  1.6062
16843TIP3   OH272019   5.630   2.653  13.651  0.5597 -0.2843  0.4567
16843TIP3    H172020   5.699   2.590  13.671  0.9972  0.1328  0.2824
16843TIP3    H272021   5.605   2.633  13.561  1.3142  0.3473  0.0938
16844TIP3   OH272022   2.236   5.569  13.938  0.5933  0.0213  0.2610
16844TIP3    H172023   2.160   5.604  13.893  1.1671  1.9919  0.7238
16844TIP3    H272024   2.255   5.486  13.893 -2.1395 -0.8679  0.5419
16845TIP3   OH272025   2.079   0.060  10.342  0.1037  0.1181 -0.5118
16845TIP3    H172026   2.005   0.003  10.322  0.6869  0.0125 -2.5701
16845TIP3    H272027   2.042   0.128  10.398 -1.2428 -0.6911 -0.3739
16846TIP3   OH272028   3.680   6.658   2.278  0.1278  0.4553 -0.2310
16846TIP3    H172029   3.593   6.644   2.239 -0.6359  0.8806  1.2222
16846TIP3    H272030   3.680   6.750   2.303  0.4147  0.1142  1.0903
16847TIP3   OH272031   2.743   5.823  13.745  0.5295 -0.1422  0.1638
16847TIP3    H172032   2.831   5.793  13.768  0.2050 -0.9706  0.3835
16847TIP3    H272033   2.717   5.880  13.818  1.9080  2.3752 -1.1709
16848TIP3   OH272034   1.378   6.082   4.663  0.5063 -0.0069  0.1649
16848TIP3    H172035   1.406   6.002   4.707  0.0776  0.5899  1.6083
16848TIP3    H272036   1.292   6.100   4.700  0.9180  1.5214  0.4503
16849TIP3   OH272037   2.862   1.604   0.617  0.6875 -0.0118 -0.2582
16849TIP3    H172038   2.839   1.560   0.699 -0.6683  1.0787 -0.0259
16849TIP3    H272039   2.788   1.587   0.559 -0.0279  2.1459 -0.0575
16850TIP3   OH272040   4.493   3.319  12.030  0.1980 -0.6140  0.1913
16850TIP3    H172041   4.483   3.246  11.970 -1.6892 -1.5917  1.5655
16850TIP3    H272042   4.469   3.396  11.979  1.4432 -1.0123 -1.0552
16851TIP3   OH272043   3.352   4.242  13.228  0.2977 -0.1380  0.5174
16851TIP3    H172044   3.441   4.266  13.201  0.4049 -1.3565 -0.3109
16851TIP3    H272045   3.295   4.300  13.177  0.5909 -0.4238 -0.1611
16852TIP3   OH272046   4.864   2.617   0.261 -0.3374  0.0077  0.4701
16852TIP3    H172047   4.919   2.579   0.330 -1.2298 -1.1686  0.5517
16852TIP3    H272048   4.775   2.614   0.296 -0.9331 -1.3671 -1.0192
16853TIP3   OH272049   2.584   0.971   1.112 -0.1494  0.1875  0.2295
16853TIP3    H172050   2.671   0.996   1.083  0.5832 -0.0455  2.0978
16853TIP3    H272051   2.591   0.965   1.207 -2.4101  0.9712  0.5061
16854TIP3   OH272052   0.141   0.115  12.290 -0.4888 -0.5915  0.2807
16854TIP3    H172053   0.094   0.074  12.217 -0.2127 -1.0314  0.3440
16854TIP3    H272054   0.119   0.208  12.283 -1.0714 -0.7353  0.0902
16855TIP3   OH272055   3.644   5.448  16.087  0.1692 -0.2053  0.0796
16855TIP3    H172056   3.714   5.512  16.096  0.7250 -0.9329  1.2446
16855TIP3    H272057   3.645   5.400  16.170 -1.4178 -0.5273 -0.0537
16856TIP3   OH272058   2.240   2.306  15.036  0.0571 -0.1082  0.6113
16856TIP3    H172059   2.208   2.217  15.051  0.8872 -0.2680  1.6016
16856TIP3    H272060   2.161   2.361  15.035 -0.4108 -0.7770  0.6161
16857TIP3   OH272061   3.467   1.635  14.779  0.8989 -0.4827 -0.3676
16857TIP3    H172062   3.428   1.604  14.697 -0.0782 -1.3990  0.4115
16857TIP3    H272063   3.490   1.726  14.762 -0.8334 -0.1438 -1.1571
16858TIP3   OH272064   2.077   2.915  14.928  0.0835  0.2271 -0.4081
16858TIP3    H172065   2.072   2.989  14.989 -2.3399 -1.1157  1.1709
16858TIP3    H272066   2.165   2.879  14.941 -0.0145  0.5857  1.5879
16859TIP3   OH272067   3.730   2.575  15.040 -0.0646  0.4274 -0.4735
16859TIP3    H172068   3.820   2.597  15.019  0.5358 -1.2069  0.2408
16859TIP3    H272069   3.703   2.515  14.970  0.4488 -1.4781  0.8968
16860TIP3   OH272070   4.298   4.923   0.111 -0.4176 -0.1380  0.6308
16860TIP3    H172071   4.379   4.966   0.138 -0.3369 -0.0698  0.2871
16860TIP3    H272072   4.315   4.830   0.126 -0.3434 -0.1078  0.7352
16861TIP3   OH272073   5.581   5.819  11.889  0.2513 -0.0551  0.4124
16861TIP3    H172074   5.526   5.892  11.915 -0.9835 -0.5814 -0.5746
16861TIP3    H272075   5.537   5.742  11.924  0.5441 -0.4642 -0.0981
16862TIP3   OH272076   2.115   0.957   0.559 -0.2051  0.2132  0.2502
16862TIP3    H172077   2.125   0.976   0.653 -2.5360 -0.3976  0.6893
16862TIP3    H272078   2.204   0.965   0.524  0.7559  0.4094  2.5062
16863TIP3   OH272079   4.938   1.667   4.199 -0.3819 -0.5415  0.1189
16863TIP3    H172080   4.936   1.758   4.228 -3.2729 -0.1908 -0.8735
16863TIP3    H272081   4.847   1.639   4.200  0.4010 -3.4060  0.2228
16864TIP3   OH272082   5.078   6.477   4.277 -1.0299 -0.0255 -0.0052
16864TIP3    H172083   5.055   6.384   4.285 -0.6324 -0.2063 -0.8826
16864TIP3    H272084   5.170   6.477   4.252 -0.7500  0.6391  0.9570
16865TIP3   OH272085   1.980   5.213  13.188  0.1283  0.1299 -0.1160
16865TIP3    H172086   2.027   5.273  13.129  0.4531 -0.5050 -0.5197
16865TIP3    H272087   2.041   5.199  13.261 -0.2390  0.8479  0.3385
16866TIP3   OH272088   4.341   5.491   4.758  0.5894  0.3397 -0.2818
16866TIP3    H172089   4.282   5.498   4.683  0.2511  1.0194  0.0361
16866TIP3    H272090   4.291   5.528   4.831  0.0469 -2.2559  0.8052
16867TIP3   OH272091   4.551   5.907  16.093  0.1168 -0.1093  0.5296
16867TIP3    H172092   4.473   5.961  16.083 -0.5600 -1.2712 -0.8791
16867TIP3    H272093   4.610   5.937  16.024  0.5619  0.1675  1.0238
16868TIP3   OH272094   2.557   1.951   5.029  0.2383  0.2787 -0.1141
16868TIP3    H172095   2.597   1.950   4.942 -1.3983  0.4176 -0.9043
16868TIP3    H272096   2.493   2.023   5.025 -1.7028 -1.3484  0.3146
16869TIP3   OH272097   1.077   3.011   5.837 -0.1520  0.1769 -0.4993
16869TIP3    H172098   1.161   2.971   5.861  0.0570  1.6718  1.4737
16869TIP3    H272099   1.013   2.941   5.848  0.3376  0.0426  1.8700
16870TIP3   OH272100   4.981   1.977   1.300  0.4402 -0.3004  0.8315
16870TIP3    H172101   5.076   1.977   1.289  0.4527 -0.6346  0.9399
16870TIP3    H272102   4.966   2.031   1.378  0.5552 -0.3798  0.9092
16871TIP3   OH272103   6.184   3.791   0.140 -0.3104 -0.5439 -0.5792
16871TIP3    H172104   6.101   3.759   0.175 -0.3985 -1.4480 -1.5958
16871TIP3    H272105   6.250   3.734   0.178 -0.1435  0.0893  0.1197
16872TIP3   OH272106   0.597   2.454   4.791 -1.0072  0.0443  0.6264
16872TIP3    H172107   0.544   2.534   4.783 -0.7876  0.1297 -0.1058
16872TIP3    H272108   0.679   2.484   4.829 -0.6133  0.3263 -0.4017
16873TIP3   OH272109   5.025   4.050   5.116 -0.1709  0.1922 -0.1976
16873TIP3    H172110   5.034   3.963   5.076 -0.2739  0.2965 -0.4494
16873TIP3    H272111   5.040   4.035   5.209  1.7414  0.2172 -0.4774
16874TIP3   OH272112   4.941   4.873   5.455 -0.3638  0.1654 -0.0111
16874TIP3    H172113   5.015   4.844   5.507 -0.8933  0.7686  1.1274
16874TIP3    H272114   4.875   4.804   5.466 -0.4551  0.2638  0.0584
16875TIP3   OH272115   0.119   0.227  13.476 -0.7872  0.0604 -0.0368
16875TIP3    H172116   0.112   0.277  13.395 -2.4815 -3.2056 -2.0952
16875TIP3    H272117   0.029   0.220  13.508 -0.3890 -0.4642  1.0133
16876TIP3   OH272118   3.919   4.187   0.991  0.2795 -0.1169  0.6953
16876TIP3    H172119   3.828   4.205   0.967 -0.0884 -1.5203  0.9295
16876TIP3    H272120   3.969   4.210   0.913 -0.2382  0.9013  0.6474
16877TIP3   OH272121   4.648   3.719   5.780 -0.1244 -0.4445  0.4433
16877TIP3    H172122   4.671   3.661   5.707 -2.0342 -0.0703 -0.5264
16877TIP3    H272123   4.716   3.787   5.778  0.5328 -1.1006 -0.2126
16878TIP3   OH272124   3.472   2.406   1.326 -0.2896  1.0045  0.5167
16878TIP3    H172125   3.449   2.397   1.234 -1.5793  0.6491  0.8422
16878TIP3    H272126   3.416   2.477   1.358  1.3430  2.2709  0.6675
16879TIP3   OH272127   6.177   3.980  15.522  0.3638  0.7148 -0.1338
16879TIP3    H172128   6.134   4.064  15.509  0.6045  0.9420  0.5013
16879TIP3    H272129   6.220   3.962  15.438 -0.8802  0.5233 -0.7458
16880TIP3   OH272130   5.444   0.417   0.241 -0.3935 -0.4604  0.1321
16880TIP3    H172131   5.458   0.496   0.294  2.2275 -0.9821  0.3699
16880TIP3    H272132   5.416   0.451   0.156 -0.8738  0.6155  0.6957
16881TIP3   OH272133   1.739   4.584  16.969 -0.2467  0.2705 -0.0814
16881TIP3    H172134   1.814   4.545  17.014  0.1340  0.1160 -0.8285
16881TIP3    H272135   1.690   4.629  17.038 -1.4842 -2.6564  1.0796
16882TIP3   OH272136   0.531   0.836   2.800  0.6132  0.3973  0.0719
16882TIP3    H172137   0.516   0.930   2.791  2.9021  0.6629 -2.2930
16882TIP3    H272138   0.616   0.821   2.758  0.1397 -2.8072 -0.0156
16883TIP3   OH272139   6.462   1.166   2.702  0.3782 -0.1318 -0.0557
16883TIP3    H172140   6.492   1.238   2.647  0.6217  0.2184  0.5220
16883TIP3    H272141   6.470   1.088   2.647  2.7111 -0.1201  0.1452
16884TIP3   OH272142   0.953   2.260   5.721 -0.3686 -0.0504  1.0772
16884TIP3    H172143   0.911   2.285   5.804  0.3260 -2.2446  2.1685
16884TIP3    H272144   1.047   2.261   5.741 -0.1060  0.7568 -0.1216
16885TIP3   OH272145   0.624   1.911   5.693 -0.4975  0.0483 -0.4519
16885TIP3    H172146   0.692   1.967   5.656 -0.2560  1.0702  1.3817
16885TIP3    H272147   0.609   1.947   5.781 -1.5539 -1.7500  0.1632
16886TIP3   OH272148   5.370   4.313   2.137  0.1022 -0.0433 -0.0286
16886TIP3    H172149   5.324   4.396   2.122  0.7837  0.3561  0.0202
16886TIP3    H272150   5.443   4.337   2.194 -0.6994 -1.0054  1.4545
16887TIP3   OH272151   1.772   5.657   5.959 -0.1850  0.2404  0.5066
16887TIP3    H172152   1.828   5.587   5.993  0.5135 -0.7790 -2.4417
16887TIP3    H272153   1.720   5.614   5.890 -1.2220  2.2052 -0.0001
16888TIP3   OH272154   5.725   2.269  13.479  0.4921 -0.4434  0.0562
16888TIP3    H172155   5.808   2.224  13.496 -0.7866 -3.8093 -1.7218
16888TIP3    H272156   5.671   2.249  13.556  0.3029 -0.9759 -0.2130
16889TIP3   OH272157   4.943   6.546   4.033 -0.4108 -0.1252 -0.3805
16889TIP3    H172158   4.971   6.471   3.980 -0.0894  0.2346 -0.7190
16889TIP3    H272159   4.990   6.536   4.116 -0.3888 -0.3124 -0.4155
16890TIP3   OH272160   1.427   2.837   6.123  0.1350  0.1677 -0.1791
16890TIP3    H172161   1.381   2.897   6.183 -0.0421 -0.8460  0.7427
16890TIP3    H272162   1.511   2.880   6.106  0.7072 -0.0442  1.8023
16891TIP3   OH272163   2.732   5.751   5.302  0.3290 -0.4083 -0.1807
16891TIP3    H172164   2.795   5.823   5.301 -1.7491  1.5299  0.2084
16891TIP3    H272165   2.711   5.740   5.395 -0.6323 -0.3451 -0.3885
16892TIP3   OH272166   4.428   0.668  16.964 -0.9917 -0.0270  0.2483
16892TIP3    H172167   4.412   0.707  16.878  0.2010 -0.1877 -0.0636
16892TIP3    H272168   4.389   0.730  17.026 -1.7136  0.1721 -0.3916
16893TIP3   OH272169   3.945   1.688   3.405 -0.4307  0.1303  0.0329
16893TIP3    H172170   4.024   1.703   3.352 -1.9333  0.9686 -2.1332
16893TIP3    H272171   3.932   1.593   3.401  0.0905  0.0609 -0.1958
16894TIP3   OH272172   2.830   3.137   1.888  0.0327  0.5165  0.0852
16894TIP3    H172173   2.809   3.134   1.981  1.2355 -0.8813  0.3501
16894TIP3    H272174   2.886   3.214   1.878  1.5562 -0.4225  0.9409
16895TIP3   OH272175   3.234   2.837   1.743  0.5311 -0.1320 -0.0610
16895TIP3    H172176   3.153   2.791   1.725  1.1235 -1.4752  0.5847
16895TIP3    H272177   3.265   2.800   1.826  0.9607  1.5343  0.5674
16896TIP3   OH272178   1.541   5.582   2.916 -0.0065 -0.0961 -0.5707
16896TIP3    H172179   1.510   5.512   2.859  2.8091 -0.2466 -2.0417
16896TIP3    H272180   1.636   5.579   2.910  0.2688  2.8580  0.5450
16897TIP3   OH272181   2.275   3.913   2.829 -0.1841 -0.0882 -0.6615
16897TIP3    H172182   2.231   3.894   2.747 -1.0365 -1.2952  0.0474
16897TIP3    H272183   2.365   3.883   2.816  0.1191  1.1315 -1.6429
16898TIP3   OH272184   3.005   5.961   0.696 -0.2160 -0.4441 -0.1002
16898TIP3    H172185   3.093   5.933   0.673  0.2272 -1.5353  2.5618
16898TIP3    H272186   2.969   5.997   0.615  2.6368  0.0205 -1.2686
16899TIP3   OH272187   5.831   2.183   0.543  0.1259  0.1139 -0.0160
16899TIP3    H172188   5.904   2.245   0.538  0.7985 -0.6578  0.1900
16899TIP3    H272189   5.812   2.177   0.636  1.0934 -1.1694  0.1180
16900TIP3   OH272190   5.780   4.693  10.914 -0.3336  0.1122  0.5082
16900TIP3    H172191   5.748   4.778  10.944 -0.9062 -0.0167  0.2781
16900TIP3    H272192   5.810   4.709  10.824  1.0732  0.4243  1.0088
16901TIP3   OH272193   1.831   6.323   0.810  0.6269  0.0447 -0.5213
16901TIP3    H172194   1.899   6.256   0.818  2.7431  1.9319 -1.6922
16901TIP3    H272195   1.846   6.381   0.885 -0.4912 -0.1278 -0.1386
16902TIP3   OH272196   1.426   2.516  14.037 -0.0145  0.2871 -0.4245
16902TIP3    H172197   1.391   2.432  14.066 -0.1535  1.2309  2.4813
16902TIP3    H272198   1.352   2.559  13.994 -1.3493  0.5886  1.9673
16903TIP3   OH272199   0.638   0.106   4.479 -0.4369 -0.3984 -0.1611
16903TIP3    H172200   0.713   0.131   4.533  0.1279 -0.7864 -0.7638
16903TIP3    H272201   0.565   0.103   4.541  0.1887 -0.7703  0.5802
16904TIP3   OH272202   2.376   4.643   2.093  0.0392 -0.3193  0.5184
16904TIP3    H172203   2.390   4.549   2.080 -2.1955 -0.7984  1.1551
16904TIP3    H272204   2.283   4.651   2.113 -0.0529  2.1831 -0.5864
16905TIP3   OH272205   6.165   1.918  13.525  0.3216 -0.1412  0.7184
16905TIP3    H172206   6.119   1.996  13.492  0.8714  0.1905  0.7273
16905TIP3    H272207   6.192   1.943  13.614  2.1509  0.3620  0.0501
16906TIP3   OH272208   0.373   4.178   1.321  0.4274  0.0981  0.6639
16906TIP3    H172209   0.421   4.095   1.311  0.6333 -0.0613  2.5607
16906TIP3    H272210   0.352   4.204   1.232  1.1345 -1.5478 -0.0343
16907TIP3   OH272211   3.347   4.228  13.594 -0.9233  0.4575 -0.0272
16907TIP3    H172212   3.415   4.186  13.541 -1.2110 -1.6236  1.1600
16907TIP3    H272213   3.390   4.304  13.633  1.4651 -1.9052  2.3300
16908TIP3   OH272214   4.660   6.207  15.698 -0.5320 -0.4191 -0.4391
16908TIP3    H172215   4.733   6.191  15.639 -1.1112  1.6547 -1.8049
16908TIP3    H272216   4.582   6.184  15.647 -0.9417 -1.5079  0.6030
16909TIP3   OH272217   4.633   0.285  14.765 -0.2726 -0.2049 -0.0902
16909TIP3    H172218   4.599   0.200  14.738 -2.1922  1.3431 -3.1582
16909TIP3    H272219   4.696   0.308  14.696 -2.9763  2.5565 -1.9050
16910TIP3   OH272220   6.082   1.748   2.777  0.0603  0.3357 -0.0842
16910TIP3    H172221   6.137   1.695   2.720 -1.5678 -1.1857 -0.3300
16910TIP3    H272222   6.133   1.827   2.794  2.1312 -0.8373 -0.5843
16911TIP3   OH272223   1.133   5.112  11.817 -0.0471 -0.3462  0.7018
16911TIP3    H172224   1.120   5.017  11.815  0.9662 -0.4943  0.1389
16911TIP3    H272225   1.051   5.149  11.785 -0.1185 -1.0753  0.0266
16912TIP3   OH272226   2.536   1.631   1.932  0.4481 -0.0426  0.1989
16912TIP3    H172227   2.565   1.720   1.950  0.5857  0.1110 -0.6969
16912TIP3    H272228   2.616   1.579   1.934  0.2003 -0.3880  2.0154
16913TIP3   OH272229   2.329   2.935   3.626  0.2163  0.2656 -0.3154
16913TIP3    H172230   2.403   2.966   3.573 -0.2958 -0.5720 -1.5502
16913TIP3    H272231   2.331   2.840   3.618  0.7286  0.0136  2.0347
16914TIP3   OH272232   5.369   6.199  15.886 -0.1981  0.2392 -0.1501
16914TIP3    H172233   5.319   6.227  15.963 -0.6164 -1.2786  0.1796
16914TIP3    H272234   5.316   6.229  15.811 -0.9904 -0.2610  0.1901
16915TIP3   OH272235   4.654   1.517  15.502 -0.6124 -0.2504 -0.1774
16915TIP3    H172236   4.579   1.565  15.468 -0.7581 -1.7965 -2.2238
16915TIP3    H272237   4.727   1.579  15.495 -1.3430  0.6576  0.0921
16916TIP3   OH272238   1.365   2.390  13.038  0.2534  0.1007 -0.2515
16916TIP3    H172239   1.455   2.413  13.016  1.6971 -3.9585  0.6333
16916TIP3    H272240   1.336   2.461  13.096  2.4069  2.1160 -1.4668
16917TIP3   OH272241   0.774   3.860  12.420 -0.0067 -0.7243 -0.1992
16917TIP3    H172242   0.715   3.828  12.488 -1.4418 -0.5539 -1.3217
16917TIP3    H272243   0.748   3.951  12.407  0.4357 -0.6824 -0.7949
16918TIP3   OH272244   4.880   3.669  14.005  0.3212 -0.1344 -0.4488
16918TIP3    H172245   4.905   3.613  14.078  1.3287 -0.4082 -0.9779
16918TIP3    H272246   4.808   3.623  13.962 -1.0672  0.5791  1.0050
16919TIP3   OH272247   3.215   0.064  15.776 -0.1726 -0.3017 -0.3473
16919TIP3    H172248   3.302   0.057  15.815  0.2657  1.6008 -0.8763
16919TIP3    H272249   3.227   0.034  15.686  0.0198  0.2159 -0.5000
16920TIP3   OH272250   1.238   2.275   2.074  0.0833  0.7227  0.2832
16920TIP3    H172251   1.310   2.218   2.049 -0.0280  1.0488 -0.8043
16920TIP3    H272252   1.159   2.231   2.043  0.1147  2.2902 -2.2540
16921TIP3   OH272253   3.728   4.793  15.297 -0.3607  0.2515  0.4937
16921TIP3    H172254   3.752   4.871  15.347  2.1244 -0.2144  0.1595
16921TIP3    H272255   3.658   4.822  15.238  0.0819  2.0583  0.8165
16922TIP3   OH272256   4.075   5.464  14.937  0.5871  0.4861 -0.5297
16922TIP3    H172257   4.169   5.473  14.951  0.5688 -0.9663  0.7010
16922TIP3    H272258   4.068   5.411  14.857  0.8942 -1.6559  0.7993
16923TIP3   OH272259   5.950   0.284   2.142  0.1231 -0.3112 -0.1160
16923TIP3    H172260   5.971   0.312   2.231  2.2784 -3.3212  0.4776
16923TIP3    H272261   6.030   0.298   2.092 -0.6272  0.0523 -1.2659
16924TIP3   OH272262   4.998   5.244  10.683 -0.4276 -0.0294  0.2566
16924TIP3    H172263   5.042   5.226  10.767 -0.1407  1.3730  0.4202
16924TIP3    H272264   4.908   5.216  10.697  0.3304 -3.1044 -0.1214
16925TIP3   OH272265   0.780   4.772  15.821  0.0988 -0.1145  0.1218
16925TIP3    H172266   0.807   4.682  15.840 -2.1953 -0.6360  1.2667
16925TIP3    H272267   0.702   4.763  15.767 -0.6639  1.1712  0.9563
16926TIP3   OH272268   4.127   3.892  11.924 -0.4892 -0.3624 -0.0416
16926TIP3    H172269   4.167   3.825  11.867 -0.6348 -1.7388  1.3988
16926TIP3    H272270   4.070   3.941  11.865  1.4450  0.1008 -1.6546
16927TIP3   OH272271   5.423   4.829  14.613 -0.3039  0.0911  0.1660
16927TIP3    H172272   5.497   4.824  14.553  0.2404  2.1350  0.5625
16927TIP3    H272273   5.345   4.823  14.557  0.1891  0.4146 -0.5651
16928TIP3   OH272274   5.819   1.225  14.379  0.0739 -0.1243 -0.3213
16928TIP3    H172275   5.788   1.210  14.469  1.0819 -1.4307 -0.1558
16928TIP3    H272276   5.882   1.296  14.386 -0.0103 -0.0776 -0.0330
16929TIP3   OH272277   0.558   5.300  13.946 -0.1047 -0.1824 -0.3857
16929TIP3    H172278   0.580   5.257  13.864 -0.8838 -0.1163 -0.6411
16929TIP3    H272279   0.627   5.364  13.960 -0.7504  0.8581 -1.7724
16930TIP3   OH272280   2.271   1.397  11.149  0.1890  0.5399  0.1377
16930TIP3    H172281   2.194   1.344  11.128  0.5375 -0.3348  0.9880
16930TIP3    H272282   2.343   1.354  11.103  0.3652  0.6364  0.3188
16931TIP3   OH272283   3.058   5.848   2.673 -0.0312 -0.0680 -0.2148
16931TIP3    H172284   3.013   5.768   2.646  1.6583 -0.8060 -0.9809
16931TIP3    H272285   3.022   5.867   2.760 -0.3541 -1.7527  0.0564
16932TIP3   OH272286   3.378   1.954  11.419 -0.1208  0.3240 -0.0886
16932TIP3    H172287   3.328   1.872  11.421  1.1226 -0.5061 -1.6361
16932TIP3    H272288   3.342   2.002  11.345  1.3732 -0.3124 -1.2651
16933TIP3   OH272289   1.746   4.351   2.240 -0.9216 -0.4351  0.2761
16933TIP3    H172290   1.830   4.359   2.285 -0.6715  0.1616 -0.2802
16933TIP3    H272291   1.757   4.275   2.182 -0.3590  0.2989 -0.6191
16934TIP3   OH272292   6.561   5.804   6.047 -0.1371  0.4872 -0.0008
16934TIP3    H172293   6.560   5.881   5.989 -1.7252  0.1025 -0.5288
16934TIP3    H272294   6.654   5.790   6.066  0.4721  0.6630 -2.4590
16935TIP3   OH272295   5.648   2.204  13.222 -0.3033  0.0376 -0.4263
16935TIP3    H172296   5.666   2.234  13.312 -1.5259  0.6513 -0.3656
16935TIP3    H272297   5.647   2.109  13.229 -0.0329  0.0714  0.1511
16936TIP3   OH272298   1.489   0.668   4.053 -0.0638  0.6276 -0.4037
16936TIP3    H172299   1.569   0.619   4.073 -0.9035 -1.1298 -1.1538
16936TIP3    H272300   1.509   0.757   4.080  1.0134 -0.3530  2.5335
16937TIP3   OH272301   1.019   6.069   4.486 -0.1051  0.0362 -0.1305
16937TIP3    H172302   1.054   6.088   4.573  0.3828  0.3703 -0.3986
16937TIP3    H272303   0.950   6.133   4.473  1.1480  1.2929 -0.7968
16938TIP3   OH272304   2.297   5.121   1.509  0.3257 -0.2274 -0.2919
16938TIP3    H172305   2.354   5.048   1.483 -2.1055 -1.6416 -1.9906
16938TIP3    H272306   2.303   5.122   1.605  2.2311 -1.0796 -0.3528
16939TIP3   OH272307   0.085   0.034  16.723 -0.3401  1.0156  0.1401
16939TIP3    H172308   0.106   0.125  16.702  0.6467  0.9520  0.7741
16939TIP3    H272309   0.009   0.013  16.669 -0.6207  2.2391  0.0456
16940TIP3   OH272310   6.276   0.658   5.642  0.0517 -0.1869 -0.0867
16940TIP3    H172311   6.231   0.574   5.632 -0.9017 -0.0339  2.1861
16940TIP3    H272312   6.207   0.718   5.669  0.6653  1.4330 -1.9481
16941TIP3   OH272313   1.287   4.798  15.033  0.0613 -0.1428  0.0005
16941TIP3    H172314   1.240   4.779  14.952  0.9524  0.2970 -0.6519
16941TIP3    H272315   1.371   4.753  15.023  0.1487 -0.1579  0.7224
16942TIP3   OH272316   6.699   1.745  10.939 -0.2850  0.0135 -0.0277
16942TIP3    H172317   6.702   1.795  10.857  0.6227 -1.2385 -0.7959
16942TIP3    H272318   6.608   1.719  10.947 -0.6491  1.2356  0.0630
16943TIP3   OH272319   2.805   2.868   3.067  0.0888  0.0225  0.4217
16943TIP3    H172320   2.718   2.834   3.088  0.5905 -1.6338 -0.0438
16943TIP3    H272321   2.865   2.810   3.114  0.9559  1.6615  1.4374
16944TIP3   OH272322   0.660   1.106   6.400  0.8246  0.2199  0.3044
16944TIP3    H172323   0.664   1.145   6.312  1.4131 -1.6857 -0.5775
16944TIP3    H272324   0.750   1.111   6.432  0.9665 -0.5799  0.0683
16945TIP3   OH272325   1.992   1.281  17.029  0.8304 -0.0935 -0.1553
16945TIP3    H172326   1.900   1.256  17.038  1.0268 -0.3082  1.5474
16945TIP3    H272327   2.023   1.231  16.953 -0.3365 -0.3822 -0.4592
16946TIP3   OH272328   0.363   1.636   3.501 -0.0177 -0.6424  0.4650
16946TIP3    H172329   0.295   1.670   3.443  1.4078  0.8491 -0.4340
16946TIP3    H272330   0.441   1.686   3.477  0.8752 -0.7164  2.9708
16947TIP3   OH272331   3.578   2.456   3.330 -0.3839  0.1978  0.2085
16947TIP3    H172332   3.596   2.365   3.354  0.7702  0.3862  0.1213
16947TIP3    H272333   3.647   2.507   3.374 -0.7797  0.9890 -0.0619
16948TIP3   OH272334   3.227   1.982  12.608  0.4234 -0.2103 -0.2422
16948TIP3    H172335   3.248   2.071  12.637 -0.5303  0.1945 -0.7604
16948TIP3    H272336   3.309   1.950  12.570  0.4417  0.9568 -1.2698
16949TIP3   OH272337   3.160   2.287   5.840 -0.3979 -0.4890  0.4930
16949TIP3    H172338   3.073   2.285   5.801 -0.7537 -1.9287  1.2769
16949TIP3    H272339   3.145   2.284   5.935  0.4564  2.5167  0.8359
16950TIP3   OH272340   6.481   1.371  15.562  0.0728  0.5030  0.0113
16950TIP3    H172341   6.549   1.417  15.512 -0.6221  1.2416 -0.2770
16950TIP3    H272342   6.444   1.439  15.619 -0.4489  0.1070  0.1448
16951TIP3   OH272343   6.603   1.578  14.096  0.1486  0.0177  0.1510
16951TIP3    H172344   6.626   1.492  14.130  1.4637 -0.5454 -1.9787
16951TIP3    H272345   6.511   1.571  14.072 -0.1811 -0.2618  1.4358
16952TIP3   OH272346   4.327   0.274   5.283 -0.2401  0.5564 -0.1544
16952TIP3    H172347   4.340   0.242   5.194 -0.6392 -0.4688  0.1405
16952TIP3    H272348   4.409   0.319   5.305 -0.0600  0.6400 -0.9503
16953TIP3   OH272349   2.574   0.729   5.285 -0.0376 -0.7521 -0.0650
16953TIP3    H172350   2.608   0.640   5.274  0.3140 -0.5587 -0.6012
16953TIP3    H272351   2.651   0.785   5.276 -0.1255 -0.4365  1.1027
16954TIP3   OH272352   0.297   0.243   2.026 -0.2379 -0.1793 -0.1657
16954TIP3    H172353   0.232   0.301   1.986 -1.6157 -1.4738  0.1241
16954TIP3    H272354   0.327   0.187   1.954 -0.8703 -0.8474  0.0813
16955TIP3   OH272355   5.421   4.886   3.758 -0.6621  0.2053  0.1666
16955TIP3    H172356   5.507   4.845   3.750 -1.2367 -0.6496 -3.0396
16955TIP3    H272357   5.379   4.870   3.674 -4.1649  0.2117  1.7467
16956TIP3   OH272358   1.485   4.734   1.903  0.2669 -0.6003  0.1029
16956TIP3    H172359   1.473   4.801   1.837  2.2827 -0.4778 -0.2028
16956TIP3    H272360   1.576   4.705   1.892  0.8333 -0.2632  3.0804
16957TIP3   OH272361   0.779   6.024   0.664 -0.3131 -0.4372  0.4798
16957TIP3    H172362   0.692   6.046   0.699 -0.5804 -0.4500 -0.1610
16957TIP3    H272363   0.766   6.020   0.569  0.1053 -1.6486  0.4505
16958TIP3   OH272364   2.905   0.061  11.889 -0.0569  0.3424  0.0666
16958TIP3    H172365   2.901   0.017  11.804 -2.5034  0.5090  0.0240
16958TIP3    H272366   2.827   0.117  11.891  1.0394  1.9190  1.5995
16959TIP3   OH272367   2.292   2.327  13.052  0.6538  0.1932 -0.1319
16959TIP3    H172368   2.374   2.318  13.004  0.5980 -1.5041  0.0006
16959TIP3    H272369   2.242   2.392  13.004  1.9582  1.0431 -0.3804
16960TIP3   OH272370   4.322   1.744   5.558 -0.7760  0.0392 -0.5712
16960TIP3    H172371   4.258   1.742   5.487 -0.0834 -1.8734 -1.2006
16960TIP3    H272372   4.363   1.657   5.556 -1.2665 -0.3916  2.6463
16961TIP3   OH272373   2.051   6.733   5.176  0.3159 -0.2027  0.0934
16961TIP3    H172374   2.077   6.683   5.099  1.6798 -2.3879  1.8387
16961TIP3    H272375   1.995   6.674   5.226 -1.3545  1.5232  0.3548
16962TIP3   OH272376   4.340   2.096  14.161 -0.7866 -0.3609 -0.8280
16962TIP3    H172377   4.396   2.135  14.229  0.0186  0.0630 -1.7111
16962TIP3    H272378   4.252   2.100  14.198 -0.2902 -0.6800  0.4363
16963TIP3   OH272379   0.518   1.641   6.009 -0.2239 -0.2725 -0.2462
16963TIP3    H172380   0.530   1.736   6.010  0.7511 -0.3839  1.1076
16963TIP3    H272381   0.545   1.615   5.921  1.3074  0.5207 -0.0445
16964TIP3   OH272382   1.993   1.366   2.372 -0.1751 -0.2215  0.4234
16964TIP3    H172383   2.082   1.399   2.383 -0.8437  2.4082 -1.2793
16964TIP3    H272384   1.946   1.438   2.330 -2.6312 -2.2479 -0.5102
16965TIP3   OH272385   0.429   0.922   6.709 -0.1982 -0.3022  0.3161
16965TIP3    H172386   0.471   0.986   6.766  0.8382 -1.2796  0.6881
16965TIP3    H272387   0.500   0.889   6.654 -1.2613  0.9667 -1.9318
16966TIP3   OH272388   1.245   2.772  15.325  0.2514  0.3259 -0.0929
16966TIP3    H172389   1.247   2.721  15.407  1.7961  1.0554  0.3686
16966TIP3    H272390   1.248   2.706  15.256 -2.9820 -0.4131  0.3077
16967TIP3   OH272391   5.913   1.742   0.503  0.1029 -0.5503  0.5827
16967TIP3    H172392   5.885   1.672   0.445 -1.5445 -0.5074  1.2558
16967TIP3    H272393   5.939   1.698   0.584  2.3656 -0.6084 -0.1173
16968TIP3   OH272394   3.854   2.252  17.052 -0.3521  0.4591 -0.2106
16968TIP3    H172395   3.833   2.213  16.967  1.5084  1.1749 -1.0665
16968TIP3    H272396   3.945   2.225  17.068 -0.9951 -0.6321  2.1489
16969TIP3   OH272397   4.900   5.334  16.323  0.1540  0.6441  0.0957
16969TIP3    H172398   4.869   5.244  16.319 -0.0445  0.6411  1.2121
16969TIP3    H272399   4.970   5.333  16.389 -1.3412  1.6686  1.8187
16970TIP3   OH272400   6.227   2.377  12.404  0.0991 -0.1722 -0.4458
16970TIP3    H172401   6.288   2.305  12.419  0.8717  0.7906  1.4473
16970TIP3    H272402   6.173   2.379  12.483 -0.6163  0.6583 -0.9345
16971TIP3   OH272403   3.658   3.123   2.286  0.3245 -0.0883  0.1422
16971TIP3    H172404   3.601   3.132   2.362 -0.0644 -0.2462 -0.1312
16971TIP3    H272405   3.604   3.145   2.211  1.1633  1.7503  0.0297
16972TIP3   OH272406   0.933   2.262   1.583 -0.0556  0.0069 -0.5851
16972TIP3    H172407   0.842   2.283   1.603 -0.1812 -1.8015  1.1114
16972TIP3    H272408   0.964   2.215   1.661  3.0941  2.6612  0.0003
16973TIP3   OH272409   3.870   1.182  11.633  0.0292  0.0612 -0.3759
16973TIP3    H172410   3.774   1.179  11.641  0.0753 -0.3388  0.0644
16973TIP3    H272411   3.890   1.275  11.623 -0.6577 -0.0365 -4.0265
16974TIP3   OH272412   5.252   4.927   0.022 -0.0014  0.2772 -0.1620
16974TIP3    H172413   5.267   4.984  -0.053 -0.4005 -0.4831 -0.8322
16974TIP3    H272414   5.189   4.863  -0.009 -2.0298  1.3385  1.5340
16975TIP3   OH272415   0.351   3.671  16.968 -0.3689  0.2963 -0.0995
16975TIP3    H172416   0.425   3.720  17.004 -1.6630  2.3819 -0.0879
16975TIP3    H272417   0.387   3.626  16.892  1.2856 -0.1880  0.9317
16976TIP3   OH272418   0.306   4.108   4.835  0.3416 -0.1901 -0.1164
16976TIP3    H172419   0.283   4.114   4.742 -0.8687 -0.8026  0.1261
16976TIP3    H272420   0.394   4.070   4.835  0.0507 -0.9110 -1.0049
16977TIP3   OH272421   2.941   2.940  14.095  0.5964  0.1358  0.3162
16977TIP3    H172422   2.928   3.030  14.066  1.2417 -0.1088 -0.8123
16977TIP3    H272423   2.855   2.899  14.087 -0.2677  1.1994  3.0441
16978TIP3   OH272424   4.223   1.709   2.333  0.0714  0.3270 -0.6053
16978TIP3    H172425   4.135   1.711   2.296 -0.2058  0.6181  0.0508
16978TIP3    H272426   4.281   1.700   2.258 -0.5362 -0.1720 -1.0244
16979TIP3   OH272427   0.305   4.020   3.818 -0.5908 -0.0789  0.1422
16979TIP3    H172428   0.376   3.962   3.847 -0.7337 -0.0979  0.4603
16979TIP3    H272429   0.236   3.961   3.787 -0.8977 -0.0962  0.8421
16980TIP3   OH272430   1.423   4.321   0.252  0.0111  0.1137 -0.3904
16980TIP3    H172431   1.439   4.232   0.220  1.4241 -1.0095  2.9281
16980TIP3    H272432   1.510   4.361   0.257 -0.3005  0.7210  0.5393
16981TIP3   OH272433   3.459   3.742  12.318 -0.0057  0.2754 -0.3648
16981TIP3    H172434   3.367   3.752  12.341  0.5118  1.9657  1.2889
16981TIP3    H272435   3.459   3.695  12.235 -2.2741 -1.0733  0.3256
16982TIP3   OH272436   0.077   0.877   0.479  0.4615  0.1442  0.2633
16982TIP3    H172437   0.049   0.786   0.487  0.9878  0.0223  0.8804
16982TIP3    H272438   0.024   0.925   0.543  2.4406 -0.2924  2.3470
16983TIP3   OH272439   4.634   4.568   0.210  0.0400  0.2529 -0.0125
16983TIP3    H172440   4.695   4.497   0.228 -0.2110  0.0464  0.0356
16983TIP3    H272441   4.685   4.631   0.158 -0.5723 -1.4515 -2.8905
16984TIP3   OH272442   2.811   2.455  14.657 -0.1197 -0.6009  0.4171
16984TIP3    H172443   2.900   2.450  14.693 -0.1841 -0.1064  0.6479
16984TIP3    H272444   2.761   2.390  14.707  0.1256 -0.9198  0.2477
16985TIP3   OH272445   0.689   4.445   3.699 -0.2981  0.2354 -0.2092
16985TIP3    H172446   0.727   4.442   3.787  1.3591 -2.2625 -0.8769
16985TIP3    H272447   0.763   4.423   3.641 -1.9536 -1.0954 -1.9386
16986TIP3   OH272448   6.365   5.313  13.675 -0.0594 -0.0744  0.0522
16986TIP3    H172449   6.304   5.331  13.603  1.7895  0.7263 -1.4045
16986TIP3    H272450   6.420   5.242  13.642  2.6303  2.1505 -0.5673
16987TIP3   OH272451   0.700   1.528  13.701 -0.1831  0.2194  0.2584
16987TIP3    H172452   0.655   1.478  13.633 -0.7568  0.3722  0.5204
16987TIP3    H272453   0.785   1.484  13.711 -0.6329 -0.6391  0.4112
16988TIP3   OH272454   2.157   1.311   0.309 -0.2428  0.5108 -0.2790
16988TIP3    H172455   2.096   1.357   0.251 -1.2749  0.2093  0.5297
16988TIP3    H272456   2.101   1.257   0.365  0.8633 -0.8804 -0.4453
16989TIP3   OH272457   5.147   6.701   0.005 -0.1120  0.2832 -0.3265
16989TIP3    H172458   5.077   6.677   0.066 -0.6641  0.7059 -0.7840
16989TIP3    H272459   5.127   6.653  -0.075 -1.0334  1.9386 -1.1367
16990TIP3   OH272460   4.678   2.151   1.722  0.0846 -0.2590  0.1156
16990TIP3    H172461   4.678   2.242   1.690  3.1167 -0.1143  0.2161
16990TIP3    H272462   4.625   2.154   1.801  0.2720  1.4937  0.2256
16991TIP3   OH272463   1.408   4.853   1.655 -0.2575 -0.4095  0.2573
16991TIP3    H172464   1.485   4.848   1.598  0.3802 -0.9978  1.1435
16991TIP3    H272465   1.342   4.897   1.602  0.9436  0.8777 -0.2519
16992TIP3   OH272466   3.817   4.686   0.083 -0.5616  0.0425  0.6528
16992TIP3    H172467   3.813   4.690  -0.012  1.7737  0.2139  0.4935
16992TIP3    H272468   3.802   4.776   0.112 -0.0329  0.2314  0.3551
16993TIP3   OH272469   3.197   2.572  11.426  0.0000  0.0123 -0.1362
16993TIP3    H172470   3.232   2.646  11.475 -1.3852  1.1108 -0.7021
16993TIP3    H272471   3.174   2.609  11.340 -0.7606 -1.0658 -0.4228
16994TIP3   OH272472   4.703   1.720   0.872  0.1813  0.0205 -0.3586
16994TIP3    H172473   4.647   1.796   0.857  0.6532  0.5894  0.6452
16994TIP3    H272474   4.652   1.663   0.930  0.5322  0.4184  0.3471
16995TIP3   OH272475   3.781   4.020  11.051 -0.1541  0.1688 -0.4230
16995TIP3    H172476   3.699   4.028  11.002  0.4313  1.0005 -1.3122
16995TIP3    H272477   3.845   3.993  10.986 -0.0159 -2.0883  0.5849
16996TIP3   OH272478   2.155   0.950  10.683  0.3357 -0.2379 -0.1481
16996TIP3    H172479   2.114   0.872  10.646 -1.4736  0.7887 -0.4235
16996TIP3    H272480   2.161   1.011  10.609  1.8057 -0.1150  0.0400
16997TIP3   OH272481   0.749   2.113   3.158 -0.3877  0.3778 -0.3164
16997TIP3    H172482   0.795   2.194   3.181  1.1724 -0.4379 -0.4420
16997TIP3    H272483   0.816   2.057   3.120 -1.2118 -1.3541  0.6507
16998TIP3   OH272484   4.979   4.614  14.339 -0.5545  0.7269  0.0388
16998TIP3    H172485   4.967   4.594  14.246 -0.9127 -1.4439  0.5124
16998TIP3    H272486   4.892   4.636  14.371 -0.7850 -0.4114  0.2442
16999TIP3   OH272487   1.433   5.017  16.364  0.1722  0.4403 -0.0929
16999TIP3    H172488   1.526   5.027  16.383  0.3951 -0.2840 -0.7449
16999TIP3    H272489   1.426   5.037  16.271 -0.2114 -0.1364 -0.1948
17000TIP3   OH272490   4.578   4.634  14.909  0.1798  0.2161  0.3203
17000TIP3    H172491   4.647   4.622  14.845  0.4872 -0.4101  0.7514
17000TIP3    H272492   4.513   4.567  14.887  0.8796 -0.8656  1.4148
17001TIP3   OH272493   3.235   2.953   1.452 -0.0603  0.3227 -0.2719
17001TIP3    H172494   3.213   2.872   1.406 -1.1910 -0.0058  0.8013
17001TIP3    H272495   3.233   2.930   1.544 -0.2720  1.5435  0.0495
17002TIP3   OH272496   3.931   3.305   4.300 -0.0239  0.6264 -0.4656
17002TIP3    H172497   4.021   3.274   4.291 -0.4457 -1.4869  1.6554
17002TIP3    H272498   3.878   3.227   4.286 -1.4660  1.5439 -0.2449
17003TIP3   OH272499   4.178   0.911   4.163 -0.1600  0.2301 -0.0736
17003TIP3    H172500   4.195   0.975   4.233 -0.3633 -0.0158  0.2034
17003TIP3    H272501   4.210   0.954   4.083  0.3946  0.3767  0.2196
17004TIP3   OH272502   1.627   6.548   5.048  0.2027  0.2569  0.0228
17004TIP3    H172503   1.691   6.593   4.994  1.0098  1.6127  2.0055
17004TIP3    H272504   1.553   6.608   5.054  0.5523  0.5843  1.2441
17005TIP3   OH272505   2.998   3.029   3.451  1.0032 -0.4387  0.1675
17005TIP3    H172506   3.029   3.082   3.524  1.0505 -0.6282  0.2857
17005TIP3    H272507   2.946   2.960   3.492 -0.5057  0.5056 -0.0967
17006TIP3   OH272508   0.480   1.267   1.985 -0.3426 -0.0687 -0.4233
17006TIP3    H172509   0.519   1.318   2.056 -2.9700  1.2291  0.2430
17006TIP3    H272510   0.517   1.304   1.905 -0.1953  1.1229  0.1678
17007TIP3   OH272511   4.659   5.880   2.471 -0.2846 -0.0076 -0.5516
17007TIP3    H172512   4.592   5.867   2.403 -0.4109  0.0597 -0.4397
17007TIP3    H272513   4.662   5.975   2.484 -0.1620 -0.0102 -0.5612
17008TIP3   OH272514   1.204   6.077  12.088  1.0541  0.3860  0.1496
17008TIP3    H172515   1.154   5.998  12.067  0.1028  0.5498  1.6523
17008TIP3    H272516   1.295   6.052  12.075  0.8192 -1.2133  1.3223
17009TIP3   OH272517   6.085   3.970   5.569 -0.2403  0.0383 -0.1321
17009TIP3    H172518   6.030   3.905   5.614 -0.0758 -0.8869 -1.2221
17009TIP3    H272519   6.168   3.925   5.555 -0.1768  0.4165 -1.0437
17010TIP3   OH272520   4.749   2.056  14.801 -0.0393 -0.6746 -0.6549
17010TIP3    H172521   4.803   2.105  14.863 -1.3220 -1.3662  1.0803
17010TIP3    H272522   4.799   2.059  14.719  0.8096  1.8667 -0.1272
17011TIP3   OH272523   0.947   3.353  15.403  0.5063  0.5936 -0.4359
17011TIP3    H172524   0.929   3.259  15.398  1.3244  0.4226 -0.3510
17011TIP3    H272525   0.957   3.370  15.497  0.0100  0.8421 -0.4225
17012TIP3   OH272526   5.906   4.110   2.290 -0.6531 -0.6516 -0.0164
17012TIP3    H172527   5.922   4.184   2.350  4.1321  0.2320 -1.8772
17012TIP3    H272528   5.958   4.038   2.327 -2.0382 -1.8507 -0.3316
17013TIP3   OH272529   5.922   3.737   3.774 -0.5057  0.2096  0.0290
17013TIP3    H172530   5.939   3.814   3.721 -1.3196  0.5693  0.2841
17013TIP3    H272531   5.842   3.699   3.738  0.1491 -0.8049 -0.4116
17014TIP3   OH272532   1.166   4.218  15.121 -0.3156 -0.0959 -0.3536
17014TIP3    H172533   1.154   4.232  15.028  1.4527 -1.2840 -0.8172
17014TIP3    H272534   1.235   4.279  15.146  3.1419 -3.3289 -1.1130
17015TIP3   OH272535   0.760   5.361  14.450 -0.1480  0.1564 -0.1453
17015TIP3    H172536   0.790   5.370  14.359  1.1819 -0.8403  0.1591
17015TIP3    H272537   0.680   5.308  14.444  0.0106 -0.0260 -0.7341
17016TIP3   OH272538   1.449   5.672   1.403  0.0786  0.3520 -0.0434
17016TIP3    H172539   1.500   5.750   1.423  0.8673 -0.2287  0.2301
17016TIP3    H272540   1.477   5.647   1.316  1.5238 -0.9310  0.7534
17017TIP3   OH272541   3.478   2.063  14.420  0.2721 -0.2593  0.4474
17017TIP3    H172542   3.470   1.967  14.419  0.2050 -0.3037  2.5419
17017TIP3    H272543   3.388   2.095  14.418  0.2958 -0.1316 -2.2585
17018TIP3   OH272544   1.564   0.711   1.595 -0.2094 -0.1742  0.6126
17018TIP3    H172545   1.624   0.659   1.648 -0.2771  0.6854  1.5790
17018TIP3    H272546   1.521   0.769   1.658 -0.1836  0.9944 -0.3969
17019TIP3   OH272547   6.558   0.382   6.151  0.2499  0.0739 -0.3116
17019TIP3    H172548   6.494   0.418   6.213  0.9979 -0.8940  1.0868
17019TIP3    H272549   6.640   0.424   6.173  0.1281  1.4160 -2.1997
17020TIP3   OH272550   6.251   0.483  17.023  0.3095 -0.4679 -0.1390
17020TIP3    H172551   6.266   0.450  17.112 -1.2534  0.4275  0.4860
17020TIP3    H272552   6.272   0.409  16.967  0.2620 -1.4103  1.0388
17021TIP3   OH272553   6.485   5.121   5.805 -0.1885  0.1362  0.1987
17021TIP3    H172554   6.523   5.184   5.744 -0.0679 -0.1048  0.0225
17021TIP3    H272555   6.394   5.113   5.778  0.1206 -0.7672 -0.6281
17022TIP3   OH272556   4.213   2.829  15.264 -0.1135 -0.6374  0.1318
17022TIP3    H172557   4.172   2.894  15.322 -0.5995  1.3977 -2.3003
17022TIP3    H272558   4.205   2.867  15.177 -0.7883 -4.2010 -1.5292
17023TIP3   OH272559   2.786   0.530  11.877  0.2784 -0.0332 -0.3261
17023TIP3    H172560   2.870   0.485  11.881 -0.7197 -1.8412  1.7823
17023TIP3    H272561   2.759   0.540  11.968 -0.8265  2.4909 -0.8462
17024TIP3   OH272562   5.075   1.495  13.935  0.0453 -0.1277  0.2396
17024TIP3    H172563   5.024   1.576  13.924  0.0127 -0.0302  1.0601
17024TIP3    H272564   5.166   1.523  13.922 -0.0701 -0.2468 -0.9310
17025TIP3   OH272565   4.430   2.174  15.817 -0.1111 -0.4443 -0.2046
17025TIP3    H172566   4.468   2.106  15.872  0.6391  0.9791  1.0998
17025TIP3    H272567   4.503   2.205  15.763 -0.3292 -0.3295 -0.4338
17026TIP3   OH272568   5.524   2.183  16.981  0.0208 -0.0485 -0.2322
17026TIP3    H172569   5.532   2.228  16.897  0.5165 -1.6126 -1.0721
17026TIP3    H272570   5.440   2.137  16.975 -0.2221  0.3176  0.3761
17027TIP3   OH272571   5.251   6.248  14.559  0.5443  0.0379  0.2604
17027TIP3    H172572   5.178   6.257  14.621 -0.4921 -2.5702 -0.4362
17027TIP3    H272573   5.240   6.322  14.499  0.6755  1.7596  2.2331
17028TIP3   OH272574   2.118   4.931   0.390  0.7320  0.1451 -0.2382
17028TIP3    H172575   2.175   4.921   0.313  0.2009  2.1601 -0.9666
17028TIP3    H272576   2.175   4.911   0.465  1.4300 -1.2555 -1.0990
17029TIP3   OH272577   0.933   6.081  12.959  0.2696 -0.3497  0.1532
17029TIP3    H172578   0.917   6.029  12.880  0.0960 -1.5973  0.9824
17029TIP3    H272579   0.851   6.074  13.009 -0.3000  1.9165 -0.3376
17030TIP3   OH272580   0.795   1.466  16.468 -0.2167 -0.2974 -0.7068
17030TIP3    H172581   0.727   1.431  16.410 -0.4066 -0.9669 -0.0870
17030TIP3    H272582   0.877   1.433  16.431 -0.4266 -2.0088  0.2446
17031TIP3   OH272583   6.642   3.583  12.452 -0.1251  0.0827  0.2610
17031TIP3    H172584   6.602   3.501  12.424 -0.6071 -0.1931  1.6798
17031TIP3    H272585   6.726   3.586  12.405 -2.0624  1.1435 -3.5676
17032TIP3   OH272586   1.491   4.938  12.434 -0.2411  0.3507 -0.6984
17032TIP3    H172587   1.401   4.925  12.465  0.0864  2.0986  1.2211
17032TIP3    H272588   1.486   4.924  12.340 -2.3704 -0.3299 -0.5461
17033TIP3   OH272589   6.053   1.785   5.320  0.1330  0.2154 -0.1273
17033TIP3    H172590   6.087   1.755   5.404 -0.0341  0.1891 -0.0673
17033TIP3    H272591   6.127   1.779   5.260 -0.2072 -1.6018 -0.4426
17034TIP3   OH272592   3.570   4.593   5.284 -0.6396  0.1481  0.0362
17034TIP3    H172593   3.576   4.497   5.279  0.3411  0.2534 -1.4354
17034TIP3    H272594   3.655   4.619   5.320 -1.5634  0.3975  2.1525
17035TIP3   OH272595   6.086   3.061   0.935  0.0625  0.1531 -0.1345
17035TIP3    H172596   6.097   3.018   1.020 -3.3872 -3.1762 -1.0755
17035TIP3    H272597   6.022   3.130   0.951  0.9868  0.9248  0.2984
17036TIP3   OH272598   2.568   0.706   0.128  0.5727  0.0200  0.1829
17036TIP3    H172599   2.604   0.795   0.126 -0.5453  0.4741 -0.2421
17036TIP3    H272600   2.483   0.714   0.086  1.5622 -1.7560 -2.3581
17037TIP3   OH272601   5.806   2.256   6.017  0.8155  0.4528 -0.2497
17037TIP3    H172602   5.788   2.224   6.105  1.5727  1.7170  0.4009
17037TIP3    H272603   5.755   2.337   6.010  0.4436  0.1529 -1.1344
17038TIP3   OH272604   5.949   2.262   3.782  0.0255 -0.2132 -0.3263
17038TIP3    H172605   5.924   2.351   3.758 -0.0040 -0.1566 -0.0859
17038TIP3    H272606   5.892   2.205   3.729  0.3381 -0.0971 -0.8023
17039TIP3   OH272607   1.801   3.704  13.637  0.3056 -0.2992  0.1529
17039TIP3    H172608   1.788   3.610  13.620 -1.0451 -0.0432 -0.3064
17039TIP3    H272609   1.824   3.708  13.730 -1.0599 -0.9863  0.5480
17040TIP3   OH272610   4.767   0.468  11.641 -0.6220  0.1934 -0.9009
17040TIP3    H172611   4.720   0.400  11.689 -0.1602 -0.0911 -0.8468
17040TIP3    H272612   4.857   0.460  11.670 -0.5148  0.6559 -1.0976
17041TIP3   OH272613   5.491   2.078   2.734 -0.1058 -0.2359 -0.3828
17041TIP3    H172614   5.543   2.107   2.809  1.3133 -2.8198 -0.2319
17041TIP3    H272615   5.531   2.121   2.658  0.4958 -0.0417  0.0396
17042TIP3   OH272616   2.793   5.812   3.183  0.0143 -0.5791  0.0499
17042TIP3    H172617   2.865   5.818   3.245 -0.4592 -0.3548  0.5912
17042TIP3    H272618   2.742   5.737   3.213 -1.3773  0.7605  1.2171
17043TIP3   OH272619   4.022   0.780   5.971 -0.3595 -0.1279  0.0270
17043TIP3    H172620   3.967   0.711   5.935  0.2174 -0.8659  0.5436
17043TIP3    H272621   4.027   0.845   5.901 -2.4001  0.2739  0.1894
17044TIP3   OH272622   2.269   5.676   3.390  0.2117  0.1064 -0.8464
17044TIP3    H172623   2.261   5.734   3.466  2.0418  0.8161 -1.1539
17044TIP3    H272624   2.192   5.697   3.336  0.1445  1.2989 -0.3186
17045TIP3   OH272625   5.380   5.607  11.045  0.6472  0.4525 -0.0351
17045TIP3    H172626   5.367   5.554  10.967 -0.5406  1.7759 -0.7806
17045TIP3    H272627   5.389   5.696  11.013  3.1543  0.7075  1.1513
17046TIP3   OH272628   0.673   0.589   2.993 -0.1852 -0.0145  0.8207
17046TIP3    H172629   0.631   0.652   3.052  0.0366  0.0355  0.9264
17046TIP3    H272630   0.728   0.644   2.936 -0.3969 -0.0621  0.5681
17047TIP3   OH272631   4.186   0.343   1.862  0.4763 -0.1159 -0.1521
17047TIP3    H172632   4.120   0.352   1.930  0.6070  0.6743 -0.1189
17047TIP3    H272633   4.213   0.251   1.866 -3.9498 -1.9514 -3.2267
17048TIP3   OH272634   1.157   4.936   3.975 -0.3746 -0.3950  0.3376
17048TIP3    H172635   1.072   4.976   3.989 -0.5181 -0.1447 -1.0777
17048TIP3    H272636   1.218   4.992   4.023 -0.9029 -0.1040  0.6790
17049TIP3   OH272637   1.556   3.652   4.511  0.2411 -0.0038 -0.1028
17049TIP3    H172638   1.622   3.583   4.515  0.7481  0.5322  1.3220
17049TIP3    H272639   1.474   3.608   4.533  0.5968 -0.1169  1.0152
17050TIP3   OH272640   5.408   4.672   4.292 -0.6274 -0.2508  0.5479
17050TIP3    H172641   5.418   4.767   4.278 -1.7973  0.0905  1.7781
17050TIP3    H272642   5.352   4.666   4.369 -0.5471 -1.9657  0.4924
17051TIP3   OH272643   2.910   5.407  14.189  0.3822  0.1360  0.8084
17051TIP3    H172644   2.987   5.464  14.197  0.3677  0.3884 -0.6820
17051TIP3    H272645   2.835   5.465  14.199  0.3716  0.3403 -0.3551
17052TIP3   OH272646   5.535   4.922  11.952 -0.3281  0.1692 -0.4595
17052TIP3    H172647   5.566   4.966  11.873  0.4897 -1.2048 -0.9306
17052TIP3    H272648   5.443   4.949  11.960  0.1933  2.1243 -0.5767
17053TIP3   OH272649   2.291   2.924   5.607 -0.1781  0.2782  0.6945
17053TIP3    H172650   2.363   2.881   5.654  0.5453  0.5257 -0.1368
17053TIP3    H272651   2.228   2.949   5.674  0.8507  0.6787  1.5349
17054TIP3   OH272652   4.613   5.596   2.675  0.2642  0.6051 -0.4606
17054TIP3    H172653   4.666   5.676   2.676  0.7141  0.3121 -0.2390
17054TIP3    H272654   4.539   5.616   2.617  0.7048  0.9657 -0.9052
17055TIP3   OH272655   4.484   3.097  16.703  0.2430  0.0105 -0.1261
17055TIP3    H172656   4.489   3.002  16.706  0.2039 -0.2352 -3.6745
17055TIP3    H272657   4.439   3.122  16.784 -0.9916 -3.0792  0.2642
17056TIP3   OH272658   3.623   1.954   4.795  0.5629 -0.7050 -0.3609
17056TIP3    H172659   3.695   1.981   4.852  0.0328 -1.8313  0.8905
17056TIP3    H272660   3.567   1.900   4.850 -0.1639 -1.5693 -1.8718
17057TIP3   OH272661   6.386   5.154   3.087 -0.5150  0.1371  0.3799
17057TIP3    H172662   6.466   5.108   3.112 -0.3614 -0.2704 -0.7945
17057TIP3    H272663   6.338   5.165   3.170  1.0482  1.0209  1.2130
17058TIP3   OH272664   4.132   6.192   2.696 -0.5982 -0.1124 -0.1723
17058TIP3    H172665   4.053   6.246   2.699 -0.7419 -0.2637 -1.0273
17058TIP3    H272666   4.117   6.132   2.623  1.2007  1.2842 -1.8043
17059TIP3   OH272667   2.900   6.629   5.792  0.4034 -0.0952  0.0243
17059TIP3    H172668   2.975   6.570   5.780 -0.6413 -1.0490 -3.0089
17059TIP3    H272669   2.933   6.715   5.768  1.3374  0.1701  2.1113
17060TIP3   OH272670   1.461   6.363  11.887 -0.3026  0.0132  0.4563
17060TIP3    H172671   1.446   6.351  11.793  0.8533 -3.0780  0.5467
17060TIP3    H272672   1.393   6.424  11.915 -1.7553 -0.3258 -2.0549
17061TIP3   OH272673   2.827   3.793   1.273 -0.1973 -0.5700  0.3543
17061TIP3    H172674   2.760   3.729   1.251 -0.1352 -0.9761  1.2648
17061TIP3    H272675   2.909   3.752   1.246  0.0039 -1.6065  2.3349
17062TIP3   OH272676   5.099   1.611  12.941 -0.3174  0.4530 -0.0268
17062TIP3    H172677   5.168   1.613  12.875  2.1914  0.3503  2.4067
17062TIP3    H272678   5.087   1.518  12.961 -1.6435  0.4261 -0.8596
17063TIP3   OH272679   5.333   1.118  14.585  0.1170 -0.2060 -0.3718
17063TIP3    H172680   5.300   1.045  14.638  1.5186 -0.1559  0.6024
17063TIP3    H272681   5.286   1.194  14.618  0.0588 -0.3710 -0.0697
17064TIP3   OH272682   6.396   0.395   4.597 -0.0341  0.1364  0.6511
17064TIP3    H172683   6.413   0.469   4.655 -1.6981 -0.7123  2.3409
17064TIP3    H272684   6.459   0.328   4.624 -1.6808 -0.7486  2.5331
17065TIP3   OH272685   6.508   5.603   0.353  0.4428  0.1784 -0.4915
17065TIP3    H172686   6.447   5.677   0.359  0.4213  0.1853 -0.8123
17065TIP3    H272687   6.548   5.599   0.440  1.4337  1.4289 -0.8603
17066TIP3   OH272688   0.724   4.410   5.326 -0.0135 -0.4494  0.3359
17066TIP3    H172689   0.762   4.330   5.291  0.4395 -1.3314  2.6790
17066TIP3    H272690   0.766   4.481   5.277  0.7010 -1.5690 -0.7180
17067TIP3   OH272691   1.014   4.886   5.156  0.4471  0.3420  0.3453
17067TIP3    H172692   0.947   4.909   5.093  2.0112  1.2464 -1.0678
17067TIP3    H272693   1.005   4.791   5.169 -0.6470  0.3534 -0.3142
17068TIP3   OH272694   0.911   2.534  10.509  0.8405 -0.6501 -0.1770
17068TIP3    H172695   0.819   2.542  10.534  0.0484 -1.1089 -2.6611
17068TIP3    H272696   0.941   2.625  10.499  0.9028 -0.4800  1.2842
17069TIP3   OH272697   2.254   2.687   2.746  0.5833  0.3312 -0.0789
17069TIP3    H172698   2.294   2.774   2.746  1.6565 -0.1383  0.0311
17069TIP3    H272699   2.160   2.704   2.745  0.7694  1.4880 -0.2084
17070TIP3   OH272700   5.569   6.479  17.121 -0.6040 -0.1085  0.3178
17070TIP3    H172701   5.499   6.418  17.099 -1.1820  0.1902  1.2653
17070TIP3    H272702   5.537   6.565  17.092 -1.2483  0.2435  1.9515
17071TIP3   OH272703   2.118   2.799   1.203 -1.3379  0.2752  0.0506
17071TIP3    H172704   2.204   2.812   1.243 -1.3651  1.5399 -0.2381
17071TIP3    H272705   2.090   2.888   1.179 -2.1943 -0.2457 -0.9387
17072TIP3   OH272706   3.340   4.001  15.214 -0.0331  0.2184  0.5804
17072TIP3    H172707   3.317   4.092  15.228 -0.5445  0.0127  1.1369
17072TIP3    H272708   3.283   3.972  15.142 -1.7040 -0.3336  2.0615
17073TIP3   OH272709   3.693   3.665   4.181 -0.2103 -0.1743  0.0321
17073TIP3    H172710   3.639   3.597   4.220  1.8095 -0.9259  1.6887
17073TIP3    H272711   3.783   3.638   4.198  0.7173  1.6335 -1.5218
17074TIP3   OH272712   1.442   3.388   5.300 -0.0146 -0.0023  0.2686
17074TIP3    H172713   1.413   3.356   5.386  0.2262 -0.7784  0.0751
17074TIP3    H272714   1.529   3.348   5.289 -0.6495 -1.1074 -0.9563
17075TIP3   OH272715   2.547   2.940   4.956  0.5572  0.1071  0.4545
17075TIP3    H172716   2.614   2.922   5.023 -0.3851 -1.5238  1.0000
17075TIP3    H272717   2.560   2.872   4.890  0.7028  0.9978 -0.4623
17076TIP3   OH272718   3.907   4.620  17.259 -0.6700  0.1881  0.1997
17076TIP3    H172719   3.899   4.533  17.297 -2.3239 -1.1491 -2.7822
17076TIP3    H272720   3.818   4.657  17.264 -0.4194  0.8914 -0.2862
17077TIP3   OH272721   2.927   2.199   5.029  0.4044  0.0978  0.4859
17077TIP3    H172722   2.954   2.166   4.943  0.6057 -0.9464  0.9382
17077TIP3    H272723   2.893   2.122   5.074  0.7370  0.5514  1.5194
17078TIP3   OH272724   3.520   3.183   0.504  0.4688  0.2356 -0.0248
17078TIP3    H172725   3.472   3.164   0.585  0.4892  0.7170  0.1022
17078TIP3    H272726   3.456   3.166   0.435  0.4469 -0.1641  0.0927
17079TIP3   OH272727   2.123   0.426   3.401  0.3475 -0.4131 -0.0424
17079TIP3    H172728   2.144   0.335   3.381 -1.2701 -0.8037 -0.1639
17079TIP3    H272729   2.029   0.425   3.421  0.3070  1.2176  0.0141
17080TIP3   OH272730   0.492   2.887   2.744 -0.2916  0.1641 -0.3037
17080TIP3    H172731   0.517   2.856   2.831 -0.0716 -0.1858 -0.4887
17080TIP3    H272732   0.527   2.821   2.684 -0.3030  0.4870 -0.6680
17081TIP3   OH272733   4.910   0.671   3.770  0.2194  0.4249  0.7488
17081TIP3    H172734   4.872   0.722   3.699 -1.0763 -0.6248  0.6552
17081TIP3    H272735   4.871   0.706   3.850 -0.2076  0.0052  0.7313
17082TIP3   OH272736   6.369   1.716  17.195 -0.3112 -0.3679 -0.0087
17082TIP3    H172737   6.302   1.773  17.231 -0.6544  1.0302 -2.6195
17082TIP3    H272738   6.446   1.733  17.249 -0.8717  1.3210  0.3302
17083TIP3   OH272739   4.473   2.304   2.296  0.1038 -0.0980 -0.2259
17083TIP3    H172740   4.436   2.227   2.252 -3.1528  0.0140  2.0465
17083TIP3    H272741   4.535   2.267   2.359 -0.4607 -0.7965 -0.0586
17084TIP3   OH272742   2.981   2.235  13.047  0.3250 -0.1552 -0.3382
17084TIP3    H172743   3.000   2.329  13.040  0.4075 -0.1755 -0.3909
17084TIP3    H272744   3.063   2.193  13.022  0.3770 -0.2374 -0.0252
17085TIP3   OH272745   0.907   5.167  11.150  0.0922  0.4154 -0.2737
17085TIP3    H172746   0.832   5.218  11.180 -0.1933  0.1180 -0.4666
17085TIP3    H272747   0.934   5.209  11.068 -0.7956 -0.3533 -0.9782
17086TIP3   OH272748   0.110   3.685  12.881 -0.2984  0.0042 -0.5812
17086TIP3    H172749   0.019   3.712  12.891  0.2943  1.2910  2.1371
17086TIP3    H272750   0.146   3.747  12.817 -0.5128  1.7951  0.9644
17087TIP3   OH272751   5.870   0.476  10.639  0.1320  0.7783 -0.5538
17087TIP3    H172752   5.946   0.491  10.696 -0.3428  0.1482  0.2659
17087TIP3    H272753   5.795   0.503  10.692 -0.1985  1.9235 -1.5544
17088TIP3   OH272754   1.424   1.871   2.477 -0.5668 -0.3032  0.2871
17088TIP3    H172755   1.366   1.819   2.421  0.0974  0.7876 -1.4548
17088TIP3    H272756   1.406   1.962   2.454  0.8947  0.1111  0.6707
17089TIP3   OH272757   5.889   0.055  14.960  0.0335  0.1906 -0.0197
17089TIP3    H172758   5.970   0.005  14.948  1.0422  1.2505  1.8660
17089TIP3    H272759   5.912   0.123  15.025 -2.9692 -0.9915  2.5584
17090TIP3   OH272760   3.998   2.575   2.892  0.3301 -0.7295  0.3455
17090TIP3    H172761   3.939   2.542   2.824 -1.7153 -1.4256  2.3420
17090TIP3    H272762   3.948   2.645   2.934  1.6973 -0.0694  0.9277
17091TIP3   OH272763   3.342   4.895   2.319  0.2072 -0.5054 -0.0291
17091TIP3    H172764   3.325   4.825   2.256  1.2442 -1.7046  0.9568
17091TIP3    H272765   3.257   4.934   2.336 -0.4174 -1.6111 -0.5325
17092TIP3   OH272766   2.180   3.003   2.529 -0.2145  0.4711  0.1224
17092TIP3    H172767   2.093   2.965   2.527 -0.6133  1.3647 -0.4836
17092TIP3    H272768   2.212   2.988   2.618 -0.3287 -1.2636 -0.1011
17093TIP3   OH272769   0.306   2.497  15.120  0.2078  0.5847  0.6558
17093TIP3    H172770   0.331   2.437  15.191 -0.0053  1.8154  1.8201
17093TIP3    H272771   0.273   2.440  15.051  0.7960 -0.6851  1.3843
17094TIP3   OH272772   1.566   1.985  12.827  0.2796  0.5274  0.4584
17094TIP3    H172773   1.550   2.034  12.747  0.0519  0.9616  0.7656
17094TIP3    H272774   1.480   1.977  12.868  0.1252 -1.0781 -0.1148
17095TIP3   OH272775   3.826   1.261  17.040 -0.2031  0.5242 -0.2417
17095TIP3    H172776   3.906   1.225  17.078  0.1790  2.0409  0.4502
17095TIP3    H272777   3.770   1.280  17.115 -1.0979 -0.1831 -0.7018
17096TIP3   OH272778   6.466   2.420   2.123  0.2653  0.1489 -0.7588
17096TIP3    H172779   6.477   2.377   2.037 -1.2534 -0.7145 -0.5521
17096TIP3    H272780   6.528   2.375   2.180  0.0618 -0.4614 -1.0100
17097TIP3   OH272781   1.828   1.807  12.379  0.1490 -0.7208 -0.2856
17097TIP3    H172782   1.832   1.729  12.325  0.3048 -0.6829 -0.3306
17097TIP3    H272783   1.751   1.854  12.349 -0.2941 -1.1583  0.1542
17098TIP3   OH272784   1.040   3.600   4.979 -0.3114  0.0161 -0.3739
17098TIP3    H172785   0.956   3.637   5.006 -0.2371  0.0398 -0.1737
17098TIP3    H272786   1.095   3.603   5.058 -0.7230 -1.7371  0.0270
17099TIP3   OH272787   3.345   0.103   2.409  0.4978 -0.0002  0.2060
17099TIP3    H172788   3.250   0.095   2.404  0.5714 -0.9254  0.0290
17099TIP3    H272789   3.362   0.197   2.410 -0.3641  0.1935 -1.0116
17100TIP3   OH272790   2.597   1.231  15.231  0.0985  0.4321  0.4835
17100TIP3    H172791   2.555   1.233  15.317  0.5547  0.2667  0.7132
17100TIP3    H272792   2.689   1.249  15.249  0.5465 -1.4252  0.2531
17101TIP3   OH272793   0.450   1.006   2.550 -0.3445 -0.0010  0.1813
17101TIP3    H172794   0.523   1.068   2.554  0.4731 -1.0054  2.3138
17101TIP3    H272795   0.491   0.921   2.538 -1.3067 -0.3803 -0.5296
17102TIP3   OH272796   3.412   5.784   3.412  0.1531 -0.7326  0.1965
17102TIP3    H172797   3.392   5.768   3.504  1.0068 -0.3529  0.4596
17102TIP3    H272798   3.437   5.877   3.409 -1.2788 -0.3401 -0.6752
17103TIP3   OH272799   4.840   4.487  13.542  0.1528  0.3229 -0.0132
17103TIP3    H172800   4.909   4.520  13.599 -0.5989  1.1545  0.4364
17103TIP3    H272801   4.774   4.451  13.602 -0.2781  0.4845 -0.3817
17104TIP3   OH272802   4.469   5.296  15.422  0.4296 -0.3732 -0.6281
17104TIP3    H172803   4.412   5.266  15.493  2.2115  0.0117  1.0539
17104TIP3    H272804   4.463   5.392  15.426  1.4270 -0.3179 -0.2031
17105TIP3   OH272805   1.807   5.249   4.573  0.3330 -0.2234 -0.2191
17105TIP3    H172806   1.825   5.189   4.500 -0.4479  0.6137 -1.1427
17105TIP3    H272807   1.767   5.194   4.640  1.8562 -1.1748 -0.0504
17106TIP3   OH272808   2.932   6.555  12.869 -0.3158 -0.4537 -0.0478
17106TIP3    H172809   3.025   6.541  12.849  0.4973  2.0444  1.5238
17106TIP3    H272810   2.918   6.507  12.950 -0.5763 -1.2443 -0.5444
17107TIP3   OH272811   4.972   6.683  11.475 -0.0232  0.3466  0.0262
17107TIP3    H172812   5.063   6.657  11.467 -0.1095  0.0647 -0.0635
17107TIP3    H272813   4.971   6.749  11.544  0.4067  1.1248 -0.6903
17108TIP3   OH272814   0.605   2.077  12.982  0.0349  0.3041 -0.0991
17108TIP3    H172815   0.628   2.027  12.904 -1.6432  0.5032 -0.7478
17108TIP3    H272816   0.569   2.012  13.043 -0.2677  0.4236 -0.1535
17109TIP3   OH272817   5.652   0.919  12.309 -0.2073 -0.1865  0.6264
17109TIP3    H172818   5.624   0.851  12.370  1.1130 -1.7782 -0.4669
17109TIP3    H272819   5.649   0.877  12.223 -0.0014  1.3501 -0.1736
17110TIP3   OH272820   3.670   4.228   6.920 -0.4193  0.3107  0.4065
17110TIP3    H172821   3.601   4.187   6.867  0.9244 -1.4654 -0.0775
17110TIP3    H272822   3.646   4.208   7.010  0.4175 -2.0323  0.1685
17111TIP3   OH272823   1.767   0.928   4.257 -0.0191  0.8024  0.2764
17111TIP3    H172824   1.778   1.022   4.243  1.6507  0.6645  0.4704
17111TIP3    H272825   1.799   0.913   4.346  0.3552 -0.0283  0.0132
17112TIP3   OH272826   1.604   2.338   1.848  0.3028  0.1470  0.2499
17112TIP3    H172827   1.677   2.378   1.895 -0.3517  1.5104  0.1332
17112TIP3    H272828   1.608   2.377   1.761 -2.8204  3.2922  1.3085
17113TIP3   OH272829   4.284   0.588   1.904  0.4563 -0.0380 -1.0097
17113TIP3    H172830   4.333   0.613   1.983 -0.6327 -0.4443 -0.1734
17113TIP3    H272831   4.269   0.494   1.915  0.3827 -0.1146 -1.7615
17114TIP3   OH272832   1.813   6.156  16.255 -0.7573 -0.2234 -0.3793
17114TIP3    H172833   1.827   6.194  16.168 -0.9912  2.2137  0.5577
17114TIP3    H272834   1.900   6.130  16.285 -0.6268 -0.7411 -1.2019
17115TIP3   OH272835   1.055   5.592  14.749  0.1648  0.0251 -0.7173
17115TIP3    H172836   1.041   5.601  14.655 -0.5240 -0.4058 -0.6617
17115TIP3    H272837   1.121   5.658  14.770 -2.1327  2.5850 -0.9249
17116TIP3   OH272838   5.977   1.102  17.353  0.2832  0.3241 -0.7005
17116TIP3    H172839   5.883   1.085  17.366  0.4000 -0.3374 -0.6609
17116TIP3    H272840   5.986   1.114  17.259  0.3225 -0.7794 -0.8584
17117TIP3   OH272841   4.848   6.134  16.608 -0.0298 -0.4564  0.5787
17117TIP3    H172842   4.775   6.166  16.556  0.5977  0.7063  0.3784
17117TIP3    H272843   4.807   6.087  16.681 -0.9651 -0.0583  0.3254
17118TIP3   OH272844   3.194   5.498   4.406 -0.0047 -0.4766  0.2171
17118TIP3    H172845   3.130   5.458   4.347  0.7560 -0.1528 -0.8504
17118TIP3    H272846   3.173   5.591   4.406  0.8072 -0.2742 -0.6141
17119TIP3   OH272847   6.663   6.217   3.617  0.1617 -0.3078  0.1724
17119TIP3    H172848   6.608   6.240   3.542 -1.1721 -3.7352 -0.1075
17119TIP3    H272849   6.638   6.280   3.685  0.4575  2.0606 -1.7792
17120TIP3   OH272850   0.957   2.524  16.140 -0.5345  0.0030  0.4108
17120TIP3    H172851   0.876   2.528  16.089  0.5135  0.3130 -1.3005
17120TIP3    H272852   1.001   2.607  16.123 -0.0563  0.0456  1.7070
17121TIP3   OH272853   1.719   2.571  15.777 -0.4800 -0.1347  0.2146
17121TIP3    H172854   1.753   2.607  15.695  1.1413  0.8140  1.2625
17121TIP3    H272855   1.641   2.623  15.795  0.4771  1.2716  0.4569
17122TIP3   OH272856   2.592   3.440   4.668 -0.7720  0.2054 -0.6244
17122TIP3    H172857   2.496   3.432   4.671 -0.6141 -2.3813  1.9415
17122TIP3    H272858   2.623   3.389   4.743  2.6346  1.5978 -0.8880
17123TIP3   OH272859   6.629   0.913   5.396  0.6021 -0.8776 -0.0883
17123TIP3    H172860   6.607   0.838   5.341 -0.2500  0.2433 -1.3549
17123TIP3    H272861   6.566   0.909   5.468 -0.0320 -0.8884 -0.6322
17124TIP3   OH272862   1.023   0.865   2.690  0.0881  0.1123 -0.1010
17124TIP3    H172863   1.030   0.776   2.724 -1.6745 -0.8160 -1.9206
17124TIP3    H272864   1.101   0.877   2.636  0.9450  0.1692  1.1070
17125TIP3   OH272865   2.558   6.552   1.846  0.2570  0.0314  0.3136
17125TIP3    H172866   2.564   6.577   1.753 -1.0021  0.9537  0.4561
17125TIP3    H272867   2.525   6.462   1.845 -0.0634  0.1504 -0.1336
17126TIP3   OH272868   5.762   1.829   2.385 -0.3646 -0.1823  0.6347
17126TIP3    H172869   5.767   1.734   2.377 -2.4868 -0.3988  1.3739
17126TIP3    H272870   5.777   1.847   2.477 -2.2457 -0.0434  0.9528
17127TIP3   OH272871   0.750   6.233   2.056  0.1328  0.1696 -0.2308
17127TIP3    H172872   0.675   6.251   2.113 -0.5076 -2.5447 -0.0333
17127TIP3    H272873   0.747   6.301   1.990 -1.0206  1.5683  1.1800
17128TIP3   OH272874   1.062   1.665  11.777 -0.6971  0.3735  0.4249
17128TIP3    H172875   1.113   1.639  11.853  1.2041  0.7045 -0.6859
17128TIP3    H272876   1.127   1.685  11.709 -2.2917  1.0003 -1.0016
17129TIP3   OH272877   6.224   5.716  16.028  0.6502  0.4110  0.2723
17129TIP3    H172878   6.311   5.710  15.988  0.9334  1.4968  0.7036
17129TIP3    H272879   6.239   5.710  16.122 -0.0931 -2.9835  0.3244
17130TIP3   OH272880   1.947   5.046   2.508  0.6070 -0.2620 -0.2208
17130TIP3    H172881   1.952   5.086   2.421 -1.4213 -1.6818 -1.0629
17130TIP3    H272882   1.934   4.953   2.491  0.5993 -0.6330  1.6207
17131TIP3   OH272883   1.771   2.118   0.368 -0.0262 -0.1876  0.2174
17131TIP3    H172884   1.713   2.071   0.428 -1.0150 -0.0594 -0.6114
17131TIP3    H272885   1.759   2.210   0.390 -0.5308 -0.1289 -0.2984
17132TIP3   OH272886   4.065   1.006   0.383 -0.3351  0.2795 -0.0629
17132TIP3    H172887   4.088   1.099   0.376 -0.2269  0.2831  0.3083
17132TIP3    H272888   3.997   1.003   0.450 -0.0346  0.0438  0.2377
17133TIP3   OH272889   0.703   4.841  17.060  0.0462 -0.4193  0.4622
17133TIP3    H172890   0.739   4.830  17.148 -0.8110  0.5924  0.9550
17133TIP3    H272891   0.637   4.910  17.069  1.3891  1.2155 -1.3793
17134TIP3   OH272892   4.403   5.620   2.481 -0.0657  0.3825  0.2605
17134TIP3    H172893   4.415   5.597   2.388 -1.0327 -1.3319  0.5172
17134TIP3    H272894   4.315   5.656   2.486 -0.2611 -0.1268  0.6001
17135TIP3   OH272895   6.741   2.602  16.170  0.6764 -0.2558 -0.1650
17135TIP3    H172896   6.722   2.514  16.202  1.0075  0.1469  1.2108
17135TIP3    H272897   6.781   2.647  16.244 -1.5252  1.7718 -0.0470
17136TIP3   OH272898   3.434   4.628  11.317 -0.5890  0.3026  0.0518
17136TIP3    H172899   3.427   4.650  11.225 -0.4114 -3.1116 -0.9019
17136TIP3    H272900   3.529   4.623  11.333 -0.6257 -0.1911  0.1193
17137TIP3   OH272901   6.677   4.223  10.884 -0.1903  0.0474  0.2623
17137TIP3    H172902   6.590   4.211  10.846  0.0966 -0.5919 -0.1997
17137TIP3    H272903   6.733   4.244  10.810 -0.1083  1.3839  0.6722
17138TIP3   OH272904   0.042   4.621   5.701 -0.2619 -0.0452  0.1579
17138TIP3    H172905   0.133   4.632   5.673  0.0913 -0.5601  1.0392
17138TIP3    H272906   0.024   4.528   5.688 -0.5310 -0.0225  0.3529
17139TIP3   OH272907   5.542   5.212   4.072 -0.2807 -0.4377 -0.0732
17139TIP3    H172908   5.521   5.275   4.141 -1.2752  0.5473 -1.2165
17139TIP3    H272909   5.637   5.199   4.079 -0.2667  0.1315  1.0548
17140TIP3   OH272910   5.817   6.266   2.638  0.2448 -0.3770  0.0757
17140TIP3    H172911   5.854   6.340   2.590 -2.0641 -1.7940 -4.4821
17140TIP3    H272912   5.727   6.294   2.658 -0.0170 -1.2011  0.0855
17141TIP3   OH272913   4.332   5.807  14.543 -0.3233  0.3131  0.6289
17141TIP3    H172914   4.417   5.823  14.583  0.7051 -0.6843 -1.0670
17141TIP3    H272915   4.343   5.832  14.452 -1.6410 -0.4648  0.2259
17142TIP3   OH272916   0.433   3.735   2.717 -0.4704  0.8093  0.3092
17142TIP3    H172917   0.500   3.765   2.655 -1.4476 -0.3200 -1.3594
17142TIP3    H272918   0.482   3.717   2.797  1.6466 -1.8402 -1.3992
17143TIP3   OH272919   6.133   2.741  14.349 -0.2411 -0.1813 -0.0336
17143TIP3    H172920   6.212   2.793  14.363  0.0349 -0.2818 -1.1503
17143TIP3    H272921   6.149   2.695  14.267 -0.9273 -1.2089  0.3929
17144TIP3   OH272922   1.621   2.887  11.857 -0.7679  0.6594  0.0726
17144TIP3    H172923   1.540   2.932  11.879 -0.1555  1.9961 -0.3358
17144TIP3    H272924   1.686   2.921  11.918 -0.3291  0.1836 -0.1120
17145TIP3   OH272925   0.542   3.527   3.812  0.3961  0.3351 -0.3985
17145TIP3    H172926   0.612   3.578   3.852 -0.6400  1.2363  0.3482
17145TIP3    H272927   0.586   3.465   3.755  1.7484  1.4031 -0.5504
17146TIP3   OH272928   5.093   0.675  17.197 -0.3087 -0.6561  0.0512
17146TIP3    H172929   5.056   0.604  17.249 -1.4087 -0.3626 -0.3154
17146TIP3    H272930   5.029   0.690  17.127  0.9888 -0.8406 -1.2301
17147TIP3   OH272931   2.984   2.442   6.043  0.4438 -0.1334  0.2500
17147TIP3    H172932   2.987   2.490   5.960 -1.9124  2.9838  1.7240
17147TIP3    H272933   2.916   2.376   6.029 -0.7638  1.1122 -0.0537
17148TIP3   OH272934   0.341   2.208   2.174 -0.0885  1.1741  0.0342
17148TIP3    H172935   0.415   2.149   2.187 -0.6312  0.3321 -0.5595
17148TIP3    H272936   0.375   2.277   2.117 -0.2232 -0.2419 -1.8517
17149TIP3   OH272937   5.600   2.700   5.854  0.0755  0.0530  0.2759
17149TIP3    H172938   5.515   2.668   5.884  0.4338 -1.1406  0.1061
17149TIP3    H272939   5.640   2.739   5.932  0.0692 -0.9557  0.8003
17150TIP3   OH272940   2.420   0.047   1.963  0.3844  0.3510 -0.6239
17150TIP3    H172941   2.491   0.110   1.950  0.6953  0.0369 -0.4648
17150TIP3    H272942   2.436  -0.021   1.898 -0.0694  0.5301 -0.9341
17151TIP3   OH272943   0.920   0.974   3.036 -0.0379  0.4814  0.7479
17151TIP3    H172944   0.934   0.949   3.127  2.3204  0.1133  0.3457
17151TIP3    H272945   0.981   1.047   3.021  0.2035  0.0133 -0.7431
17152TIP3   OH272946   1.371   4.450  14.401  0.4499 -0.3097  0.1836
17152TIP3    H172947   1.286   4.457  14.356  0.1427 -1.6351  0.5113
17152TIP3    H272948   1.435   4.448  14.331  0.1468 -0.1601 -0.1021
17153TIP3   OH272949   0.197   0.075  12.552  0.0462  0.2651 -0.0394
17153TIP3    H172950   0.178   0.086  12.458 -1.3540 -0.7523  0.0779
17153TIP3    H272951   0.285   0.037  12.554  1.2420  2.8205 -0.7788
17154TIP3   OH272952   2.165   0.241   1.960 -0.0147 -0.2339 -0.4131
17154TIP3    H172953   2.219   0.164   1.982  1.2524  0.9602  0.9142
17154TIP3    H272954   2.229   0.310   1.943 -1.1344  0.4703 -1.9215
17155TIP3   OH272955   1.941   1.413   0.145  0.3165  0.3438  0.4529
17155TIP3    H172956   1.885   1.384   0.217  0.1786 -0.7156 -0.0602
17155TIP3    H272957   1.882   1.420   0.070  0.9755 -1.6087 -0.3067
17156TIP3   OH272958   0.168   3.911   6.801  0.7986  0.8584 -0.3585
17156TIP3    H172959   0.096   3.961   6.838  1.1400  1.6703 -0.7752
17156TIP3    H272960   0.127   3.832   6.765  0.2851  0.7387  0.4614
17157TIP3   OH272961   1.186   2.057  12.378 -0.2432 -0.2433 -0.0026
17157TIP3    H172962   1.163   2.062  12.470  0.5184  0.5133  0.1578
17157TIP3    H272963   1.125   2.117  12.335  0.3428  0.5135  0.2065
17158TIP3   OH272964   0.856   4.384   4.547  0.6838 -0.5623  0.2450
17158TIP3    H172965   0.833   4.396   4.455 -0.0467  1.5080  0.6220
17158TIP3    H272966   0.771   4.375   4.591  1.0650 -4.3341  0.5049
17159TIP3   OH272967   6.374   4.499   1.471  0.1734  0.1093  0.4342
17159TIP3    H172968   6.348   4.466   1.557  0.7360 -0.3889  0.4213
17159TIP3    H272969   6.324   4.446   1.409  1.6822 -1.3455  0.3857
17160TIP3   OH272970   3.181   4.087   3.038 -0.0522 -0.3658  1.0016
17160TIP3    H172971   3.147   4.177   3.030  1.1781  0.1839  1.6195
17160TIP3    H272972   3.104   4.031   3.025 -0.4806  0.6768 -1.7948
17161TIP3   OH272973   2.983   0.227   5.852 -0.1873 -0.1918  0.1765
17161TIP3    H172974   3.076   0.244   5.863 -0.3239  0.6179  0.1486
17161TIP3    H272975   2.966   0.243   5.760 -0.7020  1.5519  0.5297
17162TIP3   OH272976   3.877   2.696   1.413  0.3249  0.5393  0.2339
17162TIP3    H172977   3.835   2.650   1.486  2.9668  0.0511  1.5493
17162TIP3    H272978   3.859   2.788   1.430 -1.8393  0.2855 -0.3673
17163TIP3   OH272979   4.625   2.381  11.804  0.4546 -0.4718 -0.1093
17163TIP3    H172980   4.706   2.333  11.785  0.6648  0.0419 -0.5111
17163TIP3    H272981   4.560   2.312  11.821  0.8724 -0.8906 -0.2011
17164TIP3   OH272982   1.728   1.374  15.509  0.1249  0.4855 -0.7465
17164TIP3    H172983   1.799   1.310  15.500 -0.6701 -0.5624  0.0638
17164TIP3    H272984   1.708   1.401  15.420 -0.1709 -1.1663 -1.2169
17165TIP3   OH272985   4.509   6.268   0.958 -0.4093 -0.0447 -0.1095
17165TIP3    H172986   4.427   6.316   0.972  0.4906  0.7403  3.2413
17165TIP3    H272987   4.492   6.181   0.995 -0.5341 -0.8787 -1.9759
17166TIP3   OH272988   4.598   1.943  11.812 -0.2143 -0.1357 -0.5185
17166TIP3    H172989   4.517   1.901  11.781 -0.5262 -0.9585  1.2968
17166TIP3    H272990   4.570   2.030  11.841 -0.2583 -0.0581 -0.7873
17167TIP3   OH272991   1.021   3.891   1.363 -0.2521  0.1224  0.2983
17167TIP3    H172992   0.944   3.943   1.386 -0.5908 -0.5970  0.8273
17167TIP3    H272993   1.055   3.859   1.447  0.9629  0.8802  0.1306
17168TIP3   OH272994   5.856   6.313  12.780  0.1682  0.5055  0.0985
17168TIP3    H172995   5.920   6.383  12.764 -0.7953  2.0953  2.5562
17168TIP3    H272996   5.907   6.243  12.820  0.8060  0.6415 -0.4537
17169TIP3   OH272997   5.051   4.927  15.059  0.1786 -0.7399  0.1759
17169TIP3    H172998   4.963   4.935  15.024  0.2594  3.4206  0.4665
17169TIP3    H272999   5.108   4.951  14.986  0.8521 -0.2498  0.8492
17170TIP3   OH273000   2.472   5.465   5.257  0.1471  0.6168 -0.6819
17170TIP3    H173001   2.448   5.402   5.324  0.1938  2.2196  0.9412
17170TIP3    H273002   2.568   5.464   5.257  0.1451  0.3021 -1.0504
17171TIP3   OH273003   4.224   4.767   3.517  0.2424  0.7755  0.2879
17171TIP3    H173004   4.140   4.746   3.477 -0.4949  1.5930  1.3170
17171TIP3    H273005   4.271   4.818   3.451 -0.3693  0.9207 -0.0383
17172TIP3   OH273006   5.997   1.350  12.295 -0.4336  0.6553  0.5049
17172TIP3    H173007   5.948   1.267  12.294 -0.2609  0.5500 -0.6501
17172TIP3    H273008   6.087   1.324  12.316 -0.4621  0.6088  0.5748
17173TIP3   OH273009   1.834   1.249  14.461 -0.6468  0.2739  0.0690
17173TIP3    H173010   1.886   1.320  14.498 -0.1459 -0.4276  0.7210
17173TIP3    H273011   1.824   1.186  14.532 -0.2591 -0.7674 -0.7789
17174TIP3   OH273012   5.174   6.233   0.540 -0.8851 -0.3125  0.1941
17174TIP3    H173013   5.090   6.187   0.536 -1.3619  0.5374  0.1825
17174TIP3    H273014   5.227   6.194   0.471 -0.8345 -1.6949  0.9862
17175TIP3   OH273015   4.866   2.682  16.620  0.4021 -0.2113 -0.5373
17175TIP3    H173016   4.909   2.766  16.607 -0.3002  0.1586 -0.5120
17175TIP3    H273017   4.840   2.654  16.533  0.9728 -0.5992 -0.5933
17176TIP3   OH273018   1.816   5.927  12.640  0.5842  0.1285  0.4323
17176TIP3    H173019   1.735   5.881  12.663 -0.8630  1.7761 -1.1456
17176TIP3    H273020   1.873   5.858  12.605 -0.4367 -0.9294  0.7876
17177TIP3   OH273021   1.395   0.465   1.666 -0.2724  0.0955 -0.7883
17177TIP3    H173022   1.381   0.464   1.760 -2.4794 -0.1830 -1.0776
17177TIP3    H273023   1.443   0.546   1.649 -2.8569  1.9453  0.2202
17178TIP3   OH273024   0.592   5.880   4.702  0.0233 -0.1024 -0.1486
17178TIP3    H173025   0.671   5.827   4.698  0.1612  0.0105  0.8799
17178TIP3    H273026   0.537   5.837   4.767 -0.1305  0.6405  0.2341
17179TIP3   OH273027   6.576   0.357  13.078 -0.3248 -0.1465 -0.0798
17179TIP3    H173028   6.548   0.430  13.024  0.3848  1.7893  2.0258
17179TIP3    H273029   6.666   0.379  13.104 -0.0903 -1.7638  0.6297
17180TIP3   OH273030   3.236   2.242   0.069  0.1239  0.1114  0.5060
17180TIP3    H173031   3.267   2.164   0.115 -0.6073 -0.2787  0.3364
17180TIP3    H273032   3.215   2.304   0.139 -1.4241 -0.6400  0.7500
17181TIP3   OH273033   3.707   5.382  11.934 -0.5054  0.3660 -0.0081
17181TIP3    H173034   3.757   5.388  12.015  0.6018 -1.4446 -0.5116
17181TIP3    H273035   3.661   5.299  11.940  1.2138 -0.8255 -2.0717
17182TIP3   OH273036   2.941   0.129   3.299  0.6521 -0.1429 -0.8044
17182TIP3    H173037   2.889   0.207   3.281  1.0808 -0.0493 -1.6628
17182TIP3    H273038   2.900   0.060   3.247  1.1929 -0.1394 -1.2407
17183TIP3   OH273039   4.460   2.281   5.899 -1.1604  0.7716  0.6323
17183TIP3    H173040   4.373   2.254   5.929 -1.7682  0.5809 -1.1618
17183TIP3    H273041   4.451   2.286   5.804  0.6059  1.4696  0.4793
17184TIP3   OH273042   3.729   1.022  16.614  0.2678  0.0113 -0.5478
17184TIP3    H173043   3.751   0.928  16.616 -2.2068 -0.6354  0.1797
17184TIP3    H273044   3.782   1.061  16.684  0.9130 -0.9318 -0.4879
17185TIP3   OH273045   2.509   2.291   5.932  0.2731 -0.3307 -0.1369
17185TIP3    H173046   2.418   2.267   5.915 -0.8827  2.6307  1.0138
17185TIP3    H273047   2.510   2.312   6.026  2.3494 -0.9479  0.0220
17186TIP3   OH273048   1.817   4.633   6.582  0.6702 -0.3238  0.1909
17186TIP3    H173049   1.833   4.571   6.653 -1.1043 -0.8292  0.1848
17186TIP3    H273050   1.733   4.673   6.603  0.7248  0.4617 -0.9762
17187TIP3   OH273051   4.703   0.183   2.303  0.0923 -0.6393 -0.3784
17187TIP3    H173052   4.773   0.162   2.241  0.3781 -0.4422 -0.1229
17187TIP3    H273053   4.710   0.277   2.317 -2.4664  0.1157 -3.0907
17188TIP3   OH273054   1.038   2.215  15.342  0.2300  0.0474 -0.1425
17188TIP3    H173055   1.121   2.180  15.311  0.5044  0.2002  0.4072
17188TIP3    H273056   1.049   2.310  15.339  0.4542  0.0644  0.9116
17189TIP3   OH273057   4.919   0.948   6.473  0.0899 -0.0501  0.4136
17189TIP3    H173058   4.861   0.982   6.405  0.3899  0.4150  0.3877
17189TIP3    H273059   4.865   0.946   6.552 -0.1261 -0.1588  0.2641
17190TIP3   OH273060   5.473   6.322  13.178  0.2726  0.5829  0.2789
17190TIP3    H173061   5.518   6.370  13.108 -1.4876  2.5954  0.4492
17190TIP3    H273062   5.485   6.377  13.256  0.4534 -0.6083  1.1167
17191TIP3   OH273063   1.142   1.267   2.480 -0.5148  0.3627  0.3450
17191TIP3    H173064   1.218   1.304   2.524  0.3613 -0.3481 -0.5349
17191TIP3    H273065   1.170   1.254   2.389 -2.0169  1.0505 -0.2588
17192TIP3   OH273066   6.637   3.486   4.337  0.0256  0.2731 -0.4102
17192TIP3    H173067   6.674   3.415   4.285 -1.5088 -1.8650  1.2573
17192TIP3    H273068   6.707   3.552   4.338  1.7859 -1.4305 -1.5089
17193TIP3   OH273069   4.324   4.001   2.296  0.1998  0.2726 -0.5240
17193TIP3    H173070   4.284   4.084   2.321 -2.1142 -0.7321 -0.6615
17193TIP3    H273071   4.395   4.025   2.236  1.2109  2.2633  1.3323
17194TIP3   OH273072   1.138   6.649   1.412 -0.2451 -0.0822  0.3854
17194TIP3    H173073   1.215   6.678   1.460 -0.9875  1.2111  0.8395
17194TIP3    H273074   1.064   6.689   1.458 -1.0460  0.4654 -1.3027
17195TIP3   OH273075   5.320   2.769  16.087 -0.1541 -0.0758 -0.3756
17195TIP3    H173076   5.305   2.695  16.028 -1.4463  0.5218 -0.8567
17195TIP3    H273077   5.232   2.800  16.109  0.3213  0.3103  1.1294
17196TIP3   OH273078   1.971   2.125  14.620  0.2053 -0.4811 -0.1465
17196TIP3    H173079   1.990   2.200  14.675 -0.8803 -1.1568  1.1949
17196TIP3    H273080   1.927   2.063  14.677 -2.9444 -0.3810 -2.2228
17197TIP3   OH273081   0.096   4.443  12.561  0.2223  0.0411  0.0609
17197TIP3    H173082   0.065   4.530  12.535 -2.1441 -0.9492 -0.6750
17197TIP3    H273083   0.172   4.427  12.505  0.1721  1.2776 -0.3966
17198TIP3   OH273084   2.289   2.767  14.065  0.2979 -0.5875 -0.3562
17198TIP3    H173085   2.350   2.834  14.095  1.6244 -0.8143 -2.3306
17198TIP3    H273086   2.250   2.732  14.145 -0.0441  2.1128  0.7754
17199TIP3   OH273087   1.899   4.013   3.350 -0.4111  0.3627 -0.1037
17199TIP3    H173088   1.875   3.926   3.384  2.3671 -0.6417 -0.4714
17199TIP3    H273089   1.865   4.013   3.260  0.0517 -0.6019 -0.2961
17200TIP3   OH273090   3.642   2.150   1.054 -0.4013  0.1178 -0.4077
17200TIP3    H173091   3.684   2.226   1.095  2.0766 -0.4246 -1.7637
17200TIP3    H273092   3.612   2.183   0.969  0.2484 -0.2720 -0.7977
17201TIP3   OH273093   5.725   5.047  15.160 -0.2491 -0.2135  0.4494
17201TIP3    H173094   5.648   4.996  15.133  0.2488 -1.3601  1.0955
17201TIP3    H273095   5.699   5.138  15.148 -0.7976 -0.6040 -1.7762
17202TIP3   OH273096   5.201   6.724  13.702 -0.1267 -0.5502 -0.0254
17202TIP3    H173097   5.112   6.698  13.726 -0.5997  1.2112  0.3029
17202TIP3    H273098   5.256   6.683  13.769 -0.4717 -2.8722 -1.0669
17203TIP3   OH273099   4.045   4.944   1.045 -0.5555 -0.2955  0.5177
17203TIP3    H173100   4.060   4.993   0.964 -0.0240 -0.1196  0.7188
17203TIP3    H273101   4.110   4.979   1.106  2.0825 -3.4178 -0.2277
17204TIP3   OH273102   6.415   3.923  11.020 -0.0244  0.1400  0.7698
17204TIP3    H173103   6.416   3.842  11.070 -1.2524  0.5502  1.5202
17204TIP3    H273104   6.325   3.954  11.026 -0.1485  0.3974 -1.4356
17205TIP3   OH273105   2.660   3.355   5.636  0.2658  0.7921 -0.0277
17205TIP3    H173106   2.610   3.277   5.660  0.4015  0.4855 -0.7263
17205TIP3    H273107   2.750   3.324   5.626  0.3442  1.0623 -0.1749
17206TIP3   OH273108   5.001   3.567  13.456 -0.5408 -0.0777 -0.1207
17206TIP3    H173109   4.935   3.497  13.451  0.6209 -1.2519  0.6028
17206TIP3    H273110   5.032   3.565  13.546  1.8930 -0.9149 -0.8914
17207TIP3   OH273111   3.373   4.920   5.389  0.2890 -0.2449  0.1254
17207TIP3    H173112   3.329   4.841   5.359  1.0209 -0.1644 -1.2452
17207TIP3    H273113   3.350   4.927   5.482 -1.1008 -1.1609 -0.1218
17208TIP3   OH273114   4.208   3.476   1.978  0.2202 -0.9596  0.2551
17208TIP3    H173115   4.120   3.441   1.990 -0.8320  0.8056 -1.7309
17208TIP3    H273116   4.237   3.498   2.066 -1.5204 -1.1354  0.9150
17209TIP3   OH273117   2.364   2.805   1.307  0.1481  0.4588  0.1814
17209TIP3    H173118   2.395   2.847   1.387 -0.5224 -0.5952  1.0321
17209TIP3    H273119   2.444   2.771   1.265  0.3410 -0.7057  1.4398
17210TIP3   OH273120   4.002   0.900  11.657  0.3979  0.1417 -0.1839
17210TIP3    H173121   3.976   0.979  11.609  1.8036  0.1153 -1.0371
17210TIP3    H273122   3.947   0.900  11.735  0.9991  2.4907  0.3149
17211TIP3   OH273123   5.523   3.575  14.016  0.2908  0.2650 -0.3761
17211TIP3    H173124   5.466   3.528  14.078 -0.4155  1.5713 -0.0111
17211TIP3    H273125   5.463   3.621  13.958  0.9649  0.8375 -0.6306
17212TIP3   OH273126   3.740   1.022   2.380 -0.3813 -0.2954 -0.8045
17212TIP3    H173127   3.789   1.094   2.341 -0.7520  0.9174  0.8619
17212TIP3    H273128   3.780   0.943   2.343  0.7824  0.7333 -1.8189
17213TIP3   OH273129   0.066   3.128   1.256 -0.2224 -0.3790  0.2655
17213TIP3    H173130   0.054   3.049   1.203  0.5295  0.2015 -0.8213
17213TIP3    H273131   0.130   3.103   1.322  0.3563 -0.5683 -0.3564
17214TIP3   OH273132   1.011   5.193  12.717 -0.5713 -1.0648  0.0888
17214TIP3    H173133   0.924   5.172  12.749 -0.4184  0.5965  1.7332
17214TIP3    H273134   0.996   5.252  12.643 -0.8440 -1.6444 -0.3255
17215TIP3   OH273135   3.444   0.911   3.515 -0.0156  0.3270 -0.2111
17215TIP3    H173136   3.501   0.834   3.514 -0.4295 -0.0724  2.0228
17215TIP3    H273137   3.371   0.888   3.458 -0.1636 -0.9944  0.4758
17216TIP3   OH273138   3.575   0.844   4.211  0.7044  0.4549  0.8517
17216TIP3    H173139   3.542   0.921   4.164  0.5085 -1.6493 -2.8364
17216TIP3    H273140   3.664   0.832   4.178  1.4601  0.1706  2.8863
17217TIP3   OH273141   6.333   3.397  16.063  0.0515  0.1050  0.4053
17217TIP3    H173142   6.265   3.429  16.122  0.3850 -0.0687  0.8798
17217TIP3    H273143   6.402   3.463  16.068  0.9778 -0.9164  1.7978
17218TIP3   OH273144   5.195   2.042  15.949 -0.2436 -0.1708 -0.3006
17218TIP3    H173145   5.149   1.962  15.923  0.1464 -0.2042 -0.9059
17218TIP3    H273146   5.129   2.111  15.942 -0.4291 -0.3510 -0.3346
17219TIP3   OH273147   5.266   6.067  15.560  0.4322 -0.4253  0.2544
17219TIP3    H173148   5.277   6.160  15.575  0.4417  0.1316 -2.6316
17219TIP3    H273149   5.301   6.025  15.638 -0.0945  1.9687  1.8580
17220TIP3   OH273150   0.986   4.648   4.990  0.1758  0.1005 -0.2261
17220TIP3    H173151   0.925   4.699   4.938  1.6677  2.7735  0.4869
17220TIP3    H273152   1.025   4.587   4.929  1.0028  2.3201 -2.0311
17221TIP3   OH273153   3.275   2.108   0.600  0.5626 -0.1358 -0.6533
17221TIP3    H173154   3.338   2.037   0.604  0.7042 -0.0009 -0.5018
17221TIP3    H273155   3.190   2.064   0.601  0.6543 -0.3300 -1.1237
17222TIP3   OH273156   1.081   2.437   5.538  0.7015  0.6038  0.0598
17222TIP3    H173157   1.171   2.444   5.568  0.5542 -0.3273  0.7593
17222TIP3    H273158   1.038   2.381   5.603 -0.2928  0.7526 -0.4485
17223TIP3   OH273159   2.392   2.921   4.658  0.2334  0.3152  0.5260
17223TIP3    H173160   2.449   2.996   4.640 -0.7923  0.7626 -1.0723
17223TIP3    H273161   2.382   2.878   4.573 -1.7790  0.2460  0.7493
17224TIP3   OH273162   3.140   4.957   0.979  0.3823  0.1020 -0.2656
17224TIP3    H173163   3.229   4.933   0.950  1.5279  1.7679  1.5970
17224TIP3    H273164   3.153   4.996   1.065 -2.3080 -0.3899  0.4523
17225TIP3   OH273165   5.845   1.378   1.408  0.1018 -0.3070 -0.0680
17225TIP3    H173166   5.888   1.348   1.328  2.3928 -0.5829  1.1824
17225TIP3    H273167   5.892   1.458   1.431 -1.8822  0.9014 -0.0547
17226TIP3   OH273168   3.801   4.199  12.061 -0.0200 -0.4701  0.3839
17226TIP3    H173169   3.820   4.106  12.048 -0.4321 -0.6214  0.8272
17226TIP3    H273170   3.709   4.208  12.037  0.8660  0.5471 -3.1995
17227TIP3   OH273171   6.451   5.165   1.085 -0.6940 -0.4833 -0.3974
17227TIP3    H173172   6.391   5.091   1.075 -1.1043 -0.2006 -0.0457
17227TIP3    H273173   6.509   5.159   1.009  0.7411 -2.4975  0.7459
17228TIP3   OH273174   3.413   6.239  16.017 -0.1209 -1.0184  0.4255
17228TIP3    H173175   3.417   6.226  15.922  1.8651  0.3782  0.2690
17228TIP3    H273176   3.382   6.155  16.051  1.1012 -2.2417 -1.3077
17229TIP3   OH273177   2.089   6.750   3.755 -0.2229  0.5109 -0.3093
17229TIP3    H173178   2.072   6.843   3.769 -2.0842 -0.0267  1.5799
17229TIP3    H273179   2.011   6.718   3.709  0.0769 -0.2733 -0.2967
17230TIP3   OH273180   5.442   3.843   6.351 -0.8959 -0.3788  0.6086
17230TIP3    H173181   5.456   3.898   6.274 -0.5792 -0.6488  0.4724
17230TIP3    H273182   5.418   3.905   6.421  2.6521  0.3672  1.3451
17231TIP3   OH273183   6.204   5.970  16.469 -0.0643 -0.6082 -0.1070
17231TIP3    H173184   6.187   5.960  16.375  1.3684 -1.1925 -0.3431
17231TIP3    H273185   6.123   5.943  16.512 -1.2211  0.9507 -1.1885
17232TIP3   OH273186   6.632   2.728  15.932  0.4403  0.1189  0.2794
17232TIP3    H173187   6.660   2.675  16.007  0.6814 -1.4552 -0.8859
17232TIP3    H273188   6.542   2.751  15.953  0.3637 -0.6529  0.8798
17233TIP3   OH273189   6.492   3.879  14.813  0.0670 -0.2468 -0.0144
17233TIP3    H173190   6.553   3.939  14.856 -1.1464  1.6836 -0.8020
17233TIP3    H273191   6.511   3.793  14.850  2.6309  0.4138  0.3945
17234TIP3   OH273192   1.017   3.163   2.526 -0.1407 -0.3461 -0.0126
17234TIP3    H173193   1.001   3.257   2.535  3.6061  0.4954 -0.4578
17234TIP3    H273194   1.019   3.149   2.431  0.4033 -0.5944  0.0294
17235TIP3   OH273195   6.467   0.575   4.779  0.2267 -0.0214  0.0744
17235TIP3    H173196   6.424   0.531   4.852 -0.2729  0.3969  0.0367
17235TIP3    H273197   6.560   0.577   4.803 -0.0875  1.2397  1.3138
17236TIP3   OH273198   4.705   4.866   4.763  0.8113  0.1616  0.0485
17236TIP3    H173199   4.750   4.950   4.764  1.1268  0.0321 -1.2212
17236TIP3    H273200   4.753   4.814   4.698  1.4340 -1.4656  1.7220
17237TIP3   OH273201   5.011   2.371  12.366  0.5306 -0.0338 -0.5669
17237TIP3    H173202   4.987   2.464  12.360  0.4770 -0.0515 -0.6317
17237TIP3    H273203   4.963   2.330  12.293  2.4618  0.2702 -2.0968
17238TIP3   OH273204   1.912   1.729  14.412 -0.7824  0.2416 -0.4612
17238TIP3    H173205   1.923   1.824  14.403 -0.1049  0.2122  0.0105
17238TIP3    H273206   2.000   1.693  14.400 -0.6913 -0.1805  1.1529
17239TIP3   OH273207   2.582   3.297   3.882  0.5991 -0.4367 -0.4782
17239TIP3    H173208   2.601   3.216   3.928  0.7903  0.9019  1.9699
17239TIP3    H273209   2.486   3.305   3.885  0.6951  1.0103  2.4415
17240TIP3   OH273210   1.410   1.597  15.012  0.0676  0.5352 -0.2592
17240TIP3    H173211   1.427   1.685  14.978  0.6495  1.2797  1.8180
17240TIP3    H273212   1.317   1.583  14.995 -0.2119  1.8840  0.0341
17241TIP3   OH273213   0.477   1.163  13.799  0.2439 -0.0689 -0.5245
17241TIP3    H173214   0.496   1.070  13.812 -3.1004 -0.6274  1.4762
17241TIP3    H273215   0.385   1.165  13.774  0.2602  2.7421 -0.6043
17242TIP3   OH273216   3.822   0.413   5.687 -0.0074 -0.3231 -0.0197
17242TIP3    H173217   3.811   0.384   5.777  0.8252 -0.2187  0.1247
17242TIP3    H273218   3.754   0.365   5.638  0.4845 -1.5127  0.4178
17243TIP3   OH273219   3.629   4.575  14.619 -0.2764 -0.1426 -0.7941
17243TIP3    H173220   3.611   4.606  14.707 -2.2470  1.0632 -1.5559
17243TIP3    H273221   3.690   4.503  14.631  1.4491  1.5542  1.3516
17244TIP3   OH273222   4.602   0.046  16.451 -0.1294  0.4599  0.5561
17244TIP3    H173223   4.539  -0.021  16.423  0.0044  0.3192  0.5935
17244TIP3    H273224   4.554   0.128  16.442 -0.0606  0.4244 -0.1677
17245TIP3   OH273225   5.068   4.703  15.806 -0.1256  0.5498  0.5725
17245TIP3    H173226   4.973   4.711  15.811 -0.0932  1.9654 -0.5075
17245TIP3    H273227   5.084   4.651  15.727  0.0063  0.3583  0.7232
17246TIP3   OH273228   6.559   0.592   0.408 -0.1161 -0.0170  0.0206
17246TIP3    H173229   6.488   0.620   0.466  0.1247 -0.4632  0.5398
17246TIP3    H273230   6.563   0.497   0.420  2.7212  0.2923  2.5501
17247TIP3   OH273231   3.667   6.356  15.597 -0.1912  0.1305  0.1063
17247TIP3    H173232   3.723   6.422  15.555  0.0741  0.1059  0.4186
17247TIP3    H273233   3.588   6.404  15.622 -0.0294  0.3130  0.2671
17248TIP3   OH273234   6.315   3.227  13.908  0.2036  0.5583 -0.5032
17248TIP3    H173235   6.324   3.150  13.851 -1.0008  0.5791 -0.7568
17248TIP3    H273236   6.368   3.294  13.867  0.1796  0.2596 -1.0297
17249TIP3   OH273237   5.547   5.986   2.612 -0.6224  0.3672 -0.0460
17249TIP3    H173238   5.641   5.997   2.630 -0.6706 -1.3288  1.4662
17249TIP3    H273239   5.536   6.022   2.524  1.5088  0.3596 -0.3822
17250TIP3   OH273240   3.718   0.947  14.433  0.1302  1.1001 -0.6940
17250TIP3    H173241   3.762   0.969  14.515  0.1401  2.7430 -1.1098
17250TIP3    H273242   3.627   0.929  14.458  0.5212 -0.2101 -0.1134
17251TIP3   OH273243   3.091   2.586   1.679  0.3198 -0.2407 -0.5164
17251TIP3    H173244   3.004   2.583   1.718  0.9410 -0.7227  0.9242
17251TIP3    H273245   3.095   2.510   1.622  0.3435 -1.2013  0.7186
17252TIP3   OH273246   2.078   4.075  17.404 -0.0153 -0.2858  0.3775
17252TIP3    H173247   2.093   4.003  17.465  0.4673 -0.8948 -0.4470
17252TIP3    H273248   2.090   4.154  17.457  1.6793 -0.7852  0.8172
17253TIP3   OH273249   1.167   5.685   2.837  0.5326 -0.4123  0.9950
17253TIP3    H173250   1.206   5.750   2.895 -0.3569  1.6004 -0.5545
17253TIP3    H273251   1.237   5.661   2.776  0.1410  1.2844 -0.1893
17254TIP3   OH273252   6.374   5.580   0.592 -0.8279  0.2315  0.4899
17254TIP3    H173253   6.338   5.666   0.613 -1.6589 -0.0215  0.1565
17254TIP3    H273254   6.423   5.555   0.670  2.0613  2.3217 -0.4940
17255TIP3   OH273255   2.610   2.660  14.536 -0.3282  0.9616 -0.5305
17255TIP3    H173256   2.702   2.660  14.562 -0.5561 -3.6829  1.2374
17255TIP3    H273257   2.562   2.669  14.618 -1.2012 -2.9064 -0.4257
17256TIP3   OH273258   1.346   1.559   4.478  0.4981  0.5441 -1.0891
17256TIP3    H173259   1.348   1.478   4.529  1.1127  0.1947 -1.6415
17256TIP3    H273260   1.304   1.623   4.535  0.5404 -0.0138 -0.4198
17257TIP3   OH273261   1.918   1.009   3.544 -0.2560 -0.0612  0.0940
17257TIP3    H173262   1.952   0.937   3.489 -0.5580 -0.4463  0.4079
17257TIP3    H273263   1.868   0.965   3.612  0.9613  0.3550  1.2971
17258TIP3   OH273264   0.325   2.730  13.369 -0.1383  0.0231  0.1294
17258TIP3    H173265   0.407   2.696  13.407 -0.3583 -1.7129 -0.8448
17258TIP3    H273266   0.259   2.666  13.395 -1.3161  1.6441  1.2838
17259TIP3   OH273267   3.416   6.676   1.322  0.5573  0.2391 -0.3613
17259TIP3    H173268   3.389   6.594   1.282 -0.6984 -0.0352  0.9612
17259TIP3    H273269   3.365   6.743   1.277  3.4122  0.7100 -3.2344
17260TIP3   OH273270   4.459   4.899  14.301 -0.0492 -0.1353  0.3125
17260TIP3    H173271   4.381   4.876  14.250 -0.9601 -0.6903  1.9158
17260TIP3    H273272   4.530   4.898  14.236 -1.4540  1.2291 -1.3628
17261TIP3   OH273273   5.851   2.685   0.238 -0.2649 -0.4391 -0.1432
17261TIP3    H173274   5.780   2.654   0.295 -0.3800  1.3915  0.7868
17261TIP3    H273275   5.875   2.770   0.274  1.7363 -0.5598 -1.0641
17262TIP3   OH273276   5.875   3.317   2.752  0.0435  0.3677 -0.0331
17262TIP3    H173277   5.809   3.274   2.699  0.1349 -1.2963  1.1359
17262TIP3    H273278   5.832   3.396   2.786 -0.7067  0.2871 -0.7804
17263TIP3   OH273279   5.419   5.290   1.014 -0.6230 -0.2067 -0.3180
17263TIP3    H173280   5.491   5.350   0.997 -0.3154 -0.7534 -1.0025
17263TIP3    H273281   5.444   5.244   1.095  1.2161 -2.4232 -2.0270
17264TIP3   OH273282   5.393   2.495   1.715 -0.4427  0.2947  0.1552
17264TIP3    H173283   5.453   2.483   1.640  0.7716  0.5704  1.0525
17264TIP3    H273284   5.316   2.536   1.677 -0.2829 -0.5234 -1.1306
17265TIP3   OH273285   6.741   3.257  14.356  0.5546  0.4363 -0.5944
17265TIP3    H173286   6.823   3.208  14.351  0.6039  0.4475  0.0033
17265TIP3    H273287   6.683   3.200  14.407  0.4152  0.7311 -0.4230
17266TIP3   OH273288   3.603   6.362  12.345 -0.6234  0.0970 -0.1734
17266TIP3    H173289   3.645   6.346  12.430 -0.2411  0.8832 -0.2073
17266TIP3    H273290   3.673   6.348  12.281 -0.6126  0.6047 -0.2800
17267TIP3   OH273291   4.560   2.530   0.886  0.4144 -0.2963  0.2557
17267TIP3    H173292   4.578   2.437   0.869 -0.1433 -0.1069 -1.5708
17267TIP3    H273293   4.544   2.567   0.799  1.3772  1.6895  0.8849
17268TIP3   OH273294   5.975   1.242   1.202  0.2349 -0.3824  0.0222
17268TIP3    H173295   5.923   1.172   1.163  0.4853  0.9210 -2.9669
17268TIP3    H273296   6.063   1.205   1.212  0.1382 -0.8029 -0.6229
17269TIP3   OH273297   1.985   1.382  13.460  0.7134  0.2998  0.0432
17269TIP3    H173298   1.928   1.413  13.530  1.3847 -1.2370  1.3301
17269TIP3    H273299   1.939   1.404  13.379 -2.4796 -2.2415  1.0059
17270TIP3   OH273300   4.715   0.643   6.594  1.0248 -0.4947 -0.3308
17270TIP3    H173301   4.768   0.706   6.644  1.3238  0.8069 -2.1601
17270TIP3    H273302   4.654   0.698   6.544 -1.7545 -1.9237  1.2522
17271TIP3   OH273303   1.173   0.514   2.468  0.1630 -0.3288  0.3579
17271TIP3    H173304   1.253   0.566   2.479 -0.9304  1.1886  1.8674
17271TIP3    H273305   1.133   0.548   2.388 -0.2228  0.7809  0.9917
17272TIP3   OH273306   5.211   3.862   2.765 -0.5218  0.1914  0.3036
17272TIP3    H173307   5.231   3.808   2.841 -0.0589 -0.7460 -0.4698
17272TIP3    H273308   5.291   3.859   2.712  0.2011  3.0800  1.0446
17273TIP3   OH273309   5.661   5.081  12.824 -0.5277 -0.0511 -0.1953
17273TIP3    H173310   5.683   5.014  12.888 -1.4359 -0.2308 -0.0587
17273TIP3    H273311   5.701   5.050  12.743 -2.4642 -1.7623 -0.5901
17274TIP3   OH273312   3.944   6.475  17.229  0.6925  0.4070  0.3719
17274TIP3    H173313   3.977   6.455  17.317  0.8761 -0.5212  0.1078
17274TIP3    H273314   3.849   6.475  17.238  0.6212 -1.6485  0.2170
17275TIP3   OH273315   1.821   1.769  14.116 -0.5299  0.1870 -0.2438
17275TIP3    H173316   1.770   1.690  14.131 -0.8285  0.2234 -1.0077
17275TIP3    H273317   1.756   1.835  14.090 -0.2330  0.5488 -0.0775
17276TIP3   OH273318   0.330   1.864  10.572 -0.2338 -0.4752  0.4836
17276TIP3    H173319   0.309   1.798  10.507 -2.5573 -0.2309  0.8896
17276TIP3    H273320   0.423   1.853  10.589 -0.2418 -2.5936 -0.5825
17277TIP3   OH273321   2.185   3.492   4.171 -0.6147 -0.2953 -0.9768
17277TIP3    H173322   2.223   3.580   4.164 -1.4998  0.1405 -0.4716
17277TIP3    H273323   2.103   3.498   4.122 -2.0186 -0.0479  1.2995
17278TIP3   OH273324   4.481   1.738   1.470 -0.3312 -0.2886 -0.3338
17278TIP3    H173325   4.407   1.695   1.427 -0.2909  0.8823 -1.6309
17278TIP3    H273326   4.499   1.815   1.416  0.5512  0.5489  1.0953
17279TIP3   OH273327   1.208   5.715   3.918  0.7511 -0.2018  0.3174
17279TIP3    H173328   1.295   5.692   3.888  0.9534 -0.5937  1.1585
17279TIP3    H273329   1.215   5.717   4.014 -0.3947 -1.2427  0.4591
17280TIP3   OH273330   3.895   5.435  13.749  0.4175 -0.3231 -0.6110
17280TIP3    H173331   3.836   5.457  13.820  0.0186  0.8048 -1.2716
17280TIP3    H273332   3.839   5.428  13.672  0.7726 -1.9981 -0.7699
17281TIP3   OH273333   5.127   1.695  15.630 -0.1230  0.1810 -0.2900
17281TIP3    H173334   5.098   1.635  15.698 -0.8135  1.1651  0.3224
17281TIP3    H273335   5.217   1.717  15.655 -0.0294 -0.2288 -0.2593
17282TIP3   OH273336   1.383   6.227  14.608  0.2525  0.1088 -0.4784
17282TIP3    H173337   1.393   6.144  14.655 -0.1715 -0.6968 -1.7823
17282TIP3    H273338   1.463   6.235  14.556 -0.3069 -0.1904 -1.4104
17283TIP3   OH273339   0.088   2.268  13.470  0.1628 -0.4515  0.3430
17283TIP3    H173340   0.116   2.213  13.542 -1.4144 -2.5950 -0.5564
17283TIP3    H273341  -0.006   2.249  13.460 -0.2887  1.8688 -0.5104
17284TIP3   OH273342   3.955   6.549  10.523  0.2379 -0.3397  0.0765
17284TIP3    H173343   3.900   6.487  10.474 -0.7067 -0.0406  0.7376
17284TIP3    H273344   4.038   6.502  10.534  0.2511 -0.6704 -1.2204
17285TIP3   OH273345   5.116   6.350  11.704  0.0748 -0.2430  0.4293
17285TIP3    H173346   5.058   6.417  11.740  0.4046 -0.1119  0.7205
17285TIP3    H273347   5.163   6.395  11.633  0.7676  0.0276  1.0438
17286TIP3   OH273348   3.501   5.860  12.064 -0.1466  0.5470  0.4409
17286TIP3    H173349   3.531   5.943  12.028 -0.8976  0.4876 -0.3555
17286TIP3    H273350   3.550   5.794  12.016 -1.8906  0.4213 -1.3155
17287TIP3   OH273351   5.375   0.275  17.312 -0.0027 -0.3489 -0.2945
17287TIP3    H173352   5.315   0.252  17.383 -0.1317  1.0458  0.0858
17287TIP3    H273353   5.452   0.311  17.356  0.0913  0.1340 -0.8308
17288TIP3   OH273354   6.668   4.287   5.126 -0.6297 -0.4501  0.3100
17288TIP3    H173355   6.667   4.303   5.032  1.0507  0.3026  0.3748
17288TIP3    H273356   6.576   4.277   5.151 -1.2251  1.1908 -1.1014
17289TIP3   OH273357   5.640   1.653   5.611  0.1558 -0.1168  0.3313
17289TIP3    H173358   5.610   1.715   5.677 -1.3127 -0.0894 -0.2955
17289TIP3    H273359   5.703   1.702   5.558 -0.0060  0.4213  0.6334
17290TIP3   OH273360   0.530   0.812  13.105 -0.8658 -0.1497  0.4403
17290TIP3    H173361   0.484   0.728  13.099 -0.0555 -0.5702 -0.0843
17290TIP3    H273362   0.528   0.847  13.015  0.4801 -0.5451  0.2279
17291TIP3   OH273363   2.924   3.467  17.310 -0.1808  0.2383 -0.7810
17291TIP3    H173364   2.972   3.549  17.301 -1.5583  1.0803 -0.7435
17291TIP3    H273365   2.831   3.493  17.307 -0.6628 -1.4703 -2.1835
17292TIP3   OH273366   1.326   5.424   1.368 -0.6061 -0.4547 -0.2203
17292TIP3    H173367   1.396   5.386   1.316  0.1774  1.1522 -0.4231
17292TIP3    H273368   1.352   5.516   1.379 -2.7056  0.2128 -0.3477
17293TIP3   OH273369   2.150   3.300   4.360  0.6030  0.3433 -0.2941
17293TIP3    H173370   2.107   3.222   4.326  0.2580  0.3537  0.1151
17293TIP3    H273371   2.166   3.355   4.282 -0.5992  0.5747 -0.3905
17294TIP3   OH273372   3.312   5.144  15.834  0.0827  0.4956  0.2395
17294TIP3    H173373   3.321   5.237  15.850 -0.7687  0.3652  1.6397
17294TIP3    H273374   3.402   5.113  15.823  0.3509  1.5232 -0.5952
17295TIP3   OH273375   5.201   3.595   3.882 -0.2015  0.0264 -0.0363
17295TIP3    H173376   5.254   3.596   3.802  0.5214  1.5016  0.4350
17295TIP3    H273377   5.264   3.586   3.953 -0.5268  1.8268  0.5365
17296TIP3   OH273378   3.630   5.235  15.332 -0.0284  0.0507 -0.1051
17296TIP3    H173379   3.654   5.310  15.388 -1.5339  0.8357 -0.4710
17296TIP3    H273380   3.714   5.206  15.295  0.8029  0.4993  1.3179
17297TIP3   OH273381   5.266   4.660   5.837 -0.0043 -0.0317 -0.1374
17297TIP3    H173382   5.255   4.613   5.919 -0.6466  0.4502  0.0650
17297TIP3    H273383   5.360   4.653   5.817  0.2730  0.3457  0.9477
17298TIP3   OH273384   1.274   0.167   5.706 -0.1326  0.0418 -0.0746
17298TIP3    H173385   1.221   0.246   5.717  1.0281  0.5305  3.0320
17298TIP3    H273386   1.251   0.113   5.781  1.0525 -1.4073 -0.7134
17299TIP3   OH273387   2.634   6.332  17.491 -0.2631  0.3676  0.2015
17299TIP3    H173388   2.720   6.325  17.450 -0.0577 -0.5646  0.7650
17299TIP3    H273389   2.652   6.372  17.577 -0.3887  0.1673  0.3218
17300TIP3   OH273390   5.443   2.775  12.675  0.0042 -0.1410  0.2775
17300TIP3    H173391   5.489   2.739  12.599 -0.2272  2.3192 -1.1093
17300TIP3    H273392   5.352   2.749  12.661 -0.2798  1.4503 -1.0764
17301TIP3   OH273393   4.393   5.422   2.833 -0.7968  0.0342 -0.0532
17301TIP3    H173394   4.370   5.433   2.926  1.3670  1.9550  0.3388
17301TIP3    H273395   4.459   5.489   2.817  0.0162 -1.2672 -2.6080
17302TIP3   OH273396   4.599   4.060  11.718 -0.3692 -0.0093 -0.5092
17302TIP3    H173397   4.648   4.022  11.644 -0.4518  0.8085 -0.9940
17302TIP3    H273398   4.538   4.121  11.677 -0.3865  0.4892  0.2417
17303TIP3   OH273399   4.148   0.479   5.835  0.3961 -0.6977  0.5951
17303TIP3    H173400   4.209   0.415   5.799 -0.0704 -1.5186  1.2076
17303TIP3    H273401   4.102   0.514   5.759  0.3263 -1.4488  0.2751
17304TIP3   OH273402   0.283   5.381   1.822 -0.0493  0.2960  0.2758
17304TIP3    H173403   0.270   5.335   1.740 -0.1089  2.1475 -0.8071
17304TIP3    H273404   0.200   5.425   1.839  0.5158  1.3745  0.3537
17305TIP3   OH273405   5.590   1.590   0.195 -0.1013  0.0595 -0.4493
17305TIP3    H173406   5.648   1.539   0.138  0.3200  0.5258 -0.4444
17305TIP3    H273407   5.502   1.574   0.160  0.0611 -0.3725 -0.6740
17306TIP3   OH273408   4.535   6.520  12.364  0.4182  0.2039 -0.2994
17306TIP3    H173409   4.626   6.511  12.395 -0.0986  2.3684  2.1896
17306TIP3    H273410   4.484   6.466  12.424 -0.1732  1.0157 -0.0507
17307TIP3   OH273411   0.558   3.276  17.293 -0.2710 -0.1031  0.6293
17307TIP3    H173412   0.617   3.351  17.293  1.1983 -1.2161 -0.4443
17307TIP3    H273413   0.602   3.210  17.346 -0.8239 -0.7311  0.3260
17308TIP3   OH273414   1.311   5.158   1.006 -0.5357 -0.4271 -0.2882
17308TIP3    H173415   1.314   5.215   0.929 -2.0183 -0.5774 -0.4831
17308TIP3    H273416   1.379   5.193   1.064 -1.8565  2.0156 -0.0885
17309TIP3   OH273417   0.386   1.977  17.035 -0.2559  0.2579  0.1490
17309TIP3    H173418   0.292   1.992  17.025  0.1189  1.5902 -1.8601
17309TIP3    H273419   0.411   2.029  17.112 -1.1325 -0.0779  0.6710
17310TIP3   OH273420   1.331   6.141  15.426 -0.0142  0.1486  0.5759
17310TIP3    H173421   1.350   6.107  15.514 -1.4243 -0.1788  0.7705
17310TIP3    H273422   1.287   6.225  15.442  0.7873  0.6611  0.1474
17311TIP3   OH273423   3.466   2.127  16.606 -0.8986  0.4830 -0.1616
17311TIP3    H173424   3.420   2.061  16.554 -0.9455  1.8048 -1.8883
17311TIP3    H273425   3.541   2.152  16.552  1.1463 -0.6130  1.9824
17312TIP3   OH273426   5.539   6.277  16.205  0.3407  0.5418  0.6304
17312TIP3    H173427   5.527   6.183  16.213  1.4728  0.3859  0.6769
17312TIP3    H273428   5.455   6.315  16.230 -1.0298 -0.5375 -1.9873
17313TIP3   OH273429   3.977   1.176   2.271 -0.3303  0.6642 -0.0480
17313TIP3    H173430   3.916   1.249   2.263 -1.2196 -0.2065 -1.5553
17313TIP3    H273431   3.996   1.150   2.181  0.3744 -0.6337  0.4474
17314TIP3   OH273432   4.825   2.099   2.640  0.5283  0.6409  0.0066
17314TIP3    H173433   4.791   2.155   2.710 -1.2378 -2.1614  1.6004
17314TIP3    H273434   4.920   2.106   2.647  0.3591  1.7730  1.5494
17315TIP3   OH273435   2.593   3.339  15.302  0.0648 -0.1751  0.0614
17315TIP3    H173436   2.641   3.326  15.220 -0.9862  0.2414 -0.6383
17315TIP3    H273437   2.647   3.400  15.352  0.7065 -0.4156 -0.3302
17316TIP3   OH273438   6.240   3.521   5.248 -0.1846  0.2011  0.6445
17316TIP3    H173439   6.310   3.513   5.313  1.3086 -0.3579 -0.9530
17316TIP3    H273440   6.252   3.608   5.210 -0.1137 -0.0400  0.1080
17317TIP3   OH273441   0.704   2.625   2.838 -0.2101 -0.5205  0.3908
17317TIP3    H173442   0.671   2.553   2.892 -1.4178  0.0754  0.4869
17317TIP3    H273443   0.673   2.605   2.749  0.1243 -0.5157  0.2710
17318TIP3   OH273444   6.475   5.660   4.066 -0.3922 -0.2791 -0.1319
17318TIP3    H173445   6.554   5.607   4.052 -0.7196 -0.3241 -2.0089
17318TIP3    H273446   6.425   5.611   4.132 -0.3175 -1.9288 -1.2413
17319TIP3   OH273447   4.152   0.224  11.646  0.3786  0.6356 -0.0448
17319TIP3    H173448   4.171   0.142  11.600 -0.2756  0.2917  0.2787
17319TIP3    H273449   4.057   0.223  11.659  0.4097  1.2749  0.2876
17320TIP3   OH273450   2.019   2.694   0.933  0.5702  0.0808 -0.1278
17320TIP3    H173451   2.078   2.722   1.003 -0.5954 -1.0386  1.3685
17320TIP3    H273452   1.980   2.776   0.902  1.2072  0.6171  0.4328
17321TIP3   OH273453   4.754   4.914   4.150  0.2663 -0.0017 -0.3845
17321TIP3    H173454   4.818   4.856   4.108  0.4264 -1.1904  1.3641
17321TIP3    H273455   4.670   4.871   4.135  0.5826 -2.2369  2.9525
17322TIP3   OH273456   3.129   1.922  13.510 -0.6202  0.0113  0.2392
17322TIP3    H173457   3.180   1.964  13.441 -1.5473 -2.4051 -2.0483
17322TIP3    H273458   3.049   1.973  13.515 -0.4781  0.2950 -0.3437
17323TIP3   OH273459   2.642   5.681  13.201 -0.2070 -0.2567  0.0860
17323TIP3    H173460   2.601   5.663  13.286  0.4240 -1.5359  0.1474
17323TIP3    H273461   2.726   5.636  13.205 -0.2450 -0.4934 -1.2821
17324TIP3   OH273462   4.148   3.006  13.015  0.2205  0.1066 -0.5126
17324TIP3    H173463   4.210   2.938  12.988 -1.3189 -1.0976 -1.1432
17324TIP3    H273464   4.163   3.077  12.953  3.2925  1.3144  1.4106
17325TIP3   OH273465   3.728   4.371   4.615  0.2365 -0.2838 -0.2856
17325TIP3    H173466   3.668   4.436   4.652  0.4534 -0.2661  0.0422
17325TIP3    H273467   3.788   4.351   4.687 -2.2733 -3.8891  1.1190
17326TIP3   OH273468   5.805   1.453   4.607  0.2781  0.2474  0.2567
17326TIP3    H173469   5.826   1.361   4.623 -1.0664  0.1082  1.4328
17326TIP3    H273470   5.885   1.491   4.571  0.8165 -1.4027 -0.3574
17327TIP3   OH273471   1.139   3.857   4.789 -0.2067 -0.1925 -0.5419
17327TIP3    H173472   1.162   3.888   4.877  3.6798  2.5967 -2.2379
17327TIP3    H273473   1.065   3.913   4.763 -1.1411 -0.7803  0.7037
17328TIP3   OH273474   4.044   5.421   4.116 -0.2398 -0.2798 -0.3646
17328TIP3    H173475   3.974   5.372   4.160  0.8283 -0.5144  1.1360
17328TIP3    H273476   4.000   5.499   4.083 -1.2953 -0.6264  0.1551
17329TIP3   OH273477   4.684   5.790   4.665  0.1402  0.0627  0.0178
17329TIP3    H173478   4.608   5.790   4.607 -0.8843 -1.4982  1.2668
17329TIP3    H273479   4.749   5.737   4.618 -0.1781 -0.0573 -0.2967
17330TIP3   OH273480   1.896   4.381  16.691 -0.4537  0.1730  0.2343
17330TIP3    H173481   1.970   4.423  16.734 -0.8049  1.0414  0.0190
17330TIP3    H273482   1.933   4.341  16.612 -0.3326  1.2969 -0.3012
17331TIP3   OH273483   6.503   4.493  17.346  0.5268 -0.0644  0.4573
17331TIP3    H173484   6.525   4.586  17.354  0.5282 -0.1209  1.2276
17331TIP3    H273485   6.413   4.493  17.313  0.2214  0.2355  1.2540
17332TIP3   OH273486   0.040   5.932   2.121  0.6193 -0.7585  0.1329
17332TIP3    H173487  -0.025   5.884   2.172 -0.6857  0.2655 -0.5143
17332TIP3    H273488  -0.011   5.980   2.055  1.8637  1.2696  0.5501
17333TIP3   OH273489   4.894   5.745   3.151 -0.2834 -0.3714  0.2405
17333TIP3    H173490   4.880   5.755   3.057  0.0356  0.0416  0.2336
17333TIP3    H273491   4.838   5.671   3.176  0.9744 -1.6671 -0.6059
17334TIP3   OH273492   6.522   6.143   0.333 -0.3412 -0.3553  0.1659
17334TIP3    H173493   6.501   6.149   0.240 -0.2781 -1.1117  0.0949
17334TIP3    H273494   6.530   6.233   0.362 -0.5849 -0.1113 -0.5144
17335TIP3   OH273495   0.058   3.106   5.844  0.3949 -0.2681  0.6244
17335TIP3    H173496   0.013   3.083   5.926  0.0824 -0.0540  0.5135
17335TIP3    H273497   0.133   3.046   5.840 -0.9156 -1.9481 -0.1156
17336TIP3   OH273498   6.107   2.186   4.009  0.0146  1.0651  0.5215
17336TIP3    H173499   6.067   2.160   3.927 -0.1313  0.5887  0.7429
17336TIP3    H273500   6.065   2.269   4.031 -1.9544 -0.1182  1.5010
17337TIP3   OH273501   1.858   0.446  15.182 -0.0113 -0.1715  0.3021
17337TIP3    H173502   1.836   0.355  15.202 -1.7430  0.4964  1.7282
17337TIP3    H273503   1.894   0.481  15.264 -1.6543  1.0244  0.5888
17338TIP3   OH273504   6.551   4.416   5.546  0.5575 -0.2748 -0.0871
17338TIP3    H173505   6.507   4.473   5.609 -0.1700 -0.3952 -0.4797
17338TIP3    H273506   6.496   4.419   5.468  0.9193 -0.9160 -0.3773
17339TIP3   OH273507   2.825   0.816  14.633  0.6453 -0.3368  0.2290
17339TIP3    H173508   2.801   0.846  14.721  1.5298 -1.3419  0.8414
17339TIP3    H273509   2.796   0.724  14.631 -0.1416 -0.0857 -0.8501
17340TIP3   OH273510   2.619   1.549   4.623  0.1302  0.1076  0.0881
17340TIP3    H173511   2.682   1.587   4.561 -0.1739  1.7676  0.7618
17340TIP3    H273512   2.543   1.605   4.617 -1.7293 -2.3363 -1.3338
17341TIP3   OH273513   6.063   1.405   0.574  0.3646  0.2612  0.3357
17341TIP3    H173514   6.009   1.460   0.630 -0.6188 -0.3647  0.0136
17341TIP3    H273515   6.004   1.371   0.507  1.5096  0.9973 -1.1213
17342TIP3   OH273516   1.684   4.908  15.596 -0.0240 -0.2065  0.1613
17342TIP3    H173517   1.645   4.830  15.557  3.8829 -2.8961  1.0965
17342TIP3    H273518   1.711   4.961  15.521 -0.8126 -0.7613 -0.5420
17343TIP3   OH273519   2.392   1.718  15.230 -0.0929  0.2186  0.3662
17343TIP3    H173520   2.483   1.694  15.215 -0.0993  1.7440 -2.8213
17343TIP3    H273521   2.396   1.810  15.257 -0.6791 -0.0132  1.3110
17344TIP3   OH273522   1.452   0.807  12.236 -0.8390 -0.4046  0.3531
17344TIP3    H173523   1.470   0.718  12.266  1.9554  0.3527  1.1799
17344TIP3    H273524   1.478   0.863  12.309 -2.3626  1.1592 -0.2174
17345TIP3   OH273525   4.715   1.015   3.063  0.6204 -0.1036 -0.3272
17345TIP3    H173526   4.697   1.087   3.003  0.3255  2.1011  2.2213
17345TIP3    H273527   4.803   0.985   3.039  0.0450 -0.1826 -2.5746
17346TIP3   OH273528   3.848   2.818  14.553  0.3085 -0.7377 -0.1803
17346TIP3    H173529   3.784   2.865  14.500  0.1040 -0.1847  0.5329
17346TIP3    H273530   3.798   2.784  14.627  0.2368 -3.0666 -1.2243
17347TIP3   OH273531   3.077   5.853  17.234 -0.4086  0.5577 -0.2311
17347TIP3    H173532   3.070   5.948  17.239 -1.1084  0.4537  1.5651
17347TIP3    H273533   2.997   5.821  17.276  0.4558 -0.7985  0.4765
17348TIP3   OH273534   5.396   3.206  17.415  0.6895 -0.1206 -0.0323
17348TIP3    H173535   5.473   3.169  17.373 -1.2434 -2.6100 -1.6833
17348TIP3    H273536   5.361   3.268  17.350  1.3401  1.1775  0.8042
17349TIP3   OH273537   5.236   5.212   2.729  0.9390  0.3455 -0.1502
17349TIP3    H173538   5.292   5.170   2.795 -0.1065 -0.1205  0.4731
17349TIP3    H273539   5.147   5.194   2.759  0.4354  2.9105  0.0722
17350TIP3   OH273540   3.037   6.000   5.730  0.1423 -0.1426 -0.4019
17350TIP3    H173541   3.031   6.044   5.814 -0.6155  0.5801 -0.8199
17350TIP3    H273542   3.116   6.036   5.689 -0.5579  0.9747 -0.8062
17351TIP3   OH273543   0.648   3.987   5.220 -0.3055  0.5995  1.0354
17351TIP3    H173544   0.731   3.943   5.238  0.0221  1.2083  1.0624
17351TIP3    H273545   0.629   4.037   5.299  0.3810  2.1052  0.2916
17352TIP3   OH273546   5.274   3.703   2.973  0.0589 -0.4020 -0.1978
17352TIP3    H173547   5.282   3.611   2.949  0.0405 -0.7639  1.1200
17352TIP3    H273548   5.312   3.709   3.060  0.5185  0.9456 -0.4726
17353TIP3   OH273549   0.499   6.192   6.172  0.1118  0.3109  0.6343
17353TIP3    H173550   0.499   6.171   6.266  3.0866  1.0269  0.8911
17353TIP3    H273551   0.464   6.281   6.167 -0.4110  0.1323  0.9935
17354TIP3   OH273552   5.904   2.520   3.259  0.4742 -0.5964  0.6258
17354TIP3    H173553   5.907   2.584   3.330  1.7373  0.0894 -0.0266
17354TIP3    H273554   5.856   2.564   3.189  1.7740 -0.1485 -0.0069
17355TIP3   OH273555   2.751   6.517  11.758  0.5683  0.5385 -0.1000
17355TIP3    H173556   2.700   6.448  11.715  0.5373  0.2304  0.4163
17355TIP3    H273557   2.691   6.592  11.761 -0.2571 -0.1271  1.4102
17356TIP3   OH273558   5.525   3.846   5.867  0.6348  0.0510 -0.3277
17356TIP3    H173559   5.554   3.778   5.806  0.6069 -0.2085 -0.0518
17356TIP3    H273560   5.599   3.859   5.926 -0.7718 -2.8156  2.3471
17357TIP3   OH273561   4.666   0.439  17.462 -0.2928 -0.7142 -0.2455
17357TIP3    H173562   4.623   0.441  17.547 -0.1279  1.2463 -0.1594
17357TIP3    H273563   4.755   0.471  17.479  0.1949 -1.6539 -0.9307
17358TIP3   OH273564   1.078   3.472   0.903 -0.4901 -0.2460 -0.1307
17358TIP3    H173565   0.993   3.511   0.882 -0.1558  1.2229  1.0144
17358TIP3    H273566   1.080   3.390   0.855 -1.6359  0.7351 -1.9576
17359TIP3   OH273567   2.360   2.319   3.935 -0.5061 -0.5340  0.0335
17359TIP3    H173568   2.357   2.414   3.922 -1.8126 -0.6716 -0.8179
17359TIP3    H273569   2.448   2.302   3.968  0.1668  0.8374 -0.9678
17360TIP3   OH273570   5.028   0.461  13.803 -0.0544  0.0855 -0.1368
17360TIP3    H173571   5.118   0.484  13.782  0.2788 -0.4401  0.6842
17360TIP3    H273572   5.007   0.511  13.882 -0.2484 -0.3088  0.0663
17361TIP3   OH273573   0.333   1.433   0.184  0.1863 -0.8730  0.1944
17361TIP3    H173574   0.372   1.371   0.122 -0.1246 -0.5744 -0.3120
17361TIP3    H273575   0.281   1.378   0.243 -0.8076 -1.0435 -0.7888
17362TIP3   OH273576   0.289   3.618  15.814 -0.0556 -0.4582 -0.1106
17362TIP3    H173577   0.262   3.569  15.737  0.5631 -0.2915 -0.4382
17362TIP3    H273578   0.369   3.574  15.843 -0.3460 -0.5916  0.5074
17363TIP3   OH273579   5.601   5.732  11.623  0.2409 -0.2486 -0.0778
17363TIP3    H173580   5.696   5.737  11.628  0.3162 -1.1673 -0.4375
17363TIP3    H273581   5.571   5.766  11.708  0.9601 -1.8646  0.8733
17364TIP3   OH273582   0.284   4.714  14.185 -0.2161 -0.5358 -0.6716
17364TIP3    H173583   0.374   4.716  14.154 -1.0647  2.5700 -3.5305
17364TIP3    H273584   0.280   4.778  14.256  0.2567 -2.6019  1.3326
17365TIP3   OH273585   3.444   5.634  14.378  0.1396 -0.2313 -0.2167
17365TIP3    H173586   3.409   5.719  14.352 -0.0732 -0.4669 -0.7033
17365TIP3    H273587   3.531   5.654  14.413  0.4833  0.0790 -1.2178
17366TIP3   OH273588   3.496   3.155  12.213 -0.7626 -0.1161  0.5310
17366TIP3    H173589   3.536   3.134  12.129 -1.1843 -0.9267  0.5198
17366TIP3    H273590   3.568   3.150  12.276 -0.5735 -0.1643  0.3098
17367TIP3   OH273591   2.027   5.991   3.281 -0.5715  0.1116 -0.3036
17367TIP3    H173592   2.011   5.909   3.234 -2.4948  0.2736 -0.0095
17367TIP3    H273593   2.122   6.003   3.277 -0.0301 -2.8822  0.9075
17368TIP3   OH273594   1.977   3.289   2.006  0.2976  0.4492 -0.4291
17368TIP3    H173595   2.022   3.341   2.073  1.2508 -1.0505  0.1476
17368TIP3    H273596   1.884   3.312   2.016  0.3942  0.1719  1.5281
17369TIP3   OH273597   6.220   2.587   3.098 -0.1655  0.0487 -0.1539
17369TIP3    H173598   6.243   2.539   3.178  2.3006  3.4210  1.4178
17369TIP3    H273599   6.131   2.557   3.077  0.5297 -3.8259  1.5076
17370TIP3   OH273600   3.760   2.127  13.373 -0.1153 -0.3211  0.0044
17370TIP3    H173601   3.693   2.169  13.319  0.0102  1.0297  0.8390
17370TIP3    H273602   3.713   2.059  13.421 -0.6026 -0.2864 -0.4196
17371TIP3   OH273603   1.407   1.678   0.647  0.1767  0.4316 -0.0732
17371TIP3    H173604   1.495   1.645   0.669 -0.0367 -0.9393 -1.1706
17371TIP3    H273605   1.356   1.663   0.726  0.9219  1.2691  0.5904
17372TIP3   OH273606   0.466   2.997  14.976  0.2902  0.2899 -0.0803
17372TIP3    H173607   0.453   3.083  15.017  0.6884 -0.4994  1.8426
17372TIP3    H273608   0.557   2.998  14.948  0.7743 -0.0126  1.3691
17373TIP3   OH273609   5.151   4.387   1.552 -0.7051 -0.2656 -0.2827
17373TIP3    H173610   5.162   4.423   1.640 -1.4200 -1.0635  0.1392
17373TIP3    H273611   5.107   4.456   1.503 -1.7464 -0.4151  0.4218
17374TIP3   OH273612   6.441   1.610   6.518 -0.1917 -0.6948 -0.0204
17374TIP3    H173613   6.494   1.627   6.440 -0.9010 -1.6672 -0.7436
17374TIP3    H273614   6.355   1.646   6.497 -0.3588 -0.8660  0.3551
17375TIP3   OH273615   6.725   4.104   3.185  0.1933 -0.3510 -0.3158
17375TIP3    H173616   6.773   4.049   3.123  0.2655  1.0983 -1.6093
17375TIP3    H273617   6.728   4.055   3.268  1.5602 -1.5566 -1.0270
17376TIP3   OH273618   5.942   0.471  15.027  0.6553  0.0297  0.3272
17376TIP3    H173619   5.912   0.546  15.079  0.3886  0.1058  0.0664
17376TIP3    H273620   6.008   0.507  14.969  1.4905 -0.1962  1.1105
17377TIP3   OH273621   0.310   0.606   3.213  0.1450 -0.7482 -0.5442
17377TIP3    H173622   0.360   0.680   3.177  1.7730 -0.1653  2.5195
17377TIP3    H273623   0.221   0.641   3.225  0.4477  0.1346 -0.7868
17378TIP3   OH273624   4.566   6.335  13.351 -0.5900  0.4808 -0.6014
17378TIP3    H173625   4.648   6.338  13.400 -0.2869 -0.6003 -1.0132
17378TIP3    H273626   4.569   6.412  13.294  0.0452  0.5637 -0.4596
17379TIP3   OH273627   3.201   0.060  16.465  0.1633  0.7865  1.0338
17379TIP3    H173628   3.276   0.020  16.421  0.4717  2.4796 -0.0782
17379TIP3    H273629   3.125   0.021  16.423  0.4220  0.0614  1.2205
17380TIP3   OH273630   0.077   0.621  11.729  0.6383 -0.0838  0.0431
17380TIP3    H173631   0.096   0.527  11.731  1.4710  0.0670 -0.3419
17380TIP3    H273632   0.163   0.663  11.721  0.2226  0.6781 -0.6330
17381TIP3   OH273633   0.071   6.427  16.670  0.5920  0.0579 -0.8981
17381TIP3    H173634   0.083   6.480  16.591  1.3626 -0.2809 -1.0184
17381TIP3    H273635   0.159   6.412  16.703  0.2481  0.6162  0.3234
17382TIP3   OH273636   5.374   1.543  13.955 -0.2224  0.3021 -0.5601
17382TIP3    H173637   5.447   1.572  13.900  1.4506  1.5924  2.1210
17382TIP3    H273638   5.416   1.492  14.025 -2.0960 -0.2220  0.2431
17383TIP3   OH273639   5.370   1.539   2.584 -0.1492  0.0942  0.3493
17383TIP3    H173640   5.295   1.513   2.531  1.4607  0.3083 -2.1942
17383TIP3    H273641   5.368   1.635   2.584  0.1107  0.1015  0.2890
17384TIP3   OH273642   5.115   3.925  11.354 -0.0948  0.1043 -0.4917
17384TIP3    H173643   5.074   4.008  11.378 -0.7054 -0.1212 -0.7095
17384TIP3    H273644   5.154   3.892  11.435  0.9570  1.0323 -0.5995
17385TIP3   OH273645   2.286   0.447   4.747  0.1378 -0.4180 -0.0637
17385TIP3    H173646   2.342   0.520   4.722  0.5356 -0.4989  0.5599
17385TIP3    H273647   2.198   0.484   4.754 -0.1456 -0.5580 -2.3558
17386TIP3   OH273648   2.007   4.745  16.712 -0.3090 -0.9429  0.2917
17386TIP3    H173649   2.068   4.720  16.782 -0.5170  0.1376  0.8955
17386TIP3    H273650   2.049   4.715  16.631  1.1771 -0.0198  0.6675
17387TIP3   OH273651   4.636   5.831  11.864  0.3192 -0.4861  0.6205
17387TIP3    H173652   4.710   5.853  11.921  0.1443 -0.2933  0.7766
17387TIP3    H273653   4.560   5.831  11.922  0.0574  0.2370  0.2964
17388TIP3   OH273654   1.726   2.500  13.689  0.4472  0.2424  0.0065
17388TIP3    H173655   1.739   2.586  13.727  0.5209  1.5322 -2.6878
17388TIP3    H273656   1.720   2.516  13.594  0.2911 -2.6850 -0.5832
17389TIP3   OH273657   0.520   1.918   2.463 -0.1829 -0.3351 -0.3191
17389TIP3    H173658   0.498   1.839   2.512 -1.8385  0.0233 -0.4122
17389TIP3    H273659   0.551   1.979   2.530  1.4482 -1.1452 -0.2942
17390TIP3   OH273660   4.845   5.001   2.924  0.2309 -0.1206  0.2961
17390TIP3    H173661   4.831   4.917   2.882 -0.3695  0.5141 -0.8389
17390TIP3    H273662   4.853   4.981   3.017  0.5484 -1.4621 -0.0053
17391TIP3   OH273663   1.372   5.040   4.172  0.5583  0.1055 -0.3600
17391TIP3    H173664   1.455   5.069   4.211 -0.0812  2.0789 -0.3344
17391TIP3    H273665   1.343   4.968   4.227  1.5367  0.3731  0.5355
17392TIP3   OH273666   0.732   0.205  12.048  0.1140 -0.6213  0.0702
17392TIP3    H173667   0.743   0.297  12.074 -0.4320 -0.8614  1.2326
17392TIP3    H273668   0.812   0.184  12.001  1.1582 -0.1114  1.5349
17393TIP3   OH273669   6.737   5.132   1.529  0.4837 -0.4372  0.1307
17393TIP3    H173670   6.722   5.165   1.618 -1.5114 -0.1863 -0.2463
17393TIP3    H273671   6.677   5.183   1.474  1.0544 -1.1784 -1.2324
17394TIP3   OH273672   1.902   0.554  11.510 -0.1699 -0.6729 -0.1089
17394TIP3    H173673   1.843   0.525  11.579 -0.7005 -0.5444 -0.5063
17394TIP3    H273674   1.983   0.576  11.556 -0.8684  0.4737  0.6210
17395TIP3   OH273675   5.370   4.127  14.406  0.2036  0.6662 -0.6504
17395TIP3    H173676   5.303   4.060  14.418  1.2050  0.0727  2.4560
17395TIP3    H273677   5.415   4.102  14.325 -0.2213 -1.7025 -0.2133
17396TIP3   OH273678   3.168   3.665  12.310  0.4456 -0.3391  0.4446
17396TIP3    H173679   3.169   3.604  12.236 -0.3994  1.5018 -1.1819
17396TIP3    H273680   3.086   3.713  12.301  1.7485  2.1261  0.6730
17397TIP3   OH273681   2.383   0.887   4.468  0.2962  0.7210  0.0675
17397TIP3    H173682   2.389   0.954   4.399  0.7808  1.0514  0.4216
17397TIP3    H273683   2.297   0.901   4.507  0.0440  0.5738 -0.4277
17398TIP3   OH273684   3.601   6.403  13.985  0.2850  0.5502 -0.0655
17398TIP3    H173685   3.506   6.392  13.989  0.5359 -2.0366  0.7084
17398TIP3    H273686   3.617   6.442  13.899 -1.4802  1.4763 -0.0226
17399TIP3   OH273687   3.614   1.677  16.578  0.3048 -0.2540  0.6141
17399TIP3    H173688   3.703   1.681  16.543  0.8839  2.2750  2.1109
17399TIP3    H273689   3.561   1.725  16.513  0.1166 -1.1499  0.0793
17400TIP3   OH273690   1.075   0.664   5.506 -0.0144 -0.2519  0.0644
17400TIP3    H173691   1.085   0.592   5.444  0.0223 -0.3923  0.2334
17400TIP3    H273692   1.148   0.655   5.566  0.2611  0.2094 -0.1950
17401TIP3   OH273693   5.263   6.134   3.881 -0.5766  0.1157  0.3218
17401TIP3    H173694   5.356   6.135   3.901 -1.0528  1.5175  2.7604
17401TIP3    H273695   5.250   6.052   3.833  1.9060 -0.0107 -0.2444
17402TIP3   OH273696   4.801   3.044   6.270 -0.3915  0.0130  0.2095
17402TIP3    H173697   4.774   3.088   6.350  2.7057  1.0827  0.8115
17402TIP3    H273698   4.825   2.955   6.298 -1.8596 -0.5224 -0.1050
17403TIP3   OH273699   0.547   1.804  13.038 -0.1546 -0.4658  0.0537
17403TIP3    H173700   0.639   1.812  13.013 -0.1252  0.0859  0.3310
17403TIP3    H273701   0.535   1.710  13.054  0.5311 -0.4482  0.7063
17404TIP3   OH273702   5.532   1.348  12.996 -0.3420 -0.3688 -0.4497
17404TIP3    H173703   5.609   1.298  13.024 -0.1605  0.7460  1.1833
17404TIP3    H273704   5.565   1.411  12.933 -0.1889 -0.8625 -0.8692
17405TIP3   OH273705   1.876   2.806  17.221  0.0075  0.1762 -0.1735
17405TIP3    H173706   1.969   2.803  17.244 -0.0012 -3.3115 -0.0181
17405TIP3    H273707   1.836   2.860  17.289  1.5638 -0.5672  1.4328
17406TIP3   OH273708   6.572   5.425  15.714 -0.2729  0.5482 -0.0859
17406TIP3    H173709   6.622   5.498  15.751 -0.2074  0.6460 -0.3719
17406TIP3    H273710   6.586   5.354  15.776 -0.0097  0.6590 -0.0152
17407TIP3   OH273711   4.163   1.798   4.460  0.1757  0.4344  0.2021
17407TIP3    H173712   4.101   1.727   4.479  1.0724 -0.2932  0.5161
17407TIP3    H273713   4.136   1.831   4.374 -0.2612 -0.2865  0.0496
17408TIP3   OH273714   0.288   5.402   3.228 -0.2228 -0.4941 -0.1455
17408TIP3    H173715   0.240   5.474   3.187  0.7439 -0.2303 -0.8655
17408TIP3    H273716   0.379   5.432   3.228  0.0469 -1.2891  0.5013
17409TIP3   OH273717   2.782   4.002  13.907  0.2114  0.2486 -0.4396
17409TIP3    H173718   2.687   3.998  13.906  0.1999 -1.6938  1.0549
17409TIP3    H273719   2.804   4.040  13.992  0.7753  0.8288 -0.8373
17410TIP3   OH273720   1.796   3.871  15.768  0.0030 -0.4943  0.8409
17410TIP3    H173721   1.721   3.851  15.712  1.1324  2.2903 -1.9377
17410TIP3    H273722   1.820   3.787  15.807 -3.4153 -1.7964  0.4763
17411TIP3   OH273723   5.326   5.473  10.812  0.6698 -0.2750 -0.2545
17411TIP3    H173724   5.364   5.393  10.774 -1.8324 -1.3542 -0.6484
17411TIP3    H273725   5.337   5.539  10.744  1.8991 -0.4970 -0.3066
17412TIP3   OH273726   3.808   2.394  16.521  0.2427 -0.3010  0.6336
17412TIP3    H173727   3.827   2.431  16.435  0.3771  0.1925  0.8709
17412TIP3    H273728   3.869   2.321  16.530 -1.1337 -1.6689 -0.5308
17413TIP3   OH273729   4.513   6.317  12.768  0.5080 -0.4178 -0.3764
17413TIP3    H173730   4.431   6.349  12.804  0.9276  0.8943 -0.5097
17413TIP3    H273731   4.499   6.315  12.673  0.9545  0.8761 -0.4907
17414TIP3   OH273732   1.012   5.510   4.493 -0.4945 -0.2215 -0.0239
17414TIP3    H173733   1.068   5.555   4.556  0.1256  0.3793 -0.9815
17414TIP3    H273734   0.977   5.435   4.542  1.9400 -1.2330  0.3100
17415TIP3   OH273735   3.418   4.488  12.718  0.1408 -0.0174 -0.5305
17415TIP3    H173736   3.501   4.453  12.686 -0.1372 -0.6111 -0.6206
17415TIP3    H273737   3.391   4.551  12.652  0.6609  0.3950 -0.3570
17416TIP3   OH273738   5.677   1.169  15.287  0.2229  0.2214  0.5515
17416TIP3    H173739   5.653   1.236  15.350 -0.6812 -0.4887  0.9849
17416TIP3    H273740   5.595   1.127  15.262  0.2216  1.8188 -2.7184
17417TIP3   OH273741   2.765   6.471   3.967  0.0009  0.2699 -0.0450
17417TIP3    H173742   2.701   6.456   4.036 -3.1629  0.6785 -2.6584
17417TIP3    H273743   2.766   6.566   3.956  0.5208  0.2108 -0.5124
17418TIP3   OH273744   5.441   1.575   2.185  0.1044 -0.0390 -0.3019
17418TIP3    H173745   5.385   1.552   2.111 -0.6737  0.0712  0.2471
17418TIP3    H273746   5.410   1.662   2.212 -0.5422 -0.6607  1.0177
17419TIP3   OH273747   6.140   0.075  13.393 -0.4920 -0.5666 -0.1709
17419TIP3    H173748   6.071   0.009  13.392 -0.0982 -0.9794 -0.7487
17419TIP3    H273749   6.136   0.116  13.306 -0.4269 -0.1574  0.0164
17420TIP3   OH273750   5.656   4.728  13.863  1.0619 -0.2660  0.6014
17420TIP3    H173751   5.724   4.716  13.929  0.2271 -0.1493  1.5070
17420TIP3    H273752   5.700   4.772  13.790  1.8366  0.2923  1.3906
17421TIP3   OH273753   1.431   5.435   4.023 -0.0506 -0.1861 -0.5216
17421TIP3    H173754   1.476   5.423   3.939  0.4208 -0.4708 -0.2312
17421TIP3    H273755   1.483   5.502   4.068 -1.2529  1.2188 -1.1220
17422TIP3   OH273756   2.833   3.830   2.178  0.1467  0.0408  0.0457
17422TIP3    H173757   2.925   3.814   2.154 -0.0226  1.1248 -1.5392
17422TIP3    H273758   2.790   3.746   2.165  0.7148 -0.1978 -0.3629
17423TIP3   OH273759   1.638   5.009  12.713 -0.6513 -0.6771 -0.1566
17423TIP3    H173760   1.665   5.013  12.621 -0.6254  1.3533 -0.0967
17423TIP3    H273761   1.707   4.959  12.756 -0.2146 -0.8888 -1.0798
17424TIP3   OH273762   4.554   6.582  14.238  0.6319  0.1654  0.2872
17424TIP3    H173763   4.623   6.638  14.200  0.5672 -0.0100 -0.0965
17424TIP3    H273764   4.602   6.509  14.277  0.6424 -0.2230 -0.4320
17425TIP3   OH273765   0.827   4.616  12.651  0.2780  0.0407 -0.4037
17425TIP3    H173766   0.872   4.535  12.626 -1.8588 -1.5653  0.5944
17425TIP3    H273767   0.845   4.625  12.745 -1.6828 -0.8808  0.1200
17426TIP3   OH273768   3.725   1.614  17.257  0.0517 -0.1336 -0.0540
17426TIP3    H173769   3.683   1.597  17.172  1.0747 -0.7952 -0.4407
17426TIP3    H273770   3.668   1.571  17.320 -0.3464 -0.2394 -0.4754
17427TIP3   OH273771   3.837   0.817  13.763  0.4073 -0.0156 -0.2380
17427TIP3    H173772   3.803   0.851  13.680 -1.0681  0.9194  0.7031
17427TIP3    H273773   3.921   0.862  13.775  0.7969 -0.4021 -1.3404
17428TIP3   OH273774   4.335   4.283  17.387 -0.5451  0.4826 -0.2211
17428TIP3    H173775   4.352   4.201  17.342 -0.0965  0.9886 -0.9992
17428TIP3    H273776   4.259   4.265  17.443 -0.3970 -0.4733 -0.3197
17429TIP3   OH273777   4.479   3.718   3.954  0.4666 -0.2319  0.6515
17429TIP3    H173778   4.527   3.652   3.904  0.2017 -0.1654  0.3042
17429TIP3    H273779   4.442   3.776   3.888 -1.4936 -1.2110  0.7842
17430TIP3   OH273780   4.861   2.708   2.409  0.0826 -1.0362  0.1200
17430TIP3    H173781   4.883   2.707   2.315  1.0911 -1.6743  0.3472
17430TIP3    H273782   4.861   2.801   2.432 -0.1399 -0.8716 -0.4958
17431TIP3   OH273783   2.259   5.069   4.364 -0.2639  0.5903 -0.2829
17431TIP3    H173784   2.175   5.112   4.348 -0.6582 -0.6846 -1.8473
17431TIP3    H273785   2.241   5.005   4.433  0.2011  2.4501  1.6634
17432TIP3   OH273786   1.482   1.302   0.202  0.3726 -0.2303 -0.7221
17432TIP3    H173787   1.460   1.298   0.295  1.2371  0.5879 -0.4711
17432TIP3    H273788   1.560   1.247   0.193  1.3510  1.0910 -0.6165
17433TIP3   OH273789   2.548   4.426  15.475 -0.9299 -0.5683  0.3185
17433TIP3    H173790   2.585   4.341  15.452  0.9820  0.1906  0.4373
17433TIP3    H273791   2.548   4.476  15.393  1.6121  0.5800  0.9179
17434TIP3   OH273792   2.711   3.570  15.423  0.1351 -0.4089 -0.1849
17434TIP3    H173793   2.790   3.621  15.404  1.0350 -1.0655  1.5917
17434TIP3    H273794   2.639   3.631  15.406  1.0602  0.5512 -0.8213
17435TIP3   OH273795   0.958   1.409   6.288  0.0167  0.0980 -0.0914
17435TIP3    H173796   0.933   1.452   6.206 -0.3186  0.2829  0.1073
17435TIP3    H273797   0.920   1.463   6.356 -0.8661 -0.7941  0.1527
17436TIP3   OH273798   6.125   4.346   6.026  0.0493 -0.2551 -0.6944
17436TIP3    H173799   6.099   4.314   5.939 -1.2657 -1.1008 -0.0191
17436TIP3    H273800   6.068   4.421   6.042  0.8689  0.4228 -0.8935
17437TIP3   OH273801   2.821   3.028  12.437  0.1332  0.1085 -0.6494
17437TIP3    H173802   2.833   3.108  12.488  0.7226 -0.7468  0.6018
17437TIP3    H273803   2.904   3.016  12.391 -0.1055  0.4312 -1.1752
17438TIP3   OH273804   6.069   6.391  13.916 -0.3066 -0.5734  0.6421
17438TIP3    H173805   6.126   6.462  13.946 -1.1508  0.1922  0.4588
17438TIP3    H273806   6.067   6.400  13.821 -0.8247 -0.5299  0.6581
17439TIP3   OH273807   3.868   4.123  14.083  0.4600 -0.4420  0.3283
17439TIP3    H173808   3.783   4.085  14.059  0.3776 -0.0609  0.0117
17439TIP3    H273809   3.922   4.114  14.004  0.9623 -1.3647  0.7636
17440TIP3   OH273810   1.549   2.433   5.849 -0.5092 -0.2395 -0.6184
17440TIP3    H173811   1.598   2.512   5.870  1.1708 -1.6009  0.8956
17440TIP3    H273812   1.475   2.434   5.911 -0.4138  0.0561 -0.5051
17441TIP3   OH273813   5.773   4.829   3.588  0.1139 -0.3561 -0.0076
17441TIP3    H173814   5.765   4.851   3.681 -0.7147  1.4448 -0.4442
17441TIP3    H273815   5.719   4.751   3.577  0.7748 -0.9978  1.1275
17442TIP3   OH273816   2.014   5.036   1.937 -0.2199 -0.1971  0.1361
17442TIP3    H173817   2.062   4.955   1.917  0.9154  0.9717 -2.3362
17442TIP3    H273818   1.927   5.022   1.900 -0.4502 -0.7287  0.8488
17443TIP3   OH273819   3.380   5.663  13.199  0.6914  0.1608  0.0830
17443TIP3    H173820   3.402   5.687  13.109  0.0052  0.3422 -0.0442
17443TIP3    H273821   3.388   5.568  13.201 -0.5547  0.0266 -0.5381
17444TIP3   OH273822   1.081   0.996   4.274 -0.0661 -0.2785 -0.1028
17444TIP3    H173823   1.162   1.028   4.313 -1.2492  2.1215  0.5418
17444TIP3    H273824   1.077   1.038   4.188 -0.3488 -0.9017 -0.4064
17445TIP3   OH273825   1.784   1.686   0.956  0.2610  0.1009 -0.1122
17445TIP3    H173826   1.701   1.710   0.997 -0.3124 -0.4516 -0.9124
17445TIP3    H273827   1.843   1.668   1.029 -1.1231 -2.2607  0.5228
17446TIP3   OH273828   4.955   3.839   6.334 -0.3973 -0.6288 -0.1896
17446TIP3    H173829   5.014   3.892   6.387  0.4947  0.0485 -1.8020
17446TIP3    H273830   4.899   3.902   6.289 -0.5039 -1.1426 -0.7887
17447TIP3   OH273831   6.654   6.314   1.713 -0.2565  0.1608 -0.1952
17447TIP3    H173832   6.737   6.273   1.737  0.4785  0.3525 -2.2567
17447TIP3    H273833   6.640   6.381   1.780 -0.8977 -2.5255  2.5848
17448TIP3   OH273834   2.048   1.678   1.562 -0.1869 -0.3913  0.7367
17448TIP3    H173835   2.024   1.679   1.654 -3.2160  0.4213  0.0600
17448TIP3    H273836   2.049   1.585   1.539  0.1123 -0.5750  1.4600
17449TIP3   OH273837   4.883   3.341   0.796 -0.1512  0.7755 -0.2233
17449TIP3    H173838   4.826   3.413   0.767 -0.7901  0.6847  0.7611
17449TIP3    H273839   4.833   3.262   0.777 -0.0287  0.6586 -0.0603
17450TIP3   OH273840   2.694   3.590  15.723 -0.2341 -0.2588  0.5980
17450TIP3    H173841   2.669   3.573  15.632  0.2034 -1.1283  0.6297
17450TIP3    H273842   2.783   3.556  15.731 -0.8956 -1.8816  1.8020
17451TIP3   OH273843   3.441   4.576  17.247  0.4292 -0.1483 -0.8626
17451TIP3    H173844   3.413   4.509  17.185 -0.8433 -1.2028  0.7545
17451TIP3    H273845   3.375   4.645  17.237  0.3254 -0.2382 -0.7995
17452TIP3   OH273846   2.619   0.598  17.085 -0.2610 -0.1949 -0.0825
17452TIP3    H173847   2.538   0.560  17.050 -0.0055  1.6300 -2.9645
17452TIP3    H273848   2.688   0.541  17.051 -0.0363  1.4052 -2.5723
17453TIP3   OH273849   0.052   1.629  17.165  0.0516  0.5458 -0.0331
17453TIP3    H173850  -0.014   1.634  17.234 -1.9732  0.1601 -1.8279
17453TIP3    H273851   0.133   1.656  17.208 -1.2350  1.0328  2.2944
17454TIP3   OH273852   4.366   3.265  14.751  0.0974 -0.2116 -0.3252
17454TIP3    H173853   4.318   3.346  14.766  0.8224  0.0484  0.8188
17454TIP3    H273854   4.441   3.271  14.811 -0.0377 -1.8921  0.0786
17455TIP3   OH273855   0.269   5.724   1.856 -0.0370  0.2239  0.6433
17455TIP3    H173856   0.328   5.649   1.866 -0.3669 -0.4027 -1.6832
17455TIP3    H273857   0.181   5.686   1.856 -0.1441  0.2584 -2.6744
17456TIP3   OH273858   6.676   6.489   1.942 -0.0523 -0.6645  0.0250
17456TIP3    H173859   6.753   6.524   1.985 -0.8616 -1.1100  1.9215
17456TIP3    H273860   6.618   6.463   2.013 -1.5103 -1.3357 -1.3417
17457TIP3   OH273861   6.414   0.060  16.343 -0.2715 -0.5196 -0.0833
17457TIP3    H173862   6.332   0.012  16.356 -0.4411 -0.1442  0.2667
17457TIP3    H273863   6.422   0.115  16.422  0.2728 -0.4941 -0.1566
17458TIP3   OH273864   5.270   2.123   1.223  0.0838 -0.3408 -0.2818
17458TIP3    H173865   5.272   2.131   1.128  0.1506  1.8360 -0.1550
17458TIP3    H273866   5.358   2.148   1.251  0.6669 -2.8089  0.3098
17459TIP3   OH273867   3.852   1.381   0.541  0.2956  0.0385 -0.0921
17459TIP3    H173868   3.773   1.328   0.546 -0.9220  1.8306  0.3484
17459TIP3    H273869   3.886   1.382   0.631  1.3758 -1.4532 -0.4349
17460TIP3   OH273870   5.264   5.817  13.632  0.1400  0.1505  0.0892
17460TIP3    H173871   5.194   5.864  13.585 -0.5053 -0.9856 -0.1310
17460TIP3    H273872   5.217   5.754  13.686  1.0167 -1.4562 -0.9621
17461TIP3   OH273873   3.745   2.349   2.071 -0.5495  0.0852  0.6226
17461TIP3    H173874   3.661   2.316   2.041  0.2176  0.8291 -2.7299
17461TIP3    H273875   3.738   2.444   2.063  0.4171  0.1916  0.9267
17462TIP3   OH273876   6.404   2.985  15.042  0.2141  0.5859 -0.5711
17462TIP3    H173877   6.312   3.008  15.056  0.3355 -0.1397  1.9471
17462TIP3    H273878   6.407   2.891  15.060  1.3424  0.4409 -1.4314
17463TIP3   OH273879   2.520   3.127   4.531  0.3254  0.4870  0.6745
17463TIP3    H173880   2.564   3.114   4.446  1.1307  0.0366  1.1415
17463TIP3    H273881   2.592   3.133   4.594 -0.2758  0.3658  1.3867
17464TIP3   OH273882   2.383   2.976   3.243  0.0990  0.3621 -0.1642
17464TIP3    H173883   2.332   2.911   3.292 -0.7373  1.0959 -0.0355
17464TIP3    H273884   2.327   3.054   3.242 -0.4663  0.0525 -3.2957
17465TIP3   OH273885   5.356   5.714  14.247  0.3617 -0.1844  0.3331
17465TIP3    H173886   5.271   5.730  14.289  0.5778 -2.1343  1.6320
17465TIP3    H273887   5.363   5.619  14.242  1.9296 -0.0493 -0.9474
17466TIP3   OH273888   5.427   3.799   1.450  0.2984 -0.0260  0.3389
17466TIP3    H173889   5.465   3.748   1.521  0.4961  0.1355  0.3495
17466TIP3    H273890   5.493   3.865   1.429  0.1713  0.0347  0.1193
17467TIP3   OH273891   6.094   1.863  14.592 -0.5387  0.5140  0.4150
17467TIP3    H173892   6.105   1.938  14.651 -1.2200  0.4234  0.6695
17467TIP3    H273893   6.025   1.890  14.531  1.2670  1.2378 -1.4069
17468TIP3   OH273894   4.749   0.486  15.403 -0.5718  0.0669 -0.5049
17468TIP3    H173895   4.687   0.422  15.437 -0.0197 -0.2101 -0.0212
17468TIP3    H273896   4.715   0.570  15.434 -0.5676 -0.1053 -0.0273
17469TIP3   OH273897   2.903   1.351  13.774  0.4138 -0.2722  0.8605
17469TIP3    H173898   2.829   1.296  13.750  1.8617 -3.3191  2.7964
17469TIP3    H273899   2.935   1.386  13.691 -1.4588 -1.1962 -0.3094
17470TIP3   OH273900   5.060   5.563  12.931 -0.0240 -0.2709  0.5922
17470TIP3    H173901   5.138   5.571  12.875 -0.6306  2.5847 -0.0111
17470TIP3    H273902   4.996   5.517  12.877  0.7702 -1.4170  0.5896
17471TIP3   OH273903   4.988   2.719   0.733  0.1513  0.1248  0.3615
17471TIP3    H173904   4.974   2.624   0.732 -4.0270  0.5596 -0.8436
17471TIP3    H273905   4.906   2.755   0.764  1.1821  3.4350 -0.3839
17472TIP3   OH273906   6.327   1.288   0.684  0.4225  0.0810  0.2156
17472TIP3    H173907   6.244   1.299   0.636 -1.2179  0.9365  3.0013
17472TIP3    H273908   6.349   1.196   0.672 -0.9475 -0.1783 -0.5624
17473TIP3   OH273909   0.973   4.079  13.777  0.2497 -0.1355 -0.4375
17473TIP3    H173910   0.917   4.079  13.699  0.4388  1.1097 -0.6040
17473TIP3    H273911   0.992   4.172  13.792  0.4162 -0.3777  0.9524
17474TIP3   OH273912   6.292   1.521  16.032 -0.0140  0.1368  0.0463
17474TIP3    H173913   6.305   1.428  16.012  0.6675  0.3654 -0.6254
17474TIP3    H273914   6.205   1.525  16.071 -0.1912 -0.7360 -0.2250
17475TIP3   OH273915   3.788   2.150  12.872 -0.3483 -0.0677 -0.4986
17475TIP3    H173916   3.723   2.090  12.835  1.3034 -1.6733 -1.0086
17475TIP3    H273917   3.838   2.096  12.933  1.0211  0.8628 -0.7511
17476TIP3   OH273918   2.074   6.286  16.113 -0.5334 -0.5661 -0.1148
17476TIP3    H173919   2.080   6.199  16.152  0.2064 -0.9649 -1.0705
17476TIP3    H273920   2.019   6.273  16.035  0.9816 -0.5703 -1.2325
17477TIP3   OH273921   5.337   4.036   0.789 -0.5521  0.3288  0.2129
17477TIP3    H173922   5.374   4.015   0.704 -0.2929 -1.1874  0.6626
17477TIP3    H273923   5.370   3.968   0.847 -0.5008  1.4846  1.5994
17478TIP3   OH273924   4.361   3.081   4.345  0.8250  0.1620 -0.2486
17478TIP3    H173925   4.389   3.102   4.256  1.1885 -0.9399 -0.4058
17478TIP3    H273926   4.437   3.037   4.384 -0.5612 -2.7683 -0.6415
17479TIP3   OH273927   6.761   0.801  14.693 -0.2591 -0.0771  0.1486
17479TIP3    H173928   6.803   0.763  14.769  0.8234  0.2897 -0.2419
17479TIP3    H273929   6.766   0.896  14.708  0.1846  0.0047 -0.4792
17480TIP3   OH273930   4.290   3.370  12.749 -0.2123  0.3479  0.2509
17480TIP3    H173931   4.304   3.443  12.688 -0.2204  0.1602  0.0224
17480TIP3    H273932   4.364   3.312  12.733 -0.1085  0.3944  0.5642
17481TIP3   OH273933   5.386   4.972   3.233 -0.1152 -0.2313  0.3308
17481TIP3    H173934   5.296   4.977   3.266 -0.0407 -1.6554  0.8299
17481TIP3    H273935   5.426   5.055   3.259 -1.0989  0.1445  0.6782
17482TIP3   OH273936   2.144   6.643  11.499 -0.3290  0.3749 -0.1632
17482TIP3    H173937   2.215   6.579  11.495  1.4583  1.9532  2.7703
17482TIP3    H273938   2.149   6.691  11.416  1.3756 -0.2239 -0.4365
17483TIP3   OH273939   1.388   6.742   0.165 -0.0522  0.2201 -0.1750
17483TIP3    H173940   1.301   6.732   0.204 -0.1178 -1.1832 -0.6294
17483TIP3    H273941   1.373   6.741   0.071  0.4736 -0.4386 -0.2653
17484TIP3   OH273942   5.728   6.686   3.645  0.3628 -0.5982 -0.3586
17484TIP3    H173943   5.649   6.638   3.622  1.3829 -2.4330 -0.1946
17484TIP3    H273944   5.792   6.662   3.578  0.4757  1.8470 -1.2460
17485TIP3   OH273945   1.834   2.903  16.098  0.5450 -0.1404  0.4099
17485TIP3    H173946   1.786   2.942  16.171 -2.1563  0.5435 -1.5565
17485TIP3    H273947   1.901   2.968  16.076 -0.5464  1.0398  0.4443
17486TIP3   OH273948   1.867   3.966   3.067 -0.0493  0.1460  0.0876
17486TIP3    H173949   1.831   3.877   3.075 -0.3633  0.2125 -0.5427
17486TIP3    H273950   1.822   4.003   2.991  0.5799  0.6090 -0.0586
17487TIP3   OH273951   4.486   5.216  17.416 -0.0593 -0.2155 -0.2486
17487TIP3    H173952   4.571   5.256  17.402 -0.0856 -0.0240  0.1279
17487TIP3    H273953   4.504   5.122  17.415  0.4365 -0.1762  1.4190
17488TIP3   OH273954   2.161   5.622   0.017  0.5626  0.2441 -0.2786
17488TIP3    H173955   2.091   5.598   0.078 -0.2006 -1.9840 -1.8850
17488TIP3    H273956   2.212   5.541   0.007  1.7791  1.0984 -1.1539
17489TIP3   OH273957   4.210   4.816  14.060 -0.1618 -0.0246 -0.4939
17489TIP3    H173958   4.136   4.838  14.004  0.0492  1.1793 -0.3154
17489TIP3    H273959   4.285   4.861  14.021 -0.0211  0.8932  0.7758
17490TIP3   OH273960   4.524   1.049   2.169 -0.4453 -0.3349 -0.0833
17490TIP3    H173961   4.600   1.017   2.120 -0.1986  1.6348 -1.0875
17490TIP3    H273962   4.449   1.024   2.115 -0.4731 -1.5120  0.4732
17491TIP3   OH273963   0.592   6.735  16.737 -0.6107 -0.2711  0.2264
17491TIP3    H173964   0.682   6.758  16.762 -0.7736 -0.1173  0.6817
17491TIP3    H273965   0.560   6.810  16.688 -0.4518 -0.3756 -0.0394
17492TIP3   OH273966   1.245   4.651  13.548  0.4693  0.2645  0.0472
17492TIP3    H173967   1.153   4.678  13.538 -0.2852 -2.0304  0.1034
17492TIP3    H273968   1.281   4.657  13.460 -0.3155 -0.5727 -0.3590
17493TIP3   OH273969   4.161   2.788  12.730 -0.2646 -0.4164  0.4251
17493TIP3    H173970   4.175   2.806  12.637 -1.1199  0.2649  0.4136
17493TIP3    H273971   4.228   2.839  12.775 -0.4433  0.0052  0.2208
17494TIP3   OH273972   5.678   6.159  10.641  0.8519  0.6535  0.0408
17494TIP3    H173973   5.753   6.099  10.641  0.0188 -0.4423 -1.3277
17494TIP3    H273974   5.611   6.114  10.693  0.2669  0.4222 -0.8818
17495TIP3   OH273975   4.092   0.781   5.570 -0.4801  0.1913  0.6686
17495TIP3    H173976   4.096   0.780   5.475  0.4566 -0.8382  0.7070
17495TIP3    H273977   4.094   0.689   5.596  1.7005  0.4605  1.7412
17496TIP3   OH273978   6.401   0.343   3.475  0.1434  0.4683  0.6555
17496TIP3    H173979   6.464   0.286   3.519 -0.7184  0.7297  2.3456
17496TIP3    H273980   6.395   0.310   3.386  2.5449  0.3554  0.4819
17497TIP3   OH273981   1.368   2.555   3.252 -0.0732  0.6334  0.6699
17497TIP3    H173982   1.447   2.525   3.207  1.8368  2.6475  2.4395
17497TIP3    H273983   1.298   2.541   3.189  1.5039 -1.9508 -0.7166
17498TIP3   OH273984   3.138   5.452  15.260 -0.0615  0.4874  0.2503
17498TIP3    H173985   3.201   5.522  15.273 -0.2852  0.5571  0.9952
17498TIP3    H273986   3.053   5.493  15.272 -0.1660 -0.1802  2.2064
17499TIP3   OH273987   5.557   4.520   4.109  0.3977 -0.0515 -0.1893
17499TIP3    H173988   5.484   4.536   4.049  0.6262 -2.6720 -1.2910
17499TIP3    H273989   5.524   4.549   4.194 -2.0477 -1.2913 -0.6090
17500TIP3   OH273990   0.020   3.695  13.433 -0.3207  0.2344  0.3140
17500TIP3    H173991   0.040   3.767  13.492  0.7977 -0.1999  0.4862
17500TIP3    H273992   0.069   3.714  13.354  1.9781 -1.5158  1.2105
17501TIP3   OH273993   2.420   5.738  17.428 -0.0097  0.0073 -0.2246
17501TIP3    H173994   2.356   5.771  17.365 -0.1312 -1.0081 -0.6478
17501TIP3    H273995   2.367   5.710  17.503 -0.0350 -0.4426 -0.4059
17502TIP3   OH273996   5.741   0.707   5.038 -0.2067  0.1242  0.4853
17502TIP3    H173997   5.745   0.676   4.948 -0.6081 -2.4095  1.2621
17502TIP3    H273998   5.672   0.773   5.038  0.4646  0.8881 -1.2017
17503TIP3   OH273999   2.004   5.047  16.763 -0.1597  0.2925  0.4106
17503TIP3    H174000   2.034   5.127  16.719  1.7796 -0.6068 -0.0119
17503TIP3    H274001   2.020   4.978  16.699  0.6579 -0.7637  1.7161
17504TIP3   OH274002   0.802   1.091   1.487 -0.1701  0.5406  0.3023
17504TIP3    H174003   0.833   1.169   1.533  1.1288 -0.4879  1.2628
17504TIP3    H274004   0.724   1.063   1.536  1.0745 -0.4221  1.8590
17505TIP3   OH274005   4.601   5.933  15.140  0.3184 -0.2496 -0.0241
17505TIP3    H174006   4.637   6.022  15.141 -0.0603 -0.0840 -0.4801
17505TIP3    H274007   4.533   5.934  15.206 -1.3328  0.5309 -1.6321
17506TIP3   OH274008   2.046   4.050   5.238 -0.2821 -0.6482 -0.3457
17506TIP3    H174009   1.960   4.060   5.196 -0.1505 -4.6122 -1.9621
17506TIP3    H274010   2.028   4.001   5.318  0.4080 -0.5202 -0.1057
17507TIP3   OH274011   1.633   1.488   2.634 -0.4040 -0.2574 -0.3790
17507TIP3    H174012   1.564   1.535   2.585 -0.8853  0.7039  1.1499
17507TIP3    H274013   1.692   1.557   2.664 -0.1452 -0.8271  0.4350
17508TIP3   OH274014   3.977   4.489  16.995 -0.3500  0.3844  0.1134
17508TIP3    H174015   3.931   4.526  17.071 -1.6535  3.2005 -1.8973
17508TIP3    H274016   4.070   4.495  17.019 -0.6492  2.4895  1.0115
17509TIP3   OH274017   2.781   2.871   5.676  0.4793  0.2627 -0.2400
17509TIP3    H174018   2.722   2.796   5.671  1.0972 -0.3323  0.8862
17509TIP3    H274019   2.840   2.860   5.601  0.3399 -0.1811 -0.2885
17510TIP3   OH274020   6.176   1.796  12.163  0.3014 -0.1922 -0.2134
17510TIP3    H174021   6.249   1.858  12.154  1.4346 -1.3200  0.7160
17510TIP3    H274022   6.179   1.744  12.083  1.1417 -0.8149  0.1923
17511TIP3   OH274023   6.367   6.247  14.362  0.1962 -0.8479  0.0789
17511TIP3    H174024   6.309   6.181  14.400  0.7001 -0.8951  0.7745
17511TIP3    H274025   6.372   6.316  14.428 -1.0698  0.3548 -1.0204
17512TIP3   OH274026   4.831   4.186   2.844 -0.0635 -0.6448  0.3838
17512TIP3    H174027   4.869   4.099   2.855  0.9103 -1.0238 -4.0176
17512TIP3    H274028   4.905   4.245   2.842 -0.6512  0.2220  2.3357
17513TIP3   OH274029   0.640   3.407  13.863  0.9169 -0.1205  0.4901
17513TIP3    H174030   0.674   3.359  13.939  0.4080 -1.1780  0.0678
17513TIP3    H274031   0.679   3.364  13.787  1.6505  1.1180  0.1322
17514TIP3   OH274032   4.269   0.866  15.823 -0.1983  0.0151  1.1884
17514TIP3    H174033   4.295   0.846  15.913 -0.7384 -0.1509  1.3114
17514TIP3    H274034   4.186   0.821  15.812  0.6198 -1.2956  0.0934
17515TIP3   OH274035   3.457   1.118   1.964 -0.5275 -0.1326 -0.0620
17515TIP3    H174036   3.536   1.064   1.966 -0.3900  0.0155 -0.8879
17515TIP3    H274037   3.444   1.137   1.871 -1.5535 -0.1764  0.0630
17516TIP3   OH274038   0.701   1.859  16.852 -0.5718 -0.5024 -0.0872
17516TIP3    H174039   0.752   1.929  16.810 -1.8801  0.5412 -0.0189
17516TIP3    H274040   0.689   1.794  16.783  0.8056 -0.7528 -0.1080
17517TIP3   OH274041   2.094   5.440  15.094  0.4621  0.0533  0.4258
17517TIP3    H174042   2.113   5.350  15.121 -0.5701 -0.0663  0.8078
17517TIP3    H274043   2.129   5.494  15.165  1.2733 -0.0356  0.0934
17518TIP3   OH274044   4.262   1.390  11.845 -0.1413  0.6960 -0.1899
17518TIP3    H174045   4.187   1.411  11.901  0.3497  0.5005  0.5588
17518TIP3    H274046   4.264   1.461  11.781 -0.3888  1.2323  0.3843
17519TIP3   OH274047   0.192   1.124   4.286 -0.6468  0.2298  0.2075
17519TIP3    H174048   0.250   1.184   4.238 -1.0678  0.7781  0.3729
17519TIP3    H274049   0.121   1.105   4.224 -0.2350 -0.5413 -0.0402
17520TIP3   OH274050   1.867   3.319  11.897 -0.1281 -0.0632  0.1064
17520TIP3    H174051   1.813   3.240  11.905  1.8259 -1.6474 -1.3683
17520TIP3    H274052   1.811   3.381  11.850 -1.5137 -0.7575  0.7831
17521TIP3   OH274053   5.892   4.868   0.214 -0.5342  0.2735  0.2600
17521TIP3    H174054   5.916   4.952   0.174 -1.8479 -0.1785 -1.6193
17521TIP3    H274055   5.900   4.884   0.308  1.3212  1.8327 -0.0996
17522TIP3   OH274056   2.598   2.114  12.100  0.6560 -0.3880  0.9851
17522TIP3    H174057   2.677   2.122  12.154 -0.4436  0.0917  2.6101
17522TIP3    H274058   2.526   2.131  12.161 -0.6213  2.4185 -1.0671
17523TIP3   OH274059   2.759   1.768   2.969  0.3377  0.2506 -0.5536
17523TIP3    H174060   2.800   1.682   2.973  2.9164  1.3487 -1.0479
17523TIP3    H274061   2.775   1.799   2.880  1.6254  2.1604  0.2691
17524TIP3   OH274062   1.562   0.900  15.643  0.1430  0.9052 -0.0960
17524TIP3    H174063   1.627   0.920  15.709  1.6208 -1.1626 -0.8019
17524TIP3    H274064   1.537   0.809  15.661  0.6561  0.2507 -2.3749
17525TIP3   OH274065   2.436   3.828   4.502 -0.2688 -0.0672 -0.6114
17525TIP3    H174066   2.456   3.905   4.449 -0.7099 -0.5066 -1.4475
17525TIP3    H274067   2.351   3.848   4.542 -1.1865 -0.7280 -2.1141
17526TIP3   OH274068   3.208   5.382  14.987  0.3309 -0.0517  0.0798
17526TIP3    H174069   3.282   5.406  15.041  0.4362  0.1178 -0.1388
17526TIP3    H274070   3.135   5.373  15.049  0.7070 -1.0073  0.3992
17527TIP3   OH274071   4.652   2.931   1.129  0.6909 -0.0384 -0.5009
17527TIP3    H174072   4.651   3.025   1.110  4.2607 -0.2202 -2.4523
17527TIP3    H274073   4.706   2.922   1.207 -0.1362 -0.4747  0.0410
17528TIP3   OH274074   2.156   0.365  12.142  0.4150 -0.4207 -0.3506
17528TIP3    H174075   2.195   0.375  12.229  0.0097  1.5044 -0.3335
17528TIP3    H274076   2.227   0.385  12.081  0.1769  0.3446 -0.3889
17529TIP3   OH274077   0.230   4.747   0.217 -0.5993  0.1896  0.0688
17529TIP3    H174078   0.219   4.831   0.261  0.5145  0.5385 -0.2904
17529TIP3    H274079   0.258   4.687   0.286  0.3678  0.5479  0.0013
17530TIP3   OH274080   5.108   2.107   4.868 -0.6807 -0.4263 -0.1127
17530TIP3    H174081   5.132   2.138   4.955 -2.8685  0.7513  0.1396
17530TIP3    H274082   5.111   2.011   4.875 -1.3302 -0.3645  1.4333
17531TIP3   OH274083   5.966   0.598   2.077  0.0621  0.1607 -0.8271
17531TIP3    H174084   6.019   0.549   2.141 -1.0621 -0.3992 -0.2993
17531TIP3    H274085   5.982   0.552   1.994 -1.1586 -1.2926 -0.2989
17532TIP3   OH274086   0.155   0.886   5.159 -0.9238  0.1329  0.1304
17532TIP3    H174087   0.213   0.871   5.233 -0.2737 -1.9083 -0.7215
17532TIP3    H274088   0.214   0.900   5.085 -1.5636  1.4804 -0.1593
17533TIP3   OH274089   4.238   4.067  14.962  0.0130  0.0544  0.6704
17533TIP3    H174090   4.230   3.987  14.911 -1.3525  0.7504 -0.2701
17533TIP3    H274091   4.150   4.085  14.993  0.2690  1.2652  0.7563
17534TIP3   OH274092   2.318   5.360   5.034  0.7709 -0.5061  0.2235
17534TIP3    H174093   2.360   5.405   5.107  1.0488  0.2449 -0.3778
17534TIP3    H274094   2.288   5.277   5.070  1.4726 -0.4219  1.0245
17535TIP3   OH274095   3.790   3.823   2.800 -0.5629  0.6662  0.0284
17535TIP3    H174096   3.799   3.836   2.705 -0.9409  3.0820  0.2550
17535TIP3    H274097   3.699   3.795   2.811 -0.0011 -1.4925 -0.4304
17536TIP3   OH274098   0.860   3.694  16.761 -0.3531  0.9957  0.5070
17536TIP3    H174099   0.814   3.757  16.815 -0.0561  2.0815 -0.4700
17536TIP3    H274100   0.811   3.691  16.679 -1.1336 -1.0619  0.9826
17537TIP3   OH274101   6.401   0.524  15.821 -0.0706 -0.1302 -0.2436
17537TIP3    H174102   6.325   0.576  15.797  0.3237  0.5397 -0.0667
17537TIP3    H274103   6.370   0.434  15.821 -0.8284  0.1288 -0.3018
17538TIP3   OH274104   2.226   3.198   3.260 -0.7804  0.2146  0.4870
17538TIP3    H174105   2.167   3.170   3.330 -2.0576 -1.3200 -1.1098
17538TIP3    H274106   2.168   3.237   3.194  0.0157 -0.9066 -0.9350
17539TIP3   OH274107   1.327   4.728   2.693 -0.1595 -0.1862  0.5981
17539TIP3    H174108   1.322   4.752   2.601 -1.1559 -0.8006  0.4822
17539TIP3    H274109   1.265   4.788   2.736 -0.7181 -0.8093  0.6704
17540TIP3   OH274110   5.662   4.597   3.411  0.3564  0.2170 -0.5656
17540TIP3    H174111   5.581   4.611   3.460 -0.0039  1.0263 -1.3658
17540TIP3    H274112   5.655   4.508   3.377  0.8861 -0.5941  1.3315
17541TIP3   OH274113   0.871   5.875  15.990 -0.9014 -0.0109 -0.4067
17541TIP3    H174114   0.804   5.938  15.965 -2.0786 -1.0015  0.1593
17541TIP3    H274115   0.872   5.877  16.085  0.8811  0.9955 -0.4158
17542TIP3   OH274116   0.720   6.471   1.892 -0.6993  0.0932 -0.1257
17542TIP3    H174117   0.768   6.436   1.816  0.0942 -3.1118  1.6858
17542TIP3    H274118   0.779   6.536   1.929  0.0299 -0.1399 -0.8382
17543TIP3   OH274119   4.278   6.300   2.905  0.1233  0.1410  0.4608
17543TIP3    H174120   4.236   6.262   2.828 -1.9873  2.0964  0.5455
17543TIP3    H274121   4.283   6.227   2.967 -1.5255 -0.6111 -0.2129
17544TIP3   OH274122   5.396   1.632   0.010  0.1754  0.2659  0.5703
17544TIP3    H174123   5.408   1.543  -0.025 -2.9336 -0.4810  1.1321
17544TIP3    H274124   5.314   1.662  -0.029  0.7507  2.6120  1.0439
17545TIP3   OH274125   0.951   1.442  11.644  0.0037 -0.2415  0.1732
17545TIP3    H174126   1.000   1.503  11.700  2.1482 -1.1251 -0.6188
17545TIP3    H274127   0.868   1.428  11.690  0.0010  2.1970  1.0348
17546TIP3   OH274128   0.042   4.396   0.303 -0.4558 -0.2173 -0.0818
17546TIP3    H174129   0.048   4.303   0.325  0.2424 -0.4154 -1.0471
17546TIP3    H274130   0.045   4.441   0.388  0.2058 -1.0269  0.3408
17547TIP3   OH274131   1.727   3.828   3.906  0.2888  0.0429  0.0902
17547TIP3    H174132   1.648   3.852   3.858  0.0354 -0.2712  0.3504
17547TIP3    H274133   1.752   3.743   3.870  0.1087 -0.1841  0.4988
17548TIP3   OH274134   0.793   1.089   5.486 -0.0341  0.2606  0.6459
17548TIP3    H174135   0.865   1.136   5.444  0.4451 -0.7748  0.2470
17548TIP3    H274136   0.835   1.015   5.530 -0.8737 -0.5961  0.0628
17549TIP3   OH274137   1.828   1.210  17.518  0.5966  0.0075  0.0165
17549TIP3    H174138   1.878   1.129  17.507  0.0473 -0.1177 -1.8405
17549TIP3    H274139   1.770   1.192  17.593  0.6379 -1.2267 -0.2289
17550TIP3   OH274140   5.770   0.001  17.363  0.4062  0.0488 -0.0867
17550TIP3    H174141   5.834   0.032  17.298 -0.4348 -1.5381 -1.7584
17550TIP3    H274142   5.713   0.076  17.377  1.6146  0.9634  0.1518
17551TIP3   OH274143   3.251   3.594   5.644  0.2641  0.1063  0.4743
17551TIP3    H174144   3.165   3.579   5.684 -0.0479 -0.5123 -0.4019
17551TIP3    H274145   3.301   3.516   5.664  0.1567 -0.1387 -0.2042
17552TIP3   OH274146   1.383   0.579  14.019  0.6192  0.2356  0.0552
17552TIP3    H174147   1.416   0.563  14.108  0.7135 -1.8435 -0.2959
17552TIP3    H274148   1.310   0.640  14.031  2.9890  3.0656  1.1087
17553TIP3   OH274149   2.418   4.488  13.584 -1.1370 -0.3754 -0.1660
17553TIP3    H174150   2.488   4.425  13.566  0.6839  1.4290  0.2621
17553TIP3    H274151   2.339   4.435  13.589  0.5169 -2.8748  1.8255
17554TIP3   OH274152   3.276   1.427   5.166  0.2996 -0.4318 -0.5612
17554TIP3    H174153   3.286   1.444   5.260  0.1339 -1.4801 -0.3420
17554TIP3    H274154   3.186   1.452   5.146 -0.2364 -1.8489 -0.0445
17555TIP3   OH274155   4.794   4.048   0.959 -0.2487 -0.1324 -0.2495
17555TIP3    H174156   4.878   4.008   0.936 -1.0239 -1.7615 -0.3822
17555TIP3    H274157   4.815   4.106   1.033  0.6540 -2.1434  1.1676
17556TIP3   OH274158   5.319   5.126   3.484 -0.1727 -0.1568 -0.0371
17556TIP3    H174159   5.252   5.149   3.419 -1.8398  0.2535  1.7364
17556TIP3    H274160   5.364   5.208   3.502  0.3371 -0.2838 -0.6847
17557TIP3   OH274161   4.402   0.215   5.005 -0.4358  0.2068 -0.0311
17557TIP3    H174162   4.317   0.175   4.988 -0.5057  0.3479 -0.0182
17557TIP3    H274163   4.427   0.254   4.922 -0.8524  1.0348  0.2186
17558TIP3   OH274164   4.550   6.371  17.475  0.3340  0.0008  0.0922
17558TIP3    H174165   4.605   6.298  17.449  0.1063  0.1887 -0.9445
17558TIP3    H274166   4.479   6.373  17.411 -1.3331 -0.7028  1.8232
17559TIP3   OH274167   3.137   4.422  17.452 -0.4242  0.6522 -0.2809
17559TIP3    H174168   3.139   4.371  17.533  0.3124 -0.2207 -0.8332
17559TIP3    H274169   3.199   4.493  17.467 -1.7059  1.6447  0.6208
17560TIP3   OH274170   2.795   2.602   1.728 -0.3663 -0.8026  0.2617
17560TIP3    H174171   2.720   2.599   1.669  0.8297 -0.5648 -1.3476
17560TIP3    H274172   2.795   2.690   1.764 -0.7405 -0.7475  0.1275
17561TIP3   OH274173   1.614   2.415  11.522 -0.0558  0.1858  0.0973
17561TIP3    H174174   1.682   2.431  11.587  0.7807 -1.6322 -0.2711
17561TIP3    H274175   1.624   2.486  11.458  3.1653 -1.3281 -1.2601
17562TIP3   OH274176   6.106   5.267   2.717 -0.2617 -0.0095 -0.1290
17562TIP3    H174177   6.193   5.247   2.751 -0.1485  1.9199  0.8371
17562TIP3    H274178   6.112   5.249   2.624  0.9139 -0.7396  0.0745
17563TIP3   OH274179   0.928   3.524   4.332 -0.4907  0.2251 -0.8737
17563TIP3    H174180   1.010   3.516   4.380 -0.5367 -0.2509 -0.8660
17563TIP3    H274181   0.891   3.608   4.359 -1.2382 -0.6668  1.0592
17564TIP3   OH274182   4.407   0.164   3.233 -0.7208  0.4172  0.3684
17564TIP3    H174183   4.404   0.106   3.157  0.0274  0.8367  0.0086
17564TIP3    H274184   4.459   0.239   3.204 -1.3698  1.1036  0.9449
17565TIP3   OH274185   3.154   0.890   6.087  0.5249 -0.3284 -0.5707
17565TIP3    H174186   3.076   0.841   6.061  0.0284 -0.2787  0.7193
17565TIP3    H274187   3.171   0.949   6.013 -1.0820  0.1472 -0.6137
17566TIP3   OH274188   3.629   4.465  15.901  0.1185  0.5566  0.2082
17566TIP3    H174189   3.650   4.380  15.863  2.5374  0.1843  2.1352
17566TIP3    H274190   3.592   4.444  15.987 -2.2026  1.4397 -0.5063
17567TIP3   OH274191   2.317   6.084   2.701 -0.1179  0.8509  0.0236
17567TIP3    H174192   2.379   6.047   2.638 -0.9104  1.6340 -1.2675
17567TIP3    H274193   2.231   6.071   2.660 -0.8381 -0.2246  1.7728
17568TIP3   OH274194   3.051   1.080   0.335  0.7716  0.4576  0.1656
17568TIP3    H174195   2.995   1.004   0.318  0.4717  0.7913 -0.3406
17568TIP3    H274196   2.995   1.140   0.385  0.3958  1.1478 -1.0531
17569TIP3   OH274197   3.288   5.194   5.591 -0.3452 -0.1957  0.2715
17569TIP3    H174198   3.350   5.121   5.595 -1.5586 -1.2411  0.5274
17569TIP3    H274199   3.337   5.269   5.624  0.1625 -1.4422  2.5702
17570TIP3   OH274200   0.947   1.926   3.011  0.0136  0.8453  0.2702
17570TIP3    H174201   0.928   1.843   3.055 -0.4360  1.5648  1.4871
17570TIP3    H274202   0.880   1.933   2.943  1.1911 -0.6602 -1.1260
17571TIP3   OH274203   0.821   5.660  14.918  0.2286 -0.1473 -0.0408
17571TIP3    H174204   0.840   5.747  14.953 -0.1901  0.8378 -2.0810
17571TIP3    H274205   0.855   5.663  14.828  0.6827 -2.2938  0.0213
17572TIP3   OH274206   0.089   4.354   5.630  0.0346 -0.4392  0.6002
17572TIP3    H174207  -0.001   4.320   5.632 -0.6090  1.1739  1.0833
17572TIP3    H274208   0.097   4.392   5.542 -0.1169  0.2417  0.8674
17573TIP3   OH274209   0.929   0.541   3.487  0.1529  0.4403  0.4049
17573TIP3    H174210   0.945   0.596   3.564 -1.6956 -0.4852  1.5024
17573TIP3    H274211   0.866   0.591   3.435  1.3316  1.0224 -0.4997
17574TIP3   OH274212   3.808   1.105   2.630 -0.2259 -0.6858  0.3935
17574TIP3    H174213   3.769   1.041   2.570 -0.4171 -1.1465  0.9964
17574TIP3    H274214   3.902   1.094   2.618 -0.2407  0.2721 -0.8997
17575TIP3   OH274215   6.416   5.064  11.633 -0.3034  0.0535  0.1040
17575TIP3    H174216   6.373   5.020  11.560  0.0263 -1.5692  0.8451
17575TIP3    H274217   6.380   5.153  11.633 -1.4883 -0.4119 -1.0338
17576TIP3   OH274218   1.580   4.227  15.240 -0.1350 -0.2786  0.0569
17576TIP3    H174219   1.573   4.132  15.231 -1.4334 -0.1613 -0.3907
17576TIP3    H274220   1.490   4.259  15.231  0.0594  0.8762  1.7081
17577TIP3   OH274221   2.690   1.386   1.995  0.3938  0.5647  0.3525
17577TIP3    H174222   2.688   1.322   2.066  0.5497 -0.5340 -0.6166
17577TIP3    H274223   2.741   1.345   1.926 -1.2842  0.8361 -1.1277
17578TIP3   OH274224   1.525   4.431  14.825  0.1833 -0.5710 -0.3300
17578TIP3    H174225   1.457   4.395  14.768  1.5553 -1.2700 -1.5891
17578TIP3    H274226   1.586   4.359  14.837  1.0928  0.2650  0.1473
17579TIP3   OH274227   0.699   2.941  15.163  0.1429 -0.8312 -0.4626
17579TIP3    H174228   0.733   3.009  15.104 -0.5224  0.0306  0.1083
17579TIP3    H274229   0.742   2.861  15.134  3.0409  0.2260  0.5108
17580TIP3   OH274230   0.142   4.157   4.627 -0.0185 -0.4321  0.1310
17580TIP3    H174231   0.057   4.145   4.669 -1.0946 -0.3001 -1.8941
17580TIP3    H274232   0.126   4.141   4.534  1.7546  1.5306 -0.5960
17581TIP3   OH274233   6.175   3.409   5.647  0.3513 -0.1955 -0.2842
17581TIP3    H174234   6.256   3.359   5.640  0.1187 -0.3991 -1.9706
17581TIP3    H274235   6.137   3.405   5.559 -1.2749  0.2570  0.3656
17582TIP3   OH274236   6.164   1.507  11.624  0.9938 -0.0149 -0.1141
17582TIP3    H174237   6.144   1.570  11.694 -1.6777 -0.6411 -0.2129
17582TIP3    H274238   6.154   1.422  11.665  0.5158 -0.3828 -0.9734
17583TIP3   OH274239   3.999   0.050   5.394 -0.5514 -0.1601  0.4375
17583TIP3    H174240   4.037   0.016   5.474  0.7312 -1.1912 -0.5572
17583TIP3    H274241   3.966  -0.027   5.348  1.0516  0.0431 -1.1686
17584TIP3   OH274242   5.537   5.589  16.410  0.5364  0.4054 -0.2879
17584TIP3    H174243   5.444   5.600  16.428  0.4237 -0.1759 -0.4878
17584TIP3    H274244   5.556   5.654  16.342  0.6436  1.6066  0.8608
17585TIP3   OH274245   5.693   0.848   5.552  1.0365 -0.5290  0.1732
17585TIP3    H174246   5.611   0.824   5.509 -0.6937 -0.5770  3.2305
17585TIP3    H274247   5.712   0.936   5.521 -1.3294  0.2952  0.9055
17586TIP3   OH274248   2.918   0.027  10.827  0.1773 -0.4777  0.4637
17586TIP3    H174249   2.830   0.038  10.863 -0.0619  0.3553 -0.3389
17586TIP3    H274250   2.958   0.114  10.833 -0.5869  0.2671 -3.0299
17587TIP3   OH274251   5.472   2.421   1.426  0.0043 -0.3477 -0.4769
17587TIP3    H174252   5.377   2.411   1.418 -0.2357  1.4928 -0.4169
17587TIP3    H274253   5.508   2.337   1.398 -1.6571 -1.2986  0.0993
17588TIP3   OH274254   2.404   4.671  17.107  0.3482 -0.0202  0.0122
17588TIP3    H174255   2.478   4.610  17.111  1.2466  1.0026 -0.4628
17588TIP3    H274256   2.379   4.684  17.199  0.5822 -0.5783  0.1588
17589TIP3   OH274257   3.427   3.116  14.332 -0.0328 -0.1305  0.2336
17589TIP3    H174258   3.343   3.100  14.290 -0.4796  0.3414  0.9245
17589TIP3    H274259   3.432   3.212  14.339  0.2025 -0.1856  0.9020
17590TIP3   OH274260   1.555   3.715  17.503  0.0470 -0.2098  0.0358
17590TIP3    H174261   1.490   3.677  17.444 -0.6394  1.1946 -0.1643
17590TIP3    H274262   1.504   3.744  17.579  0.6337 -0.2256  0.4465
17591TIP3   OH274263   5.491   1.009  15.613  0.5613  0.1987 -0.4262
17591TIP3    H174264   5.574   0.966  15.596 -0.5413 -1.3682 -2.2248
17591TIP3    H274265   5.478   1.001  15.707  2.0078 -0.3387 -0.2560
17592TIP3   OH274266   5.218   6.484  16.072  0.0470 -0.5053  0.2631
17592TIP3    H174267   5.231   6.410  16.132 -0.0980  0.0966  1.0576
17592TIP3    H274268   5.307   6.517  16.056  0.1344 -1.0005 -0.2958
17593TIP3   OH274269   0.769   3.133   4.953  0.1172  0.0122 -0.2576
17593TIP3    H174270   0.691   3.182   4.980  1.1987  0.2094  2.9701
17593TIP3    H274271   0.840   3.197   4.957  1.2841 -1.2926  2.4120
17594TIP3   OH274272   1.575   1.968   1.664 -0.1228 -0.5831  0.1821
17594TIP3    H174273   1.610   1.969   1.753  0.0557 -2.8510  0.1895
17594TIP3    H274274   1.481   1.986   1.675 -0.3198 -1.9913  0.9748
17595TIP3   OH274275   2.554   5.893  13.534  0.5197 -0.1336  0.4528
17595TIP3    H174276   2.616   5.922  13.601  0.9051 -0.7337  0.3659
17595TIP3    H274277   2.581   5.940  13.455  0.5379  0.0035  0.5396
17596TIP3   OH274278   6.089   5.883  16.908  0.7212  0.1166  0.1397
17596TIP3    H174279   6.132   5.884  16.993 -0.8012 -1.0045  0.9759
17596TIP3    H274280   6.080   5.790  16.886 -4.7284 -0.1305  1.9796
17597TIP3   OH274281   5.424   4.054   4.110 -0.5951 -0.3146  0.0896
17597TIP3    H174282   5.345   4.028   4.157 -2.0285  1.1281 -1.3671
17597TIP3    H274283   5.457   4.130   4.158 -1.0398  0.0677 -0.1983
17598TIP3   OH274284   4.942   3.105  15.006 -0.0245 -0.0222  0.2803
17598TIP3    H174285   4.853   3.073  15.017 -0.3821 -0.2401 -2.5594
17598TIP3    H274286   4.993   3.056  15.070 -1.6229 -1.3844  0.5769
17599TIP3   OH274287   1.174   6.470   1.948  0.0458 -0.4033  0.8851
17599TIP3    H174288   1.260   6.512   1.944 -0.5202  0.7392  0.2442
17599TIP3    H274289   1.158   6.441   1.859 -0.6675  0.3125  0.7706
17600TIP3   OH274290   5.261   4.636  12.969 -0.2925  0.6373  0.2742
17600TIP3    H174291   5.274   4.578  13.044 -1.4834 -0.4267 -0.3118
17600TIP3    H274292   5.183   4.687  12.991 -0.3396  0.6927 -0.0166
17601TIP3   OH274293   2.248   4.746  12.319 -0.8412 -0.1472 -0.4826
17601TIP3    H174294   2.233   4.730  12.412 -0.2566 -0.9593 -0.5141
17601TIP3    H274295   2.192   4.681  12.275 -0.9462  0.0843 -0.6942
17602TIP3   OH274296   2.752   2.814   0.265  0.7862  0.0057 -0.4763
17602TIP3    H174297   2.779   2.821   0.173  1.0138 -0.6769 -0.4738
17602TIP3    H274298   2.680   2.751   0.263 -0.4839  1.4264 -0.4136
17603TIP3   OH274299   4.009   5.433  11.433 -0.0479 -0.2713  0.3199
17603TIP3    H174300   3.953   5.435  11.511 -1.9462 -2.4111 -0.8574
17603TIP3    H274301   4.090   5.393  11.463  1.0562  2.8681  2.0718
17604TIP3   OH274302   1.850   5.092   4.186 -0.9076 -0.4160 -0.0969
17604TIP3    H174303   1.902   5.133   4.256 -2.3189  2.3746 -0.5567
17604TIP3    H274304   1.885   5.129   4.105 -2.2844 -0.0222 -0.5388
17605TIP3   OH274305   1.243   4.372  14.092  0.1159 -0.0182  0.4626
17605TIP3    H174306   1.238   4.444  14.030 -1.2742 -1.0145 -0.6635
17605TIP3    H274307   1.192   4.401  14.168 -2.9816 -0.7868 -1.1357
17606TIP3   OH274308   5.500   4.753  12.182 -0.0531  1.0767  0.3196
17606TIP3    H174309   5.539   4.760  12.095 -0.5511  0.4149  0.0397
17606TIP3    H274310   5.409   4.781  12.170 -1.0546 -1.9703 -0.0661
17607TIP3   OH274311   0.626   4.491   3.405  0.2284 -0.5509 -0.3431
17607TIP3    H174312   0.667   4.405   3.401 -1.4807 -1.3533 -3.0744
17607TIP3    H274313   0.693   4.551   3.374  1.3739 -0.8665  1.3997
17608TIP3   OH274314   5.525   3.296  13.878  0.3623 -0.6070  0.0109
17608TIP3    H174315   5.524   3.361  13.949 -0.9447 -1.6751  1.0125
17608TIP3    H274316   5.526   3.212  13.923 -1.3125 -1.3311 -1.2191
17609TIP3   OH274317   5.966   2.916   5.231  0.1771  0.1201  0.4083
17609TIP3    H174318   6.054   2.892   5.260  0.8025  1.9915  0.1828
17609TIP3    H274319   5.967   2.900   5.136  0.3856  0.4285  0.3566
17610TIP3   OH274320   0.861   6.451   4.597  0.1519  0.3574  0.3991
17610TIP3    H174321   0.826   6.430   4.683  0.5633 -1.7514  0.0972
17610TIP3    H274322   0.815   6.530   4.571 -1.4467 -0.1024  1.7033
17611TIP3   OH274323   4.155   0.884  12.386 -0.0764 -0.3777  0.5875
17611TIP3    H174324   4.087   0.910  12.449  0.8487  0.7880  1.1357
17611TIP3    H274325   4.189   0.967  12.353 -0.6474 -0.9516 -1.6099
17612TIP3   OH274326   0.695   0.609   3.372 -0.2338  0.4825 -0.1573
17612TIP3    H174327   0.661   0.526   3.340 -1.2889  0.8147  0.0681
17612TIP3    H274328   0.618   0.658   3.400  0.5215  0.6410  1.8553
17613TIP3   OH274329   4.580   1.480   2.461  0.0299 -0.5494  0.4347
17613TIP3    H174330   4.674   1.498   2.463 -0.0026 -0.0005 -1.3850
17613TIP3    H274331   4.573   1.393   2.423 -0.1994 -0.4966  0.3561
17614TIP3   OH274332   6.209   3.440   3.689  0.0399  0.0966 -0.4314
17614TIP3    H174333   6.165   3.484   3.762 -1.4293 -0.8652 -0.6730
17614TIP3    H274334   6.288   3.402   3.728 -0.0294  0.7180  0.3463
17615TIP3   OH274335   5.501   4.204  14.853 -0.5067 -0.1760  0.4237
17615TIP3    H174336   5.485   4.272  14.788  2.4168 -0.1740 -0.4653
17615TIP3    H274337   5.457   4.126  14.818  2.4669 -0.6901 -2.7429
17616TIP3   OH274338   2.267   6.092  12.160 -0.0335  0.5974 -0.2818
17616TIP3    H174339   2.302   6.065  12.075  0.6174  1.6899 -0.3820
17616TIP3    H274340   2.176   6.062  12.159  0.1679 -0.0151 -1.0838
17617TIP3   OH274341   0.634   6.024   4.090 -0.4821  0.0434 -0.1111
17617TIP3    H174342   0.591   5.995   4.010 -1.2068 -0.7287  0.5388
17617TIP3    H274343   0.601   5.965   4.158 -1.2246  1.7295  1.0773
17618TIP3   OH274344   2.955   4.497   2.380 -0.4953  0.2093  0.0046
17618TIP3    H174345   3.010   4.424   2.409  0.0342  0.0320 -1.3768
17618TIP3    H274346   2.866   4.461   2.379 -0.2965 -0.2901 -0.2272
17619TIP3   OH274347   4.493   2.638   5.471 -0.0560 -0.0821  0.0642
17619TIP3    H174348   4.584   2.611   5.457  0.2139  0.8288  0.0421
17619TIP3    H274349   4.442   2.560   5.448  0.6908 -0.4615 -0.3530
17620TIP3   OH274350   6.353   1.109   2.346  0.0872  0.3938  0.1762
17620TIP3    H174351   6.294   1.114   2.420  1.6141 -1.6251  1.6276
17620TIP3    H274352   6.296   1.089   2.271 -1.4574  2.3770  0.7118
17621TIP3   OH274353   2.107   0.877   5.326 -0.4957 -0.1025  0.1413
17621TIP3    H174354   2.059   0.824   5.262  0.3336 -0.5577 -0.1221
17621TIP3    H274355   2.144   0.813   5.387 -0.3094  0.2419  0.3914
17622TIP3   OH274356   2.186   6.142   0.495 -0.5900 -0.0478 -0.2174
17622TIP3    H174357   2.168   6.121   0.587 -0.3467 -1.0077 -0.3778
17622TIP3    H274358   2.193   6.237   0.493  0.8971 -0.0890  1.0371
17623TIP3   OH274359   5.884   4.024  16.484 -0.0772  0.5316 -0.0233
17623TIP3    H174360   5.797   4.035  16.523  0.6851  1.2807  1.5745
17623TIP3    H274361   5.919   4.113  16.479  0.5583  0.2454 -0.7857
17624TIP3   OH274362   5.153   1.705  17.439  0.1543 -0.1404  0.3961
17624TIP3    H174363   5.089   1.711  17.368  1.3195  0.7183 -0.6576
17624TIP3    H274364   5.127   1.774  17.501  0.3057  0.5224 -0.2576
17625TIP3   OH274365   2.202   5.682   4.450  0.5241 -0.0560  0.5007
17625TIP3    H174366   2.195   5.594   4.488 -1.6415 -0.8382 -1.4661
17625TIP3    H274367   2.185   5.741   4.523 -0.8407 -1.4004  1.3362
17626TIP3   OH274368   5.805   2.413  11.561  0.2040 -0.6458  0.4527
17626TIP3    H174369   5.734   2.477  11.562 -0.4393 -1.3431  1.5665
17626TIP3    H274370   5.780   2.351  11.493 -0.0208 -0.6241  0.5130
17627TIP3   OH274371   3.958   5.469   1.389  0.3376  0.6459 -0.7774
17627TIP3    H174372   3.947   5.539   1.453  0.4512  0.1132 -0.1737
17627TIP3    H274373   3.974   5.515   1.306  1.0234  1.3219 -0.2787
17628TIP3   OH274374   5.500   4.074  17.031  0.1093  1.1451 -0.0227
17628TIP3    H174375   5.448   4.037  16.960 -0.0269  2.8358 -0.8365
17628TIP3    H274376   5.460   4.038  17.111  1.0780 -1.8468 -0.7413
17629TIP3   OH274377   3.780   1.310   6.127  0.1659 -0.2916 -0.4067
17629TIP3    H174378   3.809   1.401   6.120 -0.7509  0.1783  1.2772
17629TIP3    H274379   3.856   1.262   6.161  0.1362  0.1960  0.3659
17630TIP3   OH274380   5.393   2.786  14.233 -0.0876  0.1880 -0.1828
17630TIP3    H174381   5.402   2.827  14.319 -0.7578  0.2187 -0.1210
17630TIP3    H274382   5.483   2.771  14.204  0.2672  3.0443 -0.8412
17631TIP3   OH274383   3.550   4.433   0.655 -0.3156  0.3138 -0.6743
17631TIP3    H174384   3.487   4.505   0.650 -0.2956  0.5644  1.7415
17631TIP3    H274385   3.632   4.472   0.625 -0.4350  1.1350  0.0311
17632TIP3   OH274386   4.384   1.818   1.743 -0.3409  0.1747 -0.4457
17632TIP3    H174387   4.363   1.881   1.674  1.0744 -0.6496 -1.6986
17632TIP3    H274388   4.388   1.734   1.697 -0.4625 -0.5623  0.8665
17633TIP3   OH274389   5.491   4.672  11.892  0.0435  1.0718  0.0857
17633TIP3    H174390   5.538   4.742  11.847 -0.5418  0.7517 -1.0780
17633TIP3    H274391   5.559   4.608  11.914  0.0396 -0.5485 -3.7343
17634TIP3   OH274392   3.533   0.293  10.406  0.0808 -0.8276  0.1442
17634TIP3    H174393   3.472   0.355  10.446  1.8485  1.8292 -0.9951
17634TIP3    H274394   3.484   0.254  10.333 -0.5803  0.4949 -0.1436
17635TIP3   OH274395   0.718   4.227   1.639 -0.7226 -0.0437  0.2811
17635TIP3    H174396   0.668   4.224   1.558 -0.7454 -1.0798  0.3208
17635TIP3    H274397   0.654   4.205   1.708 -0.6495  0.5784  0.5550
17636TIP3   OH274398   6.473   0.906  15.341 -0.1761 -0.3451  0.0891
17636TIP3    H174399   6.563   0.924  15.314 -0.2327  1.7357  1.1644
17636TIP3    H274400   6.482   0.844  15.414  0.4346  0.4848  0.7279
17637TIP3   OH274401   6.632   1.892   4.060  0.0480  0.1069  0.4666
17637TIP3    H174402   6.550   1.880   4.107 -0.1406 -0.4526  0.0089
17637TIP3    H274403   6.692   1.829   4.100  1.0350  2.1794  2.4892
17638TIP3   OH274404   3.122   5.137  14.652 -0.2105  0.2009  0.3411
17638TIP3    H174405   3.062   5.099  14.716 -0.5721  0.7473  0.3362
17638TIP3    H274406   3.085   5.223  14.633 -0.5424 -0.2466 -1.1811
17639TIP3   OH274407   6.252   4.795   5.698 -0.5019  0.0547 -0.7789
17639TIP3    H174408   6.287   4.874   5.657 -0.9073  0.2825 -0.6889
17639TIP3    H274409   6.289   4.795   5.786 -0.7146  0.2830 -0.6909
17640TIP3   OH274410   2.742   0.283  15.681 -0.2292  0.5058  0.7429
17640TIP3    H174411   2.790   0.222  15.737 -0.6058  0.5164  1.0788
17640TIP3    H274412   2.806   0.351  15.659  0.0733  0.2097  0.7098
17641TIP3   OH274413   4.461   3.073   5.205 -0.1754 -0.0853  0.4908
17641TIP3    H174414   4.492   3.160   5.230 -0.9709  0.9524 -1.8928
17641TIP3    H274415   4.505   3.014   5.267  0.2750  1.9775  2.2731
17642TIP3   OH274416   1.759   5.325  16.240  0.1922 -0.2308  0.3494
17642TIP3    H174417   1.684   5.381  16.218 -0.2206 -0.5308  0.9536
17642TIP3    H274418   1.825   5.387  16.271  0.1768  0.0321 -0.1264
17643TIP3   OH274419   2.302   2.165   5.854 -0.0439  0.1815  0.0073
17643TIP3    H174420   2.263   2.078   5.860 -0.6577  0.4951  0.8196
17643TIP3    H274421   2.233   2.224   5.886  0.8660  0.8249  0.8189
17644TIP3   OH274422   1.913   1.415   0.960  0.6697  0.1242  0.1349
17644TIP3    H174423   1.832   1.380   0.997  0.4168 -1.7232 -1.9285
17644TIP3    H274424   1.888   1.496   0.917 -0.7926 -1.6578 -2.7075
17645TIP3   OH274425   4.852   2.627   2.983  0.2457  0.2674  0.2010
17645TIP3    H174426   4.825   2.536   2.994  0.8675  0.0032 -0.3754
17645TIP3    H274427   4.774   2.672   2.950 -0.2731  0.1074  1.1734
17646TIP3   OH274428   5.992   0.052   0.622  0.3847  0.2459 -0.0221
17646TIP3    H174429   5.926   0.106   0.578 -1.0172 -0.2174  1.4202
17646TIP3    H274430   6.015   0.102   0.700  0.7639 -0.2239  0.1706
17647TIP3   OH274431   0.903   3.973   5.033  0.1050  0.2156 -0.2896
17647TIP3    H174432   0.996   3.957   5.049 -0.1851 -2.2673 -0.7807
17647TIP3    H274433   0.862   3.888   5.045 -2.1437  1.2709 -0.0444
17648TIP3   OH274434   6.040   4.748  14.019 -0.0892 -0.0029 -0.3993
17648TIP3    H174435   6.087   4.673  14.054 -1.0370  0.1322  1.3076
17648TIP3    H274436   6.106   4.818  14.015  0.7760 -0.8541 -1.9350
17649TIP3   OH274437   2.192   6.484   0.177 -0.0347 -0.3861  0.3706
17649TIP3    H174438   2.232   6.398   0.182 -0.9274 -0.8396 -0.0630
17649TIP3    H274439   2.113   6.472   0.124  0.2749  0.8685 -0.4283
17650TIP3   OH274440   0.550   3.223  16.408 -0.4355 -0.0744 -0.3107
17650TIP3    H174441   0.645   3.223  16.391 -0.3810 -2.6318 -0.5066
17650TIP3    H274442   0.517   3.301  16.364  1.6981  1.5253  0.7195
17651TIP3   OH274443   3.917   3.080  13.938  0.1053  0.1112  0.1433
17651TIP3    H174444   3.931   2.986  13.933  0.2616 -0.0053  2.1154
17651TIP3    H274445   3.829   3.090  13.974  0.6682  0.6650  1.4349
17652TIP3   OH274446   5.541   0.268   5.849  0.1823  0.0529  0.1246
17652TIP3    H174447   5.591   0.258   5.930 -0.1252  0.2415  0.3376
17652TIP3    H274448   5.524   0.362   5.843  0.5385  0.0938 -0.3625
17653TIP3   OH274449   1.663   5.470  13.843 -0.3566  0.0960 -0.1385
17653TIP3    H174450   1.663   5.387  13.794  1.4760  0.4791 -0.8417
17653TIP3    H274451   1.645   5.537  13.777 -1.5891  0.3208  0.3904
17654TIP3   OH274452   5.470   5.866   1.981  0.0346 -0.2896  0.0400
17654TIP3    H174453   5.524   5.793   1.954  0.2069  0.6966 -2.6288
17654TIP3    H274454   5.383   5.829   1.995  0.0133 -0.9668 -1.7373
17655TIP3   OH274455   3.785   0.605  10.654  0.2177 -0.2151  0.5371
17655TIP3    H174456   3.733   0.673  10.695 -1.6072  0.9852 -3.2970
17655TIP3    H274457   3.854   0.652  10.608 -0.1849 -0.9935 -0.9404
17656TIP3   OH274458   0.828   1.338  12.344 -0.1518  0.1182  0.4478
17656TIP3    H174459   0.822   1.266  12.406  2.6773 -0.5952  0.0265
17656TIP3    H274460   0.768   1.314  12.273 -0.3180 -1.1128  0.9838
17657TIP3   OH274461   3.618   1.026  12.774 -0.7971  0.5909  0.6821
17657TIP3    H174462   3.690   1.028  12.837  1.1695  0.1345 -1.4241
17657TIP3    H274463   3.646   0.963  12.708 -2.3768  1.6414 -1.0845
17658TIP3   OH274464   0.802   4.666  15.120 -0.3162  0.2982  0.1216
17658TIP3    H174465   0.744   4.593  15.143 -1.3600  1.0986  0.1165
17658TIP3    H274466   0.744   4.743  15.119  0.9004  1.2556  0.8827
17659TIP3   OH274467   1.101   2.984  17.023  0.1324 -0.5081 -0.4259
17659TIP3    H174468   1.054   3.019  17.099 -0.2145 -0.5738 -0.6088
17659TIP3    H274469   1.037   2.988  16.952 -0.6702 -3.5301 -0.0057
17660TIP3   OH274470   3.681   2.809   0.640 -0.4959  0.5567 -0.3708
17660TIP3    H174471   3.662   2.844   0.553 -1.7576 -0.0917 -0.3854
17660TIP3    H274472   3.667   2.883   0.699 -2.3245  0.3601 -0.4807
17661TIP3   OH274473   1.975   1.560  17.077 -0.5087  0.6836 -0.3477
17661TIP3    H174474   1.892   1.554  17.124 -1.4072  0.6179 -1.8954
17661TIP3    H274475   1.974   1.486  17.016  2.0455 -1.1459  1.6219
17662TIP3   OH274476   3.424   6.691  14.218  0.2122 -0.6018 -0.0097
17662TIP3    H174477   3.501   6.658  14.172  1.3088 -0.0178  1.3267
17662TIP3    H274478   3.365   6.616  14.223  0.2083 -0.7867 -1.9674
17663TIP3   OH274479   3.239   1.729   2.240  0.0648 -0.8408  0.2162
17663TIP3    H174480   3.251   1.638   2.265 -1.8130 -1.0460  0.4924
17663TIP3    H274481   3.249   1.778   2.321 -1.1391 -1.0473  0.5172
17664TIP3   OH274482   4.586   0.787   1.861 -0.6666 -0.6392 -0.1318
17664TIP3    H174483   4.578   0.756   1.771 -2.3393 -0.4466 -0.0821
17664TIP3    H274484   4.649   0.728   1.901 -0.3157 -1.0728 -1.2772
17665TIP3   OH274485   3.842   4.174  14.352  0.3417  0.8273  0.4131
17665TIP3    H174486   3.890   4.253  14.379  0.6326  0.5502  0.7180
17665TIP3    H274487   3.860   4.166  14.259  2.3441 -0.2486  0.8527
17666TIP3   OH274488   4.070   3.863  14.294  0.4469  0.4361 -0.0573
17666TIP3    H174489   4.151   3.910  14.313  0.9028 -0.2843 -0.1954
17666TIP3    H274490   4.079   3.833  14.204  1.1714 -1.8485  0.6847
17667TIP3   OH274491   5.896   3.675   0.843 -0.1308  0.4364 -0.0787
17667TIP3    H174492   5.805   3.692   0.866 -0.9299 -0.8881 -1.9850
17667TIP3    H274493   5.920   3.598   0.895 -0.7429 -0.3540 -0.9374
17668TIP3   OH274494   4.649   5.766   5.609  0.2882 -0.5753 -0.7905
17668TIP3    H174495   4.596   5.804   5.539 -0.8798  1.0274  0.8573
17668TIP3    H274496   4.699   5.840   5.644 -0.2381 -0.9853  0.9590
17669TIP3   OH274497   6.142   1.308   3.991  0.1920 -0.0300  0.2040
17669TIP3    H174498   6.134   1.213   3.981 -0.9641  0.1634 -0.9788
17669TIP3    H274499   6.235   1.326   3.983  0.4903 -1.1087  1.0197
17670TIP3   OH274500   0.227   3.574  16.184  0.5392  0.6819 -0.0580
17670TIP3    H174501   0.214   3.628  16.261 -0.0536 -1.1695  1.2076
17670TIP3    H274502   0.227   3.635  16.111 -0.6606  2.2986  1.2383
17671TIP3   OH274503   5.155   6.579  14.628 -0.6107  0.0663  0.0484
17671TIP3    H174504   5.114   6.508  14.579 -0.0432  0.2725 -0.7489
17671TIP3    H274505   5.104   6.657  14.605  0.4220  0.3946 -1.2533
17672TIP3   OH274506   4.013   1.236  17.289  0.2971  0.2997 -0.1275
17672TIP3    H174507   4.027   1.296  17.362 -0.8790  1.9391 -1.1886
17672TIP3    H274508   4.072   1.162  17.307  0.0220  0.6121  2.4851
17673TIP3   OH274509   2.579   6.604   3.265  0.5954  0.0141 -0.1467
17673TIP3    H174510   2.646   6.606   3.333  0.7676 -2.1093 -0.1918
17673TIP3    H274511   2.508   6.552   3.302 -0.7128  1.5372 -0.4137
17674TIP3   OH274512   5.497   3.872  15.136 -0.1953 -0.3148  0.4566
17674TIP3    H174513   5.469   3.956  15.172 -0.9358 -0.6079  0.5650
17674TIP3    H274514   5.574   3.894  15.083  0.5979  0.2067  1.7763
17675TIP3   OH274515   0.950   5.803   3.609 -0.2335  0.0229 -0.0449
17675TIP3    H174516   0.901   5.744   3.666 -1.7885  0.5599 -0.7593
17675TIP3    H274517   0.971   5.750   3.532  0.7671 -0.3491  0.4756
17676TIP3   OH274518   0.324   2.772   6.605 -0.0280  0.1308 -0.6119
17676TIP3    H174519   0.228   2.779   6.610 -0.0082  0.2310 -0.3206
17676TIP3    H274520   0.344   2.692   6.653  0.0326  0.0896 -0.7061
17677TIP3   OH274521   2.396   6.515  15.932 -0.4545  0.0766 -0.2278
17677TIP3    H174522   2.475   6.515  15.878  0.4370 -0.0218  1.0305
17677TIP3    H274523   2.325   6.536  15.871  0.2731 -1.6271 -1.7600
17678TIP3   OH274524   4.826   0.686  12.883  0.2673 -0.3330 -0.2952
17678TIP3    H174525   4.771   0.609  12.871 -0.4746  0.0288  0.6595
17678TIP3    H274526   4.772   0.759  12.855  1.1288 -0.1705 -1.6269
17679TIP3   OH274527   0.668   0.061   5.243 -0.5417  0.5851 -0.7040
17679TIP3    H174528   0.574   0.051   5.260 -0.6479  1.0174 -1.0239
17679TIP3    H274529   0.688  -0.006   5.178  0.1244 -1.9563  1.8983
17680TIP3   OH274530   3.112   3.420   0.047 -0.1039 -0.0043 -0.2666
17680TIP3    H174531   3.134   3.391  -0.041  0.4978  0.2939 -0.2208
17680TIP3    H274532   3.054   3.495   0.034  0.8821  0.7480 -0.4334
17681TIP3   OH274533   5.623   6.355   3.717  0.1205  0.1400  0.2712
17681TIP3    H174534   5.642   6.398   3.634  1.6667  1.4078  1.2034
17681TIP3    H274535   5.580   6.422   3.770 -2.2637 -1.1103  0.0353
17682TIP3   OH274536   1.109   1.363   1.205 -0.0697  0.4263 -0.2631
17682TIP3    H174537   1.069   1.398   1.125  1.2712  0.8220 -0.8001
17682TIP3    H274538   1.203   1.371   1.189  0.2413 -0.9211  0.7342
17683TIP3   OH274539   6.481   3.487  12.675  0.1479  0.4942  0.5939
17683TIP3    H174540   6.500   3.455  12.586  1.0808 -0.3271  1.0766
17683TIP3    H274541   6.452   3.409  12.722 -1.1152  1.0837  0.8101
17684TIP3   OH274542   1.904   5.763  14.367  0.2036  0.0909 -0.3087
17684TIP3    H174543   1.959   5.801  14.435  0.9373 -0.0327 -0.8303
17684TIP3    H274544   1.905   5.827  14.296  1.0277 -0.6501 -0.9824
17685TIP3   OH274545   2.948   0.112  15.886 -0.1627 -0.5508  0.3355
17685TIP3    H174546   3.041   0.095  15.873  0.3058  1.6300  0.3716
17685TIP3    H274547   2.942   0.140  15.978 -0.6066  0.5118  0.0077
17686TIP3   OH274548   4.087   2.973  16.323 -0.2350 -0.3556  0.3036
17686TIP3    H174549   4.007   3.012  16.287 -1.3221  0.4930  3.3356
17686TIP3    H274550   4.070   2.879  16.322  0.0101 -0.4121 -1.7736
17687TIP3   OH274551   3.533   2.241  16.951 -0.0780  0.5414  0.4302
17687TIP3    H174552   3.547   2.272  16.861  0.5353 -0.8812 -0.0030
17687TIP3    H274553   3.453   2.189  16.946 -0.9134  1.7600  1.0650
17688TIP3   OH274554   0.891   1.521   3.674 -0.1282 -0.4272 -0.2546
17688TIP3    H174555   0.798   1.517   3.653 -0.2769  0.7639  0.1040
17688TIP3    H274556   0.912   1.434   3.708 -1.9635  0.2952  3.1178
17689TIP3   OH274557   3.851   3.161  15.943  0.4690 -0.5586  1.1992
17689TIP3    H174558   3.908   3.232  15.971 -1.8547  1.4669  1.0787
17689TIP3    H274559   3.844   3.171  15.848 -2.0640  0.9474  1.4440
17690TIP3   OH274560   3.986   4.168  15.041  0.3493 -0.4095  0.1908
17690TIP3    H174561   3.908   4.115  15.054  1.2040 -1.8404 -0.2754
17690TIP3    H274562   3.980   4.237  15.107 -1.2636 -0.5242  0.1973
17691TIP3   OH274563   3.914   1.234  13.641 -0.5613 -0.2372 -0.4031
17691TIP3    H174564   3.919   1.233  13.546 -2.4229  2.0828 -0.6306
17691TIP3    H274565   3.825   1.205  13.662 -0.0719 -1.0546  0.6754
17692TIP3   OH274566   2.376   0.585  16.837 -0.2720  0.3666  0.0130
17692TIP3    H174567   2.381   0.510  16.897 -0.6045  1.0333  0.8981
17692TIP3    H274568   2.379   0.546  16.750  1.5751 -0.5516  0.4280
17693TIP3   OH274569   1.466   4.408  11.231  0.2958 -0.0330  0.4856
17693TIP3    H174570   1.520   4.363  11.166 -0.4642 -2.0415  1.1628
17693TIP3    H274571   1.520   4.409  11.310  0.5325  0.8159  0.3241
17694TIP3   OH274572   4.723   0.110   1.167  0.0956 -0.0762 -0.3823
17694TIP3    H174573   4.809   0.150   1.168  0.5952 -1.1123  0.1131
17694TIP3    H274574   4.729   0.038   1.230 -1.6366  0.8450  0.9388
17695TIP3   OH274575   1.394   1.344   5.769  0.7461 -0.3820 -0.3524
17695TIP3    H174576   1.356   1.398   5.839  0.1287 -1.4803  0.1771
17695TIP3    H274577   1.319   1.309   5.721  1.1456 -0.6187 -0.8145
17696TIP3   OH274578   1.269   2.140   5.445 -0.7016 -0.3924  0.0631
17696TIP3    H174579   1.244   2.059   5.399 -1.1114 -1.1260  1.5180
17696TIP3    H274580   1.255   2.120   5.537  0.4451  0.9161  0.5538
17697TIP3   OH274581   3.285   6.731  17.465  0.6673  0.8353 -0.5405
17697TIP3    H174582   3.193   6.745  17.486  0.4976  0.5003 -1.0531
17697TIP3    H274583   3.329   6.810  17.496  0.1794  1.0859 -0.4823
17698TIP3   OH274584   0.974   2.963   1.382 -0.4214 -0.0915 -0.1015
17698TIP3    H174585   0.929   2.988   1.301 -0.0254  1.0177  0.0078
17698TIP3    H274586   0.916   2.993   1.451  0.9799  2.4470  0.0638
17699TIP3   OH274587   1.304   6.450   1.245  0.6357 -0.4485  0.7681
17699TIP3    H174588   1.231   6.463   1.185  2.2486  0.1808 -1.1898
17699TIP3    H274589   1.264   6.419   1.326 -1.8093  0.2811 -0.0749
17700TIP3   OH274590   2.078   1.415   1.505  0.1984 -1.1531  0.5019
17700TIP3    H174591   2.123   1.343   1.461  1.2011  0.2788 -0.8969
17700TIP3    H274592   1.986   1.406   1.479  0.2706 -2.0189  0.5152
17701TIP3   OH274593   3.368   0.656  16.608  0.1911 -0.4464  0.3336
17701TIP3    H174594   3.407   0.636  16.693  0.5637  1.3468  0.6314
17701TIP3    H274595   3.284   0.609  16.609 -0.6215  0.8563  2.4644
17702TIP3   OH274596   3.635   1.942  13.511 -0.0362  0.3591 -0.1167
17702TIP3    H174597   3.661   1.850  13.517 -0.8610  0.0296 -1.3108
17702TIP3    H274598   3.679   1.984  13.585 -0.8563 -1.2608  1.3601
17703TIP3   OH274599   2.686   4.150  14.562 -0.1538  0.7940  0.4309
17703TIP3    H174600   2.663   4.227  14.615  0.9621  2.3040 -1.1642
17703TIP3    H274601   2.779   4.137  14.579 -0.0836  0.5038 -0.1876
17704TIP3   OH274602   3.419   3.184   4.419  0.1197  0.2303 -0.0212
17704TIP3    H174603   3.343   3.232   4.452 -0.6423 -0.5411 -0.6108
17704TIP3    H274604   3.396   3.164   4.328  0.2893 -1.5092  0.3019
17705TIP3   OH274605   3.591   2.433   4.938  0.0312 -0.3471  0.1282
17705TIP3    H174606   3.677   2.470   4.956 -1.0834  1.2809  2.5685
17705TIP3    H274607   3.543   2.504   4.895 -0.6092 -0.6657  0.3057
17706TIP3   OH274608   4.107   1.851  17.479  0.1439  0.1914 -0.1169
17706TIP3    H174609   4.058   1.841  17.397 -1.3306  2.8071  0.3147
17706TIP3    H274610   4.072   1.931  17.518  2.5990  0.4384  1.8525
17707TIP3   OH274611   4.194   5.753  16.115  0.2400  0.1262 -0.4903
17707TIP3    H174612   4.181   5.676  16.060 -1.4529 -0.6712  0.9488
17707TIP3    H274613   4.111   5.801  16.110  1.6833  2.6826 -2.4505
17708TIP3   OH274614   0.708   5.694   3.747 -0.2209  0.0849  0.1377
17708TIP3    H174615   0.741   5.646   3.822  1.0303 -1.3622 -1.2859
17708TIP3    H274616   0.653   5.763   3.786  0.5400 -0.4675  2.3572
17709TIP3   OH274617   3.822   1.022  17.386  0.0469 -0.5131  0.5096
17709TIP3    H174618   3.813   0.983  17.299  0.5530 -0.5217  0.4588
17709TIP3    H274619   3.910   1.061  17.386  0.1795 -0.8034  1.1361
17710TIP3   OH274620   2.974   4.984  14.408 -0.0117  0.1106 -0.1001
17710TIP3    H174621   2.963   5.079  14.416 -0.5383  0.1189 -0.7916
17710TIP3    H274622   3.014   4.958  14.490 -1.2694  0.7307  0.7503
17711TIP3   OH274623   0.587   2.682   2.581 -0.4193  0.2249  0.2327
17711TIP3    H174624   0.656   2.739   2.547  0.6888 -0.7205  0.8238
17711TIP3    H274625   0.584   2.609   2.519 -0.9095  0.2636  0.2053
17712TIP3   OH274626   6.525   6.412   3.887  0.3922 -0.8131 -0.2265
17712TIP3    H174627   6.498   6.460   3.965 -0.7769 -2.8020  0.6833
17712TIP3    H274628   6.615   6.385   3.905  0.4139 -0.5412  0.0762
17713TIP3   OH274629   3.916   0.821   4.157  0.0675 -0.6658 -0.2768
17713TIP3    H174630   3.946   0.897   4.208 -0.2326 -0.5038 -0.3370
17713TIP3    H274631   3.934   0.746   4.214 -1.4003 -0.3830  0.6188
17714TIP3   OH274632   4.441   1.889   4.041 -0.3343 -0.1729 -0.0670
17714TIP3    H174633   4.499   1.814   4.023 -0.8114 -0.1616 -1.7727
17714TIP3    H274634   4.500   1.963   4.050  0.1749 -0.7400  1.9413
17715TIP3   OH274635   3.023   0.818   0.729  0.4309  0.1544  0.0596
17715TIP3    H174636   3.027   0.805   0.634 -1.1599  3.0629 -0.5393
17715TIP3    H274637   3.056   0.907   0.741 -1.5635  0.6902  1.9415
17716TIP3   OH274638   0.526   1.531  15.966  0.8201 -0.2537  0.2086
17716TIP3    H174639   0.479   1.479  16.031 -0.0808  1.0484  0.6395
17716TIP3    H274640   0.581   1.468  15.920 -0.7151 -1.7208  0.2697
17717TIP3   OH274641   4.283   2.016  11.529  0.4913  0.1481  0.3895
17717TIP3    H174642   4.344   2.090  11.524  0.0396  0.5127  0.1203
17717TIP3    H274643   4.326   1.945  11.482 -0.3678  1.1661 -2.0748
17718TIP3   OH274644   1.447   2.929   4.645  0.1035  0.0389 -0.3608
17718TIP3    H174645   1.360   2.893   4.658 -0.4379  0.6539 -1.9666
17718TIP3    H274646   1.500   2.890   4.714 -2.2103  2.6797  3.2606
17719TIP3   OH274647   2.911   3.218  14.698 -0.1393  0.1406  0.2297
17719TIP3    H174648   2.939   3.201  14.788  0.7770 -1.7888 -0.3838
17719TIP3    H274649   2.827   3.172  14.690 -0.4876  0.7630  0.2446
17720TIP3   OH274650   0.717   4.923  11.887 -1.2071  0.3330 -0.1176
17720TIP3    H174651   0.787   4.924  11.822 -1.6494  0.8478 -0.5889
17720TIP3    H274652   0.755   4.966  11.964 -0.1985 -1.5307  0.5021
17721TIP3   OH274653   5.502   4.971   6.727  0.1553  0.5661  0.0256
17721TIP3    H174654   5.454   5.045   6.691 -0.1597  0.0728 -0.5805
17721TIP3    H274655   5.465   4.895   6.683  2.9333  0.3094 -2.1905
17722TIP3   OH274656   0.067   3.819  11.262  0.1314  0.2839  0.1478
17722TIP3    H174657   0.156   3.846  11.240  0.0523 -0.2775 -0.9409
17722TIP3    H274658   0.075   3.730  11.296  0.1501  0.8309  1.6589
17723TIP3   OH274659   2.359   3.328   4.827 -0.4542 -0.3745  0.1792
17723TIP3    H174660   2.311   3.307   4.747 -2.3880  0.2887  1.0936
17723TIP3    H274661   2.321   3.270   4.894  1.2289 -1.0298  0.6262
17724TIP3   OH274662   1.354   4.637   0.855  0.1536 -0.0936 -0.4834
17724TIP3    H174663   1.374   4.713   0.908 -0.7597 -0.6007  0.6367
17724TIP3    H274664   1.304   4.579   0.913 -0.7157 -0.7568 -1.8269
17725TIP3   OH274665   2.953   1.572  13.127 -0.1359 -0.3826  0.1060
17725TIP3    H174666   2.938   1.666  13.143  0.5529 -0.0386 -1.1512
17725TIP3    H274667   2.932   1.560  13.034  1.8865 -1.0012 -0.3073
17726TIP3   OH274668   1.507   2.484   4.294 -0.4270 -0.0411 -0.4737
17726TIP3    H174669   1.566   2.417   4.329 -0.2438  0.0549 -0.5997
17726TIP3    H274670   1.505   2.551   4.362 -0.8643 -0.3185 -0.2034
17727TIP3   OH274671   0.063   6.171   3.363  0.5657  0.1802 -0.2102
17727TIP3    H174672   0.046   6.265   3.361 -1.7206 -0.1660  0.2630
17727TIP3    H274673   0.061   6.148   3.456 -1.3553 -0.6667 -0.4039
17728TIP3   OH274674   4.922   0.465   3.313 -0.0410  0.1817 -0.2066
17728TIP3    H174675   4.985   0.529   3.348 -0.5343  1.3221 -1.3021
17728TIP3    H274676   4.885   0.508   3.235 -1.5956 -0.7832 -0.0490
17729TIP3   OH274677   4.857   6.678  14.540  0.4832  0.1975 -0.1391
17729TIP3    H174678   4.820   6.749  14.592  0.9291  1.0160 -0.9177
17729TIP3    H274679   4.783   6.619  14.525 -0.1099  0.9524 -0.2408
17730TIP3   OH274680   1.554   5.319   1.241  0.0501  0.2121 -0.1698
17730TIP3    H174681   1.618   5.293   1.175 -0.7945 -2.1994 -0.1452
17730TIP3    H274682   1.551   5.246   1.302 -2.5991  0.2387 -0.1196
17731TIP3   OH274683   1.253   4.077   1.323 -0.4428  0.4303  0.5129
17731TIP3    H174684   1.198   3.999   1.319 -0.1974  0.2879 -0.8276
17731TIP3    H274685   1.204   4.140   1.375 -0.3754 -0.8125  2.1338
17732TIP3   OH274686   4.079   3.688   2.694  0.0165 -0.4856  0.1351
17732TIP3    H174687   4.031   3.732   2.764  0.3663  0.1242 -0.0000
17732TIP3    H274688   4.171   3.690   2.723  0.0118 -1.3348  0.2347
17733TIP3   OH274689   6.244   3.325  16.473 -0.2965 -0.2115 -0.2175
17733TIP3    H174690   6.287   3.239  16.473 -0.5472 -0.3617  1.3075
17733TIP3    H274691   6.313   3.386  16.445  0.0652 -0.8107 -0.6715
17734TIP3   OH274692   2.892   2.024   6.471  0.1925 -0.1380 -0.0327
17734TIP3    H174693   2.881   1.930   6.454 -1.5758 -0.2181  1.2389
17734TIP3    H274694   2.823   2.065   6.420 -0.1909  0.2811  0.7983
17735TIP3   OH274695   3.176   0.047   0.337 -0.6148  0.0726 -0.3950
17735TIP3    H174696   3.168  -0.025   0.400  1.7828  1.5219  1.7507
17735TIP3    H274697   3.247   0.020   0.279  0.1742  0.5614  0.3108
17736TIP3   OH274698   6.024   5.504   5.660  0.5057 -0.0586  0.2232
17736TIP3    H174699   5.987   5.558   5.729 -1.7237  0.6152 -1.3761
17736TIP3    H274700   5.955   5.441   5.639  0.6345  0.4731 -2.0882
17737TIP3   OH274701   0.208   5.415  14.937 -0.3560  0.0863 -0.3750
17737TIP3    H174702   0.137   5.478  14.945  1.7429  2.6296 -0.6478
17737TIP3    H274703   0.202   5.362  15.017 -2.4344  0.2869 -0.3494
17738TIP3   OH274704   2.314   4.055  14.229 -0.2473  0.0219  0.8685
17738TIP3    H174705   2.371   4.109  14.283 -0.2318  2.1151 -1.0712
17738TIP3    H274706   2.236   4.109  14.216  0.1342  0.0574 -1.9019
17739TIP3   OH274707   0.472   1.408  12.494 -0.3655  0.4295 -0.0020
17739TIP3    H174708   0.504   1.440  12.410 -0.3287 -0.1413 -0.2036
17739TIP3    H274709   0.432   1.324  12.475  0.2820 -0.0461  0.6722
17740TIP3   OH274710   3.897   2.109   3.756 -0.5440  0.1104  0.4335
17740TIP3    H174711   3.942   2.061   3.826  1.1868  2.0821  0.7872
17740TIP3    H274712   3.895   2.047   3.682  3.5383 -0.0019  0.1403
17741TIP3   OH274713   2.403   5.954   6.668 -0.0435  0.1877 -0.6769
17741TIP3    H174714   2.347   6.019   6.711 -0.0823  0.3248 -0.9393
17741TIP3    H274715   2.492   5.982   6.687 -0.0593  0.4472 -0.9915
17742TIP3   OH274716   3.135   5.129   2.431 -0.0523 -0.3034 -1.1151
17742TIP3    H174717   3.105   5.040   2.409  0.3825 -0.5124 -0.8647
17742TIP3    H274718   3.183   5.157   2.353  0.5868 -0.6408 -0.8505
17743TIP3   OH274719   0.075   1.795  11.755 -0.1521 -0.1953  0.2271
17743TIP3    H174720   0.032   1.876  11.728 -0.4000  0.0330  1.2562
17743TIP3    H274721   0.120   1.764  11.677 -0.5066  0.6449 -0.3217
17744TIP3   OH274722   1.557   6.576   4.639  0.2286  0.4585 -0.1590
17744TIP3    H174723   1.534   6.505   4.698  0.7901  1.1830  0.9756
17744TIP3    H274724   1.650   6.562   4.618 -0.1313 -0.1814 -1.4657
17745TIP3   OH274725   1.146   2.732  14.579 -0.1351  0.2099 -0.1343
17745TIP3    H174726   1.090   2.668  14.623  2.0818 -0.7890  1.4636
17745TIP3    H274727   1.181   2.685  14.503  0.5917 -0.1253  0.3919
17746TIP3   OH274728   2.055   3.469   5.232  0.3002 -0.3104  0.2851
17746TIP3    H174729   1.996   3.407   5.275 -0.5357  0.4224  0.2252
17746TIP3    H274730   2.139   3.423   5.228 -0.4990 -1.7874 -0.5526
17747TIP3   OH274731   1.101   1.604  13.347 -0.1019  0.8856 -0.7397
17747TIP3    H174732   1.081   1.692  13.317 -1.7374  0.2240 -1.7244
17747TIP3    H274733   1.194   1.592  13.327  0.2474  2.4887 -0.2346
17748TIP3   OH274734   3.544   1.229   4.033 -0.3315  0.2158  0.2283
17748TIP3    H174735   3.508   1.236   3.945  0.3492 -1.2277 -0.2077
17748TIP3    H274736   3.575   1.317   4.054  0.3834  0.3870 -1.3949
17749TIP3   OH274737   2.613   3.212   6.753 -0.3064  0.0036  0.3564
17749TIP3    H174738   2.586   3.299   6.724 -1.1393  0.0088  1.1198
17749TIP3    H274739   2.531   3.163   6.761  0.1513 -0.8472 -0.0321
17750TIP3   OH274740   5.675   3.591   6.571 -0.0904 -0.2672  0.5045
17750TIP3    H174741   5.613   3.580   6.644 -0.6661 -1.5998 -0.1634
17750TIP3    H274742   5.625   3.567   6.493  1.3641 -1.7624 -0.0195
17751TIP3   OH274743   0.687   4.553  11.947 -0.8166  0.4817  0.1192
17751TIP3    H174744   0.596   4.559  11.919 -0.2877  1.0759 -1.5948
17751TIP3    H274745   0.702   4.633  11.998 -1.8581 -0.7248  2.4606
17752TIP3   OH274746   4.977   4.967  15.317 -0.2559 -0.3109 -0.3860
17752TIP3    H174747   5.013   4.967  15.228  1.7266 -0.1599  0.3764
17752TIP3    H274748   4.999   4.881  15.352 -0.0141  0.0391  0.3442
17753TIP3   OH274749   1.503   2.117  13.609 -0.4917  1.0603  0.0984
17753TIP3    H174750   1.470   2.055  13.544 -2.3489  1.2636  0.7790
17753TIP3    H274751   1.581   2.074  13.645 -1.9581 -1.1761  0.8848
17754TIP3   OH274752   4.044   2.464   1.653 -0.1211  0.1112  0.6999
17754TIP3    H174753   4.108   2.503   1.593 -0.0951  0.6865  1.0994
17754TIP3    H274754   3.986   2.414   1.596 -2.6857  3.9677 -0.4685
17755TIP3   OH274755   0.441   2.834  14.285  0.2814  0.0606  0.5793
17755TIP3    H174756   0.411   2.779  14.213  1.7461 -1.6448  1.1983
17755TIP3    H274757   0.514   2.883  14.249  2.5465 -2.4838  1.3708
17756TIP3   OH274758   6.598   4.422   3.124 -0.9554  0.0417 -0.3625
17756TIP3    H174759   6.588   4.512   3.155 -1.4669 -0.5078  1.1890
17756TIP3    H274760   6.603   4.429   3.029 -3.2784  1.5311 -0.4457
17757TIP3   OH274761   6.228   4.005   4.244 -0.0411  0.9647 -0.0439
17757TIP3    H174762   6.137   3.978   4.227 -0.0283  1.0837 -0.3090
17757TIP3    H274763   6.276   3.923   4.249 -0.0640  0.9198 -0.4965
17758TIP3   OH274764   5.073   6.042  12.585  0.2481 -0.1576 -0.7114
17758TIP3    H174765   5.122   5.994  12.651  1.0747  1.7700  0.1348
17758TIP3    H274766   5.137   6.102  12.546 -0.7960  0.4587 -1.5306
17759TIP3   OH274767   6.667   5.954   1.114 -0.5635  0.1917 -0.3963
17759TIP3    H174768   6.632   6.043   1.115 -0.4140  0.2494  0.3047
17759TIP3    H274769   6.762   5.966   1.107 -0.6837  0.0173 -3.8270
17760TIP3   OH274770   4.643   6.448   2.000 -0.2180 -0.2582 -0.2257
17760TIP3    H174771   4.569   6.508   2.000  1.2331  1.7974  3.0201
17760TIP3    H274772   4.642   6.407   2.086  1.8440 -0.8842 -0.4306
17761TIP3   OH274773   0.868   6.253   4.372 -0.0467 -0.3418  0.1036
17761TIP3    H174774   0.787   6.231   4.327 -0.9462  0.5806  1.2022
17761TIP3    H274775   0.844   6.324   4.431  2.1057  1.6809 -1.2975
17762TIP3   OH274776   0.437   0.273  15.672  0.7402 -0.6535 -0.2483
17762TIP3    H174777   0.516   0.223  15.692  0.7394 -0.4388  0.2840
17762TIP3    H274778   0.410   0.310  15.755 -0.6100 -1.7090 -0.1885
17763TIP3   OH274779   6.211   4.041  14.464  0.4285  0.0266 -0.3095
17763TIP3    H174780   6.217   3.991  14.382  4.4650 -0.0379 -0.1737
17763TIP3    H274781   6.215   4.132  14.436  0.9713  0.0261 -0.2424
17764TIP3   OH274782   0.460   6.053   0.241 -0.3607  0.2339  0.2078
17764TIP3    H174783   0.529   5.987   0.245 -0.1504  0.5187  1.7963
17764TIP3    H274784   0.463   6.085   0.151 -0.3946 -1.8200 -0.5748
17765TIP3   OH274785   2.595   2.077  15.233  0.1771 -0.0217  0.4518
17765TIP3    H174786   2.532   2.039  15.295  0.0215 -0.6702 -0.0921
17765TIP3    H274787   2.607   2.167  15.263 -3.2004  1.0915 -1.0438
17766TIP3   OH274788   1.153   3.638  14.693 -0.5648 -0.2922  0.6854
17766TIP3    H174789   1.155   3.717  14.746 -1.6206  0.4542 -0.3311
17766TIP3    H274790   1.102   3.576  14.745  0.1246 -0.2648  1.4124
17767TIP3   OH274791   5.747   6.255   0.955 -0.1372  0.2800  0.1879
17767TIP3    H174792   5.831   6.285   0.920  0.5474 -2.5223 -0.8551
17767TIP3    H274793   5.681   6.301   0.902  0.7323  1.5912  0.2040
17768TIP3   OH274794   4.493   1.769   4.457 -0.2961  0.0455  0.5218
17768TIP3    H174795   4.456   1.722   4.382 -0.0272 -0.6256  0.7969
17768TIP3    H274796   4.565   1.713   4.487 -0.8869 -0.1008  1.7593
17769TIP3   OH274797   5.095   3.400   2.032  0.5506  0.2751  0.4980
17769TIP3    H174798   5.035   3.466   2.066  1.2377  0.9855  0.3595
17769TIP3    H274799   5.055   3.370   1.951  0.2060  0.4767  0.5914
17770TIP3   OH274800   3.179   5.459  17.523  0.4505 -0.3553 -0.1527
17770TIP3    H174801   3.176   5.465  17.428  1.7188 -0.4790 -0.2210
17770TIP3    H274802   3.088   5.448  17.550 -0.0528  0.8330 -1.2702
17771TIP3   OH274803   2.812   2.836  12.636  0.6489 -0.2229 -0.3964
17771TIP3    H174804   2.805   2.906  12.571  2.3893 -0.8730 -1.3175
17771TIP3    H274805   2.904   2.837  12.664  0.1517 -0.5449  1.4235
17772TIP3   OH274806   5.842   1.659  14.258 -0.2246 -0.2771 -0.0999
17772TIP3    H174807   5.802   1.666  14.171  1.8544 -1.2478 -1.2121
17772TIP3    H274808   5.926   1.705  14.249  0.3789 -1.0920  1.1519
17773TIP3   OH274809   4.910   2.460  15.157  0.1617  0.4243 -0.0811
17773TIP3    H174810   4.898   2.365  15.161  0.1113  0.4178 -0.3387
17773TIP3    H274811   4.823   2.496  15.175  0.1119  0.4130 -0.2933
17774TIP3   OH274812   3.060   0.074   2.272  0.4279  0.1592  0.2057
17774TIP3    H174813   3.048   0.163   2.242 -2.1300  0.1124  0.8614
17774TIP3    H274814   3.013   0.070   2.356 -1.3997 -2.2910 -0.8071
17775TIP3   OH274815   4.816   1.706  13.086 -0.3260  0.2252 -0.4352
17775TIP3    H174816   4.813   1.779  13.148  2.5344 -0.6273  0.8826
17775TIP3    H274817   4.864   1.740  13.011 -1.9470  0.6271 -1.3356
17776TIP3   OH274818   2.110   2.523  12.920  0.0708  0.5805  0.5381
17776TIP3    H174819   2.057   2.528  13.000  0.7812  1.5982  0.9700
17776TIP3    H274820   2.106   2.611  12.884 -0.2232  0.1286 -0.5572
17777TIP3   OH274821   6.192   3.208  15.913  0.2944  0.2286 -0.0732
17777TIP3    H174822   6.244   3.229  15.836  1.2282 -0.3518  0.3767
17777TIP3    H274823   6.226   3.267  15.981 -0.1066  0.3158  0.0548
17778TIP3   OH274824   0.493   5.994   1.196 -0.3547  0.2680 -0.3190
17778TIP3    H174825   0.506   5.900   1.187  0.3514  0.2005  1.1223
17778TIP3    H274826   0.544   6.032   1.124  0.1505 -0.4078 -0.3241
17779TIP3   OH274827   4.961   0.497   0.476 -0.2323 -0.2683 -0.2598
17779TIP3    H174828   5.023   0.477   0.547 -0.2473 -0.5315 -0.3192
17779TIP3    H274829   4.989   0.441   0.404  0.4091  0.7324 -0.8071
17780TIP3   OH274830   2.361   1.927   4.121 -0.0606 -0.3376 -0.5288
17780TIP3    H174831   2.364   1.841   4.080 -1.4388 -1.5493  1.7261
17780TIP3    H274832   2.449   1.941   4.155 -0.3669 -1.9385  1.0566
17781TIP3   OH274833   6.495   5.005  15.101 -0.2761 -0.1776 -0.9849
17781TIP3    H174834   6.563   5.011  15.035  0.3397  0.7273 -0.2861
17781TIP3    H274835   6.435   5.076  15.082 -0.9560 -0.8762 -1.5027
17782TIP3   OH274836   6.078   6.165  15.376 -0.6656  0.2975  0.2760
17782TIP3    H174837   6.095   6.245  15.326  0.3277 -0.2890 -0.3521
17782TIP3    H274838   6.164   6.134  15.403 -1.0716 -0.3181  0.8987
17783TIP3   OH274839   2.169   0.162   3.367 -0.3106  0.1393  0.0536
17783TIP3    H174840   2.224   0.104   3.420  0.3690 -0.0652 -0.8459
17783TIP3    H274841   2.097   0.106   3.338 -1.5349  0.6255  1.9578
17784TIP3   OH274842   6.178   4.241   6.619 -0.6013  0.4029 -0.1698
17784TIP3    H174843   6.187   4.149   6.642  1.3963 -0.4938 -3.7205
17784TIP3    H274844   6.261   4.281   6.646  0.7663 -0.1524 -3.1277
17785TIP3   OH274845   5.412   1.198   5.870 -0.4925  0.3698 -0.4458
17785TIP3    H174846   5.348   1.237   5.810  0.8368  1.9345 -0.9319
17785TIP3    H274847   5.487   1.177   5.815  1.4407  3.3675  0.7344
17786TIP3   OH274848   1.277   0.800  11.133  0.3135 -0.3839 -0.0441
17786TIP3    H174849   1.220   0.816  11.209  0.9442  0.4662  0.2632
17786TIP3    H274850   1.319   0.884  11.117  0.7856 -0.7681 -0.8510
17787TIP3   OH274851   2.009   3.645  11.951 -0.4001 -0.3373  0.3000
17787TIP3    H174852   2.028   3.553  11.934 -1.4731 -0.6164  0.5180
17787TIP3    H274853   1.915   3.653  11.937 -0.1990  0.9012 -0.4395
17788TIP3   OH274854   4.190   4.231  12.538  0.1949 -0.3680  0.5410
17788TIP3    H174855   4.164   4.196  12.453  0.0242  2.0157 -0.4942
17788TIP3    H274856   4.285   4.228  12.538  0.4765  2.9400 -1.4637
17789TIP3   OH274857   4.124   2.063   6.131 -0.2997 -0.3999 -0.1675
17789TIP3    H174858   4.107   1.983   6.082 -1.9132  0.0783 -0.4230
17789TIP3    H274859   4.086   2.046   6.217  2.0326 -1.0242  0.8237
17790TIP3   OH274860   2.685   3.465   6.266  0.6808 -0.3401 -0.1268
17790TIP3    H174861   2.592   3.486   6.264  0.9278  1.1619 -4.0310
17790TIP3    H274862   2.688   3.371   6.284 -1.6870 -0.7241 -1.3534
17791TIP3   OH274863   5.601   5.433   3.640 -0.1994 -0.5781  0.3627
17791TIP3    H174864   5.558   5.505   3.686  0.2628 -0.8228  1.2053
17791TIP3    H274865   5.569   5.354   3.684  1.3634 -0.7540  1.2823
17792TIP3   OH274866   2.854   1.139   3.938 -0.1079 -0.3404 -0.2192
17792TIP3    H174867   2.873   1.121   3.846 -0.3726  1.2424 -0.6150
17792TIP3    H274868   2.938   1.128   3.982  0.2019 -0.3069 -0.7871
17793TIP3   OH274869   5.454   3.616   3.170  0.0419 -0.3277  0.0004
17793TIP3    H174870   5.483   3.568   3.248 -1.2486 -2.4794 -0.7439
17793TIP3    H274871   5.495   3.570   3.097 -1.7132 -0.7067 -0.7858
17794TIP3   OH274872   1.857   1.496   3.416  0.5793 -0.1402  0.5518
17794TIP3    H174873   1.830   1.419   3.365 -2.0958  0.3533  1.0669
17794TIP3    H274874   1.952   1.497   3.409  0.5299 -1.9688 -1.6799
17795TIP3   OH274875   3.526   2.226   1.975  0.0945  0.2884  0.3488
17795TIP3    H174876   3.563   2.174   1.904  1.4444 -1.8409  2.4333
17795TIP3    H274877   3.470   2.165   2.023 -1.4465  1.8791  0.6800
17796TIP3   OH274878   5.577   0.965   3.598 -0.6643  0.1104  0.1616
17796TIP3    H174879   5.501   0.936   3.547 -0.2435 -1.2327  0.2693
17796TIP3    H274880   5.604   1.047   3.556 -0.7240 -0.6280 -1.3631
17797TIP3   OH274881   3.381   3.155   2.044 -0.4600 -0.3565 -0.1936
17797TIP3    H174882   3.348   3.139   2.132 -0.4860 -2.2268 -0.5027
17797TIP3    H274883   3.428   3.238   2.050  1.0221 -1.2879  2.0107
17798TIP3   OH274884   5.025   4.977   3.292 -0.0101  0.1763 -0.5456
17798TIP3    H174885   4.941   4.947   3.257 -0.0941  0.2725 -0.4303
17798TIP3    H274886   5.036   4.927   3.373 -0.6507  1.1798  0.1987
17799TIP3   OH274887   5.164   4.556  14.877 -0.7232 -0.4318 -0.0089
17799TIP3    H174888   5.082   4.510  14.893 -1.5594  1.4370  1.4960
17799TIP3    H274889   5.146   4.646  14.904  1.3893  0.3702 -1.0604
17800TIP3   OH274890   4.415   3.682   5.924  0.1371  0.3397  0.0778
17800TIP3    H174891   4.346   3.679   5.857 -0.1999 -2.3719  0.4632
17800TIP3    H274892   4.497   3.686   5.873 -0.1705  0.1362 -0.4442
17801TIP3   OH274893   3.089   2.361   1.497 -0.1524 -0.7697 -0.2159
17801TIP3    H174894   2.994   2.369   1.488 -0.3606 -2.1306  0.6049
17801TIP3    H274895   3.107   2.268   1.486  0.9160 -0.7644  1.1561
17802TIP3   OH274896   1.094   3.233   6.149  0.3124 -0.2324 -0.1091
17802TIP3    H174897   1.165   3.191   6.198 -1.0067  0.3151  2.4667
17802TIP3    H274898   1.022   3.239   6.212 -2.5328 -1.9117 -2.9109
17803TIP3   OH274899   4.318   1.088   1.792 -0.8562  0.0645 -0.1139
17803TIP3    H174900   4.400   1.089   1.842 -0.4253  1.3523 -0.8060
17803TIP3    H274901   4.301   0.995   1.777 -0.2363 -0.2809  1.1770
17804TIP3   OH274902   3.256   5.437   0.569  0.7081 -0.4092 -0.3181
17804TIP3    H174903   3.315   5.431   0.644  0.9662  0.3255 -0.4466
17804TIP3    H274904   3.291   5.510   0.517 -0.6105  0.4001 -0.1282
17805TIP3   OH274905   5.902   5.288   6.493  0.6078  0.1612 -0.4479
17805TIP3    H174906   5.914   5.367   6.546  0.2689  2.1635 -3.1515
17805TIP3    H274907   5.977   5.288   6.433 -0.7103 -0.0482 -2.1868
17806TIP3   OH274908   5.041   6.263  12.755  0.2617 -0.7072  0.5841
17806TIP3    H174909   5.041   6.168  12.737  0.6520 -0.5439 -0.3614
17806TIP3    H274910   5.120   6.277  12.807 -0.4431 -1.0730  1.7767
17807TIP3   OH274911   3.981   0.434   2.637 -0.4559  0.3492 -0.0634
17807TIP3    H174912   3.931   0.515   2.636  0.5076  0.9639  0.1026
17807TIP3    H274913   4.073   0.462   2.638 -0.0940 -0.7424 -0.5668
17808TIP3   OH274914   0.702   3.469  15.620 -0.2709  0.0181  0.0365
17808TIP3    H174915   0.737   3.384  15.649  0.2267  0.7535  1.6679
17808TIP3    H274916   0.615   3.448  15.585 -1.4582 -0.8560  3.1492
17809TIP3   OH274917   4.741   3.717   3.667 -0.0660  0.0332  1.1387
17809TIP3    H174918   4.668   3.666   3.702 -0.4369 -0.0286  0.3169
17809TIP3    H274919   4.748   3.793   3.724 -1.1090  0.2882  0.9411
17810TIP3   OH274920   4.524   6.280   5.268 -0.2421  0.1512  0.1562
17810TIP3    H174921   4.588   6.215   5.239 -0.0719  0.8059 -1.0606
17810TIP3    H274922   4.577   6.350   5.307 -0.0831  1.0816 -1.6119
17811TIP3   OH274923   3.825   5.904  16.477  0.5852 -0.3122 -0.0723
17811TIP3    H174924   3.819   5.894  16.572  1.7839  0.1413  0.0778
17811TIP3    H274925   3.856   5.994  16.464 -0.3199 -0.1075 -0.9321
17812TIP3   OH274926   2.924   0.386   2.496 -0.4551  0.1039 -0.0926
17812TIP3    H174927   2.949   0.295   2.481  1.2740  0.4044  0.6388
17812TIP3    H274928   2.939   0.429   2.413  0.9638  0.1459  0.1629
17813TIP3   OH274929   3.005   3.608   1.720  0.4368 -0.0671 -0.3087
17813TIP3    H174930   2.998   3.528   1.667 -1.8210 -0.2860  0.1983
17813TIP3    H274931   3.053   3.669   1.665  0.7997 -1.2615 -1.3779
17814TIP3   OH274932   3.819   5.815  17.248 -0.1910  0.2527  0.1279
17814TIP3    H174933   3.843   5.863  17.168  0.1648  0.4432  0.3498
17814TIP3    H274934   3.858   5.865  17.319  0.3963 -0.4943  0.3493
17815TIP3   OH274935   4.550   2.337   0.582  0.5677  0.0750 -0.0395
17815TIP3    H174936   4.509   2.298   0.660 -0.4181  1.2164  0.0390
17815TIP3    H274937   4.521   2.428   0.583  0.1944  0.0109 -1.9626
17816TIP3   OH274938   2.415   3.923  14.692  0.6694 -0.0801 -0.5320
17816TIP3    H174939   2.412   4.019  14.685  0.1568 -0.1934 -2.5027
17816TIP3    H274940   2.407   3.906  14.786  0.8718  1.8025 -0.1247
17817TIP3   OH274941   0.315   2.466   2.688  0.3611  0.1467 -0.2115
17817TIP3    H174942   0.244   2.489   2.627 -1.7001 -1.2194  1.5554
17817TIP3    H274943   0.279   2.486   2.775  2.0802 -0.7549  0.7443
17818TIP3   OH274944   1.545   1.420   5.359  0.3802 -0.2801  0.3241
17818TIP3    H174945   1.639   1.418   5.342  0.4336 -0.7495  0.6536
17818TIP3    H274946   1.536   1.475   5.437  0.0038  3.1143 -1.9047
17819TIP3   OH274947   3.853   4.066  13.347  0.0116  0.2852  0.1230
17819TIP3    H174948   3.933   4.021  13.375  0.9810 -0.0764 -2.8057
17819TIP3    H274949   3.877   4.158  13.342  0.0182  0.2743 -0.0505
17820TIP3   OH274950   6.339   1.718   0.825 -0.7647 -0.7134  0.0450
17820TIP3    H174951   6.411   1.655   0.813 -1.3534 -1.4192  0.1430
17820TIP3    H274952   6.376   1.802   0.795  0.2940 -0.9311  0.6663
17821TIP3   OH274953   0.311   6.551   0.838  0.1960  0.1899 -0.2155
17821TIP3    H174954   0.219   6.530   0.856  0.8277 -0.6915  2.4629
17821TIP3    H274955   0.345   6.586   0.920  2.9961 -2.3555 -0.1018
17822TIP3   OH274956   1.141   4.520   3.372  0.8871  0.4033 -0.0840
17822TIP3    H174957   1.059   4.568   3.370  0.9528  0.6449  1.5900
17822TIP3    H274958   1.142   4.478   3.458  2.6584  0.7038  0.0855
17823TIP3   OH274959   2.771   3.702  14.395 -0.8682 -0.3253 -0.9816
17823TIP3    H174960   2.692   3.748  14.424  0.5551  0.7848  1.4963
17823TIP3    H274961   2.808   3.759  14.327 -0.3418  1.1124  0.4394
17824TIP3   OH274962   0.791   1.630  17.489  0.4977 -0.0290 -0.0263
17824TIP3    H174963   0.786   1.568  17.416  2.0727 -1.0497  0.6846
17824TIP3    H274964   0.837   1.705  17.452 -2.6263  1.4706 -1.2966
17825TIP3   OH274965   2.646   1.065   4.432 -0.5432 -0.2643  0.1399
17825TIP3    H174966   2.566   1.028   4.471 -0.4484 -0.6427 -0.0177
17825TIP3    H274967   2.634   1.053   4.338 -2.0573  3.1752 -0.2697
17826TIP3   OH274968   3.109   3.289   1.962  0.9250 -0.2833 -0.4587
17826TIP3    H174969   3.033   3.345   1.975  0.4211 -0.3326 -2.8861
17826TIP3    H274970   3.146   3.279   2.050 -0.3188  1.8987  0.3846
17827TIP3   OH274971   3.686   2.583   6.669  0.0808 -0.1144 -0.0913
17827TIP3    H174972   3.739   2.525   6.724 -1.7049 -0.7248  1.0804
17827TIP3    H274973   3.613   2.528   6.640  0.3342  0.5477 -2.1153
17828TIP3   OH274974   6.732   1.081  14.717  0.0797  0.0238 -0.2812
17828TIP3    H174975   6.657   1.091  14.775 -0.7604 -2.3426 -0.8385
17828TIP3    H274976   6.694   1.059  14.632  1.3665 -0.4504 -0.7699
17829TIP3   OH274977   0.767   3.107   2.624  0.0347 -0.1060  0.0488
17829TIP3    H174978   0.855   3.136   2.601  0.0870 -0.0585  0.3028
17829TIP3    H274979   0.770   3.011   2.615 -0.1261 -0.0477 -0.7461
17830TIP3   OH274980   0.923   1.244  10.893  0.3227  0.3978  0.0284
17830TIP3    H174981   0.839   1.258  10.937  0.9739 -0.0027  1.4513
17830TIP3    H274982   0.938   1.150  10.900  1.4584  0.6268  0.8745
17831TIP3   OH274983   3.065   0.409  17.504  0.4074  0.9546  0.1032
17831TIP3    H174984   2.994   0.383  17.563  1.4105  2.4579  2.1157
17831TIP3    H274985   3.020   0.445  17.427 -0.9977  0.8859  0.8536
17832TIP3   OH274986   2.629   0.760  14.128  0.1477  0.1418  0.6220
17832TIP3    H174987   2.671   0.787  14.210  0.3516  0.1779  0.5060
17832TIP3    H274988   2.702   0.752  14.066  0.1396 -0.8951  0.7129
17833TIP3   OH274989   1.688   2.700   2.879 -0.1993  0.3270 -0.1476
17833TIP3    H174990   1.741   2.625   2.853  2.3851  2.1741 -0.4835
17833TIP3    H274991   1.642   2.726   2.800 -1.7752 -1.3141  0.1574
17834TIP3   OH274992   5.286   3.372   3.305 -0.7500  0.0386 -0.4356
17834TIP3    H174993   5.359   3.399   3.361 -0.7209 -1.0011  0.0355
17834TIP3    H274994   5.325   3.313   3.241 -1.0574  0.0470 -0.6323
17835TIP3   OH274995   2.514   0.764   5.020  0.7564 -0.1021 -0.2476
17835TIP3    H174996   2.430   0.785   4.979  0.5708 -3.5464 -1.9957
17835TIP3    H274997   2.494   0.760   5.114 -0.4122  1.3865 -0.3855
17836TIP3   OH274998   4.337   2.259   5.228  0.2140 -0.0790 -0.1363
17836TIP3    H174999   4.263   2.244   5.286  1.1655 -1.3110  0.8340
17836TIP3    H275000   4.393   2.320   5.276 -0.1857  0.8951 -0.8881
17837TIP3   OH275001   2.220   3.721   5.381 -0.5563 -0.6770 -0.5002
17837TIP3    H175002   2.167   3.668   5.321 -3.1711  0.2211  0.8244
17837TIP3    H275003   2.216   3.674   5.464 -0.7938  0.2850  0.0491
17838TIP3   OH275004   5.435   0.044   3.545 -0.0796 -0.0276 -0.3473
17838TIP3    H175005   5.358   0.044   3.488  0.3804 -0.3002 -0.9780
17838TIP3    H275006   5.495   0.106   3.504  0.3620 -0.4302 -0.3199
17839TIP3   OH275007   4.582   2.758  12.715  0.4846 -0.1889  0.1348
17839TIP3    H175008   4.582   2.809  12.634 -0.9997  0.9624  0.7977
17839TIP3    H275009   4.566   2.668  12.687 -2.4770  0.5179 -0.7835
17840TIP3   OH275010   2.716   1.289   5.422  0.3156 -0.0576  0.7489
17840TIP3    H175011   2.658   1.278   5.346  1.1338 -2.1579  0.3622
17840TIP3    H275012   2.657   1.295   5.496 -0.4956  1.7517  0.0274
17841TIP3   OH275013   2.455   6.098   1.038  0.3622 -0.1595 -0.6736
17841TIP3    H175014   2.499   6.181   1.017  0.5907 -0.6224 -2.1071
17841TIP3    H275015   2.434   6.106   1.131  2.1414  0.6891 -0.2909
17842TIP3   OH275016   1.357   6.030   5.598  0.0122  0.0342 -0.1385
17842TIP3    H175017   1.315   5.965   5.542  1.4670 -0.5049 -0.6294
17842TIP3    H275018   1.321   6.114   5.569 -0.7637 -0.4169 -0.4942
17843TIP3   OH275019   3.709   0.761  12.673  0.1807 -0.0351  0.3453
17843TIP3    H175020   3.786   0.703  12.671  1.6993  1.7108  2.6660
17843TIP3    H275021   3.658   0.730  12.748  0.0020  0.4426  0.4207
17844TIP3   OH275022   2.619   1.262   0.704 -0.2274  0.2508  0.3269
17844TIP3    H175023   2.684   1.317   0.748  1.2560 -1.1651 -0.0078
17844TIP3    H275024   2.553   1.245   0.772  0.1844  0.9987  0.9403
17845TIP3   OH275025   5.727   1.301   6.664 -0.1375 -0.3535  0.0165
17845TIP3    H175026   5.797   1.367   6.667 -0.2033 -0.2129 -1.1898
17845TIP3    H275027   5.648   1.350   6.684 -0.1334 -0.1363 -0.4835
17846TIP3   OH275028   3.459   4.827  16.752 -0.3488  0.5904 -0.1071
17846TIP3    H175029   3.503   4.844  16.836 -0.0331 -0.1643 -0.1105
17846TIP3    H275030   3.383   4.774  16.776 -0.4359  0.6505 -0.2568
17847TIP3   OH275031   6.753   4.861  14.202  0.1981 -0.2500  0.8247
17847TIP3    H175032   6.799   4.911  14.135  0.0895  0.2208  1.0924
17847TIP3    H275033   6.821   4.811  14.246  0.2226 -0.8170  0.1475
17848TIP3   OH275034   4.279   3.159  16.397 -0.5191  0.0789 -0.3782
17848TIP3    H175035   4.205   3.102  16.376 -1.6951  1.4179  0.0201
17848TIP3    H275036   4.345   3.099  16.433 -1.4588 -1.1293 -0.5882
17849TIP3   OH275037   5.970   5.716   4.317  0.0391 -0.0790 -0.8697
17849TIP3    H175038   6.032   5.755   4.377 -0.2750 -0.2465 -0.4273
17849TIP3    H275039   5.942   5.788   4.260  0.3504  0.0746 -0.8287
17850TIP3   OH275040   3.191   2.497  13.055 -0.5013  0.2155 -1.0323
17850TIP3    H175041   3.098   2.517  13.046 -0.0914  2.5522 -0.7752
17850TIP3    H275042   3.232   2.537  12.978  0.3111 -0.7616 -1.1387
17851TIP3   OH275043   4.719   3.908   4.908  0.5581 -0.4728  0.1072
17851TIP3    H175044   4.677   3.826   4.933 -0.1863  0.2555  1.3230
17851TIP3    H275045   4.658   3.948   4.846  0.4973 -0.4191  0.2022
17852TIP3   OH275046   5.791   0.235  10.882  0.7394 -0.2656 -0.1688
17852TIP3    H175047   5.747   0.168  10.829  0.8972 -1.3259  0.9757
17852TIP3    H275048   5.748   0.317  10.858  1.0663 -0.6448 -2.1748
17853TIP3   OH275049   4.927   2.059  13.965 -0.3833  0.2596  0.1325
17853TIP3    H175050   4.919   2.029  14.055 -0.2419 -0.4048 -0.0708
17853TIP3    H275051   5.021   2.077  13.954 -0.5450  1.3259  0.4206
17854TIP3   OH275052   1.742   2.542  16.556  0.1170 -0.1819 -0.4644
17854TIP3    H175053   1.708   2.477  16.618  0.2796 -0.2238 -0.4196
17854TIP3    H275054   1.784   2.490  16.488  2.4801 -0.1061  0.8269
17855TIP3   OH275055   0.188   5.293  16.650  0.0551 -0.8785  0.0324
17855TIP3    H175056   0.175   5.201  16.674  0.4193 -0.6645  1.1307
17855TIP3    H275057   0.226   5.290  16.563  0.5274 -1.8038  0.2530
17856TIP3   OH275058   1.081   2.714   2.327  0.2167 -0.5794  0.1652
17856TIP3    H175059   1.103   2.687   2.238 -0.5097 -2.0025  0.3850
17856TIP3    H275060   1.031   2.641   2.362  2.0913 -0.8884  2.4149
17857TIP3   OH275061   0.268   2.028  11.730  0.2857  0.3038  0.7936
17857TIP3    H175062   0.203   2.091  11.762  0.4292  0.1136  1.4735
17857TIP3    H275063   0.285   1.971  11.805 -0.3378 -0.9682  0.0088
17858TIP3   OH275064   1.726   0.941   0.570  0.4528  0.2054 -0.0804
17858TIP3    H175065   1.649   0.886   0.553  0.4172  0.5671 -1.1636
17858TIP3    H275066   1.776   0.937   0.488  1.3969  0.2835  0.4851
17859TIP3   OH275067   1.307   2.406  11.010  0.2860  0.1481 -0.0779
17859TIP3    H175068   1.264   2.427  10.928 -0.0460 -0.4738 -0.0685
17859TIP3    H275069   1.350   2.321  10.994 -1.8699 -1.2591  1.1200
17860TIP3   OH275070   5.042   0.984   4.627 -0.0862 -0.5097  0.0418
17860TIP3    H175071   4.953   0.949   4.638 -0.7833  1.1275 -0.1922
17860TIP3    H275072   5.060   0.974   4.534  0.4812 -1.9466  0.2782
17861TIP3   OH275073   4.633   3.463  12.682  1.0438  0.5350  0.6680
17861TIP3    H175074   4.563   3.497  12.626  1.8731  0.2247 -0.6014
17861TIP3    H275075   4.679   3.540  12.712  2.0258  0.6531 -1.0197
17862TIP3   OH275076   6.540   2.693   5.879  0.2819 -0.4862 -0.4113
17862TIP3    H175077   6.572   2.656   5.962  0.2233  0.6912  0.1639
17862TIP3    H275078   6.610   2.753   5.852 -0.5371  0.6280 -0.1634
17863TIP3   OH275079   4.174   2.119   0.343 -0.0137 -0.0873 -0.1864
17863TIP3    H175080   4.204   2.049   0.400 -0.9937  0.6278  1.2860
17863TIP3    H275081   4.093   2.150   0.383  0.3022  1.7758 -0.8557
17864TIP3   OH275082   0.960   0.810  12.310 -0.6780  0.5702 -0.0921
17864TIP3    H175083   0.885   0.781  12.362 -1.2083  0.9557 -0.6220
17864TIP3    H275084   0.927   0.811  12.220  0.4168 -0.7664 -0.5460
17865TIP3   OH275085   4.408   5.220  10.849 -0.5591  0.0447 -0.0893
17865TIP3    H175086   4.459   5.286  10.801 -0.3003  0.1788  0.3614
17865TIP3    H275087   4.472   5.178  10.907 -0.9798  0.2822  0.5548
17866TIP3   OH275088   3.990   3.518  11.625 -0.1136  0.4008 -0.6051
17866TIP3    H175089   4.050   3.537  11.554  0.0758 -0.7530 -0.7624
17866TIP3    H275090   4.035   3.454  11.680 -0.7723  0.3005 -0.1563
17867TIP3   OH275091   1.351   4.990  14.211  0.0189  0.6576 -0.2092
17867TIP3    H175092   1.402   5.001  14.292 -1.3273 -2.2264  1.1942
17867TIP3    H275093   1.272   5.042  14.225 -1.1612 -1.3876  1.3771
17868TIP3   OH275094   1.041   2.051   2.068 -0.3646 -0.7773 -0.4581
17868TIP3    H175095   1.092   1.986   2.115 -1.0814 -0.9979  0.0338
17868TIP3    H275096   1.014   2.114   2.135  2.4357  1.5085 -1.2813
17869TIP3   OH275097   5.798   6.074   1.697  0.0077  0.3281 -0.4936
17869TIP3    H175098   5.758   6.037   1.775  1.6544  0.9691  0.6967
17869TIP3    H275099   5.857   6.142   1.729  0.9596  0.4057 -2.2663
17870TIP3   OH275100   1.914   4.344   1.516  0.0335  0.6505 -0.1798
17870TIP3    H175101   1.847   4.280   1.542  1.0763 -0.1175  0.6884
17870TIP3    H275102   1.874   4.392   1.444 -1.5330  0.3418  0.4460
17871TIP3   OH275103   6.094   1.580  12.037 -0.5862  0.3316 -0.0370
17871TIP3    H175104   6.008   1.553  12.070 -0.3802 -0.6788 -0.2776
17871TIP3    H275105   6.156   1.530  12.090 -0.2198 -0.4248 -1.1351
17872TIP3   OH275106   1.070   4.044   3.704  0.2266 -0.3724 -0.5953
17872TIP3    H175107   0.980   4.020   3.681  0.1884 -0.8182 -0.0061
17872TIP3    H275108   1.118   4.041   3.621 -0.2636 -0.3025 -0.8842
17873TIP3   OH275109   4.177   3.129   0.850  0.4855  0.2351 -0.2706
17873TIP3    H175110   4.101   3.121   0.792 -0.5525 -0.8844  1.1807
17873TIP3    H275111   4.146   3.100   0.935  2.3171  0.6186  0.5812
17874TIP3   OH275112   2.139   4.347   6.065 -0.3405 -0.1303 -0.2041
17874TIP3    H175113   2.060   4.348   6.012  0.1891 -0.5229 -1.0174
17874TIP3    H275114   2.121   4.285   6.136 -0.2602 -1.2660 -1.1653
17875TIP3   OH275115   0.123   1.532  13.780  0.4528  0.0588  0.4904
17875TIP3    H175116   0.053   1.481  13.740  0.2032  0.8887 -0.1704
17875TIP3    H275117   0.190   1.467  13.804  0.5914 -0.4970 -1.2298
17876TIP3   OH275118   0.687   5.541   2.821  0.2840  0.5119 -0.6405
17876TIP3    H175119   0.672   5.555   2.915 -0.3514  0.9536 -0.8015
17876TIP3    H275120   0.782   5.528   2.814  0.2373 -0.4555  0.1735
17877TIP3   OH275121   2.130   2.054   6.801  0.4466  0.4744  0.1326
17877TIP3    H175122   2.070   2.013   6.739  0.8771  0.5198 -0.3210
17877TIP3    H275123   2.216   2.018   6.777  0.3879 -1.0361  1.9537
17878TIP3   OH275124   2.029   3.482   4.556 -0.3031  0.1101 -0.0491
17878TIP3    H175125   2.107   3.529   4.527 -0.3980  0.3755  0.1147
17878TIP3    H275126   2.050   3.390   4.544  0.0246  0.1805 -0.0316
17879TIP3   OH275127   1.891   0.689   2.448 -0.1819 -0.3436  0.8408
17879TIP3    H175128   1.889   0.663   2.356  0.3994 -1.7172  1.1809
17879TIP3    H275129   1.810   0.738   2.462 -0.4602 -0.4614 -0.3023
17880TIP3   OH275130   0.049   6.128  11.293  0.4523  0.4595  0.2259
17880TIP3    H175131   0.110   6.134  11.219  0.6222  1.2798  0.4214
17880TIP3    H275132  -0.032   6.169  11.261 -0.1342 -0.9230 -0.1467
17881TIP3   OH275133   5.394   3.515   2.387  0.3328  0.4719 -0.2869
17881TIP3    H175134   5.402   3.610   2.373  1.9763  0.4514  0.2925
17881TIP3    H275135   5.446   3.476   2.317 -0.5766 -0.0235 -0.6967
17882TIP3   OH275136   1.025   4.357  16.244  0.0833 -0.2611 -0.0678
17882TIP3    H175137   1.103   4.357  16.299  0.4174  1.0204 -0.4892
17882TIP3    H275138   1.053   4.315  16.162  0.7002  1.2079 -0.6513
17883TIP3   OH275139   2.065   1.079   1.208  0.0972  0.9682 -0.4374
17883TIP3    H175140   2.037   1.061   1.297  0.6939  0.3244 -0.3717
17883TIP3    H275141   2.148   1.032   1.199  0.2923  1.4360 -1.1693
17884TIP3   OH275142   4.969   1.897  16.948  0.3021 -0.2622  0.3099
17884TIP3    H175143   5.001   1.975  16.902  1.7980  0.4379  2.4002
17884TIP3    H275144   4.875   1.912  16.958  0.1913  0.2083 -1.2402
17885TIP3   OH275145   2.367   5.003  13.092  0.1953 -0.2492 -0.1186
17885TIP3    H175146   2.461   4.982  13.088 -0.3478 -3.1738 -0.3368
17885TIP3    H275147   2.342   4.980  13.182 -0.5471 -0.9524 -0.4889
17886TIP3   OH275148   3.099   5.590  13.037  0.6642 -0.0581 -0.7584
17886TIP3    H175149   3.041   5.665  13.047  3.3558  2.1915 -0.9042
17886TIP3    H275150   3.118   5.562  13.127 -1.7297 -1.8471 -0.7119
17887TIP3   OH275151   0.452   2.393   5.451  0.5335 -0.5931  0.0516
17887TIP3    H175152   0.446   2.484   5.479 -0.6851 -0.8018  0.5457
17887TIP3    H275153   0.482   2.397   5.361 -0.0567  0.3289 -0.1134
17888TIP3   OH275154   6.163   4.126   0.296  0.2026 -0.3915 -0.4888
17888TIP3    H175155   6.125   4.097   0.379 -0.6070 -0.2629 -0.8050
17888TIP3    H275156   6.256   4.136   0.314 -0.2118  1.4258  0.9097
17889TIP3   OH275157   5.345   4.110  14.099 -0.1311 -0.1085 -0.8074
17889TIP3    H175158   5.331   4.134  14.007  1.4150  0.2562 -0.9745
17889TIP3    H275159   5.320   4.188  14.148 -0.7167 -0.2159 -0.9232
17890TIP3   OH275160   0.710   4.626  15.516 -0.0211 -0.6872 -0.3396
17890TIP3    H175161   0.647   4.666  15.575  0.3138  1.4400 -1.3287
17890TIP3    H275162   0.786   4.685  15.518  1.2581 -2.2427 -0.5212
17891TIP3   OH275163   5.961   0.713   4.573  0.2028  0.0611  0.1649
17891TIP3    H175164   5.903   0.680   4.505  1.6670 -1.7455 -0.2733
17891TIP3    H275165   6.041   0.661   4.564  1.5762  1.8579  1.3130
17892TIP3   OH275166   2.648   6.683   5.293 -0.2149 -0.1838 -0.0565
17892TIP3    H175167   2.668   6.707   5.383  0.8826  0.9201 -0.5591
17892TIP3    H275168   2.731   6.694   5.246 -0.5754 -1.4611 -1.0665
17893TIP3   OH275169   3.487   2.522  13.330 -0.2528  0.0213 -0.0694
17893TIP3    H175170   3.413   2.485  13.377  0.7302 -2.3884 -0.2994
17893TIP3    H275171   3.559   2.520  13.392  0.2560 -0.0743 -0.6548
17894TIP3   OH275172   6.181   4.956   2.323 -0.1403  0.1564 -0.7196
17894TIP3    H175173   6.257   4.991   2.276 -1.2769  1.2049 -1.8513
17894TIP3    H275174   6.130   4.912   2.256  0.0850 -1.7209  0.2792
17895TIP3   OH275175   3.899   4.397   1.322  0.7532 -0.8173 -0.0136
17895TIP3    H175176   3.980   4.376   1.275  1.4405 -0.4091  0.9461
17895TIP3    H275177   3.857   4.464   1.269  0.2549 -2.1133 -1.3209
17896TIP3   OH275178   0.671   3.978   3.859 -0.4913  0.1466  0.6136
17896TIP3    H175179   0.681   3.887   3.829 -2.1181  0.1323 -0.0108
17896TIP3    H275180   0.732   4.028   3.804 -0.7248 -0.3801 -0.1499
17897TIP3   OH275181   6.278   5.159  11.054 -0.3644 -0.2423 -0.1176
17897TIP3    H175182   6.250   5.145  10.964 -0.3082  0.1451 -0.1992
17897TIP3    H275183   6.313   5.248  11.054  1.3736 -0.8861 -0.1630
17898TIP3   OH275184   1.175   4.914  16.220 -0.4317  0.5756 -0.5174
17898TIP3    H175185   1.089   4.924  16.178 -0.7983 -0.6629 -0.1105
17898TIP3    H275186   1.190   4.819  16.220  0.2958  0.6775  0.6894
17899TIP3   OH275187   5.740   3.907  14.086  0.2328  0.0255 -0.9306
17899TIP3    H175188   5.833   3.884  14.081  0.0962 -1.4955  1.8077
17899TIP3    H275189   5.735   3.973  14.156 -0.8872 -0.9895 -0.0131
17900TIP3   OH275190   1.251   1.833  14.302 -0.3215  0.3219  0.0382
17900TIP3    H175191   1.313   1.801  14.368 -0.1022 -0.2745 -0.4470
17900TIP3    H275192   1.213   1.912  14.341  1.3332  1.1780  0.0286
17901TIP3   OH275193   2.019   2.701  12.614 -0.3903  0.2558  0.0743
17901TIP3    H175194   2.093   2.712  12.555 -1.6160  0.6728 -1.4741
17901TIP3    H275195   2.010   2.606  12.625  0.6959  0.2117  0.7678
17902TIP3   OH275196   6.060   0.213   6.115  0.0837  0.8340 -0.6004
17902TIP3    H175197   6.095   0.246   6.031 -0.4301 -0.2900 -1.2745
17902TIP3    H275198   6.077   0.284   6.177  3.0034  0.6050 -1.0169
17903TIP3   OH275199   1.333   2.111  13.108 -0.0587 -0.3012 -0.0338
17903TIP3    H175200   1.324   2.201  13.078  1.3768 -0.4771 -1.0978
17903TIP3    H275201   1.399   2.115  13.177 -0.7585 -0.4032  0.6517
17904TIP3   OH275202   6.382   2.073  11.326  0.6221  0.4857  0.0239
17904TIP3    H175203   6.295   2.110  11.335  0.4367 -0.0851  0.6710
17904TIP3    H275204   6.383   2.034  11.239  0.5663  1.3304 -0.3641
17905TIP3   OH275205   0.061   3.391   6.682  0.7639 -0.1975  0.3887
17905TIP3    H175206   0.064   3.450   6.757  2.2735  1.1916 -0.6887
17905TIP3    H275207   0.147   3.350   6.680  0.9023  0.1173 -0.8146
17906TIP3   OH275208   5.236   1.778   2.043  0.3448  0.3445 -0.8640
17906TIP3    H175209   5.154   1.729   2.051 -0.0265  0.7012 -2.1843
17906TIP3    H275210   5.260   1.769   1.950  3.1817 -1.9196 -0.0565
17907TIP3   OH275211   0.304   5.131   3.275  0.1640 -0.4432  1.0442
17907TIP3    H175212   0.220   5.102   3.311  0.2012 -0.8287  0.8327
17907TIP3    H275213   0.303   5.226   3.282 -0.5391 -0.4064  0.5072
17908TIP3   OH275214   4.787   4.733   0.083  0.5354  0.2024 -0.4239
17908TIP3    H175215   4.801   4.791   0.008  0.1781  0.1457 -0.5347
17908TIP3    H275216   4.861   4.752   0.142  1.5913 -0.7334 -1.3929
17909TIP3   OH275217   3.423   5.588   7.006  0.0876 -0.2503  0.4441
17909TIP3    H175218   3.370   5.510   7.022  0.6427 -0.9116 -0.8031
17909TIP3    H275219   3.513   5.559   7.017  0.2971  0.2384  0.0598
17910TIP3   OH275220   0.538   0.857  15.828  0.2255  0.1921  0.5120
17910TIP3    H175221   0.540   0.953  15.832  1.0259  0.1579  0.9956
17910TIP3    H275222   0.615   0.834  15.777  1.0802 -0.2707  1.9623
17911TIP3   OH275223   1.935   0.278   2.719  0.4691  0.3989 -0.0716
17911TIP3    H175224   1.878   0.304   2.791  1.9041  0.5198  1.0634
17911TIP3    H275225   2.023   0.302   2.747  1.5619 -2.8583 -0.2090
17912TIP3   OH275226   2.227   1.796  13.882 -0.0235  0.3249  0.5297
17912TIP3    H175227   2.284   1.873  13.889  0.3925  0.2879 -1.8461
17912TIP3    H275228   2.238   1.750  13.966  2.0411  1.2638  0.8163
17913TIP3   OH275229   5.285   3.691   4.317  0.0437 -0.1049 -0.6372
17913TIP3    H175230   5.330   3.626   4.264 -0.5443 -1.1722  0.1189
17913TIP3    H275231   5.316   3.674   4.406  0.4537  1.1581 -0.5335
17914TIP3   OH275232   0.336   6.165  14.302  0.1311 -0.1443  0.0204
17914TIP3    H175233   0.288   6.212  14.234 -0.3567 -0.3024  0.2486
17914TIP3    H275234   0.367   6.085  14.260 -1.0137 -0.7172  0.2306
17915TIP3   OH275235   0.220   3.862   6.071 -0.3529  0.2643 -0.8021
17915TIP3    H175236   0.198   3.769   6.070  1.3455 -0.1709 -0.3807
17915TIP3    H275237   0.229   3.884   6.163 -1.0589  0.9428 -0.8859
17916TIP3   OH275238   4.465   1.783  16.482  0.0877 -0.1920 -0.7610
17916TIP3    H175239   4.436   1.864  16.439 -0.8685  0.4378  0.9856
17916TIP3    H275240   4.521   1.813  16.553 -0.1695 -1.0795 -0.1772
17917TIP3   OH275241   6.215   0.126  14.700 -0.0522 -0.3713 -0.0104
17917TIP3    H175242   6.231   0.158  14.611  0.2005  0.2888  0.2605
17917TIP3    H275243   6.299   0.140  14.745 -0.6239  0.7735  0.7533
17918TIP3   OH275244   3.490   4.939  15.143  0.1702  0.6901 -0.1139
17918TIP3    H175245   3.417   5.000  15.143  0.0507  0.5655  0.6480
17918TIP3    H275246   3.555   4.978  15.085  0.8228  2.4451  1.6883
17919TIP3   OH275247   1.796   5.646  17.325 -0.1992 -0.1086  0.4625
17919TIP3    H175248   1.725   5.649  17.389 -1.7434 -1.3074 -1.0953
17919TIP3    H275249   1.757   5.678  17.244  0.2436 -3.0485 -1.0581
17920TIP3   OH275250   5.960   5.021   6.547 -0.1301 -0.4243 -0.0039
17920TIP3    H175251   5.939   5.114   6.533  1.6043 -0.2055 -1.5568
17920TIP3    H275252   6.014   5.021   6.626 -0.3945 -0.1503  0.1814
17921TIP3   OH275253   6.342   2.606   5.522 -0.6064 -0.0551  0.5726
17921TIP3    H175254   6.426   2.624   5.565 -0.4315 -2.6758  1.4875
17921TIP3    H275255   6.363   2.608   5.428  0.1178  0.7770  0.7355
17922TIP3   OH275256   4.588   5.428  16.378 -0.0097 -0.0674  0.5254
17922TIP3    H175257   4.557   5.344  16.412 -0.8812  0.1603  0.3115
17922TIP3    H275258   4.536   5.493  16.424 -0.2525  0.3026 -0.2617
17923TIP3   OH275259   5.212   4.946   5.852  0.3506 -0.1217 -0.1547
17923TIP3    H175260   5.138   4.896   5.884  0.6361  0.2851  1.2266
17923TIP3    H275261   5.241   4.900   5.773 -0.4256 -1.1417  0.1416
17924TIP3   OH275262   4.065   1.360   2.662  0.2180 -0.2199 -0.4647
17924TIP3    H175263   4.074   1.265   2.654  1.7001 -0.0078 -1.8521
17924TIP3    H275264   4.090   1.393   2.576 -0.2052  1.4358  0.0283
17925TIP3   OH275265   3.704   5.840   3.554 -0.3734 -0.3933 -0.1543
17925TIP3    H175266   3.775   5.885   3.601  0.2891  0.2816 -1.7442
17925TIP3    H275267   3.744   5.759   3.524 -0.3847 -0.1982 -0.7031
17926TIP3   OH275268   2.378   6.591  14.675  0.1710  0.0050  0.3314
17926TIP3    H175269   2.305   6.600  14.735 -0.1179 -0.1459  0.0052
17926TIP3    H275270   2.373   6.668  14.618 -0.4049 -0.5598 -0.4073
17927TIP3   OH275271   4.700   5.470  11.731 -0.6833  0.2083 -0.0340
17927TIP3    H175272   4.787   5.432  11.720 -0.3587  1.0985 -0.6409
17927TIP3    H275273   4.661   5.420  11.803  0.3060 -0.2214  0.2213
17928TIP3   OH275274   4.155   6.582  11.333 -0.3130 -0.0949  0.1885
17928TIP3    H175275   4.193   6.643  11.269  0.0730 -1.3022 -0.7732
17928TIP3    H275276   4.083   6.540  11.287 -2.5859  1.7738  1.8326
17929TIP3   OH275277   4.625   2.248   1.462 -0.0657  0.1030  0.0710
17929TIP3    H175278   4.604   2.320   1.404 -2.3829 -0.7519 -0.2595
17929TIP3    H275279   4.597   2.169   1.415  2.0819 -1.0333  0.5489
17930TIP3   OH275280   0.365   5.278  11.615  1.1308  0.0603 -0.1363
17930TIP3    H175281   0.354   5.372  11.599 -0.9897  0.1372  1.3956
17930TIP3    H275282   0.353   5.237  11.530 -2.8082  0.8849 -0.1377
17931TIP3   OH275283   3.259   4.510  14.290 -0.3781  0.0657 -0.3238
17931TIP3    H175284   3.312   4.439  14.253 -0.9458 -0.4785 -0.1019
17931TIP3    H275285   3.173   4.471  14.305 -1.1694  1.2072 -1.6449
17932TIP3   OH275286   1.565   4.123  14.811 -0.1676 -0.1486  0.3156
17932TIP3    H175287   1.494   4.094  14.868 -1.4156 -2.4342 -2.1889
17932TIP3    H275288   1.645   4.095  14.855 -1.0212 -0.7974  1.4968
17933TIP3   OH275289   5.825   0.401  17.017 -0.0009 -0.4859  0.2965
17933TIP3    H175290   5.849   0.470  16.956 -1.8304 -0.2509 -0.2232
17933TIP3    H275291   5.755   0.439  17.071  0.6514 -1.1361  1.6663
17934TIP3   OH275292   3.082   4.368  12.795  0.2611 -0.8014  0.0339
17934TIP3    H175293   3.098   4.387  12.888  2.0191  0.1390 -0.4120
17934TIP3    H275294   3.082   4.273  12.789 -2.7836 -1.0066  1.4118
17935TIP3   OH275295   5.469   3.504  16.167  0.3860  0.7768 -0.4418
17935TIP3    H175296   5.555   3.474  16.198 -0.6204 -2.3747 -0.3168
17935TIP3    H275297   5.445   3.575  16.227  2.9196  1.9119 -0.6218
17936TIP3   OH275298   1.044   5.122  17.199  0.3838 -0.2412 -0.8983
17936TIP3    H175299   0.966   5.171  17.225 -0.0264 -1.2056 -0.2367
17936TIP3    H275300   1.075   5.082  17.280  0.7463 -0.9954 -1.3938
17937TIP3   OH275301   5.496   2.878   1.721 -0.3356  0.1636  0.1288
17937TIP3    H175302   5.407   2.891   1.754 -0.7720 -1.8035 -0.1314
17937TIP3    H275303   5.531   2.808   1.776  0.9579  0.7012  0.0214
17938TIP3   OH275304   2.714   3.214  16.683  0.0394  0.5664 -0.0434
17938TIP3    H175305   2.647   3.263  16.635 -0.0470  0.4729 -0.0198
17938TIP3    H275306   2.730   3.136  16.629  0.4267  0.7934 -0.2547
17939TIP3   OH275307   2.073   5.165  11.139 -0.5950 -0.3685 -0.1800
17939TIP3    H175308   2.107   5.130  11.056 -2.0318  0.8592 -1.3346
17939TIP3    H275309   2.151   5.192  11.187  0.2081  0.4351 -1.8553
17940TIP3   OH275310   6.608   5.230  12.074 -0.0994  0.1407 -0.4652
17940TIP3    H175311   6.697   5.266  12.070  0.5270 -1.3458 -0.7344
17940TIP3    H275312   6.606   5.182  12.157 -0.5700 -0.0397 -0.5791
17941TIP3   OH275313   6.412   3.312  14.886  0.0020  0.0777  0.1491
17941TIP3    H175314   6.413   3.238  14.825 -0.8250  0.6660 -0.5954
17941TIP3    H275315   6.333   3.299  14.938 -0.3375  0.6127 -0.2208
17942TIP3   OH275316   1.788   0.962  16.453  0.4301 -0.7577  0.1114
17942TIP3    H175317   1.881   0.962  16.476  1.0260  2.0878 -1.7963
17942TIP3    H275318   1.786   0.942  16.360 -0.7763 -0.0876 -0.0327
17943TIP3   OH275319   5.775   4.090   1.138 -0.3616 -0.6049 -0.0145
17943TIP3    H175320   5.682   4.067   1.134 -0.8648  1.1210  0.4987
17943TIP3    H275321   5.821   4.013   1.106 -2.0828 -0.6990 -2.5452
17944TIP3   OH275322   2.197   2.478  17.251 -0.1029 -0.4112  0.3979
17944TIP3    H175323   2.105   2.457  17.238 -0.2721  0.9628 -0.8576
17944TIP3    H275324   2.197   2.541  17.323 -0.4013  1.1446 -0.8951
17945TIP3   OH275325   5.801   6.107  15.202  0.2143  0.2051  0.1153
17945TIP3    H175326   5.706   6.105  15.212  0.2122 -0.5271 -0.0201
17945TIP3    H275327   5.818   6.186  15.152 -0.2197  1.0309  1.2226
17946TIP3   OH275328   5.273   4.872   0.315 -0.0293 -0.0465 -0.0115
17946TIP3    H175329   5.332   4.923   0.371  1.1745 -0.3750 -0.9378
17946TIP3    H275330   5.317   4.869   0.230 -0.9833 -1.0321 -0.4952
17947TIP3   OH275331   3.130   0.889   2.270  0.5300  0.2847 -0.3364
17947TIP3    H175332   3.116   0.797   2.248 -0.3590  0.1452  0.7030
17947TIP3    H275333   3.199   0.887   2.336 -0.3696  0.2191  0.6370
17948TIP3   OH275334   6.510   4.642  13.708  0.6143 -0.0635 -0.1895
17948TIP3    H175335   6.517   4.724  13.659  1.7006 -0.7282 -1.2272
17948TIP3    H275336   6.554   4.578  13.652  0.2107 -1.2561  0.8193
17949TIP3   OH275337   4.529   1.852  14.169  0.0143 -0.0723  0.5218
17949TIP3    H175338   4.459   1.864  14.106  1.4176 -0.9982 -1.3146
17949TIP3    H275339   4.543   1.939  14.207 -1.0352  0.4520 -0.2521
17950TIP3   OH275340   4.774   4.700  15.815 -0.1446  1.1639 -0.3803
17950TIP3    H175341   4.748   4.723  15.904 -0.3492  0.5331 -0.2743
17950TIP3    H275342   4.699   4.652  15.780  1.8451 -3.4158  0.9498
17951TIP3   OH275343   2.380   4.173  15.265 -0.1043  0.1584  0.1097
17951TIP3    H175344   2.349   4.129  15.344  0.3226  0.2884  0.3517
17951TIP3    H275345   2.470   4.199  15.286 -0.1103  0.5074 -0.2895
17952TIP3   OH275346   5.891   6.735  13.142  0.2200  0.5152 -0.7419
17952TIP3    H175347   5.963   6.797  13.133  1.2769 -0.7058 -0.9698
17952TIP3    H275348   5.895   6.705  13.233  0.3825  0.0019 -0.9137
17953TIP3   OH275349   2.436   0.951  16.326 -0.1677  0.3856  0.0488
17953TIP3    H175350   2.500   0.879  16.322  1.1563  1.5460 -0.3791
17953TIP3    H275351   2.421   0.963  16.420  0.5508  0.3399  0.1820
17954TIP3   OH275352   2.232   5.767  12.835  0.0445  0.3454  0.2149
17954TIP3    H175353   2.261   5.836  12.894 -0.0327  1.3464 -0.8728
17954TIP3    H275354   2.281   5.690  12.861  0.1112  0.8023  1.4781
17955TIP3   OH275355   0.479   1.099   3.353 -0.1464  0.2539 -0.3565
17955TIP3    H175356   0.483   1.182   3.307 -1.8619  0.0494 -0.9569
17955TIP3    H275357   0.554   1.100   3.411  0.1228  2.0165 -0.6777
17956TIP3   OH275358   2.282   4.380  11.018 -0.0530  0.0190  0.0163
17956TIP3    H175359   2.245   4.457  10.974  0.9001  0.5838  0.1646
17956TIP3    H275360   2.247   4.385  11.107  0.3648  0.5565  0.1596
17957TIP3   OH275361   0.937   2.237   4.420 -0.7962  0.3320 -0.3111
17957TIP3    H175362   0.977   2.310   4.372 -2.1978 -0.0569 -2.1705
17957TIP3    H275363   0.906   2.177   4.353 -0.3791 -1.6516  1.1646
17958TIP3   OH275364   4.406   5.499   1.499 -0.2923 -0.1821 -0.3487
17958TIP3    H175365   4.405   5.590   1.469  0.3090 -0.0885 -0.0887
17958TIP3    H275366   4.498   5.473   1.494 -0.3654 -0.5628  0.2160
17959TIP3   OH275367   4.740   2.696  12.923  0.0356  0.4278 -0.0545
17959TIP3    H175368   4.674   2.714  12.856 -0.9829  1.7706  1.2265
17959TIP3    H275369   4.709   2.615  12.966  1.0689 -0.8370 -1.5870
17960TIP3   OH275370   0.131   3.035  12.017  0.3775  0.2603  0.3040
17960TIP3    H175371   0.152   2.966  12.080  0.2627  0.1807  0.2569
17960TIP3    H275372   0.041   3.061  12.039 -0.3080 -0.9418 -0.8743
17961TIP3   OH275373   4.028   6.597   0.101 -0.1841  0.2098 -0.0318
17961TIP3    H175374   4.053   6.564   0.014  0.6720  2.3373 -0.6614
17961TIP3    H275375   4.104   6.647   0.130 -1.1760  1.1432  1.0773
17962TIP3   OH275376   0.036   6.437   5.034  0.3441 -0.3167 -0.0447
17962TIP3    H175377   0.017   6.525   5.066  0.0819 -0.2237 -0.4548
17962TIP3    H275378  -0.001   6.379   5.101  1.8405 -0.1235  1.0004
17963TIP3   OH275379   6.547   3.327  11.363  0.1938 -0.1068 -0.1942
17963TIP3    H175380   6.633   3.340  11.322  0.5027  0.0908  0.5110
17963TIP3    H275381   6.534   3.232  11.362 -0.0593 -0.0747 -1.2589
17964TIP3   OH275382   3.902   2.131   4.087 -0.2130 -0.1052  0.2046
17964TIP3    H175383   3.972   2.195   4.097  0.8041 -1.2492  0.6710
17964TIP3    H275384   3.947   2.051   4.062 -1.3281 -0.9374  0.7796
17965TIP3   OH275385   1.772   6.526  13.986 -0.0787 -0.4320  0.0833
17965TIP3    H175386   1.863   6.503  14.007 -0.0364  1.2034  1.9883
17965TIP3    H275387   1.719   6.467  14.039 -0.0300  0.9308  1.7182
17966TIP3   OH275388   3.555   5.085   4.238 -0.0593 -0.6447  0.0400
17966TIP3    H175389   3.642   5.072   4.201  1.1031 -0.4592  2.4956
17966TIP3    H275390   3.496   5.080   4.163  2.0960 -0.1176 -1.8103
17967TIP3   OH275391   2.805   4.437   2.713 -0.2015  0.3825  0.2820
17967TIP3    H175392   2.896   4.417   2.690 -0.1566  0.8009  0.0924
17967TIP3    H275393   2.764   4.351   2.721  0.0029  0.1986 -0.4961
17968TIP3   OH275394   2.273   2.930  15.629 -0.3408  0.1933  0.7018
17968TIP3    H175395   2.264   2.974  15.544 -0.0881 -1.6863 -0.3476
17968TIP3    H275396   2.249   2.997  15.693  0.2703  1.9224 -0.7859
17969TIP3   OH275397   1.112   0.525   0.919 -0.1337  0.0999  0.1289
17969TIP3    H175398   1.146   0.614   0.925  2.8055 -0.8874  0.1252
17969TIP3    H275399   1.053   0.516   0.993 -2.6661  2.7874 -1.3773
17970TIP3   OH275400   5.110   3.572  16.692  0.6396 -0.4233 -0.3281
17970TIP3    H175401   5.066   3.494  16.658  0.2156 -0.3462  0.0365
17970TIP3    H275402   5.165   3.540  16.763  1.2437 -0.5320 -0.8400
17971TIP3   OH275403   2.990   0.429  13.543  0.1096  0.5541  0.0903
17971TIP3    H175404   2.904   0.415  13.504 -0.1639  1.2547  0.4422
17971TIP3    H275405   3.049   0.439  13.468 -0.1006  0.0496 -0.1512
17972TIP3   OH275406   5.868   6.654   1.056  0.2648 -0.0219 -0.1074
17972TIP3    H175407   5.868   6.566   1.093  1.5566  0.0156  0.0150
17972TIP3    H275408   5.830   6.709   1.125 -1.6094 -0.6208 -0.6070
17973TIP3   OH275409   5.399   2.140   3.369 -0.5265 -0.6420 -0.1526
17973TIP3    H175410   5.311   2.157   3.404 -0.6023 -0.0646 -0.6069
17973TIP3    H275411   5.446   2.222   3.383 -0.7558 -0.1499 -1.9727
17974TIP3   OH275412   2.873   1.258   2.522 -0.3197  0.2163 -0.7068
17974TIP3    H175413   2.895   1.207   2.443  1.6859 -1.0104  0.5480
17974TIP3    H275414   2.815   1.200   2.572  1.8116 -0.9256  0.6311
17975TIP3   OH275415   2.162   1.887  16.266  0.2744 -0.6421 -0.3304
17975TIP3    H175416   2.227   1.929  16.323 -1.0064  0.0785  0.6433
17975TIP3    H275417   2.131   1.812  16.317  0.2924 -0.9558 -0.7728
17976TIP3   OH275418   4.998   1.777   4.509 -0.1957 -0.1195 -0.3888
17976TIP3    H175419   5.033   1.832   4.439 -2.4410 -1.2422 -2.5501
17976TIP3    H275420   5.027   1.688   4.487 -0.9471 -0.4954  0.1046
17977TIP3   OH275421   3.181   5.394   1.028  0.6492  0.5521 -0.3353
17977TIP3    H175422   3.151   5.382   0.938  2.0775  0.8420 -0.8780
17977TIP3    H275423   3.162   5.486   1.048  0.9181  0.6576 -0.5685
17978TIP3   OH275424   0.670   5.835   2.924  0.1131  0.0455 -0.5683
17978TIP3    H175425   0.753   5.882   2.929 -1.2624  2.9436 -2.1189
17978TIP3    H275426   0.652   5.809   3.014  0.0480  4.5668  1.0010
17979TIP3   OH275427   0.638   3.998   0.725  0.1233  0.6282  0.3734
17979TIP3    H175428   0.685   4.005   0.642  1.1262 -0.6606  0.8035
17979TIP3    H275429   0.553   4.040   0.708  1.0605  2.2118 -0.6805
17980TIP3   OH275430   3.976   3.373  14.667  1.0623 -0.2631  0.1487
17980TIP3    H175431   4.013   3.342  14.584 -0.4534 -1.9280  0.0310
17980TIP3    H275432   3.898   3.320  14.680 -0.6138  2.2431  1.0105
17981TIP3   OH275433   1.509   2.238  11.314  0.2911  0.6540  0.0270
17981TIP3    H175434   1.536   2.300  11.382  1.6268  0.6990 -0.5274
17981TIP3    H275435   1.584   2.231  11.256 -0.5521  0.0060 -1.0199
17982TIP3   OH275436   3.719   1.903   0.991 -0.1950  0.5085  0.3416
17982TIP3    H175437   3.700   1.987   1.032 -0.2292  0.3699  0.6172
17982TIP3    H275438   3.807   1.881   1.022  0.3461  1.0559 -0.7671
17983TIP3   OH275439   2.630   5.656  12.309 -0.2364  0.0729  0.1285
17983TIP3    H175440   2.626   5.643  12.404 -1.2714  0.6287  0.1697
17983TIP3    H275441   2.544   5.689  12.285 -0.3717 -1.1222 -1.1830
17984TIP3   OH275442   1.059   0.955   1.752  0.4600 -0.1650  0.4817
17984TIP3    H175443   1.052   1.044   1.718 -1.5041 -0.5273 -0.1436
17984TIP3    H275444   1.062   0.966   1.847 -1.7902  0.5256  0.5277
17985TIP3   OH275445   2.651   4.655   3.698  0.4921  0.0864  0.2835
17985TIP3    H175446   2.611   4.704   3.770  1.3771  0.5543  0.4716
17985TIP3    H275447   2.577   4.631   3.641 -0.1693  0.0224  1.1553
17986TIP3   OH275448   3.714   0.562   6.928 -0.2087 -0.3671  0.0593
17986TIP3    H175449   3.632   0.513   6.929  0.2582 -1.3479 -2.2929
17986TIP3    H275450   3.780   0.497   6.905  0.9494  0.7543  0.0837
17987TIP3   OH275451   6.009   4.083   1.961  0.0434 -0.8528  0.1622
17987TIP3    H175452   6.089   4.098   1.910 -0.2888 -0.9370 -0.3921
17987TIP3    H275453   6.025   4.000   2.006  0.4446 -0.6506  0.3967
17988TIP3   OH275454   3.462   3.703   0.236  0.2984 -0.1341 -0.1420
17988TIP3    H175455   3.411   3.622   0.246  1.0452 -0.6229 -0.2021
17988TIP3    H275456   3.550   3.673   0.215  0.4054  0.7196 -0.9609
17989TIP3   OH275457   5.270   1.341  14.795  0.4703  0.2217  0.4599
17989TIP3    H175458   5.197   1.325  14.855  0.9184 -0.2967  0.8828
17989TIP3    H275459   5.230   1.339  14.708 -0.1593  0.8029  0.7198
17990TIP3   OH275460   5.018   4.498   1.795 -0.2482 -0.1407 -0.1546
17990TIP3    H175461   5.084   4.519   1.861 -2.1257  0.4253  1.6393
17990TIP3    H275462   4.999   4.582   1.753 -0.0671 -0.2432 -0.4432
17991TIP3   OH275463   2.022   1.106   1.505  0.0379 -0.1491 -0.4040
17991TIP3    H175464   1.933   1.116   1.538  0.0487  0.6591 -0.6062
17991TIP3    H275465   2.073   1.075   1.580 -0.8179 -2.8120 -0.8024
17992TIP3   OH275466   1.494   3.802  12.472 -0.4796  0.4743  0.6949
17992TIP3    H175467   1.448   3.743  12.532  1.8976 -0.5698  1.5776
17992TIP3    H275468   1.427   3.865  12.444 -2.3109 -0.7016  2.2412
17993TIP3   OH275469   3.869   5.642  16.069  0.0950  0.5544  0.5451
17993TIP3    H175470   3.935   5.633  16.000 -0.8155  0.5724 -0.3544
17993TIP3    H275471   3.873   5.734  16.094  1.0894  0.3469  1.2157
17994TIP3   OH275472   5.389   4.191   1.005  0.5549  0.1064  0.3688
17994TIP3    H175473   5.342   4.132   0.947 -0.8636  1.3127  0.2536
17994TIP3    H275474   5.418   4.136   1.077  1.6296 -1.2505 -1.0341
17995TIP3   OH275475   2.143   1.271  17.513 -0.5345 -0.1534  0.3339
17995TIP3    H175476   2.123   1.267  17.419 -0.5748  0.1600  0.3281
17995TIP3    H275477   2.078   1.331  17.549  0.7768  1.4277  0.1933
17996TIP3   OH275478   1.047   2.497  15.341  0.2661 -0.8929  0.0368
17996TIP3    H175479   1.079   2.516  15.429 -0.1300 -1.6019  0.3515
17996TIP3    H275480   1.117   2.526  15.283 -0.6225  2.3028  0.3685
17997TIP3   OH275481   1.910   6.269   4.007  0.7264 -0.0751 -0.1163
17997TIP3    H175482   1.881   6.195   4.062  1.1922 -1.0767 -1.1790
17997TIP3    H275483   1.934   6.229   3.923 -0.5138  1.4701 -1.2784
17998TIP3   OH275484   1.648   0.894   5.359  0.2180  0.1205  0.1499
17998TIP3    H175485   1.602   0.845   5.427  0.4509  0.6742  0.7094
17998TIP3    H275486   1.726   0.841   5.340 -0.9064 -1.1111 -1.2071
17999TIP3   OH275487   6.598   5.514  13.723 -0.1619  0.0805  0.0166
17999TIP3    H175488   6.547   5.542  13.799  1.0353  0.1313  0.8328
17999TIP3    H275489   6.562   5.428  13.700  0.5276 -0.7078  1.7083
18000TIP3   OH275490   0.581   0.211   3.908  0.2806  0.0186 -0.0229
18000TIP3    H175491   0.602   0.160   3.986  0.4530  0.1971  0.0473
18000TIP3    H275492   0.534   0.149   3.851  0.7906 -0.3243 -0.0866
18001TIP3   OH275493   3.234   1.995  11.941 -0.4555  0.2232 -0.3893
18001TIP3    H175494   3.190   2.069  11.898 -0.5797  0.4310  0.0876
18001TIP3    H275495   3.227   1.923  11.878  1.1264  1.0545 -1.5651
18002TIP3   OH275496   0.014   6.703  12.114 -0.8089 -0.5579  0.4540
18002TIP3    H175497   0.053   6.672  12.032 -1.3869  0.7155 -0.3508
18002TIP3    H275498  -0.071   6.659  12.118 -0.4511 -1.2235  0.7805
18003TIP3   OH275499   3.377   5.647   6.364  0.1426  0.3531  0.1688
18003TIP3    H175500   3.369   5.743   6.365 -1.2334  0.2576  1.1730
18003TIP3    H275501   3.335   5.619   6.445  0.1016 -1.1390 -0.3447
18004TIP3   OH275502   5.059   0.701  11.800 -1.0249 -0.2057  0.0204
18004TIP3    H175503   5.096   0.787  11.819 -3.5405  1.2935 -1.2545
18004TIP3    H275504   5.052   0.658  11.885  0.0266  0.9559  0.7249
18005TIP3   OH275505   2.442   0.627  11.073  0.7354 -0.5172  0.3352
18005TIP3    H175506   2.463   0.719  11.056  1.9198 -1.2145 -2.5096
18005TIP3    H275507   2.347   0.625  11.080  0.6567  0.8465 -0.1146
18006TIP3   OH275508   2.850   3.523  12.880 -0.1199 -0.0578  0.0310
18006TIP3    H175509   2.786   3.480  12.824  1.7852 -1.5477 -1.1406
18006TIP3    H275510   2.899   3.580  12.821  1.6220 -1.3069  0.1895
18007TIP3   OH275511   2.819   0.929  13.561  0.0444 -0.4794 -0.2178
18007TIP3    H175512   2.824   0.967  13.648 -0.5578  0.2937 -0.5114
18007TIP3    H275513   2.864   0.845  13.569  1.1718  0.1728  0.5023
18008TIP3   OH275514   3.527   0.056  12.816  0.0682 -0.3167  0.5797
18008TIP3    H175515   3.515   0.140  12.861  0.4366  0.4385 -0.7005
18008TIP3    H275516   3.544  -0.006  12.887  0.2878  0.7771  1.5205
18009TIP3   OH275517   1.245   1.980   1.755 -0.2018  0.3315 -0.4094
18009TIP3    H175518   1.210   1.905   1.802 -2.5421  1.8790  0.5190
18009TIP3    H275519   1.275   2.039   1.824 -1.9687  1.8361 -0.8288
18010TIP3   OH275520   0.256   3.863   1.889 -0.5372 -0.3391  0.0289
18010TIP3    H175521   0.212   3.926   1.832  1.0169 -0.6055 -1.5931
18010TIP3    H275522   0.272   3.910   1.970 -1.9984  0.3695 -0.0602
18011TIP3   OH275523   3.572   4.656   0.430 -0.4559 -0.2483 -0.3372
18011TIP3    H175524   3.666   4.677   0.431 -0.9646  2.2939  0.3436
18011TIP3    H275525   3.559   4.610   0.347  1.1916  0.3535 -0.9759
18012TIP3   OH275526   0.003   1.371   5.190 -0.2800 -0.4366  0.0965
18012TIP3    H175527   0.068   1.345   5.255 -1.4378 -1.4013  0.9018
18012TIP3    H275528   0.052   1.424   5.127  2.1582 -4.0053 -1.3449
18013TIP3   OH275529   6.470   2.494   0.444 -0.1398  0.0800  0.1769
18013TIP3    H175530   6.514   2.556   0.501 -2.3719  0.3222  1.7547
18013TIP3    H275531   6.377   2.517   0.449 -0.6622 -1.1606 -2.0147
18014TIP3   OH275532   2.785   4.818   1.764  0.0164 -0.1550 -0.3102
18014TIP3    H175533   2.744   4.882   1.821  1.1825 -1.5608  2.3135
18014TIP3    H275534   2.713   4.764   1.732 -0.8562  1.7352 -1.7547
18015TIP3   OH275535   6.076   4.364  16.697  0.1640  0.2506 -0.0818
18015TIP3    H175536   6.138   4.291  16.694 -1.6958 -1.4076 -0.3400
18015TIP3    H275537   6.035   4.363  16.610 -0.9110  0.6657  0.4071
18016TIP3   OH275538   4.837   0.706   1.966  0.3304  0.0800 -0.2791
18016TIP3    H175539   4.907   0.662   1.918  0.6053  0.3587 -0.1279
18016TIP3    H275540   4.849   0.679   2.057  0.9824  1.1016 -0.0537
18017TIP3   OH275541   4.639   1.298  12.994  0.2714 -0.9665  0.1646
18017TIP3    H175542   4.610   1.371  13.048  3.2698 -0.2313  0.9806
18017TIP3    H275543   4.641   1.333  12.905 -1.6428 -1.2218 -0.0346
18018TIP3   OH275544   0.364   2.637   2.963  0.3812  0.1775 -0.2881
18018TIP3    H175545   0.447   2.592   2.980  0.6156  0.4430 -0.7030
18018TIP3    H275546   0.353   2.695   3.038 -0.7092 -1.6580  1.0577
18019TIP3   OH275547   5.355   4.844   1.368  0.2394 -0.0063  0.1247
18019TIP3    H175548   5.371   4.753   1.395  0.5809  0.0199  0.0195
18019TIP3    H275549   5.403   4.853   1.285  0.6110  0.4115  0.3802
18020TIP3   OH275550   1.609   2.052   2.243 -0.3076 -0.2638  0.0464
18020TIP3    H175551   1.568   2.062   2.329  1.1418 -1.4937  0.9312
18020TIP3    H275552   1.697   2.019   2.261  0.3744  0.3232 -1.8770
18021TIP3   OH275553   5.762   0.206  13.024  0.9693  0.0581 -0.6160
18021TIP3    H175554   5.814   0.139  13.068  0.4203 -0.1100 -0.2099
18021TIP3    H275555   5.818   0.284  13.025  1.8667 -0.5421 -1.6444
18022TIP3   OH275556   5.757   1.201   3.347  0.1308  0.5653  0.4841
18022TIP3    H175557   5.740   1.179   3.439 -0.2667 -0.2815  0.2219
18022TIP3    H275558   5.852   1.196   3.338  0.1307  0.0176  0.7072
18023TIP3   OH275559   1.135   6.376   6.135 -0.3226 -0.3356  0.4277
18023TIP3    H175560   1.211   6.419   6.097 -0.4122 -1.4876 -1.1352
18023TIP3    H275561   1.130   6.292   6.090 -2.4784 -0.3231  0.5476
18024TIP3   OH275562   4.715   1.569  14.052 -0.6885 -0.4176 -0.0683
18024TIP3    H175563   4.728   1.614  14.135 -1.1592 -1.2972  0.4857
18024TIP3    H275564   4.779   1.610  13.993 -0.6673  0.5269  0.5876
18025TIP3   OH275565   0.001   2.526   2.122  0.4372  0.5613 -0.2573
18025TIP3    H175566  -0.017   2.445   2.171 -0.4389  0.4128 -0.8050
18025TIP3    H275567  -0.069   2.530   2.056  1.3239  1.0008 -1.1882
18026TIP3   OH275568   0.838   2.565   1.743  0.0716  0.0871 -0.0321
18026TIP3    H175569   0.852   2.637   1.804  1.4612 -1.0942  1.0964
18026TIP3    H275570   0.801   2.495   1.796  2.6663 -1.4816 -0.1320
18027TIP3   OH275571   3.574   6.384  13.398  0.1391 -0.3030 -0.4849
18027TIP3    H175572   3.595   6.372  13.490 -0.9444  0.2790 -0.1483
18027TIP3    H275573   3.568   6.295  13.363  1.9599 -0.5132 -0.3474
18028TIP3   OH275574   1.213   1.586  16.833 -0.8492 -0.2733  0.1673
18028TIP3    H175575   1.138   1.546  16.790  0.7590 -0.9549 -2.2587
18028TIP3    H275576   1.288   1.536  16.801  0.7027  0.7469  2.0076
18029TIP3   OH275577   4.704   4.738  17.113 -0.1633  0.1224  0.2946
18029TIP3    H175578   4.775   4.802  17.111 -0.2055  0.1620 -0.1818
18029TIP3    H275579   4.625   4.789  17.094  0.1232 -0.4350 -3.1135
18030TIP3   OH275580   3.894   0.164   0.505  0.1626 -0.2679  0.7272
18030TIP3    H175581   3.869   0.195   0.592  0.9680  0.7552  0.6095
18030TIP3    H275582   3.989   0.174   0.503  0.4395 -2.4672  0.5487
18031TIP3   OH275583   0.975   5.958  17.120  0.2911  0.0193 -0.3068
18031TIP3    H175584   1.002   5.976  17.210  0.0078 -1.3140  0.0781
18031TIP3    H275585   1.055   5.929  17.076  0.1925 -0.5173 -0.1390
18032TIP3   OH275586   3.483   2.889  12.941  0.1898  0.2886  0.3566
18032TIP3    H175587   3.503   2.863  13.030  4.0651  1.3745 -0.0337
18032TIP3    H275588   3.491   2.808  12.890 -1.6379 -0.2512  0.8380
18033TIP3   OH275589   2.555   0.837  12.800  0.0422  0.2148  0.4997
18033TIP3    H175590   2.480   0.894  12.815 -0.6270 -0.2820 -0.7832
18033TIP3    H275591   2.526   0.751  12.830  0.2241  0.0872  0.3122
18034TIP3   OH275592   0.748   3.259  13.638  0.0114 -0.1131 -0.0260
18034TIP3    H175593   0.801   3.307  13.575  1.2424 -0.6953  0.5242
18034TIP3    H275594   0.698   3.196  13.586  0.2308  0.1122 -0.5076
18035TIP3   OH275595   1.319   2.987  15.154  0.3351  0.6167  0.0582
18035TIP3    H175596   1.235   3.030  15.137  0.3430  0.2601 -0.9689
18035TIP3    H275597   1.299   2.919  15.219 -0.1994  0.4649 -0.2569
18036TIP3   OH275598   4.719   2.323   4.101  0.2686 -0.2172 -0.6921
18036TIP3    H175599   4.789   2.307   4.165  0.1454  1.0976 -0.1935
18036TIP3    H275600   4.717   2.418   4.091  0.0338 -0.3671 -2.4061
18037TIP3   OH275601   3.127   6.288  15.667 -0.3353 -0.1026  0.3114
18037TIP3    H175602   3.120   6.267  15.574 -0.2874  0.3139  0.2116
18037TIP3    H275603   3.172   6.212  15.706 -0.0127 -0.1086 -0.0678
18038TIP3   OH275604   4.564   6.366   3.598  0.5385 -0.7174  0.0691
18038TIP3    H175605   4.479   6.407   3.585  0.2856 -1.6622 -1.5044
18038TIP3    H275606   4.557   6.281   3.556  2.8091 -0.1016 -1.8051
18039TIP3   OH275607   0.546   6.506   4.582 -0.3747 -0.1440 -0.0127
18039TIP3    H175608   0.454   6.479   4.590 -0.3711 -0.6446 -1.4309
18039TIP3    H275609   0.548   6.596   4.615 -1.3221 -0.2153  0.2590
18040TIP3   OH275610   1.372   5.587   5.274 -0.0617  0.3588  0.2117
18040TIP3    H175611   1.389   5.622   5.187 -0.0527  0.3639  0.2154
18040TIP3    H275612   1.446   5.528   5.290 -0.7141 -0.6379 -0.3087
18041TIP3   OH275613   3.740   5.202   2.060  0.3603 -0.3707 -0.6618
18041TIP3    H175614   3.671   5.223   1.997 -1.9226  1.2693  2.1281
18041TIP3    H275615   3.700   5.139   2.119  1.3081  0.3870  0.8587
18042TIP3   OH275616   1.168   1.715  11.150 -0.4040  0.0476  0.3905
18042TIP3    H175617   1.210   1.777  11.210 -1.3561  0.1419  0.9677
18042TIP3    H275618   1.185   1.751  11.063  1.0559 -0.1298  0.5719
18043TIP3   OH275619   3.773   5.903  14.014  0.2300  0.3991 -0.0646
18043TIP3    H175620   3.855   5.951  14.025  0.1502  0.8128 -1.1590
18043TIP3    H275621   3.744   5.925  13.925  0.3271 -1.8687 -0.7083
18044TIP3   OH275622   0.726   2.303  12.435 -0.5476 -0.0819 -0.3991
18044TIP3    H175623   0.717   2.247  12.358 -0.1723  0.1288 -0.5998
18044TIP3    H275624   0.683   2.385  12.410  1.4136  0.7657 -1.1948
18045TIP3   OH275625   5.381   2.704  15.787  0.0877 -0.2276 -0.3719
18045TIP3    H175626   5.474   2.722  15.796  0.0339 -0.4441  0.8465
18045TIP3    H275627   5.375   2.608  15.787 -0.1428 -0.2156 -0.1696
18046TIP3   OH275628   6.122   3.340  17.029 -0.4070  0.4101  0.1168
18046TIP3    H175629   6.199   3.391  17.055 -0.1285 -0.3068  0.7189
18046TIP3    H275630   6.057   3.406  17.005 -0.5116  1.1257  2.1571
18047TIP3   OH275631   0.246   1.553  16.813  0.3270  0.1090  0.3474
18047TIP3    H175632   0.300   1.614  16.865 -0.3089  1.7197 -0.7920
18047TIP3    H275633   0.156   1.578  16.834  0.0371 -1.0200  0.4799
18048TIP3   OH275634   0.697   4.944   6.246  0.8167 -0.3174 -0.0325
18048TIP3    H175635   0.687   5.029   6.202 -3.1075 -0.7704 -0.3615
18048TIP3    H275636   0.776   4.906   6.207 -0.0594  1.1236 -3.6577
18049TIP3   OH275637   5.172   0.924  11.879  0.2259 -0.2186  0.2000
18049TIP3    H175638   5.252   0.971  11.854 -0.3945  0.0720 -1.3390
18049TIP3    H275639   5.145   0.965  11.962  1.4343 -0.0440  0.5254
18050TIP3   OH275640   5.303   5.406   0.787 -0.0691  0.2603  0.0698
18050TIP3    H175641   5.383   5.435   0.744 -0.2520  2.6833  1.1722
18050TIP3    H275642   5.332   5.375   0.873 -0.1250 -0.8956 -0.3075
18051TIP3   OH275643   3.700   1.053   3.402 -0.0996 -0.3962 -0.3314
18051TIP3    H175644   3.696   1.137   3.357 -1.0984  0.2664  0.9447
18051TIP3    H275645   3.611   1.037   3.432  0.3600 -1.2134  0.6740
18052TIP3   OH275646   1.077   0.692   5.099  0.0747 -0.5886  0.2316
18052TIP3    H175647   1.148   0.659   5.154 -1.5751 -0.1180  2.8163
18052TIP3    H275648   1.019   0.617   5.085  1.3376 -1.1854 -2.5562
18053TIP3   OH275649   6.335   0.371  13.194 -0.1817  0.7107 -0.2124
18053TIP3    H175650   6.351   0.366  13.289  0.0791  0.8269 -0.2507
18053TIP3    H275651   6.421   0.360  13.154 -0.0770  2.0135 -0.3990
18054TIP3   OH275652   5.613   0.025  11.647  0.2973  0.1314 -0.4542
18054TIP3    H175653   5.580   0.112  11.671 -1.5887 -0.1261 -1.9006
18054TIP3    H275654   5.686   0.043  11.587  0.2638  0.7135 -0.3229
18055TIP3   OH275655   4.769   5.211   1.580 -0.0923 -0.4831 -0.6974
18055TIP3    H175656   4.711   5.161   1.637  0.7419  1.1768  1.7672
18055TIP3    H275657   4.856   5.174   1.596  0.3826  0.9769  0.4055
18056TIP3   OH275658   2.307   3.173  13.381  0.1754  0.4838 -0.3347
18056TIP3    H175659   2.364   3.248  13.395  1.0834  0.0377 -1.4357
18056TIP3    H275660   2.251   3.198  13.308  0.9749 -0.1276 -1.2003
18057TIP3   OH275661   3.826   6.463   0.950  0.3209  0.0026  0.2212
18057TIP3    H175662   3.850   6.556   0.944  1.2383 -0.2206  0.3510
18057TIP3    H275663   3.819   6.434   0.859 -3.4603  1.0189 -0.0199
18058TIP3   OH275664   3.070   2.654  13.734  0.1933  0.1685 -0.5171
18058TIP3    H175665   2.989   2.672  13.686  0.3106  1.4528 -0.2502
18058TIP3    H275666   3.140   2.683  13.675  0.3428  1.6699  0.3625
18059TIP3   OH275667   2.735   1.948   5.698  0.9948 -0.5454 -0.2431
18059TIP3    H175668   2.822   1.910   5.703  1.3403  0.3085  0.6832
18059TIP3    H275669   2.745   2.036   5.736  0.0491  0.1334 -1.4672
18060TIP3   OH275670   0.140   4.248  12.233 -0.1342  0.3517  0.4634
18060TIP3    H175671   0.208   4.251  12.300 -1.6129  2.7644  2.0271
18060TIP3    H275672   0.170   4.309  12.166 -0.1657  0.4420  0.5312
18061TIP3   OH275673   1.934   4.569   6.352 -0.2609  0.9593 -0.4497
18061TIP3    H175674   1.863   4.615   6.398 -1.4784 -0.2395 -1.0644
18061TIP3    H275675   2.001   4.556   6.419 -0.9996  1.3264  0.3853
18062TIP3   OH275676   1.018   3.056   3.022 -0.1632 -0.6407  0.0906
18062TIP3    H175677   0.926   3.072   3.042 -0.0505 -0.2517  0.2954
18062TIP3    H275678   1.040   2.977   3.071 -0.0675 -0.0699  0.9840
18063TIP3   OH275679   4.496   4.396   3.823  0.1956 -0.1479  0.1275
18063TIP3    H175680   4.435   4.397   3.897 -1.4530  1.0299 -1.1532
18063TIP3    H275681   4.473   4.475   3.773  1.0013 -1.0801 -1.8058
18064TIP3   OH275682   6.658   4.030  12.060  0.0992  0.1892  0.6643
18064TIP3    H175683   6.624   4.057  12.146 -0.0411 -0.6530  0.8863
18064TIP3    H275684   6.746   3.997  12.078  0.0697  0.0109  0.4852
18065TIP3   OH275685   6.182   6.113   5.171  0.3276 -0.1634  0.0130
18065TIP3    H175686   6.140   6.042   5.219 -1.5889  1.1897  0.4436
18065TIP3    H275687   6.110   6.163   5.133  1.4717  2.3526  0.9041
18066TIP3   OH275688   3.732   2.737   6.212 -0.3613  0.2573  0.1909
18066TIP3    H175689   3.790   2.805   6.245 -0.3620  0.7535 -0.7990
18066TIP3    H275690   3.646   2.757   6.251 -0.5981  1.4375 -0.8839
18067TIP3   OH275691   5.678   1.243   3.613 -0.3707  0.3634  0.5086
18067TIP3    H175692   5.585   1.243   3.637 -0.3817  1.0131  0.4656
18067TIP3    H275693   5.707   1.333   3.626 -0.4513  0.8610 -2.1391
18068TIP3   OH275694   1.386   0.886   1.713 -0.5863  0.4663  0.0871
18068TIP3    H175695   1.290   0.878   1.719 -0.5124 -0.0647  0.6355
18068TIP3    H275696   1.411   0.926   1.796 -0.3788  1.0582 -0.2622
18069TIP3   OH275697   0.264   5.630   5.969 -0.0763  0.0854  0.1375
18069TIP3    H175698   0.336   5.691   5.952  0.3100 -0.9730 -2.4849
18069TIP3    H275699   0.274   5.607   6.062  1.2373  2.0902  0.5625
18070TIP3   OH275700   1.228   5.194  17.036  0.9021  0.2405  0.2062
18070TIP3    H175701   1.175   5.262  16.994  2.9972  0.9136 -1.5115
18070TIP3    H275702   1.195   5.190  17.125 -0.3944  2.3425 -0.1062
18071TIP3   OH275703   1.622   0.622  16.438 -0.0374  0.6483  0.1188
18071TIP3    H175704   1.673   0.667  16.371  1.8247 -1.2834  0.1421
18071TIP3    H275705   1.619   0.683  16.511  0.5981  1.5455 -0.5856
18072TIP3   OH275706   4.563   5.169   3.737  0.1087 -0.3860 -0.2232
18072TIP3    H175707   4.480   5.166   3.784 -0.6355 -3.1903 -1.4971
18072TIP3    H275708   4.629   5.150   3.804 -0.3310  0.9318  0.6215
18073TIP3   OH275709   5.368   1.712  16.412 -0.1702 -0.3186 -0.3068
18073TIP3    H175710   5.389   1.640  16.353 -0.9086 -0.5045 -0.3544
18073TIP3    H275711   5.440   1.713  16.476 -0.2894 -1.2614 -0.1481
18074TIP3   OH275712   3.182   3.392   3.447  0.3729  0.2191  0.3353
18074TIP3    H175713   3.102   3.341   3.431  1.5655 -1.8984  0.7348
18074TIP3    H275714   3.209   3.422   3.361  0.2846 -0.9070 -0.1060
18075TIP3   OH275715   1.254   5.569   5.522  0.3600 -0.8572  0.6011
18075TIP3    H175716   1.301   5.573   5.438  0.7523 -0.5479  0.8333
18075TIP3    H275717   1.269   5.480   5.553 -0.4383 -1.2291 -0.0227
18076TIP3   OH275718   4.857   6.444  11.469  0.1094 -0.4749 -0.1810
18076TIP3    H175719   4.890   6.387  11.400  0.5064  0.4127 -0.7300
18076TIP3    H275720   4.890   6.531  11.448 -1.6883  0.2615 -0.1783
18077TIP3   OH275721   3.866   3.199   1.008  0.4562  0.7013  0.4913
18077TIP3    H175722   3.899   3.288   0.993 -0.6655  1.1176  0.4652
18077TIP3    H275723   3.786   3.210   1.058 -0.4876 -0.1973 -0.7386
18078TIP3   OH275724   4.812   4.245   2.162 -0.1396 -0.0924  0.0315
18078TIP3    H175725   4.893   4.281   2.125  0.2522 -0.0085  0.9270
18078TIP3    H275726   4.818   4.266   2.255 -1.7390  0.9080 -0.0667
18079TIP3   OH275727   1.752   3.103   2.329 -0.8944 -0.7830  0.8287
18079TIP3    H175728   1.677   3.153   2.361 -2.0330 -1.4890 -0.6378
18079TIP3    H275729   1.714   3.038   2.269  0.6939 -2.3706  1.4539
18080TIP3   OH275730   2.020   2.485  12.265 -0.6491  0.0492  0.3450
18080TIP3    H175731   2.071   2.465  12.186  0.7138 -1.2274  1.4865
18080TIP3    H275732   1.961   2.556  12.238  0.6575  0.5263 -1.4555
18081TIP3   OH275733   1.655   3.852  12.839 -0.5726  0.2548  0.1378
18081TIP3    H175734   1.689   3.771  12.802 -0.4739  0.7378 -0.8622
18081TIP3    H275735   1.588   3.824  12.901  0.9479 -0.6806  1.4415
18082TIP3   OH275736   4.619   1.154  17.373 -0.0302  0.0041 -0.0830
18082TIP3    H175737   4.545   1.211  17.352  0.7364  1.4833  1.0885
18082TIP3    H275738   4.606   1.130  17.465  1.0430  0.4528  0.2008
18083TIP3   OH275739   3.653   1.077   4.379  0.2864  0.0731  0.0967
18083TIP3    H175740   3.699   1.100   4.460 -0.4654  0.3698  0.4493
18083TIP3    H275741   3.620   0.989   4.394  1.8390 -0.6887 -0.6656
18084TIP3   OH275742   3.239   1.352  14.371  0.3443  0.7742  0.0429
18084TIP3    H175743   3.242   1.270  14.323  0.3052  0.9752 -0.3070
18084TIP3    H275744   3.198   1.414  14.310 -0.6596  0.7865  0.7021
18085TIP3   OH275745   4.808   0.391  16.331  0.0279  0.5012  0.0878
18085TIP3    H175746   4.856   0.371  16.250 -0.3156  0.5635 -0.1322
18085TIP3    H275747   4.716   0.397  16.304 -0.3367 -1.2634  0.7770
18086TIP3   OH275748   0.393   6.215  17.431 -0.2805 -0.0317  0.2310
18086TIP3    H175749   0.411   6.224  17.337 -2.0713 -3.3045 -0.5946
18086TIP3    H275750   0.395   6.304  17.465  0.3533  1.2858 -2.9209
18087TIP3   OH275751   1.253   6.181   0.443  0.3106  0.0143 -0.4760
18087TIP3    H175752   1.181   6.165   0.503 -0.5984  1.5874 -1.0877
18087TIP3    H275753   1.216   6.165   0.356  1.0350 -0.2733 -0.7433
18088TIP3   OH275754   0.376   1.658  15.179  0.1519  0.3863  0.1085
18088TIP3    H175755   0.286   1.680  15.155  0.1481  2.5362  1.8087
18088TIP3    H275756   0.413   1.617  15.101 -2.6605 -1.8788 -0.2097
18089TIP3   OH275757   4.720   0.853  16.073  0.5054  0.0097  0.0624
18089TIP3    H175758   4.702   0.768  16.033  0.7315  0.2182 -0.4979
18089TIP3    H275759   4.813   0.867  16.058  0.2440  0.8643 -0.8614
18090TIP3   OH275760   2.841   2.015  12.222 -0.7450  0.5323 -0.4216
18090TIP3    H175761   2.861   2.105  12.196  0.6042  0.1599 -0.7541
18090TIP3    H275762   2.912   1.991  12.282 -0.7855 -0.4881 -0.7572
18091TIP3   OH275763   0.006   6.374  16.001  0.0004 -0.0904 -1.0170
18091TIP3    H175764   0.048   6.288  16.014  1.6981  0.7930 -0.3656
18091TIP3    H275765   0.065   6.421  15.942 -0.7705  0.7221 -1.1520
18092TIP3   OH275766   2.780   2.997  13.317  0.0303 -0.4855  0.3543
18092TIP3    H175767   2.693   3.020  13.285 -0.0252 -0.5469  0.4602
18092TIP3    H275768   2.811   3.077  13.359 -0.4142 -0.7736  1.2709
18093TIP3   OH275769   1.088   5.337   0.699 -0.4236 -0.2195 -0.2849
18093TIP3    H175770   1.076   5.408   0.763 -1.5535 -1.0111  0.4132
18093TIP3    H275771   1.179   5.310   0.711 -0.8381 -0.9122  1.6192
18094TIP3   OH275772   4.273   4.549   1.873 -0.2499  0.1970 -0.1002
18094TIP3    H175773   4.251   4.570   1.782  1.0924 -2.5718 -1.2032
18094TIP3    H275774   4.360   4.587   1.886  0.6142 -1.4011 -0.8730
18095TIP3   OH275775   6.225   3.229  11.321  0.0254 -0.1598 -0.2479
18095TIP3    H175776   6.215   3.179  11.402 -1.4192 -0.2902 -0.4804
18095TIP3    H275777   6.139   3.267  11.306  0.9558  2.0844 -0.3031
18096TIP3   OH275778   0.709   0.074   4.139  0.5553 -0.3079  0.3542
18096TIP3    H175779   0.746   0.035   4.219  0.2998 -0.1153  0.5657
18096TIP3    H275780   0.760   0.034   4.068 -0.2187 -1.6397  0.5050
18097TIP3   OH275781   3.902   3.534  14.092  0.6124  0.2767 -0.5707
18097TIP3    H175782   3.854   3.601  14.140  0.3736 -0.3727  0.1292
18097TIP3    H275783   3.857   3.452  14.113  0.9801 -0.1241 -1.2946
18098TIP3   OH275784   1.968   2.879   3.406 -0.4641 -0.1237 -0.4467
18098TIP3    H175785   2.042   2.819   3.417  0.0977  0.3734 -1.3875
18098TIP3    H275786   1.894   2.834   3.447  0.8879  0.5657  3.0576
18099TIP3   OH275787   5.075   3.721  12.462  0.0302 -0.0728 -0.0627
18099TIP3    H175788   5.021   3.697  12.387 -1.3332  0.5954  0.6698
18099TIP3    H275789   5.068   3.646  12.521 -0.0969  0.0102  0.0287
18100TIP3   OH275790   4.669   3.829   3.426 -0.4871  0.0691 -0.4433
18100TIP3    H175791   4.584   3.786   3.425 -1.1319  1.3160 -0.7159
18100TIP3    H275792   4.716   3.788   3.499 -1.9055  0.4930  0.7343
18101TIP3   OH275793   1.364   2.794  11.276 -0.4433  0.0787 -0.1851
18101TIP3    H175794   1.408   2.710  11.264 -1.2175 -0.2459 -0.8849
18101TIP3    H275795   1.415   2.856  11.225  0.0701  0.0150  0.2463
18102TIP3   OH275796   1.704   1.094   0.209  0.6722 -0.4645 -0.0955
18102TIP3    H175797   1.780   1.055   0.253 -0.0813 -0.9748  0.7745
18102TIP3    H275798   1.645   1.020   0.192  0.8508 -0.2544 -1.8172
18103TIP3   OH275799   2.398   2.103  14.910  0.6290 -0.2594 -0.1359
18103TIP3    H175800   2.313   2.061  14.895  0.1902  0.7095 -0.4709
18103TIP3    H275801   2.376   2.188  14.949  1.5279 -0.6115  1.1816
18104TIP3   OH275802   3.092   1.288   2.901  0.1207  0.4322 -0.6007
18104TIP3    H175803   3.036   1.354   2.942  0.4093  2.2118 -2.8331
18104TIP3    H275804   3.108   1.322   2.813  1.3724 -2.0379 -1.4180
18105TIP3   OH275805   5.037   0.577   1.842 -0.0915 -0.1974  0.2723
18105TIP3    H175806   5.053   0.483   1.841 -0.8199 -0.3329  0.4364
18105TIP3    H275807   5.110   0.613   1.892 -0.2706 -0.7789  0.9732
18106TIP3   OH275808   6.519   5.165   4.315  0.4913  0.6775 -0.7762
18106TIP3    H175809   6.535   5.240   4.258  0.7144  2.4183  1.4453
18106TIP3    H275810   6.565   5.186   4.396  2.8413 -3.0906 -0.8916
18107TIP3   OH275811   4.830   3.881  15.884  0.0511 -0.1379  0.0999
18107TIP3    H175812   4.844   3.969  15.918 -2.4560  0.0092  1.0112
18107TIP3    H275813   4.857   3.885  15.793 -1.5644  2.1246 -0.3678
18108TIP3   OH275814   0.813   5.097   3.829  0.2537  0.1044 -0.3080
18108TIP3    H175815   0.788   5.161   3.762 -1.7523 -0.3877 -0.1169
18108TIP3    H275816   0.765   5.017   3.804 -0.2646 -0.1879  1.4786
18109TIP3   OH275817   5.805   5.732   1.179  0.0196 -0.7832  0.4999
18109TIP3    H175818   5.860   5.713   1.255  2.6030  0.5113 -0.9074
18109TIP3    H275819   5.789   5.826   1.183  1.7525 -0.3228 -1.4046
18110TIP3   OH275820   2.261   5.806  15.853 -0.1622  0.8857  0.6551
18110TIP3    H175821   2.251   5.893  15.891 -3.4843  1.4249 -1.0859
18110TIP3    H275822   2.247   5.818  15.759  0.9096 -1.3161  0.1449
18111TIP3   OH275823   1.117   1.208   0.370 -0.0117 -0.3039  0.1451
18111TIP3    H175824   1.049   1.189   0.435  0.3473  1.9713  1.2903
18111TIP3    H275825   1.080   1.277   0.315 -0.3462 -2.2413 -2.2517
18112TIP3   OH275826   0.164   3.996  12.111  0.0697 -0.2661  0.2434
18112TIP3    H175827   0.182   4.088  12.130 -1.6422  0.1680 -0.0698
18112TIP3    H275828   0.212   3.948  12.178 -1.0091  0.9715  1.9919
18113TIP3   OH275829   4.908   6.244   1.394  0.0720 -0.0108 -0.0647
18113TIP3    H175830   4.941   6.302   1.326 -0.0929 -2.0013 -1.9608
18113TIP3    H275831   4.975   6.245   1.462  0.5135  1.5947 -0.4913
18114TIP3   OH275832   1.259   4.864  13.180 -0.1295  0.2588  0.0801
18114TIP3    H175833   1.169   4.859  13.147  0.2859  2.7168 -1.6675
18114TIP3    H275834   1.276   4.957  13.192  1.7049 -0.2288  1.9082
18115TIP3   OH275835   4.502   1.123   1.173  0.6966  0.4691 -0.3501
18115TIP3    H175836   4.511   1.183   1.099  0.2581  0.7176 -0.2124
18115TIP3    H275837   4.591   1.108   1.203  0.9014  0.1468 -1.0942
18116TIP3   OH275838   3.483   0.500   4.625  0.0096  0.3869 -0.1570
18116TIP3    H175839   3.497   0.451   4.544  0.5863 -1.9513  1.2616
18116TIP3    H275840   3.391   0.485   4.647  0.1176  0.1479  0.1436
18117TIP3   OH275841   6.695   6.679   0.360  0.1503  0.8163 -0.5466
18117TIP3    H175842   6.623   6.725   0.317 -0.8430 -0.0633  0.1407
18117TIP3    H275843   6.736   6.629   0.290 -0.5847  0.4828 -0.7512
18118TIP3   OH275844   6.474   1.727  16.878  0.7085 -0.1002  0.2948
18118TIP3    H175845   6.411   1.701  16.812 -0.0042  0.3399  0.7965
18118TIP3    H275846   6.547   1.666  16.866  0.7155  0.1482 -1.0683
18119TIP3   OH275847   2.100   0.902  13.065 -0.4500 -0.1581  0.3263
18119TIP3    H175848   2.042   0.894  12.990 -0.1402  0.9276 -0.0425
18119TIP3    H275849   2.084   0.991  13.098 -0.4211 -0.5436  1.4102
18120TIP3   OH275850   6.199   1.724   6.457 -0.3701 -0.1168 -0.1056
18120TIP3    H175851   6.164   1.803   6.496  0.0777  0.7306 -1.3570
18120TIP3    H275852   6.126   1.688   6.406 -1.0902 -1.4611  1.7717
18121TIP3   OH275853   3.054   1.127   5.664 -0.0667 -0.5887  0.2232
18121TIP3    H175854   2.988   1.118   5.595  0.7376 -0.8414 -0.5311
18121TIP3    H275855   3.044   1.218   5.694 -0.5119 -0.5167 -0.1251
18122TIP3   OH275856   4.483   3.710  17.263  0.4030 -0.0046  0.3663
18122TIP3    H175857   4.464   3.804  17.273  1.3602  0.1550  0.8069
18122TIP3    H275858   4.453   3.690  17.174  1.4105  1.0455 -0.2429
18123TIP3   OH275859   5.137   3.331   0.102 -0.0549  0.4657  0.4200
18123TIP3    H175860   5.117   3.401   0.039  1.3671  0.4410 -0.0871
18123TIP3    H275861   5.112   3.250   0.057  0.7152  0.4680 -0.0298
18124TIP3   OH275862   4.378   2.339   4.979  0.2594 -0.1714  0.2988
18124TIP3    H175863   4.369   2.327   5.074  0.9304 -1.1633  0.2490
18124TIP3    H275864   4.438   2.270   4.952 -1.3868 -1.1174 -1.1436
18125TIP3   OH275865   0.077   1.952   6.161  0.9903 -0.0242 -0.0405
18125TIP3    H175866   0.169   1.946   6.136  0.9216 -1.4915  0.0117
18125TIP3    H275867   0.069   2.040   6.198  2.2243  0.3481 -0.5978
18126TIP3   OH275868   1.308   6.243  10.805  0.1286  0.4624  0.0126
18126TIP3    H175869   1.220   6.255  10.840  0.7833  0.2393  1.8652
18126TIP3    H275870   1.322   6.148  10.806  0.8685  0.5701  1.0472
18127TIP3   OH275871   1.270   5.615  16.869  0.0100 -0.3965 -0.1133
18127TIP3    H175872   1.342   5.553  16.878 -0.2546 -0.8927 -1.2556
18127TIP3    H275873   1.198   5.576  16.918  0.5273  0.1731  1.1587
18128TIP3   OH275874   2.805   3.739  13.986 -0.1113  0.5674 -0.6254
18128TIP3    H175875   2.866   3.698  13.924  0.4476  2.0512 -1.0890
18128TIP3    H275876   2.795   3.828  13.954  0.7048  1.5824  1.7627
18129TIP3   OH275877   2.266   6.530   5.764 -0.3645  0.2401 -0.5127
18129TIP3    H175878   2.342   6.548   5.819 -0.1069  1.8933 -1.3225
18129TIP3    H275879   2.203   6.488   5.822  0.9003 -0.5338  0.3424
18130TIP3   OH275880   3.163   0.502  16.707 -0.0479 -0.3252 -0.6575
18130TIP3    H175881   3.201   0.432  16.760 -0.6776  0.5135  0.9671
18130TIP3    H275882   3.096   0.541  16.763 -0.6201  0.7392 -2.0170
18131TIP3   OH275883   4.501   0.976   5.581  0.7355  0.5017 -0.2743
18131TIP3    H175884   4.573   0.913   5.587  0.2992 -0.1054 -1.2310
18131TIP3    H275885   4.442   0.940   5.515 -0.7815  0.6582  0.9224
18132TIP3   OH275886   1.739   2.731  15.549 -0.4199 -0.1739  0.0495
18132TIP3    H175887   1.830   2.700  15.557 -0.4865 -0.2118  0.6905
18132TIP3    H275888   1.747   2.825  15.537 -0.3046 -0.1447  0.3462
18133TIP3   OH275889   2.771   1.194   3.277 -0.0379  0.0656 -0.1421
18133TIP3    H175890   2.712   1.254   3.232 -0.7904  1.5732  2.5990
18133TIP3    H275891   2.716   1.119   3.301 -0.5045  0.7628  1.0534
18134TIP3   OH275892   5.484   2.970   4.662  0.4145  0.2154 -0.3975
18134TIP3    H175893   5.421   3.042   4.666  0.5248  0.3072 -0.2970
18134TIP3    H275894   5.430   2.891   4.663  0.2813  0.3012 -0.8403
18135TIP3   OH275895   0.463   4.473   1.595 -0.2221 -0.3242  0.3569
18135TIP3    H175896   0.393   4.506   1.538  1.0159 -0.4165 -1.2730
18135TIP3    H275897   0.539   4.465   1.538  0.1996 -3.7715  1.2183
18136TIP3   OH275898   3.624   3.152   4.855 -0.1213  0.0194  0.4536
18136TIP3    H175899   3.559   3.170   4.788  0.7420  0.2536 -0.3247
18136TIP3    H275900   3.708   3.153   4.810  0.4532 -0.1329  1.4724
18137TIP3   OH275901   5.968   0.263  11.080  0.1743 -0.5080  1.2507
18137TIP3    H175902   5.892   0.243  11.026  1.3735  2.1209 -1.7402
18137TIP3    H275903   6.043   0.243  11.024  1.5487  0.9104  2.4991
18138TIP3   OH275904   5.798   1.151   5.007 -0.7599  0.0157  0.0194
18138TIP3    H175905   5.786   1.204   5.086  0.0484  0.4102 -0.1086
18138TIP3    H275906   5.893   1.148   4.994 -0.9021  1.3595 -1.8550
18139TIP3   OH275907   3.214   2.811  13.572 -0.2078  0.8670  0.1077
18139TIP3    H175908   3.162   2.864  13.510 -1.1013 -1.0762 -0.8940
18139TIP3    H275909   3.301   2.808  13.533 -0.5896  0.2348 -0.7374
18140TIP3   OH275910   1.794   1.551  12.268 -0.2062 -0.0881  0.7255
18140TIP3    H175911   1.808   1.513  12.355 -1.8196 -0.1317  0.9955
18140TIP3    H275912   1.818   1.482  12.207 -0.7979 -0.6994  1.1741
18141TIP3   OH275913   1.919   4.514  15.607 -0.0142  0.0292  0.1319
18141TIP3    H175914   1.995   4.463  15.637  0.1326  0.2899  0.2127
18141TIP3    H275915   1.949   4.605  15.612  0.5366  0.0528 -2.1874
18142TIP3   OH275916   1.467   5.953  14.620 -0.4017  0.3673 -0.4052
18142TIP3    H175917   1.454   5.951  14.715 -1.2582 -0.1840 -0.5163
18142TIP3    H275918   1.562   5.951  14.608 -0.2721  0.9131  0.4455
18143TIP3   OH275919   0.871   0.740  12.797  0.0944  0.4843  0.3412
18143TIP3    H175920   0.951   0.786  12.824  1.0361 -0.7958 -0.1233
18143TIP3    H275921   0.821   0.805  12.748  1.9848  0.6944 -1.4239
18144TIP3   OH275922   3.109   2.495  15.686  0.0761 -0.2202 -0.2512
18144TIP3    H175923   3.106   2.557  15.613 -1.2524  1.1822  0.8977
18144TIP3    H275924   3.156   2.542  15.755  1.2877 -1.5105 -0.1572
18145TIP3   OH275925   3.266   5.789  14.659 -0.0885 -0.1263  0.5386
18145TIP3    H175926   3.295   5.710  14.703 -1.2258 -0.3472  0.9181
18145TIP3    H275927   3.245   5.761  14.570  0.1308 -0.1121  0.4812
18146TIP3   OH275928   1.888   6.222   5.305  0.3449  0.0403 -0.2054
18146TIP3    H175929   1.919   6.171   5.230  0.3022 -0.3050  0.0145
18146TIP3    H275930   1.796   6.198   5.314  0.9445 -1.8618  1.5294
18147TIP3   OH275931   1.918   5.601  15.000  0.3109  0.0215  0.0301
18147TIP3    H175932   1.992   5.547  15.029 -0.4758 -0.1355  1.8678
18147TIP3    H275933   1.900   5.570  14.911  1.5141 -0.9707  0.1007
18148TIP3   OH275934   3.535   0.621  17.497  0.1361  0.5215 -0.0429
18148TIP3    H175935   3.524   0.598  17.405  0.9051 -0.2895  0.0515
18148TIP3    H275936   3.459   0.675  17.518 -0.4996 -0.0119 -0.9179
18149TIP3   OH275937   0.511   1.938   2.966 -0.2799 -0.2095 -0.4231
18149TIP3    H175938   0.420   1.967   2.959  0.1206  0.8350 -1.4557
18149TIP3    H275939   0.504   1.847   2.995 -1.6094  0.3332  1.1390
18150TIP3   OH275940   5.361   2.215  12.133 -0.2635  0.2277 -0.4343
18150TIP3    H175941   5.438   2.223  12.078 -0.5690 -0.3280 -0.9590
18150TIP3    H275942   5.356   2.122  12.155  0.0398  0.4827  0.8160
18151TIP3   OH275943   4.682   4.292  14.409 -0.1825 -0.0709 -0.3231
18151TIP3    H175944   4.766   4.311  14.450 -0.6210 -1.7669  1.5229
18151TIP3    H275945   4.617   4.309  14.478 -1.0932 -1.4021 -0.8133
18152TIP3   OH275946   0.305   6.358  16.790  0.1142  0.8110 -0.3241
18152TIP3    H175947   0.315   6.452  16.802 -2.5576  0.9458  1.8762
18152TIP3    H275948   0.352   6.319  16.863 -1.4287  0.6565  0.6196
18153TIP3   OH275949   0.493   1.908  14.373  0.6162 -0.5014  0.1281
18153TIP3    H175950   0.439   1.964  14.317 -0.5179 -0.9915  0.7062
18153TIP3    H275951   0.466   1.819  14.351  0.2588 -0.7082  1.3431
18154TIP3   OH275952   1.449   6.139   3.639 -0.1836 -0.1542 -0.1968
18154TIP3    H175953   1.462   6.045   3.645 -0.2955 -0.1929 -0.5166
18154TIP3    H275954   1.538   6.175   3.635 -0.0950 -0.1257  1.4203
18155TIP3   OH275955   2.956   5.123  17.163  0.0598  0.1507  0.0831
18155TIP3    H175956   2.939   5.029  17.169  1.5674 -0.3096 -1.7873
18155TIP3    H275957   2.912   5.151  17.082 -0.1400  1.0008  0.4724
18156TIP3   OH275958   3.240   2.892  17.398 -0.3135  0.3366  0.5949
18156TIP3    H175959   3.311   2.926  17.344  1.7299 -1.8757  1.6967
18156TIP3    H275960   3.260   2.920  17.487 -1.9425  1.3246  0.6922
18157TIP3   OH275961   1.572   0.249  13.165 -0.5707  0.5346 -0.2041
18157TIP3    H175962   1.586   0.214  13.253  0.0030 -0.5749 -0.7219
18157TIP3    H275963   1.572   0.344  13.178  1.6032  0.4834  0.7258
18158TIP3   OH275964   0.454   6.717  14.709  0.8441 -0.0314  0.8555
18158TIP3    H175965   0.493   6.630  14.705  0.9662  0.0241  0.8166
18158TIP3    H275966   0.526   6.776  14.684  0.7105  0.0647  0.6990
18159TIP3   OH275967   0.336   5.515   6.781  0.7362  0.2216  0.2630
18159TIP3    H175968   0.349   5.609   6.773 -0.8674  0.2980 -2.4195
18159TIP3    H275969   0.242   5.502   6.771  0.7524 -1.6173  1.7875
18160TIP3   OH275970   5.828   0.944  15.324  0.1195 -0.1786  0.1581
18160TIP3    H175971   5.779   1.026  15.317  0.3998  0.0728  1.0389
18160TIP3    H275972   5.822   0.920  15.416  1.7772 -0.0527  0.3280
18161TIP3   OH275973   0.803   6.379  14.725  0.0980  0.0006  0.2624
18161TIP3    H175974   0.774   6.314  14.661  0.6143  0.3991 -0.3795
18161TIP3    H275975   0.894   6.396  14.703  0.2986  0.1116  1.1346
18162TIP3   OH275976   1.489   2.721   3.491  0.1715  0.0171 -0.5894
18162TIP3    H175977   1.446   2.806   3.498 -0.1406 -0.1286 -0.7257
18162TIP3    H275978   1.460   2.686   3.407 -1.1114 -0.9882  0.2409
18163TIP3   OH275979   2.277   2.291   6.236  0.5454  0.4709 -0.4618
18163TIP3    H175980   2.360   2.247   6.218  1.1869  2.0414 -1.5874
18163TIP3    H275981   2.302   2.377   6.270 -0.6392  0.5093  0.3585
18164TIP3   OH275982   6.298   3.028   4.087  0.6836  0.3261  0.2170
18164TIP3    H175983   6.355   2.956   4.115  0.4153  0.4846  1.1878
18164TIP3    H275984   6.210   2.991   4.090  0.5962  0.5335  0.1824
18165TIP3   OH275985   3.323   1.945  10.723 -0.6267 -0.1192 -0.4183
18165TIP3    H175986   3.302   2.038  10.722 -0.5013 -0.0906 -1.3905
18165TIP3    H275987   3.333   1.922  10.630  0.7996 -0.7589 -0.1283
18166TIP3   OH275988   1.581   5.194  16.542 -0.0906  0.2173 -0.5996
18166TIP3    H175989   1.499   5.146  16.553 -0.3552  0.6042 -0.8997
18166TIP3    H275990   1.590   5.245  16.623  0.3554 -0.5694 -0.1319
18167TIP3   OH275991   4.910   3.854   5.691  0.2621  0.0388  0.2084
18167TIP3    H175992   4.909   3.949   5.683 -1.2284 -0.0253 -0.7401
18167TIP3    H275993   4.947   3.824   5.608  1.1827 -0.2108  0.6988
18168TIP3   OH275994   6.569   3.309  12.426 -0.4062  0.5006 -0.0140
18168TIP3    H175995   6.512   3.268  12.361 -0.8291  0.7617  0.1862
18168TIP3    H275996   6.596   3.237  12.483 -0.8457  0.4293  0.1135
18169TIP3   OH275997   5.409   6.345   0.979  0.3569  0.3046 -0.0320
18169TIP3    H175998   5.450   6.419   1.024  0.0028  1.4349 -1.5031
18169TIP3    H275999   5.325   6.333   1.024 -0.0590  1.5152 -0.4558
18170TIP3   OH276000   4.032   2.162   2.044  0.2013 -0.1977  0.5518
18170TIP3    H176001   3.965   2.136   1.980  1.0533 -0.3799 -0.2960
18170TIP3    H276002   4.103   2.197   1.990  1.2606 -1.0741  1.3551
18171TIP3   OH276003   4.102   5.121   0.816 -0.3935  0.1201  0.0682
18171TIP3    H176004   4.073   5.139   0.727  0.4514  1.2550 -0.0036
18171TIP3    H276005   4.194   5.147   0.817 -0.4029  0.1974  1.2882
18172TIP3   OH276006   2.694   5.061  14.715 -0.2420 -0.1743 -0.5294
18172TIP3    H176007   2.614   5.114  14.720  0.3454  0.7391 -0.6302
18172TIP3    H276008   2.755   5.103  14.775 -0.3161 -1.7665  0.7339
18173TIP3   OH276009   6.369   5.837  16.637 -0.4770 -0.2319 -0.7573
18173TIP3    H176010   6.321   5.896  16.578  0.5208 -0.7449 -2.1427
18173TIP3    H276011   6.418   5.780  16.578 -0.2269 -1.4474  0.5804
18174TIP3   OH276012   6.082   0.498   0.697 -0.1243  0.3259  0.3791
18174TIP3    H176013   6.123   0.495   0.784  3.3118 -1.1292 -1.0664
18174TIP3    H276014   6.034   0.415   0.691  0.7067 -0.1839  0.4971
18175TIP3   OH276015   4.457   4.715  12.152 -0.3356 -0.4554 -0.5088
18175TIP3    H176016   4.417   4.638  12.193  0.7221  0.4044  2.3653
18175TIP3    H276017   4.402   4.788  12.179 -0.4585  0.0291 -1.9572
18176TIP3   OH276018   5.010   0.116   4.025  0.3200 -0.2574 -0.1824
18176TIP3    H176019   5.062   0.036   4.036 -0.4304 -1.0440 -1.8896
18176TIP3    H276020   5.074   0.181   3.995  0.6391 -0.7388 -0.5814
18177TIP3   OH276021   3.303   2.420  14.081 -0.0699  0.0444  0.4878
18177TIP3    H176022   3.361   2.349  14.109  1.3276  0.7649 -0.4508
18177TIP3    H276023   3.318   2.490  14.145  1.4136  0.8505 -0.6846
18178TIP3   OH276024   6.466   0.106   0.240 -0.1483  0.2668 -0.1665
18178TIP3    H176025   6.372   0.087   0.238  0.0568 -0.8574  0.4494
18178TIP3    H276026   6.494   0.093   0.150 -0.4619 -0.0294 -0.2258
18179TIP3   OH276027   4.000   6.191  17.327 -0.0490  0.2904 -0.3986
18179TIP3    H176028   3.937   6.204  17.398 -0.2888  0.1841 -0.5924
18179TIP3    H276029   4.054   6.117  17.356  0.4507  0.8361  0.0911
18180TIP3   OH276030   3.574   4.316   5.665  0.1150 -0.7351 -0.6231
18180TIP3    H176031   3.628   4.362   5.730  0.3983 -1.3403 -0.4133
18180TIP3    H276032   3.620   4.330   5.582  0.5395 -1.1511 -0.4634
18181TIP3   OH276033   5.145   2.723   6.395 -0.0357 -0.4188 -0.1632
18181TIP3    H176034   5.101   2.775   6.463  0.3978 -0.0066 -0.1971
18181TIP3    H276035   5.214   2.676   6.442  0.1627 -0.2554 -0.2881
18182TIP3   OH276036   4.579   0.224   5.914  0.4696  0.4351 -0.3814
18182TIP3    H176037   4.531   0.161   5.968  1.8678  0.6009  1.1359
18182TIP3    H276038   4.613   0.288   5.977 -0.4080  2.4041 -1.8124
18183TIP3   OH276039   4.545   5.770   2.949 -0.3096  0.4126  0.3594
18183TIP3    H176040   4.485   5.740   2.880 -0.1903  1.2528 -0.1199
18183TIP3    H276041   4.633   5.753   2.913 -0.1729 -2.2621  1.6706
18184TIP3   OH276042   6.373   5.749   4.407  0.2060  0.0720  0.1582
18184TIP3    H176043   6.467   5.764   4.396 -0.0579  0.9904 -1.1264
18184TIP3    H276044   6.346   5.812   4.473  0.5495 -0.4941  0.8582
18185TIP3   OH276045   5.444   3.844  14.215 -0.7577  0.3178  0.1115
18185TIP3    H176046   5.534   3.837  14.182  0.4281  0.8049  2.9435
18185TIP3    H276047   5.414   3.930  14.185 -0.6693 -0.1833 -1.5569
18186TIP3   OH276048   0.020   4.791   5.366  0.2474  0.6344  0.0055
18186TIP3    H176049  -0.036   4.713   5.360 -0.9129  1.4574 -0.1879
18186TIP3    H276050  -0.009   4.835   5.446 -0.8564  2.1321 -1.1532
18187TIP3   OH276051   1.395   5.613   3.724 -0.0320 -0.3940 -0.2761
18187TIP3    H176052   1.451   5.542   3.754 -0.4361 -0.4066  0.4489
18187TIP3    H276053   1.385   5.597   3.630  0.5798 -0.8000 -0.2813
18188TIP3   OH276054   3.852   3.908  11.286  0.2271 -0.7066 -0.4739
18188TIP3    H176055   3.838   3.965  11.210 -1.5875  0.5299  0.7038
18188TIP3    H276056   3.769   3.863  11.297 -0.0670  0.2430  1.6080
18189TIP3   OH276057   4.411   0.272  12.764 -0.1819  0.2964 -0.2607
18189TIP3    H176058   4.318   0.254  12.758 -0.2998  0.5519  0.6049
18189TIP3    H276059   4.446   0.248  12.679 -1.1221  0.7358 -0.7807
18190TIP3   OH276060   2.115   0.774   0.819 -0.1824  0.1685 -0.3740
18190TIP3    H176061   2.136   0.866   0.835  1.8161 -0.4289  0.7555
18190TIP3    H276062   2.200   0.734   0.797 -1.2013 -1.1806 -2.1194
18191TIP3   OH276063   0.901   3.454  15.152 -0.1806 -0.3646  0.9440
18191TIP3    H176064   0.878   3.388  15.086  0.6360 -0.5660  0.8523
18191TIP3    H276065   0.904   3.404  15.234  2.2788 -0.8570  0.6087
18192TIP3   OH276066   0.878   3.356  17.518  0.0424 -0.7190 -0.3488
18192TIP3    H176067   0.869   3.411  17.440 -0.8568 -0.8042 -0.3200
18192TIP3    H276068   0.877   3.417  17.591  2.1122 -0.5319 -0.4304
18193TIP3   OH276069   2.016   2.928   1.542  0.5967 -0.1314 -0.0636
18193TIP3    H176070   1.999   2.939   1.635  2.0709 -0.7262  0.3029
18193TIP3    H276071   2.106   2.959   1.530  0.7158 -0.8429 -1.1288
18194TIP3   OH276072   2.473   4.309   0.154 -0.1438 -0.2979  0.5865
18194TIP3    H176073   2.416   4.265   0.217 -0.6023  0.0829  0.4480
18194TIP3    H276074   2.491   4.394   0.194 -0.1413 -0.1969  0.3720
18195TIP3   OH276075   3.910   2.921   0.987 -0.0435  0.4072  0.5521
18195TIP3    H176076   3.939   3.011   0.994 -0.6485  0.6275  0.3293
18195TIP3    H276077   3.983   2.869   1.020  1.7014  0.7706 -2.3334
18196TIP3   OH276078   6.501   0.575   3.569  0.5254 -0.0071 -0.6387
18196TIP3    H176079   6.591   0.549   3.551  1.1861  0.6502  1.3348
18196TIP3    H276080   6.450   0.494   3.562  0.9602 -0.1465 -3.1776
18197TIP3   OH276081   3.428   4.363   3.908  0.3036  0.2322  0.3467
18197TIP3    H176082   3.398   4.374   3.818 -0.6336  0.5134  0.6881
18197TIP3    H276083   3.485   4.438   3.923  1.5444 -0.5124 -0.4313
18198TIP3   OH276084   4.176   3.166  14.969 -0.1822 -0.2036  0.0461
18198TIP3    H176085   4.157   3.190  14.878  2.1010  1.4383 -0.1046
18198TIP3    H276086   4.229   3.087  14.962 -0.8441 -0.6515  0.0272
18199TIP3   OH276087   4.489   0.310   4.752 -0.6285 -0.0741  0.3605
18199TIP3    H176088   4.511   0.219   4.733  1.7501  0.1247  1.7636
18199TIP3    H276089   4.411   0.327   4.699 -0.3446 -2.4963 -0.9968
18200TIP3   OH276090   5.896   5.011  12.716 -0.0114  0.0552  0.7737
18200TIP3    H176091   5.944   5.084  12.677 -1.8674  0.7859 -0.2388
18200TIP3    H276092   5.932   5.004  12.805  3.0751 -0.5029 -0.3837
18201TIP3   OH276093   6.379   0.855  14.139 -1.1088  0.1921  0.3535
18201TIP3    H176094   6.397   0.788  14.205 -1.4902 -0.3750 -0.1072
18201TIP3    H276095   6.340   0.927  14.188 -2.2569 -0.5910  0.6340
18202TIP3   OH276096   2.116   4.220   4.584 -0.2115 -0.3509 -0.1921
18202TIP3    H176097   2.036   4.168   4.583  0.4952 -1.4691 -0.8590
18202TIP3    H276098   2.185   4.157   4.601  0.6148  0.4702 -0.4353
18203TIP3   OH276099   1.888   2.405  16.345  1.0374  0.2075  0.3847
18203TIP3    H176100   1.883   2.492  16.304  1.2378 -0.4890 -1.1979
18203TIP3    H276101   1.873   2.344  16.273  0.5278 -1.0739  1.5440
18204TIP3   OH276102   5.243   6.461  11.481 -0.1409 -0.0939  0.0227
18204TIP3    H176103   5.336   6.442  11.467  0.0241 -0.9379  1.9107
18204TIP3    H276104   5.240   6.555  11.496  0.2629  0.0909 -1.0158
18205TIP3   OH276105   3.627   2.686   3.602 -0.2869  0.3865 -0.1203
18205TIP3    H176106   3.630   2.764   3.656 -2.7193 -0.6566  1.6691
18205TIP3    H276107   3.550   2.698   3.546  0.1125 -0.1484 -0.8075
18206TIP3   OH276108   1.489   6.273   3.999  0.1764 -0.1757 -0.1893
18206TIP3    H176109   1.472   6.364   4.023 -2.8745 -1.1292  1.8459
18206TIP3    H276110   1.406   6.242   3.961  1.4751 -1.8565 -1.8362
18207TIP3   OH276111   2.843   2.743  16.151  0.0401  0.4531 -0.0685
18207TIP3    H176112   2.849   2.787  16.236  0.3104 -0.9031  0.6319
18207TIP3    H276113   2.750   2.724  16.141  0.1560 -0.4405  0.4854
18208TIP3   OH276114   4.263   0.460   2.917 -0.8163 -0.4307  0.0966
18208TIP3    H176115   4.187   0.401   2.915 -1.3138  0.0558  2.4675
18208TIP3    H276116   4.226   0.547   2.900 -0.7034 -0.2639  0.7047
18209TIP3   OH276117   1.298   3.761  17.353  0.2353  0.8084  0.4097
18209TIP3    H176118   1.333   3.850  17.350  0.6461  0.6640  0.7061
18209TIP3    H276119   1.336   3.718  17.276  0.3977  0.7699  0.5075
18210TIP3   OH276120   5.995   3.638   2.100 -0.5998 -0.2529  0.4021
18210TIP3    H176121   5.923   3.650   2.162 -0.7392 -0.3474  0.2615
18210TIP3    H276122   5.952   3.644   2.014 -0.2450  1.0049  0.2874
18211TIP3   OH276123   6.671   1.182  11.634 -0.2723  0.1553 -0.2686
18211TIP3    H176124   6.692   1.230  11.554 -2.3254  0.8719 -0.4464
18211TIP3    H276125   6.634   1.248  11.693  1.7331 -0.2333  1.5467
18212TIP3   OH276126   5.243   0.492   2.215 -0.5957 -0.1901  0.3583
18212TIP3    H176127   5.334   0.502   2.246 -0.2815 -0.0236 -0.5853
18212TIP3    H276128   5.192   0.549   2.273  0.1016  0.8005  0.0256
18213TIP3   OH276129   0.111   3.225  14.923 -0.7145 -0.3478  0.4591
18213TIP3    H176130   0.051   3.222  14.997  0.6646 -1.3656  1.5830
18213TIP3    H276131   0.194   3.196  14.958  1.1054  3.1205 -0.4886
18214TIP3   OH276132   3.839   3.115   3.443 -0.0146 -0.4079 -1.2077
18214TIP3    H176133   3.749   3.143   3.424 -0.6501 -0.6399  1.1417
18214TIP3    H276134   3.894   3.180   3.398 -1.3763  0.6404 -1.4437
18215TIP3   OH276135   1.617   5.544   2.207 -0.0451 -0.7097 -0.5991
18215TIP3    H176136   1.690   5.522   2.264  0.4716  2.2386  0.0155
18215TIP3    H276137   1.656   5.550   2.119  0.2079 -0.2820 -0.4582
18216TIP3   OH276138   2.032   4.576   3.914  0.1277  0.0778 -0.3121
18216TIP3    H176139   1.993   4.532   3.989  1.2235 -1.1884 -0.4413
18216TIP3    H276140   1.968   4.565   3.843  0.8337 -2.3741 -0.6496
18217TIP3   OH276141   1.385   1.747   5.724 -0.5539  0.9295 -0.0896
18217TIP3    H176142   1.404   1.837   5.750 -1.5641  0.8283  1.0740
18217TIP3    H276143   1.303   1.725   5.768  0.9371 -1.4082  1.7854
18218TIP3   OH276144   4.143   0.210   4.936 -0.6407  0.2242  0.1240
18218TIP3    H176145   4.120   0.301   4.918  0.8235  0.8803  1.4174
18218TIP3    H276146   4.075   0.180   4.997 -0.6103  0.7531  0.4266
18219TIP3   OH276147   0.490   0.806   3.069 -0.0869  0.3298 -1.0121
18219TIP3    H176148   0.464   0.811   2.977 -1.1357 -1.7639 -0.8939
18219TIP3    H276149   0.453   0.885   3.108  1.1502  1.7099 -2.5259
18220TIP3   OH276150   5.407   1.585  17.163 -0.1822 -0.0632 -0.6635
18220TIP3    H176151   5.377   1.536  17.239  1.0021  0.5661  0.2340
18220TIP3    H276152   5.501   1.569  17.159 -0.3602 -0.8797 -2.6009
18221TIP3   OH276153   3.001   2.991  14.529 -0.3335 -0.2052 -0.3298
18221TIP3    H176154   2.954   3.054  14.474 -0.3617 -0.9556 -1.2000
18221TIP3    H276155   3.076   3.039  14.563 -0.0178  0.1471 -1.4625
18222TIP3   OH276156   5.863   0.876  16.022  0.0835 -0.1710 -0.1353
18222TIP3    H176157   5.842   0.954  15.970  1.4815  1.7712  2.0475
18222TIP3    H276158   5.919   0.824  15.965 -2.5139 -0.7195 -2.4130
18223TIP3   OH276159   3.134   1.393   1.801 -0.1204  0.2170  0.2716
18223TIP3    H176160   3.094   1.459   1.857  0.4893  0.7488  0.0790
18223TIP3    H276161   3.225   1.420   1.791 -0.4751  0.7793 -1.9207
18224TIP3   OH276162   0.670   2.791   2.298 -0.1482 -0.3791  0.5914
18224TIP3    H176163   0.729   2.866   2.294 -0.8129  0.0936 -0.6520
18224TIP3    H276164   0.706   2.729   2.235 -2.3125  0.9511 -2.1527
18225TIP3   OH276165   0.867   3.846   6.714  0.9676 -0.1955  0.9988
18225TIP3    H176166   0.773   3.831   6.718  0.9814 -0.0560  2.4694
18225TIP3    H276167   0.905   3.770   6.759  1.4916  0.2722  1.3536
18226TIP3   OH276168   6.235   5.833  14.174  0.2667  0.0291  0.8182
18226TIP3    H176169   6.197   5.826  14.086 -0.6620  0.0144  1.2095
18226TIP3    H276170   6.214   5.750  14.216  0.9502 -0.0745  0.9672
18227TIP3   OH276171   3.485   1.698   3.568  0.4224  0.3488 -0.6389
18227TIP3    H176172   3.549   1.759   3.531  1.9017 -0.0714  1.0559
18227TIP3    H276173   3.522   1.611   3.554  0.0146  0.0653 -0.0365
18228TIP3   OH276174   1.903   5.669  12.861 -0.0912  0.1791 -0.4016
18228TIP3    H176175   1.955   5.711  12.792  0.6787  1.8039  1.0802
18228TIP3    H276176   1.932   5.578  12.860  0.4247  0.3219 -1.7275
18229TIP3   OH276177   3.699   1.745   6.247 -0.5389  0.4434 -0.3432
18229TIP3    H176178   3.608   1.738   6.277 -0.2973  1.8052  0.8040
18229TIP3    H276179   3.738   1.812   6.303  0.9210  0.5879 -1.4654
18230TIP3   OH276180   1.145   6.349  15.431  0.3191  0.0179 -0.2225
18230TIP3    H176181   1.076   6.358  15.365  0.0971  1.5573  0.1811
18230TIP3    H276182   1.100   6.364  15.514  1.0457  0.5567  0.0805
18231TIP3   OH276183   3.769   6.222  10.406  0.1567  0.0289 -0.1936
18231TIP3    H176184   3.714   6.192  10.478 -1.0135 -1.2592 -1.5643
18231TIP3    H276185   3.858   6.197  10.432  0.0592  1.3771  1.6564
18232TIP3   OH276186   5.105   1.584   6.231  0.0818 -0.2818 -0.3378
18232TIP3    H176187   5.099   1.562   6.138 -0.8336  2.1854 -0.9300
18232TIP3    H276188   5.014   1.594   6.259  0.3800  1.7706  0.0586
18233TIP3   OH276189   3.711   2.868   2.160  0.0584  0.1684  0.2674
18233TIP3    H176190   3.671   2.814   2.227 -1.8192  0.7530 -0.3334
18233TIP3    H276191   3.716   2.955   2.200 -1.2328  0.5591 -0.3709
18234TIP3   OH276192   2.674   2.675   5.105  0.5192 -0.0380 -0.1270
18234TIP3    H176193   2.675   2.678   5.200  1.7370  0.4552 -0.1322
18234TIP3    H276194   2.722   2.596   5.082  0.2038 -0.1720 -0.3315
18235TIP3   OH276195   6.530   4.892  10.882  0.2807  0.1896 -0.2728
18235TIP3    H176196   6.472   4.912  10.808 -0.6767  0.5705  0.5521
18235TIP3    H276197   6.498   4.807  10.914  0.2169  0.3681  0.1412
18236TIP3   OH276198   3.541   3.659   2.590 -0.1454  0.0028  0.1402
18236TIP3    H176199   3.536   3.690   2.681  0.8357  0.4769  0.0453
18236TIP3    H276200   3.617   3.704   2.553 -0.3949 -0.3621 -0.8538
18237TIP3   OH276201   6.760   4.770  17.020  0.6932 -0.0607  0.0451
18237TIP3    H176202   6.774   4.804  17.109 -0.3102 -0.1951  0.2613
18237TIP3    H276203   6.725   4.682  17.033 -0.9145  0.4684 -0.4381
18238TIP3   OH276204   6.748   3.561   0.263  0.3686 -0.0218  0.6014
18238TIP3    H176205   6.745   3.538   0.170  1.8703  1.3898  0.1702
18238TIP3    H276206   6.840   3.579   0.281  0.2007 -0.8108  2.5241
18239TIP3   OH276207   5.686   0.566   5.449 -0.8638  0.6280  0.0866
18239TIP3    H176208   5.708   0.505   5.379 -0.0762 -0.0529  0.8884
18239TIP3    H276209   5.614   0.618   5.414  2.4074  3.5673 -3.0845
18240TIP3   OH276210   1.356   5.123  13.143  0.2371  0.3447  0.1824
18240TIP3    H176211   1.314   5.131  13.057 -0.2478 -0.9617  0.2666
18240TIP3    H276212   1.449   5.127  13.125  0.1178  2.4021 -0.1172
18241TIP3   OH276213   4.942   3.217  13.007  0.1793  0.1679  0.2428
18241TIP3    H176214   4.933   3.130  12.968 -1.1183 -0.4853  1.8787
18241TIP3    H276215   4.893   3.274  12.948  0.7304 -0.2340 -0.6455
18242TIP3   OH276216   6.488   1.927   6.419 -0.3431  0.1638  0.3859
18242TIP3    H176217   6.542   1.849   6.407 -0.5594  0.1003 -0.1621
18242TIP3    H276218   6.524   1.991   6.357  0.0604  0.6252  1.0760
18243TIP3   OH276219   1.159   0.253  12.726  0.9272  0.0040  0.2575
18243TIP3    H176220   1.124   0.203  12.799  4.2887  0.8459  2.7020
18243TIP3    H276221   1.228   0.198  12.690 -0.8799 -0.5492 -2.7225
18244TIP3   OH276222   0.020   6.217   2.209 -0.3741  0.4973  0.5284
18244TIP3    H176223   0.077   6.183   2.278 -0.3419  1.8511  1.1943
18244TIP3    H276224   0.019   6.148   2.143  0.9618 -0.1146  1.1115
18245TIP3   OH276225   3.272   3.829  15.932  0.5402 -0.6891  0.2577
18245TIP3    H176226   3.322   3.840  16.013 -1.4597  0.1090  1.4446
18245TIP3    H276227   3.235   3.916  15.915  0.7010 -0.9092 -1.3801
18246TIP3   OH276228   4.955   2.142  14.596 -0.1421 -0.4235  0.0027
18246TIP3    H176229   4.965   2.221  14.649  0.2579  0.3625 -1.2111
18246TIP3    H276230   4.941   2.174  14.507 -0.9565 -1.7134 -0.3657
18247TIP3   OH276231   4.559   1.993   2.883 -0.1115 -0.1033  0.0358
18247TIP3    H176232   4.606   2.076   2.882 -3.1957  1.9210  2.4326
18247TIP3    H276233   4.497   1.999   2.810  1.0340 -1.2872 -1.0727
18248TIP3   OH276234   0.831   4.008   1.830 -0.0937  0.1504  0.0380
18248TIP3    H176235   0.753   3.969   1.790 -1.4446  2.5342  0.2213
18248TIP3    H276236   0.887   4.030   1.756 -0.2677 -0.1682 -0.1934
18249TIP3   OH276237   5.008   5.706  16.089 -0.0039  0.0011  0.1141
18249TIP3    H176238   5.001   5.793  16.128  0.5780  0.0084  0.2094
18249TIP3    H276239   4.951   5.710  16.012  0.1944  0.5423 -0.0097
18250TIP3   OH276240   3.768   4.042   5.628  0.4679 -0.4747 -0.5699
18250TIP3    H176241   3.681   4.077   5.648  0.2904 -0.1748 -1.8040
18250TIP3    H276242   3.766   4.025   5.534  1.4325 -1.3722 -0.4476
18251TIP3   OH276243   5.731   5.084   4.525  0.2250  0.0042  0.4447
18251TIP3    H176244   5.775   5.133   4.455  0.2304 -0.3505  0.1987
18251TIP3    H276245   5.803   5.048   4.578  0.2957 -1.6728 -0.7028
18252TIP3   OH276246   1.715   5.982   0.928  0.7068  0.1852 -0.4005
18252TIP3    H176247   1.708   6.000   1.022  0.0183  2.0293 -0.7683
18252TIP3    H276248   1.657   6.046   0.887 -0.4266 -1.7604 -2.0047
18253TIP3   OH276249   1.085   0.165  12.271 -0.7035  0.1884 -0.0315
18253TIP3    H176250   1.097   0.246  12.222  0.0642  0.4837  0.6304
18253TIP3    H276251   0.990   0.156  12.277 -0.8114  0.2383 -1.3963
18254TIP3   OH276252   4.006   5.207   4.385  0.5965 -0.3090 -0.8783
18254TIP3    H176253   3.993   5.293   4.425  1.0347  0.6212 -2.6110
18254TIP3    H276254   4.045   5.154   4.454 -0.1024  0.7367  0.3652
18255TIP3   OH276255   3.516   0.067  15.789  0.2787 -0.0330 -0.2178
18255TIP3    H176256   3.564   0.030  15.864 -0.9313 -0.2272  0.4760
18255TIP3    H276257   3.558   0.027  15.713  2.2063  0.9239  0.2671
18256TIP3   OH276258   4.331   6.675  12.640  0.3384 -0.1189  0.5150
18256TIP3    H176259   4.421   6.704  12.655  0.2930  1.3680 -1.6926
18256TIP3    H276260   4.276   6.746  12.674 -0.0880 -1.2648  2.3789
18257TIP3   OH276261   2.212   3.705   0.911  0.7529 -0.5307  0.2323
18257TIP3    H176262   2.300   3.738   0.894  0.3237  1.3180  1.3555
18257TIP3    H276263   2.190   3.739   0.997 -1.2101 -0.6750 -0.1794
18258TIP3   OH276264   1.842   3.189   3.448  0.5989 -0.1229 -0.2242
18258TIP3    H176265   1.828   3.097   3.424 -1.9464  0.1047  0.0805
18258TIP3    H276266   1.828   3.238   3.367 -0.1052  0.1069  0.0261
18259TIP3   OH276267   4.924   1.779   2.930 -0.7078  0.3664 -0.4846
18259TIP3    H176268   4.947   1.869   2.957 -2.6838  0.2154  2.0734
18259TIP3    H276269   4.835   1.786   2.897  0.1213 -0.2669 -3.1060
18260TIP3   OH276270   3.148   3.178   0.616  0.0564  0.4624 -0.1512
18260TIP3    H176271   3.100   3.207   0.539  0.8364 -0.7640 -1.1306
18260TIP3    H276272   3.081   3.144   0.675 -0.4179  0.0719 -0.9017
18261TIP3   OH276273   4.505   5.591   0.789  0.5099  0.5653  0.3690
18261TIP3    H176274   4.470   5.502   0.801  0.6819  0.0219 -2.4357
18261TIP3    H276275   4.597   5.583   0.813  0.4365  0.0699  0.5089
18262TIP3   OH276276   4.701   5.465   1.488 -0.4616  0.4883 -0.0362
18262TIP3    H176277   4.769   5.510   1.438 -1.4478  2.0375 -0.0465
18262TIP3    H276278   4.742   5.384   1.517  0.5643  0.1600 -2.2200
18263TIP3   OH276279   1.340   0.513   5.416 -0.4336  0.4155  0.2169
18263TIP3    H176280   1.387   0.436   5.449  0.3807  0.4606 -0.7792
18263TIP3    H276281   1.257   0.477   5.384 -1.3055  0.3878  2.3253
18264TIP3   OH276282   1.532   4.721  15.988 -0.2507  0.6037  0.1166
18264TIP3    H176283   1.539   4.634  16.026 -0.0326 -0.5565 -2.3946
18264TIP3    H276284   1.444   4.724  15.951 -1.1715  2.4129  2.1694
18265TIP3   OH276285   3.096   3.011   2.632  0.4198 -0.4258  0.6693
18265TIP3    H176286   3.159   2.947   2.666 -1.9219 -3.0091  0.5127
18265TIP3    H276287   3.037   3.028   2.706 -0.4243 -0.3701  0.0031
18266TIP3   OH276288   6.275   2.342   0.285  0.0620  0.0201  0.4234
18266TIP3    H176289   6.369   2.362   0.277 -0.0119  0.9279  1.5804
18266TIP3    H276290   6.238   2.374   0.202  1.0267 -2.2639 -0.9808
18267TIP3   OH276291   3.082   2.142   2.187 -0.6464  0.2643  0.2276
18267TIP3    H176292   3.095   2.093   2.268 -1.3154  1.0994  0.8708
18267TIP3    H276293   3.044   2.225   2.216 -0.7432  0.6412 -0.9344
18268TIP3   OH276294   5.319   3.501   6.134 -0.1165 -0.0560 -0.1778
18268TIP3    H176295   5.299   3.585   6.173 -0.3496 -0.1061 -0.1913
18268TIP3    H276296   5.336   3.520   6.042  2.6142  0.4056  0.3275
18269TIP3   OH276297   3.584   3.444  14.393  0.0953 -0.0004  0.1189
18269TIP3    H176298   3.495   3.439  14.357  1.0070 -0.3615 -2.3132
18269TIP3    H276299   3.612   3.534  14.375  0.1379  0.2147  1.1794
18270TIP3   OH276300   3.694   6.291  14.242 -0.4516  0.4620  0.2496
18270TIP3    H176301   3.616   6.346  14.236 -1.9651 -1.4967  0.7780
18270TIP3    H276302   3.671   6.213  14.190 -0.0742 -1.4569  2.7756
18271TIP3   OH276303   6.631   5.762   0.863 -0.5267  0.0618  0.7496
18271TIP3    H176304   6.582   5.822   0.807 -0.9644 -0.0639  0.9927
18271TIP3    H276305   6.720   5.797   0.864 -0.4269 -0.1245 -0.2966
18272TIP3   OH276306   3.856   0.122   4.571  0.0574 -0.6419 -0.1042
18272TIP3    H176307   3.800   0.125   4.494 -1.2300  1.3241  0.8148
18272TIP3    H276308   3.922   0.056   4.551  0.0037  0.0719 -3.0258
18273TIP3   OH276309   4.700   3.229  13.824 -0.7590  0.7682 -0.3638
18273TIP3    H176310   4.763   3.231  13.752  0.6126  1.2250  0.8011
18273TIP3    H276311   4.640   3.158  13.801 -0.2716  0.7996 -1.8659
18274TIP3   OH276312   0.875   2.393   5.959  0.0189  0.2611 -0.2381
18274TIP3    H176313   0.829   2.361   6.037 -0.6842  1.6555 -0.0582
18274TIP3    H276314   0.963   2.414   5.990 -0.0663  0.2099  0.0382
18275TIP3   OH276315   4.103   2.610  12.349 -0.5786 -0.3444  0.7031
18275TIP3    H176316   4.055   2.681  12.306  0.1884  0.0669  0.5088
18275TIP3    H276317   4.179   2.653  12.389  0.0265 -1.0830  0.3749
18276TIP3   OH276318   1.470   0.110  12.249 -0.3195 -0.1183 -0.6830
18276TIP3    H176319   1.418   0.185  12.277 -1.2493 -0.4131 -1.5370
18276TIP3    H276320   1.411   0.035  12.260  0.2080 -0.5676 -0.8769
18277TIP3   OH276321   2.077   6.564   0.981 -0.4315  0.3452  0.0651
18277TIP3    H176322   2.006   6.610   0.935  0.7283  1.9678 -0.1942
18277TIP3    H276323   2.146   6.555   0.915  0.6572  1.2961  1.0306
18278TIP3   OH276324   2.707   5.068   1.614  0.1395 -0.3081 -0.1726
18278TIP3    H176325   2.798   5.078   1.585 -0.0105  0.1005 -0.5090
18278TIP3    H276326   2.712   5.008   1.688  0.9232  1.1765  1.0474
18279TIP3   OH276327   0.025   2.994  12.997 -0.3703  0.2856 -0.0862
18279TIP3    H176328   0.036   2.950  13.081 -2.5435 -0.2063 -0.0114
18279TIP3    H276329   0.002   3.084  13.020 -2.1997 -0.1546 -0.0935
18280TIP3   OH276330   1.083   6.558  16.333 -0.0553 -0.2023 -0.3687
18280TIP3    H176331   1.132   6.478  16.353  2.4663  1.6558  1.5849
18280TIP3    H276332   1.017   6.564  16.402  1.5966  0.7191  1.2229
18281TIP3   OH276333   4.802   1.443   0.074 -0.3603  0.6619  0.6294
18281TIP3    H176334   4.787   1.501  -0.000 -0.1292  0.0361  0.0923
18281TIP3    H276335   4.726   1.456   0.131 -1.5972 -0.4179 -0.7167
18282TIP3   OH276336   5.295   4.058  15.067  0.0167  0.1849 -0.5851
18282TIP3    H176337   5.222   4.113  15.094  0.3176  0.6612 -0.7385
18282TIP3    H276338   5.354   4.116  15.019  0.8969  0.0112  0.2293
18283TIP3   OH276339   4.712   5.440  14.419  0.1512 -0.2289 -0.1814
18283TIP3    H176340   4.647   5.509  14.433  1.1627  1.2694 -2.1867
18283TIP3    H276341   4.722   5.436  14.324  0.9780 -2.3746 -0.0529
18284TIP3   OH276342   3.775   5.137   4.961 -0.4265 -0.1116  0.4560
18284TIP3    H176343   3.682   5.120   4.978 -0.2778  0.7497  2.3689
18284TIP3    H276344   3.821   5.083   5.026  0.3704  0.2895  0.2315
18285TIP3   OH276345   5.969   1.845  15.461  0.3179 -0.6390  0.8419
18285TIP3    H176346   6.044   1.867  15.517  1.2536 -0.1874 -0.5621
18285TIP3    H276347   5.948   1.926  15.415 -0.0536 -1.1481  0.0985
18286TIP3   OH276348   1.861   4.983   6.366 -0.3515  0.3112  0.0007
18286TIP3    H176349   1.897   4.916   6.425 -1.4806  0.2063  0.6019
18286TIP3    H276350   1.898   5.065   6.398  0.1453  0.0945 -0.0180
18287TIP3   OH276351   3.996   3.887  17.511 -0.1632  0.6606 -0.6741
18287TIP3    H176352   4.088   3.885  17.483 -0.0500  3.0623 -0.6631
18287TIP3    H276353   3.996   3.847  17.598  0.5513 -0.9065 -1.3476
18288TIP3   OH276354   3.210   3.103   4.773  0.3527 -0.0114 -0.1966
18288TIP3    H176355   3.272   3.053   4.719  0.7125 -0.5219  0.6601
18288TIP3    H276356   3.255   3.113   4.857 -0.9671 -0.9469  0.6653
18289TIP3   OH276357   0.930   3.904  14.860  0.5245  0.4090 -0.4458
18289TIP3    H176358   0.942   3.920  14.954  1.1326 -1.3975 -0.1784
18289TIP3    H276359   1.017   3.881  14.828 -0.1222 -1.5667 -0.8933
18290TIP3   OH276360   2.889   0.098   2.466  0.0341 -0.2061 -0.3192
18290TIP3    H176361   2.860   0.140   2.547  0.4943  1.1439 -0.8368
18290TIP3    H276362   2.870   0.005   2.480  0.9760 -0.1496  1.7361
18291TIP3   OH276363   6.542   0.379  14.003  0.2782 -0.1812  0.5323
18291TIP3    H176364   6.491   0.399  14.082 -1.1285  0.9884 -0.6245
18291TIP3    H276365   6.632   0.402  14.027  0.0156 -0.6208  2.0573
18292TIP3   OH276366   1.736   6.126  14.880 -0.7006  0.7879  0.5443
18292TIP3    H176367   1.671   6.133  14.950 -1.0027  1.2245  0.2294
18292TIP3    H276368   1.821   6.129  14.925 -0.8950  0.3879  0.9435
18293TIP3   OH276369   5.972   2.484   2.315 -0.2795  0.5749 -0.1979
18293TIP3    H176370   5.990   2.492   2.222 -1.3310  2.1463 -0.3013
18293TIP3    H276371   6.058   2.475   2.356  0.1664 -0.6559 -1.3325
18294TIP3   OH276372   3.905   5.954  13.271 -0.2731 -0.4290  0.2510
18294TIP3    H176373   3.837   5.888  13.262  0.4353 -0.8972 -2.7578
18294TIP3    H276374   3.945   5.937  13.356 -2.2995 -1.6627  1.0135
18295TIP3   OH276375   0.349   4.473   1.863  0.2702  0.3065 -0.4121
18295TIP3    H176376   0.327   4.382   1.884  0.7874  0.4766  0.9223
18295TIP3    H276377   0.388   4.468   1.776 -0.8605 -0.5755 -0.8949
18296TIP3   OH276378   1.510   4.812  13.337  0.3070 -0.0519  0.4667
18296TIP3    H176379   1.431   4.844  13.294 -0.5465 -0.9218  1.3222
18296TIP3    H276380   1.573   4.884  13.330 -0.0542  0.1356 -1.4881
18297TIP3   OH276381   1.771   4.153  11.508  0.3397 -0.3797  0.0517
18297TIP3    H176382   1.822   4.201  11.574 -0.6695  0.2321  0.4130
18297TIP3    H276383   1.834   4.133  11.439  0.6978  2.1369 -0.4553
18298TIP3   OH276384   3.553   2.785  11.744  0.3084  0.2586 -0.3800
18298TIP3    H176385   3.572   2.832  11.825  0.1851  0.1803 -0.3058
18298TIP3    H276386   3.612   2.709  11.746  0.1212  0.1155 -0.2376
18299TIP3   OH276387   4.057   0.573   5.298  0.2614 -0.6054  0.1589
18299TIP3    H176388   3.980   0.560   5.244 -1.0255 -2.3524  2.2389
18299TIP3    H276389   4.064   0.492   5.350  3.2281 -0.3151  0.3847
18300TIP3   OH276390   1.221   5.693  15.620  0.3477 -0.1786  0.0909
18300TIP3    H176391   1.173   5.626  15.571  0.4419 -0.3403  0.2177
18300TIP3    H276392   1.275   5.643  15.682 -1.2020  0.0695  1.7213
18301TIP3   OH276393   2.138   5.854   3.562 -0.0320  0.0289  0.3880
18301TIP3    H176394   2.061   5.904   3.589  0.7369  1.3987  0.1618
18301TIP3    H276395   2.178   5.908   3.493 -0.4642 -2.0577 -1.6086
18302TIP3   OH276396   5.034   5.601   1.864  0.0991  0.2239 -0.3976
18302TIP3    H176397   4.960   5.542   1.876 -0.4534  0.5995 -1.7809
18302TIP3    H276398   5.107   5.544   1.843  0.4749 -0.2287  1.8737
18303TIP3   OH276399   5.211   5.188  14.358 -0.0198  0.0405  0.6882
18303TIP3    H176400   5.267   5.111  14.347 -0.6460 -0.3964  0.4901
18303TIP3    H276401   5.144   5.179  14.290  1.2124  1.9862 -0.9132
18304TIP3   OH276402   2.872   4.112   3.533  0.1056 -0.8619 -0.3347
18304TIP3    H176403   2.821   4.113   3.452  1.1569  3.1978 -1.1632
18304TIP3    H276404   2.963   4.109   3.504  0.5426  1.6684  0.4968
18305TIP3   OH276405   0.252   2.897   3.545  0.1370 -0.6077  0.3323
18305TIP3    H176406   0.313   2.825   3.561 -0.1187 -0.7458  0.6805
18305TIP3    H276407   0.268   2.959   3.616 -0.9257 -1.1761  1.0931
18306TIP3   OH276408   6.724   5.987  14.058 -0.6389 -0.5854 -0.1680
18306TIP3    H176409   6.633   6.014  14.073 -0.8568 -1.5402  0.2713
18306TIP3    H276410   6.728   5.897  14.089  0.2326 -0.8665 -1.0375
18307TIP3   OH276411   2.929   2.097  16.181 -0.0307 -0.1806 -0.0094
18307TIP3    H176412   2.894   2.042  16.251  0.5787 -0.3612  0.1587
18307TIP3    H276413   3.020   2.068  16.171 -0.2344 -0.4797 -1.1899
18308TIP3   OH276414   6.161   4.025  10.809 -0.1627  0.1451 -0.4104
18308TIP3    H176415   6.105   4.040  10.885 -1.0221 -0.4893 -0.8951
18308TIP3    H276416   6.116   3.956  10.760  0.3034  0.6344 -1.5643
18309TIP3   OH276417   6.402   0.232   2.792 -0.3738 -0.0892  0.5126
18309TIP3    H176418   6.407   0.269   2.704 -0.1664 -2.3332 -0.4850
18309TIP3    H276419   6.396   0.308   2.850 -2.3021  1.4447 -1.5211
18310TIP3   OH276420   1.234   0.067   5.975 -0.8570 -0.0396 -0.1037
18310TIP3    H176421   1.148   0.096   5.945 -0.8700  0.9964  0.8340
18310TIP3    H276422   1.218   0.031   6.062 -0.7238 -2.3675 -0.9716
18311TIP3   OH276423   5.419   1.705  11.629 -0.5209 -0.0271  0.2576
18311TIP3    H176424   5.434   1.627  11.683 -0.0057 -0.2275 -0.1692
18311TIP3    H276425   5.493   1.762  11.649  1.0948 -1.1616 -2.1147
18312TIP3   OH276426   0.792   1.423  14.741  0.3602 -0.0378 -0.2485
18312TIP3    H176427   0.719   1.460  14.791 -1.6587 -2.2905 -1.3482
18312TIP3    H276428   0.863   1.487  14.752 -1.3744  1.7061  1.7943
18313TIP3   OH276429   1.471   1.187  11.999  1.0423  0.5659  0.2611
18313TIP3    H176430   1.566   1.190  12.014  0.7887 -0.8026  2.5170
18313TIP3    H276431   1.435   1.148  12.078 -1.2575 -0.8185 -1.3395
18314TIP3   OH276432   1.509   1.487   0.010 -0.0634  0.0224  0.0730
18314TIP3    H176433   1.580   1.548   0.032  0.2931 -0.0031 -0.9421
18314TIP3    H276434   1.508   1.425   0.083  0.9151  0.0656  0.1443
18315TIP3   OH276435   6.571   5.414  14.079 -0.0756 -0.1479 -0.0677
18315TIP3    H176436   6.507   5.411  14.150  0.4640 -1.6707  0.4051
18315TIP3    H276437   6.636   5.479  14.107 -0.1833 -0.3086  0.5643
18316TIP3   OH276438   4.975   5.240  15.236 -0.3201 -0.2387 -0.3475
18316TIP3    H176439   4.967   5.167  15.297  1.7827  2.0268  2.9976
18316TIP3    H276440   5.062   5.229  15.197  0.1233  0.5824  0.3867
18317TIP3   OH276441   0.683   4.652   3.157  1.0386 -0.3334  0.0382
18317TIP3    H176442   0.657   4.708   3.083  0.0204  0.7465  1.1674
18317TIP3    H276443   0.777   4.640   3.145  1.0934  0.7456 -0.8396
18318TIP3   OH276444   2.618   1.944  16.355 -0.1965 -0.2941  0.3383
18318TIP3    H176445   2.598   1.850  16.361  1.6634 -0.8779 -1.2360
18318TIP3    H276446   2.709   1.951  16.386 -0.8525  1.3046  2.0607
18319TIP3   OH276447   6.001   5.856   3.128  0.0114  0.3886  0.0927
18319TIP3    H176448   5.907   5.850   3.109  0.3788 -1.7729 -1.3920
18319TIP3    H276449   6.016   5.794   3.199  0.1888  1.5529  1.1168
18320TIP3   OH276450   3.807   2.365   3.054 -0.2827  0.2781 -0.3135
18320TIP3    H176451   3.879   2.313   3.090  0.4363  0.5748 -1.2943
18320TIP3    H276452   3.829   2.456   3.075  0.3611  0.4971 -1.8147
18321TIP3   OH276453   1.920   0.658   3.573  0.5339  0.2442 -0.1085
18321TIP3    H176454   1.914   0.568   3.539  3.0334  0.2253 -0.7745
18321TIP3    H276455   1.914   0.713   3.495  0.7631  0.5328  0.0746
18322TIP3   OH276456   1.462   5.721  16.602  0.1200 -0.4709  0.1939
18322TIP3    H176457   1.403   5.791  16.633 -0.6005 -1.3790  0.9376
18322TIP3    H276458   1.482   5.745  16.512  0.4320  1.0541  0.6400
18323TIP3   OH276459   4.313   6.535   3.777 -0.2930 -0.2813  0.0770
18323TIP3    H176460   4.405   6.518   3.798 -0.4938  0.4456  1.7607
18323TIP3    H276461   4.313   6.555   3.684  1.1989 -0.6709 -0.0370
18324TIP3   OH276462   0.665   0.739   1.042  0.0903  0.1917 -0.1741
18324TIP3    H176463   0.725   0.688   0.987 -0.1100  0.1710 -0.3735
18324TIP3    H276464   0.690   0.716   1.132  0.4055  0.2095 -0.2548
18325TIP3   OH276465   3.998   6.487   2.292 -0.1311 -0.3034  0.1086
18325TIP3    H176466   4.078   6.444   2.320 -0.4390 -1.0846 -0.1904
18325TIP3    H276467   4.026   6.544   2.219 -0.0245 -1.4507 -0.7747
18326TIP3   OH276468   4.896   6.368   2.622  0.0818  0.1301  0.4745
18326TIP3    H176469   4.860   6.434   2.563  0.3675  0.1809  0.3561
18326TIP3    H276470   4.913   6.416   2.703 -0.3390  0.0533  0.6116
18327TIP3   OH276471   4.651   4.117   5.680 -0.1788 -0.5613 -0.3175
18327TIP3    H176472   4.743   4.123   5.702 -0.0386 -0.7194 -0.8417
18327TIP3    H276473   4.650   4.101   5.585 -0.7845  1.1822 -0.6319
18328TIP3   OH276474   5.282   5.165  11.367  0.5738  0.8587  0.2520
18328TIP3    H176475   5.197   5.194  11.334  0.9263  0.4549 -1.1108
18328TIP3    H276476   5.313   5.104  11.300  1.5688  0.3669  1.1422
18329TIP3   OH276477   0.118   2.465  12.790 -0.0679  0.0890 -0.2254
18329TIP3    H176478   0.100   2.540  12.733  1.6104  1.1831  0.6358
18329TIP3    H276479   0.207   2.478  12.821 -0.0525 -1.8043  0.6791
18330TIP3   OH276480   6.171   1.242   4.677 -0.1018 -0.1009 -0.5748
18330TIP3    H176481   6.186   1.313   4.614 -0.3422  0.4349 -0.0376
18330TIP3    H276482   6.179   1.162   4.625 -1.3149  0.3506 -1.5187
18331TIP3   OH276483   6.508   4.029  14.500 -0.3175  0.0173 -0.8847
18331TIP3    H176484   6.555   4.086  14.440 -2.0189  2.4479 -0.0293
18331TIP3    H276485   6.462   3.967  14.443  0.7810  0.0745 -1.8802
18332TIP3   OH276486   5.066   0.907  15.410 -0.1727 -0.2241  0.2352
18332TIP3    H176487   5.056   0.944  15.498  0.8946  1.7626 -0.4257
18332TIP3    H276488   4.979   0.917  15.370 -1.3988 -3.3897  1.7730
18333TIP3   OH276489   5.358   1.987  16.284  0.4733 -0.2829 -0.2575
18333TIP3    H176490   5.440   2.022  16.319  0.7484  1.0669 -2.0899
18333TIP3    H276491   5.380   1.956  16.196 -0.5811 -1.7868 -0.0480
18334TIP3   OH276492   0.731   4.750   5.218 -0.2194  0.1708 -0.3616
18334TIP3    H176493   0.669   4.803   5.268  0.3258 -0.2854  0.8289
18334TIP3    H276494   0.766   4.810   5.153  0.5022  1.3577  1.0587
18335TIP3   OH276495   5.196   1.961   3.774 -0.7489  0.2403  0.0855
18335TIP3    H176496   5.230   1.875   3.799  0.6619  1.1989  1.6514
18335TIP3    H276497   5.193   2.010   3.856  0.3748  2.2993 -1.0340
18336TIP3   OH276498   4.356   6.758   2.988 -0.7361 -0.0179 -0.2642
18336TIP3    H176499   4.270   6.794   2.966 -1.1911 -1.7589 -1.5940
18336TIP3    H276500   4.360   6.675   2.939  1.5014 -0.2147  0.1611
18337TIP3   OH276501   0.525   5.882   2.352 -0.5089  0.1389 -1.0224
18337TIP3    H176502   0.592   5.948   2.369  0.1642 -0.5444 -0.9553
18337TIP3    H276503   0.458   5.928   2.303  0.1655  0.7594 -1.3876
18338TIP3   OH276504   1.841   5.517  13.171 -0.3470  0.3343 -0.2321
18338TIP3    H176505   1.907   5.485  13.110  0.6848  1.0080  0.4897
18338TIP3    H276506   1.785   5.574  13.118  0.3922  0.7248 -0.6053
18339TIP3   OH276507   1.480   5.473  12.457  0.3851 -1.0118 -0.6727
18339TIP3    H176508   1.576   5.470  12.456  0.4475  0.1872 -0.3295
18339TIP3    H276509   1.454   5.408  12.523  1.1032  0.5429  1.2462
18340TIP3   OH276510   1.389   2.524  11.758 -0.1818 -0.0496 -0.2768
18340TIP3    H176511   1.421   2.567  11.679  2.6764  0.1172  0.8610
18340TIP3    H276512   1.395   2.431  11.738 -0.3418 -0.0026 -0.5534
18341TIP3   OH276513   0.374   2.073  10.736 -0.5403 -1.0866  0.2176
18341TIP3    H176514   0.365   2.015  10.660 -0.5896 -3.6925  2.0483
18341TIP3    H276515   0.449   2.037  10.785  0.5928  1.5555  0.6054
18342TIP3   OH276516   6.316   5.505   4.250 -0.3720 -0.1675 -0.0557
18342TIP3    H176517   6.276   5.439   4.307  1.3909 -0.0934  1.3351
18342TIP3    H276518   6.320   5.584   4.303 -1.6065  0.8625 -1.3941
18343TIP3   OH276519   5.556   6.013  15.865  0.1388  0.4906 -0.0739
18343TIP3    H176520   5.483   6.075  15.870  0.4990  0.8544  0.9052
18343TIP3    H276521   5.521   5.932  15.902 -0.6187 -0.2062 -2.2024
18344TIP3   OH276522   0.809   1.799   0.486 -0.5360 -0.3006  0.3944
18344TIP3    H176523   0.783   1.882   0.526 -2.6554 -0.6589 -0.1223
18344TIP3    H276524   0.792   1.734   0.555  1.4567 -0.3347  0.9293
18345TIP3   OH276525   4.099   6.625   0.472  0.0996  0.0831  0.8525
18345TIP3    H176526   4.011   6.622   0.510  0.4060 -1.2119  1.5045
18345TIP3    H276527   4.131   6.713   0.494 -2.1924  1.9039 -2.2046
18346TIP3   OH276528   1.133   6.436   1.005  0.6651 -0.3746 -0.1866
18346TIP3    H176529   1.179   6.358   0.974 -0.3626 -0.6852 -1.0385
18346TIP3    H276530   1.041   6.409   1.008  0.2772  0.8287 -0.5940
18347TIP3   OH276531   1.649   0.860   5.067 -0.1320  0.1675 -0.0482
18347TIP3    H176532   1.610   0.773   5.066 -0.5621  0.3611 -1.4560
18347TIP3    H276533   1.627   0.895   5.154 -1.2963 -0.5125 -0.0581
18348TIP3   OH276534   0.405   1.681  13.880  0.6739  0.3885  0.5962
18348TIP3    H176535   0.412   1.682  13.784 -0.7729  0.8955  0.4709
18348TIP3    H276536   0.378   1.592  13.902 -2.8658  1.1765  0.1301
18349TIP3   OH276537   3.799   0.311   0.725 -0.3187 -0.1351 -0.6003
18349TIP3    H176538   3.705   0.317   0.705 -0.5051  0.0294  0.2717
18349TIP3    H276539   3.802   0.296   0.820  0.5844  1.9990 -0.2297
18350TIP3   OH276540   2.040   5.705   0.420  0.0014 -0.2571 -0.3356
18350TIP3    H176541   1.965   5.656   0.386 -0.8036 -0.0466  1.0684
18350TIP3    H276542   2.066   5.658   0.499 -0.2602  1.0682  0.5814
18351TIP3   OH276543   1.011   1.323  11.139 -0.2786  0.0788 -0.1735
18351TIP3    H176544   1.010   1.293  11.047 -1.4201 -1.3842  0.2678
18351TIP3    H276545   0.943   1.270  11.181  1.2322 -0.3615  1.8513
18352TIP3   OH276546   4.493   4.851   6.374  0.2996 -0.3254 -0.1437
18352TIP3    H176547   4.475   4.913   6.444 -0.4559 -1.4548  0.6829
18352TIP3    H276548   4.586   4.831   6.383  0.5416  0.6375 -0.3934
18353TIP3   OH276549   1.836   6.468  14.997  0.1804 -0.2561 -0.1670
18353TIP3    H176550   1.858   6.407  14.927 -0.5904 -1.4419  0.5933
18353TIP3    H276551   1.847   6.417  15.077 -2.9451 -0.2491  0.3836
18354TIP3   OH276552   1.453   0.868  17.074  0.2552  0.4636 -0.1599
18354TIP3    H176553   1.538   0.826  17.064 -0.1931 -0.3784 -0.4967
18354TIP3    H276554   1.417   0.870  16.985 -0.9103 -0.9941  0.2376
18355TIP3   OH276555   4.313   5.117  13.302  0.0423 -0.8522 -0.4909
18355TIP3    H176556   4.371   5.166  13.360 -0.6037 -0.8347  0.1575
18355TIP3    H276557   4.227   5.159  13.313 -0.0688 -0.7963 -1.5235
18356TIP3   OH276558   2.725   4.930  16.546 -0.3597 -0.6720 -0.1422
18356TIP3    H176559   2.682   5.012  16.570  0.8689  0.3085 -1.1343
18356TIP3    H276560   2.669   4.893  16.478 -0.6928 -0.4258 -0.0029
18357TIP3   OH276561   5.334   4.398   3.987  0.4369  0.1453  0.5924
18357TIP3    H176562   5.297   4.310   3.987 -1.3773  0.8172 -1.9249
18357TIP3    H276563   5.279   4.447   4.048 -2.1685  0.7589 -2.0135
18358TIP3   OH276564   3.731   5.047  14.177  0.6154 -0.2675 -0.4512
18358TIP3    H176565   3.717   5.054  14.082  1.2787  3.1033 -0.4310
18358TIP3    H276566   3.665   5.105  14.215 -0.0550 -2.0523  1.2551
18359TIP3   OH276567   0.846   0.793  16.730  0.3218  0.1853  1.0508
18359TIP3    H176568   0.907   0.801  16.657 -0.7253 -1.8952 -0.1547
18359TIP3    H276569   0.763   0.826  16.696 -0.7248 -2.7293  0.4154
18360TIP3   OH276570   4.847   2.919  11.552 -0.3093 -0.5067  0.1189
18360TIP3    H176571   4.822   2.909  11.461 -0.3247  0.4189  0.0073
18360TIP3    H276572   4.797   2.995  11.583  0.2546 -0.3459  0.6725
18361TIP3   OH276573   1.030   0.670  15.623  0.4079 -0.2816  0.1794
18361TIP3    H176574   1.034   0.579  15.593  0.3038 -0.0011 -0.7043
18361TIP3    H276575   1.121   0.700  15.622  0.2732  0.1646 -1.2818
18362TIP3   OH276576   2.488   1.767   3.072  0.0769 -0.2952  0.2432
18362TIP3    H176577   2.515   1.738   3.159 -2.0085  2.0929  1.8281
18362TIP3    H276578   2.568   1.799   3.031  0.8408  0.2341  2.0488
18363TIP3   OH276579   3.363   4.611   0.857  0.0156  0.3390  0.0590
18363TIP3    H176580   3.365   4.645   0.768 -0.3826 -0.5369 -0.2878
18363TIP3    H276581   3.273   4.583   0.870  0.1962 -0.0156  0.5615
18364TIP3   OH276582   2.202   3.438  11.627  0.6148 -0.3431  0.1788
18364TIP3    H176583   2.146   3.473  11.558  0.7242 -0.3379  0.0914
18364TIP3    H276584   2.250   3.366  11.585 -0.1078 -1.0452  0.5448
18365TIP3   OH276585   1.302   2.031  13.829 -0.0553  0.3210 -0.0244
18365TIP3    H176586   1.276   1.956  13.776  0.0112  0.2492  0.0432
18365TIP3    H276587   1.366   2.078  13.775  1.9401 -1.1192  0.9353
18366TIP3   OH276588   1.473   5.853  13.129 -0.5172  0.2922  0.5943
18366TIP3    H176589   1.498   5.775  13.080  0.0315  0.8084  0.0297
18366TIP3    H276590   1.388   5.878  13.092  0.0015  0.8133 -0.2799
18367TIP3   OH276591   0.730   0.687  12.466 -0.0187  0.6302  0.3445
18367TIP3    H176592   0.770   0.608  12.503  0.5177  1.4726  1.6321
18367TIP3    H276593   0.637   0.667  12.461  0.2228 -0.4102 -0.2253
18368TIP3   OH276594   5.568   4.251  13.964  0.7366 -0.3054  0.2010
18368TIP3    H176595   5.554   4.313  14.035 -0.7930 -0.5006  0.1048
18368TIP3    H276596   5.627   4.296  13.903  0.8211  0.4643  0.8455
18369TIP3   OH276597   4.353   5.945  14.980 -0.2561 -0.1539  0.5283
18369TIP3    H176598   4.275   5.943  15.036 -0.5948 -2.1651  0.0425
18369TIP3    H276599   4.425   5.918  15.038 -0.4098 -1.0830  0.2949
18370TIP3   OH276600   2.310   4.594  16.080  0.0438  0.4085  0.2871
18370TIP3    H176601   2.311   4.654  16.005 -1.9537 -1.5421 -1.4233
18370TIP3    H276602   2.241   4.627  16.136  0.3688  0.8782  0.4199
18371TIP3   OH276603   2.749   1.175  14.029 -0.2231  0.4058 -0.2045
18371TIP3    H176604   2.669   1.210  13.988  1.1509  0.8015 -2.7303
18371TIP3    H276605   2.727   1.169  14.122 -2.8057  1.5820 -0.6434
18372TIP3   OH276606   4.183   6.376  15.281 -0.8430  0.1323  0.2258
18372TIP3    H176607   4.206   6.306  15.220 -1.6548  0.3935 -0.4009
18372TIP3    H276608   4.160   6.450  15.226 -1.1346  0.5262  0.8614
18373TIP3   OH276609   5.446   3.053   0.351 -0.2190 -0.1452 -0.4370
18373TIP3    H176610   5.376   3.116   0.334 -0.3198 -0.1034  0.1186
18373TIP3    H276611   5.526   3.105   0.356 -0.0001 -0.2941 -1.9928
18374TIP3   OH276612   2.874   6.314  16.414  0.7472 -0.1390  0.0931
18374TIP3    H176613   2.783   6.334  16.394  0.4016  0.9469  2.4112
18374TIP3    H276614   2.923   6.352  16.341 -0.5584  0.9335 -0.2620
18375TIP3   OH276615   6.092   5.762   2.902 -0.3613 -0.3071  0.1150
18375TIP3    H176616   6.051   5.826   2.960  1.9583  2.9635 -1.5529
18375TIP3    H276617   6.107   5.685   2.957 -2.6599  0.7451  2.4229
18376TIP3   OH276618   1.682   0.550   1.779 -0.0507 -0.3673 -0.6079
18376TIP3    H176619   1.609   0.535   1.839 -0.0967 -1.4519 -0.9204
18376TIP3    H276620   1.731   0.468   1.779 -1.0622 -1.0654 -3.4022
18377TIP3   OH276621   0.776   4.913  15.568  0.3248 -0.1703 -0.0017
18377TIP3    H176622   0.795   5.005  15.589  0.6827 -0.5668  1.4941
18377TIP3    H276623   0.818   4.863  15.638 -0.1013 -1.4698 -0.6467
18378TIP3   OH276624   5.681   6.025   5.437  0.0848 -0.0063 -0.1916
18378TIP3    H176625   5.598   6.016   5.483  0.1734 -0.2428 -0.0795
18378TIP3    H276626   5.678   6.114   5.400 -1.1001 -0.7009 -1.9156
18379TIP3   OH276627   5.649   3.792  13.506 -0.1606  0.0646 -0.1595
18379TIP3    H176628   5.579   3.814  13.567 -1.2627  1.1558 -1.7695
18379TIP3    H276629   5.633   3.846  13.429  1.7299 -0.5898 -1.0769
18380TIP3   OH276630   2.710   0.101   5.097 -0.0585  0.3356  0.5443
18380TIP3    H176631   2.656   0.090   5.175 -1.3063 -0.2902 -0.3740
18380TIP3    H276632   2.680   0.183   5.058 -0.4737 -0.0995 -0.0615
18381TIP3   OH276633   4.837   0.125  12.687 -0.5635  0.0134 -0.9618
18381TIP3    H176634   4.917   0.076  12.709 -0.5701 -0.4247 -1.8860
18381TIP3    H276635   4.804   0.155  12.772  0.2131 -0.3796 -0.5049
18382TIP3   OH276636   0.906   5.344   4.666  0.2134 -0.3091 -0.3022
18382TIP3    H176637   0.885   5.254   4.689 -2.7614  0.3479 -0.0067
18382TIP3    H276638   0.948   5.380   4.744  0.5648 -1.1693 -0.0843
18383TIP3   OH276639   6.230   1.642  12.415 -0.4872 -0.7496  0.3896
18383TIP3    H176640   6.253   1.699  12.342  0.8640 -1.0114  0.5881
18383TIP3    H276641   6.134   1.645  12.419 -0.5023  0.4217 -0.4528
18384TIP3   OH276642   0.345   0.484  11.885 -0.1214 -0.1347  0.2454
18384TIP3    H176643   0.257   0.468  11.918 -0.7877  1.6259 -0.5864
18384TIP3    H276644   0.382   0.547  11.947  0.1834 -0.0990  0.0282
18385TIP3   OH276645   3.671   2.837   1.889  0.7595  0.5181  0.3842
18385TIP3    H176646   3.672   2.840   1.985  0.2171 -3.8730  0.7169
18385TIP3    H276647   3.763   2.830   1.864  0.8208  0.1901  0.6916
18386TIP3   OH276648   0.684   2.477   0.942  0.3032  0.3435 -0.2002
18386TIP3    H176649   0.638   2.506   0.863  1.0278 -0.7365 -1.0514
18386TIP3    H276650   0.746   2.547   0.961  0.6659  0.2674 -1.0621
18387TIP3   OH276651   6.482   6.191  13.353 -0.3433 -0.2907  0.3288
18387TIP3    H176652   6.565   6.208  13.309  0.2299 -1.6908  0.7999
18387TIP3    H276653   6.483   6.247  13.430 -0.8236  1.2881 -0.7612
18388TIP3   OH276654   4.601   4.025  14.412 -0.6365 -0.2323 -0.4138
18388TIP3    H176655   4.684   3.984  14.439 -0.6764 -0.5499 -0.7758
18388TIP3    H276656   4.620   4.119  14.414 -0.4194 -0.2787  0.0009
18389TIP3   OH276657   6.081   1.227  14.579 -0.0488  0.3597  0.5393
18389TIP3    H176658   6.088   1.240  14.674  0.9488 -0.3780  0.5779
18389TIP3    H276659   5.996   1.263  14.557  0.4130  2.1580  1.4498
18390TIP3   OH276660   3.927   2.424   0.043  0.0998  0.1305 -0.3143
18390TIP3    H176661   3.930   2.513   0.008 -0.0700  0.1462 -0.2892
18390TIP3    H276662   3.942   2.436   0.137  1.3678  0.0144 -0.4939
18391TIP3   OH276663   4.449   4.430  15.899  0.4254 -0.4195  0.0104
18391TIP3    H176664   4.404   4.425  15.815  1.3030 -3.0039 -0.3916
18391TIP3    H276665   4.542   4.428  15.876  0.6744 -1.2946  1.0168
18392TIP3   OH276666   0.351   5.974  15.033 -0.6352 -0.0201  0.0233
18392TIP3    H176667   0.316   6.062  15.017  2.2237  1.0006 -1.4214
18392TIP3    H276668   0.443   5.990  15.056 -0.3113 -2.6127  0.7780
18393TIP3   OH276669   2.874   4.380  17.105  0.2398 -0.8220  0.4168
18393TIP3    H176670   2.892   4.362  17.198  0.1550 -0.0354  0.5964
18393TIP3    H276671   2.824   4.305  17.075 -1.1484 -0.3650  1.4549
18394TIP3   OH276672   1.473   2.927  12.138 -0.5913 -0.5880  0.2249
18394TIP3    H176673   1.483   2.864  12.209  1.4039  0.2528  0.7661
18394TIP3    H276674   1.541   2.903  12.075 -0.9356 -0.0282 -0.3748
18395TIP3   OH276675   6.365   2.720   4.478 -0.2915 -0.1981  0.3552
18395TIP3    H176676   6.425   2.696   4.549 -0.2453 -0.2350  0.3042
18395TIP3    H276677   6.284   2.745   4.522  0.6439  2.6874  0.6131
18396TIP3   OH276678   5.138   0.893  16.099  0.1180 -0.4016  0.1838
18396TIP3    H176679   5.069   0.884  16.034 -1.0300 -0.3120  1.3442
18396TIP3    H276680   5.203   0.828  16.075 -0.3120 -0.4098 -0.9997
18397TIP3   OH276681   5.990   5.489   4.167 -0.3700 -0.1636  0.3166
18397TIP3    H176682   6.065   5.511   4.111 -0.6899 -1.1015 -0.5060
18397TIP3    H276683   5.977   5.566   4.222 -0.9185  1.3632 -1.8521
18398TIP3   OH276684   5.096   2.284  17.516 -0.4912 -0.1312 -0.1396
18398TIP3    H176685   5.008   2.264  17.482 -1.0908  0.0611  1.2263
18398TIP3    H276686   5.084   2.289  17.611  0.4038  2.8170 -0.0902
18399TIP3   OH276687   6.760   2.281   2.781  0.0825 -0.2934  0.0860
18399TIP3    H176688   6.851   2.297   2.809  0.0245 -0.8541  0.6127
18399TIP3    H276689   6.725   2.222   2.848 -0.3589 -0.8899 -0.6599
18400TIP3   OH276690   3.205   0.399  13.372 -0.3248 -0.3777  0.1833
18400TIP3    H176691   3.295   0.430  13.366 -0.3896  0.1769  1.7214
18400TIP3    H276692   3.206   0.314  13.327  0.3951  0.6932 -1.9256
18401TIP3   OH276693   3.667   1.966   3.610 -0.2517  0.5649 -0.1144
18401TIP3    H176694   3.646   1.961   3.703 -1.6849  1.6719 -0.3523
18401TIP3    H276695   3.749   1.916   3.602 -1.4972 -1.9156  1.2610
18402TIP3   OH276696   0.326   4.906  16.101 -0.3185 -0.1064  0.1891
18402TIP3    H176697   0.416   4.874  16.106 -0.1234  0.5581  1.3356
18402TIP3    H276698   0.327   4.969  16.030  0.5888  1.2408  1.3461
18403TIP3   OH276699   1.571   6.289  10.706 -0.2118  0.1887  0.0481
18403TIP3    H176700   1.597   6.222  10.644  0.5185 -0.2594  0.8162
18403TIP3    H276701   1.476   6.281  10.713 -0.0589 -1.3259  0.7448
18404TIP3   OH276702   4.439   0.629   6.353 -1.1690  0.1518  0.4220
18404TIP3    H176703   4.485   0.713   6.358 -1.2645  0.1479  1.8817
18404TIP3    H276704   4.410   0.612   6.443 -2.7516 -0.5548 -0.1764
18405TIP3   OH276705   3.633   0.302  15.578  0.3800 -0.2232  0.0260
18405TIP3    H176706   3.680   0.269  15.501 -0.4116  0.7336 -0.8952
18405TIP3    H276707   3.594   0.384  15.549 -0.8054 -0.3613  1.1447
18406TIP3   OH276708   5.586   1.035  16.374 -0.4148 -0.2114  0.0468
18406TIP3    H176709   5.638   0.963  16.411  1.4632  1.0650  0.0706
18406TIP3    H276710   5.562   1.005  16.287  0.7165 -0.7389 -0.1063
18407TIP3   OH276711   4.018   5.597  17.228  0.0376  0.3080 -0.4454
18407TIP3    H176712   3.963   5.674  17.238  1.8001  1.4996  0.8914
18407TIP3    H276713   4.107   5.632  17.224  0.7398 -1.4993 -2.7838
18408TIP3   OH276714   0.984   3.498  17.061  0.4610 -0.0348  0.5170
18408TIP3    H176715   1.062   3.480  17.008 -0.7702 -2.1202 -0.7074
18408TIP3    H276716   0.960   3.588  17.038  0.6038 -0.5010 -1.7078
18409TIP3   OH276717   6.422   6.475   0.386 -0.1306 -0.6953 -0.0469
18409TIP3    H176718   6.328   6.483   0.405  0.1935 -1.3704  2.0638
18409TIP3    H276719   6.425   6.448   0.294 -2.0397 -1.5123  0.0815
18410TIP3   OH276720   6.024   2.947   4.113 -0.5852  0.1461 -0.0926
18410TIP3    H176721   5.979   3.025   4.146 -0.2150 -1.1655  4.1370
18410TIP3    H276722   6.022   2.885   4.186  2.6071 -2.3531 -1.8316
18411TIP3   OH276723   1.234   0.443  16.926 -0.5116 -0.6070 -0.4443
18411TIP3    H176724   1.251   0.422  17.018  1.6106 -2.2731 -1.1212
18411TIP3    H276725   1.186   0.526  16.928  0.9505  0.2690  2.1178
18412TIP3   OH276726   0.724   1.291  16.049  0.0728 -0.2064 -0.2532
18412TIP3    H176727   0.735   1.247  16.133 -1.8004  0.6015  0.4883
18412TIP3    H276728   0.757   1.380  16.063 -2.2678  0.6507  0.4312
18413TIP3   OH276729   4.059   1.789   4.926  0.2931  0.2669  0.4685
18413TIP3    H176730   4.069   1.859   4.862 -3.0976 -0.7792 -1.4540
18413TIP3    H276731   4.100   1.713   4.884  1.3227  0.3965  1.2186
18414TIP3   OH276732   5.866   5.779  15.053 -0.5885 -0.0656 -0.2857
18414TIP3    H176733   5.790   5.762  15.108 -0.5930  2.1468  0.4790
18414TIP3    H276734   5.884   5.872  15.064  1.6860 -0.3251 -1.1591
18415TIP3   OH276735   3.810   0.539   3.307 -0.0198  0.7528  0.6691
18415TIP3    H176736   3.873   0.579   3.366  1.7479 -0.2610 -0.4590
18415TIP3    H276737   3.829   0.577   3.222 -1.1101  0.6068  0.3451
18416TIP3   OH276738   3.633   1.777   0.121  0.0801  0.8528  0.1660
18416TIP3    H176739   3.591   1.857   0.151  0.7254  1.1676  0.2616
18416TIP3    H276740   3.607   1.711   0.185  0.4590  1.2451  0.7405
18417TIP3   OH276741   0.489   3.954  14.345 -0.2728 -0.2116  0.6093
18417TIP3    H176742   0.560   3.927  14.404 -1.1486 -1.9114  0.9255
18417TIP3    H276743   0.409   3.930  14.391 -1.0510  0.7505 -0.2032
18418TIP3   OH276744   1.053   6.368   3.125  0.4436 -0.4969 -0.4242
18418TIP3    H176745   0.989   6.389   3.057  0.4559  0.8275 -0.0664
18418TIP3    H276746   1.137   6.398   3.090  0.6711 -1.0591 -0.3729
18419TIP3   OH276747   1.674   1.633   0.686  0.4725 -0.1691 -0.0689
18419TIP3    H176748   1.741   1.643   0.618  1.3481  0.7713  0.8861
18419TIP3    H276749   1.715   1.668   0.765 -0.0315 -2.3890  1.2825
18420TIP3   OH276750   1.104   4.859  12.167  0.0026  0.3828  0.0781
18420TIP3    H176751   1.111   4.950  12.196 -4.8882  0.9673  0.3042
18420TIP3    H276752   1.116   4.864  12.072  0.0347  1.2575  0.1134
18421TIP3   OH276753   6.126   6.398  15.255 -0.2505  0.3420 -0.0293
18421TIP3    H176754   6.164   6.463  15.315  0.0632  0.5528 -0.4520
18421TIP3    H276755   6.184   6.400  15.178 -0.7606  0.2120 -0.4174
18422TIP3   OH276756   5.512   1.646   6.115  0.0356  0.1645 -0.6445
18422TIP3    H176757   5.433   1.668   6.065 -0.1834 -0.7454 -0.7256
18422TIP3    H276758   5.519   1.551   6.107  0.9660  0.2021 -0.3673
18423TIP3   OH276759   1.849   1.681   4.677  0.0155 -0.1109 -0.1987
18423TIP3    H176760   1.762   1.708   4.706  1.0629  0.8446  2.3182
18423TIP3    H276761   1.866   1.599   4.724  0.2463 -0.6125 -1.1423
18424TIP3   OH276762   0.896   3.658  15.361  0.0576  0.3387 -0.5625
18424TIP3    H176763   0.899   3.575  15.314 -0.2685  0.9890 -1.7732
18424TIP3    H276764   0.982   3.697  15.345 -0.1430  0.6732 -0.8401
18425TIP3   OH276765   1.081   3.151   4.430 -0.2885  0.4949  0.0666
18425TIP3    H176766   1.068   3.188   4.343  1.6660 -2.7435 -1.7764
18425TIP3    H276767   1.169   3.181   4.456  0.1057 -0.4362 -0.1574
18426TIP3   OH276768   2.930   0.329  12.204 -0.0292  0.2314  0.1627
18426TIP3    H176769   2.951   0.238  12.224  0.0970  0.3737  0.7164
18426TIP3    H276770   2.864   0.324  12.135  0.4761 -0.2607 -0.2885
18427TIP3   OH276771   4.114   0.023  13.057 -0.6022  0.9944 -0.2072
18427TIP3    H176772   4.096   0.101  13.108  0.9018  2.4391 -1.7186
18427TIP3    H276773   4.088   0.046  12.968  0.1809 -0.0920 -0.7499
18428TIP3   OH276774   3.219   3.756   6.612 -0.2993 -0.2987 -0.2325
18428TIP3    H176775   3.188   3.667   6.596 -0.2233 -0.4686  0.5114
18428TIP3    H276776   3.313   3.746   6.629 -0.6576 -0.4199  2.1464
18429TIP3   OH276777   4.864   2.039   4.340  0.2664  0.5961  0.3569
18429TIP3    H176778   4.885   1.983   4.266  0.9314  1.5378 -0.1963
18429TIP3    H276779   4.768   2.047   4.337  0.1769 -0.3727  0.3659
18430TIP3   OH276780   6.102   5.671   0.935  0.0146 -0.3345  0.1842
18430TIP3    H176781   6.107   5.637   1.024  3.9707  0.4819  0.4473
18430TIP3    H276782   6.058   5.601   0.886 -2.5295 -0.6867  2.7097
18431TIP3   OH276783   3.975   1.866  16.051  0.1573  0.2027 -0.2013
18431TIP3    H176784   3.991   1.928  16.122 -0.1239  1.6958 -1.3968
18431TIP3    H276785   4.059   1.820  16.041  1.0991  1.9222 -0.7028
18432TIP3   OH276786   6.648   0.986   3.290 -0.4666 -0.1985  0.1214
18432TIP3    H176787   6.589   1.008   3.218  2.5795  1.7046 -2.0000
18432TIP3    H276788   6.607   1.026   3.367 -2.6947 -0.3427 -0.9026
18433TIP3   OH276789   0.924   0.416   2.542 -0.1136  0.2813 -0.4545
18433TIP3    H176790   0.893   0.382   2.626 -1.7182  2.8395  0.0952
18433TIP3    H276791   1.004   0.465   2.564  0.6985 -0.8247 -0.8254
18434TIP3   OH276792   1.980   6.096  15.004  0.4951 -0.6199 -0.3431
18434TIP3    H176793   2.002   6.119  15.095  1.9403  4.7044 -1.6613
18434TIP3    H276794   2.051   6.040  14.975  1.8990  0.3990  0.9550
18435TIP3   OH276795   0.117   2.895   4.190 -0.0443  0.0126 -0.4455
18435TIP3    H176796   0.199   2.847   4.197  0.5041  1.0745  0.7744
18435TIP3    H276797   0.135   2.964   4.126  0.3515  0.8854  0.5964
18436TIP3   OH276798   0.932   1.087   2.450 -0.5102  0.2868 -0.5020
18436TIP3    H176799   1.012   1.140   2.453 -1.0591  1.3305 -2.5463
18436TIP3    H276800   0.960   1.004   2.409 -0.3840  0.4742 -0.7980
18437TIP3   OH276801   0.794   5.137   2.213  0.0184  0.3820 -0.3921
18437TIP3    H176802   0.704   5.169   2.225  0.6308  1.8227  0.5504
18437TIP3    H276803   0.794   5.101   2.124 -1.3745  0.7802 -0.5823
18438TIP3   OH276804   0.135   0.330  15.912 -0.6200 -0.5908  0.2777
18438TIP3    H176805   0.225   0.305  15.890 -0.8905  0.2744 -2.1128
18438TIP3    H276806   0.126   0.306  16.004  2.8780  1.5395  1.4108
18439TIP3   OH276807   3.421   2.936   2.562  0.4924  0.1180  0.2868
18439TIP3    H176808   3.420   2.882   2.641  1.0206 -0.9356 -0.4152
18439TIP3    H276809   3.457   3.020   2.592 -2.8518  1.1287  1.9690
18440TIP3   OH276810   3.209   5.653  12.433  0.2246  0.6263 -0.2361
18440TIP3    H176811   3.228   5.741  12.398  2.4504  0.9551  1.5430
18440TIP3    H276812   3.159   5.670  12.513  0.4565  0.2460 -0.0112
18441TIP3   OH276813   2.222   2.754   6.084 -0.0166 -0.1217  0.3406
18441TIP3    H176814   2.280   2.699   6.032  0.5217 -0.0049  0.8049
18441TIP3    H276815   2.211   2.708   6.167  0.3468  0.4045  0.6900
18442TIP3   OH276816   0.464   5.462   2.670 -0.0598 -0.3189 -0.3024
18442TIP3    H176817   0.409   5.463   2.748  0.2719  1.1182 -0.0571
18442TIP3    H276818   0.553   5.470   2.703 -0.0006  1.7013 -0.8438
18443TIP3   OH276819   6.474   6.192   3.170 -0.4140 -0.7903  0.0363
18443TIP3    H176820   6.450   6.279   3.201  1.5449  0.6213 -2.0863
18443TIP3    H276821   6.399   6.164   3.117 -0.4939  0.2419 -0.4118
18444TIP3   OH276822   0.690   3.042   3.859 -0.1106 -0.1339  0.2629
18444TIP3    H176823   0.657   3.039   3.949 -3.7405 -1.3513 -0.9618
18444TIP3    H276824   0.652   3.122   3.821  1.7412  0.6126 -0.1635
18445TIP3   OH276825   3.447   4.774   4.424  0.4312 -0.2299 -0.1891
18445TIP3    H176826   3.372   4.716   4.415  0.8801 -0.5881 -2.3570
18445TIP3    H276827   3.412   4.854   4.464 -1.3498  0.0013 -2.0511
18446TIP3   OH276828   5.113   2.100   4.427 -0.3287 -0.1950 -0.6741
18446TIP3    H176829   5.029   2.063   4.400 -0.2408 -1.1498  0.2865
18446TIP3    H276830   5.176   2.029   4.412 -0.3355 -0.9598  2.3397
18447TIP3   OH276831   2.860   1.110  16.935 -0.2085 -0.2747  0.2356
18447TIP3    H176832   2.800   1.183  16.944  0.3500  0.4097 -1.2444
18447TIP3    H276833   2.942   1.150  16.905  0.2424 -1.4542 -0.1627
18448TIP3   OH276834   0.795   4.023   3.628 -0.3436  0.3310  0.4117
18448TIP3    H176835   0.801   3.935   3.591  1.0816 -0.1812  1.7551
18448TIP3    H276836   0.772   4.079   3.554  0.2746 -0.9470 -0.7953
18449TIP3   OH276837   6.164   0.884  13.738 -0.0002  0.3142 -0.1439
18449TIP3    H176838   6.208   0.968  13.728 -0.1746  0.3233 -0.8922
18449TIP3    H276839   6.187   0.855  13.827 -0.8477  1.6623  0.5450
18450TIP3   OH276840   5.131   4.285   1.107  0.3318  0.2145  0.2508
18450TIP3    H176841   5.094   4.325   1.028 -1.6726 -0.2905  0.8836
18450TIP3    H276842   5.223   4.270   1.085 -0.5935 -1.9907 -2.8622
18451TIP3   OH276843   5.489   0.830  12.548  0.4909 -0.5581 -0.5298
18451TIP3    H176844   5.434   0.780  12.608  3.2315 -0.1243  2.6047
18451TIP3    H276845   5.464   0.921  12.561  0.2371 -0.5549 -1.0141
18452TIP3   OH276846   1.236   3.733  12.271  0.2871  0.2605  0.6505
18452TIP3    H176847   1.277   3.649  12.250  0.5003  0.5827 -0.2339
18452TIP3    H276848   1.196   3.762  12.189 -0.1858  0.8030  1.0679
18453TIP3   OH276849   5.553   5.271  16.984  0.7685 -0.2188 -0.1821
18453TIP3    H176850   5.523   5.354  17.022  0.2083 -0.4575 -0.1009
18453TIP3    H276851   5.638   5.292  16.945  0.6590  0.3792 -0.1048
18454TIP3   OH276852   2.760   3.100  15.203 -0.5146  0.0788  0.2658
18454TIP3    H176853   2.816   3.172  15.231 -2.7169  1.2960  1.9419
18454TIP3    H276854   2.737   3.055  15.285 -1.4265 -0.7713 -0.4395
18455TIP3   OH276855   2.574   1.316   0.165 -0.7091 -0.2522 -0.1970
18455TIP3    H176856   2.604   1.356   0.083  1.6888 -3.8406 -1.2997
18455TIP3    H276857   2.642   1.340   0.229 -0.1362 -1.1411 -0.4552
18456TIP3   OH276858   2.255   5.344  13.802 -0.3835 -0.2802  0.0622
18456TIP3    H176859   2.167   5.325  13.768 -0.3438 -0.4193  0.0372
18456TIP3    H276860   2.285   5.261  13.838 -1.1611  0.2888  2.1364
18457TIP3   OH276861   3.282   5.276   4.546  0.1260 -0.0102 -0.2783
18457TIP3    H176862   3.258   5.288   4.638 -0.4247  0.4149 -0.4671
18457TIP3    H276863   3.268   5.362   4.507  2.3850  0.3824 -0.3363
18458TIP3   OH276864   5.225   2.397  14.905 -0.2864 -0.0883  0.2752
18458TIP3    H176865   5.189   2.400  14.817  2.3760 -1.2399 -0.9394
18458TIP3    H276866   5.283   2.472  14.911  0.6335 -0.7943  0.5041
18459TIP3   OH276867   5.840   6.352   6.980 -0.1518 -0.5203 -0.1310
18459TIP3    H176868   5.844   6.289   6.908 -0.5420  1.7450 -2.2740
18459TIP3    H276869   5.928   6.387   6.987 -0.1967 -0.4816  0.2597
18460TIP3   OH276870   0.903   4.135  11.645 -0.1037 -0.0781 -0.0418
18460TIP3    H176871   0.810   4.115  11.633 -0.1046 -0.1881  0.1455
18460TIP3    H276872   0.908   4.231  11.637 -0.0132 -0.1852 -1.5229
18461TIP3   OH276873   0.072   6.308   4.267  0.6211  0.5155 -0.0417
18461TIP3    H176874  -0.004   6.333   4.319  0.1350 -0.9520 -0.0108
18461TIP3    H276875   0.145   6.307   4.329  0.0301 -1.3117  0.6881
18462TIP3   OH276876   5.297   4.385  13.627 -0.0289 -0.8873 -0.3630
18462TIP3    H176877   5.373   4.331  13.605  1.1676  0.3059  0.6622
18462TIP3    H276878   5.334   4.463  13.669 -1.7707  0.1555 -0.6454
18463TIP3   OH276879   5.744   0.771   3.678 -0.3081 -0.9921 -0.1935
18463TIP3    H176880   5.797   0.803   3.751 -0.0402 -1.1984 -0.2934
18463TIP3    H276881   5.710   0.850   3.637  0.4894 -0.8224 -0.5462
18464TIP3   OH276882   2.298   0.450  13.778 -0.3987  0.2780  0.2719
18464TIP3    H176883   2.252   0.532  13.798 -1.2723 -0.2536  0.5281
18464TIP3    H276884   2.300   0.403  13.861  1.6246  0.7465  0.5306
18465TIP3   OH276885   6.203   6.464   0.563 -0.5418 -0.0576 -0.5544
18465TIP3    H176886   6.227   6.376   0.533  1.3400  0.7160 -1.4985
18465TIP3    H276887   6.108   6.459   0.578 -0.6437 -1.9751 -1.5025
18466TIP3   OH276888   2.887   5.184  14.890 -0.2716  0.2254  0.3872
18466TIP3    H176889   2.881   5.262  14.946 -2.7269  0.0128  0.5004
18466TIP3    H276890   2.919   5.116  14.949  1.1292  0.9264  0.4829
18467TIP3   OH276891   1.055   0.598   3.026  0.2863  0.4307  0.4851
18467TIP3    H176892   1.106   0.629   2.951 -1.9464  0.3513 -1.1518
18467TIP3    H276893   1.114   0.611   3.101  2.1868  1.5911 -1.0882
18468TIP3   OH276894   5.912   3.671   0.245  0.0460  0.0879 -0.7336
18468TIP3    H176895   5.869   3.745   0.288 -2.7232 -1.6797 -0.2016
18468TIP3    H276896   5.982   3.646   0.305 -0.6165  0.7334  0.3420
18469TIP3   OH276897   3.955   1.920  17.025 -0.2809 -0.5075 -0.1273
18469TIP3    H176898   3.870   1.899  16.986  0.2933 -0.2108 -1.6190
18469TIP3    H276899   4.013   1.850  16.996  0.2761 -0.0083 -0.2484
18470TIP3   OH276900   5.199   6.763  15.756  0.7674 -0.2927  0.3141
18470TIP3    H176901   5.168   6.672  15.757 -0.1880  0.0073 -0.3236
18470TIP3    H276902   5.275   6.762  15.699  0.2445 -0.5436 -0.3904
18471TIP3   OH276903   1.035   6.514   3.826  0.2996 -0.5222  0.6223
18471TIP3    H176904   1.021   6.479   3.738 -1.2956  0.6000  0.3839
18471TIP3    H276905   1.012   6.442   3.885 -0.5880 -0.6782  0.1138
18472TIP3   OH276906   1.627   6.107  12.738  0.3969 -0.0351  0.3556
18472TIP3    H176907   1.718   6.095  12.764 -0.2625 -1.1528  2.4521
18472TIP3    H276908   1.589   6.160  12.809 -0.8628 -0.7052  0.2066
18473TIP3   OH276909   0.994   3.932   4.103  0.7827  0.0288 -0.5727
18473TIP3    H176910   0.979   4.027   4.104  0.6018 -0.0007 -0.0789
18473TIP3    H276911   0.923   3.897   4.157  1.2921 -0.3225 -0.1284
18474TIP3   OH276912   1.508   4.664  14.952 -0.0180  0.0582 -0.2150
18474TIP3    H176913   1.583   4.674  15.010 -0.6272 -0.3299  0.6793
18474TIP3    H276914   1.524   4.581  14.906  1.5797  1.4711 -2.3560
18475TIP3   OH276915   2.892   1.635   0.147  0.2894 -0.0530  0.2363
18475TIP3    H176916   2.913   1.721   0.184  0.8776  0.8332 -2.0059
18475TIP3    H276917   2.945   1.629   0.068 -0.0810 -2.3203  0.0800
18476TIP3   OH276918   2.558   1.546  15.566 -0.1848  0.1023 -0.0925
18476TIP3    H176919   2.586   1.623  15.617 -1.3676  1.7162 -1.7392
18476TIP3    H276920   2.617   1.545  15.491 -0.0955 -0.7188 -0.0216
18477TIP3   OH276921   6.579   0.825  15.869 -0.1021  0.4986  0.1172
18477TIP3    H176922   6.578   0.917  15.842 -1.2533  0.8405  1.2360
18477TIP3    H276923   6.509   0.818  15.934 -0.2737 -1.2575 -0.2090
18478TIP3   OH276924   0.101   0.379   2.585  0.1600  0.0785 -0.5582
18478TIP3    H176925   0.157   0.455   2.571  1.6220 -1.2765 -2.6175
18478TIP3    H276926   0.122   0.349   2.673 -0.0780  1.7175  0.0959
18479TIP3   OH276927   0.093   0.139   1.615 -0.7733  0.1215 -0.6618
18479TIP3    H176928   0.014   0.117   1.664  0.0073  1.7523  1.4949
18479TIP3    H276929   0.084   0.232   1.594  0.2760  0.1765 -0.9469
18480TIP3   OH276930   4.189   0.693   1.011 -0.6015 -0.1968  0.0828
18480TIP3    H176931   4.166   0.618   1.066 -1.1555  0.9837  1.5099
18480TIP3    H276932   4.276   0.719   1.041 -0.1325 -0.6461 -0.8542
18481TIP3   OH276933   1.858   2.067   2.807  0.6716 -0.6162 -0.5525
18481TIP3    H176934   1.946   2.102   2.797 -0.0408  0.8574 -2.0996
18481TIP3    H276935   1.814   2.086   2.724 -1.6735  0.4354  0.8114
18482TIP3   OH276936   2.772   0.736  13.889  0.2340 -0.1544 -0.0536
18482TIP3    H176937   2.688   0.715  13.849  1.1384 -0.5124 -1.8823
18482TIP3    H276938   2.827   0.660  13.870  0.6266 -0.5284  2.2968
18483TIP3   OH276939   2.934   5.819  13.053  0.2373 -0.3922  0.9282
18483TIP3    H176940   2.899   5.847  13.137 -0.1754 -1.8204  1.2582
18483TIP3    H276941   2.878   5.862  12.988  2.3184  3.0850  1.2164
18484TIP3   OH276942   1.357   6.627   3.596 -0.0565  0.1337 -0.1794
18484TIP3    H176943   1.347   6.552   3.654  0.9567  1.8004  2.3326
18484TIP3    H276944   1.336   6.594   3.509 -3.1348 -2.1792  1.2746
18485TIP3   OH276945   0.341   3.860   1.217 -0.4031  0.3705 -0.9402
18485TIP3    H176946   0.257   3.825   1.187 -2.0261  3.3531 -0.2474
18485TIP3    H276947   0.330   3.875   1.311  1.4195 -0.3983 -0.5500
18486TIP3   OH276948   1.736   4.287  16.923  0.6623 -0.5726 -0.6304
18486TIP3    H176949   1.782   4.335  16.855 -0.4542 -1.4654 -2.0846
18486TIP3    H276950   1.771   4.198  16.918 -0.9536 -1.1935 -1.5780
18487TIP3   OH276951   0.149   2.290  16.368 -0.4306 -0.2326 -0.2146
18487TIP3    H176952   0.177   2.212  16.417  0.7261 -0.2956 -0.9280
18487TIP3    H276953   0.163   2.363  16.428  0.5885 -0.3513 -0.2905
18488TIP3   OH276954   2.149   5.458   4.612 -0.1276  0.1156 -0.3843
18488TIP3    H176955   2.117   5.447   4.701  0.4451  1.9058  0.0766
18488TIP3    H276956   2.213   5.388   4.601 -0.5406 -0.4059  0.4386
18489TIP3   OH276957   3.222   1.260  12.115 -0.2612 -0.2086 -0.0209
18489TIP3    H176958   3.195   1.342  12.075 -1.7703 -0.4344  0.4748
18489TIP3    H276959   3.293   1.228  12.059 -2.6893 -0.8635 -2.9922
18490TIP3   OH276960   1.793   3.910  11.119 -0.2952 -0.1252 -0.4449
18490TIP3    H176961   1.740   3.990  11.121  0.0498  0.0962  0.6858
18490TIP3    H276962   1.795   3.885  11.027 -1.1551  0.6682 -0.6967
18491TIP3   OH276963   3.526   5.824  16.832 -0.2228  0.2293 -0.2028
18491TIP3    H176964   3.603   5.806  16.778  1.0327 -0.5597  1.7264
18491TIP3    H276965   3.473   5.744  16.826  0.3104 -0.1745  0.3314
18492TIP3   OH276966   6.543   5.754  17.142 -0.7366  0.1664  0.2111
18492TIP3    H176967   6.602   5.812  17.095 -1.2564  1.6117  1.2736
18492TIP3    H276968   6.455   5.786  17.119 -1.0592 -0.7817  0.0940
18493TIP3   OH276969   1.649   6.010  14.323  0.2585 -0.3633 -0.6631
18493TIP3    H176970   1.614   6.079  14.267  1.9622  1.0656 -0.0835
18493TIP3    H276971   1.619   5.928  14.284 -0.6351  0.6725 -2.2043
18494TIP3   OH276972   2.694   5.795   2.078 -0.5352  0.0650 -0.3882
18494TIP3    H176973   2.749   5.823   2.151  1.1858  1.0140 -1.9806
18494TIP3    H276974   2.632   5.733   2.117  0.7414  0.0494  1.7419
18495TIP3   OH276975   3.343   5.355  13.016  0.4822 -0.0872 -0.1664
18495TIP3    H176976   3.409   5.373  13.083 -0.3179  0.0020  0.6236
18495TIP3    H276977   3.260   5.356  13.064  0.0609 -2.2659 -0.7419
18496TIP3   OH276978   2.058   3.056   1.892  0.3666  0.5203  0.0189
18496TIP3    H176979   2.126   3.090   1.834  2.0699 -0.8460  1.1168
18496TIP3    H276980   2.029   3.132   1.943  0.8163  1.1823 -0.6950
18497TIP3   OH276981   4.308   3.864   1.404  0.0868  0.0392  0.7963
18497TIP3    H176982   4.317   3.955   1.432  1.1091 -0.1848  1.2400
18497TIP3    H276983   4.318   3.867   1.309  0.2965  0.3749  0.8264
18498TIP3   OH276984   0.772   3.775  13.587  0.1066  0.6046  0.1618
18498TIP3    H176985   0.831   3.847  13.563 -1.2275  1.4581 -0.6867
18498TIP3    H276986   0.820   3.726  13.654  1.7498  1.2870 -0.4671
18499TIP3   OH276987   1.766   5.633   5.241  0.3039 -0.0097 -0.1249
18499TIP3    H176988   1.708   5.622   5.316 -1.1131  0.0090 -1.1965
18499TIP3    H276989   1.777   5.728   5.234  1.2084 -0.0403  0.5997
18500TIP3   OH276990   2.083   3.357   0.716 -0.3451  0.0237 -0.4523
18500TIP3    H176991   2.054   3.320   0.800  0.4060 -0.2253 -0.2979
18500TIP3    H276992   2.104   3.448   0.737 -0.2512 -0.0116 -0.3934
18501TIP3   OH276993   4.559   6.113  12.388  0.3063  0.3401  1.2256
18501TIP3    H176994   4.625   6.086  12.324 -0.4320  0.8078  0.2356
18501TIP3    H276995   4.590   6.078  12.471  1.5453  0.1363  0.6948
18502TIP3   OH276996   4.349   1.495   1.687 -0.0644 -0.0205 -0.6007
18502TIP3    H176997   4.285   1.445   1.636 -1.3685  0.9465  0.0176
18502TIP3    H276998   4.296   1.546   1.748  1.2113  1.8406 -0.9452
18503TIP3   OH276999   3.025   5.663   2.368  0.1890  0.3682  0.8011
18503TIP3    H177000   3.096   5.629   2.424 -0.6459  0.0525  1.7085
18503TIP3    H277001   3.044   5.627   2.281  2.1101  1.7351  0.5975
18504TIP3   OH277002   2.441   1.275   3.621  0.2321 -0.1867  0.4321
18504TIP3    H177003   2.519   1.241   3.665  0.3947 -1.0760 -0.4983
18504TIP3    H277004   2.452   1.370   3.623  0.2028 -0.2015  2.3259
18505TIP3   OH277005   2.316   4.078   3.431 -0.7835 -0.2156  0.3030
18505TIP3    H177006   2.352   4.011   3.489 -0.0576  0.1832  0.3301
18505TIP3    H277007   2.355   4.057   3.345 -0.2401  0.3944  0.3948
18506TIP3   OH277008   0.814   0.370   5.808  0.0902  0.0194 -0.3123
18506TIP3    H177009   0.728   0.411   5.800  0.1796  0.1980 -0.3505
18506TIP3    H277010   0.807   0.314   5.885 -0.0619  0.0325 -0.3173
18507TIP3   OH277011   1.256   5.969  14.441 -0.7427 -0.0217  0.0405
18507TIP3    H177012   1.331   5.954  14.498 -1.5411 -1.0277  0.8610
18507TIP3    H277013   1.292   6.016  14.365  0.7104 -0.5460  0.3830
18508TIP3   OH277014   2.608   2.294   4.112  0.3677  0.0607 -0.2651
18508TIP3    H177015   2.677   2.266   4.052  0.4886  0.6369 -0.3961
18508TIP3    H277016   2.607   2.225   4.179  0.7881 -0.1652 -0.4813
18509TIP3   OH277017   3.737   3.955  16.285 -0.4181 -0.2372  0.4782
18509TIP3    H177018   3.801   4.025  16.300  1.1340 -1.0092 -1.9656
18509TIP3    H277019   3.695   3.943  16.370  2.0451  0.9485  1.9997
18510TIP3   OH277020   3.488   2.309  15.491  0.4083  0.4274 -0.2393
18510TIP3    H177021   3.520   2.299  15.402 -0.6919 -1.4393 -0.4969
18510TIP3    H277022   3.413   2.249  15.496  0.0202  1.0036  1.7280
18511TIP3   OH277023   0.368   6.081   3.173 -0.5045 -0.0937 -0.0464
18511TIP3    H177024   0.274   6.080   3.191 -0.5950  0.2415 -0.4632
18511TIP3    H277025   0.409   6.095   3.258 -0.6159 -3.7596  0.7406
18512TIP3   OH277026   0.538   5.721   6.189  0.4673 -0.4523  0.4473
18512TIP3    H177027   0.574   5.660   6.254  1.0533  0.5732  1.1075
18512TIP3    H277028   0.458   5.754   6.229  1.1055  0.5830  0.9031
18513TIP3   OH277029   4.744   1.542   5.543  0.4881  0.2928  0.1458
18513TIP3    H177030   4.793   1.495   5.476  0.4722  0.5099 -0.0194
18513TIP3    H277031   4.725   1.476   5.610 -1.2127 -0.4540 -0.9767
18514TIP3   OH277032   3.708   2.979  17.459  0.0764 -0.2478  0.6648
18514TIP3    H177033   3.640   3.029  17.412 -1.0415 -1.1532  1.2687
18514TIP3    H277034   3.743   3.041  17.523 -0.1629  0.2406  0.3365
18515TIP3   OH277035   1.393   6.693   1.535 -0.1589 -0.5398  0.0311
18515TIP3    H177036   1.474   6.659   1.497 -0.1688 -0.8210  0.2585
18515TIP3    H277037   1.420   6.767   1.589  0.0303 -1.0630  0.6633
18516TIP3   OH277038   2.232   3.304  14.737 -0.3476  0.1745 -0.1158
18516TIP3    H177039   2.266   3.226  14.692 -0.9440  0.4011 -0.9826
18516TIP3    H277040   2.164   3.337  14.679 -0.4420  1.0636  0.4885
18517TIP3   OH277041   2.183   6.119   4.919  0.5129  0.6698  0.2139
18517TIP3    H177042   2.243   6.181   4.961  0.0569  0.8247  0.6455
18517TIP3    H277043   2.230   6.035   4.921 -0.4032  0.1015  3.2550
18518TIP3   OH277044   6.387   2.335   4.193 -0.1217  0.3718  0.2164
18518TIP3    H177045   6.405   2.364   4.104  0.0529 -0.4029 -0.0071
18518TIP3    H277046   6.326   2.400   4.228 -0.4557  0.4978 -0.5827
18519TIP3   OH277047   2.848   6.656  16.877 -0.5484  0.6384  0.0133
18519TIP3    H177048   2.860   6.744  16.913  0.7818  0.6897 -0.5224
18519TIP3    H277049   2.802   6.670  16.794 -2.2846  0.6297  0.9168
18520TIP3   OH277050   4.711   5.084  15.413 -0.0331 -0.0759  0.4021
18520TIP3    H177051   4.769   5.050  15.481 -1.1522 -1.4253  0.7278
18520TIP3    H277052   4.694   5.174  15.439  2.1953  0.5057  0.0763
18521TIP3   OH277053   4.922   2.414   3.889 -0.0829  0.6310  0.0415
18521TIP3    H177054   4.903   2.403   3.796 -1.1690 -0.2789  0.3491
18521TIP3    H277055   4.843   2.454   3.925 -0.9463 -1.7822  1.0690
18522TIP3   OH277056   2.727   2.284  16.237  0.4596  0.0589  0.4400
18522TIP3    H177057   2.724   2.352  16.170  1.4772  1.4055  1.7018
18522TIP3    H277058   2.784   2.216  16.200 -1.1897 -0.5292 -1.1517
18523TIP3   OH277059   3.756   0.201   0.996 -0.0163 -0.3246  0.0453
18523TIP3    H177060   3.664   0.175   1.003  0.0667 -0.9047 -0.8752
18523TIP3    H277061   3.792   0.188   1.083 -0.6484 -0.7281  0.2499
18524TIP3   OH277062   0.618   3.968   6.182  0.3458  0.1402  0.4550
18524TIP3    H177063   0.607   3.958   6.276 -0.7356  0.5186  0.3904
18524TIP3    H277064   0.624   4.063   6.168  0.0720  0.1134  0.1179
18525TIP3   OH277065   0.533   5.650  14.412  0.6392 -0.2737 -0.0595
18525TIP3    H177066   0.542   5.599  14.332  1.7449 -0.5898  0.2543
18525TIP3    H277067   0.550   5.588  14.482  1.7301  0.4480  0.3406
18526TIP3   OH277068   0.214   0.289  12.714 -0.0467 -0.0785 -0.5108
18526TIP3    H177069   0.155   0.254  12.781  1.8208  0.0731  1.3234
18526TIP3    H277070   0.226   0.217  12.652 -2.7219  0.1536 -1.4081
18527TIP3   OH277071   4.141   0.120   2.882 -0.1068 -0.1154  0.4266
18527TIP3    H177072   4.062   0.173   2.879 -1.1005 -1.5325  0.7140
18527TIP3    H277073   4.122   0.045   2.825 -0.5199 -2.4718  3.4440
18528TIP3   OH277074   6.285   3.312   7.085  0.1291  0.1169 -0.1618
18528TIP3    H177075   6.201   3.267   7.080  0.1318  0.2653 -1.7697
18528TIP3    H277076   6.263   3.404   7.097  0.1237 -0.1751  2.9736
18529TIP3   OH277077   4.480   2.204   5.618  0.0888 -0.0756  0.0042
18529TIP3    H177078   4.518   2.145   5.554  0.5099  0.1321  0.0538
18529TIP3    H277079   4.483   2.156   5.701 -0.6062 -0.4044 -0.1626
18530TIP3   OH277080   4.754   2.154   3.719 -0.2120 -0.0308 -0.2659
18530TIP3    H177081   4.808   2.086   3.759 -1.8727 -2.1359 -1.3673
18530TIP3    H277082   4.699   2.186   3.790  1.5814  1.2986  0.5955
18531TIP3   OH277083   5.772   2.484  14.907 -0.3908 -0.2892 -0.0988
18531TIP3    H177084   5.690   2.449  14.872 -1.0161  0.4330  0.6002
18531TIP3    H277085   5.772   2.576  14.878  0.4120 -0.4111 -0.5055
18532TIP3   OH277086   0.519   1.184  14.269  0.1206  0.2527 -0.2471
18532TIP3    H177087   0.478   1.268  14.289  0.1141 -0.1104  1.4887
18532TIP3    H277088   0.499   1.129  14.346  0.9101 -1.0320 -0.9224
18533TIP3   OH277089   4.630   6.715  16.180  0.1325 -0.0899 -0.3116
18533TIP3    H177090   4.589   6.756  16.103 -1.4712  1.3171  1.1993
18533TIP3    H277091   4.643   6.787  16.242 -1.3810 -1.5329  1.8585
18534TIP3   OH277092   0.961   5.468   3.656  0.0664 -0.5510  0.2826
18534TIP3    H177093   0.903   5.392   3.644 -1.7103  0.8545 -0.5990
18534TIP3    H277094   0.938   5.527   3.584  1.7353  0.6369  0.6601
18535TIP3   OH277095   4.936   2.213  14.317  0.1978  0.4528  0.3647
18535TIP3    H177096   5.017   2.253  14.286  0.3186  0.8054  1.1068
18535TIP3    H277097   4.867   2.257  14.268  0.3973  0.8450  0.4327
18536TIP3   OH277098   4.144   2.677   1.927 -0.4273  0.1823  0.1257
18536TIP3    H177099   4.233   2.641   1.921  0.1821  1.7859 -1.3154
18536TIP3    H277100   4.131   2.692   2.021  0.9811  0.2357  0.3370
18537TIP3   OH277101   0.088   2.245  14.999  0.0498  0.0267  0.1951
18537TIP3    H177102   0.176   2.208  15.007 -0.5217 -1.8818 -1.6277
18537TIP3    H277103   0.060   2.259  15.090  2.0752  0.3901  0.8298
18538TIP3   OH277104   5.588   1.063  14.584 -0.3271  0.0018 -0.1202
18538TIP3    H177105   5.532   1.140  14.593  0.9351  0.7371  2.2194
18538TIP3    H277106   5.559   1.003  14.652  1.5543  0.3330  1.0447
18539TIP3   OH277107   4.947   2.818   1.792  0.2362 -0.2541 -0.3214
18539TIP3    H177108   4.894   2.785   1.720  0.5043  0.7266 -0.9830
18539TIP3    H277109   4.971   2.907   1.766  0.2834  0.1430  1.0079
18540TIP3   OH277110   3.150   2.684   3.471  0.0150  0.0336  0.0049
18540TIP3    H177111   3.096   2.688   3.393  0.7519  1.6105 -0.4800
18540TIP3    H277112   3.097   2.725   3.540  0.6242  1.8260 -0.5336
18541TIP3   OH277113   4.378   2.793   3.754 -0.8845  0.3849  0.0245
18541TIP3    H177114   4.321   2.801   3.678  2.1507  0.8956 -2.3812
18541TIP3    H277115   4.340   2.852   3.819 -1.7241  2.6862 -2.3858
18542TIP3   OH277116   0.463   1.017   5.380  0.2176  0.3291  0.7517
18542TIP3    H177117   0.452   1.071   5.302  0.1740  0.0060  0.5311
18542TIP3    H277118   0.520   0.945   5.351 -1.0084 -0.6097  0.6113
18543TIP3   OH277119   3.604   3.233  17.177 -0.0618  0.0739 -0.6986
18543TIP3    H177120   3.651   3.286  17.242  0.3505 -1.3073  0.1594
18543TIP3    H277121   3.663   3.231  17.102  1.0612 -1.1994  0.1752
18544TIP3   OH277122   6.635   2.710  16.971  0.6430 -0.6415 -0.6387
18544TIP3    H177123   6.707   2.696  16.909  0.3885 -0.8876 -0.8802
18544TIP3    H277124   6.568   2.648  16.944 -0.0859  0.3027 -1.0834
18545TIP3   OH277125   3.932   3.180   2.272  0.5452 -0.3580 -0.4415
18545TIP3    H177126   3.957   3.192   2.363  0.6750  1.1927 -0.6552
18545TIP3    H277127   3.837   3.187   2.272  0.6253  1.0294 -0.5807
18546TIP3   OH277128   3.747   3.526  12.941  0.3483 -0.5786 -0.3331
18546TIP3    H177129   3.658   3.492  12.929  0.0069  0.6322 -1.4143
18546TIP3    H277130   3.739   3.620  12.930  1.5981 -0.3139  0.6891
18547TIP3   OH277131   1.080   3.170  16.701 -0.1049 -0.4134 -0.1397
18547TIP3    H177132   0.996   3.147  16.741  0.9115  1.4010  3.4513
18547TIP3    H277133   1.070   3.262  16.676  1.0507  0.0659  1.1033
18548TIP3   OH277134   5.433   5.675  13.475 -0.6834 -0.0214 -0.2431
18548TIP3    H177135   5.440   5.734  13.400  1.3526  0.1489  0.0236
18548TIP3    H277136   5.386   5.726  13.541  1.2493  1.4852  0.0744
18549TIP3   OH277137   2.588   4.217   2.311 -0.6562 -0.0005 -0.5808
18549TIP3    H177138   2.597   4.135   2.262  1.0069  0.5616 -1.2892
18549TIP3    H277139   2.499   4.215   2.344 -0.3439 -2.5861  0.3361
18550TIP3   OH277140   1.142   3.426  17.290  0.2752  0.0842  0.0451
18550TIP3    H177141   1.237   3.429  17.291  0.2596  1.0984 -0.1957
18550TIP3    H277142   1.118   3.449  17.200 -0.2191  1.4788  0.5049
18551TIP3   OH277143   3.183   6.084  16.224 -0.2909  0.1397 -0.4484
18551TIP3    H177144   3.179   6.135  16.143  0.1554  0.3981 -0.3093
18551TIP3    H277145   3.125   6.010  16.208  0.7882 -0.5089 -1.4861
18552TIP3   OH277146   1.368   6.445  14.176 -0.2130  0.2278 -0.5811
18552TIP3    H177147   1.442   6.385  14.161  0.7086  0.5890  1.9122
18552TIP3    H277148   1.296   6.408  14.126  0.9932 -1.6066 -1.0590
18553TIP3   OH277149   1.821   4.483   3.730 -0.0744 -1.0388  0.6190
18553TIP3    H177150   1.871   4.458   3.651  0.6582 -0.7336  0.9728
18553TIP3    H277151   1.762   4.552   3.700  0.7512 -0.3733  0.4872
18554TIP3   OH277152   3.957   2.361  13.762 -0.7556 -0.2987  0.3988
18554TIP3    H177153   4.040   2.316  13.777 -1.4838 -2.1268 -0.6337
18554TIP3    H277154   3.931   2.334  13.673 -1.2524  2.2532 -0.3287
18555TIP3   OH277155   4.687   6.469  16.757 -0.3226 -0.3842  0.2847
18555TIP3    H177156   4.723   6.483  16.669  0.4793  0.7474  0.7733
18555TIP3    H277157   4.616   6.406  16.743 -0.5309  0.1365 -1.2453
18556TIP3   OH277158   4.641   4.597   6.557  0.4185 -0.4703 -0.2993
18556TIP3    H177159   4.700   4.664   6.522 -0.0483  0.8263  1.2827
18556TIP3    H277160   4.652   4.602   6.652 -0.7216 -1.6318 -0.0713
18557TIP3   OH277161   4.602   6.650   1.012  0.1077  0.1659 -0.8590
18557TIP3    H177162   4.640   6.630   1.098 -1.3820 -2.2796 -0.6521
18557TIP3    H277163   4.532   6.712   1.030  0.5960  0.6308 -0.5132
18558TIP3   OH277164   5.902   5.473  14.436 -0.4458  0.5475 -0.6427
18558TIP3    H177165   5.861   5.547  14.481  0.1800 -0.5915  1.9367
18558TIP3    H277166   5.994   5.500  14.426  0.1909 -0.4594  1.8506
18559TIP3   OH277167   4.771   3.059  13.577  0.1293 -0.0509 -0.0755
18559TIP3    H177168   4.796   2.967  13.574  1.0278  0.1070  1.6104
18559TIP3    H277169   4.767   3.085  13.485 -3.6521 -2.6154 -0.8816
18560TIP3   OH277170   5.460   3.997  14.666 -0.0901  0.2479 -0.2106
18560TIP3    H177171   5.406   4.031  14.594 -1.6250 -0.2532  0.6627
18560TIP3    H277172   5.485   3.909  14.638  0.7465  0.6698 -0.8421
18561TIP3   OH277173   0.404   4.427   0.867  0.5322 -0.3961  0.2685
18561TIP3    H177174   0.387   4.517   0.839 -1.2463 -1.1523 -1.2778
18561TIP3    H277175   0.482   4.402   0.818 -0.9158 -0.7512 -2.0102
18562TIP3   OH277176   6.565   5.614   4.918  0.4675  0.1294 -0.2469
18562TIP3    H177177   6.530   5.597   5.005 -0.6647 -0.3332 -0.7704
18562TIP3    H277178   6.562   5.709   4.909 -1.3652  0.0671 -0.5368
18563TIP3   OH277179   5.584   1.533   4.741 -0.1378 -0.1704  0.2470
18563TIP3    H177180   5.664   1.505   4.695 -1.1836  0.5504 -2.2064
18563TIP3    H277181   5.520   1.465   4.721 -1.0128  0.8749 -0.6173
18564TIP3   OH277182   3.865   3.517   3.222  0.1374  0.0821 -0.0105
18564TIP3    H177183   3.806   3.590   3.239  1.2357  0.7778  0.9497
18564TIP3    H277184   3.903   3.536   3.136  0.7922  0.9300  0.4489
18565TIP3   OH277185   0.179   2.905  13.898  0.1750  0.1239 -0.3915
18565TIP3    H177186   0.109   2.919  13.962 -0.8407 -1.2553 -1.1204
18565TIP3    H277187   0.132   2.888  13.816  1.3201 -1.8093 -0.6950
18566TIP3   OH277188   3.473   3.385   1.301  0.2770 -0.2710 -0.1724
18566TIP3    H177189   3.397   3.330   1.280  0.9674 -0.5381 -2.2341
18566TIP3    H277190   3.437   3.473   1.312 -0.5161 -0.6699  0.5425
18567TIP3   OH277191   0.721   5.624   4.318  0.0746 -0.0658 -0.6252
18567TIP3    H177192   0.730   5.584   4.405 -3.3446  2.3421  1.0310
18567TIP3    H277193   0.723   5.718   4.334 -0.1249  0.4836 -3.2997
18568TIP3   OH277194   2.856   6.234   4.827 -0.1470  0.1308  0.1831
18568TIP3    H177195   2.815   6.317   4.851  0.5582  0.5520 -0.0298
18568TIP3    H277196   2.800   6.167   4.867 -0.8837  0.6906  0.1196
18569TIP3   OH277197   6.446   4.311   6.298  0.4851  0.0679  0.0460
18569TIP3    H177198   6.396   4.238   6.263  0.9821 -0.0710 -0.4043
18569TIP3    H277199   6.462   4.288   6.389 -0.5647  0.2827  0.2917
18570TIP3   OH277200   3.215   1.740   0.512 -0.1775 -0.2654  0.1318
18570TIP3    H177201   3.155   1.801   0.555 -1.2053 -1.1590 -0.0050
18570TIP3    H277202   3.174   1.720   0.428 -0.9220 -2.6720  0.9809
18571TIP3   OH277203   4.129   0.965  16.376  0.3627 -0.2475 -0.5926
18571TIP3    H177204   4.167   0.902  16.316 -0.2289 -1.7226  0.5308
18571TIP3    H277205   4.063   1.011  16.325  0.5164 -0.8264 -1.3200
18572TIP3   OH277206   5.484   5.423  14.585 -0.0682  0.0052  0.2361
18572TIP3    H177207   5.492   5.347  14.643  0.0018  0.1286  0.3903
18572TIP3    H277208   5.538   5.402  14.510 -1.3163 -0.7954 -0.4706
18573TIP3   OH277209   2.519   2.204   5.192  0.0301  0.6811  0.0912
18573TIP3    H177210   2.595   2.196   5.250 -0.4067  0.1695  0.6105
18573TIP3    H277211   2.556   2.227   5.107  0.9414 -1.5100 -0.1537
18574TIP3   OH277212   3.135   0.679   3.241  0.1351  0.3862 -0.2393
18574TIP3    H177213   3.123   0.719   3.154 -1.4465 -0.4847 -0.4652
18574TIP3    H277214   3.082   0.734   3.299  0.9429  0.7852  0.1292
18575TIP3   OH277215   6.000   1.431  15.736  0.3336 -0.6463  0.5892
18575TIP3    H177216   6.041   1.517  15.732  3.2623 -1.7841  2.2096
18575TIP3    H277217   6.070   1.373  15.766 -1.5794 -3.5623 -0.1250
18576TIP3   OH277218   3.777   3.770  14.159 -0.1163  0.2068 -0.1114
18576TIP3    H177219   3.731   3.753  14.241 -0.1753 -1.8990 -0.5251
18576TIP3    H277220   3.854   3.821  14.185 -2.6713  4.1178  0.5401
18577TIP3   OH277221   5.265   6.187   0.221 -0.2311  0.3710  0.0492
18577TIP3    H177222   5.222   6.269   0.246  0.2627  0.5128  0.4459
18577TIP3    H277223   5.354   6.212   0.198 -0.6674  0.2439 -1.9034
18578TIP3   OH277224   1.181   5.759  16.636 -0.6257  0.6221 -0.5096
18578TIP3    H177225   1.199   5.730  16.726 -0.3692  0.5843 -0.5755
18578TIP3    H277226   1.198   5.683  16.582 -1.3469  0.4704 -0.5353
18579TIP3   OH277227   4.576   0.136   6.418 -0.2816 -0.0159  0.1330
18579TIP3    H177228   4.577   0.231   6.410  1.2703  0.0922  1.1301
18579TIP3    H277229   4.545   0.119   6.507 -1.5554 -0.5046 -0.3812
18580TIP3   OH277230   2.799   3.357   0.321 -0.4632 -0.4118  0.1696
18580TIP3    H177231   2.716   3.309   0.328 -0.7056 -0.0289 -0.0406
18580TIP3    H277232   2.794   3.401   0.236 -0.0654 -0.3442  0.1812
18581TIP3   OH277233   4.435   0.427  11.191 -0.6580 -0.1662 -0.1759
18581TIP3    H177234   4.381   0.405  11.116 -0.5463 -0.7951 -0.0822
18581TIP3    H277235   4.425   0.352  11.251  0.8009 -0.6199 -0.4358
18582TIP3   OH277236   0.968   4.950   4.257  0.1003 -0.3840 -0.1132
18582TIP3    H177237   0.896   4.889   4.247  0.8448 -1.4269  0.7005
18582TIP3    H277238   0.959   5.011   4.184 -0.9676 -1.1379 -0.6219
18583TIP3   OH277239   4.139   2.518  16.720 -0.1751 -0.5456  0.0104
18583TIP3    H177240   4.202   2.463  16.766 -0.3810  0.4073  1.5194
18583TIP3    H277241   4.179   2.605  16.720 -1.0397 -0.1373  0.0943
18584TIP3   OH277242   2.249   5.781   4.819  0.4166  0.0162  0.0085
18584TIP3    H177243   2.226   5.689   4.827  0.4502 -0.0488 -0.5594
18584TIP3    H277244   2.183   5.817   4.759  0.3150  0.3933  0.3447
18585TIP3   OH277245   3.869   4.453  16.304 -0.3080  0.0920 -0.0972
18585TIP3    H177246   3.817   4.513  16.358  1.4610  1.5377  0.1160
18585TIP3    H277247   3.913   4.395  16.366 -0.3357  0.0132 -0.1503
18586TIP3   OH277248   6.458   2.238  14.910 -0.3184 -0.0616  0.1263
18586TIP3    H177249   6.456   2.216  14.817  1.8568 -1.7398  0.3792
18586TIP3    H277250   6.526   2.181  14.946 -0.4538  1.2055  2.5868
18587TIP3   OH277251   2.432   2.095   2.112  0.5861  0.4605 -0.0579
18587TIP3    H177252   2.454   2.030   2.045  1.4457  0.2389  0.4291
18587TIP3    H277253   2.408   2.043   2.188  1.3839  0.7043  0.3703
18588TIP3   OH277254   1.980   2.454  15.059  0.4746  0.0483  0.1994
18588TIP3    H177255   2.023   2.533  15.092  1.1011  0.0108 -0.4913
18588TIP3    H277256   1.936   2.483  14.979 -3.8261  0.9430  2.5625
18589TIP3   OH277257   4.711   5.306   1.112  0.5999  0.1027  0.3866
18589TIP3    H177258   4.726   5.235   1.050  0.8157 -0.0224  0.5812
18589TIP3    H277259   4.621   5.292   1.141  0.4844  0.1870  0.0707
18590TIP3   OH277260   5.275   3.412  17.253 -0.7072 -0.1940 -0.2494
18590TIP3    H177261   5.188   3.444  17.279 -0.9390 -0.7734 -0.2843
18590TIP3    H277262   5.302   3.471  17.182 -1.2075 -0.1957 -0.4467
18591TIP3   OH277263   4.982   5.088   6.081 -0.4075 -0.4905 -0.1965
18591TIP3    H177264   5.007   5.002   6.046  2.7561 -1.3222  3.4477
18591TIP3    H277265   4.925   5.068   6.155 -0.2074  0.5998  0.2561
18592TIP3   OH277266   6.217   4.698   3.072 -0.3154 -0.1665 -0.3472
18592TIP3    H177267   6.238   4.762   3.005  0.0316 -1.7119 -1.7920
18592TIP3    H277268   6.281   4.628   3.060 -1.3353 -1.2915  0.4530
18593TIP3   OH277269   0.617   4.245   4.207 -0.3704 -0.0964  0.1541
18593TIP3    H177270   0.561   4.289   4.143 -0.0310 -0.0371 -0.0995
18593TIP3    H277271   0.578   4.158   4.217  0.7365 -0.8503 -1.6513
18594TIP3   OH277272   1.533   3.653   5.488  0.1730 -0.4314 -0.0209
18594TIP3    H177273   1.524   3.590   5.417 -1.5434 -0.5893  0.2872
18594TIP3    H277274   1.627   3.665   5.498  0.4778 -0.5795 -2.1578
18595TIP3   OH277275   5.788   3.773  11.533  0.6705 -0.1936 -0.2060
18595TIP3    H177276   5.742   3.842  11.484 -0.0125 -1.1255 -0.9090
18595TIP3    H277277   5.806   3.812  11.618  0.1175  0.7859 -0.5201
18596TIP3   OH277278   2.291   6.299   5.138 -0.1639  0.3492  0.0497
18596TIP3    H177279   2.313   6.255   5.220 -1.1834 -0.6427 -0.1767
18596TIP3    H277280   2.365   6.357   5.121  0.2115  0.3383  1.4995
18597TIP3   OH277281   1.340   6.500   3.284  0.3965  0.1110 -0.5229
18597TIP3    H177282   1.275   6.488   3.215 -0.7904 -1.9945  0.8578
18597TIP3    H277283   1.400   6.426   3.273  1.2158  0.7430 -0.3643
18598TIP3   OH277284   5.808   5.695  14.545 -0.4614  0.1527 -0.0541
18598TIP3    H177285   5.848   5.740  14.619 -0.4909 -2.1987  1.4932
18598TIP3    H277286   5.724   5.739  14.533  0.1900  1.5476  0.2991
18599TIP3   OH277287   1.845   2.231  13.651  0.5605 -0.1873  0.3363
18599TIP3    H177288   1.812   2.318  13.672  1.6978  0.1349  0.8548
18599TIP3    H277289   1.767   2.175  13.651 -0.3936  1.0698 -1.4940
18600TIP3   OH277290   4.977   5.351  13.651  0.1398  0.6726  0.3843
18600TIP3    H177291   5.059   5.311  13.623 -1.3672 -1.1681 -1.8673
18600TIP3    H277292   4.999   5.442  13.667  2.2622  0.7652 -2.2508
18601TIP3   OH277293   0.411   0.283  13.160  0.6510 -0.0805 -0.4342
18601TIP3    H177294   0.318   0.284  13.140  0.6586  0.1312 -0.4652
18601TIP3    H277295   0.426   0.199  13.202  0.1607  0.4789  0.9120
18602TIP3   OH277296   3.661   2.320  13.592 -0.0163 -0.5378 -0.8286
18602TIP3    H177297   3.745   2.313  13.547 -0.3020 -2.8731 -1.1056
18602TIP3    H277298   3.642   2.232  13.623 -1.9148  0.1261  0.0952
18603TIP3   OH277299   0.043   6.458   4.748  0.3852 -0.3228  0.1573
18603TIP3    H177300   0.055   6.364   4.734  0.2105 -0.7364  2.4275
18603TIP3    H277301   0.039   6.468   4.843  1.6475  2.1396  0.0409
18604TIP3   OH277302   3.112   6.153  15.964 -0.0686 -0.3000 -0.1536
18604TIP3    H177303   3.021   6.173  15.941 -0.7855 -1.1095  1.7497
18604TIP3    H277304   3.138   6.083  15.903 -1.0123 -0.6248 -0.1988
18605TIP3   OH277305   5.740   0.925  16.728  0.3443 -0.2400 -0.2361
18605TIP3    H177306   5.683   0.873  16.672  0.1112 -1.8204  1.3747
18605TIP3    H277307   5.820   0.937  16.677  0.0999 -1.5325 -0.9628
18606TIP3   OH277308   3.316   2.611  15.507 -0.0377 -0.1632 -0.7746
18606TIP3    H177309   3.364   2.689  15.534  0.1636 -0.9446  1.3004
18606TIP3    H277310   3.333   2.547  15.577 -0.7437 -1.8417 -2.0723
18607TIP3   OH277311   3.210   5.398  16.148 -0.2485  0.2610  0.2984
18607TIP3    H177312   3.189   5.468  16.209  0.1278 -0.8403  1.7482
18607TIP3    H277313   3.126   5.378  16.105 -0.3023  1.7318 -0.3110
18608TIP3   OH277314   0.633   4.894  15.146  0.1647 -0.3209  0.3161
18608TIP3    H177315   0.601   4.917  15.059 -0.1954 -1.8230  0.0109
18608TIP3    H277316   0.554   4.868  15.194  0.2097  1.4312  1.4535
18609TIP3   OH277317   4.317   0.326  16.703 -0.4420  0.1297  0.3750
18609TIP3    H177318   4.290   0.417  16.710  3.6961  2.0280 -3.4832
18609TIP3    H277319   4.382   0.315  16.773  1.0768  1.1674 -0.8099
18610TIP3   OH277320   2.628   5.069  14.201 -0.3191  0.0519  0.0976
18610TIP3    H177321   2.648   5.129  14.273 -2.0843 -0.1820  0.8291
18610TIP3    H277322   2.705   5.073  14.145  0.4370  1.4702  1.1673
18611TIP3   OH277323   6.355   3.085   2.883  0.1409 -0.4311  0.3698
18611TIP3    H177324   6.316   3.032   2.814 -0.9899 -2.2584  2.2540
18611TIP3    H277325   6.441   3.045   2.898  0.6519  0.3633 -0.3663
18612TIP3   OH277326   1.811   0.839  11.002  0.4085  0.1567  0.5708
18612TIP3    H177327   1.781   0.831  10.911 -4.2578  0.9670  1.7885
18612TIP3    H277328   1.853   0.755  11.021 -1.3203 -1.2586 -1.4737
18613TIP3   OH277329   1.790   2.126   4.083  0.3551  0.0532  0.5691
18613TIP3    H177330   1.705   2.171   4.080 -0.3305 -0.9097  2.9592
18613TIP3    H277331   1.770   2.037   4.056  0.7187 -0.0404  0.6053
18614TIP3   OH277332   1.339   1.517  14.387  0.5058 -0.4373  0.5617
18614TIP3    H177333   1.431   1.501  14.365  1.2288 -1.3851  3.7548
18614TIP3    H277334   1.291   1.443  14.351  1.0075 -0.0958 -0.8499
18615TIP3   OH277335   5.109   3.827   4.944  0.1805  0.2113  0.2489
18615TIP3    H177336   5.039   3.760   4.944  1.0211 -0.7164 -1.1479
18615TIP3    H277337   5.190   3.776   4.946  0.8327  1.2111 -0.1598
18616TIP3   OH277338   2.983   0.372  13.104  0.3410  0.2384  1.3496
18616TIP3    H177339   2.900   0.350  13.146  0.1450 -1.6713  0.0886
18616TIP3    H277340   2.974   0.464  13.080 -0.9718  0.3525  2.2098
18617TIP3   OH277341   3.237   2.677   6.545 -0.0126  0.4807 -1.0818
18617TIP3    H177342   3.218   2.734   6.471  0.8905 -0.3279 -1.9690
18617TIP3    H277343   3.315   2.714   6.585 -0.7539  1.1717 -0.2422
18618TIP3   OH277344   4.045   6.044   2.476 -0.0905 -0.0304 -0.0266
18618TIP3    H177345   3.971   5.997   2.438 -0.0329 -1.6574  1.7472
18618TIP3    H277346   4.084   6.091   2.402 -0.3771 -2.4680 -1.8517
18619TIP3   OH277347   6.626   0.377  11.763  0.2142 -0.2052 -0.1435
18619TIP3    H177348   6.714   0.377  11.801  0.4517 -0.5293 -0.6942
18619TIP3    H277349   6.587   0.296  11.795 -0.4487  0.6628  1.3720
18620TIP3   OH277350   1.617   6.597  11.988 -0.6063  0.0049  0.0742
18620TIP3    H177351   1.588   6.573  12.076 -1.8886 -0.0490 -0.3492
18620TIP3    H277352   1.617   6.515  11.940 -1.1410  0.2215 -0.3073
18621TIP3   OH277353   2.742   4.569   0.341  0.1278 -0.4109 -0.7113
18621TIP3    H177354   2.728   4.662   0.323  1.0803 -0.3237 -1.0841
18621TIP3    H277355   2.735   4.527   0.256 -0.9444 -0.7810 -0.4528
18622TIP3   OH277356   4.197   3.351  16.805 -0.2246 -0.9995  0.2873
18622TIP3    H177357   4.154   3.430  16.836  0.7566 -0.1930 -0.3457
18622TIP3    H277358   4.152   3.329  16.724  1.2801  0.5667 -1.0517
18623TIP3   OH277359   0.015   2.769   2.592  0.2746  0.2985 -0.2245
18623TIP3    H177360   0.079   2.791   2.659 -0.3010  0.6819  0.2109
18623TIP3    H277361   0.013   2.674   2.589  2.2724  0.2450 -1.6072
18624TIP3   OH277362   4.407   1.914   4.662  0.7196 -0.1321 -0.0232
18624TIP3    H177363   4.436   1.876   4.579 -0.3083 -0.2952 -0.3177
18624TIP3    H277364   4.363   1.842   4.707  0.1433  0.2984  0.1032
18625TIP3   OH277365   1.281   0.961   3.893 -0.6563 -0.0010 -0.5504
18625TIP3    H177366   1.292   0.870   3.865  0.6385  0.2502 -0.8876
18625TIP3    H277367   1.367   0.986   3.927 -0.9313  1.1800 -0.7032
18626TIP3   OH277368   0.958   3.760   6.479  0.3154 -0.1447 -0.0749
18626TIP3    H177369   0.869   3.737   6.452  0.5970  0.5832 -1.7041
18626TIP3    H277370   0.946   3.816   6.556 -0.6919  0.7448 -0.8545
18627TIP3   OH277371   4.842   1.975  16.559  0.5121 -0.5259 -0.0174
18627TIP3    H177372   4.841   2.070  16.572  3.0944  0.0737 -2.8283
18627TIP3    H277373   4.797   1.963  16.475  3.6797 -1.1138 -1.8076
18628TIP3   OH277374   3.653   6.378   4.885 -0.1407 -0.5494 -0.5695
18628TIP3    H177375   3.594   6.320   4.835 -1.6224 -0.3959  0.8859
18628TIP3    H277376   3.715   6.318   4.927 -0.2853 -0.8845 -0.8284
18629TIP3   OH277377   1.745   3.754   2.645 -0.3028  0.1461 -0.1089
18629TIP3    H177378   1.784   3.728   2.728 -2.1542 -0.2296  0.6832
18629TIP3    H277379   1.732   3.672   2.597 -0.9195  0.1750  0.0040
18630TIP3   OH277380   2.563   4.609  15.920 -0.4885  0.3508 -0.2779
18630TIP3    H177381   2.561   4.549  15.846  1.6824 -0.1387 -0.0193
18630TIP3    H277382   2.506   4.568  15.986  1.0477 -1.5884 -0.0464
18631TIP3   OH277383   2.059   4.306  12.988 -0.6374 -0.2010 -0.4530
18631TIP3    H177384   1.983   4.354  13.021 -0.6181 -0.7969  0.4936
18631TIP3    H277385   2.128   4.372  12.980 -0.6432 -0.0297  0.7297
18632TIP3   OH277386   0.980   5.809   5.137  0.5011  0.1735  0.3142
18632TIP3    H177387   0.884   5.801   5.134  0.3519  1.7848 -0.2067
18632TIP3    H277388   1.008   5.739   5.196 -1.1700  0.7670  1.9150
18633TIP3   OH277389   3.868   0.336   6.087  0.0372  0.0068 -0.0467
18633TIP3    H177390   3.898   0.312   6.174  0.2264  1.1141  0.2052
18633TIP3    H277391   3.808   0.265   6.062  1.7064 -1.5047  0.0196
18634TIP3   OH277392   1.981   4.653   4.422  0.2847  0.1880 -0.0736
18634TIP3    H177393   1.953   4.587   4.358 -1.0431  0.7855 -0.1464
18634TIP3    H277394   1.901   4.700   4.445  1.0949  1.3957  0.4163
18635TIP3   OH277395   6.657   5.460  17.465  0.1702  0.1151  0.4083
18635TIP3    H177396   6.586   5.434  17.407  0.1037  0.1404  0.4778
18635TIP3    H277397   6.659   5.392  17.532  0.7428 -0.3140 -0.0394
18636TIP3   OH277398   0.502   5.870   1.590  0.0774  0.5059  0.2776
18636TIP3    H177399   0.425   5.881   1.647 -0.1261  1.0663 -0.1001
18636TIP3    H277400   0.479   5.796   1.533  0.1825  0.1024  0.7489
18637TIP3   OH277401   2.734   5.502   3.194  0.3299  0.1818  0.1436
18637TIP3    H177402   2.760   5.423   3.242  0.0245 -0.1054 -0.1561
18637TIP3    H277403   2.663   5.540   3.246  0.6831  0.4350  0.4507
18638TIP3   OH277404   2.232   6.198   0.203  0.3576 -0.4125 -0.5573
18638TIP3    H177405   2.222   6.146   0.283  2.4356  0.0613  0.0686
18638TIP3    H277406   2.217   6.136   0.132 -0.2855 -1.1308  0.1778
18639TIP3   OH277407   5.406   1.526   5.562  0.0695 -0.1907  0.0494
18639TIP3    H177408   5.369   1.607   5.527 -2.5661 -0.3222  2.1964
18639TIP3    H277409   5.485   1.553   5.607 -0.4558  1.1201  0.2390
18640TIP3   OH277410   6.618   0.726  13.039 -0.0535  0.2447 -0.0746
18640TIP3    H177411   6.599   0.818  13.022 -0.5356  0.0246 -0.7851
18640TIP3    H277412   6.711   0.716  13.020 -0.3242  0.2649 -1.5236
18641TIP3   OH277413   5.563   4.837  15.759  0.1355  0.0292 -0.1306
18641TIP3    H177414   5.655   4.852  15.737  0.3498 -0.8110  0.1315
18641TIP3    H277415   5.526   4.797  15.680  0.1109 -0.0528 -0.0776
18642TIP3   OH277416   3.618   5.557   0.514 -0.0972 -0.2803 -0.0271
18642TIP3    H177417   3.678   5.586   0.445  1.7591  0.9552  1.9764
18642TIP3    H277418   3.625   5.462   0.514 -1.5762 -0.4912 -2.6821
18643TIP3   OH277419   5.348   3.877   5.208  0.1462  0.1830 -0.0495
18643TIP3    H177420   5.390   3.815   5.149  1.6448  0.8285  0.2865
18643TIP3    H277421   5.280   3.827   5.252  2.1335 -1.6152  1.1554
18644TIP3   OH277422   2.854   3.018  16.937  0.3478 -0.8200 -0.7116
18644TIP3    H177423   2.779   2.990  16.885 -0.9615  0.4417  0.4140
18644TIP3    H277424   2.833   3.108  16.964  2.3621 -0.3486 -0.5222
18645TIP3   OH277425   4.718   4.860  15.241  0.3171 -0.2028 -0.3119
18645TIP3    H177426   4.684   4.912  15.169 -3.8464 -1.0494  0.7794
18645TIP3    H277427   4.774   4.920  15.290 -2.5115  2.7548 -0.3374
18646TIP3   OH277428   5.625   4.759  11.233  0.4979 -0.1901 -0.2750
18646TIP3    H177429   5.710   4.743  11.273  0.4722  2.0604  0.8561
18646TIP3    H277430   5.644   4.776  11.141  1.2987  0.4713  0.0053
18647TIP3   OH277431   2.929   6.524  12.378 -0.2056 -0.0303 -0.7046
18647TIP3    H177432   2.877   6.521  12.458 -0.1142  2.1377 -0.5125
18647TIP3    H277433   3.004   6.579  12.400 -0.6896  1.4586 -2.5151
18648TIP3   OH277434   2.046   5.256   0.353  0.1992  0.0656  0.5075
18648TIP3    H177435   2.037   5.168   0.317 -0.3919  0.4292 -0.2607
18648TIP3    H277436   1.969   5.267   0.408 -0.1831  0.4151 -0.0883
18649TIP3   OH277437   1.247   6.208   3.889  0.0945 -0.4649 -0.3116
18649TIP3    H177438   1.254   6.133   3.830 -0.2783 -0.9149  0.2084
18649TIP3    H277439   1.154   6.225   3.897  0.2161  0.8550 -1.4008
18650TIP3   OH277440   6.406   2.752   3.704 -0.0339  0.1650  0.3789
18650TIP3    H177441   6.470   2.702   3.755  0.4253  0.6444  0.2907
18650TIP3    H277442   6.449   2.837   3.689 -0.4499  0.2794 -0.1951
18651TIP3   OH277443   2.136   4.538   4.889 -0.3428 -0.1968 -0.3585
18651TIP3    H177444   2.201   4.471   4.911 -0.0557  0.2391  0.1533
18651TIP3    H277445   2.125   4.531   4.795  2.5323  1.5419 -0.9384
18652TIP3   OH277446   1.904   6.049   3.622  0.2433  0.1733 -0.4937
18652TIP3    H177447   1.987   6.084   3.656  0.5192 -0.4123 -0.5560
18652TIP3    H277448   1.843   6.123   3.629  0.7782  0.6267 -0.4889
18653TIP3   OH277449   1.596   0.333  12.914  0.3250  0.2315 -0.8890
18653TIP3    H177450   1.679   0.295  12.886 -0.0368 -0.9970 -0.3572
18653TIP3    H277451   1.570   0.280  12.989 -1.4619 -0.1045 -1.6950
18654TIP3   OH277452   4.406   3.337   5.466 -0.4334  0.2346 -0.2134
18654TIP3    H177453   4.377   3.424   5.492 -0.2050  0.3244 -0.2603
18654TIP3    H277454   4.435   3.296   5.547 -1.3097 -0.0978 -0.0518
18655TIP3   OH277455   5.855   1.842   2.644 -0.3967 -0.0909  0.3161
18655TIP3    H177456   5.846   1.922   2.696  0.6241 -0.1706  0.6277
18655TIP3    H277457   5.938   1.804   2.673 -1.2454 -1.6923  0.7599
18656TIP3   OH277458   4.335   5.716   2.791 -0.8876 -0.2030  0.2435
18656TIP3    H177459   4.261   5.666   2.825 -0.8969 -0.6597 -0.4170
18656TIP3    H277460   4.300   5.759   2.713 -0.5467 -0.1622  0.1129
18657TIP3   OH277461   5.459   1.757  12.937  0.3125 -0.3684 -0.2440
18657TIP3    H177462   5.463   1.662  12.922 -1.1357 -0.9129  2.0936
18657TIP3    H277463   5.503   1.769  13.021  0.7983  1.1177 -0.6865
18658TIP3   OH277464   1.604   2.999  15.428 -0.0751  0.1680 -0.0606
18658TIP3    H177465   1.631   2.927  15.371  2.3737 -0.2832  1.5437
18658TIP3    H277466   1.534   2.962  15.483 -0.1951 -0.3570 -0.5671
18659TIP3   OH277467   5.153   1.012   2.020 -0.0883  0.4789 -0.1280
18659TIP3    H177468   5.093   1.087   2.028  1.2763  1.7021 -0.7793
18659TIP3    H277469   5.155   0.994   1.926  0.0673  0.0357 -0.0384
18660TIP3   OH277470   1.043   6.180  10.892  0.3497 -0.4012  0.6711
18660TIP3    H177471   1.037   6.175  10.987  1.5501 -0.0005  0.7783
18660TIP3    H277472   1.073   6.093  10.866  0.5328 -0.3458  0.6992
18661TIP3   OH277473   3.996   1.169  12.885 -0.5234  0.0768  0.4426
18661TIP3    H177474   3.952   1.227  12.823 -0.1189 -0.1568 -0.0782
18661TIP3    H277475   4.061   1.225  12.928  0.3059 -0.1141 -0.5148
18662TIP3   OH277476   0.890   4.650   4.532  0.0318 -0.0046  0.4593
18662TIP3    H177477   0.834   4.674   4.458  0.2625  1.1922  0.6484
18662TIP3    H277478   0.897   4.555   4.527  1.1186  0.1100 -1.8854
18663TIP3   OH277479   0.346   0.672  15.791  0.4182  0.5111 -0.0014
18663TIP3    H177480   0.284   0.678  15.864 -1.7299 -1.7203 -1.4965
18663TIP3    H277481   0.394   0.755  15.793 -0.8052  1.2637  2.7965
18664TIP3   OH277482   2.731   4.376  16.091 -0.2225  0.4004 -0.4108
18664TIP3    H177483   2.807   4.431  16.109  0.0420  0.0897 -0.5803
18664TIP3    H277484   2.740   4.352  15.999 -1.2833  1.5487 -0.8598
18665TIP3   OH277485   0.673   0.270  11.612 -0.1450  0.1532  0.6710
18665TIP3    H177486   0.666   0.344  11.552  1.7986  1.3837  1.8708
18665TIP3    H277487   0.660   0.308  11.699  2.7928 -0.4843  1.4909
18666TIP3   OH277488   2.016   0.069   0.478 -0.1913 -0.1110  0.5434
18666TIP3    H177489   1.980   0.059   0.566 -1.0147  0.6740  0.3080
18666TIP3    H277490   1.973   0.001   0.427 -1.8948  1.2229  0.1158
18667TIP3   OH277491   0.310   5.200   3.863 -0.9834  0.2487  0.2722
18667TIP3    H177492   0.330   5.181   3.954 -0.3724 -1.9831 -0.2628
18667TIP3    H277493   0.243   5.135   3.839 -0.6059  0.3134 -1.0423
18668TIP3   OH277494   2.252   5.395   1.709  0.1155  0.2037  0.4104
18668TIP3    H177495   2.341   5.359   1.711  1.1124  2.4549 -0.1365
18668TIP3    H277496   2.223   5.391   1.800  0.8992 -0.2448  0.6559
18669TIP3   OH277497   5.619   0.606   0.763 -0.5933 -0.4491  0.7882
18669TIP3    H177498   5.694   0.547   0.765 -0.0723  0.1731  0.2728
18669TIP3    H277499   5.543   0.549   0.753 -0.0328 -0.9791 -0.6875
18670TIP3   OH277500   3.106   1.078  16.558  0.3287  0.3790  0.2719
18670TIP3    H177501   3.086   0.989  16.587  0.0100  0.7759  1.3250
18670TIP3    H277502   3.201   1.082  16.557  0.3456  0.1440  0.6379
18671TIP3   OH277503   6.458   4.824   5.328  0.8286  0.1680  0.1977
18671TIP3    H177504   6.472   4.918   5.344  2.8748 -0.0193 -0.1580
18671TIP3    H277505   6.475   4.783   5.412 -1.2425  0.1801  0.6519
18672TIP3   OH277506   2.748   6.429   5.325 -0.2421 -0.4284 -0.0760
18672TIP3    H177507   2.721   6.520   5.329  3.7033  0.8620  1.7637
18672TIP3    H277508   2.816   6.427   5.258  1.1570 -1.4964  1.2984
18673TIP3   OH277509   2.782   4.156   1.151 -0.1814 -0.0037  0.1129
18673TIP3    H177510   2.850   4.223   1.163 -0.5099  0.3255  0.1508
18673TIP3    H277511   2.757   4.132   1.240 -0.7410  0.5175  0.0984
18674TIP3   OH277512   0.436   1.735   1.301 -0.1327 -0.1280 -0.5599
18674TIP3    H177513   0.487   1.693   1.370  0.9498 -0.5035 -1.5516
18674TIP3    H277514   0.387   1.804   1.346 -1.2072 -1.7626  0.9558
18675TIP3   OH277515   4.335   3.907   0.758  0.6789 -0.8380 -0.2335
18675TIP3    H177516   4.411   3.915   0.815  0.5520  0.5783 -0.2227
18675TIP3    H277517   4.331   3.991   0.712 -0.9101 -0.8644 -0.1834
18676TIP3   OH277518   3.697   0.940   2.031 -0.3633 -0.0175 -0.2044
18676TIP3    H177519   3.739   0.856   2.013  0.8029  0.4720  0.1447
18676TIP3    H277520   3.740   1.002   1.971  0.4567  0.7669  1.1160
18677TIP3   OH277521   5.354   6.723   4.363 -0.1736  0.1353  0.0818
18677TIP3    H177522   5.304   6.743   4.443 -1.1386  1.5706 -0.8498
18677TIP3    H277523   5.443   6.752   4.382 -0.3192  0.1581  0.7570
18678TIP3   OH277524   1.086   0.391  14.160  0.1236  0.4821 -0.0690
18678TIP3    H177525   0.999   0.399  14.122 -0.2253  0.4276  0.7093
18678TIP3    H277526   1.080   0.435  14.245  0.0991 -1.8513  1.1975
18679TIP3   OH277527   5.481   5.866  13.833 -0.1639 -0.3168 -0.0833
18679TIP3    H177528   5.520   5.953  13.841 -1.4727  0.3309 -0.4515
18679TIP3    H277529   5.393   5.882  13.800 -0.7621 -1.7202  0.7404
18680TIP3   OH277530   0.198   0.726  16.059 -0.1800  0.0101  0.0300
18680TIP3    H177531   0.124   0.667  16.074 -1.3960  1.8199  1.7338
18680TIP3    H277532   0.274   0.678  16.092 -0.2399 -2.4476 -2.9770
18681TIP3   OH277533   5.673   3.465   4.594  0.2967 -0.6016 -0.2509
18681TIP3    H177534   5.749   3.409   4.610 -0.1094 -1.3766 -0.9591
18681TIP3    H277535   5.605   3.405   4.565 -0.8997 -0.0485  1.2927
18682TIP3   OH277536   0.448   3.316  15.534  0.5270  0.0762  0.3342
18682TIP3    H177537   0.360   3.353  15.543  0.4436  0.1611 -0.7631
18682TIP3    H277538   0.435   3.236  15.483  0.9872 -0.3354  0.8498
18683TIP3   OH277539   1.911   0.919  13.664  0.1196  0.3638  0.3301
18683TIP3    H177540   1.981   0.970  13.706 -1.1597  1.0470  1.7063
18683TIP3    H277541   1.835   0.976  13.666 -0.1534  0.2719 -2.6398
18684TIP3   OH277542   1.291   5.001  13.644  0.1705  0.5478 -0.6459
18684TIP3    H177543   1.376   4.957  13.653  0.1607  0.3767 -1.4108
18684TIP3    H277544   1.295   5.045  13.559 -0.0699  1.4940 -0.1825
18685TIP3   OH277545   2.817   3.922   5.093  0.1942 -0.5458 -0.0172
18685TIP3    H177546   2.802   4.015   5.075  0.0298 -0.6085 -0.2107
18685TIP3    H277547   2.738   3.878   5.060  0.3535 -0.7741 -0.0977
18686TIP3   OH277548   0.031   3.547   6.899 -0.0491  0.4616 -0.5740
18686TIP3    H177549   0.103   3.542   6.962 -1.1184 -0.3738  0.6121
18686TIP3    H277550   0.060   3.613   6.835  1.3539  0.8214  0.3934
18687TIP3   OH277551   0.746   4.947  16.605 -0.4666 -0.2232  0.2181
18687TIP3    H177552   0.798   4.927  16.528 -0.9939  0.3777 -0.3070
18687TIP3    H277553   0.706   4.864  16.630  0.3365 -0.5860  0.3360
18688TIP3   OH277554   6.570   2.380   0.938  0.1017  0.1915  0.3501
18688TIP3    H177555   6.569   2.425   1.022 -2.1252 -0.4113  0.6887
18688TIP3    H277556   6.565   2.287   0.959  2.1746 -0.1677 -0.4290
18689TIP3   OH277557   3.585   0.959  14.756  0.0397 -0.1982  0.2790
18689TIP3    H177558   3.562   0.873  14.719  1.0492  0.4594 -2.0488
18689TIP3    H277559   3.681   0.957  14.763  0.1741  1.1330 -0.9084
18690TIP3   OH277560   3.309   1.649   6.581  0.5652 -0.0909  0.4275
18690TIP3    H177561   3.257   1.619   6.507  1.2656  2.4006 -1.1951
18690TIP3    H277562   3.351   1.570   6.615 -1.5083 -1.6307 -0.3876
18691TIP3   OH277563   3.532   3.568  12.729 -0.5184  0.6054  0.2805
18691TIP3    H177564   3.585   3.595  12.654 -1.5189  0.5576 -0.4514
18691TIP3    H277565   3.514   3.650  12.776 -0.8695  0.8022 -0.1835
18692TIP3   OH277566   3.202   4.597   6.058  0.0848  0.1611 -0.1075
18692TIP3    H177567   3.139   4.565   6.123 -1.4926  1.1970 -1.0384
18692TIP3    H277568   3.272   4.636   6.109  0.9114 -2.5582  1.0156
18693TIP3   OH277569   2.095   3.564   3.509  0.4827 -0.2835 -0.1544
18693TIP3    H177570   2.081   3.474   3.540 -0.8336 -0.7831 -2.0254
18693TIP3    H277571   2.137   3.554   3.423  0.4241  0.8894 -0.3377
18694TIP3   OH277572   5.589   5.475   2.431  0.0928 -0.0670  0.5841
18694TIP3    H177573   5.517   5.421   2.464 -1.0757  1.2176  0.2357
18694TIP3    H277574   5.573   5.562   2.469 -0.3749  1.0465 -2.0059
18695TIP3   OH277575   2.746   4.446   1.568  0.1004 -0.0261  0.1274
18695TIP3    H177576   2.689   4.483   1.500 -1.4233 -0.8781  0.8984
18695TIP3    H277577   2.719   4.354   1.573  1.0362 -0.2564  1.0499
18696TIP3   OH277578   6.083   4.853   3.912  0.0272 -0.0063 -0.3157
18696TIP3    H177579   6.078   4.851   4.008  0.1266  1.2110 -0.2658
18696TIP3    H277580   6.075   4.761   3.885 -0.1154 -0.3490  0.8498
18697TIP3   OH277581   0.577   2.367  14.299  0.4153 -0.0361 -0.0661
18697TIP3    H177582   0.497   2.383  14.249  0.1892 -0.7421  0.0525
18697TIP3    H277583   0.642   2.426  14.261 -0.2372  0.7767  0.0390
18698TIP3   OH277584   3.319   2.095  15.485 -0.2881  0.4726 -0.9383
18698TIP3    H177585   3.372   2.039  15.428 -0.7156 -0.6297 -0.2712
18698TIP3    H277586   3.255   2.037  15.524 -1.2288  1.5717 -0.7825
18699TIP3   OH277587   6.351   6.376  11.184 -0.0640 -0.0907  0.6393
18699TIP3    H177588   6.265   6.346  11.153  0.5072  0.9186 -2.2882
18699TIP3    H277589   6.336   6.467  11.210  0.3781  0.7171 -1.6875
18700TIP3   OH277590   1.680   0.496   0.505  0.1976 -0.1124 -0.0261
18700TIP3    H177591   1.769   0.530   0.519  0.0844 -0.3884  1.5478
18700TIP3    H277592   1.645   0.549   0.433  0.0470  3.1327  2.2113
18701TIP3   OH277593   6.319   5.695   6.579 -0.1795  0.0384 -0.9356
18701TIP3    H177594   6.237   5.744   6.589  0.1733  0.3390  0.7942
18701TIP3    H277595   6.293   5.614   6.534 -0.7263  1.8458 -4.2588
18702TIP3   OH277596   3.793   3.098   0.432 -0.2764  0.4733 -0.8024
18702TIP3    H177597   3.774   3.008   0.403 -0.0657  0.1777 -0.0471
18702TIP3    H277598   3.707   3.138   0.445 -0.3722  0.3353 -1.0074
18703TIP3   OH277599   0.887   0.257   0.791  0.1263 -0.2951 -0.1175
18703TIP3    H177600   0.937   0.193   0.842  0.7210  0.4149  0.1968
18703TIP3    H277601   0.941   0.275   0.714 -2.0191 -3.5991 -2.7051
18704TIP3   OH277602   2.231   2.532  13.964  0.0918 -0.3098  0.4974
18704TIP3    H177603   2.138   2.536  13.984  0.2806 -0.9332  1.6184
18704TIP3    H277604   2.264   2.620  13.982 -0.5587  0.4314 -1.6127
18705TIP3   OH277605   1.358   2.414  17.478  0.6929 -0.2564 -0.1993
18705TIP3    H177606   1.332   2.343  17.537 -0.5555  0.6415  0.3690
18705TIP3    H277607   1.314   2.393  17.395  0.8133 -0.4500 -0.2163
18706TIP3   OH277608   0.644   4.077  16.499 -0.3394  0.3939 -0.3335
18706TIP3    H177609   0.662   4.170  16.517  1.1109 -0.2269  1.8234
18706TIP3    H277610   0.675   4.063  16.410  0.9589  1.6397 -0.1114
18707TIP3   OH277611   4.873   4.424   0.232 -0.2764  0.2012  0.2984
18707TIP3    H177612   4.935   4.435   0.159 -0.3118  0.5790  0.3228
18707TIP3    H277613   4.890   4.335   0.264  0.9031  0.6118  0.8929
18708TIP3   OH277614   1.857   1.584  14.895 -0.2696 -0.3761  0.5103
18708TIP3    H177615   1.917   1.513  14.920 -0.2215 -0.2577  0.7363
18708TIP3    H277616   1.778   1.567  14.946 -0.7189 -0.9624 -0.3443
18709TIP3   OH277617   3.106   3.001   4.441  0.7135  0.1463 -0.3967
18709TIP3    H177618   3.143   2.940   4.505 -1.0658 -0.1718  0.3747
18709TIP3    H277619   3.034   3.044   4.487  0.7624  1.5007 -1.5235
18710TIP3   OH277620   1.038   6.636  15.640  0.2801 -0.1920  0.4363
18710TIP3    H177621   0.963   6.693  15.626  0.5159  0.2502  0.9480
18710TIP3    H277622   1.111   6.695  15.658  0.9784 -0.5715 -1.0047
18711TIP3   OH277623   4.461   4.568  16.850  0.1770  0.8299 -0.2237
18711TIP3    H177624   4.515   4.515  16.908  0.7600  0.7275 -0.8487
18711TIP3    H277625   4.421   4.506  16.790 -2.5464  0.5967  1.6399
18712TIP3   OH277626   5.839   5.427   1.463 -0.4109 -0.4741 -0.2084
18712TIP3    H177627   5.896   5.407   1.388 -0.7604 -0.1743 -0.5558
18712TIP3    H277628   5.855   5.520   1.480 -1.9516  0.0385 -1.3152
18713TIP3   OH277629   5.897   5.974  15.447  0.3019  0.0413 -0.4190
18713TIP3    H177630   5.941   6.046  15.401 -0.4449  1.9285  1.6441
18713TIP3    H277631   5.804   5.997  15.447 -0.4300 -2.4653 -2.2381
18714TIP3   OH277632   0.314   6.524   0.548  0.2837 -0.0858 -0.2513
18714TIP3    H177633   0.349   6.519   0.637  1.2063  2.3802 -0.3781
18714TIP3    H277634   0.242   6.588   0.555  1.9013  2.0340 -1.5921
18715TIP3   OH277635   2.021   2.837  13.644 -0.4783 -0.4045 -0.0320
18715TIP3    H177636   1.945   2.893  13.629  0.3826  0.9043  0.3260
18715TIP3    H277637   2.079   2.855  13.570 -1.2801 -2.8574 -1.3949
18716TIP3   OH277638   0.478   5.502  15.353  0.5643 -0.2347  0.4716
18716TIP3    H177639   0.500   5.548  15.434  1.0300 -0.9712  0.7744
18716TIP3    H277640   0.511   5.412  15.366  0.7342 -0.3427 -0.5636
18717TIP3   OH277641   6.477   4.408  12.465  0.3264 -0.2970  0.4079
18717TIP3    H177642   6.389   4.416  12.428  0.3968  0.4895  0.3786
18717TIP3    H277643   6.534   4.397  12.389  0.6344  2.6970  0.0660
18718TIP3   OH277644   3.775   0.134   2.370 -0.1531 -0.2517  0.5200
18718TIP3    H177645   3.744   0.216   2.409 -0.0739  1.7555 -3.2105
18718TIP3    H277646   3.868   0.132   2.391  0.8676  2.9699 -2.5521
18719TIP3   OH277647   5.231   1.047   4.839 -0.1993 -0.0582  0.1360
18719TIP3    H177648   5.204   1.123   4.891  0.2090  0.6721 -0.6706
18719TIP3    H277649   5.157   1.029   4.782 -0.0329  0.1810 -0.1566
18720TIP3   OH277650   1.274   3.605  11.436  0.7194 -0.1219  0.4410
18720TIP3    H177651   1.245   3.517  11.459  0.4619 -0.6234 -1.6101
18720TIP3    H277652   1.214   3.633  11.366  2.7100  0.3939 -1.1515
18721TIP3   OH277653   2.714   1.480   0.849 -0.4993  0.0048  0.6565
18721TIP3    H177654   2.648   1.543   0.820 -1.2595 -0.5809  1.0993
18721TIP3    H277655   2.692   1.462   0.940  0.0192 -0.5158  0.6837
18722TIP3   OH277656   1.852   2.076   1.059  0.3002  0.0839 -0.1848
18722TIP3    H177657   1.878   2.068   1.150 -0.5793 -0.9113 -0.0077
18722TIP3    H277658   1.918   2.029   1.010  0.8860  0.7926 -0.0947
18723TIP3   OH277659   3.286   6.558   2.510  0.6137  0.0790  0.7984
18723TIP3    H177660   3.308   6.568   2.418  0.6348 -2.6017  0.4300
18723TIP3    H277661   3.193   6.533   2.510  0.5779  0.1960  1.4966
18724TIP3   OH277662   4.868   4.732  14.739 -0.3257 -0.0377  0.5063
18724TIP3    H177663   4.833   4.772  14.818 -1.5145 -1.2779  0.6369
18724TIP3    H277664   4.830   4.784  14.668 -1.5667 -0.6777  0.6814
18725TIP3   OH277665   0.666   4.331   4.786 -0.0869  0.4810 -0.2251
18725TIP3    H177666   0.619   4.363   4.863 -0.1643  1.6872 -0.7476
18725TIP3    H277667   0.637   4.240   4.776  0.2267  0.1853  1.3779
18726TIP3   OH277668   3.649   1.881  16.833  0.0771 -0.1153 -0.1484
18726TIP3    H177669   3.557   1.877  16.856  0.2861 -0.6021  0.6685
18726TIP3    H277670   3.659   1.818  16.762 -0.4023  0.6904 -0.9404
18727TIP3   OH277671   3.817   6.745   0.061 -0.0525  0.2812  0.0305
18727TIP3    H177672   3.846   6.830   0.092 -1.2947  1.7062 -2.4096
18727TIP3    H277673   3.893   6.688   0.071  1.2150  1.9951  0.5236
18728TIP3   OH277674   0.081   0.276   1.314  0.6548  0.0050 -0.5553
18728TIP3    H177675   0.113   0.365   1.300  1.3981 -0.2636 -0.6075
18728TIP3    H277676   0.159   0.221   1.303  0.4141 -0.5601  0.5277
18729TIP3   OH277677   3.609   6.553  14.861 -0.4113 -0.1470  0.3142
18729TIP3    H177678   3.586   6.556  14.954 -0.5351  3.2032  0.3237
18729TIP3    H277679   3.668   6.628  14.849 -1.5720  0.4445 -2.5494
18730TIP3   OH277680   0.310   5.424  11.174  0.3578  0.1628 -0.0447
18730TIP3    H177681   0.273   5.346  11.215  0.8792  0.0048  0.1348
18730TIP3    H277682   0.368   5.462  11.241  0.0018  0.7859 -0.0798
18731TIP3   OH277683   6.077   0.507   3.392  0.1228  0.4732 -0.5285
18731TIP3    H177684   6.138   0.542   3.327 -0.2789 -0.2521 -1.3234
18731TIP3    H277685   6.003   0.568   3.390 -0.5013 -0.2809 -1.7866
18732TIP3   OH277686   6.264   4.610  15.026  0.1856 -0.3268  0.3959
18732TIP3    H177687   6.359   4.600  15.029  0.4002  0.7698 -1.1500
18732TIP3    H277688   6.247   4.694  15.068 -0.0433 -0.3176  0.2871
18733TIP3   OH277689   3.795   0.507   5.218  0.4452 -0.1334 -0.6391
18733TIP3    H177690   3.701   0.493   5.218  0.3129  0.6771 -1.1911
18733TIP3    H277691   3.806   0.601   5.229  1.1852 -0.1843 -0.8534
18734TIP3   OH277692   5.168   4.594   2.896 -0.1219 -0.4197  0.6073
18734TIP3    H177693   5.260   4.570   2.885  0.6728  1.6354  2.1744
18734TIP3    H277694   5.127   4.516   2.936  0.8978 -1.3591 -0.1248
18735TIP3   OH277695   0.601   5.505   6.388 -0.2910  0.0973  0.1585
18735TIP3    H177696   0.526   5.514   6.447 -0.1278  1.0398  0.2488
18735TIP3    H277697   0.671   5.555   6.431  0.6795 -1.5237  0.5325
18736TIP3   OH277698   5.024   0.338   5.529  0.2968 -0.2080  0.0431
18736TIP3    H177699   5.041   0.262   5.586 -1.9882 -0.9520 -0.1597
18736TIP3    H277700   4.940   0.318   5.487  0.1538  1.9762 -0.8401
18737TIP3   OH277701   3.990   0.452  12.966  0.5057  0.7208 -0.1170
18737TIP3    H177702   3.993   0.465  13.061 -0.0474  0.2675 -0.0276
18737TIP3    H277703   4.071   0.406  12.946 -0.1352 -0.6849  0.3997
18738TIP3   OH277704   1.685   2.815   4.788 -0.1296 -0.8381  0.3026
18738TIP3    H177705   1.641   2.791   4.869  0.2156 -0.6279  0.5528
18738TIP3    H277706   1.776   2.787   4.801  0.1137 -0.0515  0.3132
18739TIP3   OH277707   6.515   6.524   4.898  0.0562  0.0750  0.8621
18739TIP3    H177708   6.535   6.561   4.984 -3.2893  1.3204  1.2690
18739TIP3    H277709   6.533   6.596   4.836 -0.6208  0.3063  0.9275
18740TIP3   OH277710   6.194   2.790  16.801 -0.4380  0.0756 -0.1841
18740TIP3    H177711   6.113   2.746  16.775 -0.4077  0.3853 -0.8267
18740TIP3    H277712   6.222   2.743  16.879 -1.9516  0.8395  0.8672
18741TIP3   OH277713   5.984   1.322  16.266  0.2857  0.0741 -0.0163
18741TIP3    H177714   5.934   1.353  16.342  0.8830  1.2626 -0.0902
18741TIP3    H277715   5.944   1.238  16.245 -1.8608  1.0655 -0.2309
18742TIP3   OH277716   2.983   2.203  14.676  0.3700 -0.7882  0.0144
18742TIP3    H177717   2.960   2.111  14.688 -1.4294 -0.6139 -1.6000
18742TIP3    H277718   2.946   2.247  14.752  2.2674 -1.4918  1.4103
18743TIP3   OH277719   1.766   1.236  16.737 -0.3497  0.2067  0.5650
18743TIP3    H177720   1.726   1.153  16.760 -0.8426 -0.3762 -2.0040
18743TIP3    H277721   1.850   1.211  16.697 -0.2681  0.9644  0.2512
18744TIP3   OH277722   6.748   5.383  11.783  0.1398  0.3528  0.5073
18744TIP3    H177723   6.819   5.438  11.814  0.5196  0.1341  0.0394
18744TIP3    H277724   6.670   5.419  11.824  0.6033  0.1691  1.5747
18745TIP3   OH277725   0.761   2.773   3.877 -0.4863 -0.0854  0.3189
18745TIP3    H177726   0.723   2.859   3.855  0.2041  0.1484  0.0059
18745TIP3    H277727   0.796   2.785   3.965 -0.1694  0.0366  0.1793
18746TIP3   OH277728   5.421   0.183  12.872  0.1879  0.2093 -0.1162
18746TIP3    H177729   5.334   0.222  12.863  0.0607 -0.2966 -1.2104
18746TIP3    H277730   5.481   0.252  12.845  0.0809  0.2627 -0.2177
18747TIP3   OH277731   4.310   1.637  14.431  0.0127 -0.6170  0.5218
18747TIP3    H177732   4.254   1.708  14.399  0.6251 -1.1930 -2.0506
18747TIP3    H277733   4.278   1.620  14.520 -1.3754  1.5851  0.5293
18748TIP3   OH277734   1.371   5.980  15.183 -0.2348 -0.7923  0.5033
18748TIP3    H177735   1.353   6.035  15.260 -0.8198  0.4940 -0.5020
18748TIP3    H277736   1.373   5.891  15.217 -0.5142 -0.2616  2.0002
18749TIP3   OH277737   0.683   2.230   1.673 -0.1219 -0.1838  0.3500
18749TIP3    H177738   0.633   2.309   1.653 -0.2656 -0.2994  0.2498
18749TIP3    H277739   0.661   2.210   1.763 -0.3491 -0.3034  0.2675
18750TIP3   OH277740   0.713   4.103   2.713 -0.2889 -0.4638  0.0352
18750TIP3    H177741   0.726   4.043   2.786 -0.5759 -0.4946  0.0607
18750TIP3    H277742   0.802   4.123   2.682 -0.2255 -1.7697 -0.6910
18751TIP3   OH277743   2.281   1.580  16.534 -0.4241  0.6379  0.0084
18751TIP3    H177744   2.339   1.612  16.464  1.0834 -0.8003  0.5400
18751TIP3    H277745   2.208   1.540  16.487  0.3221  0.1226 -0.7501
18752TIP3   OH277746   2.839   0.204   1.431  0.0673  0.1370  0.1549
18752TIP3    H177747   2.894   0.153   1.491 -1.2277 -2.0334 -0.4035
18752TIP3    H277748   2.832   0.290   1.472 -0.6171 -1.1899  3.0440
18753TIP3   OH277749   4.409   3.479   0.733 -0.5835  0.0115 -0.0295
18753TIP3    H177750   4.431   3.557   0.684 -0.4820 -0.3191 -0.5210
18753TIP3    H277751   4.453   3.490   0.818  1.4625 -0.6000 -0.9502
18754TIP3   OH277752   5.928   6.763  16.075  0.0417  0.2433 -0.5474
18754TIP3    H177753   5.848   6.741  16.122  1.5742 -1.6009  1.3744
18754TIP3    H277754   5.964   6.839  16.122  0.0350  0.3150 -0.6568
18755TIP3   OH277755   1.441   1.488   3.640  0.5007 -0.3081 -0.2007
18755TIP3    H177756   1.518   1.545   3.651  0.9651 -0.9506 -0.0818
18755TIP3    H277757   1.383   1.512   3.713  0.9738 -0.4274  0.2218
18756TIP3   OH277758   6.313   3.988  11.419 -0.0667 -0.3791 -0.6822
18756TIP3    H177759   6.291   3.925  11.350 -1.7542 -0.9177  0.2954
18756TIP3    H277760   6.229   4.017  11.453  0.6985 -0.4394  1.4136
18757TIP3   OH277761   4.046   1.469   1.665  0.2055  0.0343  0.6582
18757TIP3    H177762   4.085   1.555   1.650 -0.8787  0.7753  1.8468
18757TIP3    H277763   4.041   1.430   1.578  1.1827  0.9595  0.1596
18758TIP3   OH277764   0.713   2.933   5.853 -0.3427  0.2011  0.0870
18758TIP3    H177765   0.660   2.951   5.931 -0.8425 -0.5944 -0.0651
18758TIP3    H277766   0.793   2.893   5.887  0.0882  1.1916  0.2963
18759TIP3   OH277767   2.011   6.700   6.372  0.3995  0.7509 -0.1782
18759TIP3    H177768   2.058   6.765   6.425  0.3724 -0.3082  1.2361
18759TIP3    H277769   1.940   6.671   6.429  0.6659 -0.7955 -0.5888
18760TIP3   OH277770   5.723   2.629   3.977  0.0623  0.0940 -1.0098
18760TIP3    H177771   5.734   2.718   4.011 -0.0074 -0.1984 -0.2044
18760TIP3    H277772   5.786   2.623   3.906  1.4265  0.1725  0.1525
18761TIP3   OH277773   1.996   6.091  12.218  0.0754  0.8231  0.4385
18761TIP3    H177774   1.944   6.151  12.165  0.2831  0.9315  0.3563
18761TIP3    H277775   1.966   6.106  12.308 -1.0231 -0.1085  0.2522
18762TIP3   OH277776   5.906   3.922   3.578  0.5159  0.2161  0.3720
18762TIP3    H177777   5.951   3.955   3.500  1.0121  0.2302  0.6673
18762TIP3    H277778   5.813   3.937   3.559  0.7163  1.7711  0.4810
18763TIP3   OH277779   6.485   2.839   0.818 -0.4921 -0.2175  0.2042
18763TIP3    H177780   6.414   2.777   0.832 -1.5468  0.7386 -0.7470
18763TIP3    H277781   6.494   2.845   0.723 -0.3664  1.0139  0.2745
18764TIP3   OH277782   0.278   6.377  14.079 -0.6732 -0.3547  0.3313
18764TIP3    H177783   0.207   6.317  14.057 -1.6522  0.8608  0.0043
18764TIP3    H277784   0.320   6.397  13.996  0.7934 -1.9203  0.6637
18765TIP3   OH277785   3.578   4.173   1.952 -0.2283  0.3605  0.3461
18765TIP3    H177786   3.670   4.153   1.966  0.1400  0.9861 -1.0723
18765TIP3    H277787   3.549   4.108   1.887 -0.8152  0.1374  0.8121
18766TIP3   OH277788   1.268   0.858  13.181  0.4243  0.0538  0.2805
18766TIP3    H177789   1.349   0.805  13.184  0.7620  0.5872  2.6686
18766TIP3    H277790   1.299   0.947  13.168  0.1793  0.1937  0.6600
18767TIP3   OH277791   1.211   2.400  10.744 -0.0888 -0.3054 -0.2099
18767TIP3    H177792   1.205   2.323  10.687 -2.0835  0.2316 -0.8146
18767TIP3    H277793   1.131   2.449  10.727 -0.1147  0.5942  2.0896
18768TIP3   OH277794   6.698   5.443  12.478 -0.2519  0.9194  0.0885
18768TIP3    H177795   6.680   5.516  12.418  1.3188  1.7674  0.5946
18768TIP3    H277796   6.611   5.412  12.504 -0.9620  1.8473 -1.0495
18769TIP3   OH277797   6.162   3.698  15.536 -0.3854  0.1329  0.5298
18769TIP3    H177798   6.165   3.788  15.569 -1.3512  1.0224 -1.6162
18769TIP3    H277799   6.158   3.708  15.441 -0.2521 -2.2071  0.2307
18770TIP3   OH277800   3.061   5.350  13.551 -0.5057 -0.6160  0.2010
18770TIP3    H177801   3.061   5.430  13.604 -1.5615 -0.0457 -0.6100
18770TIP3    H277802   2.971   5.344  13.517  0.0532 -1.0977 -1.2803
18771TIP3   OH277803   1.444   5.416   4.720 -0.1725 -0.3603 -0.3032
18771TIP3    H177804   1.414   5.386   4.634 -2.3460  1.9733 -0.4743
18771TIP3    H277805   1.379   5.383   4.781  0.8110 -1.1440  0.3481
18772TIP3   OH277806   6.029   3.050   2.113 -0.7245 -0.1710 -0.2483
18772TIP3    H177807   5.996   2.972   2.068  0.5928 -1.0304  0.2187
18772TIP3    H277808   6.092   3.017   2.177 -0.5977  1.2360  0.4040
18773TIP3   OH277809   4.129   3.054   5.781 -0.5037 -0.6496  0.6157
18773TIP3    H177810   4.210   3.056   5.832 -0.9789  0.8685  1.3725
18773TIP3    H277811   4.114   2.961   5.765  3.1417 -0.9655 -2.5241
18774TIP3   OH277812   6.012   0.157   4.042 -0.8065  0.2859  0.5602
18774TIP3    H177813   5.982   0.164   3.951 -0.2953 -0.2265  0.3461
18774TIP3    H277814   6.080   0.224   4.050  1.8539 -2.0308 -0.5771
18775TIP3   OH277815   5.088   1.168   5.864 -0.2540  0.3006  0.5878
18775TIP3    H177816   5.108   1.230   5.794  0.0748  0.9288  1.2308
18775TIP3    H277817   5.116   1.083   5.829 -0.2618  0.5782 -0.1084
18776TIP3   OH277818   4.933   1.435  11.253  0.1110  0.5690  0.5601
18776TIP3    H177819   4.875   1.480  11.191  0.3624 -1.7037 -1.4921
18776TIP3    H277820   5.016   1.427  11.207 -0.1059 -2.4461  0.4906
18777TIP3   OH277821   3.429   3.114   0.772  0.0243  0.1670  0.3214
18777TIP3    H177822   3.372   3.107   0.848  0.9997 -0.3553  1.0325
18777TIP3    H277823   3.517   3.096   0.806  0.4259 -0.5303 -0.9975
18778TIP3   OH277824   0.959   4.129   0.950  0.0334  0.0554  0.2317
18778TIP3    H177825   0.952   4.039   0.918  1.6810 -0.5883  1.5653
18778TIP3    H277826   0.975   4.181   0.871  1.0733 -1.0958 -0.3493
18779TIP3   OH277827   5.672   1.832  14.393 -0.5261  0.0374  0.1665
18779TIP3    H177828   5.666   1.772  14.467  2.4968  1.3622  1.6580
18779TIP3    H277829   5.702   1.778  14.320 -1.5509 -0.9097  0.4204
18780TIP3   OH277830   3.986   4.637   3.831  0.1345  0.6480  0.6056
18780TIP3    H177831   4.072   4.636   3.874  0.1839 -0.2421  0.4993
18780TIP3    H277832   3.981   4.554   3.785 -1.1039  0.3359  1.2453
18781TIP3   OH277833   0.299   5.478   2.901 -0.7494  0.7074 -0.4046
18781TIP3    H177834   0.343   5.427   2.969  1.1306  1.7374 -0.7804
18781TIP3    H277835   0.243   5.539   2.949 -1.2797 -0.1734  0.1172
18782TIP3   OH277836   5.803   5.978   5.173  0.0345 -0.6023 -0.3875
18782TIP3    H177837   5.739   5.977   5.245  0.9988 -2.2943  0.5008
18782TIP3    H277838   5.774   5.908   5.114  0.8595 -1.1361 -0.1615
18783TIP3   OH277839   1.286   5.596  17.274 -0.8838  0.0996 -0.2485
18783TIP3    H177840   1.346   5.561  17.208 -0.9095  0.0338 -0.2379
18783TIP3    H277841   1.227   5.653  17.225 -1.7751 -1.0174 -0.5215
18784TIP3   OH277842   4.562   4.662  12.578  0.0034 -0.1417  0.1229
18784TIP3    H177843   4.610   4.708  12.647  0.4336 -0.8706  0.3193
18784TIP3    H277844   4.473   4.652  12.613  0.1255 -0.1925  0.4232
18785TIP3   OH277845   4.924   5.378   5.311  0.1452 -0.1021  0.1822
18785TIP3    H177846   4.934   5.351   5.220  1.6759 -2.1009  0.8919
18785TIP3    H277847   4.889   5.301   5.356 -0.9823  0.9803  1.2558
18786TIP3   OH277848   2.397   3.621   3.957 -0.3871  0.4603  0.2252
18786TIP3    H177849   2.420   3.637   4.049  1.7370 -0.9679  0.0066
18786TIP3    H277850   2.392   3.709   3.919 -2.2433  1.1477  1.8430
18787TIP3   OH277851   1.671   0.268  16.037  0.2688 -0.1013  0.5909
18787TIP3    H177852   1.767   0.263  16.030  0.1794 -1.1054 -0.0237
18787TIP3    H277853   1.641   0.179  16.023 -0.7602  0.1854  0.9122
18788TIP3   OH277854   6.095   2.790  15.425 -0.0568 -0.4157  0.3404
18788TIP3    H177855   6.024   2.854  15.420  1.5812  1.4159 -0.8234
18788TIP3    H277856   6.142   2.813  15.505  0.9539  0.3344 -0.4508
18789TIP3   OH277857   2.400   6.705   5.191  0.0016  0.2425  0.6792
18789TIP3    H177858   2.346   6.780   5.169  1.1592  0.9226  0.0286
18789TIP3    H277859   2.479   6.742   5.230  0.7809 -0.5830 -0.0435
18790TIP3   OH277860   4.221   3.468   6.700  0.3642 -0.0594 -0.1883
18790TIP3    H177861   4.289   3.448   6.765  1.2066  0.0021 -1.0297
18790TIP3    H277862   4.181   3.384   6.681 -0.5420  0.0546  1.0990
18791TIP3   OH277863   2.183   0.098   0.860  0.1641  0.0052 -0.0253
18791TIP3    H177864   2.168   0.114   0.953 -1.8972  2.0887 -0.5953
18791TIP3    H277865   2.240   0.170   0.832  0.8572 -0.6657 -0.3688
18792TIP3   OH277866   4.500   5.871  16.888 -0.4140  0.3540  0.2981
18792TIP3    H177867   4.481   5.894  16.980 -1.3519 -0.7567  0.4012
18792TIP3    H277868   4.423   5.901  16.840 -0.1366  0.4927 -0.0581
18793TIP3   OH277869   1.699   2.179  13.203  0.1835  0.0316 -0.2844
18793TIP3    H177870   1.794   2.175  13.189  0.3888 -1.7350  1.2468
18793TIP3    H277871   1.673   2.263  13.166  2.2214  0.2145 -1.4304
18794TIP3   OH277872   6.533   3.938   4.480 -0.5505  0.0831 -0.2882
18794TIP3    H177873   6.477   3.867   4.512  0.7226 -0.9564 -0.2647
18794TIP3    H277874   6.473   4.010   4.461 -1.8579 -0.9227 -0.0872
18795TIP3   OH277875   4.586   1.706   5.400 -0.0563 -0.8888  0.0725
18795TIP3    H177876   4.597   1.713   5.305 -0.5046  0.5923  0.1042
18795TIP3    H277877   4.669   1.670   5.432  0.3364 -0.7809 -0.8123
18796TIP3   OH277878   4.720   1.407  14.798 -0.3205  0.3175  0.3281
18796TIP3    H177879   4.736   1.324  14.753 -1.0088 -0.1074  0.8322
18796TIP3    H277880   4.746   1.474  14.735 -4.0625 -0.1298 -2.0492
18797TIP3   OH277881   0.892   0.902  13.460  0.1086  0.0238 -0.4213
18797TIP3    H177882   0.987   0.914  13.460  0.1899 -0.5400  0.2283
18797TIP3    H277883   0.868   0.912  13.552 -0.5955  1.1490 -0.7182
18798TIP3   OH277884   6.245   5.756   1.230 -0.3110 -0.0774 -0.1379
18798TIP3    H177885   6.276   5.756   1.321 -1.3901  0.9665  0.2576
18798TIP3    H277886   6.323   5.735   1.178  1.0853  2.3232  0.8101
18799TIP3   OH277887   5.116   3.534   0.811  0.4865  0.0525 -0.5254
18799TIP3    H177888   5.067   3.459   0.845 -1.1043  1.7694  1.2314
18799TIP3    H277889   5.178   3.555   0.881  3.0133 -1.2953 -2.1938
18800TIP3   OH277890   3.233   5.163   0.503  0.3700  0.0469 -0.1986
18800TIP3    H177891   3.253   5.254   0.523 -0.2960  0.1068  0.2330
18800TIP3    H277892   3.138   5.158   0.504  0.3692 -0.4420 -1.2370
18801TIP3   OH277893   4.002   1.085   1.985 -0.2409  0.3137  0.1770
18801TIP3    H177894   4.012   0.997   2.021 -1.8959  0.4929  1.2169
18801TIP3    H277895   3.921   1.080   1.935  0.4422  0.8787 -1.0055
18802TIP3   OH277896   3.099   2.991   3.179 -0.2880  0.5365  0.0006
18802TIP3    H177897   3.099   2.896   3.190  0.3886  0.3695 -1.2814
18802TIP3    H277898   3.073   3.025   3.265  0.1306 -0.7746  0.6681
18803TIP3   OH277899   3.065   6.416   5.789 -0.3347 -0.1690  0.2257
18803TIP3    H177900   3.038   6.338   5.837 -0.1432 -0.3347  0.0631
18803TIP3    H277901   3.073   6.387   5.698 -1.1389  0.2444  0.0111
18804TIP3   OH277902   5.658   2.717  15.885  0.1135  0.4265  0.3591
18804TIP3    H177903   5.613   2.734  15.968 -1.5307  0.7093 -0.5373
18804TIP3    H277904   5.750   2.733  15.903 -0.3036  1.1711  1.9450
18805TIP3   OH277905   1.150   3.657   3.653 -0.2237  0.1945 -0.1570
18805TIP3    H177906   1.213   3.584   3.649  0.4285  0.7971 -2.7638
18805TIP3    H277907   1.176   3.706   3.731  2.0071 -0.0694 -0.6621
18806TIP3   OH277908   6.751   1.243  16.867 -0.4650 -0.6301 -0.2558
18806TIP3    H177909   6.712   1.156  16.860 -0.1713 -0.7888  0.0519
18806TIP3    H277910   6.702   1.285  16.938 -1.1643 -0.2439 -0.9649
18807TIP3   OH277911   1.676   5.917   4.497 -0.0230  1.0441  0.1071
18807TIP3    H177912   1.661   5.860   4.422 -1.0678  0.6665  0.5837
18807TIP3    H277913   1.721   5.994   4.461 -0.5671  0.8977 -0.9069
18808TIP3   OH277914   1.910   0.257  17.343 -0.4162 -0.0333  0.3499
18808TIP3    H177915   1.937   0.224  17.257 -0.4993  0.0727  0.2820
18808TIP3    H277916   1.947   0.346  17.346  1.0502 -0.6337  1.1219
18809TIP3   OH277917   5.325   6.259   5.978  0.7866 -0.0182  0.3068
18809TIP3    H177918   5.414   6.259   5.942  0.7286  2.5772 -0.0659
18809TIP3    H277919   5.273   6.305   5.912 -0.5927 -0.4317  1.0764
18810TIP3   OH277920   3.586   5.066  15.863  0.0641  0.1154 -0.2349
18810TIP3    H177921   3.626   4.996  15.914 -1.2798 -1.9925 -1.9032
18810TIP3    H277922   3.659   5.107  15.816  1.0204  0.7019  1.6724
18811TIP3   OH277923   0.664   3.586   2.923 -0.4870 -0.5502 -0.4746
18811TIP3    H177924   0.681   3.554   2.834 -0.4665 -0.0028 -0.6695
18811TIP3    H277925   0.583   3.542   2.949 -0.2414 -1.0785 -0.5784
18812TIP3   OH277926   0.020   0.634  11.457 -0.3100 -0.0810  0.4261
18812TIP3    H177927   0.039   0.652  11.549 -2.4127  2.3510  0.4733
18812TIP3    H277928  -0.068   0.597  11.457 -1.4087  2.2983 -0.6709
18813TIP3   OH277929   2.911   1.004  12.052 -0.0967  0.0580  0.6324
18813TIP3    H177930   3.003   1.011  12.079 -0.1358 -0.6776  0.9868
18813TIP3    H277931   2.862   1.038  12.127 -0.1590 -0.8991  1.0442
18814TIP3   OH277932   3.458   3.376  14.102  0.0396  0.2932 -0.5293
18814TIP3    H177933   3.406   3.368  14.183  1.7808  0.9865  0.7183
18814TIP3    H277934   3.448   3.292  14.059  0.0592 -0.5665  1.0556
18815TIP3   OH277935   4.724   2.728   0.489 -0.5706  0.5249  0.2217
18815TIP3    H177936   4.814   2.721   0.521 -0.6108 -0.4469  0.1670
18815TIP3    H277937   4.728   2.793   0.418  0.2296 -0.0100 -0.2426
18816TIP3   OH277938   2.016   6.521   1.255  0.2815  0.3323 -0.4089
18816TIP3    H177939   2.107   6.519   1.287  0.9784 -3.3374 -2.1413
18816TIP3    H277940   2.022   6.557   1.167 -0.3730  2.1760  0.2441
18817TIP3   OH277941   5.895   2.181   1.926  0.3947 -0.1486  0.8783
18817TIP3    H177942   5.980   2.140   1.941  0.9561  0.2391 -0.9895
18817TIP3    H277943   5.835   2.135   1.985  1.0536 -3.3533 -0.7425
18818TIP3   OH277944   5.776   3.528  14.315 -0.0945  0.2114  0.2797
18818TIP3    H177945   5.685   3.539  14.343  0.0058  0.5798  0.4763
18818TIP3    H277946   5.776   3.555  14.223 -0.1081  0.6154  0.3949
18819TIP3   OH277947   3.394   2.088   4.488 -0.5968  0.0955  0.1995
18819TIP3    H177948   3.364   2.175   4.466 -2.6470 -0.8895 -1.1898
18819TIP3    H277949   3.337   2.061   4.561  0.4401  0.1269  1.0414
18820TIP3   OH277950   2.034   4.250  17.000 -0.4889  0.5262  0.1416
18820TIP3    H177951   2.105   4.221  17.057  0.7163  0.7749 -1.1889
18820TIP3    H277952   2.076   4.305  16.934 -1.9895  1.0997 -0.3902
18821TIP3   OH277953   5.334   0.559  14.252 -0.5657  0.4757 -0.4826
18821TIP3    H177954   5.416   0.511  14.263 -0.4747  0.3418 -1.6316
18821TIP3    H277955   5.349   0.616  14.176 -1.9947 -0.6354 -1.6629
18822TIP3   OH277956   1.233   3.992  13.792  0.1330 -0.2441  0.2370
18822TIP3    H177957   1.142   4.020  13.792  0.7259  1.8536 -0.5080
18822TIP3    H277958   1.240   3.936  13.714 -0.7622 -1.4003  0.9613
18823TIP3   OH277959   2.428   4.723   4.535 -0.5589 -0.0071  0.4170
18823TIP3    H177960   2.522   4.732   4.521 -0.6943  0.6986 -0.0928
18823TIP3    H277961   2.391   4.717   4.447 -0.8857 -1.5982  0.6312
18824TIP3   OH277962   5.264   0.722  15.334 -0.1364  0.0740  0.1118
18824TIP3    H177963   5.352   0.757  15.319  0.3847 -0.1981  2.1120
18824TIP3    H277964   5.211   0.799  15.356 -0.1594  0.1410 -0.1865
18825TIP3   OH277965   5.960   2.522   4.389  0.3885  0.1896 -0.3452
18825TIP3    H177966   5.900   2.497   4.318  0.7889  3.0818 -1.8244
18825TIP3    H277967   5.902   2.551   4.460 -0.0568  1.8062 -1.3141
18826TIP3   OH277968   0.980   5.005  13.177  0.1397  0.0587 -0.7045
18826TIP3    H177969   0.943   4.917  13.169 -0.6630  0.4394 -1.4034
18826TIP3    H277970   0.904   5.063  13.177  0.6487  0.7426  0.0404
18827TIP3   OH277971   4.802   3.365   0.198  0.4370  0.3709 -0.0179
18827TIP3    H177972   4.804   3.366   0.103 -0.8197 -0.9545 -0.0947
18827TIP3    H277973   4.819   3.273   0.221 -2.0671  0.0594  0.8944
18828TIP3   OH277974   1.165   4.480  12.397  0.3192 -0.4037  0.3514
18828TIP3    H177975   1.233   4.508  12.459  0.9617  0.4034 -0.6805
18828TIP3    H277976   1.206   4.410  12.346 -0.0835 -0.8214  0.6015
18829TIP3   OH277977   6.019   3.742   6.442 -0.5760 -0.4033 -0.0522
18829TIP3    H177978   5.925   3.745   6.423 -0.4731 -1.4466 -0.7734
18829TIP3    H277979   6.060   3.782   6.366 -0.4005 -0.4313  0.0271
18830TIP3   OH277980   5.430   5.401  14.181 -0.4223 -0.1004 -0.1759
18830TIP3    H177981   5.488   5.335  14.219 -1.6120 -1.0573  0.0483
18830TIP3    H277982   5.342   5.369  14.200 -1.0355  1.0885 -0.8884
18831TIP3   OH277983   1.203   2.487   2.575  0.2159  0.4185  0.0513
18831TIP3    H177984   1.122   2.446   2.606 -0.7030  1.3974 -1.0078
18831TIP3    H277985   1.207   2.465   2.482  2.8172 -2.2791  0.6518
18832TIP3   OH277986   0.931   4.685   3.396 -0.3962  0.0025 -0.0766
18832TIP3    H177987   0.934   4.695   3.492  0.6774  0.8558 -0.1882
18832TIP3    H277988   0.893   4.768   3.365 -0.5668 -0.1984 -0.4086
18833TIP3   OH277989   3.775   4.086   4.697 -0.4846 -0.1924  0.0601
18833TIP3    H177990   3.834   4.014   4.675  0.2819  0.5305 -0.3340
18833TIP3    H277991   3.814   4.162   4.654 -0.7554  0.6395  1.2422
18834TIP3   OH277992   5.366   6.673   2.358 -0.3151  0.0177 -0.1983
18834TIP3    H177993   5.359   6.761   2.394  1.0556 -0.8093  2.3576
18834TIP3    H277994   5.451   6.642   2.389  0.1567 -1.5290 -2.7299
18835TIP3   OH277995   2.856   0.848  12.870 -0.3320  0.1656 -0.7053
18835TIP3    H177996   2.776   0.805  12.841 -0.2253 -0.8086  0.3602
18835TIP3    H277997   2.827   0.913  12.934 -0.2220 -0.9016  0.4665
18836TIP3   OH277998   1.030   0.874   2.330  0.1286  0.3975  0.2425
18836TIP3    H177999   1.019   0.862   2.235  2.0870  0.0078  0.0212
18836TIP3    H278000   0.997   0.793   2.368 -1.0836  0.7327 -0.0520
18837TIP3   OH278001   3.655   6.212  12.610  0.4135  0.0242 -0.0397
18837TIP3    H178002   3.620   6.159  12.682  2.7303  0.2197  1.3548
18837TIP3    H278003   3.693   6.148  12.550  1.6714 -0.0218  0.7712
18838TIP3   OH278004   3.200   5.519   2.979  0.7062  0.5388  0.1014
18838TIP3    H178005   3.162   5.604   2.959 -1.0161 -0.2336 -0.0862
18838TIP3    H278006   3.248   5.534   3.061 -0.2582  1.5222  0.5262
18839TIP3   OH278007   0.953   2.781   3.555  0.0602  0.1659 -0.5609
18839TIP3    H178008   0.989   2.757   3.469 -0.7176  0.2402 -0.9125
18839TIP3    H278009   1.025   2.764   3.616  0.3706 -0.6300 -1.1267
18840TIP3   OH278010   3.455   1.064   5.439  0.2769 -0.3305 -0.4047
18840TIP3    H178011   3.495   1.012   5.508 -1.3937  2.3850  2.9071
18840TIP3    H278012   3.490   1.152   5.451 -0.9957  0.4982 -2.2521
18841TIP3   OH278013   3.583   4.217  16.843 -0.2957  0.0204 -0.4415
18841TIP3    H178014   3.621   4.303  16.821  1.2186 -0.4775  0.1246
18841TIP3    H278015   3.633   4.155  16.790 -0.1517 -0.6812  0.5015
18842TIP3   OH278016   1.288   4.661   0.574  0.3068  0.4819 -0.3343
18842TIP3    H178017   1.283   4.642   0.667 -1.4443  0.7788 -0.3410
18842TIP3    H278018   1.377   4.695   0.561 -0.2370  2.9094  1.6934
18843TIP3   OH278019   6.476   6.750   1.131 -0.1393 -0.8145  0.7440
18843TIP3    H178020   6.499   6.657   1.124  1.1037 -0.4377 -0.8362
18843TIP3    H278021   6.528   6.792   1.062 -3.5150  0.5433 -1.2035
18844TIP3   OH278022   4.310   4.373  16.527  0.7890  0.2626 -0.3245
18844TIP3    H178023   4.360   4.390  16.607  0.6424  1.2805 -0.4361
18844TIP3    H278024   4.327   4.281  16.508 -0.0119 -0.3032  1.4518
18845TIP3   OH278025   0.286   5.186   0.561  0.0660  0.1120  0.2705
18845TIP3    H178026   0.269   5.111   0.618  1.9050 -0.5810 -0.0219
18845TIP3    H278027   0.347   5.241   0.611 -0.6789  1.0668  0.1743
18846TIP3   OH278028   0.723   3.889  16.951  0.8281  0.7362  0.6291
18846TIP3    H178029   0.670   3.956  16.995 -0.5007  1.3238 -1.7049
18846TIP3    H278030   0.700   3.808  16.995  0.1372  1.3925  1.5095
18847TIP3   OH278031   5.789   4.297  17.252  0.1687  0.2305  0.3629
18847TIP3    H178032   5.729   4.294  17.177 -0.2278 -0.1983  0.6881
18847TIP3    H278033   5.770   4.217  17.301  0.9699  0.1155  0.5082
18848TIP3   OH278034   6.119   4.435  15.963 -0.7074 -0.3465  1.0251
18848TIP3    H178035   6.118   4.530  15.978  1.2610 -0.2868  1.0168
18848TIP3    H278036   6.110   4.397  16.051 -0.2992 -0.1364  1.1585
18849TIP3   OH278037   3.793   3.528  16.173 -0.5167  0.6659 -0.1105
18849TIP3    H178038   3.803   3.438  16.203 -0.1907  0.2477 -1.3851
18849TIP3    H278039   3.710   3.557  16.211 -0.9243 -0.3829 -0.1514
18850TIP3   OH278040   0.527   5.655  15.576  0.6105 -0.3654 -0.1383
18850TIP3    H178041   0.551   5.579  15.628  2.3281  0.3704  0.2226
18850TIP3    H278042   0.591   5.722  15.601 -0.7654  1.1632 -0.5351
18851TIP3   OH278043   1.164   3.283   0.128  0.1192 -0.1194 -0.0880
18851TIP3    H178044   1.142   3.262   0.037 -1.2492 -0.7151  0.3578
18851TIP3    H278045   1.083   3.315   0.166  0.6352 -0.0313  0.9763
18852TIP3   OH278046   3.357   4.684   6.264  0.8339  0.3734  0.0775
18852TIP3    H178047   3.439   4.698   6.311  0.4353 -0.4065  1.0577
18852TIP3    H278048   3.313   4.615   6.314  0.6954 -1.0136 -1.8375
18853TIP3   OH278049   0.914   6.225  11.717  0.0956  0.5378  0.1947
18853TIP3    H178050   0.987   6.285  11.705  1.5719 -0.8692  1.6616
18853TIP3    H278051   0.923   6.161  11.646 -1.1881  1.6807 -1.0696
18854TIP3   OH278052   4.667   0.357   3.516 -0.2325 -0.3489 -0.0248
18854TIP3    H178053   4.659   0.450   3.534  0.9804 -0.2679  0.2028
18854TIP3    H278054   4.605   0.341   3.445  1.1224  1.1215 -1.6371
18855TIP3   OH278055   6.371   1.477  11.437 -0.0753  0.7803  0.0007
18855TIP3    H178056   6.376   1.563  11.393  0.9185 -0.0238 -1.5541
18855TIP3    H278057   6.297   1.486  11.497 -0.7777  2.3394 -1.0092
18856TIP3   OH278058   0.140   4.317   3.231  0.2653 -0.7012  0.3636
18856TIP3    H178059   0.235   4.321   3.219  0.0399  0.4947 -1.4484
18856TIP3    H278060   0.111   4.253   3.166 -0.3805  0.9125 -1.0116
18857TIP3   OH278061   1.535   1.506  16.849  0.2884 -0.7505 -0.0000
18857TIP3    H178062   1.523   1.421  16.892  0.8636 -0.2303  1.2395
18857TIP3    H278063   1.613   1.543  16.890  0.9678 -0.2793 -1.6447
18858TIP3   OH278064   5.396   3.524   3.711  0.0905 -0.5808 -1.0383
18858TIP3    H178065   5.395   3.606   3.661 -0.7963 -0.4314 -0.7976
18858TIP3    H278066   5.364   3.458   3.650  0.6980 -0.7314 -1.1979
18859TIP3   OH278067   0.167   3.474  17.195 -0.4471  0.1489 -0.1153
18859TIP3    H178068   0.222   3.501  17.122  2.2390  0.5526  1.9134
18859TIP3    H278069   0.106   3.547  17.207  1.9181  2.1109  0.6711
18860TIP3   OH278070   4.374   0.519  11.803 -0.4418  0.2822  0.1684
18860TIP3    H178071   4.422   0.477  11.874  0.8306 -1.4238 -1.5878
18860TIP3    H278072   4.283   0.492  11.815 -0.3747  0.5731  1.4761
18861TIP3   OH278073   5.704   0.333   6.076  0.1043  0.1745 -0.4978
18861TIP3    H178074   5.708   0.428   6.080 -0.7709  0.1750  2.1129
18861TIP3    H278075   5.766   0.303   6.142 -2.0208 -0.8902  1.1741
18862TIP3   OH278076   0.066   4.465  17.253 -0.0812 -0.3538  0.1718
18862TIP3    H178077   0.041   4.407  17.181  3.4399 -0.6211 -1.0553
18862TIP3    H278078  -0.002   4.453  17.319 -3.8262  0.2484 -3.1841
18863TIP3   OH278079   6.737   3.654   6.359 -0.3098  0.0058  0.1593
18863TIP3    H178080   6.721   3.739   6.401 -0.0487 -1.1223  2.7033
18863TIP3    H278081   6.714   3.590   6.425 -1.2048 -1.9880 -1.9542
18864TIP3   OH278082   1.319   3.333   5.549  0.2848 -0.1221 -0.3055
18864TIP3    H178083   1.385   3.329   5.619  0.2682 -0.5224 -0.3100
18864TIP3    H278084   1.250   3.388   5.585  0.5385  0.1540 -0.2310
18865TIP3   OH278085   6.711   2.771   0.331 -0.6042  0.5050 -0.3949
18865TIP3    H178086   6.698   2.850   0.384  0.3062  0.2056  0.3099
18865TIP3    H278087   6.719   2.700   0.395 -0.1426  0.0346 -0.9589
18866TIP3   OH278088   3.125   1.693   6.085  0.1324  0.1719  0.2240
18866TIP3    H178089   3.135   1.615   6.139 -0.1855 -0.0576 -0.0378
18866TIP3    H278090   3.107   1.659   5.997 -1.6729  0.5252  0.4143
18867TIP3   OH278091   6.373   1.760   0.527 -0.4023 -0.7255 -0.2220
18867TIP3    H178092   6.370   1.827   0.459  1.8024 -0.1663  0.1495
18867TIP3    H278093   6.324   1.797   0.600 -0.9466 -0.4093 -0.7386
18868TIP3   OH278094   6.672   6.355   0.402 -0.5500  0.6614  0.0119
18868TIP3    H178095   6.718   6.344   0.319 -0.7314 -0.0068 -0.0048
18868TIP3    H278096   6.639   6.445   0.399  0.7922  1.1763  0.0541
18869TIP3   OH278097   2.281   3.263  16.925  0.2871 -0.0134  0.1960
18869TIP3    H178098   2.282   3.334  16.989  2.7553  0.5664 -0.3717
18869TIP3    H278099   2.197   3.220  16.938  0.0144  1.0930  2.6912
18870TIP3   OH278100   2.045   3.570   3.840 -0.0017  0.1888  0.2287
18870TIP3    H178101   2.068   3.507   3.772  1.0729  1.5190 -0.6977
18870TIP3    H278102   1.985   3.522   3.897  0.8779 -1.7144 -0.3389
18871TIP3   OH278103   4.115   3.808   0.944  0.1983  0.3079  0.5026
18871TIP3    H178104   4.024   3.831   0.925  0.5540  2.6680  1.3319
18871TIP3    H278105   4.164   3.839   0.868  0.3163 -1.3558 -0.1430
18872TIP3   OH278106   5.765   5.900   5.897  0.2869 -0.3753 -0.0619
18872TIP3    H178107   5.750   5.976   5.841 -2.3259 -0.6947  0.0747
18872TIP3    H278108   5.819   5.932   5.968  2.4522  0.4054 -1.9482
18873TIP3   OH278109   1.795   5.819   3.567  0.1936 -0.3164 -0.3111
18873TIP3    H178110   1.831   5.905   3.587 -0.8790  0.3631 -1.2012
18873TIP3    H278111   1.778   5.821   3.473  1.1818 -1.9167 -0.5519
18874TIP3   OH278112   1.093   6.075   1.738 -0.2053  0.1560 -0.2835
18874TIP3    H178113   1.060   6.164   1.744 -0.2061  0.1028  0.5773
18874TIP3    H278114   1.164   6.071   1.802  0.1441 -0.3106 -0.6884
18875TIP3   OH278115   4.173   3.228   0.281 -0.4799 -0.1814  0.6273
18875TIP3    H178116   4.139   3.149   0.238 -2.1621 -0.1116  1.7269
18875TIP3    H278117   4.239   3.261   0.221 -0.3030 -1.9757 -0.2490
18876TIP3   OH278118   4.589   2.375   0.305  0.1729 -0.1912 -0.6434
18876TIP3    H178119   4.606   2.357   0.397 -0.3510  3.2083  0.2427
18876TIP3    H278120   4.494   2.365   0.296 -0.1032  1.6072 -0.1762
18877TIP3   OH278121   2.554   3.332  14.793  0.4707  0.1699 -0.1272
18877TIP3    H178122   2.531   3.241  14.775  0.0647 -0.0683  1.4092
18877TIP3    H278123   2.649   3.336  14.778  0.8752 -1.0627  1.7296
18878TIP3   OH278124   5.738   2.355   5.661 -0.2869  0.4090 -0.2343
18878TIP3    H178125   5.687   2.435   5.644 -1.3804 -0.7679 -3.0917
18878TIP3    H278126   5.674   2.293   5.697  0.4616  0.5971  1.5493
18879TIP3   OH278127   6.228   2.901   1.414 -0.0562 -0.1609 -0.0995
18879TIP3    H178128   6.175   2.872   1.489  1.0554  0.0878  0.8141
18879TIP3    H278129   6.251   2.821   1.368  0.5784 -0.4788  0.7499
18880TIP3   OH278130   5.828   3.765   1.302 -0.6987  0.8060  0.0682
18880TIP3    H178131   5.843   3.798   1.214 -3.0297  0.2349 -0.6273
18880TIP3    H278132   5.890   3.693   1.312  0.8408  2.0247 -0.3700
18881TIP3   OH278133   2.648   5.602  12.595 -0.8607 -0.2230  0.1267
18881TIP3    H178134   2.562   5.567  12.618 -1.3083  0.5844 -0.2708
18881TIP3    H278135   2.708   5.528  12.606 -1.4331 -0.5089  1.4545
18882TIP3   OH278136   5.058   3.130  16.199 -0.2497 -0.0890 -0.4158
18882TIP3    H178137   5.104   3.134  16.283  0.7239  1.3444 -0.9826
18882TIP3    H278138   4.967   3.151  16.220 -0.2276 -0.7856  0.4142
18883TIP3   OH278139   2.128   5.506   0.588 -0.0817 -0.7404 -0.2036
18883TIP3    H178140   2.185   5.469   0.656 -1.0016  2.6873  2.7644
18883TIP3    H278141   2.058   5.442   0.578  0.1760 -1.4745  2.0522
18884TIP3   OH278142   2.524   5.059   3.021  0.0814 -0.2873  0.5881
18884TIP3    H178143   2.553   5.008   3.096 -0.2009  1.4426  1.9534
18884TIP3    H278144   2.430   5.073   3.037 -0.5460 -1.8451 -1.3297
18885TIP3   OH278145   6.495   6.104  11.392  0.2155 -0.3707  0.2104
18885TIP3    H178146   6.432   6.090  11.321 -0.1060 -0.1033  0.4401
18885TIP3    H278147   6.441   6.132  11.467  0.7017  0.8586  0.1280
18886TIP3   OH278148   4.430   0.468   1.070 -0.1890  0.3949  0.7346
18886TIP3    H178149   4.430   0.564   1.075  0.8460  0.3880  0.8840
18886TIP3    H278150   4.522   0.443   1.066 -0.4606 -0.4697 -1.9351
18887TIP3   OH278151   6.754   0.712   6.462 -0.2181 -0.3789  0.0230
18887TIP3    H178152   6.698   0.697   6.538 -0.6797  1.8122  0.1939
18887TIP3    H278153   6.839   0.734   6.500 -0.3528  0.3450 -0.0680
18888TIP3   OH278154   0.846   5.886   4.381  0.1593 -0.2146 -0.3588
18888TIP3    H178155   0.906   5.948   4.422 -0.0672 -0.0666 -0.2484
18888TIP3    H278156   0.761   5.930   4.383  0.0456 -0.4265 -0.5043
18889TIP3   OH278157   3.281   2.398  13.485 -0.4253 -0.4773 -0.0681
18889TIP3    H178158   3.200   2.393  13.435  0.1867  1.2131 -1.3276
18889TIP3    H278159   3.284   2.317  13.535 -3.0848 -0.3879  0.3385
18890TIP3   OH278160   4.692   5.481  13.104 -0.3793  0.4644  0.1925
18890TIP3    H178161   4.767   5.431  13.137 -1.1919 -0.2422  1.0099
18890TIP3    H278162   4.712   5.572  13.128  1.0543  0.5781 -1.2077
18891TIP3   OH278163   5.705   2.190  12.096 -0.1334 -0.2806  0.2994
18891TIP3    H178164   5.726   2.136  12.019  1.7872  0.8798 -0.0364
18891TIP3    H278165   5.701   2.279  12.062  1.4635  0.3381  1.6342
18892TIP3   OH278166   2.497   4.014  16.398  0.0312 -0.1208  0.3790
18892TIP3    H178167   2.521   4.031  16.489  1.1276 -0.0587  0.0920
18892TIP3    H278168   2.423   4.073  16.382  2.2093  2.8106  0.1340
18893TIP3   OH278169   4.521   2.377  15.286 -0.5656  0.3370 -0.4279
18893TIP3    H178170   4.448   2.422  15.330 -1.5632 -1.9765  0.4258
18893TIP3    H278171   4.596   2.392  15.343 -0.8865  0.8750 -0.1372
18894TIP3   OH278172   4.181   2.374   6.740  0.3141 -0.4676  0.3642
18894TIP3    H178173   4.250   2.316   6.707 -2.1830 -2.4815 -1.7743
18894TIP3    H278174   4.144   2.327   6.814  1.5578  0.9291  1.9508
18895TIP3   OH278175   4.424   5.406  13.850 -0.2686 -0.2789  0.3851
18895TIP3    H178176   4.513   5.385  13.824 -0.4446 -0.0923 -0.4077
18895TIP3    H278177   4.431   5.492  13.893  0.2114 -1.1711  2.1831
18896TIP3   OH278178   1.567   0.497  15.063 -0.0321  0.5045  0.3315
18896TIP3    H178179   1.599   0.439  14.994 -0.4912 -0.3376  0.8123
18896TIP3    H278180   1.628   0.484  15.136  0.7187  1.7295 -0.0481
18897TIP3   OH278181   6.167   6.664   4.925 -0.0920 -0.1684 -0.6778
18897TIP3    H178182   6.147   6.605   4.852  0.3258 -0.0947 -0.8560
18897TIP3    H278183   6.090   6.661   4.981 -1.0249  0.8646 -1.8435
18898TIP3   OH278184   2.154   2.360   4.284  0.1104  0.3555 -0.1955
18898TIP3    H178185   2.131   2.294   4.219 -0.7252  0.3218  0.1205
18898TIP3    H278186   2.075   2.370   4.337  1.1858 -0.6804  1.7307
18899TIP3   OH278187   6.647   4.922   4.816  0.3160 -0.2829 -0.0585
18899TIP3    H178188   6.637   4.846   4.759 -2.4501 -0.1177  0.0646
18899TIP3    H278189   6.624   4.889   4.903 -1.4126  0.7210 -0.0830
18900TIP3   OH278190   5.013   5.826   4.849 -0.2732  0.9434 -0.5437
18900TIP3    H178191   4.947   5.858   4.910 -1.0236 -1.5342  0.0328
18900TIP3    H278192   4.982   5.740   4.821  0.8528  1.2670 -3.1960
18901TIP3   OH278193   5.766   6.647   6.024 -0.2956  0.0666 -0.6740
18901TIP3    H178194   5.823   6.685   6.091  1.4448 -0.8726 -1.5744
18901TIP3    H278195   5.792   6.691   5.943  0.5755 -1.7754 -1.4373
18902TIP3   OH278196   5.069   6.254  14.804  0.8162 -0.0807 -0.0031
18902TIP3    H178197   4.982   6.285  14.781  1.9103  1.6084 -2.2195
18902TIP3    H278198   5.109   6.328  14.850  1.1756 -0.7516  0.7797
18903TIP3   OH278199   3.908   4.023  16.063  0.4708  0.3029  0.1762
18903TIP3    H178200   3.855   3.946  16.080  0.8064  0.0382  0.0354
18903TIP3    H278201   3.936   4.014  15.972  1.4464  0.0024  0.4897
18904TIP3   OH278202   0.658   1.113  13.347 -0.6388 -0.3266  0.3697
18904TIP3    H178203   0.745   1.083  13.320 -0.9500 -1.4530  0.5394
18904TIP3    H278204   0.671   1.150  13.434  0.2050  2.4847 -0.8324
18905TIP3   OH278205   4.839   2.907   4.273 -1.0336 -0.2699 -0.5300
18905TIP3    H178206   4.844   2.850   4.350 -0.8911 -1.3227 -1.2963
18905TIP3    H278207   4.915   2.882   4.220 -1.3596  0.1608 -1.2124
18906TIP3   OH278208   2.927   2.504   2.609  0.4091  0.8068 -0.4759
18906TIP3    H178209   2.993   2.500   2.678 -0.0132 -1.3069 -0.1041
18906TIP3    H278210   2.856   2.447   2.641 -1.0888  2.0902 -1.3746
18907TIP3   OH278211   3.422   0.916   1.163 -0.5147 -0.0221 -0.0304
18907TIP3    H178212   3.473   0.990   1.195  0.1023 -0.7428  0.6833
18907TIP3    H278213   3.487   0.852   1.134 -1.0012 -0.8509  0.6629
18908TIP3   OH278214   3.396   0.426   5.711  0.0386 -0.6554  0.5470
18908TIP3    H178215   3.416   0.357   5.648  2.7713 -0.1043  0.7031
18908TIP3    H278216   3.308   0.456   5.686  0.4556 -1.3937 -2.1294
18909TIP3   OH278217   6.256   2.648   6.229 -0.0733  0.8536 -0.1491
18909TIP3    H178218   6.183   2.707   6.208 -1.9476 -0.8529  1.1204
18909TIP3    H278219   6.257   2.584   6.158 -1.1016 -0.1950  0.7258
18910TIP3   OH278220   4.475   1.864   6.766  0.6115  0.2427 -0.0844
18910TIP3    H178221   4.468   1.914   6.685 -2.0184  0.4698  0.2276
18910TIP3    H278222   4.454   1.774   6.741  0.0817  0.2596  0.2932
18911TIP3   OH278223   6.194   6.382   4.087  0.0982 -0.3372  0.2860
18911TIP3    H178224   6.206   6.476   4.094 -1.5348 -0.0683 -0.0742
18911TIP3    H278225   6.249   6.345   4.155  1.2082  0.8310  0.0589
18912TIP3   OH278226   2.076   2.127  15.439  0.7255 -0.3730 -0.6028
18912TIP3    H178227   2.033   2.135  15.354  0.1387 -0.3809 -0.3113
18912TIP3    H278228   2.029   2.188  15.496  1.4570  0.0275 -0.4145
18913TIP3   OH278229   5.132   2.363   6.455 -0.0341 -0.1219  0.0950
18913TIP3    H178230   5.181   2.440   6.483  3.5250 -1.3028 -2.1522
18913TIP3    H278231   5.108   2.318   6.536 -0.2970  2.1887  1.3684
18914TIP3   OH278232   2.492   1.445   0.533  0.2973 -0.4557  0.6636
18914TIP3    H178233   2.517   1.360   0.570 -0.0931 -0.6164  0.5668
18914TIP3    H278234   2.397   1.439   0.522  0.3781 -0.3283 -0.1470
18915TIP3   OH278235   3.712   0.478   0.183 -0.0849  0.4639  0.3424
18915TIP3    H178236   3.649   0.540   0.146 -0.6119 -0.4932 -0.4313
18915TIP3    H278237   3.772   0.532   0.235 -0.5546  1.6035 -0.2639
18916TIP3   OH278238   2.447   5.186  16.112  0.2563 -0.0030 -0.6496
18916TIP3    H178239   2.486   5.100  16.129  0.6583  0.4623  0.9223
18916TIP3    H278240   2.518   5.236  16.071  0.4345 -0.0305 -0.3795
18917TIP3   OH278241   3.856   3.968  17.134  0.4223  0.2185  0.2835
18917TIP3    H178242   3.842   4.048  17.083  0.6069  0.0223 -0.0820
18917TIP3    H278243   3.939   3.982  17.179  0.2008  0.4411  0.6303
18918TIP3   OH278244   2.636   3.991  16.640  0.2570  0.4951  0.2759
18918TIP3    H178245   2.722   3.991  16.599  0.9433  0.4992  1.6645
18918TIP3    H278246   2.625   3.903  16.675 -0.3201  0.4867  0.0916
18919TIP3   OH278247   1.295   2.154  16.779 -0.2449  0.1163 -0.0873
18919TIP3    H178248   1.387   2.168  16.756 -0.0633 -0.1817  0.4330
18919TIP3    H278249   1.292   2.067  16.817 -0.9029 -0.2181 -0.8777
18920TIP3   OH278250   5.551   5.441   0.677 -0.0546 -0.1406 -0.0536
18920TIP3    H178251   5.573   5.481   0.593  1.5522  0.3805  0.5846
18920TIP3    H278252   5.625   5.385   0.698  0.0433  0.5031  1.4759
18921TIP3   OH278253   6.702   6.371   4.491 -0.2113  0.3529 -0.0017
18921TIP3    H178254   6.612   6.375   4.524  0.2337  2.1342  1.1505
18921TIP3    H278255   6.753   6.346   4.568  0.4022  0.4725 -0.3690
18922TIP3   OH278256   0.799   6.312  16.196  0.1151  0.4072  0.3738
18922TIP3    H178257   0.766   6.302  16.106 -0.3996  2.8339  0.2271
18922TIP3    H278258   0.847   6.395  16.195  1.9768 -0.5870  1.8494
18923TIP3   OH278259   2.748   2.617  17.022 -0.1146 -0.1608  0.5094
18923TIP3    H178260   2.691   2.651  16.953  0.3399 -0.5622 -0.0731
18923TIP3    H278261   2.694   2.552  17.067 -1.6255  2.4523  2.7839
18924TIP3   OH278262   5.836   3.659   2.563  0.2713  0.1177  0.0702
18924TIP3    H178263   5.795   3.584   2.519 -1.5831  1.6108 -0.8977
18924TIP3    H278264   5.920   3.669   2.519  1.1423 -2.0782  1.0519
18925TIP3   OH278265   6.682   5.111   2.866  0.4666  0.2932  0.1107
18925TIP3    H178266   6.753   5.114   2.803 -0.5674 -0.4867 -1.1512
18925TIP3    H278267   6.712   5.163   2.940  1.5977  1.4601 -1.1378
18926TIP3   OH278268   6.647   2.974   1.467  0.2476 -0.0168 -0.3736
18926TIP3    H178269   6.712   3.039   1.439 -0.6534  0.6529 -1.0010
18926TIP3    H278270   6.663   2.899   1.410  0.3077  0.2446 -0.7084
18927TIP3   OH278271   6.505   2.535  13.837 -0.3630  0.0588  0.0775
18927TIP3    H178272   6.572   2.468  13.824 -0.7591 -0.1777 -0.7629
18927TIP3    H278273   6.482   2.565  13.749  0.0521  1.5582  0.4513
18928TIP3   OH278274   0.572   5.565   3.525  0.4124  0.4792  0.2039
18928TIP3    H178275   0.614   5.595   3.605  1.8310 -2.2489  0.5832
18928TIP3    H278276   0.498   5.513   3.555  1.2098 -0.9251 -0.1812
18929TIP3   OH278277   5.837   2.521  14.246  0.4541 -0.1463  0.4555
18929TIP3    H178278   5.788   2.586  14.297 -0.0843  2.0744 -2.6023
18929TIP3    H278279   5.797   2.437  14.269 -1.1704  0.9767  2.0101
18930TIP3   OH278280   1.891   4.261   6.567 -0.3609 -0.1250  0.0590
18930TIP3    H178281   1.809   4.224   6.534 -0.9797 -0.9472  2.3055
18930TIP3    H278282   1.874   4.355   6.574 -0.3872 -0.0007 -1.3401
18931TIP3   OH278283   4.118   3.952  12.519 -0.0789 -0.4457 -0.6707
18931TIP3    H178284   4.190   3.897  12.549 -0.2320  0.0558  0.6855
18931TIP3    H278285   4.094   4.004  12.596 -1.2649  0.0682 -1.3654
18932TIP3   OH278286   5.515   4.675  15.045  0.0117 -0.3261  0.1010
18932TIP3    H178287   5.528   4.602  15.105 -1.4808 -0.5758  0.1763
18932TIP3    H278288   5.431   4.713  15.072  1.8023  2.9573  1.6444
18933TIP3   OH278289   2.174   5.136  16.033  0.1904 -0.1240  0.1031
18933TIP3    H178290   2.266   5.152  16.057  0.5042  0.0137 -1.1506
18933TIP3    H278291   2.134   5.223  16.038  0.2523 -0.0973  0.1523
18934TIP3   OH278292   4.530   1.520  11.217 -0.0098 -0.1763 -0.1989
18934TIP3    H178293   4.613   1.560  11.192 -0.4653  1.0138  0.1291
18934TIP3    H278294   4.520   1.446  11.157  0.6693  0.4260 -1.0781
18935TIP3   OH278295   5.382   2.169   0.718 -0.3241 -0.2935 -0.0888
18935TIP3    H178296   5.417   2.257   0.730 -1.1367 -0.0505  0.5741
18935TIP3    H278297   5.459   2.112   0.723  0.0447  0.2617  0.8326
18936TIP3   OH278298   2.923   3.744  11.066  0.2510  0.5124  0.0283
18936TIP3    H178299   2.992   3.806  11.043  0.0490  0.4855 -0.6885
18936TIP3    H278300   2.845   3.778  11.022  0.0670 -0.0697 -0.1021
18937TIP3   OH278301   2.432   1.630  14.898  0.8063 -0.0891  0.0893
18937TIP3    H178302   2.345   1.665  14.919 -1.0263 -3.3544 -1.3037
18937TIP3    H278303   2.433   1.543  14.939  2.8434 -0.7194 -1.1392
18938TIP3   OH278304   6.709   1.193   4.959 -0.5831  0.1297  0.1022
18938TIP3    H178305   6.765   1.249   5.013  1.2687 -2.0505  0.6062
18938TIP3    H278306   6.681   1.123   5.017  0.1343 -1.4068 -1.3139
18939TIP3   OH278307   2.921   2.969  13.803 -0.4013 -0.0651  0.2961
18939TIP3    H178308   2.899   3.042  13.860  1.8855  0.5445  0.5189
18939TIP3    H278309   2.994   2.925  13.848  0.7084 -0.2413 -1.5627
18940TIP3   OH278310   1.988   2.953   2.921 -0.4882 -0.5462  0.3872
18940TIP3    H178311   2.005   2.966   3.014 -0.4693 -3.1298  0.8291
18940TIP3    H278312   1.893   2.963   2.912 -0.2013  3.0993 -0.0556
18941TIP3   OH278313   0.209   2.097  13.677 -0.5605 -0.2613 -0.1687
18941TIP3    H178314   0.149   2.084  13.751 -0.7221 -0.5672 -0.3508
18941TIP3    H278315   0.228   2.008  13.646 -0.1386 -0.1598 -0.2159
18942TIP3   OH278316   3.740   5.742  13.154 -0.4694  0.9015  0.0898
18942TIP3    H178317   3.683   5.815  13.128 -0.2723  0.8697 -0.4549
18942TIP3    H278318   3.704   5.666  13.110 -0.5635  0.7028  0.5076
18943TIP3   OH278319   3.745   0.764   3.719 -0.4777 -0.2999 -0.2586
18943TIP3    H178320   3.678   0.719   3.770  0.3798 -1.2295  0.0726
18943TIP3    H278321   3.828   0.736   3.757  0.1262  0.3621 -1.0442
18944TIP3   OH278322   0.186   6.365  17.074  0.1219 -0.3077  0.1679
18944TIP3    H178323   0.244   6.292  17.050 -0.2413 -0.7031  0.4935
18944TIP3    H278324   0.124   6.328  17.136  0.4905  0.4955  1.0445
18945TIP3   OH278325   2.998   6.501   2.427 -0.1914 -0.3855  0.2968
18945TIP3    H178326   2.911   6.513   2.463  0.0270 -3.0276  1.8994
18945TIP3    H278327   2.984   6.457   2.343 -0.4362  1.3309 -0.6218
18946TIP3   OH278328   6.736   4.142   6.612  0.0856 -0.0194 -0.3463
18946TIP3    H178329   6.721   4.102   6.698 -2.1063  0.3630 -0.5164
18946TIP3    H278330   6.756   4.233   6.631  0.9471 -0.2285 -0.1934
18947TIP3   OH278331   4.716   0.559   1.057  0.0454 -0.4880  0.2469
18947TIP3    H178332   4.783   0.525   0.998  0.0279  0.6148 -0.4296
18947TIP3    H278333   4.764   0.614   1.119 -0.1068 -0.5818  0.4527
18948TIP3   OH278334   6.339   3.006   3.156 -0.1112 -0.2292 -0.7177
18948TIP3    H178335   6.329   3.061   3.078 -2.3030  0.4708 -0.0137
18948TIP3    H278336   6.374   2.924   3.122 -0.2167  0.3423 -2.3259
18949TIP3   OH278337   4.635   3.073   4.436 -0.1087 -0.1786 -0.2177
18949TIP3    H178338   4.628   3.068   4.531  1.7017  1.5950  0.0736
18949TIP3    H278339   4.694   3.002   4.412 -1.9706 -1.7816 -0.2881
18950TIP3   OH278340   5.184   2.719  14.639  0.4675 -0.9429 -0.2392
18950TIP3    H178341   5.209   2.673  14.719  0.4546 -0.0568  0.2875
18950TIP3    H278342   5.089   2.717  14.638  0.4691 -1.0609 -0.3078
18951TIP3   OH278343   3.239   6.262  17.420  0.0622 -0.0541 -0.2990
18951TIP3    H178344   3.186   6.283  17.343 -0.7505 -2.8109 -0.6077
18951TIP3    H278345   3.305   6.201  17.387 -0.6865 -1.7835  1.2339
18952TIP3   OH278346   2.041   5.820   4.635 -0.5345 -0.7927 -0.4216
18952TIP3    H178347   1.985   5.764   4.688  0.2706 -0.7401  0.5138
18952TIP3    H278348   1.993   5.903   4.630 -1.5579 -1.4173 -1.5022
18953TIP3   OH278349   6.437   0.907   3.010 -0.4445 -0.0580  0.5828
18953TIP3    H178350   6.367   0.972   3.009 -1.1292 -0.7707 -1.2578
18953TIP3    H278351   6.510   0.949   2.964 -1.2097 -0.8700 -1.4635
18954TIP3   OH278352   0.903   5.042  14.306 -0.2486 -0.6588  0.8087
18954TIP3    H178353   0.845   4.983  14.259 -0.2982 -0.2376  0.3321
18954TIP3    H278354   0.973   5.063  14.243 -0.1042 -0.4012  1.0518
18955TIP3   OH278355   5.032   4.517  17.148  0.1142 -0.3337  0.5808
18955TIP3    H178356   5.110   4.475  17.111  2.4400  3.2730  0.9703
18955TIP3    H278357   4.968   4.513  17.078  1.2158 -1.8288 -0.4133
18956TIP3   OH278358   1.627   3.501  15.175  0.3383 -0.4515 -0.2854
18956TIP3    H178359   1.549   3.540  15.137  0.9383  1.4605  0.3327
18956TIP3    H278360   1.614   3.407  15.165 -1.4433 -0.1402 -1.3308
18957TIP3   OH278361   5.039   2.196   5.560  0.0331  0.5427  0.1088
18957TIP3    H178362   5.058   2.285   5.588  1.3721  0.4211 -0.3456
18957TIP3    H278363   5.124   2.152   5.558 -0.3780 -0.2607 -1.2964
18958TIP3   OH278364   3.548   6.616   0.851 -0.5541  0.3008 -0.2214
18958TIP3    H178365   3.571   6.561   0.776 -2.2987 -1.9242  0.7641
18958TIP3    H278366   3.514   6.696   0.812  1.8620  0.6954 -1.7211
18959TIP3   OH278367   5.487   5.675   1.770  0.1150 -0.4226  0.2806
18959TIP3    H178368   5.557   5.609   1.775 -3.4949 -4.9599 -1.9314
18959TIP3    H278369   5.502   5.720   1.687  0.7382 -0.9314  0.1072
18960TIP3   OH278370   6.107   0.168  16.670  0.1926  0.2631 -0.1712
18960TIP3    H178371   6.086   0.185  16.762  0.0885 -0.7507  0.0030
18960TIP3    H278372   6.086   0.251  16.626 -1.6053  0.1796  0.4103
18961TIP3   OH278373   5.781   0.799   2.019 -0.2130  0.2264 -0.2099
18961TIP3    H178374   5.763   0.793   2.113  0.6542  1.6122  0.0814
18961TIP3    H278375   5.867   0.759   2.009 -0.3395  0.0117 -0.4177
18962TIP3   OH278376   5.915   3.941  12.395 -0.3886  0.7675 -0.5513
18962TIP3    H178377   5.915   4.024  12.442 -0.3806 -0.3573  1.5880
18962TIP3    H278378   5.824   3.912  12.397 -0.3102  0.4885 -0.8352
18963TIP3   OH278379   5.837   5.284  14.259 -0.1726 -0.1630 -0.6619
18963TIP3    H178380   5.849   5.362  14.313 -3.4200  0.6005 -0.8541
18963TIP3    H278381   5.908   5.226  14.286 -0.0508  1.2256  2.4759
18964TIP3   OH278382   2.372   6.130  13.220 -0.4563  0.0419  0.1246
18964TIP3    H178383   2.461   6.105  13.196 -0.4213  0.2954 -0.0231
18964TIP3    H278384   2.379   6.167  13.308 -0.4810 -0.3091  0.2749
18965TIP3   OH278385   1.327   4.545   3.175  0.2362  0.2836 -0.1135
18965TIP3    H178386   1.258   4.532   3.241  0.6450  1.1378  0.4969
18965TIP3    H278387   1.407   4.555   3.226  0.8521 -0.7817 -0.8267
18966TIP3   OH278388   0.062   4.168  12.654 -0.1667 -0.4755 -0.0280
18966TIP3    H178389   0.065   4.256  12.615  0.2070 -0.1875  0.6391
18966TIP3    H278390   0.152   4.152  12.684  0.4764 -2.2046 -2.5499
18967TIP3   OH278391   6.171   1.416   3.084 -0.0678  0.0645 -0.1263
18967TIP3    H178392   6.133   1.500   3.111 -1.1500 -0.3729 -0.2683
18967TIP3    H278393   6.161   1.415   2.989  1.0858  0.3073 -0.2706
18968TIP3   OH278394   5.255   3.367  12.991 -0.0666 -0.3715 -0.1306
18968TIP3    H178395   5.220   3.347  12.904  1.8484  0.0353 -1.0407
18968TIP3    H278396   5.329   3.426  12.974 -0.4569  0.7870  1.8798
18969TIP3   OH278397   2.593   5.444   5.940 -0.8984 -0.1107  0.0710
18969TIP3    H178398   2.653   5.371   5.957 -0.5664 -0.1710 -1.2191
18969TIP3    H278399   2.563   5.472   6.027 -0.7622 -1.5463  0.6038
18970TIP3   OH278400   6.469   5.099  13.105  0.2980  0.4770 -0.3077
18970TIP3    H178401   6.543   5.103  13.045  1.2275  0.9342  0.8191
18970TIP3    H278402   6.470   5.184  13.149  0.0210 -0.0631  0.7745
18971TIP3   OH278403   3.848   1.122   5.227  0.1444 -0.7375 -0.4659
18971TIP3    H178404   3.874   1.199   5.176 -1.5479 -0.0960 -0.4357
18971TIP3    H278405   3.753   1.116   5.215 -0.0143 -1.7508  0.9894
18972TIP3   OH278406   3.713   4.840  13.424 -0.4694 -0.2985 -0.5381
18972TIP3    H178407   3.735   4.891  13.346  0.5663  1.4975  0.8387
18972TIP3    H278408   3.632   4.880  13.456 -1.3378 -1.5569 -1.1007
18973TIP3   OH278409   4.484   4.959   4.587 -0.6310  0.1734 -0.1558
18973TIP3    H178410   4.541   5.016   4.638 -0.2983  1.0175 -1.4137
18973TIP3    H278411   4.441   4.903   4.652  0.6018  0.4438  0.9296
18974TIP3   OH278412   2.251   4.092   5.059 -0.4924 -0.2494  0.3505
18974TIP3    H178413   2.189   4.055   4.996 -0.3199  1.1710 -0.6983
18974TIP3    H278414   2.215   4.068   5.144 -1.2444 -1.4000 -0.2575
18975TIP3   OH278415   3.636   0.404   3.577 -0.0936 -0.1867  0.3174
18975TIP3    H178416   3.553   0.356   3.573 -0.0708 -0.2133 -2.8028
18975TIP3    H278417   3.613   0.495   3.557  0.3382  0.4330  2.3890
18976TIP3   OH278418   1.933   6.724  11.121  0.3635  0.4852  0.3245
18976TIP3    H178419   1.936   6.708  11.027 -2.7174  0.3176  0.1619
18976TIP3    H278420   2.024   6.741  11.145  1.0323  2.7254 -3.0450
18977TIP3   OH278421   4.396   3.291   6.884 -1.1038  0.6073  0.3357
18977TIP3    H178422   4.336   3.227   6.922  0.1936 -1.7858 -1.3844
18977TIP3    H278423   4.415   3.257   6.797 -0.4372  3.4732 -0.7467
18978TIP3   OH278424   6.029   4.404   2.878  0.1489  0.3407 -0.4348
18978TIP3    H178425   6.106   4.449   2.913 -1.2630  3.0276 -0.5452
18978TIP3    H278426   5.975   4.473   2.839 -2.2360 -1.4352 -0.5571
18979TIP3   OH278427   2.019   3.767  12.203  0.0200 -0.4752  0.1112
18979TIP3    H178428   2.017   3.852  12.158 -0.3183 -0.7862 -0.4687
18979TIP3    H278429   2.031   3.703  12.133  1.6850 -0.8224  0.6741
18980TIP3   OH278430   1.387   1.361   2.565 -0.4560 -0.1896 -0.3281
18980TIP3    H178431   1.454   1.389   2.502 -0.6599 -0.4523 -0.6635
18980TIP3    H278432   1.426   1.378   2.651 -0.5841  1.1751 -0.5138
18981TIP3   OH278433   0.939   0.235   3.921  0.4541  0.3834  0.1131
18981TIP3    H178434   0.944   0.321   3.880 -3.4490  0.5920 -0.2807
18981TIP3    H278435   0.910   0.252   4.010  1.5697 -0.4655  0.6603
18982TIP3   OH278436   3.785   2.111  17.293  0.2483  0.5719 -0.3116
18982TIP3    H178437   3.710   2.058  17.321  0.9553 -0.0128  0.5131
18982TIP3    H278438   3.780   2.111  17.197 -0.3253 -0.1647 -0.2894
18983TIP3   OH278439   2.347   2.637  13.178  0.2240 -0.3268  0.6284
18983TIP3    H178440   2.420   2.695  13.159  0.5839 -0.0914  2.4693
18983TIP3    H278441   2.382   2.549  13.167  0.9083 -0.2183  1.7849
18984TIP3   OH278442   6.316   6.189   3.911 -0.1726 -0.1675 -0.3624
18984TIP3    H178443   6.261   6.248   3.962 -0.0004  0.4247 -0.8440
18984TIP3    H278444   6.388   6.245   3.880  0.8757 -0.9890  0.5144
18985TIP3   OH278445   4.768   5.440  14.140  0.7805 -0.0991  0.1821
18985TIP3    H178446   4.722   5.366  14.101  2.3707 -0.9610 -0.1306
18985TIP3    H278447   4.796   5.493  14.066  1.3983 -0.2641  0.2932
18986TIP3   OH278448   6.223   6.105   3.061  0.4412 -0.4828 -0.2675
18986TIP3    H178449   6.186   6.017   3.058  1.8143 -1.0737 -0.7042
18986TIP3    H278450   6.168   6.152   3.124 -1.0580 -1.2800 -0.9090
18987TIP3   OH278451   5.970   3.230  15.713 -0.1967 -0.3158  0.6220
18987TIP3    H178452   5.970   3.214  15.808 -3.4702  0.4767  0.8644
18987TIP3    H278453   6.054   3.274  15.697  1.1841 -1.8888  2.8070
18988TIP3   OH278454   3.123   6.234   2.014 -0.0148  0.3086 -0.0214
18988TIP3    H178455   3.148   6.289   2.088 -0.6533 -1.5032  1.6296
18988TIP3    H278456   3.040   6.270   1.984  0.9448  1.9501 -0.8706
18989TIP3   OH278457   2.464   3.323   0.859 -0.0797  0.4584  0.1964
18989TIP3    H178458   2.445   3.322   0.953  1.1082 -0.4635  0.4445
18989TIP3    H278459   2.424   3.242   0.826  1.5690 -0.4675  0.3683
18990TIP3   OH278460   5.725   0.674   3.127  0.4152 -0.3886 -0.5190
18990TIP3    H178461   5.765   0.743   3.180  2.0811 -0.4192 -1.6812
18990TIP3    H278462   5.635   0.668   3.161  1.3227 -0.2730  2.1304
18991TIP3   OH278463   5.822   1.644  16.720  0.1614 -0.1781 -0.2014
18991TIP3    H178464   5.894   1.653  16.657 -1.2338  1.9466 -1.6300
18991TIP3    H278465   5.743   1.660  16.668 -1.0535  1.9058  2.0982
18992TIP3   OH278466   4.608   4.274  13.635  0.0329 -0.2262 -0.2170
18992TIP3    H178467   4.524   4.319  13.621 -0.7623 -1.6499 -0.1509
18992TIP3    H278468   4.632   4.297  13.725  0.4989  1.3925 -0.7091
18993TIP3   OH278469   0.656   6.046  17.000  0.8231 -0.5337 -0.2637
18993TIP3    H178470   0.598   6.020  17.072 -0.2390 -1.3156 -1.3757
18993TIP3    H278471   0.696   5.964  16.970  1.5419 -0.1637 -0.3444
18994TIP3   OH278472   2.575   0.328   2.724  0.3305 -0.6100 -0.1799
18994TIP3    H178473   2.581   0.388   2.799  0.8270 -1.2719  0.3286
18994TIP3    H278474   2.483   0.331   2.698  0.1943 -0.2163  0.3365
18995TIP3   OH278475   3.337   1.025   4.112  0.4182 -0.6765 -0.1543
18995TIP3    H178476   3.393   1.082   4.059 -0.8686  0.2170 -0.5757
18995TIP3    H278477   3.329   0.945   4.060  0.4212 -0.3974 -0.5867
18996TIP3   OH278478   2.088   1.777  13.083  0.3732 -0.3193 -0.0348
18996TIP3    H178479   2.089   1.771  12.987  1.3186  0.1307 -0.0699
18996TIP3    H278480   2.127   1.862  13.101  0.6457 -0.6114  0.7667
18997TIP3   OH278481   5.776   0.028  11.419 -0.1821 -0.5316 -0.0350
18997TIP3    H178482   5.824  -0.053  11.431 -0.4732 -0.7230 -0.1505
18997TIP3    H278483   5.697   0.003  11.370 -0.3048 -0.1935 -0.0185
18998TIP3   OH278484   6.748   1.862   2.750  0.1651 -0.1874 -0.0253
18998TIP3    H178485   6.783   1.932   2.806 -0.6808  1.6234 -1.6457
18998TIP3    H278486   6.746   1.900   2.662 -0.8376 -2.0955 -0.8869
18999TIP3   OH278487   4.529   2.937   2.350  0.6063 -0.3213 -0.0477
18999TIP3    H178488   4.505   2.908   2.438 -0.0951 -0.8865 -0.4170
18999TIP3    H278489   4.615   2.977   2.360 -0.6892  2.4080  1.4782
19000TIP3   OH278490   5.163   5.581   3.087 -0.4945  0.4045 -0.0044
19000TIP3    H178491   5.230   5.526   3.046 -1.9381 -0.7704 -0.8804
19000TIP3    H278492   5.152   5.654   3.026  0.3284  0.8860  0.4019
19001TIP3   OH278493   6.572   2.293  11.908 -0.1923  0.1015  0.0123
19001TIP3    H178494   6.550   2.201  11.899  1.9482 -0.5711  1.1000
19001TIP3    H278495   6.487   2.338  11.912 -1.3122 -1.5639 -2.2996
19002TIP3   OH278496   2.058   4.852  17.387 -0.6791 -0.3363 -0.1948
19002TIP3    H178497   1.974   4.808  17.396 -0.9175  0.4060  1.8512
19002TIP3    H278498   2.045   4.938  17.428  0.0029  1.3885 -3.2737
19003TIP3   OH278499   6.528   4.197   2.168  0.3431 -0.7053  0.0624
19003TIP3    H178500   6.574   4.264   2.118  0.8435 -1.2921 -0.2839
19003TIP3    H278501   6.500   4.133   2.102  0.6260 -1.2682  0.4782
19004TIP3   OH278502   4.947   3.336  13.940 -0.3411  0.5945  0.0667
19004TIP3    H178503   4.878   3.283  13.899  0.2438  1.6605 -2.4990
19004TIP3    H278504   5.029   3.298  13.907  0.1949  1.0375  0.8766
19005TIP3   OH278505   2.013   3.105  15.985 -0.2368  0.7294  0.2127
19005TIP3    H178506   2.065   3.071  16.058  0.3120 -0.8309 -0.8460
19005TIP3    H278507   2.077   3.125  15.917 -0.8616  0.5822 -0.4386
19006TIP3   OH278508   4.027   2.901   5.250  0.2613 -0.6091  0.1374
19006TIP3    H178509   4.087   2.853   5.307  0.1765  0.7645  1.4202
19006TIP3    H278510   4.066   2.988   5.241 -0.1408 -0.5445 -1.2696
19007TIP3   OH278511   0.552   6.008  14.542 -0.2865  0.2140 -0.0566
19007TIP3    H178512   0.538   5.990  14.449  1.8591  1.8861 -0.8002
19007TIP3    H278513   0.468   6.040  14.574 -0.7635  0.7141 -1.7368
19008TIP3   OH278514   1.888   4.837  14.481 -0.4057  0.2235 -0.3590
19008TIP3    H178515   1.959   4.897  14.457 -1.2161  0.7333 -1.6086
19008TIP3    H278516   1.932   4.758  14.511  0.6834  0.9753  0.0762
19009TIP3   OH278517   4.378   5.469  13.558 -0.4032 -0.1948  0.1547
19009TIP3    H178518   4.288   5.495  13.576 -1.0145 -1.6438 -0.6524
19009TIP3    H278519   4.417   5.456  13.645 -1.8493 -2.3404  0.5564
19010TIP3   OH278520   1.129   0.125   3.677 -0.9037 -0.1594 -0.0018
19010TIP3    H178521   1.113   0.087   3.590  0.6442  0.0800 -0.4253
19010TIP3    H278522   1.075   0.204   3.678 -0.7467 -0.0287 -0.8511
19011TIP3   OH278523   1.155   3.080  11.437  0.2420 -0.0290 -0.2130
19011TIP3    H178524   1.075   3.030  11.450 -0.5301  1.0703 -0.5657
19011TIP3    H278525   1.155   3.102  11.344  0.4942  0.7133 -0.0470
19012TIP3   OH278526   3.243   5.851   1.565  0.3654 -0.3427  0.7676
19012TIP3    H178527   3.317   5.832   1.623  0.6369 -2.8240 -0.2682
19012TIP3    H278528   3.282   5.862   1.479 -0.3855 -1.0212  0.3240
19013TIP3   OH278529   6.232   2.512   2.436 -0.3216  0.0516 -0.1628
19013TIP3    H178530   6.282   2.579   2.390 -0.5096 -0.4038 -1.0703
19013TIP3    H278531   6.292   2.437   2.443  0.0419  0.4493  1.2517
19014TIP3   OH278532   2.736   3.939  16.298 -0.2060 -0.3618  0.0842
19014TIP3    H178533   2.660   3.940  16.355 -1.7801 -0.4626 -1.9081
19014TIP3    H278534   2.753   3.846  16.281  0.1811 -0.3311  0.2930
19015TIP3   OH278535   4.420   4.742   5.975  0.3406 -0.0245 -0.5948
19015TIP3    H178536   4.476   4.679   6.020  1.3012  0.4274 -1.1275
19015TIP3    H278537   4.394   4.697   5.894  2.1688  0.7304 -1.6562
19016TIP3   OH278538   3.727   0.579  11.582 -0.5420  0.4685  0.5049
19016TIP3    H178539   3.776   0.593  11.501 -2.1923  0.1921 -0.5818
19016TIP3    H278540   3.640   0.613  11.564 -1.4105 -1.0196  1.6122
19017TIP3   OH278541   3.789   3.268   5.055  0.6917  0.0976  0.1001
19017TIP3    H178542   3.719   3.257   4.990  0.5454 -0.4294  0.3452
19017TIP3    H278543   3.870   3.266   5.004  0.7553 -2.9797  0.1647
19018TIP3   OH278544   1.027   6.692   2.899 -0.1908 -0.2191 -0.5051
19018TIP3    H178545   1.033   6.761   2.965 -0.9411 -0.8142  0.1981
19018TIP3    H278546   1.067   6.730   2.821  4.0610 -0.6524  1.1727
19019TIP3   OH278547   1.271   1.766  10.362  0.2805 -0.8472  0.1771
19019TIP3    H178548   1.273   1.773  10.267 -0.5694  2.5076  0.2787
19019TIP3    H278549   1.197   1.708  10.381  1.2803 -2.6588 -1.1466
19020TIP3   OH278550   6.599   2.139   1.477 -0.1774 -0.6951 -0.0453
19020TIP3    H178551   6.657   2.093   1.539  0.5199 -1.1539 -1.0061
19020TIP3    H278552   6.511   2.120   1.509  0.1664  0.7837  2.0026
19021TIP3   OH278553   3.739   0.332   6.660  0.2479 -0.2717  0.5956
19021TIP3    H178554   3.758   0.289   6.577  1.7019 -0.4577  0.9945
19021TIP3    H278555   3.805   0.298   6.720  0.7570  1.6763  1.2024
19022TIP3   OH278556   1.628   4.413   5.809  0.0449 -1.0416  0.0849
19022TIP3    H178557   1.617   4.503   5.778  0.7988 -0.9329  0.1349
19022TIP3    H278558   1.685   4.372   5.745  0.2024 -1.3117  0.3962
19023TIP3   OH278559   0.970   4.430  11.627 -0.2425 -0.2786 -0.1859
19023TIP3    H178560   1.006   4.436  11.538 -0.6341  2.0197 -0.2457
19023TIP3    H278561   0.893   4.487  11.625 -1.0000 -1.2015  1.3090
19024TIP3   OH278562   0.679   1.661  12.641  0.2979  0.1056 -0.1132
19024TIP3    H178563   0.597   1.613  12.654  0.1657  0.2816 -0.2979
19024TIP3    H278564   0.717   1.666  12.729  0.4853 -0.6364 -0.1421
19025TIP3   OH278565   6.483   0.041  14.792  0.2342 -0.2896 -0.3194
19025TIP3    H178566   6.553   0.009  14.848 -0.5499  0.6404  1.2480
19025TIP3    H278567   6.522   0.043  14.704  1.7649 -0.9366  0.3075
19026TIP3   OH278568   5.389   4.713  13.848  0.4244  0.5944 -0.5719
19026TIP3    H178569   5.359   4.746  13.764  2.0605  1.8525 -0.7132
19026TIP3    H278570   5.484   4.704  13.838  0.6039  0.4234  1.0149
19027TIP3   OH278571   6.707   1.557   4.684 -0.0619  0.7797  0.5856
19027TIP3    H178572   6.795   1.590   4.663 -1.2002  1.9623 -3.0015
19027TIP3    H278573   6.716   1.462   4.681  0.8421  0.8868 -1.1554
19028TIP3   OH278574   3.387   0.021   3.312  0.3343  0.0523  0.0686
19028TIP3    H178575   3.369  -0.034   3.236  0.7974 -0.5167  0.3664
19028TIP3    H278576   3.468   0.067   3.290  1.3602 -1.3038  0.8397
19029TIP3   OH278577   6.115   3.276   0.152  0.2064  0.3608  0.3952
19029TIP3    H178578   6.090   3.343   0.088 -0.0399  0.0193  0.1255
19029TIP3    H278579   6.200   3.245   0.123 -0.6454 -1.0058 -0.7918
19030TIP3   OH278580   0.206   3.737  14.262 -0.1109  0.0158  0.1793
19030TIP3    H178581   0.131   3.680  14.274  0.5472 -0.8179  0.4251
19030TIP3    H278582   0.170   3.826  14.260 -1.2656 -0.4485 -1.1922
19031TIP3   OH278583   1.231   1.337   3.266 -0.0884 -0.0801 -0.0133
19031TIP3    H178584   1.163   1.358   3.330  1.6874  0.1231  1.9094
19031TIP3    H278585   1.313   1.360   3.310  1.4283 -2.8421 -1.1369
19032TIP3   OH278586   1.865   0.427   2.320  0.5533  0.6436  0.5371
19032TIP3    H178587   1.959   0.410   2.333  0.6395  0.7052  0.0274
19032TIP3    H278588   1.863   0.505   2.264  0.2089  0.2208 -0.0409
19033TIP3   OH278589   3.539   5.896  13.788 -0.9839 -0.0345 -0.2719
19033TIP3    H178590   3.527   5.951  13.865 -1.2001 -1.1235  0.5053
19033TIP3    H278591   3.482   5.820  13.804  2.3614 -2.6053  0.7665
19034TIP3   OH278592   1.117   2.150   1.143  0.1005 -0.0182  0.1787
19034TIP3    H178593   1.040   2.113   1.187 -1.1001  1.6002 -0.4425
19034TIP3    H278594   1.188   2.142   1.207 -1.1943  0.8056  1.7824
19035TIP3   OH278595   3.826   6.558   2.485 -0.0866  0.1001 -0.7386
19035TIP3    H178596   3.775   6.617   2.429 -0.0348 -0.8860 -1.8538
19035TIP3    H278597   3.913   6.555   2.443  0.3197  0.2728  0.0720
19036TIP3   OH278598   2.708   1.912  11.119  0.4543 -0.2871 -0.2592
19036TIP3    H178599   2.792   1.941  11.083  0.0414 -0.5238 -1.4531
19036TIP3    H278600   2.676   1.848  11.056 -0.4359 -0.5003  0.3955
19037TIP3   OH278601   6.262   4.571  14.110 -0.4470 -0.0445 -0.0013
19037TIP3    H178602   6.322   4.637  14.075  0.5534 -1.5074 -1.1551
19037TIP3    H278603   6.276   4.574  14.204  0.8056  0.2640 -0.1786
19038TIP3   OH278604   5.992   0.414   4.386 -0.2636 -0.3471  0.7034
19038TIP3    H178605   5.956   0.326   4.372  2.0237 -1.4946  1.5081
19038TIP3    H278606   6.022   0.413   4.477  0.5482  0.9850  0.4758
19039TIP3   OH278607   6.442   6.689  17.346 -0.4898 -0.0814 -0.0840
19039TIP3    H178608   6.362   6.741  17.353 -0.5126 -0.1615  0.2658
19039TIP3    H278609   6.448   6.667  17.253 -1.7339 -1.4138  0.1145
19040TIP3   OH278610   0.151   6.234  15.622 -0.2261 -0.0088  0.2119
19040TIP3    H178611   0.067   6.238  15.669 -0.7753 -0.2416 -0.7268
19040TIP3    H278612   0.173   6.325  15.605  0.3705  0.1276  1.5730
19041TIP3   OH278613   1.149   5.035   3.645  0.5006 -0.3525 -0.3432
19041TIP3    H178614   1.150   4.981   3.566 -0.5289 -1.4020  0.3226
19041TIP3    H278615   1.104   4.981   3.710 -1.4904  1.6769  0.0935
19042TIP3   OH278616   5.764   4.571   0.807  0.4465  0.1439  0.4171
19042TIP3    H178617   5.732   4.660   0.822 -0.0762  0.2642 -1.1825
19042TIP3    H278618   5.694   4.515   0.839  1.5174  0.2136  3.0832
19043TIP3   OH278619   5.466   6.607  10.626 -0.3867  0.3775 -0.1606
19043TIP3    H178620   5.385   6.621  10.578 -0.7540  0.5266  0.4797
19043TIP3    H278621   5.478   6.512  10.628 -0.4526  0.3651 -0.4126
19044TIP3   OH278622   4.987   0.676  15.581  0.0009  0.0612 -0.6751
19044TIP3    H178623   5.006   0.643  15.493  1.2354 -1.2367  0.0413
19044TIP3    H278624   5.073   0.691  15.620 -0.4090 -2.0737  1.2656
19045TIP3   OH278625   5.487   0.526  14.642 -0.4466 -0.1442 -0.5142
19045TIP3    H178626   5.454   0.445  14.681 -1.2959  0.6882  0.5791
19045TIP3    H278627   5.540   0.497  14.568 -2.1779 -1.6229 -1.2638
19046TIP3   OH278628   5.935   4.946  14.578  0.2977  0.0484  0.0953
19046TIP3    H178629   5.906   4.999  14.652  0.6594  1.7125 -0.8914
19046TIP3    H278630   5.975   4.868  14.617 -1.6715 -0.2805  1.5591
19047TIP3   OH278631   4.355   2.825   1.690  0.6289 -0.7905 -0.3880
19047TIP3    H178632   4.291   2.819   1.620 -0.8112 -3.7341  0.9953
19047TIP3    H278633   4.310   2.875   1.759  0.3446 -1.6293  0.0437
19048TIP3   OH278634   5.532   6.596   2.092  0.4311  0.4423 -0.8194
19048TIP3    H178635   5.505   6.614   2.182 -0.8054  0.3239 -1.1464
19048TIP3    H278636   5.575   6.510   2.096  2.5166  1.4743  0.0258
19049TIP3   OH278637   4.578   4.288   0.047 -0.0392 -0.2278 -0.2445
19049TIP3    H178638   4.510   4.308  -0.017  0.3177  0.7409 -0.3499
19049TIP3    H278639   4.539   4.223   0.105 -0.5860 -0.6576 -1.0767
19050TIP3   OH278640   4.343   3.923   1.722 -0.2565  0.3313  0.2853
19050TIP3    H178641   4.360   3.849   1.663 -1.6596 -0.1279  0.4166
19050TIP3    H278642   4.367   4.000   1.670  0.9226 -0.1736  0.0347
19051TIP3   OH278643   4.158   5.266  10.726 -0.7647 -0.1138 -0.0298
19051TIP3    H178644   4.087   5.204  10.741 -1.2234  0.7083  1.4243
19051TIP3    H278645   4.232   5.231  10.776  0.0666 -1.2215 -1.9197
19052TIP3   OH278646   3.341   1.965   5.449 -0.0005 -0.4657  0.0831
19052TIP3    H178647   3.404   1.926   5.510 -1.3906 -1.4647  0.9380
19052TIP3    H278648   3.390   2.035   5.405  1.1477  0.0800  2.1082
19053TIP3   OH278649   0.880   3.746  16.377  0.0399 -0.0737  0.3462
19053TIP3    H178650   0.785   3.756  16.373 -0.0841  1.0868  3.3491
19053TIP3    H278651   0.896   3.653  16.361 -1.5331 -0.1934 -0.6694
19054TIP3   OH278652   5.655   4.156   2.121  0.3758  0.0012  0.1721
19054TIP3    H178653   5.729   4.155   2.182  0.5186 -1.2098 -0.0007
19054TIP3    H278654   5.615   4.242   2.134  1.6909  0.6111  0.4020
19055TIP3   OH278655   1.284   3.799   2.046  1.1764  0.0313 -0.0687
19055TIP3    H178656   1.332   3.856   1.985  0.7038  0.5234  0.0074
19055TIP3    H278657   1.291   3.844   2.130 -2.0232  1.8038 -0.6045
19056TIP3   OH278658   4.053   3.388   1.468  0.0114  0.4564 -0.3290
19056TIP3    H178659   4.109   3.466   1.474 -0.6188  0.8750  0.3523
19056TIP3    H278660   4.062   3.359   1.378  1.9292  0.0424 -0.0474
19057TIP3   OH278661   3.736   5.392  13.538  0.3510 -0.3698 -0.5014
19057TIP3    H178662   3.661   5.452  13.537  0.2377 -0.5165 -1.2496
19057TIP3    H278663   3.700   5.308  13.512  0.5279 -0.7610  0.4697
19058TIP3   OH278664   1.903   1.072  14.710  0.0852  0.0265  0.4184
19058TIP3    H178665   1.908   1.022  14.792 -1.1553 -0.4214  0.2411
19058TIP3    H278666   1.984   1.051  14.664  1.3013  1.0918  1.9552
19059TIP3   OH278667   4.106   0.144   5.692 -0.3235  0.3033 -0.4716
19059TIP3    H178668   4.142   0.181   5.773 -0.5317  0.6321 -0.5251
19059TIP3    H278669   4.174   0.160   5.626 -0.4349  0.6505 -0.5068
19060TIP3   OH278670   0.659   2.184  13.681 -0.4753 -0.0356  0.4071
19060TIP3    H178671   0.720   2.257  13.695  1.2003 -0.7926 -2.2700
19060TIP3    H278672   0.676   2.124  13.754  1.7889 -0.0537 -0.0702
19061TIP3   OH278673   5.566   1.646  13.776 -0.0001  0.4570 -0.4267
19061TIP3    H178674   5.652   1.606  13.791 -0.2907 -0.1095 -0.2613
19061TIP3    H278675   5.566   1.668  13.682 -1.3806 -3.7915 -1.6541
19062TIP3   OH278676   3.872   3.752   3.046  0.2597 -0.0148 -0.4169
19062TIP3    H178677   3.966   3.768   3.042  0.2914 -0.1210 -0.0942
19062TIP3    H278678   3.843   3.760   2.955  0.4687  0.6995 -0.4284
19063TIP3   OH278679   1.829   2.434   5.318  0.2554 -0.0986  0.4672
19063TIP3    H178680   1.887   2.382   5.263  3.6312  0.9842  2.6910
19063TIP3    H278681   1.816   2.381   5.396  0.7470  0.8553  1.2190
19064TIP3   OH278682   5.155   1.932   2.639 -0.2397  0.0723 -0.2573
19064TIP3    H178683   5.221   1.913   2.572  0.3087  1.5203 -0.1547
19064TIP3    H278684   5.175   1.872   2.710 -0.4774 -1.0919 -1.1353
19065TIP3   OH278685   4.637   6.509   5.357 -0.2883  0.0286  0.1096
19065TIP3    H178686   4.714   6.562   5.379  0.3456 -1.4853  1.8785
19065TIP3    H278687   4.564   6.570   5.361  0.4443  0.8665  1.7912
19066TIP3   OH278688   0.897   4.562  13.667  0.0025 -0.3690  0.4250
19066TIP3    H178689   0.917   4.639  13.721 -2.4726  0.3854  0.4036
19066TIP3    H278690   0.934   4.582  13.581  0.5920  0.1557  0.7897
19067TIP3   OH278691   5.329   2.128   6.639 -0.7339 -0.3129  0.0910
19067TIP3    H178692   5.312   2.136   6.545  0.0457 -0.0813 -0.0375
19067TIP3    H278693   5.391   2.198   6.658 -1.5155  0.1646  0.9513
19068TIP3   OH278694   4.954   5.380  13.119 -0.2549  0.2829  0.6515
19068TIP3    H178695   4.984   5.469  13.101 -2.6634  1.2245  0.9572
19068TIP3    H278696   5.032   5.326  13.108  1.0881  2.3099 -0.3804
19069TIP3   OH278697   3.846   4.471   5.646 -0.3845  0.5678  0.9106
19069TIP3    H178698   3.876   4.382   5.629  1.1902  0.9970  1.3186
19069TIP3    H278699   3.925   4.521   5.665 -1.3066  1.8778  1.5438
19070TIP3   OH278700   2.696   1.760  15.782 -0.4625  0.2455 -0.4979
19070TIP3    H178701   2.629   1.828  15.791 -0.0325  0.7646 -1.1391
19070TIP3    H278702   2.771   1.793  15.831  0.2067  0.8593 -1.8876
19071TIP3   OH278703   3.341   4.632  15.819 -0.0033 -0.2123  0.1779
19071TIP3    H178704   3.428   4.618  15.781 -0.1642 -1.0139  0.0934
19071TIP3    H278705   3.293   4.678  15.751 -0.7499 -2.9242 -1.2662
19072TIP3   OH278706   0.984   0.582   3.781  0.2803  0.1959  0.2985
19072TIP3    H178707   0.903   0.533   3.794  0.4481 -0.2169 -0.1795
19072TIP3    H278708   0.976   0.658   3.838 -1.7012  1.6504 -1.7482
19073TIP3   OH278709   2.775   5.841  12.565 -0.3953 -0.1705 -0.0051
19073TIP3    H178710   2.744   5.752  12.579 -0.4881 -0.8901 -3.8237
19073TIP3    H278711   2.870   5.832  12.552 -0.5078  0.0992 -1.1871
19074TIP3   OH278712   0.848   6.239  13.316 -0.1523 -0.1952  0.3799
19074TIP3    H178713   0.791   6.316  13.309  0.6900  0.3765 -0.6090
19074TIP3    H278714   0.837   6.208  13.406 -0.7314  0.9098  0.7032
19075TIP3   OH278715   0.516   4.124   1.778 -0.2220  0.1683  0.4648
19075TIP3    H178716   0.575   4.114   1.852 -2.0726 -0.8865  1.9069
19075TIP3    H278717   0.437   4.163   1.815 -1.4686 -1.0393 -0.7611
19076TIP3   OH278718   2.443   6.141  12.729 -0.1095  0.0502 -0.4854
19076TIP3    H178719   2.488   6.057  12.739 -1.1395 -0.4274  0.4496
19076TIP3    H278720   2.430   6.150  12.635  2.2188  0.4061 -0.8359
19077TIP3   OH278721   4.970   4.739   4.683  0.0255  0.1297 -0.4377
19077TIP3    H178722   4.914   4.674   4.725 -2.4015  1.6059 -1.1671
19077TIP3    H278723   5.033   4.688   4.633 -0.8346 -1.6547  0.2223
19078TIP3   OH278724   3.256   4.464   6.388 -0.1129  0.3451 -0.8453
19078TIP3    H178725   3.180   4.471   6.446  1.9483 -1.7332  2.4014
19078TIP3    H278726   3.235   4.392   6.329 -1.3697  1.0789 -1.3527
19079TIP3   OH278727   3.027   0.408   2.958 -0.1440 -0.2837  0.6801
19079TIP3    H178728   3.013   0.316   2.936 -0.1005 -0.0541 -0.3685
19079TIP3    H278729   2.984   0.456   2.887  0.9911  0.4911  0.4931
19080TIP3   OH278730   3.265   3.387   3.157 -0.2725 -0.5071 -0.0280
19080TIP3    H178731   3.289   3.329   3.084  0.9485 -2.1572  1.6023
19080TIP3    H278732   3.345   3.396   3.208 -0.7060  1.8956  0.3134
19081TIP3   OH278733   2.443   3.584  17.487  0.7894 -0.4820  0.0376
19081TIP3    H178734   2.442   3.638  17.567 -2.5389 -0.0843 -0.1379
19081TIP3    H278735   2.464   3.496  17.519  0.7854 -0.1056  1.1507
19082TIP3   OH278736   6.233   1.986  15.292 -0.3365  0.1424 -0.7779
19082TIP3    H178737   6.318   1.952  15.264  0.2547  0.9387 -0.0271
19082TIP3    H278738   6.232   2.077  15.263 -0.2387  0.6124  0.6046
19083TIP3   OH278739   5.062   1.217  14.639 -0.1847 -0.1467 -0.1433
19083TIP3    H178740   5.002   1.259  14.577 -0.4719 -0.4652 -0.0800
19083TIP3    H278741   5.009   1.151  14.684  0.4174 -1.0378 -0.7011
19084TIP3   OH278742   2.535   1.599  15.960 -0.1947 -0.1640 -0.2481
19084TIP3    H178743   2.560   1.646  15.881 -1.9345 -0.6298 -1.1165
19084TIP3    H278744   2.537   1.507  15.934  3.1877 -0.7101  1.4257
19085TIP3   OH278745   1.293   1.338  16.272 -0.3001 -0.5521 -0.0594
19085TIP3    H178746   1.357   1.306  16.336 -0.3461 -0.4196  0.0528
19085TIP3    H278747   1.305   1.281  16.195  1.5465  0.8798 -0.9168
19086TIP3   OH278748   3.025   3.719  17.112 -0.0565  0.1384  0.1253
19086TIP3    H178749   2.978   3.735  17.194 -1.7423  0.6327 -0.8949
19086TIP3    H278750   3.072   3.800  17.095  2.1729 -0.7079  1.6939
19087TIP3   OH278751   0.074   5.850   2.940  0.1265  0.1870  0.0408
19087TIP3    H178752   0.169   5.860   2.947  0.2193 -0.9906  0.6825
19087TIP3    H278753   0.039   5.916   3.001  0.5220  0.7190 -0.2991
19088TIP3   OH278754   0.637   2.468  17.523 -0.2011  0.0611  0.7479
19088TIP3    H178755   0.658   2.503  17.610 -0.0450  0.6825  0.4685
19088TIP3    H278756   0.551   2.429  17.532  0.1871 -0.6658  1.4005
19089TIP3   OH278757   0.844   5.042  15.275 -0.3156  0.4117 -0.0239
19089TIP3    H178758   0.768   5.022  15.221  0.5319 -2.9520 -0.2001
19089TIP3    H278759   0.821   5.010  15.363  1.1590 -1.5988 -0.3026
19090TIP3   OH278760   1.407   4.882   1.235 -0.1061 -0.3784  0.0957
19090TIP3    H178761   1.393   4.793   1.267  1.3195 -0.5648  0.2943
19090TIP3    H278762   1.461   4.871   1.157 -0.3506  0.2899 -0.1771
19091TIP3   OH278763   3.906   6.616  15.096 -0.0683  0.2874 -0.2697
19091TIP3    H178764   3.983   6.568  15.064  0.3730  0.7100  0.1420
19091TIP3    H278765   3.927   6.708  15.078 -0.0561  0.4850  0.7111
19092TIP3   OH278766   4.815   0.345  12.108 -0.4740  0.2630  0.4959
19092TIP3    H178767   4.730   0.389  12.108  0.0708  1.3378  0.1003
19092TIP3    H278768   4.796   0.256  12.078 -1.1842  1.0627 -1.5690
19093TIP3   OH278769   4.520   3.690   0.058  0.6611  0.3623  0.4352
19093TIP3    H178770   4.583   3.681  -0.013  0.6097 -0.8700  0.5149
19093TIP3    H278771   4.521   3.605   0.102 -0.7880  0.4248  0.6558
19094TIP3   OH278772   4.407   6.662   6.569 -0.7585  0.1764  0.0904
19094TIP3    H178773   4.319   6.641   6.601  0.2920 -0.8363  2.6154
19094TIP3    H278774   4.439   6.730   6.628  0.3972  0.0701 -0.3782
19095TIP3   OH278775   4.129   0.427   3.199  0.2127  0.3441  0.1195
19095TIP3    H178776   4.101   0.374   3.124 -1.5221 -0.9911  1.6439
19095TIP3    H278777   4.088   0.512   3.184 -1.5236 -0.4058  0.3150
19096TIP3   OH278778   4.759   1.698  17.427 -0.3143  0.1051 -0.1339
19096TIP3    H178779   4.667   1.719  17.446 -0.3877 -0.0352 -0.3370
19096TIP3    H278780   4.808   1.768  17.470 -0.4948 -0.0681  0.3617
19097TIP3   OH278781   5.156   2.523   0.294  0.2192 -0.3808 -0.0437
19097TIP3    H178782   5.146   2.498   0.202  0.3592  1.7386 -0.6821
19097TIP3    H278783   5.247   2.555   0.300  0.5684 -1.4995  1.1115
19098TIP3   OH278784   3.225   5.738  10.696  0.0366  0.1519 -0.2263
19098TIP3    H178785   3.238   5.699  10.782  0.5803  1.8992  0.5164
19098TIP3    H278786   3.299   5.705  10.643 -0.3824 -1.0425 -0.1098
19099TIP3   OH278787   0.034   3.904   3.011  0.0289  0.4411  0.4951
19099TIP3    H178788  -0.050   3.934   2.977  0.0166  1.1143  1.0990
19099TIP3    H278789   0.072   3.853   2.940 -0.2274  1.3739 -0.3312
19100TIP3   OH278790   0.353   3.147   3.394 -0.3717  0.1154 -0.4065
19100TIP3    H178791   0.338   3.053   3.406  1.1726  0.0498  1.5151
19100TIP3    H278792   0.266   3.186   3.407 -0.6443 -0.8965  1.0630
19101TIP3   OH278793   3.294   2.069  11.202  0.1705 -0.0059  0.7441
19101TIP3    H178794   3.278   2.161  11.179  1.6792  0.3337  0.8824
19101TIP3    H278795   3.294   2.023  11.119 -1.1708  0.0085  0.7243
19102TIP3   OH278796   6.486   6.483  12.937 -0.2651  0.2172 -0.1931
19102TIP3    H178797   6.554   6.428  12.897 -0.2886 -0.1560  0.2786
19102TIP3    H278798   6.535   6.547  12.990 -0.3080 -1.6905  2.3058
19103TIP3   OH278799   5.662   3.407  11.248 -0.6226 -0.1622 -0.2800
19103TIP3    H178800   5.591   3.471  11.245 -0.7863 -0.3636 -0.7568
19103TIP3    H278801   5.630   3.332  11.198  0.1273 -0.0454 -0.9629
19104TIP3   OH278802   3.024   1.067   1.311  0.0734 -0.4316  0.2818
19104TIP3    H178803   3.100   1.110   1.349  0.8847 -2.2625  0.8464
19104TIP3    H278804   2.954   1.079   1.375  0.3140 -0.0841  0.4811
19105TIP3   OH278805   0.595   3.381  11.729  0.5160 -0.6371  0.3767
19105TIP3    H178806   0.524   3.388  11.792  0.1331 -1.4821  0.0613
19105TIP3    H278807   0.674   3.375  11.782  0.2868 -0.4230  0.7483
19106TIP3   OH278808   1.840   3.728   1.853 -0.0795 -0.2139  0.3247
19106TIP3    H178809   1.906   3.660   1.853  3.0062  2.5166  1.6123
19106TIP3    H278810   1.825   3.748   1.946  0.0741  1.6590 -0.0066
19107TIP3   OH278811   6.025   0.719   4.274  0.2227  0.2620  0.2456
19107TIP3    H178812   5.989   0.631   4.275  0.7803  0.0016 -1.1613
19107TIP3    H278813   5.995   0.757   4.191  2.1890  0.4350 -0.4317
19108TIP3   OH278814   0.118   5.846   0.862  0.6049 -0.2497  0.0880
19108TIP3    H178815   0.153   5.885   0.942 -1.3627 -0.2435  0.9951
19108TIP3    H278816   0.186   5.783   0.835  1.2812 -0.3216  1.8010
19109TIP3   OH278817   0.657   3.736  15.192 -0.3619  0.2338 -0.3392
19109TIP3    H178818   0.583   3.696  15.239 -1.8244  1.6859 -1.3101
19109TIP3    H278819   0.734   3.707  15.241 -1.5397 -1.4329  0.6460
19110TIP3   OH278820   6.388   3.845  11.653 -0.2225  0.4839  0.8523
19110TIP3    H178821   6.352   3.902  11.584 -2.2494 -1.1522  0.4705
19110TIP3    H278822   6.427   3.906  11.716 -0.6496  2.1755 -0.4265
19111TIP3   OH278823   2.975   4.202  12.493  0.4199  0.0566  0.2577
19111TIP3    H178824   3.035   4.151  12.547 -0.4682 -0.1857  1.0537
19111TIP3    H278825   2.935   4.264  12.554 -0.5969 -0.2156 -0.1133
19112TIP3   OH278826   3.801   6.491  14.409  0.5973  0.0647  0.0193
19112TIP3    H178827   3.843   6.528  14.331 -1.4158  0.9217 -0.7099
19112TIP3    H278828   3.730   6.437  14.375 -1.0426  1.3469  1.2328
19113TIP3   OH278829   0.711   6.656  16.178 -0.2015 -0.1109 -0.4244
19113TIP3    H178830   0.619   6.681  16.185 -0.2056 -0.3736  0.5907
19113TIP3    H278831   0.723   6.633  16.086 -1.1208  0.0220 -0.5827
19114TIP3   OH278832   0.021   3.691  17.238 -0.4197 -0.1188 -0.1696
19114TIP3    H178833   0.041   3.687  17.331  0.0915  0.8978 -0.2270
19114TIP3    H278834  -0.035   3.768  17.229  1.5412  1.3065 -1.0222
19115TIP3   OH278835   0.615   6.013  13.752 -0.5785 -0.1923  0.1967
19115TIP3    H178836   0.655   6.078  13.810  1.1683 -3.3278  2.8130
19115TIP3    H278837   0.547   5.971  13.806  0.5021 -2.6264 -0.2005
19116TIP3   OH278838   2.834   4.850   5.147  0.8112 -0.2408  0.2021
19116TIP3    H178839   2.877   4.935   5.132 -1.4712  0.8473 -0.6612
19116TIP3    H278840   2.782   4.864   5.226  0.7433 -0.9896  0.2900
19117TIP3   OH278841   2.014   3.551   5.904 -0.1559 -0.5249  0.4203
19117TIP3    H178842   2.095   3.503   5.884  1.0918  1.3090  0.8699
19117TIP3    H278843   2.028   3.585   5.992  0.2065  2.9210 -0.8424
19118TIP3   OH278844   5.012   4.067   3.734 -0.1797 -0.3864  0.5167
19118TIP3    H178845   5.016   4.150   3.688  0.6047 -2.3918 -3.4974
19118TIP3    H278846   5.093   4.063   3.785  0.0801  1.0133  0.2327
19119TIP3   OH278847   0.489   2.509   1.203 -0.0949  0.2723  0.4841
19119TIP3    H178848   0.523   2.443   1.143  0.4231 -0.1124  1.1819
19119TIP3    H278849   0.567   2.556   1.233 -0.2873  0.1167  1.2484
19120TIP3   OH278850   6.118   3.544  11.287 -0.5763  0.5152  0.1058
19120TIP3    H178851   6.035   3.526  11.330 -0.3404  0.2776  0.4681
19120TIP3    H278852   6.100   3.534  11.194 -0.9561  0.4853  0.1813
19121TIP3   OH278853   2.996   2.871  14.860 -0.6218  0.0047  0.5235
19121TIP3    H178854   3.045   2.936  14.810 -2.0476  0.9050  0.2578
19121TIP3    H278855   3.064   2.822  14.907  0.5463  1.0582  0.0056
19122TIP3   OH278856   5.443   0.206   6.958 -0.1716  0.4068 -0.3328
19122TIP3    H178857   5.519   0.254   6.989  0.2998  0.9345 -2.1989
19122TIP3    H278858   5.463   0.114   6.977  0.5501  0.6108 -0.0691
19123TIP3   OH278859   3.071   5.585  14.261  0.3867 -0.1104  0.0787
19123TIP3    H178860   3.095   5.579  14.353  0.8622  1.1032  0.0541
19123TIP3    H278861   3.061   5.679  14.245  2.9547 -0.0300 -1.7222
19124TIP3   OH278862   5.616   6.640   0.151 -0.6959  0.1299 -0.0652
19124TIP3    H178863   5.538   6.583   0.154 -1.3590  0.7804 -2.8076
19124TIP3    H278864   5.584   6.722   0.113  1.4004  0.2206 -1.7994
19125TIP3   OH278865   5.844   4.307   0.546  0.5418 -0.4764  0.6491
19125TIP3    H178866   5.760   4.304   0.500  1.4522 -2.1048 -1.0599
19125TIP3    H278867   5.900   4.363   0.491  1.8820 -3.0777 -0.8234
19126TIP3   OH278868   5.187   5.272  15.825  0.1661 -0.0759  0.1846
19126TIP3    H178869   5.147   5.188  15.804  0.1421 -0.7845  2.6876
19126TIP3    H278870   5.239   5.255  15.903  1.3565  1.9389 -0.0933
19127TIP3   OH278871   1.656   0.149   4.335 -0.0166 -0.0266 -0.9503
19127TIP3    H178872   1.585   0.186   4.387  0.1394 -0.7665 -0.1960
19127TIP3    H278873   1.639   0.055   4.335  1.2833 -0.2839 -0.2610
19128TIP3   OH278874   2.469   4.415  15.738  0.2687  0.4631 -0.3968
19128TIP3    H178875   2.477   4.320  15.748 -1.3562  0.3027 -0.4056
19128TIP3    H278876   2.495   4.433  15.648 -1.4186 -0.2749 -1.0810
19129TIP3   OH278877   4.172   5.780   1.187  0.1350 -0.2689 -0.1994
19129TIP3    H178878   4.228   5.716   1.144  1.0812 -0.0716  0.6939
19129TIP3    H278879   4.108   5.728   1.236 -0.6959 -0.4955 -1.4726
19130TIP3   OH278880   0.834   2.508   1.306 -0.1779 -0.1120 -0.3169
19130TIP3    H178881   0.856   2.575   1.242  2.5851 -1.3688 -0.8397
19130TIP3    H278882   0.851   2.549   1.391 -2.6796  1.1603 -0.3562
19131TIP3   OH278883   1.844   1.132   1.734 -0.2455  0.4329 -0.3533
19131TIP3    H178884   1.888   1.056   1.771 -0.4807 -0.1662 -1.2775
19131TIP3    H278885   1.896   1.207   1.765  0.1112 -0.1009  0.3874
19132TIP3   OH278886   5.410   1.733   4.631  0.4262 -0.5216 -0.0575
19132TIP3    H178887   5.426   1.650   4.675 -1.2648 -1.4392 -1.0416
19132TIP3    H278888   5.393   1.796   4.701 -1.3738 -1.7421  0.6453
19133TIP3   OH278889   1.852   4.318   2.585  0.5090  0.3970  0.3709
19133TIP3    H178890   1.777   4.373   2.608 -0.6982 -1.0413  0.0104
19133TIP3    H278891   1.912   4.378   2.541 -1.8778  0.9847 -2.3629
19134TIP3   OH278892   2.741   1.000  15.389  0.0460 -0.0070 -0.6407
19134TIP3    H178893   2.791   0.967  15.464 -1.1603 -0.8621 -0.1833
19134TIP3    H278894   2.662   1.038  15.428 -0.5080 -0.3036 -1.4612
19135TIP3   OH278895   1.718   1.993  15.849 -1.2265 -0.2781  0.4361
19135TIP3    H178896   1.624   1.999  15.867 -1.4927  2.5913 -1.1834
19135TIP3    H278897   1.731   2.049  15.772  1.4435 -2.7337 -1.0764
19136TIP3   OH278898   1.442   0.586   6.183 -0.2345  0.4723 -0.1604
19136TIP3    H178899   1.493   0.549   6.256 -0.4128  0.6709  0.0669
19136TIP3    H278900   1.368   0.630   6.225 -0.2622  0.7105 -0.4538
19137TIP3   OH278901   6.725   1.586  16.915  0.0311  0.0208 -0.1489
19137TIP3    H178902   6.762   1.623  16.995  2.6386 -2.3841 -0.0821
19137TIP3    H278903   6.677   1.509  16.945 -1.1431  0.5263 -0.6995
19138TIP3   OH278904   2.343   3.108   0.771 -0.1326 -0.0699  0.0970
19138TIP3    H178905   2.358   3.015   0.753 -0.4464 -0.3392  1.1230
19138TIP3    H278906   2.253   3.112   0.804  0.3904  0.3392  1.5857
19139TIP3   OH278907   1.052   0.221  16.967 -0.0005  0.2384 -0.1417
19139TIP3    H178908   1.097   0.305  16.962 -1.6217  1.1180 -0.7614
19139TIP3    H278909   1.026   0.203  16.876 -0.4800 -0.4574  0.1283
19140TIP3   OH278910   6.004   3.489  10.998  0.1408 -0.3284  0.0986
19140TIP3    H178911   6.079   3.545  10.974 -0.1190 -0.4675 -1.1243
19140TIP3    H278912   5.927   3.539  10.969 -0.1128 -1.1228 -0.6381
19141TIP3   OH278913   1.175   2.197  11.526  0.4419 -0.1005  0.0854
19141TIP3    H178914   1.136   2.262  11.467  0.1826 -0.9359 -0.6817
19141TIP3    H278915   1.257   2.238  11.555 -0.3532  1.1186  0.6806
19142TIP3   OH278916   5.921   5.117   0.075  0.2634 -0.6297  0.2025
19142TIP3    H178917   5.868   5.156   0.145  0.7828 -1.1140  0.8783
19142TIP3    H278918   5.969   5.192   0.038  1.1610 -0.5622  1.4139
19143TIP3   OH278919   1.397   3.128   4.217 -0.3767 -0.1533  0.3556
19143TIP3    H178920   1.442   3.065   4.273  0.6417  0.4208  0.1996
19143TIP3    H278921   1.440   3.119   4.132 -0.0437  0.9073  0.3921
19144TIP3   OH278922   2.196   0.140  13.325 -0.2858 -0.0600 -0.2156
19144TIP3    H178923   2.173   0.047  13.324 -0.0666 -0.1159 -1.5775
19144TIP3    H278924   2.142   0.177  13.395 -3.3621 -0.5115 -2.1251
19145TIP3   OH278925   1.160   0.953  15.269  0.8906  0.2269  0.0521
19145TIP3    H178926   1.090   1.005  15.229 -0.3176 -0.3250  1.3477
19145TIP3    H278927   1.240   0.986  15.229  0.1131  2.5741  0.2533
19146TIP3   OH278928   0.412   3.682   3.199  0.5258  0.1807 -0.0438
19146TIP3    H178929   0.400   3.770   3.164 -0.5022 -0.4311 -1.3322
19146TIP3    H278930   0.323   3.653   3.222  0.6195 -1.0793 -1.1330
19147TIP3   OH278931   4.950   1.181   4.913 -0.7638  1.2607 -0.5110
19147TIP3    H178932   4.923   1.127   4.987 -0.7202  1.2673 -0.4903
19147TIP3    H278933   4.872   1.189   4.859 -0.5181  0.3428 -1.0267
19148TIP3   OH278934   6.475   3.861   5.808 -0.1556 -0.2761 -0.2145
19148TIP3    H178935   6.431   3.862   5.723  2.1005  1.7060 -1.4919
19148TIP3    H278936   6.536   3.788   5.803 -0.4864 -0.5642 -0.0391
19149TIP3   OH278937   6.043   2.777   2.890  0.0443 -0.0692  0.5796
19149TIP3    H178938   6.089   2.714   2.835  0.6300  0.6038  0.2874
19149TIP3    H278939   6.026   2.851   2.833 -1.5389 -0.3494  0.6438
19150TIP3   OH278940   0.428   3.505   2.998  0.3651  0.0331 -0.0241
19150TIP3    H178941   0.428   3.552   3.082  1.1595 -0.0989  0.0596
19150TIP3    H278942   0.425   3.412   3.023  3.3235 -0.1697  0.0140
19151TIP3   OH278943   4.033   4.348  15.952 -0.0937  0.4169  0.1199
19151TIP3    H178944   4.114   4.394  15.976 -1.4116  2.6536  0.5545
19151TIP3    H278945   3.967   4.384  16.010 -1.7895 -0.0308 -1.4374
19152TIP3   OH278946   6.564   3.772  11.228 -0.0392  0.8512  0.0487
19152TIP3    H178947   6.656   3.787  11.249 -0.6547  1.8158  2.4624
19152TIP3    H278948   6.522   3.762  11.314 -2.3690  1.7019 -0.9173
19153TIP3   OH278949   5.790   4.550   3.059  1.1250 -0.1717 -0.3002
19153TIP3    H178950   5.755   4.633   3.026  4.6912  0.5415 -2.8936
19153TIP3    H278951   5.853   4.576   3.127  0.2513 -1.0409  0.8802
19154TIP3   OH278952   6.699   1.014   5.970  0.4516 -0.0193  0.0239
19154TIP3    H178953   6.651   1.057   5.900 -1.1155  0.4386  1.3236
19154TIP3    H278954   6.726   1.085   6.028  0.1653 -0.5335  0.8092
19155TIP3   OH278955   0.984   2.068   5.200  0.1385  0.2439 -0.4801
19155TIP3    H178956   0.982   2.094   5.108  0.4359 -0.2933 -0.6486
19155TIP3    H278957   0.989   2.150   5.249 -1.9137  0.6286 -0.8517
19156TIP3   OH278958   4.121   2.729   3.562  0.8979  0.2131 -0.2581
19156TIP3    H178959   4.101   2.811   3.516  0.3588 -0.7308 -1.7992
19156TIP3    H278960   4.044   2.713   3.616  1.1357  0.8679  0.2885
19157TIP3   OH278961   2.808   0.710  10.952 -0.0762 -0.1946  0.0004
19157TIP3    H178962   2.843   0.758  11.028 -0.9252  0.6065 -0.0940
19157TIP3    H278963   2.714   0.726  10.956 -0.3294 -1.5714 -0.2632
19158TIP3   OH278964   5.304   1.955   5.689  0.3232 -0.0987 -0.3753
19158TIP3    H178965   5.273   2.011   5.761 -2.2037 -1.0056 -0.6705
19158TIP3    H278966   5.337   2.017   5.623  0.1579  0.8714  0.4257
19159TIP3   OH278967   0.888   5.906  17.520 -0.3396  0.6138  0.2331
19159TIP3    H178968   0.819   5.842  17.503  0.0459  0.2156  0.1574
19159TIP3    H278969   0.885   5.965  17.444  0.1332 -0.0543 -0.3122
19160TIP3   OH278970   5.559   1.406   6.362 -0.1363  0.0269  0.0375
19160TIP3    H178971   5.517   1.380   6.280 -0.4485 -0.6296  0.3936
19160TIP3    H278972   5.647   1.432   6.337  0.3610 -1.8216 -0.3199
19161TIP3   OH278973   0.067   1.644   0.775  0.2074  0.0399 -0.1034
19161TIP3    H178974   0.033   1.608   0.857 -0.2213 -1.3240 -0.8435
19161TIP3    H278975   0.061   1.739   0.787 -3.4401 -0.0435  0.0683
19162TIP3   OH278976   2.432   4.869  15.822  0.0634 -0.2407  0.4811
19162TIP3    H178977   2.507   4.810  15.806  0.5549  0.6969 -0.8165
19162TIP3    H278978   2.423   4.919  15.741 -0.4024  1.4219  1.5170
19163TIP3   OH278979   2.888   5.163   0.656 -0.4017  0.1629 -0.3881
19163TIP3    H178980   2.893   5.108   0.578 -2.9501  1.7821 -1.8573
19163TIP3    H278981   2.811   5.130   0.704 -0.1866  0.5932  0.2731
19164TIP3   OH278982   5.122   6.534  12.622 -0.2164 -0.2198  0.5363
19164TIP3    H178983   5.099   6.445  12.651 -0.2023 -0.3790  0.0726
19164TIP3    H278984   5.210   6.524  12.586  0.3556  0.2625  1.7393
19165TIP3   OH278985   2.533   2.408  11.419 -0.1847  0.3932  0.7449
19165TIP3    H178986   2.565   2.343  11.357 -0.5922 -0.9546  1.9030
19165TIP3    H278987   2.440   2.389  11.429 -0.3458  1.2557  1.0026
19166TIP3   OH278988   5.722   4.736   1.061 -0.4104 -0.1062 -0.5257
19166TIP3    H178989   5.731   4.757   0.968  0.0076  1.3773 -0.1773
19166TIP3    H278990   5.805   4.762   1.099 -0.9957  0.4102  0.4393
19167TIP3   OH278991   2.833   0.844   5.283  0.2200  0.1164  0.0717
19167TIP3    H178992   2.844   0.938   5.267 -0.0183  0.0055 -0.8463
19167TIP3    H278993   2.921   0.808   5.276  0.3467  0.3025  0.6773
19168TIP3   OH278994   3.771   0.309  14.513  0.0814 -0.1673  0.2280
19168TIP3    H178995   3.686   0.312  14.468  0.4190  0.2632 -0.3907
19168TIP3    H278996   3.824   0.251  14.459  0.5257  0.4435 -0.0010
19169TIP3   OH278997   2.394   3.500   3.703 -0.1468 -0.1790 -0.2952
19169TIP3    H178998   2.404   3.502   3.799 -1.9810 -3.0586  0.0868
19169TIP3    H278999   2.299   3.502   3.690 -0.0368 -2.4199 -1.8621
19170TIP3   OH279000   0.903   0.097  17.144  0.3531  0.3577 -0.4017
19170TIP3    H179001   0.949   0.136  17.219 -1.2960  1.6140  0.0052
19170TIP3    H279002   0.944   0.137  17.067 -0.0123  1.4268 -0.0532
19171TIP3   OH279003   0.553   2.602  17.047 -0.2746 -0.6926  0.2831
19171TIP3    H179004   0.587   2.513  17.038  0.3538 -0.3480 -0.8902
19171TIP3    H279005   0.605   2.641  17.117  0.7431 -0.6631 -0.4682
19172TIP3   OH279006   0.789   1.378  11.419  0.5660 -0.3178  0.0680
19172TIP3    H179007   0.809   1.458  11.371 -3.0269  0.8741  0.2963
19172TIP3    H279008   0.806   1.400  11.511 -2.9937  1.3276  0.4883
19173TIP3   OH279009   6.028   4.883  12.973  0.0747 -0.2890 -0.2907
19173TIP3    H179010   6.061   4.794  12.987  1.9209  0.2324 -1.0288
19173TIP3    H279011   6.068   4.935  13.043  1.6304  0.5071 -1.6769
19174TIP3   OH279012   2.411   2.708  12.533  0.0039 -0.3633 -0.3433
19174TIP3    H179013   2.414   2.662  12.616 -1.6763 -2.2798 -1.2712
19174TIP3    H279014   2.477   2.664  12.479  1.8485  1.5553  0.2180
19175TIP3   OH279015   5.849   3.574  15.590  0.0094  0.2818 -0.2573
19175TIP3    H179016   5.875   3.661  15.618  0.3394  0.0241  0.2535
19175TIP3    H279017   5.790   3.543  15.659  0.1592 -0.0299 -0.2669
19176TIP3   OH279018   0.254   5.968  17.457 -0.2497  0.1016 -0.0587
19176TIP3    H179019   0.328   5.910  17.473 -0.7706 -1.3278 -2.3018
19176TIP3    H279020   0.293   6.051  17.431  0.5167  0.2764  1.5689
19177TIP3   OH279021   3.636   1.515   4.017  0.2167  0.0086 -0.4441
19177TIP3    H179022   3.618   1.555   3.932  1.5658  1.0576 -0.2827
19177TIP3    H279023   3.587   1.570   4.079 -0.0370 -0.2010 -0.4576
19178TIP3   OH279024   2.819   5.322   4.834  0.1495  0.0450  0.0308
19178TIP3    H179025   2.822   5.240   4.786 -1.8814 -0.2714  0.3565
19178TIP3    H279026   2.725   5.343   4.840  0.4604  1.1056  2.0769
19179TIP3   OH279027   3.342   1.151   4.672 -0.0104 -0.0572 -0.4291
19179TIP3    H179028   3.365   1.200   4.593 -0.0395 -0.9550 -1.0225
19179TIP3    H279029   3.267   1.096   4.645  0.7993 -1.3360 -0.1804
19180TIP3   OH279030   1.189   3.964   5.033 -0.4383  0.0910  0.8257
19180TIP3    H179031   1.212   4.048   4.994  0.2938 -0.8825 -0.9752
19180TIP3    H279032   1.268   3.936   5.079  0.6555 -1.1863 -1.6048
19181TIP3   OH279033   6.682   1.855   0.937 -0.2650  0.4210 -0.0481
19181TIP3    H179034   6.702   1.945   0.964  0.7425  0.8096 -1.9270
19181TIP3    H279035   6.714   1.801   1.010  0.0179  1.5174  0.6761
19182TIP3   OH279036   2.503   3.115   1.428 -0.2350  0.2717 -0.2397
19182TIP3    H179037   2.483   3.208   1.414 -1.4782  0.2807  1.3107
19182TIP3    H279038   2.587   3.116   1.474 -1.2774  0.8018  1.7625
19183TIP3   OH279039   6.132   2.088  14.341 -0.5853 -0.1513 -0.2071
19183TIP3    H179040   6.175   2.002  14.344  0.7239  0.3347 -2.6586
19183TIP3    H279041   6.039   2.069  14.352 -0.1720 -1.6820  0.9609
19184TIP3   OH279042   4.524   4.222   1.924 -0.6238 -0.0183 -0.0369
19184TIP3    H179043   4.522   4.289   1.856  1.0573 -0.1793 -0.2886
19184TIP3    H279044   4.565   4.147   1.882  1.2877  0.1660  1.3680
19185TIP3   OH279045   2.922   6.362   4.293  0.1717 -0.0717  0.3963
19185TIP3    H179046   3.001   6.341   4.343  0.4219  3.1841  1.6216
19185TIP3    H279047   2.955   6.392   4.208  0.1304 -0.1708  0.3448
19186TIP3   OH279048   0.568   3.110  12.858 -0.4783  0.1846 -0.2328
19186TIP3    H179049   0.624   3.163  12.915 -0.4185  0.3555 -0.4503
19186TIP3    H279050   0.588   3.020  12.883  1.3349  0.1472 -1.6155
19187TIP3   OH279051   3.903   2.254   0.498  0.7656 -0.4141 -0.0114
19187TIP3    H179052   3.905   2.222   0.589  0.7112 -1.4263 -0.3588
19187TIP3    H279053   3.825   2.214   0.460  1.3051 -0.7544 -0.7749
19188TIP3   OH279054   0.896   2.341   0.287 -0.4546 -0.0102 -0.2759
19188TIP3    H179055   0.855   2.256   0.272 -1.6875  0.6730 -0.8762
19188TIP3    H279056   0.905   2.346   0.383 -4.1087  0.8165  0.1631
19189TIP3   OH279057   1.118   1.775  15.891  0.0073 -0.2086  0.0630
19189TIP3    H179058   1.129   1.708  15.959 -0.8646  0.4238  0.8609
19189TIP3    H279059   1.201   1.775  15.844 -0.7199 -3.4816 -1.5007
19190TIP3   OH279060   2.739   6.245   1.714  0.5797  0.2028  0.0045
19190TIP3    H179061   2.744   6.176   1.779  1.3573  0.5819  0.3647
19190TIP3    H279062   2.820   6.235   1.662  1.2223  1.4500  0.7133
19191TIP3   OH279063   4.555   4.606  15.653  0.1245 -0.3540  0.2474
19191TIP3    H179064   4.498   4.622  15.578 -0.0637 -1.1375  0.2093
19191TIP3    H279065   4.597   4.522  15.634 -0.9687 -1.2596  1.6239
19192TIP3   OH279066   0.160   0.045   6.277 -0.0241  0.4916 -0.3220
19192TIP3    H179067   0.176   0.138   6.264  0.6187  0.2767 -1.1274
19192TIP3    H279068   0.217   0.021   6.351  0.5344  0.5408 -0.7310
19193TIP3   OH279069   6.467   0.776  14.900  0.4259 -0.2091  0.1353
19193TIP3    H179070   6.561   0.777  14.914  0.3764 -0.9303  0.5174
19193TIP3    H279071   6.430   0.739  14.980 -0.2046  0.2784  0.0853
19194TIP3   OH279072   1.303   2.116  11.153  0.1084 -0.0111  0.1240
19194TIP3    H179073   1.334   2.103  11.064  1.4937 -0.8215  0.6989
19194TIP3    H279074   1.364   2.179  11.191  0.9940 -1.4612  1.2047
19195TIP3   OH279075   4.259   6.768   0.212 -0.2280 -0.5657 -0.2632
19195TIP3    H179076   4.267   6.844   0.155  0.8727 -0.9038 -0.5821
19195TIP3    H279077   4.253   6.805   0.300  1.8167 -0.1002 -0.2539
19196TIP3   OH279078   2.158   3.177  13.971  1.1829 -0.3888 -0.2007
19196TIP3    H179079   2.246   3.211  13.956  1.8772 -1.9088  0.2492
19196TIP3    H279080   2.161   3.087  13.937  0.3267 -1.0400  1.3516
19197TIP3   OH279081   0.643   2.770  14.848 -0.0654  0.3583  0.3385
19197TIP3    H179082   0.557   2.799  14.876 -0.3168  1.4541 -1.4295
19197TIP3    H279083   0.638   2.674  14.852 -1.1840  0.4170  0.7210
19198TIP3   OH279084   3.656   3.953  12.252 -0.1882 -0.2180  0.4068
19198TIP3    H179085   3.638   3.860  12.243  1.1794 -0.3296 -2.0272
19198TIP3    H279086   3.600   3.995  12.187  2.2341  0.1647 -1.5802
19199TIP3   OH279087   5.911   2.786   1.338  0.3722  0.0723 -1.1850
19199TIP3    H179088   5.941   2.833   1.416 -0.0600  1.4075 -1.7910
19199TIP3    H279089   5.872   2.706   1.372 -0.0068  0.7363  0.0067
19200TIP3   OH279090   1.424   3.835   4.761  0.3543 -0.0548 -0.3942
19200TIP3    H179091   1.335   3.858   4.737 -0.0127  0.9390  1.6898
19200TIP3    H279092   1.419   3.744   4.788 -0.0472  0.0237 -0.2024
19201TIP3   OH279093   2.680   2.694   1.150 -0.2331 -0.1398  0.2237
19201TIP3    H179094   2.668   2.610   1.107 -1.1163 -0.0718  0.3054
19201TIP3    H279095   2.691   2.673   1.243 -3.3518 -0.0821  0.7215
19202TIP3   OH279096   3.574   2.641  16.530  0.4143  0.2670  0.3142
19202TIP3    H179097   3.560   2.623  16.437  3.7134 -0.7419 -0.1179
19202TIP3    H279098   3.567   2.556  16.573 -0.0121  0.5655  0.8599
19203TIP3   OH279099   6.649   1.854   3.441  0.0190  0.0978 -0.0096
19203TIP3    H179100   6.728   1.809   3.470  0.9698  2.1931  0.8381
19203TIP3    H279101   6.677   1.943   3.423 -2.1543  0.9287  0.3832
19204TIP3   OH279102   5.654   3.833   0.617  0.0338  0.6674 -0.2663
19204TIP3    H179103   5.559   3.826   0.605 -0.1865 -0.4318  1.6496
19204TIP3    H279104   5.670   3.795   0.703  2.1671  1.3582 -0.2941
19205TIP3   OH279105   3.656   5.507   4.701  0.1862 -0.2584  0.3507
19205TIP3    H179106   3.612   5.528   4.618  0.3319  0.9265  0.5488
19205TIP3    H279107   3.750   5.511   4.680  0.2220 -1.3166  0.2681
19206TIP3   OH279108   6.699   0.919  16.184 -0.0527  0.3940  0.3174
19206TIP3    H179109   6.614   0.951  16.152 -0.1404 -1.6954 -1.8708
19206TIP3    H279110   6.733   0.867  16.111  2.5237  0.0954  1.6480
19207TIP3   OH279111   4.158   5.940  15.196 -0.2269 -0.0835 -0.8564
19207TIP3    H179112   4.112   5.980  15.270 -0.0150 -0.8103 -0.3105
19207TIP3    H279113   4.116   5.854  15.185  0.2628 -0.3015 -1.0598
19208TIP3   OH279114   6.297   2.837  16.251 -0.0881  0.3322  0.2255
19208TIP3    H179115   6.268   2.864  16.163 -0.5074 -1.5864 -0.2616
19208TIP3    H279116   6.332   2.749  16.239  1.3329  0.6522  1.7311
19209TIP3   OH279117   4.162   1.523  10.891  0.1950  0.3470 -0.3684
19209TIP3    H179118   4.083   1.549  10.843 -0.7910 -0.6976  0.6002
19209TIP3    H279119   4.230   1.581  10.859 -1.2133  2.0415 -0.4588
19210TIP3   OH279120   4.071   0.269   0.936  0.5205  0.1676  0.1419
19210TIP3    H179121   4.030   0.332   0.995 -0.0151 -1.5766  1.7229
19210TIP3    H279122   3.998   0.217   0.903  1.1452 -0.9898  0.5610
19211TIP3   OH279123   0.242   4.724  16.484 -0.0012  0.1695 -0.7827
19211TIP3    H179124   0.159   4.746  16.442 -0.6362 -0.0002  0.3461
19211TIP3    H279125   0.224   4.732  16.578  1.9246  2.6545 -0.5053
19212TIP3   OH279126   5.855   4.562   2.672  0.0910 -0.3043 -0.5224
19212TIP3    H179127   5.844   4.605   2.586  0.9012 -0.1519 -0.5628
19212TIP3    H279128   5.917   4.619   2.718  0.1444 -0.7288 -0.0725
19213TIP3   OH279129   5.470   2.704   1.391  0.2158 -0.0952 -0.8091
19213TIP3    H179130   5.470   2.608   1.386  2.0056 -0.1369 -0.5529
19213TIP3    H279131   5.417   2.732   1.317  1.4746 -1.2612 -2.2219
19214TIP3   OH279132   4.849   1.928   5.019  0.3604  0.4380 -0.2026
19214TIP3    H179133   4.772   1.965   4.976  0.4156  0.1610 -0.5494
19214TIP3    H279134   4.900   1.889   4.947  0.1251 -0.6342  0.1863
19215TIP3   OH279135   5.873   5.886  11.290  0.3761 -0.0485 -0.3097
19215TIP3    H179136   5.926   5.843  11.222  2.7349  1.8582  0.1923
19215TIP3    H279137   5.937   5.924  11.350 -1.6336  0.0451  1.9278
19216TIP3   OH279138   0.150   2.528  13.412 -0.1450  0.2346  0.2224
19216TIP3    H179139   0.160   2.433  13.411 -0.2251  0.2261  0.2259
19216TIP3    H279140   0.072   2.543  13.466 -0.4521  0.2715 -0.2290
19217TIP3   OH279141   2.163   5.592   4.058 -0.0352  0.2200 -0.2666
19217TIP3    H179142   2.156   5.667   4.117  0.3774  0.6494 -0.7569
19217TIP3    H279143   2.072   5.562   4.048 -0.3061  1.1311 -0.6696
19218TIP3   OH279144   2.976   2.240  14.413  0.7645 -0.0728 -0.0464
19218TIP3    H179145   2.978   2.250  14.508  1.5037  2.3882 -0.2441
19218TIP3    H279146   2.944   2.325  14.381  0.4710 -0.8688 -2.0004
19219TIP3   OH279147   5.953   0.135  13.862  0.1045  0.0658  0.0333
19219TIP3    H179148   5.995   0.150  13.777 -0.2910  1.7509  0.1013
19219TIP3    H279149   5.863   0.112  13.840  0.1365 -0.0105 -0.0178
19220TIP3   OH279150   5.126   6.040   2.908  0.3187 -0.2335 -0.3884
19220TIP3    H179151   5.138   6.044   2.813  2.9723 -1.8695 -0.2435
19220TIP3    H279152   5.119   6.131   2.936 -0.6495  0.2626 -2.1573
19221TIP3   OH279153   2.811   6.502   0.380  0.1493 -0.6827 -0.3166
19221TIP3    H179154   2.868   6.426   0.366 -0.0528 -0.5972 -1.6843
19221TIP3    H279155   2.813   6.549   0.297 -0.3119  0.4231  0.2890
19222TIP3   OH279156   3.823   0.211   5.190 -0.7477 -0.0074 -0.4452
19222TIP3    H179157   3.916   0.190   5.184 -1.1838 -1.7301 -2.4762
19222TIP3    H279158   3.820   0.307   5.180  0.7240 -0.0824 -2.2386
19223TIP3   OH279159   5.334   3.447   0.554  0.1481  0.2327 -0.6154
19223TIP3    H179160   5.420   3.439   0.512 -0.3687  0.2914 -1.7213
19223TIP3    H279161   5.353   3.441   0.648  1.2259 -0.9778 -0.8774
19224TIP3   OH279162   0.608   1.073   2.196 -0.5565 -1.0825 -0.1890
19224TIP3    H179163   0.587   0.988   2.234 -1.1440 -1.7494 -1.9609
19224TIP3    H279164   0.559   1.077   2.114  1.7269 -0.2798 -1.6146
19225TIP3   OH279165   2.661   5.329   2.059  0.6842 -0.0470  0.4750
19225TIP3    H179166   2.668   5.340   2.154 -1.7267 -1.9025  0.9907
19225TIP3    H279167   2.740   5.282   2.034  0.6825 -0.8203  1.8423
19226TIP3   OH279168   6.752   2.812   5.739 -0.3630  0.0105 -0.4447
19226TIP3    H179169   6.760   2.896   5.784 -0.0961 -0.1927 -0.1014
19226TIP3    H279170   6.841   2.791   5.711 -0.5588  0.2356 -1.2626
19227TIP3   OH279171   6.521   0.682  14.346 -0.1255 -0.1721  0.2023
19227TIP3    H179172   6.611   0.701  14.321 -0.5514  0.4122 -0.9517
19227TIP3    H279173   6.516   0.707  14.438  0.9352 -0.3837  0.3274
19228TIP3   OH279174   2.488   5.299  11.845 -0.4460 -0.0497  0.5076
19228TIP3    H179175   2.519   5.367  11.906  1.1057 -0.3389  0.0908
19228TIP3    H279176   2.395   5.289  11.865 -0.2298  0.7019  2.0156
19229TIP3   OH279177   2.290   1.727   5.384  0.7606  0.2421  0.7169
19229TIP3    H179178   2.335   1.646   5.406 -1.0014 -1.0044 -0.0973
19229TIP3    H279179   2.299   1.735   5.289 -0.0118  0.4099  0.6548
19230TIP3   OH279180   5.103   0.195   5.166  0.1413 -0.5079  0.2095
19230TIP3    H179181   5.078   0.222   5.254 -0.1975 -0.8487  0.2236
19230TIP3    H279182   5.025   0.209   5.113  0.1637 -0.8364  0.0837
19231TIP3   OH279183   2.991   1.484   2.254 -0.1945 -0.2588  0.6189
19231TIP3    H179184   2.978   1.431   2.175  0.9242 -0.7776  0.7673
19231TIP3    H279185   3.074   1.455   2.289 -0.1591  0.7317  1.4065
19232TIP3   OH279186   0.493   0.030   3.741 -0.0694  0.9973  0.1507
19232TIP3    H179187   0.513  -0.063   3.752  0.3054  0.9390 -0.9144
19232TIP3    H279188   0.398   0.036   3.753 -0.0084  0.6055  0.9469
19233TIP3   OH279189   4.638   5.856   1.778  0.2039  0.8260  0.1641
19233TIP3    H179190   4.666   5.765   1.771 -0.6778  0.6216 -1.1663
19233TIP3    H279191   4.652   5.892   1.690 -0.6236  1.6276  0.3438
19234TIP3   OH279192   4.042   3.606   2.191  0.0968  0.1363  0.0324
19234TIP3    H179193   4.117   3.661   2.216  0.9115 -1.2211  0.7283
19234TIP3    H279194   4.018   3.561   2.272 -0.0415 -1.0894 -0.6670
19235TIP3   OH279195   1.153   2.669  16.934 -0.3358  0.5388 -0.5894
19235TIP3    H179196   1.062   2.676  16.906 -0.1152  1.4813 -1.1295
19235TIP3    H279197   1.203   2.713  16.865  0.3639  1.6050  0.5436
19236TIP3   OH279198   6.741   0.888  15.360 -0.1177 -0.0254 -0.4659
19236TIP3    H179199   6.735   0.792  15.362 -0.6234 -0.0541 -1.9286
19236TIP3    H279200   6.834   0.907  15.370 -0.1728 -0.5751  1.5001
19237TIP3   OH279201   0.580   6.429  12.089 -0.1472 -0.3936 -0.0909
19237TIP3    H179202   0.542   6.493  12.028  0.6314  0.4579  0.2893
19237TIP3    H279203   0.602   6.353  12.035 -0.2944 -0.0002 -0.7093
19238TIP3   OH279204   4.003   0.232   3.822 -0.2510  0.0161  0.6755
19238TIP3    H179205   4.012   0.316   3.778 -2.1554 -0.4469 -0.7074
19238TIP3    H279206   3.946   0.250   3.898  0.4714  0.2133  1.1814
19239TIP3   OH279207   4.948   1.395  16.726 -0.2009  0.5234  0.2431
19239TIP3    H179208   5.023   1.337  16.722 -0.0360  0.7314  0.2680
19239TIP3    H279209   4.926   1.412  16.634 -0.9020 -0.4026  0.2235
19240TIP3   OH279210   0.617   3.086   3.506  0.3296  0.0547 -0.2633
19240TIP3    H179211   0.525   3.112   3.506  0.2852  0.0662 -2.1265
19240TIP3    H279212   0.664   3.168   3.489  0.6979  0.0547  0.7297
19241TIP3   OH279213   6.214   1.211  11.405 -0.0703 -0.3775  0.3463
19241TIP3    H179214   6.172   1.129  11.380 -2.9216  0.3599  2.2971
19241TIP3    H279215   6.153   1.279  11.377  1.3420  0.9986  0.4635
19242TIP3   OH279216   5.398   4.303  16.613  0.6485  0.5180 -0.0578
19242TIP3    H179217   5.362   4.246  16.681 -0.2910  0.6757 -0.4180
19242TIP3    H279218   5.330   4.306  16.546  0.9558  1.5615 -0.3299
19243TIP3   OH279219   0.923   5.933   2.970  0.3602  0.3205 -0.4590
19243TIP3    H179220   0.918   6.027   2.981  1.1116  0.5372 -1.7895
19243TIP3    H279221   0.962   5.920   2.883 -0.0156 -1.2056 -0.4428
19244TIP3   OH279222   3.242   4.584   4.091 -0.0727  0.5153  0.1842
19244TIP3    H179223   3.337   4.579   4.092 -0.1128 -1.7730 -0.6765
19244TIP3    H279224   3.219   4.594   3.999 -0.6819  2.0415  0.4733
19245TIP3   OH279225   3.558   5.397   3.419 -0.6758  0.4432  0.0372
19245TIP3    H179226   3.534   5.331   3.354 -0.3253  0.7266 -0.3804
19245TIP3    H279227   3.502   5.377   3.495 -1.9915  0.8706 -0.7758
19246TIP3   OH279228   5.152   3.630  15.630 -0.4702  0.1436 -0.5196
19246TIP3    H179229   5.217   3.604  15.565 -0.2982 -3.2993  0.7954
19246TIP3    H279230   5.074   3.579  15.609 -0.8687  0.0038  1.1011
19247TIP3   OH279231   2.286   3.878  13.243 -0.0038  0.0920 -0.1465
19247TIP3    H179232   2.360   3.936  13.221 -0.4765  0.8700  0.2644
19247TIP3    H279233   2.209   3.926  13.213 -0.4057 -0.3379  0.1988
19248TIP3   OH279234   6.485   4.531   6.634  0.1659  0.0014  0.3152
19248TIP3    H179235   6.505   4.601   6.573  0.2399 -0.1812  0.1282
19248TIP3    H279236   6.555   4.535   6.700 -0.6202  1.0282  1.1217
19249TIP3   OH279237   1.371   4.377   4.319  0.0410 -0.1188 -0.2878
19249TIP3    H179238   1.327   4.450   4.276  0.4935  1.7785  2.2061
19249TIP3    H279239   1.444   4.355   4.261 -0.5362  0.9251 -1.4478
19250TIP3   OH279240   3.771   0.782   0.501  0.4617 -0.1376  0.0988
19250TIP3    H179241   3.835   0.712   0.503  0.1694 -0.4520  2.7878
19250TIP3    H279242   3.713   0.761   0.428 -0.3280 -3.4258  1.5021
19251TIP3   OH279243   1.198   2.305  13.924 -0.0149  1.2687 -0.0656
19251TIP3    H179244   1.227   2.214  13.920 -0.0072  1.2989 -1.2383
19251TIP3    H279245   1.217   2.339  13.836 -0.5256  2.2363  0.1922
19252TIP3   OH279246   4.483   1.674  15.352 -0.2986  0.2699  0.1682
19252TIP3    H179247   4.392   1.644  15.353 -0.2308  0.0332 -0.1804
19252TIP3    H279248   4.479   1.767  15.373 -0.5508  0.0969  0.8931
19253TIP3   OH279249   1.395   2.950  17.015  0.2570  0.1618 -0.2051
19253TIP3    H179250   1.424   2.866  16.980  0.6126 -0.7524  2.1014
19253TIP3    H279251   1.300   2.943  17.019  0.3556 -0.7190  1.2397
19254TIP3   OH279252   4.589   0.833   6.442  0.0695  0.3501 -0.1823
19254TIP3    H179253   4.605   0.874   6.356 -0.0057 -1.9123 -1.3567
19254TIP3    H279254   4.507   0.871   6.472  0.5331  1.8258 -0.6821
19255TIP3   OH279255   2.827   6.166  14.639 -0.4557 -0.0242  0.2071
19255TIP3    H179256   2.840   6.083  14.684  0.7712  0.9301  1.7319
19255TIP3    H279257   2.761   6.212  14.691  1.2446  1.2433  1.3592
19256TIP3   OH279258   1.505   2.537  14.594  0.2253  0.4070 -0.0194
19256TIP3    H179259   1.561   2.468  14.558  0.6834  0.4011  0.6844
19256TIP3    H279260   1.501   2.603  14.526  1.9432  0.8850  0.2806
19257TIP3   OH279261   6.351   3.929  16.988  0.1582 -0.5847  0.4249
19257TIP3    H179262   6.306   4.011  16.968  0.0616 -1.0704 -1.5892
19257TIP3    H279263   6.322   3.906  17.076 -1.4663  0.4825  0.2122
19258TIP3   OH279264   3.049   3.507   5.793 -0.6276 -0.1980  0.3605
19258TIP3    H179265   3.013   3.423   5.763 -0.6819 -0.2675  0.6242
19258TIP3    H279266   2.977   3.549   5.839 -0.8854  0.3953 -0.5528
19259TIP3   OH279267   2.118   2.725  16.620  0.1341 -0.3224 -0.1997
19259TIP3    H179268   2.178   2.732  16.694  1.2135 -0.0401 -1.0675
19259TIP3    H279269   2.032   2.745  16.657  0.6010 -0.4532  1.0232
19260TIP3   OH279270   4.928   3.300   3.650  0.7834 -0.4605  0.0669
19260TIP3    H179271   4.911   3.369   3.586  1.5859 -1.1065 -0.8793
19260TIP3    H279272   4.904   3.339   3.734 -3.6197 -0.6862 -0.8623
19261TIP3   OH279273   2.406   5.386  13.532 -0.1741  0.1912  0.3299
19261TIP3    H179274   2.485   5.378  13.586 -0.6495 -1.4546  0.8509
19261TIP3    H279275   2.336   5.403  13.595 -0.1809  2.3731 -0.1953
19262TIP3   OH279276   3.751   1.357  16.607  0.2348  0.3492 -0.9256
19262TIP3    H179277   3.711   1.329  16.524 -0.4479 -0.3820 -0.3642
19262TIP3    H279278   3.845   1.346  16.592  0.1330  0.4090 -1.6692
19263TIP3   OH279279   3.840   5.358  15.086 -0.2302 -0.2524 -0.3227
19263TIP3    H179280   3.905   5.422  15.059 -1.1760  0.3139 -1.3612
19263TIP3    H279281   3.862   5.278  15.038 -1.0987  0.3539 -1.8075
19264TIP3   OH279282   6.392   3.107   1.536 -0.3701  0.2430  0.2986
19264TIP3    H179283   6.475   3.064   1.557 -0.2489  1.1642  1.7812
19264TIP3    H279284   6.328   3.035   1.531  0.3393 -0.3761 -0.0180
19265TIP3   OH279285   3.639   6.064  12.301  0.5837  0.4545  0.0351
19265TIP3    H179286   3.564   6.123  12.295 -0.1572 -0.4667 -0.0065
19265TIP3    H279287   3.676   6.063  12.213  1.7507  2.2767  0.4454
19266TIP3   OH279288   6.582   0.930   4.822  0.2749  0.5397  0.1864
19266TIP3    H179289   6.600   0.864   4.889 -0.3269  0.2423  0.0672
19266TIP3    H279290   6.568   1.011   4.872 -1.3695  0.0798  0.5442
19267TIP3   OH279291   6.231   2.455   1.944  0.0395  0.2286  0.1716
19267TIP3    H179292   6.251   2.379   1.999 -0.5647 -1.7996 -2.2161
19267TIP3    H279293   6.148   2.488   1.977 -1.0383 -1.8232 -0.3327
19268TIP3   OH279294   2.697   6.510  15.080  0.5486 -0.5228 -0.1148
19268TIP3    H179295   2.616   6.523  15.031  0.0870  1.1407  1.0359
19268TIP3    H279296   2.745   6.445  15.028 -0.4707  0.1987 -2.0716
19269TIP3   OH279297   4.624   0.397   6.368  0.0564 -0.7669 -0.1672
19269TIP3    H179298   4.715   0.419   6.389  0.5259 -2.0720 -0.7572
19269TIP3    H279299   4.578   0.481   6.370  1.1121 -0.1873  0.8980
19270TIP3   OH279300   4.683   2.198  13.741  0.1139 -0.7363  0.4668
19270TIP3    H179301   4.664   2.283  13.780 -0.5115 -0.7337  0.1759
19270TIP3    H279302   4.649   2.134  13.804  1.1241 -0.7922  0.9659
19271TIP3   OH279303   4.236   0.948  14.350  0.3081 -0.5047 -0.2024
19271TIP3    H179304   4.193   1.023  14.392  1.6054 -0.7664  1.7243
19271TIP3    H279305   4.178   0.874  14.368  0.5241 -0.4913  0.5843
19272TIP3   OH279306   6.489   1.056  14.840  0.2862 -0.2029 -0.0498
19272TIP3    H179307   6.503   1.059  14.934  0.9591  2.7852 -0.1627
19272TIP3    H279308   6.494   0.963  14.818  2.1078 -0.8217  2.5519
19273TIP3   OH279309   4.316   3.046   6.115  0.3066  0.1695  0.0314
19273TIP3    H179310   4.368   3.119   6.148 -0.3601  0.0562  1.4004
19273TIP3    H279311   4.226   3.066   6.143  0.0779 -1.0480  0.2374
19274TIP3   OH279312   0.483   5.715  13.243  0.0858  0.2325 -0.3408
19274TIP3    H179313   0.446   5.669  13.167  1.6005  0.8710 -1.5093
19274TIP3    H279314   0.458   5.661  13.318 -1.0176 -0.6903 -1.3398
19275TIP3   OH279315   0.356   5.192  13.192 -0.4251  0.0012 -0.5071
19275TIP3    H179316   0.340   5.286  13.188  0.9945  0.2427 -1.4120
19275TIP3    H279317   0.443   5.181  13.153 -0.4973 -1.6711 -0.2793
19276TIP3   OH279318   5.282   0.382  11.101  0.5539 -0.2529  0.1169
19276TIP3    H179319   5.316   0.329  11.028  0.8570  0.4329 -0.2542
19276TIP3    H279320   5.231   0.451  11.058  1.1201  0.4272  0.5255
19277TIP3   OH279321   4.258   4.135  14.104 -0.4833  0.1337  0.0514
19277TIP3    H179322   4.220   4.222  14.118 -0.3675  0.0552  0.8849
19277TIP3    H279323   4.182   4.079  14.083 -0.5932  0.3673 -0.1822
19278TIP3   OH279324   0.148   2.275  13.967 -0.3244 -0.0630 -0.3705
19278TIP3    H179325   0.126   2.367  13.952 -0.1847  0.0262 -0.0381
19278TIP3    H279326   0.065   2.234  13.991 -0.1740  0.2456  0.7511
19279TIP3   OH279327   6.733   4.367  16.959  0.0635  0.1270 -0.6410
19279TIP3    H179328   6.705   4.438  17.017 -0.5024  0.0675 -0.8309
19279TIP3    H279329   6.719   4.287  17.010  0.4615  0.1327 -0.5200
19280TIP3   OH279330   0.261   5.825  14.514 -0.0603 -0.7091 -0.0348
19280TIP3    H179331   0.331   5.810  14.577  0.8134  0.2197 -0.7551
19280TIP3    H279332   0.211   5.743  14.514  1.3630 -1.6222  0.0583
19281TIP3   OH279333   1.996   6.636   2.158 -0.3139 -0.3347  0.3163
19281TIP3    H179334   1.923   6.641   2.097  0.7964 -0.0389 -1.0528
19281TIP3    H279335   1.995   6.720   2.204 -1.0390 -0.4770  0.5730
19282TIP3   OH279336   5.272   1.295   1.259  0.1055  0.0447 -0.3465
19282TIP3    H179337   5.284   1.339   1.343 -1.1819  1.9829 -1.1156
19282TIP3    H279338   5.312   1.209   1.272 -0.2953  0.1670  2.3124
19283TIP3   OH279339   1.251   1.462  17.470 -0.2763 -0.3418 -0.1872
19283TIP3    H179340   1.198   1.526  17.518 -0.4563 -2.3060  2.4096
19283TIP3    H279341   1.341   1.481  17.495 -0.1750 -0.1791 -0.6476
19284TIP3   OH279342   2.257   3.107  15.407  0.2280  0.1513 -0.6305
19284TIP3    H179343   2.298   3.103  15.321  0.7711  0.2616 -0.3852
19284TIP3    H279344   2.313   3.166  15.457 -0.1682  0.2066 -0.2478
19285TIP3   OH279345   1.258   0.389   0.050  0.0422  0.2391 -0.4739
19285TIP3    H179346   1.278   0.323   0.116 -0.2743  0.3579 -0.2544
19285TIP3    H279347   1.342   0.430   0.029 -0.0344  1.1204  0.8432
19286TIP3   OH279348   1.712   5.259   2.500  0.1728 -0.4700  0.4002
19286TIP3    H179349   1.707   5.163   2.497  0.7364 -0.4881 -0.1607
19286TIP3    H279350   1.627   5.288   2.466  0.8415 -0.7762 -1.6656
19287TIP3   OH279351   1.415   6.731   5.039  0.1292  0.6666  0.5868
19287TIP3    H179352   1.405   6.817   5.080  0.5534  1.7610 -1.4383
19287TIP3    H279353   1.448   6.751   4.951 -1.5865 -1.4277 -0.6385
19288TIP3   OH279354   5.207   5.692  11.596  0.6702  0.2434  0.0212
19288TIP3    H179355   5.114   5.715  11.593  0.2544 -1.2677  0.6181
19288TIP3    H279356   5.250   5.771  11.627 -0.6055  0.4997  1.2355
19289TIP3   OH279357   6.263   6.393   5.131  0.3106 -0.3600  0.3209
19289TIP3    H179358   6.280   6.385   5.037 -0.6016  0.3356  0.0856
19289TIP3    H279359   6.238   6.304   5.158  1.6321 -0.8056  0.1485
19290TIP3   OH279360   5.421   1.431  14.256 -0.3333  0.3178  0.1374
19290TIP3    H179361   5.487   1.420  14.325 -0.5020  1.6358  0.5222
19290TIP3    H279362   5.338   1.436  14.303 -0.7029 -0.9492 -0.3244
19291TIP3   OH279363   1.062   6.520  12.977 -0.0570 -0.4551 -0.6235
19291TIP3    H179364   1.053   6.500  12.884 -2.4443  1.1041 -0.8154
19291TIP3    H279365   1.050   6.437  13.022  2.6907 -1.5405 -1.6631
19292TIP3   OH279366   5.853   2.476  15.240  0.0004  0.6917  0.2458
19292TIP3    H179367   5.915   2.417  15.196 -2.0060 -0.3526 -1.3104
19292TIP3    H279368   5.862   2.559  15.192 -0.7420  0.1402 -0.8919
19293TIP3   OH279369   3.693   0.053  15.094 -0.3819 -0.2874 -0.3115
19293TIP3    H179370   3.709  -0.041  15.086 -1.7234 -0.6273  0.6732
19293TIP3    H279371   3.702   0.086  15.005  0.3226 -1.3066 -0.6374
19294TIP3   OH279372   5.281   1.246  11.556 -0.3099  0.5374 -0.3630
19294TIP3    H179373   5.360   1.268  11.507  0.0346 -0.1775 -0.1494
19294TIP3    H279374   5.211   1.294  11.512 -0.6945 -2.7389 -3.9192
19295TIP3   OH279375   2.312   1.034   3.596 -0.7221  0.4875 -0.0757
19295TIP3    H179376   2.369   1.110   3.591  0.4530 -0.2752  1.0454
19295TIP3    H279377   2.345   0.974   3.528 -0.1842  0.0475  0.5688
19296TIP3   OH279378   3.107   6.496   6.054  0.2201 -0.2710 -0.1014
19296TIP3    H179379   3.084   6.496   5.961 -1.4406 -0.1607  0.2714
19296TIP3    H279380   3.038   6.444   6.096  1.1045 -0.5743  1.0416
19297TIP3   OH279381   1.726   4.820   0.479  0.7174  0.2279 -0.6328
19297TIP3    H179382   1.672   4.758   0.529  1.5323 -0.2146 -0.2811
19297TIP3    H279383   1.763   4.768   0.407 -0.4203  0.8574 -1.6947
19298TIP3   OH279384   6.603   5.994   5.151  0.6542  0.5266  0.4935
19298TIP3    H179385   6.531   5.949   5.106  0.5672  0.2651  0.8937
19298TIP3    H279386   6.637   6.054   5.085  0.1713  0.5412  0.2492
19299TIP3   OH279387   5.618   3.649   5.700  1.0357 -0.1096  0.4166
19299TIP3    H179388   5.573   3.566   5.714  1.3644 -0.4241 -0.3139
19299TIP3    H279389   5.710   3.625   5.694  1.4184  0.6073  2.5926
19300TIP3   OH279390   3.394   6.699  15.163  0.0862 -0.8866 -0.1999
19300TIP3    H179391   3.478   6.656  15.179 -0.0216 -0.8931  0.3635
19300TIP3    H279392   3.415   6.792  15.156 -0.0844 -0.6255  1.9618
19301TIP3   OH279393   0.562   0.933  15.540  0.3055  0.4133  0.0432
19301TIP3    H179394   0.646   0.927  15.585  0.0667  0.3075  0.4750
19301TIP3    H279395   0.578   0.895  15.454  1.4248  2.8001 -0.9072
19302TIP3   OH279396   2.726   2.376   0.497 -0.2726  0.6124  0.4699
19302TIP3    H179397   2.675   2.456   0.484 -1.1811  0.0584  0.5281
19302TIP3    H279398   2.728   2.335   0.410 -2.2569 -0.6971  0.9577
19303TIP3   OH279399   0.159   2.278   3.939  0.1468 -0.6468  0.1918
19303TIP3    H179400   0.175   2.368   3.913 -1.4447 -0.2381  0.5483
19303TIP3    H279401   0.159   2.280   4.035 -2.2506 -0.5157  0.2497
19304TIP3   OH279402   0.109   5.067   2.079  0.4739 -1.1068  0.2458
19304TIP3    H179403   0.089   5.011   2.154  3.9613 -1.9891  0.6681
19304TIP3    H279404   0.122   5.006   2.006  1.8233 -0.6998  0.1126
19305TIP3   OH279405   1.072   5.426  17.009  0.1386  0.5423 -0.0751
19305TIP3    H179406   1.059   5.441  17.102  1.3799 -1.2217  0.4338
19305TIP3    H279407   0.985   5.405  16.975  0.2374 -4.3272  1.8704
19306TIP3   OH279408   4.284   3.614  12.284 -0.0721 -0.6515  0.1275
19306TIP3    H179409   4.349   3.645  12.220  0.3774 -0.2789  0.7612
19306TIP3    H279410   4.220   3.684  12.289  0.8589  0.1341  1.4383
19307TIP3   OH279411   5.157   5.199  10.488  0.0720  0.1157 -0.1735
19307TIP3    H179412   5.154   5.106  10.511  0.4401  0.6040  2.0577
19307TIP3    H279413   5.100   5.241  10.553  1.4869  1.6590  0.1322
19308TIP3   OH279414   2.693   4.556   5.816 -0.5961  0.5654  0.2000
19308TIP3    H179415   2.738   4.624   5.866  0.5547 -0.6604  0.9060
19308TIP3    H279416   2.654   4.499   5.882 -2.0579  0.8406 -0.3905
19309TIP3   OH279417   2.697   6.236  11.648 -0.0741  0.3228  0.1800
19309TIP3    H179418   2.705   6.186  11.566 -1.9318 -0.4301  0.3931
19309TIP3    H279419   2.716   6.173  11.717 -1.4647  0.1235  0.4131
19310TIP3   OH279420   1.830   2.437   6.150  0.4323 -0.1851 -0.3059
19310TIP3    H179421   1.825   2.458   6.056 -1.6778 -0.4632 -0.3035
19310TIP3    H279422   1.822   2.342   6.154 -1.6377 -0.0438  0.1966
19311TIP3   OH279423   4.479   4.530  11.305 -0.1895 -0.3954 -0.5445
19311TIP3    H179424   4.542   4.458  11.306  0.9729  0.5829  0.7653
19311TIP3    H279425   4.531   4.608  11.322 -1.6285  0.5850 -0.4248
19312TIP3   OH279426   2.342   1.515  13.735 -0.2735  0.0041 -0.4971
19312TIP3    H179427   2.297   1.459  13.798  0.1064  0.4998  0.2221
19312TIP3    H279428   2.380   1.585  13.787 -0.6077  0.8644 -1.3653
19313TIP3   OH279429   5.421   6.600  14.665 -0.2996 -0.1374  0.4789
19313TIP3    H179430   5.335   6.600  14.623 -0.2647 -2.3308  0.3245
19313TIP3    H279431   5.403   6.583  14.757 -0.0604  0.0847  0.5695
19314TIP3   OH279432   0.923   1.151   6.444 -0.2916  0.3526  0.1895
19314TIP3    H179433   0.944   1.226   6.388  0.5506  0.5516  0.7599
19314TIP3    H279434   0.975   1.079   6.409  0.7905  0.6505  1.1163
19315TIP3   OH279435   3.358   4.639   3.505  0.8193  0.6796  0.1292
19315TIP3    H179436   3.394   4.673   3.423 -1.9956  1.1387 -1.0394
19315TIP3    H279437   3.430   4.645   3.567  2.7596  1.3099 -2.0304
19316TIP3   OH279438   3.726   1.476  13.568 -0.0312 -0.1239 -0.4014
19316TIP3    H179439   3.771   1.449  13.488  0.9078 -1.1023  0.4285
19316TIP3    H279440   3.769   1.426  13.637 -0.9321  0.5914  0.6980
19317TIP3   OH279441   0.086   5.560   4.282 -0.7547 -0.3279  0.3906
19317TIP3    H179442   0.166   5.548   4.333  1.6503 -0.4973 -3.1346
19317TIP3    H279443   0.073   5.655   4.281  2.9597  0.4242 -3.6364
19318TIP3   OH279444   6.630   2.217   6.790 -0.2601  0.0117  0.2686
19318TIP3    H179445   6.695   2.255   6.849  2.3533 -0.3980 -2.1363
19318TIP3    H279446   6.668   2.134   6.763 -0.9799  0.4704 -2.4488
19319TIP3   OH279447   2.389   6.213  15.901 -0.0023 -0.1984 -0.2477
19319TIP3    H179448   2.374   6.206  15.806 -0.8445  1.0248 -0.2345
19319TIP3    H279449   2.372   6.305  15.921  0.7352 -0.3116  1.0129
19320TIP3   OH279450   4.358   5.263  14.944  0.4875 -0.3448 -0.1033
19320TIP3    H179451   4.324   5.178  14.917  1.1419 -0.7224  0.2293
19320TIP3    H279452   4.351   5.318  14.866 -2.9432  0.2923  0.4685
19321TIP3   OH279453   3.861   0.440  17.210 -0.1453  0.0333 -0.2146
19321TIP3    H179454   3.813   0.375  17.261  1.4549  0.2269  1.6269
19321TIP3    H279455   3.847   0.522  17.257  0.1997  0.4905 -0.8958
19322TIP3   OH279456   4.123   0.931   3.599  0.4769 -0.1833  0.6284
19322TIP3    H179457   4.108   0.917   3.692 -2.4001  1.8976  0.6269
19322TIP3    H279458   4.169   1.015   3.595 -0.3784  0.2765  0.1745
19323TIP3   OH279459   1.633   2.575   0.796  0.1263 -0.2202 -0.6178
19323TIP3    H179460   1.697   2.570   0.866 -2.4272 -0.6895  1.8812
19323TIP3    H279461   1.616   2.668   0.784 -0.5515 -0.1612  0.6002
19324TIP3   OH279462   0.326   0.320  15.431 -0.9389  0.4632  0.1980
19324TIP3    H179463   0.365   0.237  15.404 -1.0663  1.0280 -1.8371
19324TIP3    H279464   0.358   0.333  15.521  1.4747 -0.3295 -0.4728
19325TIP3   OH279465   3.228   2.998  14.178 -0.0593  0.3978 -0.2305
19325TIP3    H179466   3.253   2.912  14.212  1.3167  1.6929  2.3647
19325TIP3    H279467   3.138   2.988  14.149  0.5788 -2.3013 -1.6496
19326TIP3   OH279468   6.757   1.636  16.036  0.0401 -0.3816 -0.4561
19326TIP3    H179469   6.790   1.554  16.073 -0.0923 -0.8212 -1.3025
19326TIP3    H279470   6.713   1.679  16.110  2.6452  0.3524  0.8007
19327TIP3   OH279471   4.264   4.685   3.880 -0.5766  0.1188  0.2855
19327TIP3    H179472   4.290   4.661   3.791  0.4707 -0.0019  0.6092
19327TIP3    H279473   4.341   4.665   3.934 -1.1559  0.2899  1.2047
19328TIP3   OH279474   4.217   0.552   3.568 -0.2177  0.1720 -0.1516
19328TIP3    H179475   4.266   0.625   3.606 -0.7368  1.1226 -1.2195
19328TIP3    H279476   4.261   0.535   3.484  0.8779 -1.8400  0.7690
19329TIP3   OH279477   3.739   1.622  10.555  0.1003 -0.3155  0.5681
19329TIP3    H179478   3.777   1.575  10.480 -1.2031 -2.6970  1.2958
19329TIP3    H279479   3.646   1.602  10.551  0.0713 -1.0679  3.1367
19330TIP3   OH279480   2.860   2.465  13.886  0.5531  0.1413  0.6548
19330TIP3    H179481   2.946   2.427  13.899  0.9262  0.8773  0.3961
19330TIP3    H279482   2.877   2.549  13.843 -0.3024  0.1886  0.3857
19331TIP3   OH279483   2.062   2.842  14.652 -0.1812  0.3298 -0.3054
19331TIP3    H179484   2.040   2.833  14.745  2.3434 -3.3676  0.1371
19331TIP3    H279485   2.131   2.909  14.651  0.7918 -0.6167  0.7421
19332TIP3   OH279486   2.313   4.538  13.987  0.5908  0.2083 -0.0831
19332TIP3    H179487   2.260   4.614  13.965  1.4644  0.5903 -0.9290
19332TIP3    H279488   2.385   4.539  13.924  0.6404 -1.3014 -0.1025
19333TIP3   OH279489   2.911   6.304   0.998 -0.4890  0.1717 -0.9969
19333TIP3    H179490   2.884   6.386   0.956  0.2215  1.7867  1.4898
19333TIP3    H279491   2.832   6.249   0.996 -1.3924  1.4388 -1.4746
19334TIP3   OH279492   0.241   3.854   2.553 -0.2248 -0.2947 -0.0140
19334TIP3    H179493   0.320   3.810   2.585  0.8320  1.4934  0.0190
19334TIP3    H279494   0.243   3.842   2.458  1.1540  1.2492 -0.2393
19335TIP3   OH279495   6.468   3.449   4.776 -0.2211  0.9688  0.3538
19335TIP3    H179496   6.487   3.454   4.869 -0.0008  2.6516  0.2545
19335TIP3    H279497   6.549   3.418   4.736  0.7293  3.1306  0.4561
19336TIP3   OH279498   5.539   3.122  14.228 -0.4677 -0.1870  0.0636
19336TIP3    H179499   5.610   3.160  14.176 -1.0855 -0.2015 -0.8223
19336TIP3    H279500   5.492   3.067  14.166 -0.9641 -0.5609  0.7651
19337TIP3   OH279501   3.439   1.925  16.323 -0.1744 -0.3302 -0.3305
19337TIP3    H179502   3.369   1.931  16.388  1.4518  2.6449  1.3624
19337TIP3    H279503   3.445   1.831  16.304 -3.1943 -0.9150  0.9563
19338TIP3   OH279504   6.431   5.779  13.043  0.4827 -0.0751  0.5293
19338TIP3    H179505   6.495   5.769  12.972  0.6171  0.8889  0.5085
19338TIP3    H279506   6.444   5.701  13.097  1.3118 -0.1515  0.2383
19339TIP3   OH279507   1.205   4.756   2.024 -0.0834 -0.0660 -0.2638
19339TIP3    H179508   1.125   4.777   1.976 -0.7394 -0.3917  0.6398
19339TIP3    H279509   1.267   4.824   1.999 -1.2905  1.3879  0.5328
19340TIP3   OH279510   4.183   4.924   1.819 -1.0391 -0.0560 -0.4243
19340TIP3    H179511   4.125   4.920   1.743 -0.1433  0.1548 -1.1407
19340TIP3    H279512   4.207   5.017   1.827  0.3634 -0.3259 -1.0729
19341TIP3   OH279513   4.344   0.675   3.841 -0.5787  0.6204  0.2116
19341TIP3    H179514   4.405   0.701   3.772 -0.6568 -0.1822 -0.1751
19341TIP3    H279515   4.337   0.580   3.832  1.8856 -0.0418  3.3146
19342TIP3   OH279516   4.468   4.830   4.336  0.3411  0.2084 -0.0838
19342TIP3    H179517   4.468   4.894   4.407  0.2799  0.7785 -0.5894
19342TIP3    H279518   4.505   4.751   4.375 -1.6487 -0.1726  1.1734
19343TIP3   OH279519   6.715   5.604   1.285 -0.0826  0.4368  0.4505
19343TIP3    H179520   6.799   5.642   1.312  0.7293 -1.4837  0.7898
19343TIP3    H279521   6.666   5.678   1.249  1.7421  1.6249  0.2528
19344TIP3   OH279522   3.623   2.061   5.669  0.0347  0.0546 -0.2711
19344TIP3    H179523   3.557   2.119   5.707  1.4803  2.3241 -1.0131
19344TIP3    H279524   3.695   2.060   5.732 -0.0899 -1.2948 -0.1043
19345TIP3   OH279525   4.911   3.173   4.730  0.1883 -0.2259  0.2883
19345TIP3    H179526   4.925   3.155   4.638 -1.3603  1.1073 -0.2647
19345TIP3    H279527   4.970   3.247   4.749  0.5382 -0.5280  0.3835
19346TIP3   OH279528   0.027   3.525  14.277  0.1140 -0.5318  0.2422
19346TIP3    H179529   0.003   3.439  14.313 -1.2786 -0.3498 -0.1786
19346TIP3    H279530  -0.025   3.532  14.197  0.3865  0.6140  0.1555
19347TIP3   OH279531   3.398   5.213  14.448 -0.4422 -0.5759 -0.4168
19347TIP3    H179532   3.307   5.242  14.445 -0.2565  0.2219  0.8291
19347TIP3    H279533   3.393   5.122  14.477 -0.8505 -0.5707 -0.4698
19348TIP3   OH279534   2.229   5.933  13.058  0.2099  0.0379 -0.0036
19348TIP3    H179535   2.249   6.002  13.121  0.2168  0.9426 -0.9734
19348TIP3    H279536   2.136   5.944  13.039 -0.1916 -1.2669  1.0463
19349TIP3   OH279537   2.491   1.667  13.196 -0.8235  0.2444 -0.1877
19349TIP3    H179538   2.520   1.740  13.141  0.5367 -0.0350  0.0970
19349TIP3    H279539   2.530   1.590  13.155 -3.0074 -0.4864 -1.0203
19350TIP3   OH279540   1.438   5.782  13.385  0.7342 -0.0217 -0.3173
19350TIP3    H179541   1.467   5.812  13.299  0.7724  1.1975  0.1002
19350TIP3    H279542   1.462   5.853  13.445 -1.6774  0.3751  0.3016
19351TIP3   OH279543   4.531   3.384   5.757 -0.2712  0.3616  0.3952
19351TIP3    H179544   4.617   3.394   5.716 -1.1302  1.0184 -1.3482
19351TIP3    H279545   4.547   3.329   5.833  1.9055  1.5370  0.8654
19352TIP3   OH279546   1.759   3.953   4.943 -0.7519  0.1485 -0.2192
19352TIP3    H179547   1.786   3.972   5.032 -0.0515  0.1964 -0.4340
19352TIP3    H279548   1.678   3.903   4.952 -1.5322  1.4620  0.4069
19353TIP3   OH279549   2.553   5.965  15.227  0.2518  0.2996  0.0345
19353TIP3    H179550   2.544   5.936  15.137  0.6938 -0.7529  0.3135
19353TIP3    H279551   2.479   6.025  15.241  0.0489  0.2859 -0.9402
19354TIP3   OH279552   2.521   1.161  12.045 -0.1292  0.2416 -0.3763
19354TIP3    H179553   2.432   1.155  12.081  0.2062  1.4123  0.7182
19354TIP3    H279554   2.545   1.253  12.057  1.6983 -0.3073  0.5074
19355TIP3   OH279555   2.246   2.669  12.140 -0.5252 -0.1308 -0.0147
19355TIP3    H179556   2.202   2.750  12.115 -0.3230 -0.4720 -1.5871
19355TIP3    H279557   2.204   2.601  12.086 -0.0278 -0.9084  0.5524
19356TIP3   OH279558   1.988   3.787  15.309 -0.1393  0.5288  0.6759
19356TIP3    H179559   1.971   3.818  15.221  0.9017  0.9904  0.6171
19356TIP3    H279560   1.902   3.785  15.351 -0.7134 -0.2052 -0.4930
19357TIP3   OH279561   0.014   2.189   5.558 -0.1198  0.5900 -0.5096
19357TIP3    H179562   0.023   2.189   5.463 -0.6044  2.1941 -0.5773
19357TIP3    H279563  -0.059   2.249   5.575 -0.9203 -0.6885  0.8109
19358TIP3   OH279564   3.979   4.359  15.657 -0.5361 -0.3337 -0.4863
19358TIP3    H179565   4.059   4.364  15.605 -0.9800 -0.4176 -1.1815
19358TIP3    H279566   4.009   4.373  15.747  0.4129 -1.4308 -0.6084
19359TIP3   OH279567   1.025   4.477   0.781 -0.4964 -0.8137 -0.2808
19359TIP3    H179568   0.965   4.547   0.805  1.5189  0.6941  0.6735
19359TIP3    H279569   1.101   4.491   0.837  1.0462 -2.1796 -1.9273
19360TIP3   OH279570   4.156   3.610   0.051 -0.4375 -0.0838  0.0944
19360TIP3    H179571   4.245   3.636   0.078  0.7431 -2.5501 -1.1068
19360TIP3    H279572   4.126   3.554   0.123  0.4803 -2.1321 -1.0352
19361TIP3   OH279573   6.667   0.962  14.107 -0.5909  0.1768 -0.2316
19361TIP3    H179574   6.581   0.937  14.143 -0.4642  0.1874  0.0805
19361TIP3    H279575   6.726   0.894  14.137 -0.3879  0.4532 -0.0033
19362TIP3   OH279576   5.830   6.512   3.414 -0.1832 -0.0466 -0.1181
19362TIP3    H179577   5.774   6.438   3.393  1.4628 -1.7074  1.0207
19362TIP3    H279578   5.911   6.495   3.368  0.1449  1.1976 -0.0348
19363TIP3   OH279579   2.161   6.626   3.064 -0.2365  0.5532  0.1618
19363TIP3    H179580   2.195   6.690   3.127 -0.2779  0.3956  0.3471
19363TIP3    H279581   2.226   6.624   2.994  0.8227 -0.6845  1.1261
19364TIP3   OH279582   6.191   0.426  14.669 -0.2311  0.0140 -0.3929
19364TIP3    H179583   6.233   0.368  14.606 -0.6418 -0.4534 -0.2434
19364TIP3    H279584   6.229   0.401  14.753  0.9226  1.1862 -0.5310
19365TIP3   OH279585   2.994   3.402   4.996 -0.0936  0.0991 -0.0439
19365TIP3    H179586   2.931   3.458   5.041 -0.2819 -2.9504  4.1234
19365TIP3    H279587   3.075   3.412   5.046  0.3787 -1.8635 -0.3413
19366TIP3   OH279588   4.100   2.035   5.734 -0.3274  0.0535 -0.1151
19366TIP3    H179589   4.117   1.943   5.753 -2.8980 -1.1818 -2.8419
19366TIP3    H279590   4.130   2.047   5.644 -0.5692  1.7275 -0.0095
19367TIP3   OH279591   2.497   6.032   0.778  0.4242 -0.2969  0.2695
19367TIP3    H179592   2.529   5.942   0.773  1.4193  0.0828 -0.6480
19367TIP3    H279593   2.485   6.048   0.871 -1.8061 -2.0425  0.3530
19368TIP3   OH279594   4.053   0.515   5.585  0.0067 -0.4063  0.5439
19368TIP3    H179595   3.970   0.474   5.610 -1.9650  1.6942 -2.0141
19368TIP3    H279596   4.077   0.474   5.502  1.1488 -0.4329  0.8658
19369TIP3   OH279597   3.657   6.309   4.397 -0.1068  0.0134  0.1421
19369TIP3    H179598   3.656   6.404   4.404  0.1819 -0.0021  0.4504
19369TIP3    H279599   3.708   6.291   4.317  2.0224  0.0782  1.4106
19370TIP3   OH279600   2.900   6.544  17.263 -0.1092 -0.0250 -0.3874
19370TIP3    H179601   2.900   6.461  17.310 -0.2866  0.1863 -0.0035
19370TIP3    H279602   2.814   6.547  17.220  0.6099 -0.9024 -1.9906
19371TIP3   OH279603   5.162   2.136  12.890  0.0313 -0.4946  0.3224
19371TIP3    H179604   5.192   2.172  12.973  1.2430  1.0994 -0.7481
19371TIP3    H279605   5.102   2.202  12.856  1.4698  0.0979 -1.1883
19372TIP3   OH279606   0.922   6.438  11.906 -0.8783 -0.0257  0.5123
19372TIP3    H179607   0.888   6.418  11.819  0.7952 -0.5776 -0.0650
19372TIP3    H279608   0.918   6.354  11.953 -0.6786 -0.0128  0.5547
19373TIP3   OH279609   4.729   3.747  11.794  0.8023 -0.5818 -0.6184
19373TIP3    H179610   4.725   3.823  11.735 -1.1232  0.8388  1.1770
19373TIP3    H279611   4.662   3.687  11.760  1.2846 -0.8342 -1.1573
19374TIP3   OH279612   0.788   2.113   4.203  0.8166  0.1916 -0.2701
19374TIP3    H179613   0.712   2.057   4.208 -1.5392  3.2228  1.4608
19374TIP3    H279614   0.768   2.175   4.132  1.7725  0.8704  0.0264
19375TIP3   OH279615   3.766   4.749  15.885  0.3428  0.0285  0.3988
19375TIP3    H179616   3.713   4.670  15.878  0.7964 -0.1599 -1.5880
19375TIP3    H279617   3.837   4.726  15.944 -0.2207 -0.6361  0.8254
19376TIP3   OH279618   3.376   5.087   0.271  0.0209  0.0784  0.0872
19376TIP3    H179619   3.345   5.106   0.359 -1.2019  1.1818 -0.5444
19376TIP3    H279620   3.384   5.173   0.229 -0.2069 -0.4667 -1.1178
19377TIP3   OH279621   0.018   0.996  14.429  0.1764 -0.0578  0.0079
19377TIP3    H179622  -0.077   1.000  14.425  0.1591 -0.8877 -1.5746
19377TIP3    H279623   0.044   1.075  14.476 -1.2281  1.1165 -1.0947
19378TIP3   OH279624   5.276   2.307  12.384 -0.5230 -0.8226  0.4153
19378TIP3    H179625   5.306   2.267  12.303 -0.8503  0.5616 -0.4143
19378TIP3    H279626   5.183   2.326  12.369  0.2929  3.2025 -0.5368
19379TIP3   OH279627   5.910   0.492   4.066  0.2359 -0.3194 -0.4437
19379TIP3    H179628   5.941   0.578   4.036  1.0343 -1.0078 -1.6576
19379TIP3    H279629   5.988   0.437   4.065 -0.6917 -1.7171 -2.1178
19380TIP3   OH279630   6.446   0.641  13.438  0.1083 -0.6990 -0.2085
19380TIP3    H179631   6.357   0.668  13.459  0.6166  0.2703  0.8318
19380TIP3    H279632   6.438   0.550  13.410 -1.1921 -0.6523 -0.0444
19381TIP3   OH279633   5.425   5.311  12.560  0.2924 -0.5771 -0.0320
19381TIP3    H179634   5.479   5.390  12.566  0.3925 -0.7725  2.8981
19381TIP3    H279635   5.335   5.343  12.555  0.4324 -0.2791 -0.6726
19382TIP3   OH279636   2.785   2.255  15.504 -0.8311 -0.3935  0.1335
19382TIP3    H179637   2.828   2.338  15.487 -0.5482 -0.8738 -1.6180
19382TIP3    H279638   2.701   2.261  15.459 -0.4830 -1.3394 -0.6674
19383TIP3   OH279639   0.282   3.981  14.845  0.9150  0.3744  0.8680
19383TIP3    H179640   0.230   3.901  14.845 -0.7828  1.3807 -0.6011
19383TIP3    H279641   0.336   3.975  14.924 -1.2625 -0.8981  2.3715
19384TIP3   OH279642   6.741   5.634  15.810 -0.2446 -0.0787 -0.4033
19384TIP3    H179643   6.792   5.571  15.759  2.4937  0.8033  1.0693
19384TIP3    H279644   6.797   5.711  15.818 -3.3911  2.5810 -1.9320
19385TIP3   OH279645   0.077   1.098   5.333 -0.2286 -0.2413 -0.1920
19385TIP3    H179646  -0.004   1.067   5.373 -1.5207  1.9515 -0.9574
19385TIP3    H279647   0.087   1.043   5.255 -2.2394  0.8659 -1.3065
19386TIP3   OH279648   3.816   1.620   5.624  0.1529 -0.1397 -0.6570
19386TIP3    H179649   3.770   1.565   5.561  0.8642  0.4698 -1.7338
19386TIP3    H279650   3.908   1.592   5.619  0.6082  1.4128 -1.5479
19387TIP3   OH279651   4.001   0.022  14.668 -0.4263 -0.2169 -0.1918
19387TIP3    H179652   3.915   0.018  14.626 -0.6137 -0.4908  0.2068
19387TIP3    H279653   4.061   0.046  14.598 -1.0472  1.5599 -0.1598
19388TIP3   OH279654   6.036   5.206  12.917  0.1105 -0.8778  0.2306
19388TIP3    H179655   6.067   5.157  12.993 -0.7132 -1.5652  0.1421
19388TIP3    H279656   6.115   5.245  12.879  0.2592  2.1463  3.1825
19389TIP3   OH279657   0.156   6.103  11.030  0.1584  0.3433  0.8889
19389TIP3    H179658   0.169   6.183  10.979 -1.0221  0.0932  0.1614
19389TIP3    H279659   0.067   6.075  11.009  0.8605 -1.6997  0.3733
19390TIP3   OH279660   6.712   0.226  11.058 -0.0577  0.1889  0.1231
19390TIP3    H179661   6.617   0.242  11.061 -0.1953 -0.3593 -0.7358
19390TIP3    H279662   6.750   0.311  11.036 -0.2034  0.7516  1.8762
19391TIP3   OH279663   3.779   5.939  15.300  0.2659 -0.6398  0.2917
19391TIP3    H179664   3.788   6.021  15.349 -0.1146 -0.6295  0.3482
19391TIP3    H279665   3.707   5.893  15.343  1.6873 -1.8822  1.4800
19392TIP3   OH279666   5.109   1.362  12.265 -0.1179 -0.1899 -0.1333
19392TIP3    H179667   5.161   1.401  12.195  0.0205 -2.0153 -1.0997
19392TIP3    H279668   5.018   1.385  12.242 -0.1239 -1.2389 -1.2575
19393TIP3   OH279669   0.930   4.157   2.048  0.1798  0.1227  0.1908
19393TIP3    H179670   0.925   4.116   1.962 -2.2794  1.5268 -0.4538
19393TIP3    H279671   0.943   4.250   2.030 -1.9923  0.6972  1.1641
19394TIP3   OH279672   3.192   0.201   0.602  0.1295  0.3794 -0.0887
19394TIP3    H179673   3.129   0.273   0.610 -0.4681 -0.1326 -0.1192
19394TIP3    H279674   3.193   0.181   0.508  0.4502  0.4864 -0.1076
19395TIP3   OH279675   2.486   6.154  14.060 -0.1095  0.1990  0.4230
19395TIP3    H179676   2.464   6.228  14.003 -2.2502  0.5700  1.5958
19395TIP3    H279677   2.518   6.196  14.141  3.8489 -0.3219 -0.6750
19396TIP3   OH279678   1.002   0.295  13.408  0.4034 -0.0120  0.0591
19396TIP3    H179679   1.072   0.342  13.362 -0.0043  0.1388 -0.4220
19396TIP3    H279680   0.922   0.344  13.387  0.0226 -0.7025 -0.1444
19397TIP3   OH279681   3.342   5.532  14.792 -0.2805 -0.4296  0.1221
19397TIP3    H179682   3.291   5.478  14.852 -0.5480 -0.4061 -0.0804
19397TIP3    H279683   3.419   5.558  14.842 -0.2998 -0.7503  0.3185
19398TIP3   OH279684   4.091   5.290  14.726 -0.2263 -0.1133  0.9885
19398TIP3    H179685   4.079   5.354  14.656  0.8073  0.6783  1.5036
19398TIP3    H279686   4.121   5.210  14.681 -0.6068  0.0476  0.4365
19399TIP3   OH279687   1.448   6.176   0.130  0.0559  0.5027  0.7641
19399TIP3    H179688   1.490   6.099   0.091  0.2220  1.0621 -0.2006
19399TIP3    H279689   1.357   6.150   0.142  0.4348 -0.3751  1.9380
19400TIP3   OH279690   5.594   3.324   2.968  0.4950  0.5914 -0.1430
19400TIP3    H179691   5.507   3.341   3.004  1.6635 -2.1900  4.9530
19400TIP3    H279692   5.580   3.255   2.903 -1.1181 -0.8501  1.6051
19401TIP3   OH279693   1.090   0.521  15.907  0.2278 -0.1587 -0.3220
19401TIP3    H179694   1.108   0.530  16.000  1.1379 -0.4830 -0.4561
19401TIP3    H279695   1.010   0.572  15.893  0.2206  0.0974  0.5837
19402TIP3   OH279696   0.878   5.847   6.046 -0.1882 -0.0453  0.0512
19402TIP3    H179697   0.817   5.913   6.014  0.5272  0.0777 -1.1077
19402TIP3    H279698   0.860   5.770   5.991  1.2861  0.2744 -0.9531
19403TIP3   OH279699   1.025   4.295  12.147  0.4145  0.8008 -0.2917
19403TIP3    H179700   1.038   4.350  12.070  1.4415 -0.4348 -1.0348
19403TIP3    H279701   1.005   4.357  12.218  1.2740  2.0978 -1.1514
19404TIP3   OH279702   5.147   6.486   6.733  0.0024  0.6075  0.0785
19404TIP3    H179703   5.234   6.485   6.771 -0.4665  0.8805  1.1935
19404TIP3    H279704   5.090   6.515   6.803 -0.8555  1.4629 -0.9385
19405TIP3   OH279705   4.256   0.621   1.507 -0.4023  0.2517  0.1085
19405TIP3    H179706   4.181   0.574   1.544 -0.2607 -1.5782 -1.7813
19405TIP3    H279707   4.268   0.583   1.420  1.9028  1.4358 -0.1563
19406TIP3   OH279708   6.172   2.284   4.774 -0.0057  0.2389  0.1576
19406TIP3    H179709   6.091   2.277   4.725 -0.4892  1.8328  0.6702
19406TIP3    H279710   6.191   2.194   4.803 -0.9210 -0.3400 -0.9726
19407TIP3   OH279711   5.072   2.949   6.576  0.0619 -0.3226 -0.1564
19407TIP3    H179712   5.123   3.030   6.579 -0.4916  0.0141  0.3566
19407TIP3    H279713   5.010   2.957   6.648 -0.9952 -0.5507 -1.0176
19408TIP3   OH279714   2.635   3.469  13.769 -0.3903 -0.6474  0.1022
19408TIP3    H179715   2.596   3.481  13.856  1.5704 -0.8739  1.0570
19408TIP3    H279716   2.625   3.554  13.726  0.2029  0.0144  1.2255
19409TIP3   OH279717   2.555   0.247  16.277  0.0480  0.4851 -0.2312
19409TIP3    H179718   2.622   0.299  16.233  1.1123 -0.6312  0.0053
19409TIP3    H279719   2.517   0.193  16.207  0.0497  0.4534 -0.2073
19410TIP3   OH279720   0.205   3.280  15.259  0.0882  0.1277  0.3389
19410TIP3    H179721   0.130   3.269  15.201  0.6997  1.0386 -0.6820
19410TIP3    H279722   0.198   3.209  15.323 -0.3043 -1.2740 -1.2047
19411TIP3   OH279723   5.368   3.436  15.239  0.0557 -0.0834  0.8299
19411TIP3    H179724   5.331   3.493  15.171 -0.4030 -0.7217  0.5356
19411TIP3    H279725   5.459   3.463  15.247  0.1927 -0.2040 -0.2593
19412TIP3   OH279726   6.711   4.841   0.284 -0.4621  0.1238  0.5325
19412TIP3    H179727   6.798   4.880   0.288  0.4510 -1.8235  0.4210
19412TIP3    H279728   6.719   4.759   0.334 -2.1275 -0.2763  0.1954
19413TIP3   OH279729   6.655   0.270  12.117  0.3336  0.5526  0.0013
19413TIP3    H179730   6.610   0.188  12.098  0.1643  0.7171 -0.3082
19413TIP3    H279731   6.615   0.302  12.197  0.6503  0.1504  0.3267
19414TIP3   OH279732   6.032   1.590   1.173 -0.0949 -0.3937  0.2054
19414TIP3    H179733   6.106   1.569   1.117  0.2429 -0.5874  0.7099
19414TIP3    H279734   6.046   1.535   1.251 -0.4151  0.0557  0.5795
19415TIP3   OH279735   6.046   1.898   6.626  0.1279  0.0761 -0.1711
19415TIP3    H179736   5.989   1.965   6.663 -0.3666 -0.4645  0.0660
19415TIP3    H279737   6.049   1.830   6.693  2.3459  0.7815  0.5113
19416TIP3   OH279738   1.720   3.018  16.319 -0.4215 -0.2833  0.2480
19416TIP3    H179739   1.740   2.950  16.383  0.0128  0.2244  0.6608
19416TIP3    H279740   1.624   3.023  16.319 -0.4334 -0.4170  0.7282
19417TIP3   OH279741   3.654   0.294  14.097  0.2699 -0.1029 -0.1378
19417TIP3    H179742   3.673   0.253  14.013 -0.6236  0.5262 -0.6702
19417TIP3    H279743   3.652   0.222  14.160  1.4268 -0.5231 -0.5658
19418TIP3   OH279744   4.191   5.885   2.634  0.1938  0.1786 -0.2048
19418TIP3    H179745   4.138   5.913   2.708 -1.0574  0.0906 -1.0415
19418TIP3    H279746   4.137   5.902   2.557  0.4173 -2.0081 -0.9410
19419TIP3   OH279747   0.212   1.445  15.330 -0.5643 -0.8176 -0.1503
19419TIP3    H179748   0.237   1.413  15.417  0.4015 -0.2454 -0.1957
19419TIP3    H279749   0.294   1.445  15.280 -0.7871  0.3764 -0.5658
19420TIP3   OH279750   2.811   0.014  13.894  0.4718  0.0426  0.3261
19420TIP3    H179751   2.888  -0.044  13.887 -0.3592 -1.2172  1.1162
19420TIP3    H279752   2.737  -0.046  13.893 -0.4827  1.2096  0.0822
19421TIP3   OH279753   1.194   4.855   0.396 -0.0014  0.3704 -0.7287
19421TIP3    H179754   1.102   4.881   0.401  0.0824  0.6386 -0.5424
19421TIP3    H279755   1.206   4.797   0.472  0.1649  0.9257 -0.3216
19422TIP3   OH279756   0.842   1.434   2.978  0.0759  0.2664  0.1356
19422TIP3    H179757   0.816   1.362   3.035 -2.2702  0.2000 -0.8990
19422TIP3    H279758   0.847   1.395   2.891  0.0963  1.0736 -0.2371
19423TIP3   OH279759   3.284   2.250  13.732  0.1311  0.0723  1.2407
19423TIP3    H179760   3.214   2.261  13.796  2.3994  0.8602  3.7547
19423TIP3    H279761   3.318   2.338  13.718  0.3560 -0.2285 -0.3340
19424TIP3   OH279762   6.022   0.811  17.218 -0.2878 -0.0063  0.1654
19424TIP3    H179763   6.112   0.840  17.202 -0.1760 -0.8787 -0.9549
19424TIP3    H279764   5.972   0.846  17.145 -1.1384  1.5165  1.4217
19425TIP3   OH279765   3.492   1.714   4.867  0.5055  0.3087 -0.1623
19425TIP3    H179766   3.437   1.706   4.945  1.4123  2.2784  0.7277
19425TIP3    H279767   3.578   1.679   4.895  0.0986 -1.7218 -1.2158
19426TIP3   OH279768   5.451   4.194   0.476 -0.3361 -0.1955 -1.1559
19426TIP3    H179769   5.513   4.166   0.543 -0.9376  1.9226  0.4156
19426TIP3    H279770   5.503   4.245   0.414 -0.0886 -0.5243 -1.2137
19427TIP3   OH279771   6.074   2.015  15.832  0.1249 -0.9114 -0.2612
19427TIP3    H179772   6.086   1.950  15.902 -0.5235  0.3192  1.0402
19427TIP3    H279773   6.062   2.098  15.878  2.0497  0.3752 -1.8829
19428TIP3   OH279774   1.674   3.118  14.059 -0.5052  0.0742 -0.0439
19428TIP3    H179775   1.659   3.159  13.973  1.8678  0.8527 -0.1505
19428TIP3    H279776   1.611   3.046  14.062 -0.5281 -0.1145 -2.5501
19429TIP3   OH279777   3.883   3.725  15.756  0.6978 -0.6207  0.0115
19429TIP3    H179778   3.863   3.727  15.849 -0.2287 -0.4144 -0.1815
19429TIP3    H279779   3.799   3.705  15.714  0.6467  1.2520 -0.8905
19430TIP3   OH279780   0.441   3.325   0.814 -0.3418 -0.5213  0.0442
19430TIP3    H179781   0.372   3.271   0.852 -3.0166  1.3972 -1.7532
19430TIP3    H279782   0.442   3.404   0.867 -0.3254 -0.0659 -0.6206
19431TIP3   OH279783   0.354   3.914  17.217 -0.6102 -0.9270  0.3188
19431TIP3    H179784   0.304   3.893  17.138  1.3646 -0.6520 -1.0770
19431TIP3    H279785   0.385   4.003  17.202  0.2317 -1.0688  1.1477
19432TIP3   OH279786   4.230   4.019   3.805 -0.1139 -0.4696  0.4426
19432TIP3    H179787   4.271   4.102   3.831 -0.0872 -0.4083  0.2152
19432TIP3    H279788   4.302   3.968   3.768 -0.4296  0.0997 -1.0735
19433TIP3   OH279789   2.338   6.180   5.437  0.0775 -0.0197  0.1553
19433TIP3    H179790   2.281   6.207   5.510 -0.3214  1.5674 -0.7048
19433TIP3    H279791   2.427   6.194   5.469 -0.1025  1.0968  0.2080
19434TIP3   OH279792   5.544   5.950   6.209  0.1008 -0.0099  1.0366
19434TIP3    H179793   5.620   6.000   6.181  0.4929 -1.2223 -0.1710
19434TIP3    H279794   5.580   5.880   6.263 -0.0704 -0.9087  0.0188
19435TIP3   OH279795   1.036   2.772   3.088  0.1121 -0.1480  0.2556
19435TIP3    H179796   1.087   2.727   3.155  0.0511 -1.2598 -0.4056
19435TIP3    H279797   0.959   2.715   3.075 -0.9672  1.1521  0.7691
19436TIP3   OH279798   5.270   5.330  13.609  0.0847  0.3090 -0.1040
19436TIP3    H179799   5.309   5.353  13.524  0.1132 -0.6475 -0.3672
19436TIP3    H279800   5.325   5.374  13.673 -0.0992  1.2733 -0.5803
19437TIP3   OH279801   0.850   3.824   0.365 -0.5705 -0.0915 -0.2605
19437TIP3    H179802   0.776   3.770   0.392 -0.0198 -0.6246  0.2112
19437TIP3    H279803   0.852   3.816   0.269  0.5907 -2.4312 -0.1314
19438TIP3   OH279804   5.850   2.321  11.827 -0.4189  0.2606 -0.1168
19438TIP3    H179805   5.844   2.349  11.735 -1.1021 -0.9336 -0.4545
19438TIP3    H279806   5.854   2.403  11.876  4.2582  1.0797 -1.3774
19439TIP3   OH279807   4.336   6.568  13.661  0.0098 -0.5022 -0.2239
19439TIP3    H179808   4.350   6.482  13.622  3.3600  0.2932 -1.0257
19439TIP3    H279809   4.288   6.550  13.742  1.2260 -3.2166  0.0023
19440TIP3   OH279810   5.324   3.630  15.855  0.4029 -0.1118  0.2927
19440TIP3    H179811   5.257   3.630  15.787 -0.3892  0.4103  1.0502
19440TIP3    H279812   5.316   3.545  15.897 -0.4809  0.3158  1.0266
19441TIP3   OH279813   3.310   6.628  12.687  0.0703 -0.3408  0.3113
19441TIP3    H179814   3.343   6.716  12.704  0.3122 -0.1858 -0.8683
19441TIP3    H279815   3.388   6.573  12.686 -0.1132 -0.6540  1.4170
19442TIP3   OH279816   3.061   4.662  15.071  0.6971 -0.3982  0.2156
19442TIP3    H179817   3.074   4.643  14.978 -0.9195  1.2006 -0.3873
19442TIP3    H279818   3.007   4.590  15.103 -0.6447  0.1681 -0.6715
19443TIP3   OH279819   1.548   0.394  14.278  0.6771  0.3769 -0.3882
19443TIP3    H179820   1.639   0.374  14.256 -0.0129 -2.1849 -1.1711
19443TIP3    H279821   1.497   0.364  14.203 -0.9229  0.8309  0.4670
19444TIP3   OH279822   3.605   5.701  14.633 -0.5437 -0.3352 -0.1104
19444TIP3    H179823   3.543   5.662  14.695  0.1129 -1.6235 -0.2417
19444TIP3    H279824   3.688   5.659  14.653  0.0848  0.6411 -0.6182
19445TIP3   OH279825   2.570   2.922  12.349  0.1960 -0.7398  1.0826
19445TIP3    H179826   2.659   2.937  12.382 -1.1650 -0.3734  5.0525
19445TIP3    H279827   2.518   2.994  12.384 -2.0024 -1.8799  0.3616
19446TIP3   OH279828   3.765   6.359   4.150 -0.6498 -0.0049  0.0594
19446TIP3    H179829   3.745   6.450   4.126  0.5377  0.3035  0.1778
19446TIP3    H279830   3.857   6.348   4.125 -1.1009 -1.5444 -1.0549
19447TIP3   OH279831   3.082   1.290  14.596  0.4385  0.2212  0.4375
19447TIP3    H179832   3.125   1.314  14.514 -1.8620 -0.8819 -1.1851
19447TIP3    H279833   3.120   1.205  14.618 -0.4550 -0.5076 -0.7064
19448TIP3   OH279834   1.410   5.514   0.393  0.3295 -0.0400 -0.1963
19448TIP3    H179835   1.437   5.474   0.311  0.8016 -0.5656  0.2154
19448TIP3    H279836   1.380   5.602   0.368  0.1266 -0.3260 -0.9741
19449TIP3   OH279837   1.353   5.423  13.804 -0.6383 -0.4173 -0.1733
19449TIP3    H179838   1.445   5.448  13.802 -0.2078 -1.1324  3.8833
19449TIP3    H279839   1.306   5.506  13.810 -0.1713 -0.1214 -0.5159
19450TIP3   OH279840   0.375   0.161  16.131  0.0371 -0.1853 -0.1959
19450TIP3    H179841   0.406   0.077  16.163  1.1297  1.1722  2.7559
19450TIP3    H279842   0.455   0.211  16.112 -0.4300  1.0478  0.8386
19451TIP3   OH279843   2.982   4.196   3.222 -1.4322 -0.2088 -0.2613
19451TIP3    H179844   2.963   4.234   3.136  1.7050 -2.9714 -2.4281
19451TIP3    H279845   3.042   4.259   3.263 -0.1937 -0.4107 -1.6690
19452TIP3   OH279846   5.214   6.187  13.239 -0.0905  0.3779 -0.4951
19452TIP3    H179847   5.294   6.234  13.218  0.4070  0.2221  0.9304
19452TIP3    H279848   5.144   6.242  13.205  0.4931  2.0567  0.8754
19453TIP3   OH279849   4.489   4.151   3.705  0.4147 -0.2279 -0.4227
19453TIP3    H179850   4.506   4.231   3.755 -1.4813 -0.4948  0.7190
19453TIP3    H279851   4.480   4.181   3.614 -1.0383  1.0086  0.0904
19454TIP3   OH279852   2.596   2.304   2.018 -0.0083 -0.0430  0.3007
19454TIP3    H179853   2.616   2.243   1.947 -0.1349 -0.0964  0.3107
19454TIP3    H279854   2.542   2.253   2.079 -0.4534  0.1999  0.1112
19455TIP3   OH279855   6.758   6.240   1.254  0.4214 -0.0717 -0.2467
19455TIP3    H179856   6.729   6.331   1.253 -0.3537 -0.3130 -0.5460
19455TIP3    H279857   6.738   6.209   1.342 -1.2698 -0.5452 -0.7631
19456TIP3   OH279858   1.798   2.438   4.930  0.9287  0.3740  0.3868
19456TIP3    H179859   1.840   2.521   4.907  0.5331  0.5845  0.4211
19456TIP3    H279860   1.870   2.383   4.963  1.0625  0.9670  1.1041
19457TIP3   OH279861   4.751   4.137  14.924 -1.3238 -0.1797  0.3490
19457TIP3    H179862   4.660   4.125  14.898 -2.2330  0.1387  3.0959
19457TIP3    H279863   4.788   4.048  14.921 -1.8197 -0.3713 -0.3935
19458TIP3   OH279864   0.384   5.804   4.272 -0.0491  0.5092  0.0720
19458TIP3    H179865   0.373   5.736   4.338  0.8752  0.7385  0.4809
19458TIP3    H279866   0.295   5.834   4.252 -0.3247  0.5997  1.3795
19459TIP3   OH279867   0.214   3.227  15.724 -0.5204  0.8499  0.4593
19459TIP3    H179868   0.182   3.309  15.687  1.7475  1.3185 -0.6665
19459TIP3    H279869   0.242   3.176  15.648 -1.8967 -1.0307  1.1361
19460TIP3   OH279870   2.423   0.500  15.462 -0.1113 -0.8530  0.2660
19460TIP3    H179871   2.480   0.424  15.449 -2.3756 -2.4651 -0.9804
19460TIP3    H279872   2.365   0.500  15.387 -0.2684  2.1463  0.2646
19461TIP3   OH279873   3.280   6.060  15.663 -0.0835  0.6935 -0.1545
19461TIP3    H179874   3.357   6.077  15.718  1.3645  0.4796 -2.0319
19461TIP3    H279875   3.316   6.031  15.579 -2.2599 -0.6733 -0.6883
19462TIP3   OH279876   3.874   6.221  13.179  0.0840 -0.0536 -0.2344
19462TIP3    H179877   3.863   6.144  13.235  0.2448 -0.2804 -0.5130
19462TIP3    H279878   3.853   6.190  13.091 -0.5493  0.3980 -0.2520
19463TIP3   OH279879   5.194   4.047   4.531  0.0127  0.2682 -0.0558
19463TIP3    H179880   5.265   4.106   4.507  1.7631 -1.9486 -0.6165
19463TIP3    H279881   5.200   4.038   4.626  0.3063  0.2709 -0.0758
19464TIP3   OH279882   1.921   5.111  14.906 -0.0771 -0.2867  0.3758
19464TIP3    H179883   1.961   5.149  14.827  2.3163  1.3360  2.2160
19464TIP3    H279884   1.953   5.021  14.909  0.7745 -0.0000  0.0947
19465TIP3   OH279885   0.139   0.207   6.562 -0.0543  0.0105 -0.0547
19465TIP3    H179886   0.183   0.291   6.549  0.0398  0.5936  3.2464
19465TIP3    H279887   0.206   0.142   6.541  1.0270  0.8389  0.7075
19466TIP3   OH279888   3.779   3.403   0.449  0.3706  0.0831  0.1706
19466TIP3    H179889   3.706   3.359   0.490  0.9906 -1.4967 -0.3555
19466TIP3    H279890   3.857   3.362   0.487  1.1229  2.8478  2.0002
19467TIP3   OH279891   0.401   1.404  14.373 -0.2310 -0.2557 -0.1047
19467TIP3    H179892   0.465   1.428  14.439  0.1229 -0.7523 -0.2646
19467TIP3    H279893   0.374   1.487  14.334  0.9946 -0.1072 -0.6641
19468TIP3   OH279894   2.730   2.875  14.822 -0.7012  0.4305 -1.0772
19468TIP3    H179895   2.824   2.879  14.801 -1.0267 -1.0477 -3.1043
19468TIP3    H279896   2.711   2.782  14.829 -2.0895  0.7108 -0.9517
19469TIP3   OH279897   5.446   3.056   0.706 -0.3937  0.0439 -0.0446
19469TIP3    H179898   5.412   3.140   0.735 -0.9950  0.3085 -1.4837
19469TIP3    H279899   5.540   3.069   0.698 -0.5224  0.6538 -0.5359
19470TIP3   OH279900   5.712   2.359  16.400 -0.0289  0.3916  0.1072
19470TIP3    H179901   5.736   2.401  16.482 -2.1644  0.6041  0.6736
19470TIP3    H279902   5.736   2.423  16.332 -0.3156  1.1781  0.7344
19471TIP3   OH279903   2.341   2.234  12.179 -0.3340 -0.2412  0.2878
19471TIP3    H179904   2.314   2.288  12.254  2.2376 -1.8281  2.5304
19471TIP3    H279905   2.273   2.168  12.171 -0.4520 -0.2862  1.5023
19472TIP3   OH279906   4.503   5.564  17.203 -0.3951  0.1402  0.6728
19472TIP3    H179907   4.580   5.516  17.172 -0.1938  0.6859  0.3067
19472TIP3    H279908   4.438   5.552  17.133 -0.8399 -0.7748  1.2284
19473TIP3   OH279909   5.278   4.889  16.663 -0.1979  0.2874 -0.1419
19473TIP3    H179910   5.336   4.960  16.689  1.1032 -0.6441 -0.4013
19473TIP3    H279911   5.292   4.821  16.729  0.4911 -0.7016 -1.2482
19474TIP3   OH279912   6.230   3.275  14.189 -0.2833 -0.1063  0.0010
19474TIP3    H179913   6.249   3.314  14.103 -1.1174  0.7337  0.1766
19474TIP3    H279914   6.235   3.181  14.174 -0.3744  0.0257 -0.9713
19475TIP3   OH279915   5.365   1.703  14.205  0.4045 -0.6634  0.3663
19475TIP3    H179916   5.363   1.609  14.191 -1.1188 -0.7849  1.1296
19475TIP3    H279917   5.347   1.714  14.298  1.0357  0.3697  0.3812
19476TIP3   OH279918   4.757   0.287   6.157 -0.5148 -0.1665 -0.4152
19476TIP3    H179919   4.757   0.377   6.126 -2.8406 -0.5419 -1.7398
19476TIP3    H279920   4.704   0.288   6.236  0.2391 -0.2458  0.1050
19477TIP3   OH279921   6.368   6.317  16.057 -1.0740  0.2628  0.1768
19477TIP3    H179922   6.367   6.411  16.077 -0.5569  0.3491 -0.1701
19477TIP3    H279923   6.392   6.313  15.964 -1.5717 -0.1966  0.0656
19478TIP3   OH279924   4.545   0.517  12.758  0.2726  0.0515 -0.0357
19478TIP3    H179925   4.518   0.579  12.827  1.2281  0.5488 -0.0881
19478TIP3    H279926   4.508   0.434  12.785  1.3431  0.0446  1.5834
19479TIP3   OH279927   0.612   2.014  13.909  0.0157 -0.3376  0.7046
19479TIP3    H179928   0.530   2.050  13.944 -0.3503  0.4371 -0.8698
19479TIP3    H279929   0.584   1.944  13.851  0.5583 -0.9207  1.1376
19480TIP3   OH279930   4.405   0.118   4.464 -0.2155 -0.1920 -0.3463
19480TIP3    H179931   4.387   0.204   4.502 -0.8284 -0.1927 -0.6222
19480TIP3    H279932   4.491   0.126   4.425  0.2975 -0.0950  0.7554
19481TIP3   OH279933   1.303   3.919   2.307 -0.3061  0.2867  0.3397
19481TIP3    H179934   1.331   4.007   2.281 -1.2413  0.2578 -0.8697
19481TIP3    H279935   1.367   3.893   2.373 -0.0950  1.9280  0.8443
19482TIP3   OH279936   5.923   0.756  13.381 -0.4593  0.0155 -0.2766
19482TIP3    H179937   5.884   0.678  13.420 -1.2099  0.4733 -0.0914
19482TIP3    H279938   5.941   0.731  13.290  0.1530 -0.6577  0.0230
19483TIP3   OH279939   5.782   0.382   3.156  0.4952 -0.2537 -0.1585
19483TIP3    H179940   5.773   0.476   3.141 -1.8730 -0.6519 -1.7382
19483TIP3    H279941   5.816   0.375   3.245  0.4656  2.0735  0.0957
19484TIP3   OH279942   2.329   6.583   4.262  0.1530  0.3051  0.1761
19484TIP3    H179943   2.340   6.555   4.353 -3.4907  0.0556  0.6852
19484TIP3    H279944   2.392   6.655   4.252  1.0407 -0.0075  2.7001
19485TIP3   OH279945   3.041   2.371  13.386 -0.1640  0.4888 -0.2812
19485TIP3    H179946   2.977   2.431  13.424 -1.2726 -0.1191 -1.1278
19485TIP3    H279947   2.990   2.294  13.361  0.9551 -0.1487 -0.6795
19486TIP3   OH279948   1.216   1.842  13.654 -0.0098 -0.0236  0.1474
19486TIP3    H179949   1.132   1.866  13.616 -0.7230 -2.9678 -0.3768
19486TIP3    H279950   1.279   1.851  13.583 -0.0118  1.2500  0.2797
19487TIP3   OH279951   4.340   3.850  14.041  0.2963 -0.2567 -0.0200
19487TIP3    H179952   4.390   3.843  13.960 -0.3897  2.2836 -0.7269
19487TIP3    H279953   4.264   3.794  14.027  0.6601 -0.5909 -0.7264
19488TIP3   OH279954   6.333   4.226   4.686 -0.0356  0.1349  0.3229
19488TIP3    H179955   6.242   4.229   4.657 -0.2747  0.1714  1.0708
19488TIP3    H279956   6.355   4.133   4.686  0.1957  0.1732 -0.6478
19489TIP3   OH279957   0.101   2.563  12.112 -0.4003  0.1404  0.0791
19489TIP3    H179958   0.087   2.477  12.074  2.7034 -0.5820  0.2538
19489TIP3    H279959   0.111   2.547  12.206  1.2246  0.4582 -0.0003
19490TIP3   OH279960   4.870   0.867   5.277  0.3915 -0.5915 -0.1727
19490TIP3    H179961   4.897   0.775   5.272 -1.8981 -1.3558  0.4408
19490TIP3    H279962   4.943   0.911   5.320  2.2620 -1.7611 -1.9688
19491TIP3   OH279963   3.234   0.069  11.418  0.5829  0.4309 -0.2239
19491TIP3    H179964   3.223  -0.018  11.379  0.6792  0.3886 -0.1581
19491TIP3    H279965   3.241   0.128  11.343  2.2366  0.1723 -0.3057
19492TIP3   OH279966   5.892   3.788   1.838 -0.5052 -0.0468  0.1553
19492TIP3    H179967   5.865   3.778   1.747 -0.9274 -0.4983  0.3253
19492TIP3    H279968   5.859   3.875   1.863 -0.6618 -0.0537 -0.0246
19493TIP3   OH279969   1.580   3.915  11.882 -0.3094  0.2489 -0.3685
19493TIP3    H179970   1.485   3.924  11.894 -0.2917 -1.1488  1.0685
19493TIP3    H279971   1.589   3.890  11.790 -1.6680 -3.0433  0.2602
19494TIP3   OH279972   4.176   6.365  14.563 -0.1861 -0.5134 -0.5861
19494TIP3    H179973   4.113   6.323  14.621 -2.1060  0.6423 -1.7337
19494TIP3    H279974   4.130   6.441  14.529  2.0626  0.7422 -1.0365
19495TIP3   OH279975   6.627   3.551   2.742  0.2172 -0.2755 -0.2633
19495TIP3    H179976   6.697   3.615   2.750  1.1461 -1.3654  0.7265
19495TIP3    H279977   6.561   3.594   2.688  0.6374  1.6572  0.6850
19496TIP3   OH279978   3.556   5.918  16.376 -0.6024  0.8613 -0.0167
19496TIP3    H179979   3.644   5.926  16.414 -0.8437 -1.0953  1.0835
19496TIP3    H279980   3.571   5.889  16.286 -0.1285  0.2595  0.2547
19497TIP3   OH279981   6.477   3.698   2.045  0.0335 -0.0284  0.2266
19497TIP3    H179982   6.553   3.694   1.986  0.5828  0.6236  0.8530
19497TIP3    H279983   6.516   3.694   2.133 -0.6810  0.0458  0.5484
19498TIP3   OH279984   2.961   3.141   4.872  0.2889 -0.4108  0.6555
19498TIP3    H179985   2.956   3.217   4.930  1.3640  0.0382  0.1785
19498TIP3    H279986   3.054   3.131   4.854 -0.0726  0.3340 -2.1231
19499TIP3   OH279987   4.147   2.940   3.324  0.1562  0.0408  0.0996
19499TIP3    H179988   4.173   2.873   3.261 -0.6308  0.1707 -0.3762
19499TIP3    H279989   4.219   2.942   3.387  1.2255  0.2989 -1.0836
19500TIP3   OH279990   6.550   4.245  13.871 -0.5342 -0.0270 -0.5946
19500TIP3    H179991   6.507   4.274  13.791 -0.1232  0.1596 -0.7506
19500TIP3    H279992   6.527   4.153  13.879 -0.0479 -0.2158 -1.2830
19501TIP3   OH279993   6.680   4.749  15.503 -0.0541  0.0795 -0.0609
19501TIP3    H179994   6.605   4.724  15.450  0.1258 -0.9787  0.1563
19501TIP3    H279995   6.742   4.786  15.441 -0.0588 -0.6672 -0.5255
19502TIP3   OH279996   2.714   0.284   3.180 -0.4880 -0.0477 -0.3182
19502TIP3    H179997   2.729   0.216   3.114 -0.0845  0.9568 -1.2955
19502TIP3    H279998   2.619   0.289   3.189 -0.5086 -1.2179  0.2994
19503TIP3   OH279999   1.658   3.416  16.256 -0.0674  0.6141  0.1136
19503TIP3    H180000   1.719   3.345  16.278 -1.9954 -0.6856  1.5765
19503TIP3    H280001   1.610   3.383  16.181  1.2185  1.8108 -1.2969
19504TIP3   OH280002   4.425   0.326   4.085  0.2781  0.2929 -0.2446
19504TIP3    H180003   4.342   0.317   4.132  0.4960 -2.0334 -0.1810
19504TIP3    H280004   4.406   0.294   3.997  0.9135  0.5364 -0.4764
19505TIP3   OH280005   6.009   4.495   1.001 -0.3837 -0.3443 -0.3278
19505TIP3    H180006   6.092   4.452   1.024 -0.0464 -0.8948 -2.3485
19505TIP3    H280007   6.004   4.486   0.906 -1.9679  1.1752 -0.4222
19506TIP3   OH280008   4.923   5.819  12.287  0.3477 -0.2727  0.4673
19506TIP3    H180009   4.829   5.811  12.270  0.2582 -0.8408  1.1741
19506TIP3    H280010   4.931   5.813  12.382  1.0449  0.4548  0.4690
19507TIP3   OH280011   3.440   1.641  11.981  0.0773 -0.1786  0.2441
19507TIP3    H180012   3.493   1.571  11.943 -0.3551 -0.8309  0.8108
19507TIP3    H280013   3.361   1.597  12.012  0.1795  0.4153  1.3996
19508TIP3   OH280014   3.514   2.215  11.363 -0.3019 -0.2196 -0.8862
19508TIP3    H180015   3.576   2.162  11.313 -0.4169 -2.8200  1.4487
19508TIP3    H280016   3.428   2.192  11.327 -0.1469  1.4017 -2.3999
19509TIP3   OH280017   0.326   1.118  12.781  0.0142 -0.1278  0.5485
19509TIP3    H180018   0.243   1.072  12.774 -0.6220  0.9631  0.7308
19509TIP3    H280019   0.328   1.150  12.871 -0.3874  1.7061 -0.0665
19510TIP3   OH280020   5.836   5.429   3.226 -0.1053 -0.1209  0.0574
19510TIP3    H180021   5.867   5.342   3.248 -0.7875 -0.2993  0.3414
19510TIP3    H280022   5.839   5.478   3.308 -1.5511 -0.4520  0.3451
19511TIP3   OH280023   4.412   3.704   2.714 -0.4669 -0.1006  0.8965
19511TIP3    H180024   4.380   3.778   2.663  2.9575 -1.2295 -3.5581
19511TIP3    H280025   4.469   3.742   2.780 -3.3324  1.3383  2.7121
19512TIP3   OH280026   0.607   4.378  16.582 -0.2614  0.0223 -0.1202
19512TIP3    H180027   0.548   4.432  16.529 -0.2523  0.0533 -0.0989
19512TIP3    H280028   0.690   4.380  16.535  0.0068  0.7969  0.3776
19513TIP3   OH280029   1.123   5.983  15.837  0.2929  0.3785 -0.5010
19513TIP3    H180030   1.118   5.902  15.887 -0.1253  1.1516  0.7446
19513TIP3    H280031   1.091   5.959  15.750  1.1970 -1.0258 -0.4900
19514TIP3   OH280032   3.378   2.467  15.209  0.3836 -0.7578 -0.0936
19514TIP3    H180033   3.390   2.427  15.123  0.6897 -1.3774  0.2318
19514TIP3    H280034   3.413   2.403  15.270 -2.6046 -1.7171  0.7577
19515TIP3   OH280035   3.091   1.118   6.827 -0.2764 -0.5557  0.1287
19515TIP3    H180036   3.112   1.205   6.862  0.4488  0.8226 -3.3113
19515TIP3    H280037   3.173   1.069   6.836 -0.1346 -0.2756  0.3942
19516TIP3   OH280038   5.202   1.262   5.298  0.1185  0.4163  0.3438
19516TIP3    H180039   5.268   1.302   5.241  0.5363 -1.6605 -0.7290
19516TIP3    H280040   5.137   1.331   5.311 -0.1379  0.9480 -2.9039
19517TIP3   OH280041   2.118   1.750  15.235  0.4198  0.2973 -0.2962
19517TIP3    H180042   2.211   1.731  15.224  0.0419 -0.3625 -2.9728
19517TIP3    H280043   2.105   1.836  15.195  0.1653  1.3206  1.8486
19518TIP3   OH280044   2.202   2.259   2.133  0.1846 -0.6569  0.0080
19518TIP3    H180045   2.278   2.202   2.120  0.5604 -0.3565  0.8584
19518TIP3    H280046   2.235   2.332   2.184  0.1100  1.2333 -2.4813
19519TIP3   OH280047   1.535   6.408   0.180 -0.2099 -0.0925 -0.4643
19519TIP3    H180048   1.497   6.324   0.156  2.2753 -1.7900  1.0761
19519TIP3    H280049   1.628   6.391   0.190  0.1393  2.3753  1.8427
19520TIP3   OH280050   1.230   2.564  12.721  0.2766  0.2106  0.2723
19520TIP3    H180051   1.325   2.564  12.726  0.3687 -2.4826  0.0155
19520TIP3    H280052   1.206   2.656  12.716  2.8149  0.9913  1.0220
19521TIP3   OH280053   3.603   4.803   2.891 -0.0412  0.0125  0.1329
19521TIP3    H180054   3.595   4.710   2.913 -1.8816  0.4765  1.7485
19521TIP3    H280055   3.595   4.806   2.796  0.6483 -1.5117  0.0001
19522TIP3   OH280056   4.332   6.568   2.790 -0.5580 -0.1053  1.0939
19522TIP3    H180057   4.331   6.479   2.825 -1.3570 -0.5178  0.0715
19522TIP3    H280058   4.305   6.558   2.699 -1.6242  1.2891  1.2177
19523TIP3   OH280059   3.172   0.559   1.713 -0.2438  0.0178 -0.2504
19523TIP3    H180060   3.127   0.550   1.629 -0.5105  0.9766 -0.2267
19523TIP3    H280061   3.110   0.609   1.767 -0.6471 -1.6755  0.9582
19524TIP3   OH280062   1.557   0.183   1.418 -0.3465 -0.1765 -0.4258
19524TIP3    H180063   1.563   0.200   1.324  0.0320 -0.8807 -0.5350
19524TIP3    H280064   1.525   0.093   1.424  0.4196 -0.4233  0.1070
19525TIP3   OH280065   1.482   3.983  12.174 -0.2157 -0.4694 -0.0469
19525TIP3    H180066   1.393   4.016  12.174 -0.1603 -0.0633 -2.8622
19525TIP3    H280067   1.473   3.889  12.189 -0.9130 -0.1782  1.5296
19526TIP3   OH280068   6.692   3.733   3.519 -0.2859 -0.1298 -0.1844
19526TIP3    H180069   6.782   3.700   3.523 -0.6419 -1.0488  0.6442
19526TIP3    H280070   6.639   3.654   3.503 -1.2410 -0.1440  2.6477
19527TIP3   OH280071   3.479   0.859  16.161 -0.3456 -0.6156  0.2538
19527TIP3    H180072   3.487   0.954  16.162  0.2490 -0.6002 -1.9248
19527TIP3    H280073   3.385   0.842  16.161 -0.4753  0.0378 -1.0503
19528TIP3   OH280074   0.137   1.936   5.608 -0.8387  0.7580  0.3067
19528TIP3    H180075   0.108   2.024   5.588 -1.5610  0.3948 -0.2828
19528TIP3    H280076   0.229   1.934   5.580 -1.1435  0.9855 -0.7255
19529TIP3   OH280077   5.761   4.674   4.172 -0.9410  0.1782 -0.3020
19529TIP3    H180078   5.693   4.612   4.146 -1.4152 -0.4615  2.2180
19529TIP3    H280079   5.721   4.760   4.159 -1.8017 -0.1646 -0.0126
19530TIP3   OH280080   0.411   0.846  16.263 -0.1604  0.2742  0.2370
19530TIP3    H180081   0.409   0.755  16.232  0.4511  0.6824 -1.0962
19530TIP3    H280082   0.363   0.845  16.346 -2.2229 -0.8334 -0.8947
19531TIP3   OH280083   0.870   5.665   1.170 -0.2055  0.3237  0.2586
19531TIP3    H180084   0.959   5.700   1.171 -0.2736  0.4977  1.1570
19531TIP3    H280085   0.882   5.570   1.170 -0.0097  0.3440  0.5701
19532TIP3   OH280086   5.118   0.385   0.282 -0.3415  0.0697  0.0930
19532TIP3    H180087   5.192   0.440   0.256  0.3031 -0.2296  1.2212
19532TIP3    H280088   5.142   0.297   0.253  0.3900 -0.2682  1.6528
19533TIP3   OH280089   3.301   3.475   0.250 -1.1289 -0.5169  0.4158
19533TIP3    H180090   3.258   3.464   0.335 -1.1409 -2.0039  0.2381
19533TIP3    H280091   3.234   3.449   0.186 -1.6881  2.1262 -0.1985
19534TIP3   OH280092   4.985   6.725  11.194 -0.1176  0.1349 -0.1171
19534TIP3    H180093   4.976   6.699  11.286  2.5338  0.3769  0.2880
19534TIP3    H280094   4.981   6.820  11.195  0.1502  0.1481 -0.2134
19535TIP3   OH280095   1.525   5.939   3.044  0.3452  0.2379 -0.9576
19535TIP3    H180096   1.593   5.997   3.079  0.0991  0.1299 -0.2686
19535TIP3    H280097   1.491   5.894   3.122  1.2411 -1.5969 -1.5554
19536TIP3   OH280098   6.526   5.453   3.816 -0.0058  0.3658 -1.0244
19536TIP3    H180099   6.552   5.534   3.772 -1.1412  2.2787  1.5681
19536TIP3    H280100   6.597   5.435   3.877  1.5532 -2.2617 -3.3675
19537TIP3   OH280101   6.154   4.479   7.086  0.0393  0.3811 -0.1239
19537TIP3    H180102   6.091   4.434   7.143  0.2700  0.1698 -0.0362
19537TIP3    H280103   6.115   4.566   7.072 -0.0077  0.4474  0.3785
19538TIP3   OH280104   6.438   0.400  17.310  0.4046 -0.3867  0.3081
19538TIP3    H180105   6.465   0.309  17.303  1.4516  0.0162 -2.0792
19538TIP3    H280106   6.454   0.423  17.401  3.3402 -1.6921  0.2445
19539TIP3   OH280107   5.625   6.337  15.920  0.1391 -0.0506 -0.6209
19539TIP3    H180108   5.623   6.296  16.006 -1.5369  2.0193  0.4079
19539TIP3    H280109   5.556   6.293  15.871 -0.0036 -0.1112 -0.3656
19540TIP3   OH280110   3.266   2.267  17.325 -0.2017  0.5488 -0.4777
19540TIP3    H180111   3.270   2.270  17.420 -2.3411 -0.5478 -0.2964
19540TIP3    H280112   3.195   2.206  17.305  0.0013  0.9499 -2.7803
19541TIP3   OH280113   4.013   5.899   3.297  0.2206  0.1195 -0.0141
19541TIP3    H180114   4.008   5.957   3.372  0.7392  0.1128  0.0312
19541TIP3    H280115   4.034   5.956   3.223  1.1287 -0.0420  0.0978
19542TIP3   OH280116   5.382   5.500  17.164 -0.0542  0.5215 -0.0721
19542TIP3    H180117   5.346   5.559  17.097 -0.5722  0.2671 -0.0166
19542TIP3    H280118   5.320   5.504  17.236 -0.3149 -0.4159 -0.2335
19543TIP3   OH280119   5.186   2.363   1.382  0.2604  0.3239 -0.0490
19543TIP3    H180120   5.142   2.447   1.375 -0.6977 -0.1865 -0.3107
19543TIP3    H280121   5.164   2.317   1.301  1.3060  0.0588 -0.2022
19544TIP3   OH280122   0.060   3.305  16.868  0.4179 -0.0446 -0.3865
19544TIP3    H180123   0.007   3.376  16.904  0.2399 -0.5631  0.3870
19544TIP3    H280124   0.148   3.322  16.902  0.1996 -0.6754  0.5279
19545TIP3   OH280125   5.414   1.475   1.832 -0.8297  0.5467  0.3409
19545TIP3    H180126   5.490   1.437   1.788 -1.1724  0.8139 -0.4835
19545TIP3    H280127   5.425   1.569   1.822 -0.8189  0.6233  0.9918
19546TIP3   OH280128   6.758   6.065   6.727 -0.1939  0.1823 -0.1322
19546TIP3    H180129   6.795   5.984   6.762 -0.3163 -0.5711 -1.6444
19546TIP3    H280130   6.818   6.089   6.656 -1.0031  0.5436 -0.7116
19547TIP3   OH280131   4.052   4.942  13.447 -0.5271 -0.3459 -0.1994
19547TIP3    H180132   4.112   4.877  13.410 -0.3295  0.3151 -1.0465
19547TIP3    H280133   3.972   4.892  13.466  0.3552 -1.2970  1.2272
19548TIP3   OH280134   0.222   2.718  15.998 -0.2524  0.2342 -0.1642
19548TIP3    H180135   0.128   2.703  15.984 -0.4401  0.2826  0.9302
19548TIP3    H280136   0.246   2.656  16.067  0.3219  0.8190  0.1755
19549TIP3   OH280137   4.493   1.414   3.949 -0.1720  0.4378  0.1147
19549TIP3    H180138   4.541   1.372   3.878 -0.0827 -0.5723  0.7400
19549TIP3    H280139   4.530   1.375   4.029 -0.3895  1.4109  0.7149
19550TIP3   OH280140   2.109   5.864  11.247 -0.1396  0.1752 -0.1901
19550TIP3    H180141   2.199   5.842  11.269 -0.0935 -0.2795 -0.8317
19550TIP3    H280142   2.101   5.844  11.154 -1.1323 -0.5506  0.0357
19551TIP3   OH280143   1.902   6.712   4.066  0.1726 -0.5904 -0.5974
19551TIP3    H180144   1.856   6.630   4.087 -0.1862  0.2506  2.2764
19551TIP3    H280145   1.994   6.687   4.060 -0.2237 -1.7722 -3.4781
19552TIP3   OH280146   4.497   6.468  15.753 -0.8779 -0.9446 -0.1850
19552TIP3    H180147   4.446   6.467  15.834 -0.9793 -2.6780 -0.2153
19552TIP3    H280148   4.551   6.389  15.758  0.3000 -0.2417 -1.0943
19553TIP3   OH280149   2.291   4.821  13.298  0.0690  0.0742  0.2377
19553TIP3    H180150   2.214   4.800  13.350  1.6881 -0.1855  2.7405
19553TIP3    H280151   2.289   4.759  13.226 -2.6321  0.8727 -0.4963
19554TIP3   OH280152   5.017   3.917   1.382  0.2455 -0.0179  0.1485
19554TIP3    H180153   4.922   3.904   1.373  0.4076 -0.2452 -1.5114
19554TIP3    H280154   5.049   3.833   1.413 -0.0813  0.0565  0.7135
19555TIP3   OH280155   5.316   2.741  13.237 -0.3227 -0.5927  0.4140
19555TIP3    H180156   5.313   2.701  13.150  1.1295 -0.2656  0.1872
19555TIP3    H280157   5.231   2.782  13.247 -0.7751 -1.2555 -0.5566
19556TIP3   OH280158   3.466   4.907   1.889  0.5730  0.4115 -0.5708
19556TIP3    H180159   3.542   4.914   1.947  0.1161  1.1448 -0.0418
19556TIP3    H280160   3.488   4.836   1.829  2.0742  1.2036 -1.0113
19557TIP3   OH280161   6.307   3.288   0.917 -0.0983  0.4232 -0.6555
19557TIP3    H180162   6.248   3.312   0.988 -0.4877  0.0802 -0.8547
19557TIP3    H280163   6.257   3.224   0.865  0.5018  0.0162 -0.7454
19558TIP3   OH280164   4.013   1.336   0.301  0.2049  0.0417  0.1054
19558TIP3    H180165   4.103   1.347   0.330  0.1547  2.9323 -0.4635
19558TIP3    H280166   3.961   1.340   0.382  0.5230 -0.4826  0.3354
19559TIP3   OH280167   2.252   1.255   6.486  0.1528  0.2535 -0.2310
19559TIP3    H180168   2.173   1.211   6.455  0.2497  1.0313 -1.6694
19559TIP3    H280169   2.227   1.347   6.491  1.2569  0.6795 -1.8268
19560TIP3   OH280170   3.167   5.202  11.287  0.1637 -0.0701 -0.4755
19560TIP3    H180171   3.220   5.123  11.278  0.3789  0.0909 -0.6157
19560TIP3    H280172   3.123   5.211  11.203  1.7904  1.1545 -1.2517
19561TIP3   OH280173   6.535   4.409  14.088 -0.0098 -0.6756  0.5152
19561TIP3    H180174   6.505   4.487  14.042  0.5743 -0.3468  0.6869
19561TIP3    H280175   6.543   4.342  14.020  4.3055  0.7217 -0.6327
19562TIP3   OH280176   5.042   6.457   1.266 -0.7767 -0.1741  0.0263
19562TIP3    H180177   5.078   6.507   1.339 -0.3680  1.5935 -1.3263
19562TIP3    H280178   5.118   6.422   1.220 -1.0578 -2.3719  1.0963
19563TIP3   OH280179   2.131   3.641   0.643  0.2442 -0.2212  0.4587
19563TIP3    H180180   2.199   3.574   0.645 -0.5681 -1.1660 -1.0649
19563TIP3    H280181   2.148   3.695   0.720  2.1696 -0.9394  0.5984
19564TIP3   OH280182   1.239   1.457  12.645  0.0835  0.4597  0.0585
19564TIP3    H180183   1.163   1.411  12.679  0.5032 -0.2956  0.0044
19564TIP3    H280184   1.216   1.478  12.555  0.4399 -0.9570 -0.3811
19565TIP3   OH280185   1.488   4.336   1.978  0.3552 -0.1878  0.7045
19565TIP3    H180186   1.523   4.351   2.066  0.7899 -0.5485  0.6002
19565TIP3    H280187   1.478   4.241   1.972  0.9930 -0.2322  0.1287
19566TIP3   OH280188   1.794   6.680   1.376 -0.2789  0.4863  0.0407
19566TIP3    H180189   1.884   6.648   1.371 -0.7851 -0.8271 -1.0677
19566TIP3    H280190   1.742   6.616   1.328 -1.5598  2.2438 -1.0631
19567TIP3   OH280191   4.093   6.434   1.023  0.1963 -0.2706 -0.2698
19567TIP3    H180192   4.119   6.364   0.964  1.8555 -0.3663  0.5249
19567TIP3    H280193   3.997   6.427   1.028  0.3508 -3.3134  0.7657
19568TIP3   OH280194   5.875   2.910  14.905 -0.7129  0.6917 -0.3970
19568TIP3    H180195   5.830   2.910  14.990 -0.2298 -2.2253 -0.0388
19568TIP3    H280196   5.849   2.828  14.864  1.3557  0.6696 -1.8102
19569TIP3   OH280197   0.814   4.798   5.645 -0.2747 -0.2140  0.3134
19569TIP3    H180198   0.856   4.825   5.563  2.0438  0.8239  1.7221
19569TIP3    H280199   0.754   4.728   5.620  0.6306 -0.1940 -2.2050
19570TIP3   OH280200   4.398   2.528   4.226  0.0886 -0.2405 -0.2085
19570TIP3    H180201   4.378   2.575   4.145 -2.0069  0.7340  0.7929
19570TIP3    H280202   4.475   2.572   4.261  0.7005 -0.3383 -1.3895
19571TIP3   OH280203   6.279   3.895  17.257  0.0099 -0.6928  0.2866
19571TIP3    H180204   6.241   3.977  17.290 -0.7328 -0.1390 -1.7230
19571TIP3    H280205   6.231   3.826  17.302  2.2218 -0.1693  3.7767
19572TIP3   OH280206   3.420   5.702   1.750  0.4944 -0.2756 -0.0366
19572TIP3    H180207   3.374   5.629   1.791  0.5191 -0.3908 -0.2130
19572TIP3    H280208   3.488   5.725   1.812  0.2359 -0.1411  0.2012
19573TIP3   OH280209   0.845   0.013  16.848 -0.3186  0.0682 -0.2594
19573TIP3    H180210   0.842   0.109  16.851 -0.3644  0.0569  0.0204
19573TIP3    H280211   0.818  -0.015  16.935 -0.9950 -0.2156 -0.5588
19574TIP3   OH280212   4.699   3.397   6.315  0.3729  0.0697  0.2180
19574TIP3    H180213   4.759   3.388   6.389  0.3113  2.0606  0.5617
19574TIP3    H280214   4.613   3.379   6.352  0.6001 -1.7693 -0.0486
19575TIP3   OH280215   4.115   0.682   6.299  0.0097  0.6640  0.0647
19575TIP3    H180216   4.105   0.721   6.212 -0.0913  1.5627  0.4700
19575TIP3    H280217   4.194   0.628   6.292  0.5413  1.4770 -0.3173
19576TIP3   OH280218   6.629   5.224  15.909  0.6546  0.4032  0.4466
19576TIP3    H180219   6.691   5.280  15.955  2.1708 -1.5916  0.9614
19576TIP3    H280220   6.649   5.136  15.939 -2.8451 -0.3305  1.0850
19577TIP3   OH280221   4.047   5.643   6.642 -0.0796 -0.2368 -0.1297
19577TIP3    H180222   4.052   5.583   6.717 -0.6746 -1.5103 -1.0733
19577TIP3    H280223   4.137   5.652   6.612 -0.0955 -1.5753 -0.6496
19578TIP3   OH280224   0.465   3.665  14.156  0.3987 -0.4183  0.0941
19578TIP3    H180225   0.453   3.601  14.085 -0.5213  0.6582 -0.7782
19578TIP3    H280226   0.376   3.683  14.186  0.7007 -0.0165  0.7525
19579TIP3   OH280227   1.211   2.069   4.615 -0.8535  0.2666 -0.1767
19579TIP3    H180228   1.157   2.062   4.536 -0.9220 -0.1144 -0.0930
19579TIP3    H280229   1.153   2.046   4.687 -0.3220 -1.1389 -0.1709
19580TIP3   OH280230   4.379   2.254   0.765  0.8163 -0.3306  0.4109
19580TIP3    H180231   4.389   2.159   0.771  1.5501 -0.3040 -0.1610
19580TIP3    H280232   4.337   2.279   0.846 -0.6521 -1.3058 -0.0048
19581TIP3   OH280233   4.310   4.875   4.810 -0.3980  0.2497 -0.5472
19581TIP3    H180234   4.300   4.970   4.810  1.5493  0.5088 -1.4243
19581TIP3    H280235   4.234   4.842   4.762 -1.7549  1.2185  0.8303
19582TIP3   OH280236   6.316   4.134  13.089  0.0335  0.1723  0.4314
19582TIP3    H180237   6.364   4.061  13.050 -1.3452 -1.4799  1.7076
19582TIP3    H280238   6.337   4.130  13.182  0.2779  1.7080  0.4640
19583TIP3   OH280239   0.027   1.358   2.529  0.8220  0.2621 -0.1678
19583TIP3    H180240  -0.041   1.370   2.595  1.4309 -0.9069  0.7134
19583TIP3    H280241  -0.011   1.294   2.468  1.4134 -1.0764  0.8101
19584TIP3   OH280242   3.147   0.082  12.009  0.5398  0.0246  0.3690
19584TIP3    H180243   3.063   0.089  11.963  0.4950 -0.6987  0.3305
19584TIP3    H280244   3.201   0.026  11.953  0.9928  0.3417  0.4791
19585TIP3   OH280245   2.831   1.776   4.510 -0.0179  0.5221 -0.3608
19585TIP3    H180246   2.763   1.785   4.444  0.2188 -0.0031 -0.6820
19585TIP3    H280247   2.910   1.756   4.460 -0.1110 -1.2550  0.1561
19586TIP3   OH280248   5.770   4.404   5.223  0.3234  0.0915  0.3961
19586TIP3    H180249   5.736   4.338   5.284  0.2578  1.0239  1.3952
19586TIP3    H280250   5.692   4.435   5.176  0.3681 -0.5961 -0.1611
19587TIP3   OH280251   3.110   0.509   5.988  0.1806  0.4172  0.1483
19587TIP3    H180252   3.144   0.421   5.971 -0.2661  0.0756  0.9572
19587TIP3    H280253   3.183   0.556   6.026  0.2664  0.2266  0.2221
19588TIP3   OH280254   4.982   5.960   3.888 -0.3009  0.6375 -0.5265
19588TIP3    H180255   4.999   5.954   3.794 -1.2012 -0.0733 -0.6602
19588TIP3    H280256   5.053   5.909   3.928 -2.1204 -2.6428 -1.0979
19589TIP3   OH280257   5.079   2.668  15.147  0.0236  0.2859  0.2264
19589TIP3    H180258   5.063   2.664  15.241  0.3088 -0.9816  0.2390
19589TIP3    H280259   5.039   2.589  15.112  1.3602 -0.1086 -0.4854
19590TIP3   OH280260   4.663   5.160   5.635 -0.4377 -0.0075 -0.4777
19590TIP3    H180261   4.668   5.169   5.730 -0.2173 -0.2949 -0.4611
19590TIP3    H280262   4.749   5.186   5.603 -0.1070 -1.0830 -0.5006
19591TIP3   OH280263   1.472   1.393   3.394  0.1289 -0.0778  0.0669
19591TIP3    H180264   1.476   1.399   3.489 -1.4031 -2.1036  0.3084
19591TIP3    H280265   1.557   1.425   3.364  0.1023  2.0265  1.9931
19592TIP3   OH280266   2.504   4.963   2.429 -0.2998  0.0289 -0.1068
19592TIP3    H180267   2.427   4.906   2.439 -0.2367 -0.0122  0.1485
19592TIP3    H280268   2.578   4.908   2.454 -0.1936  0.0947 -0.2706
19593TIP3   OH280269   1.336   3.412   1.652  0.2826  0.2047  0.4809
19593TIP3    H180270   1.291   3.392   1.570  0.3679  0.2762  0.4168
19593TIP3    H280271   1.268   3.447   1.709  0.2469  0.2602  0.4034
19594TIP3   OH280272   0.669   1.742  17.090 -0.0232 -0.5577 -0.1356
19594TIP3    H180273   0.650   1.809  17.024 -0.2721  0.8635  1.3039
19594TIP3    H280274   0.759   1.715  17.071  1.0839  2.1615  0.8020
19595TIP3   OH280275   0.093   5.594  14.540 -0.1323 -0.0196  0.3421
19595TIP3    H180276   0.040   5.595  14.460  0.8022 -0.9787 -0.3150
19595TIP3    H280277   0.137   5.509  14.538  0.7251  0.3882  1.3402
19596TIP3   OH280278   2.986   0.031  12.239 -0.3373  0.2821  0.1902
19596TIP3    H180279   2.919  -0.029  12.209 -0.3358  0.4241 -0.1000
19596TIP3    H280280   3.047   0.039  12.166 -0.9595  1.5426 -0.2241
19597TIP3   OH280281   3.272   4.603  14.868 -0.1438 -0.3737  0.4588
19597TIP3    H180282   3.314   4.614  14.953 -0.9237 -0.2421  0.8385
19597TIP3    H280283   3.336   4.637  14.805  0.1495  0.2088  1.0567
19598TIP3   OH280284   6.595   3.492  15.853 -0.4107 -0.1615 -0.5083
19598TIP3    H180285   6.636   3.570  15.890 -1.6342  0.8019 -1.0998
19598TIP3    H280286   6.660   3.423  15.864  0.4072  0.7651  0.7236
19599TIP3   OH280287   0.209   5.675  15.216  0.3260  0.5444  0.4337
19599TIP3    H180288   0.228   5.662  15.124  0.6259  0.2788  0.5297
19599TIP3    H280289   0.115   5.691  15.220  0.5620  2.2406 -0.0918
19600TIP3   OH280290   5.641   2.536  13.408  0.0309  0.3966  1.3504
19600TIP3    H180291   5.644   2.460  13.466  0.1529  0.8225  1.9039
19600TIP3    H280292   5.717   2.524  13.350  0.9243  0.8613  2.4021
19601TIP3   OH280293   1.321   5.997   2.247 -0.5184 -0.0284  0.0224
19601TIP3    H180294   1.350   6.074   2.198 -0.0160 -0.7186 -0.8056
19601TIP3    H280295   1.402   5.950   2.268 -0.7514  0.0944  1.2740
19602TIP3   OH280296   0.230   4.919   5.536 -0.2268  0.0349 -0.2761
19602TIP3    H180297   0.250   4.826   5.546  0.4744  0.1322 -0.6549
19602TIP3    H280298   0.251   4.939   5.445  0.6439  0.7871  0.0626
19603TIP3   OH280299   3.976   5.419   2.072  0.5099 -0.2243 -0.4505
19603TIP3    H180300   3.979   5.461   2.158 -0.5958 -0.8385 -0.0944
19603TIP3    H280301   4.017   5.483   2.013 -0.6216  1.1279  0.1611
19604TIP3   OH280302   2.068   5.245   4.311 -0.2008 -0.4061  0.0197
19604TIP3    H180303   2.153   5.283   4.291  0.2758 -1.5007 -0.1177
19604TIP3    H280304   2.011   5.320   4.327  0.9620  0.3249  0.8784
19605TIP3   OH280305   0.914   3.338  13.390  0.4607  0.6068  0.3287
19605TIP3    H180306   0.885   3.265  13.335 -0.0113 -0.3305  1.7568
19605TIP3    H280307   0.971   3.390  13.333  0.9037 -0.9304 -0.6885
19606TIP3   OH280308   2.351   4.974  14.803 -0.1571  0.1468  0.8581
19606TIP3    H180309   2.404   4.906  14.844 -1.0343 -1.4787 -0.5761
19606TIP3    H280310   2.294   5.006  14.874 -2.0227 -2.9645  0.9326
19607TIP3   OH280311   1.036   2.219   3.921  0.1534  0.3949  0.6445
19607TIP3    H180312   0.985   2.138   3.921  0.2846  0.3104  0.8245
19607TIP3    H280313   1.003   2.268   3.996 -1.7356  1.6818 -0.9463
19608TIP3   OH280314   2.165   6.732  12.155  0.6246 -0.4414 -0.6842
19608TIP3    H180315   2.102   6.665  12.180  1.1795 -1.2701 -1.4580
19608TIP3    H280316   2.113   6.811  12.145 -0.1513 -0.9087 -0.4633
19609TIP3   OH280317   0.148   5.043  16.646 -0.2486  0.0296  0.1457
19609TIP3    H180318   0.134   4.957  16.684  1.1645 -1.2807 -2.0225
19609TIP3    H280319   0.108   5.038  16.559  0.7233  1.1975 -0.4098
19610TIP3   OH280320   2.737   4.347  11.973  0.4854  0.8797  0.6876
19610TIP3    H180321   2.807   4.367  12.034  1.4156  0.0838 -0.0808
19610TIP3    H280322   2.775   4.284  11.912 -0.8959  0.4262  0.2390
19611TIP3   OH280323   2.282   3.293   3.895  0.9594 -0.0343  0.1520
19611TIP3    H180324   2.264   3.222   3.957  0.4001  0.4517  0.5558
19611TIP3    H280325   2.256   3.373   3.941  0.3029  0.3162 -0.8009
19612TIP3   OH280326   6.714   2.383  11.343 -0.4084 -0.1917 -0.5542
19612TIP3    H180327   6.733   2.420  11.429 -0.2397 -0.2065 -0.5853
19612TIP3    H280328   6.628   2.341  11.353 -1.0066  0.9368 -0.7398
19613TIP3   OH280329   6.746   4.666   4.156 -0.4880 -0.1598  0.3612
19613TIP3    H180330   6.753   4.581   4.113  0.3360 -1.5856  3.1081
19613TIP3    H280331   6.690   4.650   4.232 -0.0782  1.6828  1.1055
19614TIP3   OH280332   4.359   4.706   1.032  0.4234 -0.6690  0.4040
19614TIP3    H180333   4.420   4.751   1.090  2.0778 -1.4478 -0.6428
19614TIP3    H280334   4.273   4.718   1.073  0.9079  2.3854  0.7821
19615TIP3   OH280335   5.129   1.939  14.136  0.4247 -0.0245 -0.1865
19615TIP3    H180336   5.128   1.865  14.076 -2.5070 -0.3677  0.1350
19615TIP3    H280337   5.191   1.914  14.205  0.5169 -1.5470 -0.8025
19616TIP3   OH280338   2.615   4.877  10.766  0.0767  0.1270  0.0625
19616TIP3    H180339   2.643   4.958  10.723 -2.0358  1.3403  0.8206
19616TIP3    H280340   2.626   4.810  10.699  2.7814  0.7743 -0.3015
19617TIP3   OH280341   0.876   3.091  14.246 -0.0310 -0.5421 -0.3822
19617TIP3    H180342   0.961   3.133  14.234 -0.7754  0.8611 -0.9521
19617TIP3    H280343   0.826   3.153  14.299 -0.5047 -1.6481  0.5076
19618TIP3   OH280344   2.340   5.885  13.673 -0.1938  0.0477 -0.1092
19618TIP3    H180345   2.263   5.912  13.624 -1.1177 -1.3370  0.5022
19618TIP3    H280346   2.403   5.857  13.607  0.3049  2.3291 -0.6841
19619TIP3   OH280347   4.555   4.388   0.425 -0.0248  0.8234 -0.3293
19619TIP3    H180348   4.631   4.383   0.481  0.6187  0.9179 -1.1682
19619TIP3    H280349   4.581   4.449   0.355 -0.1353 -0.6345 -1.7030
19620TIP3   OH280350   6.675   1.003  16.458  0.3037  0.1028 -0.1445
19620TIP3    H180351   6.733   1.079  16.458  1.0731 -0.4716  0.5854
19620TIP3    H280352   6.682   0.968  16.369  1.5040 -0.2677  0.0810
19621TIP3   OH280353   6.702   5.941  12.393  0.3269 -0.2339  0.0856
19621TIP3    H180354   6.627   5.973  12.444 -0.2971  0.0273 -0.9596
19621TIP3    H280355   6.694   5.986  12.309  2.2538  0.5851  0.2993
19622TIP3   OH280356   6.126   5.304  11.272 -0.3826  0.2287  0.5437
19622TIP3    H180357   6.174   5.245  11.214  0.7619  1.0123  0.6657
19622TIP3    H280358   6.075   5.360  11.213  0.5332  0.8176  0.3017
19623TIP3   OH280359   4.446   1.148   5.307 -0.1790 -0.4739 -1.0111
19623TIP3    H180360   4.498   1.197   5.243  0.1795  0.8505  0.2112
19623TIP3    H280361   4.505   1.079   5.338  1.6626  1.9974  1.5663
19624TIP3   OH280362   4.936   4.707   3.394 -0.2336  0.7122  0.1583
19624TIP3    H180363   4.868   4.733   3.331 -1.6079 -1.0902  0.8150
19624TIP3    H280364   4.932   4.611   3.396  0.3873  0.6786  2.3078
19625TIP3   OH280365   2.332   2.898  11.495 -0.5565 -0.1618  0.4415
19625TIP3    H180366   2.356   2.806  11.495  0.1731 -0.0152 -1.7312
19625TIP3    H280367   2.357   2.929  11.582 -0.6849 -1.9477  1.1557
19626TIP3   OH280368   5.704   4.205   3.363  0.0943 -0.3777  0.3984
19626TIP3    H180369   5.640   4.242   3.303  0.7769  0.5983  0.2478
19626TIP3    H280370   5.683   4.243   3.448  1.4394  1.2468  0.0510
19627TIP3   OH280371   5.606   3.503   0.418  0.2701 -1.0548 -0.4612
19627TIP3    H180372   5.646   3.501   0.331  0.0119  1.1989 -0.6966
19627TIP3    H280373   5.659   3.564   0.468  0.2930 -2.1685  0.9409
19628TIP3   OH280374   5.690   0.088   5.007 -0.3850  0.0945  0.7592
19628TIP3    H180375   5.648   0.080   4.922 -0.0245 -1.7503  0.7207
19628TIP3    H280376   5.765   0.147   4.992  0.7691 -1.6570 -0.6641
19629TIP3   OH280377   1.019   5.587  15.089  0.3673 -0.0649  0.4346
19629TIP3    H180378   0.956   5.580  15.017 -1.5311 -1.0829  2.0883
19629TIP3    H280379   0.994   5.668  15.134  2.1122  1.0437 -0.4899
19630TIP3   OH280380   4.881   0.266   0.927  0.1657  0.3127 -0.5541
19630TIP3    H180381   4.861   0.353   0.894  3.9599  1.7810  0.5550
19630TIP3    H280382   4.824   0.256   1.003 -1.3054  1.1776 -1.4888
19631TIP3   OH280383   0.334   2.002  15.109  0.0133  0.1877  0.6081
19631TIP3    H180384   0.412   2.007  15.053  0.3461 -1.8433  0.7909
19631TIP3    H280385   0.368   1.988  15.197 -0.5453 -0.0222  0.7961
19632TIP3   OH280386   3.554   3.664  11.362 -0.5517 -1.0613  0.2840
19632TIP3    H180387   3.488   3.600  11.388 -0.0241 -1.1265  1.5279
19632TIP3    H280388   3.504   3.742  11.338 -1.1664 -1.7365 -0.6788
19633TIP3   OH280389   2.991   2.128   3.538 -0.2298 -0.3429 -0.1986
19633TIP3    H180390   2.967   2.217   3.512  0.9564 -0.3437 -1.3249
19633TIP3    H280391   3.073   2.110   3.493  0.6504 -1.2549  1.6486
19634TIP3   OH280392   3.155   2.024   1.332 -0.3256  0.0058 -0.2139
19634TIP3    H180393   3.214   2.055   1.400 -0.7662 -0.3269  0.3249
19634TIP3    H280394   3.143   2.100   1.274 -1.6980  1.0110  1.2999
19635TIP3   OH280395   4.875   0.814   1.017 -0.6976  0.0793 -0.1095
19635TIP3    H180396   4.827   0.820   1.099 -0.5410 -0.9142  0.0571
19635TIP3    H280397   4.838   0.884   0.963 -0.6462  0.8921  0.8726
19636TIP3   OH280398   1.589   4.435   3.492  0.0361 -0.2978  0.1170
19636TIP3    H180399   1.557   4.515   3.452  1.8292  0.4336  0.0231
19636TIP3    H280400   1.655   4.464   3.555  1.0626 -1.6936 -0.2450
19637TIP3   OH280401   4.449   0.286  16.943 -0.1796 -0.3029  0.2027
19637TIP3    H180402   4.389   0.223  16.982  1.2327 -1.0677  1.2418
19637TIP3    H280403   4.484   0.336  17.017 -0.3744  0.9151 -0.4938
19638TIP3   OH280404   6.663   0.033  13.787 -0.1198 -0.1779 -0.0146
19638TIP3    H180405   6.575   0.004  13.812 -0.0445 -1.7153 -1.3258
19638TIP3    H280406   6.648   0.099  13.719 -0.2509  0.3690  0.5334
19639TIP3   OH280407   2.161   3.483  13.144  0.6809 -0.0172 -0.1851
19639TIP3    H180408   2.225   3.520  13.204  1.2521 -0.2348 -0.6517
19639TIP3    H280409   2.086   3.542  13.150  1.6274  1.3243 -1.0527
19640TIP3   OH280410   0.212   1.318   0.406  0.1104 -0.4851  0.1313
19640TIP3    H180411   0.137   1.376   0.409 -0.3663 -1.0253 -0.8716
19640TIP3    H280412   0.175   1.230   0.401  0.7993 -0.7661 -0.2817
19641TIP3   OH280413   0.442   6.099  11.541 -0.5441 -0.0758  0.2082
19641TIP3    H180414   0.419   6.192  11.544 -1.4165 -0.2914  0.2101
19641TIP3    H280415   0.529   6.098  11.500 -2.3489  0.4394 -4.1526
19642TIP3   OH280416   1.868   0.243  12.525  0.4345  0.3187  0.3985
19642TIP3    H180417   1.789   0.270  12.477  0.1442  0.7856  1.1160
19642TIP3    H280418   1.938   0.296  12.487  0.5699 -0.6666 -0.7890
19643TIP3   OH280419   5.184   1.986   1.504 -0.0148 -0.4043  0.5698
19643TIP3    H180420   5.240   1.983   1.582  0.7906 -0.6130 -0.0042
19643TIP3    H280421   5.235   2.035   1.440 -0.8515  0.1344  0.3025
19644TIP3   OH280422   1.899   1.295   6.189 -0.2009  0.1916  0.2086
19644TIP3    H180423   1.935   1.206   6.189 -0.6622 -0.0266 -1.1559
19644TIP3    H280424   1.903   1.323   6.280  1.9052 -0.4291  0.3647
19645TIP3   OH280425   4.997   6.309  13.135  0.3890  0.2949  0.5486
19645TIP3    H180426   4.990   6.387  13.079  2.2052 -1.2081 -1.9676
19645TIP3    H280427   4.919   6.257  13.114  1.1355 -0.3302 -0.7835
19646TIP3   OH280428   4.662   3.116  15.129 -0.4438  0.1347 -0.0630
19646TIP3    H180429   4.577   3.157  15.143  0.4383  1.0651  3.6786
19646TIP3    H280430   4.663   3.041  15.189  1.0342 -0.4842 -0.7826
19647TIP3   OH280431   2.562   2.367  15.397 -0.3476 -0.5285  0.8348
19647TIP3    H180432   2.475   2.326  15.393 -0.8011 -0.0519  3.5671
19647TIP3    H280433   2.549   2.452  15.357 -0.7613 -1.0066 -0.0829
19648TIP3   OH280434   3.315   6.729   7.003 -0.0046  0.2696 -0.7988
19648TIP3    H180435   3.240   6.684   6.964 -0.9661  1.4413 -0.3552
19648TIP3    H280436   3.374   6.659   7.030 -1.1292 -0.6873 -0.7681
19649TIP3   OH280437   4.487   0.750   1.095 -0.2537 -0.1243  0.1614
19649TIP3    H180438   4.492   0.815   1.025  0.0607  0.4385  0.6964
19649TIP3    H280439   4.577   0.720   1.106 -0.4898 -1.1255 -0.5106
19650TIP3   OH280440   2.966   6.714   3.604 -0.4064  0.5006 -0.1977
19650TIP3    H180441   2.999   6.698   3.693  0.0408  0.4944 -0.3615
19650TIP3    H280442   3.017   6.788   3.572 -0.3493  0.3026 -0.5653
19651TIP3   OH280443   6.143   2.991  12.386 -0.6389  0.4510  0.5384
19651TIP3    H180444   6.223   2.966  12.341  0.0611  0.6817  1.5984
19651TIP3    H280445   6.102   2.909  12.411  0.3333  0.3044  1.7667
19652TIP3   OH280446   2.359   4.863   2.796 -0.2873  0.2592 -0.2900
19652TIP3    H180447   2.289   4.906   2.845 -1.3755 -0.8975 -0.7589
19652TIP3    H280448   2.412   4.819   2.863  0.3585  1.6263  0.1187
19653TIP3   OH280449   6.741   0.549  14.930  0.7769  0.3659  0.2812
19653TIP3    H180450   6.821   0.507  14.899  1.2852  1.5592 -0.0583
19653TIP3    H280451   6.672   0.514  14.872  0.7772 -1.7013  1.4242
19654TIP3   OH280452   3.448   1.477  16.677 -0.0703  0.1131  0.1312
19654TIP3    H180453   3.434   1.413  16.608  0.5616 -0.4848  0.5447
19654TIP3    H280454   3.503   1.545  16.638 -0.6694  0.3629 -0.2827
19655TIP3   OH280455   3.571   2.146   4.192  0.4692  0.3849 -0.3761
19655TIP3    H180456   3.627   2.212   4.234  1.8761 -0.1802 -1.3039
19655TIP3    H280457   3.609   2.134   4.105  0.1792 -1.5681 -0.2728
19656TIP3   OH280458   2.744   6.034   4.976  0.1008 -0.0330 -0.3870
19656TIP3    H180459   2.811   5.998   5.033  0.1386  0.5508 -0.0578
19656TIP3    H280460   2.712   5.959   4.925  0.9354 -0.3254 -0.4861
19657TIP3   OH280461   4.454   6.058  15.538  0.4655  0.0406 -0.1843
19657TIP3    H180462   4.445   6.151  15.517 -1.1093 -0.1269 -0.3525
19657TIP3    H280463   4.435   6.013  15.456 -2.4385 -0.5013  0.6485
19658TIP3   OH280464   3.367   0.568  11.796 -0.2797  0.0828 -0.1666
19658TIP3    H180465   3.349   0.594  11.886  0.4421  2.1218 -0.5541
19658TIP3    H280466   3.402   0.479  11.802  2.3025  1.1226  1.8471
19659TIP3   OH280467   2.525   3.361   3.209 -0.5379 -0.1951 -0.1241
19659TIP3    H180468   2.589   3.291   3.196  1.0357  1.1029  0.4541
19659TIP3    H280469   2.490   3.344   3.297  1.1135  0.6870  0.7531
19660TIP3   OH280470   2.978   3.933   5.375  0.0760 -0.1972  0.1486
19660TIP3    H180471   3.003   3.972   5.291  0.8412 -2.4046 -0.7358
19660TIP3    H280472   2.961   4.008   5.432  2.9561  1.4666 -0.9494
19661TIP3   OH280473   2.951   0.126  17.012 -0.5406  0.1500  0.4991
19661TIP3    H180474   3.041   0.129  16.978 -0.7596  0.2368 -0.0967
19661TIP3    H280475   2.955   0.065  17.085 -0.2131 -0.7160 -0.2128
19662TIP3   OH280476   0.574   0.496   4.463 -0.1575 -0.3818  0.4042
19662TIP3    H180477   0.608   0.560   4.400  0.3107 -1.1685 -0.1562
19662TIP3    H280478   0.617   0.518   4.546 -1.1582  0.9812  0.5954
19663TIP3   OH280479   5.524   2.358   6.681 -0.4749  0.6840  0.2042
19663TIP3    H180480   5.591   2.329   6.619  1.1997  0.3036  2.0655
19663TIP3    H280481   5.525   2.453   6.674 -0.3896  0.6374 -0.4413
19664TIP3   OH280482   5.794   2.971  16.243  0.3944  0.2371  0.1034
19664TIP3    H180483   5.720   2.998  16.298 -0.9816 -4.7339  1.1880
19664TIP3    H280484   5.856   2.932  16.304  1.8967  0.3278 -1.2955
19665TIP3   OH280485   0.702   3.372  16.963  0.2992 -0.2749 -0.2205
19665TIP3    H180486   0.681   3.279  16.967 -1.8635  0.0833 -1.4839
19665TIP3    H280487   0.738   3.386  16.876  0.3878  0.1070 -0.1279
19666TIP3   OH280488   0.711   0.797  17.198 -0.1382  0.2597  0.3335
19666TIP3    H180489   0.789   0.754  17.235  0.8970  1.5579 -0.2519
19666TIP3    H280490   0.642   0.780  17.262  0.0446 -2.7022 -0.1035
19667TIP3   OH280491   2.492   4.097   2.615  0.5520  0.2261 -0.4885
19667TIP3    H180492   2.562   4.062   2.670 -0.5746 -0.5703  0.4798
19667TIP3    H280493   2.427   4.131   2.677 -0.4182 -0.0385 -1.3293
19668TIP3   OH280494   5.538   2.711   3.752  0.9349 -0.0388 -0.0192
19668TIP3    H180495   5.627   2.740   3.772  0.3149  0.9741  1.4798
19668TIP3    H280496   5.530   2.724   3.658  2.3047  0.0301 -0.1566
19669TIP3   OH280497   5.635   4.904   1.820 -0.0812 -0.9188 -0.1336
19669TIP3    H180498   5.569   4.843   1.852 -1.2180 -0.6432 -1.8034
19669TIP3    H280499   5.652   4.875   1.730  1.8027 -0.7390  0.1271
19670TIP3   OH280500   1.910   6.535   0.428 -0.3172 -0.1744  0.4958
19670TIP3    H180501   1.878   6.603   0.368 -1.7894 -0.6066  0.7558
19670TIP3    H280502   1.877   6.562   0.514  0.1586 -0.5548  0.7998
19671TIP3   OH280503   0.064   4.556   0.559 -0.1398 -0.0586  0.2448
19671TIP3    H180504   0.151   4.591   0.543 -0.5860  1.0607  0.1640
19671TIP3    H280505   0.045   4.579   0.650 -0.8940  0.9866 -0.1468
19672TIP3   OH280506   3.745   1.548   0.336  0.4168 -0.1742  0.7365
19672TIP3    H180507   3.779   1.638   0.333  2.8522 -1.0375 -0.6387
19672TIP3    H280508   3.796   1.505   0.405  1.1313 -1.1183 -0.3435
19673TIP3   OH280509   2.391   3.101  11.304 -0.0112 -0.1958  0.0825
19673TIP3    H180510   2.471   3.135  11.263  0.7407 -0.9706  0.8591
19673TIP3    H280511   2.415   3.013  11.333 -0.0125  0.7397  3.3743
19674TIP3   OH280512   4.654   5.518   3.484  0.5231 -0.0388  0.3833
19674TIP3    H180513   4.678   5.510   3.392 -0.0834 -0.1533  0.2316
19674TIP3    H280514   4.687   5.604   3.510  0.1641  0.2516 -0.1040
19675TIP3   OH280515   2.278   1.165  13.612  0.0675  0.4618  0.0272
19675TIP3    H180516   2.294   1.091  13.671  0.5213 -1.1143 -1.9272
19675TIP3    H280517   2.366   1.195  13.588 -0.0946  0.7978 -0.1432
19676TIP3   OH280518   3.294   3.893   5.904 -0.5076  0.4281  0.2823
19676TIP3    H180519   3.201   3.880   5.888 -0.0041 -1.3476 -1.6700
19676TIP3    H280520   3.325   3.807   5.935  0.4956  0.9840  0.8780
19677TIP3   OH280521   3.419   1.325   4.859  0.4575 -0.1330 -0.0157
19677TIP3    H180522   3.376   1.276   4.789  0.4757 -2.7384  1.6632
19677TIP3    H280523   3.510   1.295   4.856  1.0022  1.4192 -0.2248
19678TIP3   OH280524   6.297   0.810  17.217  0.4202  0.3089  0.2457
19678TIP3    H180525   6.332   0.731  17.175 -0.6811  0.7656 -1.6631
19678TIP3    H280526   6.358   0.879  17.192  0.4493  0.3668  0.4742
19679TIP3   OH280527   5.583   1.048   2.759 -0.0386 -0.4366  0.0421
19679TIP3    H180528   5.512   1.069   2.699  0.7655  0.3211 -0.6779
19679TIP3    H280529   5.605   1.131   2.801  2.2823  0.0460 -1.8537
19680TIP3   OH280530   1.389   0.336   0.982  0.3220  0.1623  0.8906
19680TIP3    H180531   1.322   0.398   1.010 -0.4586 -1.0856  1.9257
19680TIP3    H280532   1.450   0.332   1.056 -0.3591 -1.2582  1.4101
19681TIP3   OH280533   2.962   5.556  10.849 -0.1101  0.1913 -0.0827
19681TIP3    H180534   2.910   5.477  10.836  0.1428 -0.1159  0.7352
19681TIP3    H280535   3.043   5.539  10.800  1.2192 -1.3418  2.4300
19682TIP3   OH280536   2.149   1.360   1.124 -0.1359  0.2536 -0.0914
19682TIP3    H180537   2.159   1.272   1.159  0.3681  0.2659 -0.2009
19682TIP3    H280538   2.070   1.355   1.070  0.1921 -0.2702 -0.5282
19683TIP3   OH280539   3.498   1.275  12.954  0.1236 -0.1971  0.7309
19683TIP3    H180540   3.528   1.332  12.883  1.5040 -0.7583  0.8213
19683TIP3    H280541   3.427   1.224  12.916 -0.3895  0.8010  0.3192
19684TIP3   OH280542   3.548   6.222  12.990 -0.5495 -0.1589  0.5034
19684TIP3    H180543   3.629   6.183  12.955 -0.3472 -1.0059  1.8360
19684TIP3    H280544   3.478   6.182  12.937 -0.0925  1.2449 -1.2529
19685TIP3   OH280545   2.916   3.929  15.076  0.1221 -0.3969 -0.4779
19685TIP3    H180546   2.927   3.834  15.086  0.2208 -0.7983 -3.5133
19685TIP3    H280547   2.901   3.942  14.983 -0.5386  2.5573 -0.0680
19686TIP3   OH280548   5.105   6.298   1.580 -0.4118 -0.2671  0.0675
19686TIP3    H180549   5.060   6.317   1.662 -0.5092 -0.2651  0.0153
19686TIP3    H280550   5.163   6.372   1.566 -1.1181  0.2238 -0.3593
19687TIP3   OH280551   2.257   1.283   4.059 -0.3399  0.2312  0.3949
19687TIP3    H180552   2.333   1.341   4.062 -0.3055  0.1817  0.4666
19687TIP3    H280553   2.192   1.327   4.114  0.3026 -0.6973  1.9321
19688TIP3   OH280554   0.768   2.887  16.343 -0.7704  0.4446  0.2222
19688TIP3    H180555   0.775   2.791  16.340 -0.5481  0.4756 -0.5553
19688TIP3    H280556   0.758   2.913  16.251  2.0276  1.3574  0.0870
19689TIP3   OH280557   3.075   4.809  16.402 -0.8788  0.3758 -0.1557
19689TIP3    H180558   3.021   4.813  16.481  1.1977  0.2391  1.3661
19689TIP3    H280559   3.128   4.889  16.406  0.8032 -0.6850 -0.1870
19690TIP3   OH280560   5.586   6.376  14.701  0.3428 -0.6057  0.4631
19690TIP3    H180561   5.523   6.378  14.629  0.6063 -0.2786  0.2377
19690TIP3    H280562   5.534   6.358  14.779  0.3723 -3.7243 -0.1353
19691TIP3   OH280563   0.867   3.729   2.519  0.1585 -0.6125 -0.5379
19691TIP3    H180564   0.829   3.817   2.515  0.2905 -0.3916  1.6741
19691TIP3    H280565   0.957   3.743   2.549  0.7924 -1.4079 -1.9492
19692TIP3   OH280566   1.744   4.434  11.731 -0.8903  0.2162  0.6118
19692TIP3    H180567   1.797   4.451  11.653 -1.5083  1.6980  0.4866
19692TIP3    H280568   1.735   4.339  11.733  0.0620  0.0730 -0.4950
19693TIP3   OH280569   3.795   5.709  12.021  0.0871 -0.1703 -0.0452
19693TIP3    H180570   3.865   5.770  12.044  0.4165  0.1644 -1.7983
19693TIP3    H280571   3.841   5.631  11.990 -0.3197 -0.1998 -0.5823
19694TIP3   OH280572   3.413   2.946   0.076  0.2190  0.0422 -0.1966
19694TIP3    H180573   3.435   3.033   0.110 -0.2386 -0.1693  0.6759
19694TIP3    H280574   3.371   2.901   0.150 -2.6296  0.2215 -1.5724
19695TIP3   OH280575   5.247   4.039   3.859  0.2521 -0.1918 -0.1882
19695TIP3    H180576   5.297   4.064   3.781  0.4290 -1.2802 -0.4469
19695TIP3    H280577   5.303   3.974   3.903 -0.7055 -1.0680 -0.2257
19696TIP3   OH280578   3.634   0.633  14.351 -0.2203  0.3657 -0.5060
19696TIP3    H180579   3.671   0.646  14.264 -0.9036 -1.3719 -1.0895
19696TIP3    H280580   3.615   0.539  14.356 -1.2448  0.6119  1.0896
19697TIP3   OH280581   5.196   1.278  15.245 -0.1675 -0.2276 -0.2029
19697TIP3    H180582   5.151   1.276  15.160 -0.3045 -1.8013 -0.1287
19697TIP3    H280583   5.153   1.349  15.293  2.4797  3.4385 -2.7441
19698TIP3   OH280584   6.236   6.139  11.567  0.3182 -0.0873 -0.1844
19698TIP3    H180585   6.148   6.125  11.603  0.7291 -3.0937 -0.0985
19698TIP3    H280586   6.222   6.177  11.481 -1.0397  0.0899  0.0988
19699TIP3   OH280587   4.823   6.359   2.254  0.0771  0.2123 -0.2807
19699TIP3    H180588   4.797   6.269   2.271  1.7271 -0.4685 -1.2411
19699TIP3    H280589   4.850   6.360   2.162  1.7135  1.2664  0.1716
19700TIP3   OH280590   3.141   5.780   4.359 -0.0883  0.0241  0.7672
19700TIP3    H180591   3.049   5.806   4.357 -0.6732 -1.8690  1.3212
19700TIP3    H280592   3.172   5.794   4.269 -0.7869  1.0661  0.6774
19701TIP3   OH280593   3.592   6.066  15.517 -0.3403  0.3198  0.5695
19701TIP3    H180594   3.667   6.124  15.519  0.9384 -1.0991 -1.5269
19701TIP3    H280595   3.523   6.116  15.473 -0.3166  1.2937  1.6264
19702TIP3   OH280596   4.446   5.901   3.613  0.2018 -0.5458  0.0254
19702TIP3    H180597   4.403   5.848   3.681 -0.5987 -0.0730 -0.1064
19702TIP3    H280598   4.519   5.846   3.583  1.6493 -0.1121  2.4496
19703TIP3   OH280599   4.784   5.904   2.214 -0.2573  0.1436 -0.1933
19703TIP3    H180600   4.865   5.929   2.169  1.0256 -0.6429  1.5363
19703TIP3    H280601   4.813   5.882   2.303 -2.7185  2.1453  1.2279
19704TIP3   OH280602   3.497   6.047   3.502 -0.1939 -0.4237 -0.0280
19704TIP3    H180603   3.494   5.986   3.576  2.3478 -0.7005 -0.0619
19704TIP3    H280604   3.587   6.081   3.504 -1.3186  2.8564 -0.4152
19705TIP3   OH280605   5.306   5.496   1.461  0.5375 -0.0388 -0.0386
19705TIP3    H180606   5.380   5.435   1.464  0.3938 -0.2273 -0.2784
19705TIP3    H280607   5.304   5.526   1.370  0.2477 -0.1219 -0.0588
19706TIP3   OH280608   2.703   4.203   1.466 -0.0611  0.0181  0.4165
19706TIP3    H180609   2.630   4.184   1.408  1.5363 -0.5041 -1.5417
19706TIP3    H280610   2.701   4.133   1.532 -1.9698  0.6811  1.1175
19707TIP3   OH280611   3.042   0.757   1.877 -0.6044  0.3542 -0.0390
19707TIP3    H180612   2.951   0.783   1.858 -1.2124 -0.4981  1.5883
19707TIP3    H280613   3.095   0.820   1.828 -2.0647  2.0431  0.4446
19708TIP3   OH280614   2.909   2.600  12.796 -0.0625  0.0035  0.4312
19708TIP3    H180615   2.882   2.690  12.777  0.3606  0.3945  1.6031
19708TIP3    H280616   2.921   2.598  12.891 -0.1356 -1.3164  0.4298
19709TIP3   OH280617   2.913   3.830  14.210  0.0618  0.3236 -0.1028
19709TIP3    H180618   2.849   3.799  14.146  2.3664 -3.1317 -1.0107
19709TIP3    H280619   2.997   3.826  14.164  1.5338 -0.0692  2.4228
19710TIP3   OH280620   5.124   3.229   3.939  0.2799  0.3727 -0.1662
19710TIP3    H180621   5.073   3.149   3.930 -0.1287  0.5267  0.7510
19710TIP3    H280622   5.214   3.202   3.919  0.2435 -0.4501  0.7265
19711TIP3   OH280623   5.282   2.825   5.941 -0.5657 -0.3961  0.1868
19711TIP3    H180624   5.214   2.813   6.008 -1.3079  0.7096 -0.3375
19711TIP3    H280625   5.338   2.894   5.977  1.9242 -3.0455  1.8346
19712TIP3   OH280626   4.254   1.814   6.323  0.1789  0.4811  0.1602
19712TIP3    H180627   4.180   1.875   6.319  0.6507  1.0576 -0.0611
19712TIP3    H280628   4.281   1.814   6.415 -1.4098 -1.3726  0.6844
19713TIP3   OH280629   6.756   1.122   3.712 -0.3163 -0.3085 -0.1620
19713TIP3    H180630   6.670   1.093   3.679 -0.2116 -2.2056  1.0907
19713TIP3    H280631   6.776   1.062   3.783  0.9013  1.7132  1.3122
19714TIP3   OH280632   5.860   0.899   4.758  0.3271  0.2750  0.0320
19714TIP3    H180633   5.920   0.903   4.832  0.4725 -0.2992 -0.0470
19714TIP3    H280634   5.908   0.849   4.691 -0.5695 -0.9706  0.2879
19715TIP3   OH280635   1.192   1.066  14.317  0.2351 -0.3102  0.3166
19715TIP3    H180636   1.245   1.146  14.322  0.4520 -0.4395  0.1097
19715TIP3    H280637   1.123   1.087  14.255  0.7831 -0.5611 -0.3912
19716TIP3   OH280638   1.684   0.908   2.405 -1.0829 -0.4383 -0.3026
19716TIP3    H180639   1.638   0.881   2.485  1.9288  0.6693  1.9928
19716TIP3    H280640   1.683   1.004   2.407  0.3836 -0.3899 -0.7280
19717TIP3   OH280641   4.415   2.094   2.085  1.0727  0.1097  0.0109
19717TIP3    H180642   4.353   2.021   2.093  1.9791 -0.9619 -1.8842
19717TIP3    H280643   4.497   2.052   2.057  1.7814  1.7883 -0.5509
19718TIP3   OH280644   1.507   1.594  12.281  0.4498  0.0591 -0.1661
19718TIP3    H180645   1.449   1.545  12.223  1.5671  0.0166 -1.3116
19718TIP3    H280646   1.594   1.557  12.264  0.7464 -0.4098  2.0487
19719TIP3   OH280647   6.301   0.310   0.900  0.4641  0.0909 -0.6219
19719TIP3    H180648   6.287   0.402   0.923  0.7708  0.3376 -1.4153
19719TIP3    H280649   6.372   0.311   0.837  1.4713 -0.8254  0.4560
19720TIP3   OH280650   1.440   4.415  13.554 -0.4509  0.4490 -0.0028
19720TIP3    H180651   1.383   4.447  13.484  1.7610  2.7776 -0.9170
19720TIP3    H280652   1.529   4.425  13.519  0.6447 -1.1114  2.0846
19721TIP3   OH280653   2.189   3.669   2.644 -0.2334  0.2783 -0.7351
19721TIP3    H180654   2.173   3.600   2.579  3.1061 -0.1100 -1.3196
19721TIP3    H280655   2.220   3.744   2.592  0.9812  0.4792  0.2300
19722TIP3   OH280656   4.937   0.060  15.801 -0.5368 -0.0981  0.0352
19722TIP3    H180657   5.023   0.067  15.760 -0.6902  1.9106 -0.0427
19722TIP3    H280658   4.907   0.151  15.810 -2.2914 -0.7081  0.8202
19723TIP3   OH280659   5.635   6.139  17.099  0.1038  0.0054  0.1923
19723TIP3    H180660   5.552   6.152  17.145  0.2116  0.5778  0.2357
19723TIP3    H280661   5.671   6.059  17.137 -0.4315 -0.2487  0.1694
19724TIP3   OH280662   4.823   3.227   5.307  0.4225  0.6751 -0.3355
19724TIP3    H180663   4.828   3.181   5.391  0.0659 -0.8371 -1.1092
19724TIP3    H280664   4.732   3.257   5.301  0.6247  1.4093  0.1141
19725TIP3   OH280665   3.544   1.416   0.829  0.1606  0.2149  0.1344
19725TIP3    H180666   3.472   1.390   0.771 -0.1716 -0.8557  0.9829
19725TIP3    H280667   3.523   1.376   0.913  0.6587  1.6926  1.0048
19726TIP3   OH280668   2.971   3.659   1.086  0.1113 -0.5629  0.3659
19726TIP3    H180669   2.944   3.617   1.004  1.2565 -0.1655 -0.2483
19726TIP3    H280670   3.065   3.674   1.074 -0.1509  1.7240  0.7542
19727TIP3   OH280671   1.005   3.271  16.155 -0.1492 -0.1444  0.0452
19727TIP3    H180672   1.040   3.345  16.104  1.6064 -0.6615  0.4281
19727TIP3    H280673   1.082   3.217  16.174 -1.0052 -0.7894  1.8823
19728TIP3   OH280674   1.908   2.788  14.415  0.1970 -0.0497  0.3576
19728TIP3    H180675   1.952   2.777  14.499 -1.1393 -1.0380  0.9642
19728TIP3    H280676   1.899   2.699  14.380  0.5620  0.3274 -0.7481
19729TIP3   OH280677   4.752   3.632  15.522  0.0196  0.5302 -0.1464
19729TIP3    H180678   4.683   3.692  15.548  1.2802  1.6112  0.8638
19729TIP3    H280679   4.787   3.598  15.605  1.1830  0.5882 -0.5860
19730TIP3   OH280680   3.058   3.845  16.763  0.1041 -0.0251 -0.2698
19730TIP3    H180681   3.117   3.771  16.775 -0.5636 -0.6317 -0.6745
19730TIP3    H280682   3.077   3.902  16.837  2.1519  0.4670 -1.1148
19731TIP3   OH280683   4.438   0.826  14.531 -0.7364 -0.9204 -0.6564
19731TIP3    H180684   4.372   0.844  14.463 -1.3580 -4.9248 -1.3637
19731TIP3    H280685   4.386   0.796  14.606  0.1112  0.5363  0.5406
19732TIP3   OH280686   1.390   0.282   3.331 -0.0257  0.0682  0.3397
19732TIP3    H180687   1.383   0.202   3.383 -0.5522 -0.6847 -0.8288
19732TIP3    H280688   1.340   0.347   3.379 -1.5261 -0.9343  0.1966
19733TIP3   OH280689   5.886   6.227   3.046 -0.4875 -0.2833  0.4929
19733TIP3    H180690   5.942   6.287   2.996 -1.3647  0.5779  0.5037
19733TIP3    H280691   5.853   6.165   2.981  1.7897 -1.8876  0.7606
19734TIP3   OH280692   0.099   1.983   1.499  0.0538  0.1747  0.2471
19734TIP3    H180693   0.140   1.908   1.456 -0.7341 -0.7600  1.1084
19734TIP3    H280694   0.039   1.946   1.563  1.2203  1.5178  2.2463
19735TIP3   OH280695   2.197   4.998  15.036  0.0074 -0.0709  0.6101
19735TIP3    H180696   2.250   4.967  15.109  0.5923 -1.8806 -0.5067
19735TIP3    H280697   2.108   5.006  15.072  0.4320 -0.1714  1.7027
19736TIP3   OH280698   6.098   6.616  15.639 -0.4033 -0.0922  0.0198
19736TIP3    H180699   6.101   6.578  15.727  1.6202  2.2225  1.0672
19736TIP3    H280700   6.029   6.683  15.645  1.4561  1.8633  0.7470
19737TIP3   OH280701   0.384   2.719   4.124 -0.0008 -0.0808 -0.4568
19737TIP3    H180702   0.450   2.781   4.154  1.1874 -1.4132 -0.2010
19737TIP3    H280703   0.339   2.691   4.204 -1.6242  1.5759 -0.7287
19738TIP3   OH280704   2.487   3.620  16.082  0.0322  0.1513  0.5950
19738TIP3    H180705   2.434   3.684  16.130 -1.0100  0.6085 -1.0776
19738TIP3    H280706   2.533   3.673  16.016 -0.5898 -0.7581 -0.5985
19739TIP3   OH280707   2.129   4.442  16.815  0.2078  0.3666  0.0075
19739TIP3    H180708   2.127   4.538  16.815  0.8787  0.4007 -1.1944
19739TIP3    H280709   2.222   4.420  16.825 -0.0237 -0.1806  1.0472
19740TIP3   OH280710   3.780   0.268   3.272  0.0035 -0.4607 -0.4538
19740TIP3    H180711   3.802   0.234   3.359  2.2775  1.5180 -0.1621
19740TIP3    H280712   3.781   0.363   3.282  3.2044 -0.0516 -3.1736
19741TIP3   OH280713   3.396   1.653  15.329 -0.3354 -0.4790  0.1367
19741TIP3    H180714   3.457   1.602  15.276  0.2055  0.6807 -0.3938
19741TIP3    H280715   3.414   1.628  15.419 -0.7793 -1.9585 -0.1597
19742TIP3   OH280716   0.529   4.180  14.142  0.3840 -0.2551 -0.3808
19742TIP3    H180717   0.574   4.149  14.063  0.0597  0.3819 -0.8199
19742TIP3    H280718   0.506   4.100  14.189  0.9481 -0.6284 -0.7233
19743TIP3   OH280719   2.218   3.819  17.082  0.3896 -0.1812 -0.4653
19743TIP3    H180720   2.164   3.776  17.148  1.0304 -0.4889 -0.1309
19743TIP3    H280721   2.186   3.787  16.998 -1.9112  1.8516 -0.4815
19744TIP3   OH280722   5.652   6.329  12.551 -0.2787 -0.0809  0.0470
19744TIP3    H180723   5.721   6.338  12.617 -0.7618 -0.1349  0.5707
19744TIP3    H280724   5.680   6.385  12.479  0.2224  0.0401  0.3296
19745TIP3   OH280725   2.403   4.534   2.789  0.2650  0.0807  0.1031
19745TIP3    H180726   2.460   4.597   2.832  0.5045 -0.0948  0.0449
19745TIP3    H280727   2.441   4.448   2.810  0.0341 -0.0371  0.0494
19746TIP3   OH280728   5.256   1.750  16.089  0.0116  0.0276  0.3418
19746TIP3    H180729   5.203   1.795  16.023  0.4298  1.1986  0.7625
19746TIP3    H280730   5.269   1.662  16.055 -1.4287  0.0013 -0.1961
19747TIP3   OH280731   5.929   5.300   5.844  0.7317  0.0414 -0.6662
19747TIP3    H180732   5.988   5.375   5.844 -0.1395  0.8041 -2.7249
19747TIP3    H280733   5.891   5.300   5.932  0.7272  2.0439 -0.6151
19748TIP3   OH280734   1.898   1.768  15.953  0.0457  0.2201 -0.4898
19748TIP3    H180735   1.834   1.825  15.910 -0.0408  0.7663  0.3370
19748TIP3    H280736   1.920   1.814  16.034  0.6673 -0.4922 -0.2443
19749TIP3   OH280737   3.374   3.601  15.515 -0.4996  0.0359 -0.5903
19749TIP3    H180738   3.397   3.674  15.572 -0.2897  0.1645 -0.8417
19749TIP3    H280739   3.279   3.605  15.507 -0.3363  1.4862 -2.2265
19750TIP3   OH280740   4.268   4.942   5.584 -0.1126  0.1778  0.1466
19750TIP3    H180741   4.294   5.021   5.536 -2.0457  1.1367  0.5542
19750TIP3    H280742   4.317   4.946   5.665  1.9603 -0.5960 -1.0000
19751TIP3   OH280743   5.440   5.672   3.615 -0.2144 -0.2627 -0.4361
19751TIP3    H180744   5.399   5.626   3.542  0.6155  1.0711 -1.7964
19751TIP3    H280745   5.381   5.746   3.633  0.6417  0.6527 -1.2394
19752TIP3   OH280746   5.733   1.495   4.325  0.0621 -0.6725 -0.3918
19752TIP3    H180747   5.761   1.488   4.416  0.2821 -1.5299 -0.5182
19752TIP3    H280748   5.695   1.410   4.304  1.5501 -1.0782 -1.6034
19753TIP3   OH280749   4.286   5.575   4.137 -0.2117 -0.1336  0.3779
19753TIP3    H180750   4.191   5.586   4.132 -0.2137 -0.6752 -1.7302
19753TIP3    H280751   4.301   5.526   4.218 -1.7129 -0.1071  0.6953
19754TIP3   OH280752   3.094   3.858  14.777  0.0626  0.1104 -0.3709
19754TIP3    H180753   3.115   3.951  14.785  1.0625 -0.1245 -0.1897
19754TIP3    H280754   3.114   3.837  14.686  1.5036 -0.3186  0.0261
19755TIP3   OH280755   3.877   2.126  12.297  0.2989 -0.3050  0.5029
19755TIP3    H180756   3.900   2.174  12.218  0.6175 -1.3422 -0.0473
19755TIP3    H280757   3.928   2.168  12.366 -0.2850  0.8636  0.2462
19756TIP3   OH280758   4.694   6.165   2.584 -0.6827 -0.0030  0.0730
19756TIP3    H180759   4.749   6.241   2.602  1.0022 -1.4209  1.3077
19756TIP3    H280760   4.606   6.192   2.610 -0.1173  1.4823  0.5661
19757TIP3   OH280761   1.514   4.610   4.448  0.5538 -0.2673  0.0741
19757TIP3    H180762   1.595   4.660   4.460  0.6582 -0.4715  0.2123
19757TIP3    H280763   1.533   4.550   4.376  0.6412 -0.5571  0.3361
19758TIP3   OH280764   4.588   2.627  11.901 -0.5226 -0.1692 -0.3114
19758TIP3    H180765   4.596   2.535  11.877  0.5278 -0.4752  1.0869
19758TIP3    H280766   4.597   2.675  11.818 -1.2068 -1.3055 -1.0668
19759TIP3   OH280767   3.366   3.630  13.950  1.1276  0.6024 -0.4433
19759TIP3    H180768   3.393   3.594  14.035  0.7005  1.1372 -0.0741
19759TIP3    H280769   3.432   3.597  13.888  2.0015  0.9875  0.2576
19760TIP3   OH280770   4.050   0.440   2.143  0.1119  0.0734 -0.7704
19760TIP3    H180771   3.968   0.478   2.111 -0.0178  0.6029  0.1611
19760TIP3    H280772   4.059   0.472   2.233 -0.6651 -3.1292  0.5783
19761TIP3   OH280773   0.140   5.460  15.417  0.4584 -0.1105  0.4870
19761TIP3    H180774   0.170   5.551  15.418  0.0517  0.0438 -0.6107
19761TIP3    H280775   0.186   5.420  15.343 -1.9550  0.1212 -1.2361
19762TIP3   OH280776   4.810   1.809  11.889  0.0807 -0.5947 -0.1563
19762TIP3    H180777   4.732   1.857  11.862 -0.2876 -0.8269  0.4669
19762TIP3    H280778   4.779   1.750  11.959  1.1717  0.6883  1.4896
19763TIP3   OH280779   0.798   2.623  16.335  0.4156  0.4888  0.2415
19763TIP3    H180780   0.863   2.578  16.281 -0.1621 -0.4447  0.2929
19763TIP3    H280781   0.725   2.561  16.340 -0.2628  1.3013  0.6140
19764TIP3   OH280782   0.627   0.250   1.307  0.2233  0.5161 -0.1642
19764TIP3    H180783   0.625   0.223   1.398 -0.3911  1.6214  0.1607
19764TIP3    H280784   0.629   0.346   1.310  0.2288  0.5682 -1.3075
19765TIP3   OH280785   5.289   1.015   2.506  0.1458  1.0387 -0.4452
19765TIP3    H180786   5.329   1.102   2.505  1.0667  0.6299 -0.6872
19765TIP3    H280787   5.273   0.996   2.413  0.3733  0.7614 -0.4273
19766TIP3   OH280788   2.544   2.722  15.915 -0.0672 -0.3059  0.1256
19766TIP3    H180789   2.609   2.792  15.916  0.4738 -0.7975  0.3868
19766TIP3    H280790   2.460   2.767  15.911  0.2188  0.3952  1.4468
19767TIP3   OH280791   5.909   6.725   0.178 -0.3645 -0.0773  0.2743
19767TIP3    H180792   5.864   6.799   0.137 -0.1698 -0.6826 -1.0945
19767TIP3    H280793   5.839   6.665   0.204 -0.4395 -0.1997 -0.2047
19768TIP3   OH280794   2.921   6.381   3.639  0.2267 -0.4046  0.0840
19768TIP3    H180795   2.867   6.451   3.603 -0.7909 -0.0741  2.0667
19768TIP3    H280796   2.858   6.315   3.669  1.1054 -1.5178 -0.4579
19769TIP3   OH280797   1.243   6.347  12.068  1.0760 -0.3358 -0.0572
19769TIP3    H180798   1.223   6.256  12.090  1.9610 -0.2039  1.4594
19769TIP3    H280799   1.181   6.369  11.999  1.8479 -2.5517 -1.5657
19770TIP3   OH280800   5.242   0.830   5.022  0.2070 -0.2820  0.2886
19770TIP3    H180801   5.158   0.784   5.020  0.9950 -1.8235  0.9137
19770TIP3    H280802   5.235   0.895   4.952 -1.1350 -1.0394 -0.3312
19771TIP3   OH280803   2.904   1.010   2.384  0.2521 -0.3897  0.2639
19771TIP3    H180804   2.984   1.000   2.332 -1.8400  1.1327 -3.6140
19771TIP3    H280805   2.874   0.921   2.400  1.4878 -0.9156 -0.2297
19772TIP3   OH280806   1.430   2.512  11.241  0.2946 -0.5479 -0.2704
19772TIP3    H180807   1.372   2.466  11.301  0.8266 -0.9892 -0.0773
19772TIP3    H280808   1.414   2.470  11.156 -0.3486 -0.0256 -0.4081
19773TIP3   OH280809   4.525   4.318  12.284  0.2997  0.1045 -0.1787
19773TIP3    H180810   4.607   4.289  12.245  0.5071  0.9845 -0.4169
19773TIP3    H280811   4.482   4.237  12.311  1.3798 -0.3581  0.2270
19774TIP3   OH280812   6.544   3.321  13.223 -0.0729  0.1511 -0.4480
19774TIP3    H180813   6.572   3.406  13.188 -2.9101  0.0248 -3.5155
19774TIP3    H280814   6.450   3.331  13.238 -0.6859 -2.6421 -1.7897
19775TIP3   OH280815   3.843   1.382   3.328  0.1474 -0.3374  0.6444
19775TIP3    H180816   3.766   1.334   3.297  0.1217 -0.7762  1.3654
19775TIP3    H280817   3.916   1.342   3.282  0.0720 -0.7424  0.8702
19776TIP3   OH280818   6.513   1.075  15.769  0.3340  0.4115  0.1458
19776TIP3    H180819   6.457   1.137  15.815 -0.1243 -0.2955  0.5671
19776TIP3    H280820   6.464   1.052  15.690  0.2549  0.1798  0.2606
19777TIP3   OH280821   5.506   5.062  16.465 -0.2513  0.6239 -0.0903
19777TIP3    H180822   5.411   5.055  16.451 -0.2112 -0.0863 -0.0645
19777TIP3    H280823   5.530   5.146  16.428  0.0055 -1.3654 -5.2790
19778TIP3   OH280824   3.258   3.459  16.589 -0.2683 -0.5988  0.3863
19778TIP3    H180825   3.192   3.389  16.590 -0.4552 -0.4724 -1.2148
19778TIP3    H280826   3.236   3.513  16.665 -1.5030 -1.0296  0.3543
19779TIP3   OH280827   3.031   6.352  14.450  0.8949  0.0665  0.1145
19779TIP3    H180828   3.016   6.268  14.407  0.8904 -0.1734  0.5752
19779TIP3    H280829   3.074   6.330  14.533 -0.9531  0.3259  1.2002
19780TIP3   OH280830   5.818   6.007  13.758 -0.0168 -0.5108 -0.4904
19780TIP3    H180831   5.830   5.916  13.785  3.2437 -1.2161 -3.5209
19780TIP3    H280832   5.882   6.056  13.810 -1.2811  0.0478  0.6244
19781TIP3   OH280833   5.050   1.993  17.254 -0.0016  0.0757 -0.4602
19781TIP3    H180834   4.984   1.924  17.254  0.3213 -0.2757 -2.3519
19781TIP3    H280835   5.118   1.961  17.194  0.1986  1.9701 -1.3046
19782TIP3   OH280836   4.859   0.199   5.059 -0.4023 -0.0877 -0.4162
19782TIP3    H180837   4.839   0.134   4.992 -0.1329 -3.1689  2.2814
19782TIP3    H280838   4.774   0.231   5.088 -0.5492  0.4556 -1.3793
19783TIP3   OH280839   1.390   2.009  15.881 -0.1296  0.1490 -0.3479
19783TIP3    H180840   1.401   1.944  15.812  0.5301  0.5841 -0.6562
19783TIP3    H280841   1.391   1.958  15.962  1.5711 -0.1250 -0.5020
19784TIP3   OH280842   6.058   0.494  12.298  0.0676 -0.3411 -0.6342
19784TIP3    H180843   6.145   0.516  12.264 -0.0531 -0.5884 -1.1224
19784TIP3    H280844   6.008   0.575  12.288  0.7443  0.3769  1.4037
19785TIP3   OH280845   3.698   1.785   3.308  0.0175 -0.4638  0.1463
19785TIP3    H180846   3.711   1.777   3.214  1.1765  0.9808  0.1626
19785TIP3    H280847   3.783   1.764   3.347 -0.5221 -1.3407  0.9154
19786TIP3   OH280848   3.665   5.844   2.681  0.7267 -0.0606  0.5061
19786TIP3    H180849   3.749   5.887   2.667  0.4792  0.4217  0.5003
19786TIP3    H280850   3.615   5.905   2.734  0.3107 -0.2646  0.3521
19787TIP3   OH280851   5.235   4.800  12.156 -0.1913 -0.3228 -0.0041
19787TIP3    H180852   5.162   4.830  12.209 -1.3922  0.8855 -2.1897
19787TIP3    H280853   5.222   4.706  12.148 -0.2530 -0.4516  1.3745
19788TIP3   OH280854   2.873   6.137  15.315  0.2553  0.1356  0.5232
19788TIP3    H180855   2.903   6.217  15.272  1.5554 -0.4044  0.3768
19788TIP3    H280856   2.893   6.067  15.252  2.1302 -0.6687  1.9118
19789TIP3   OH280857   5.343   3.457   2.806 -0.4426  0.4123  0.1580
19789TIP3    H180858   5.308   3.531   2.757  0.2451  1.3781  1.0982
19789TIP3    H280859   5.365   3.392   2.739 -2.4972  0.4032 -0.5696
19790TIP3   OH280860   2.372   0.914   2.565  0.2594  0.3500 -1.0719
19790TIP3    H180861   2.396   1.006   2.554 -0.8705  0.5767 -1.9732
19790TIP3    H280862   2.276   0.915   2.567  0.2509 -0.7231 -0.1398
19791TIP3   OH280863   4.656   6.673  13.655  0.0251  0.6982  0.0627
19791TIP3    H180864   4.616   6.759  13.644 -0.1481  0.5032 -0.9904
19791TIP3    H280865   4.625   6.623  13.579 -1.7286 -1.0222  1.7726
19792TIP3   OH280866   1.150   2.714   3.368  0.0009  0.3444  0.1813
19792TIP3    H180867   1.175   2.624   3.350 -0.2575  0.0146  1.4065
19792TIP3    H280868   1.233   2.761   3.377  0.1354  0.2684 -0.5981
19793TIP3   OH280869   6.621   3.031  11.393  0.2376 -0.0757 -0.1364
19793TIP3    H180870   6.640   3.029  11.299 -1.9311 -1.7659 -0.6112
19793TIP3    H280871   6.700   2.995  11.434  0.6389 -0.7449 -1.4382
19794TIP3   OH280872   1.181   4.929  13.914 -0.2374  0.6414  0.0109
19794TIP3    H180873   1.199   4.994  13.847 -2.8593  2.5730  1.0153
19794TIP3    H280874   1.245   4.947  13.983  0.1603  0.9861 -0.4411
19795TIP3   OH280875   0.437   5.003  15.814  0.1054  0.4504 -0.3894
19795TIP3    H180876   0.370   4.984  15.748  0.3618  1.7697 -1.0650
19795TIP3    H280877   0.502   5.056  15.768  1.1312  0.0164  0.5102
19796TIP3   OH280878   3.675   2.851   4.734 -0.2678 -0.4379  0.5656
19796TIP3    H180879   3.628   2.888   4.659 -0.1921 -0.0531  0.7062
19796TIP3    H280880   3.764   2.885   4.727 -0.8769  1.7330  2.2356
19797TIP3   OH280881   2.807   5.252  11.708  0.5821  0.1163 -0.2006
19797TIP3    H180882   2.792   5.342  11.677  1.3656  0.4368  0.3261
19797TIP3    H280883   2.869   5.215  11.645 -0.8263 -0.5516 -1.2441
19798TIP3   OH280884   3.720   3.212   3.822  0.4433  0.0141 -0.6410
19798TIP3    H180885   3.697   3.306   3.823 -0.8123 -0.1536 -3.4140
19798TIP3    H280886   3.813   3.210   3.842  0.4024  1.8302 -0.0547
19799TIP3   OH280887   6.029   1.490   2.432  0.1937 -0.4774  0.0380
19799TIP3    H180888   6.004   1.459   2.519 -1.0605 -1.0097 -0.4813
19799TIP3    H280889   5.975   1.438   2.372  0.4272  0.4613 -1.0169
19800TIP3   OH280890   3.091   1.779   5.593 -0.2623  0.0423 -0.1149
19800TIP3    H180891   3.116   1.869   5.613  1.5567  0.0863 -2.1919
19800TIP3    H280892   3.098   1.773   5.498 -2.0747 -1.8366 -0.2004
19801TIP3   OH280893   5.192   5.146  11.919  0.6739  0.5580 -0.4547
19801TIP3    H180894   5.164   5.055  11.918  0.2591  0.6768 -1.7603
19801TIP3    H280895   5.256   5.153  11.848  0.1504  1.4360 -0.8628
19802TIP3   OH280896   4.802   4.442   6.855  0.4211  0.3518  0.7431
19802TIP3    H180897   4.771   4.532   6.854 -0.1916  0.1433  0.1606
19802TIP3    H280898   4.898   4.450   6.859  0.3680  1.0257  0.8094
19803TIP3   OH280899   2.582   5.093   4.033  0.2550  0.2550 -0.5550
19803TIP3    H180900   2.576   5.186   4.057 -1.3487  0.1971 -0.5836
19803TIP3    H280901   2.506   5.054   4.076  0.8994 -1.0465 -0.5750
19804TIP3   OH280902   1.697   6.257   3.640  0.0538 -0.5011  0.4088
19804TIP3    H180903   1.699   6.307   3.722  0.7329 -2.0094  1.3593
19804TIP3    H280904   1.689   6.324   3.572  1.5171  0.9743  1.5698
19805TIP3   OH280905   2.211   1.766  17.213 -0.2518  1.0812  0.4213
19805TIP3    H180906   2.221   1.711  17.291 -1.0096  0.7212  0.2796
19805TIP3    H280907   2.242   1.711  17.141  2.1710  2.0436  0.6318
19806TIP3   OH280908   1.991   4.488  11.547  0.8612 -0.3278  0.4797
19806TIP3    H180909   2.074   4.522  11.512  0.6883 -0.3846  0.0081
19806TIP3    H280910   2.013   4.458  11.635  1.0141  1.0382  0.9327
19807TIP3   OH280911   3.283   4.124  15.618  0.4546 -0.8483  0.4094
19807TIP3    H180912   3.246   4.154  15.535 -1.6112 -0.8107  1.2895
19807TIP3    H280913   3.264   4.195  15.680 -0.4993 -2.0107  1.5058
19808TIP3   OH280914   4.713   1.589   4.521  0.4226 -0.0500  0.4339
19808TIP3    H180915   4.766   1.569   4.444  0.0403  1.1055 -0.1478
19808TIP3    H280916   4.769   1.643   4.576  1.0885 -1.7842  1.5161
19809TIP3   OH280917   1.142   3.824   0.173 -0.3784 -0.1527 -0.9182
19809TIP3    H180918   1.094   3.758   0.123  0.3266 -2.0826  0.8170
19809TIP3    H280919   1.156   3.895   0.111  0.6559 -2.4739 -3.5713
19810TIP3   OH280920   4.044   6.757  15.592 -0.3162 -0.4345  1.2192
19810TIP3    H180921   4.108   6.808  15.543  1.2856 -2.5235  1.0075
19810TIP3    H280922   4.088   6.735  15.674 -1.3582 -0.6172  1.7503
19811TIP3   OH280923   1.245   6.670  14.932 -0.5482  0.2920  0.0912
19811TIP3    H180924   1.205   6.595  14.977 -1.2304  0.5103 -0.1370
19811TIP3    H280925   1.285   6.722  15.002  0.2239 -0.4565  0.2158
19812TIP3   OH280926   1.923   6.618  16.921  0.0804 -0.5358  0.5436
19812TIP3    H180927   1.990   6.563  16.880 -0.8195 -1.6539  0.4903
19812TIP3    H280928   1.848   6.559  16.931 -0.9741  0.7369  0.3711
19813TIP3   OH280929   1.800   2.639   4.543  0.5511 -0.0238 -0.7812
19813TIP3    H180930   1.709   2.640   4.573 -0.1137  0.2568 -2.7208
19813TIP3    H280931   1.812   2.551   4.507 -0.3726  1.2247 -4.4969
19814TIP3   OH280932   5.131   2.669   3.669 -0.1005  0.2188 -0.0640
19814TIP3    H180933   5.147   2.740   3.607  1.3097  1.5771  1.7236
19814TIP3    H280934   5.036   2.656   3.667 -0.3316  1.7433 -0.8917
19815TIP3   OH280935   4.764   1.113   0.552  0.4021 -0.4013  0.0252
19815TIP3    H180936   4.822   1.163   0.495  2.2266  0.8233  2.7560
19815TIP3    H280937   4.676   1.147   0.533  1.3007  2.0490 -0.0244
19816TIP3   OH280938   0.225   4.531  10.658 -0.4231  0.3458  0.6915
19816TIP3    H180939   0.315   4.502  10.674 -0.8832 -0.8974  1.1498
19816TIP3    H280940   0.180   4.452  10.627 -0.4023  1.8065 -3.7045
19817TIP3   OH280941   4.140   5.578   0.049  0.0172 -0.2857  0.2038
19817TIP3    H180942   4.077   5.506   0.047  1.0079 -1.1723 -0.0053
19817TIP3    H280943   4.223   5.538   0.024  1.2028  0.3091  2.7821
19818TIP3   OH280944   0.601   5.877  14.291  0.3789 -0.0974 -0.1124
19818TIP3    H180945   0.560   5.818  14.356  0.3523  0.3848  0.3161
19818TIP3    H280946   0.611   5.823  14.213 -0.5054 -0.4134 -0.0246
19819TIP3   OH280947   2.565   5.351   4.926  0.1365  0.5166 -0.3097
19819TIP3    H180948   2.487   5.350   4.983  0.6885 -0.0725  0.4596
19819TIP3    H280949   2.529   5.349   4.837 -0.7608 -1.7533  0.0114
19820TIP3   OH280950   1.980   3.921   2.622  0.0513 -0.3647 -0.0851
19820TIP3    H180951   1.945   3.951   2.538 -1.0023 -0.2047  0.3843
19820TIP3    H280952   1.952   3.830   2.629  0.1065 -0.3672  0.1074
19821TIP3   OH280953   0.839   5.762   4.705  0.5826  0.1077 -0.1943
19821TIP3    H180954   0.859   5.759   4.611  0.8703  3.3254 -0.3294
19821TIP3    H280955   0.904   5.703   4.744  0.8208 -0.8628 -1.9231
19822TIP3   OH280956   1.807   3.250  12.269  0.0920 -0.5531  0.2534
19822TIP3    H180957   1.725   3.250  12.318 -0.5881  1.2308 -0.7856
19822TIP3    H280958   1.872   3.285  12.331 -0.4862  0.4496  0.3124
19823TIP3   OH280959   2.333   4.345   4.997  0.5964 -0.1460  0.1872
19823TIP3    H180960   2.389   4.311   4.927 -2.1839 -2.2573 -1.1882
19823TIP3    H280961   2.310   4.268   5.050 -1.0343  0.6065  0.6464
19824TIP3   OH280962   0.157   2.681   1.541  0.3241 -0.2905 -0.1424
19824TIP3    H180963   0.218   2.751   1.562 -1.1595  1.8907 -2.4811
19824TIP3    H280964   0.213   2.605   1.522  2.1260  0.8819  0.2906
19825TIP3   OH280965   0.477   2.797   1.292  0.0129  0.2362 -0.2972
19825TIP3    H180966   0.410   2.772   1.228 -0.7245  0.0983  0.5018
19825TIP3    H280967   0.518   2.874   1.254  0.4469 -0.5519 -1.5130
19826TIP3   OH280968   3.328   5.630   0.393  0.7935  0.5795  0.1413
19826TIP3    H180969   3.413   5.588   0.377  0.1157 -0.7008 -0.2059
19826TIP3    H280970   3.303   5.666   0.308 -0.2978 -1.5246 -0.4923
19827TIP3   OH280971   1.301   2.893   1.551  0.5985 -0.2504  0.4310
19827TIP3    H180972   1.294   2.825   1.484 -3.8658 -0.3685  0.7042
19827TIP3    H280973   1.272   2.973   1.507  1.1742  0.4635  1.3150
19828TIP3   OH280974   1.242   3.501  15.681 -0.0423  0.1165  0.2084
19828TIP3    H180975   1.150   3.513  15.657 -0.1952 -0.3862  0.5217
19828TIP3    H280976   1.244   3.415  15.723  0.4375  0.4370  0.8539
19829TIP3   OH280977   3.050   3.937   2.796  0.1192 -0.0573 -0.4842
19829TIP3    H180978   3.105   3.949   2.718  1.8404 -0.1093  0.6729
19829TIP3    H280979   3.086   3.859   2.838  0.1900  0.8132  1.1404
19830TIP3   OH280980   3.542   1.748   1.731 -0.8327  0.0394  0.0024
19830TIP3    H180981   3.556   1.754   1.637  0.0920  0.3919  0.1563
19830TIP3    H280982   3.629   1.731   1.767 -1.1984 -0.2070  0.7823
19831TIP3   OH280983   1.414   2.508   3.743  0.2198  0.2567  0.0954
19831TIP3    H180984   1.447   2.425   3.707 -0.4112 -0.9116  2.0910
19831TIP3    H280985   1.466   2.575   3.698  2.1189 -1.2954 -0.1712
19832TIP3   OH280986   4.303   3.299  13.423  0.1052  0.0625 -0.2268
19832TIP3    H180987   4.335   3.384  13.391  0.4485 -0.0874 -0.2847
19832TIP3    H280988   4.226   3.282  13.369 -0.1185  0.4588 -0.0412
19833TIP3   OH280989   6.109   0.985   1.471 -0.0382 -0.1655  0.5032
19833TIP3    H180990   6.101   0.903   1.424 -1.6004 -1.1456  2.3264
19833TIP3    H280991   6.163   0.964   1.547  1.5680  1.1231 -0.2253
19834TIP3   OH280992   0.074   5.580  12.712  0.4691 -0.1707  0.1803
19834TIP3    H180993   0.130   5.626  12.650 -0.9399 -0.1581 -1.1651
19834TIP3    H280994   0.021   5.522  12.657  0.3246 -1.4050  1.5657
19835TIP3   OH280995   1.896   1.622  10.416 -0.3102 -0.1268 -0.4507
19835TIP3    H180996   1.865   1.537  10.385  0.6236  0.0245 -1.9097
19835TIP3    H280997   1.956   1.601  10.488 -2.7081 -0.4785  1.5975
19836TIP3   OH280998   0.215   3.447   1.203 -0.0313  0.2384 -0.2998
19836TIP3    H180999   0.222   3.438   1.298  1.4896  0.1153 -0.3954
19836TIP3    H281000   0.295   3.407   1.169 -1.8706 -2.4854 -1.8426
19837TIP3   OH281001   3.701   0.073  14.309 -0.5477  0.1678 -0.3607
19837TIP3    H181002   3.792   0.075  14.339 -0.9947 -0.4723  1.0884
19837TIP3    H281003   3.698  -0.001  14.248 -0.4052 -0.6869  0.6532
19838TIP3   OH281004   3.291   5.872   4.582  0.0681  0.0565 -0.0477
19838TIP3    H181005   3.252   5.812   4.646  2.0585 -0.0278  1.1681
19838TIP3    H281006   3.241   5.857   4.502 -1.5308 -0.9249  1.0703
19839TIP3   OH281007   3.005   4.825   6.366  0.3761 -0.5109  0.1315
19839TIP3    H181008   2.914   4.845   6.389  0.5351 -0.1489  0.4675
19839TIP3    H281009   3.001   4.738   6.326 -0.0387 -0.7677  0.7051
19840TIP3   OH281010   3.435   2.271   5.725 -1.0711  0.3494 -0.9103
19840TIP3    H181011   3.341   2.264   5.738 -0.9101  1.4805  1.2742
19840TIP3    H281012   3.468   2.310   5.806  1.1700  0.8136 -1.9632
19841TIP3   OH281013   3.436   0.217   3.617  0.5426  0.1948 -0.5402
19841TIP3    H181014   3.369   0.200   3.551  1.7930 -0.3662 -1.7077
19841TIP3    H281015   3.482   0.133   3.627  0.7819  0.4391  0.5927
19842TIP3   OH281016   1.576   0.347  11.986 -0.1858  0.2200 -0.2472
19842TIP3    H181017   1.602   0.414  12.049  1.2476 -0.3005 -0.2262
19842TIP3    H281018   1.623   0.268  12.014 -2.0630 -0.9006 -0.0919
19843TIP3   OH281019   5.184   3.033  17.230 -0.0948 -0.0871 -0.0491
19843TIP3    H181020   5.201   3.044  17.323  1.3214  0.3867 -0.3529
19843TIP3    H281021   5.148   2.944  17.223  0.6200 -0.4578  0.8413
19844TIP3   OH281022   1.467   6.188  16.819 -0.5635 -0.5496  0.2178
19844TIP3    H181023   1.447   6.271  16.776  1.1568 -0.5127 -0.5808
19844TIP3    H281024   1.441   6.203  16.911 -3.9732 -0.5319 -0.6005
19845TIP3   OH281025   1.903   0.727   5.667 -0.2328  0.0047  0.1973
19845TIP3    H181026   1.913   0.737   5.572  0.2964  1.6268  0.3950
19845TIP3    H281027   1.932   0.638   5.685  0.0261 -0.2016 -1.1173
19846TIP3   OH281028   6.603   3.452   6.015  0.1584 -0.7199 -0.3578
19846TIP3    H181029   6.548   3.376   6.032  1.7599 -2.2366 -1.6060
19846TIP3    H281030   6.602   3.462   5.920  0.8030  0.2048 -0.2843
19847TIP3   OH281031   4.139   2.831  15.767  0.5322  0.4548 -0.1628
19847TIP3    H181032   4.105   2.745  15.743  1.0933  0.1500  0.0958
19847TIP3    H281033   4.070   2.892  15.743  0.2818 -0.0323 -0.7024
19848TIP3   OH281034   2.004   0.171   5.607 -0.3889  0.1851 -0.5509
19848TIP3    H181035   2.078   0.216   5.648  0.3443 -0.2199 -1.3825
19848TIP3    H281036   2.011   0.080   5.637 -0.5133  0.1346 -0.6736
19849TIP3   OH281037   4.097   2.548   0.737 -0.2505 -0.2024 -0.5881
19849TIP3    H181038   4.041   2.598   0.677 -4.5396 -3.5585  0.1312
19849TIP3    H281039   4.161   2.505   0.680 -1.3328  0.2131 -2.1812
19850TIP3   OH281040   0.735   2.269   3.765 -0.3983  0.4892  0.0817
19850TIP3    H181041   0.696   2.299   3.847  1.1666  2.7971  0.0817
19850TIP3    H281042   0.748   2.350   3.714  2.7586 -0.2799 -0.5604
19851TIP3   OH281043   1.984   3.056   1.206 -0.3950 -0.1605 -0.6292
19851TIP3    H181044   2.015   3.087   1.291 -0.4716 -0.9894 -0.2928
19851TIP3    H281045   1.899   3.099   1.195 -0.1190  0.4077 -0.5540
19852TIP3   OH281046   5.008   2.952  17.011 -0.0742 -0.6581 -0.3458
19852TIP3    H181047   5.095   2.973  17.042 -1.4620  1.9644  2.2668
19852TIP3    H281048   4.986   2.869  17.054  0.4747 -0.3843  0.4774
19853TIP3   OH281049   0.632   1.626   5.767 -0.1480  0.1821 -0.3434
19853TIP3    H181050   0.644   1.721   5.765 -0.6038  0.2631  0.4561
19853TIP3    H281051   0.654   1.598   5.678 -0.4965  1.0981 -0.7395
19854TIP3   OH281052   4.132   4.627  15.899 -0.4215 -0.0942  0.6106
19854TIP3    H181053   4.161   4.692  15.963 -0.6676 -0.4996  1.1449
19854TIP3    H281054   4.046   4.599  15.930  0.4630 -2.0791  1.5106
19855TIP3   OH281055   5.353   5.172  16.041  0.6804  0.3691  0.7244
19855TIP3    H181056   5.283   5.180  16.106 -1.5187 -1.5607 -1.2161
19855TIP3    H281057   5.386   5.082  16.052  1.2823  0.5063  0.0999
19856TIP3   OH281058   2.139   3.887  14.573 -0.4867 -0.0423  0.6758
19856TIP3    H181059   2.225   3.882  14.614 -1.4462  0.2447  2.8997
19856TIP3    H281060   2.101   3.800  14.586 -0.4943 -0.2133 -0.4200
19857TIP3   OH281061   6.335   4.987  16.442 -0.3306 -0.6490 -0.0426
19857TIP3    H181062   6.289   4.928  16.382 -1.2346 -0.8134  0.8026
19857TIP3    H281063   6.338   4.940  16.525 -1.0973  0.4843  0.6606
19858TIP3   OH281064   0.162   3.888  17.033 -0.3693  0.9827  0.3194
19858TIP3    H181065   0.067   3.877  17.038 -0.4608  1.0247 -0.9536
19858TIP3    H281066   0.190   3.829  16.963  0.5953  0.7138  0.9100
19859TIP3   OH281067   4.829   0.301   3.768  0.3173 -0.6143 -0.8296
19859TIP3    H181068   4.924   0.300   3.774  0.4123 -0.7540 -2.0809
19859TIP3    H281069   4.810   0.353   3.690 -0.6496 -0.2638 -0.3799
19860TIP3   OH281070   2.117   0.760   2.962  0.0539 -1.0743 -0.7385
19860TIP3    H181071   2.059   0.694   3.000 -0.1721 -0.4040  0.1104
19860TIP3    H281072   2.162   0.714   2.891 -1.8643 -1.4869 -1.7628
19861TIP3   OH281073   4.745   4.551  11.541  0.3270 -0.4228 -0.3109
19861TIP3    H181074   4.674   4.586  11.595  1.4080 -1.3588  1.8371
19861TIP3    H281075   4.711   4.467  11.510 -0.3425  0.1699 -1.2426
19862TIP3   OH281076   4.750   5.767  10.683  0.0155 -0.1326 -0.1254
19862TIP3    H181077   4.723   5.848  10.724  1.5596  0.1187  0.4579
19862TIP3    H281078   4.761   5.705  10.755 -1.9562 -1.1475 -0.6308
19863TIP3   OH281079   0.156   5.624   5.377  0.1897 -0.5303 -0.3361
19863TIP3    H181080   0.137   5.678   5.301 -0.1344 -1.1470 -0.6957
19863TIP3    H281081   0.071   5.592   5.406  0.4333 -1.4156 -0.5534
19864TIP3   OH281082   6.658   0.354   6.578  0.3385 -0.1055 -0.3185
19864TIP3    H181083   6.700   0.437   6.554 -0.0529 -0.4843 -2.4849
19864TIP3    H281084   6.586   0.345   6.516  0.2515 -1.9759  0.0101
19865TIP3   OH281085   6.484   0.453   0.073  0.1444  0.3582 -0.2916
19865TIP3    H181086   6.532   0.401   0.137  0.3876  0.3078 -0.5119
19865TIP3    H281087   6.531   0.537   0.070 -1.0668  1.1296  1.0936
19866TIP3   OH281088   5.415   2.991   4.096 -0.2814  0.7249  0.3691
19866TIP3    H181089   5.376   2.926   4.038  1.5250 -0.7924  0.7320
19866TIP3    H281090   5.455   3.055   4.037 -0.8131  0.6945 -0.0266
19867TIP3   OH281091   6.058   4.639   5.898  0.0380 -0.2470  0.3791
19867TIP3    H181092   6.062   4.615   5.805 -0.4540  1.2342 -0.0544
19867TIP3    H281093   6.147   4.666   5.919  0.0349 -0.0945  0.1973
19868TIP3   OH281094   0.876   0.264  16.707 -0.1704 -0.3152  0.4838
19868TIP3    H181095   0.837   0.239  16.624  2.1183  0.5773 -0.9332
19868TIP3    H281096   0.835   0.348  16.728 -0.2195 -0.1773 -0.1419
19869TIP3   OH281097   3.886   6.044  12.412  0.2201  0.0129 -0.3124
19869TIP3    H181098   3.803   6.037  12.365  1.1015 -2.9315 -1.6592
19869TIP3    H281099   3.933   6.113  12.366  0.0884 -1.1314 -2.2927
19870TIP3   OH281100   2.517   0.754  14.742 -0.1627  0.3783  0.4520
19870TIP3    H181101   2.448   0.813  14.710  0.7862  0.9421 -0.6235
19870TIP3    H281102   2.524   0.775  14.835 -1.4651  0.2767  0.5972
19871TIP3   OH281103   3.062   2.383   2.380 -0.1294  0.8536 -0.0419
19871TIP3    H181104   2.993   2.396   2.315 -0.6346  1.1707  0.5507
19871TIP3    H281105   3.025   2.416   2.462  1.5192  3.2019 -0.1323
19872TIP3   OH281106   0.017   2.492  13.924 -0.0257 -0.4196  0.0645
19872TIP3    H181107  -0.053   2.441  13.964  0.9487 -1.1289  0.9323
19872TIP3    H281108   0.040   2.557  13.991  0.2993 -0.3469 -0.1166
19873TIP3   OH281109   2.185   5.986   5.323 -0.2319  0.0012  0.5346
19873TIP3    H181110   2.251   5.957   5.259 -0.9848 -1.1257  0.2208
19873TIP3    H281111   2.228   6.056   5.371  0.6814  0.2854 -0.6222
19874TIP3   OH281112   6.614   6.616  16.085  0.1711  0.0809  0.1110
19874TIP3    H181113   6.665   6.556  16.031  0.1867 -0.0798  0.3015
19874TIP3    H281114   6.627   6.585  16.175 -1.0834 -0.5944  0.0852
19875TIP3   OH281115   3.560   0.560   4.340  0.0399 -0.2469 -0.4849
19875TIP3    H181116   3.527   0.638   4.385 -3.0201 -2.0804  0.6616
19875TIP3    H281117   3.540   0.577   4.247  1.6067  1.2620 -0.6184
19876TIP3   OH281118   0.779   5.848   2.533 -0.0073 -0.3562 -0.6443
19876TIP3    H181119   0.704   5.790   2.514  0.3828 -0.8719 -0.6345
19876TIP3    H281120   0.782   5.908   2.459 -0.3084 -0.4653 -0.7482
19877TIP3   OH281121   0.438   1.188  14.970  0.2604  0.4100  0.4072
19877TIP3    H181122   0.350   1.161  14.944 -0.2973  1.6950  0.8622
19877TIP3    H281123   0.457   1.137  15.049 -0.5845  0.9856  1.0034
19878TIP3   OH281124   1.447   5.961   1.275 -0.1629  0.5973 -0.0206
19878TIP3    H181125   1.421   5.953   1.183  1.3842  0.4077 -0.4737
19878TIP3    H281126   1.540   5.983   1.272  0.3822 -1.2047  1.5086
19879TIP3   OH281127   6.048   6.211  13.620 -0.3588  0.5133 -0.1309
19879TIP3    H181128   6.101   6.165  13.685 -1.8987 -0.3745  0.5583
19879TIP3    H281129   6.003   6.141  13.573 -2.4726  1.2791  0.6713
19880TIP3   OH281130   6.555   5.117   5.467  0.4745 -0.4005 -0.0610
19880TIP3    H181131   6.560   5.196   5.519  1.0480  0.7245 -1.7203
19880TIP3    H281132   6.589   5.048   5.524  0.5234  0.6476  1.2146
19881TIP3   OH281133   5.370   2.965  12.896  0.2103 -0.2482 -0.0716
19881TIP3    H181134   5.293   2.938  12.847  1.5798 -1.0064 -1.9023
19881TIP3    H281135   5.443   2.915  12.857  1.6090  0.2728  1.7175
19882TIP3   OH281136   3.732   3.046   4.085 -0.0554 -0.1628 -0.5433
19882TIP3    H181137   3.739   3.097   4.004 -0.8206  2.3736  0.8831
19882TIP3    H281138   3.809   2.990   4.085  0.1280 -0.0032 -2.8545
19883TIP3   OH281139   3.137   5.377  16.661  0.2189  0.7740 -0.3458
19883TIP3    H181140   3.135   5.333  16.576  0.7782  0.5143 -0.2321
19883TIP3    H281141   3.215   5.342  16.704 -0.1155  0.8277  0.3147
19884TIP3   OH281142   2.457   0.098  16.065 -0.3146 -0.2307 -0.1746
19884TIP3    H181143   2.376   0.149  16.060  0.1341  0.5502  0.3443
19884TIP3    H281144   2.469   0.063  15.976  0.3164  2.0765 -1.0748
19885TIP3   OH281145   2.980   1.822   2.117 -0.9382 -0.5147 -0.4321
19885TIP3    H181146   3.050   1.774   2.162 -1.0793 -1.2649 -1.0013
19885TIP3    H281147   2.988   1.912   2.150  1.1206 -0.2790 -1.4519
19886TIP3   OH281148   5.153   1.017   3.698 -0.2580 -0.4332 -0.4287
19886TIP3    H181149   5.199   0.959   3.758 -0.7731 -1.0721 -0.6284
19886TIP3    H281150   5.118   1.087   3.754  2.1066  0.8808 -0.4535
19887TIP3   OH281151   0.100   4.586   1.173 -0.5719  0.6992 -0.1576
19887TIP3    H181152   0.040   4.519   1.141 -0.3815  1.1910 -1.6452
19887TIP3    H281153   0.043   4.653   1.211 -0.8099  0.1126  0.5390
19888TIP3   OH281154   2.355   3.614  11.770 -0.3962  0.0002 -0.0822
19888TIP3    H181155   2.438   3.567  11.774  0.3884  1.4243  2.6398
19888TIP3    H281156   2.293   3.550  11.734  0.9063 -2.6666  2.0383
19889TIP3   OH281157   2.208   5.044  11.439  0.7267 -0.6117 -0.1663
19889TIP3    H181158   2.214   5.102  11.515  0.5532 -2.2315  1.1305
19889TIP3    H281159   2.146   4.976  11.466  1.4494 -1.7950 -1.3787
19890TIP3   OH281160   4.427   3.148  15.409 -0.0731  0.5644 -0.5484
19890TIP3    H181161   4.412   3.151  15.315 -3.0360 -0.2002 -0.2022
19890TIP3    H281162   4.359   3.090  15.443  0.6703  1.0809  2.1124
19891TIP3   OH281163   5.485   3.048   5.779  0.2911  0.0688 -0.2526
19891TIP3    H181164   5.487   3.010   5.867  0.5986  1.9396  0.5934
19891TIP3    H281165   5.564   3.102   5.774 -1.3192  2.5767 -0.4318
19892TIP3   OH281166   5.562   2.794  12.144 -0.1215  0.5923  0.0030
19892TIP3    H181167   5.551   2.702  12.121  0.8733  0.3878  0.2885
19892TIP3    H281168   5.490   2.813  12.204 -1.9447  0.7645 -2.1106
19893TIP3   OH281169   1.170   0.793   1.190 -0.1024  0.5754  0.0226
19893TIP3    H181170   1.257   0.797   1.229 -1.0512  0.6450  2.3562
19893TIP3    H281171   1.116   0.850   1.246 -1.5522  0.9148 -1.6287
19894TIP3   OH281172   1.577   3.270  11.955  0.0687  0.2169 -0.0564
19894TIP3    H181173   1.541   3.189  11.920 -2.4819  1.7664 -1.3459
19894TIP3    H281174   1.604   3.319  11.878 -0.0239  1.2768  0.5632
19895TIP3   OH281175   0.739   2.393  13.007  0.8103 -0.2745  0.2715
19895TIP3    H181176   0.650   2.406  13.041  1.9357 -1.4097  4.0534
19895TIP3    H281177   0.762   2.478  12.969 -1.3393  0.5085  0.5683
19896TIP3   OH281178   3.275   2.133   4.213 -0.3492  0.6363  0.2464
19896TIP3    H181179   3.370   2.121   4.216 -0.3456 -0.7710 -2.3510
19896TIP3    H281180   3.258   2.165   4.125 -2.4486 -1.7945 -0.3741
19897TIP3   OH281181   0.513   1.545  12.241 -0.1570  0.3355 -0.1120
19897TIP3    H181182   0.429   1.591  12.246 -1.8185 -2.4807  0.2489
19897TIP3    H281183   0.518   1.515  12.150  0.0163 -0.2432  0.0859
19898TIP3   OH281184   1.386   1.078   2.476 -0.2477 -0.3310 -0.3203
19898TIP3    H181185   1.367   1.154   2.531  0.0435  0.2195 -0.9622
19898TIP3    H281186   1.433   1.114   2.401  1.4814 -1.3569  0.1927
19899TIP3   OH281187   6.070   4.390  12.735 -0.5959  0.1408  0.1639
19899TIP3    H181188   6.100   4.301  12.753 -0.0614  0.0413 -1.0927
19899TIP3    H281189   6.147   4.445  12.750 -0.5037  0.2039 -0.5209
19900TIP3   OH281190   0.136   0.342   5.636  0.3038 -0.2288 -0.4907
19900TIP3    H181191   0.194   0.274   5.669 -0.1244 -1.1433 -1.5330
19900TIP3    H281192   0.048   0.310   5.656  0.1285  0.5972  0.0714
19901TIP3   OH281193   5.500   2.125  14.589 -0.2996  0.0506  0.4843
19901TIP3    H181194   5.498   2.146  14.682 -0.4003  0.3060  0.4265
19901TIP3    H281195   5.523   2.032  14.585  0.8683  0.3120  0.7269
19902TIP3   OH281196   2.917   3.303  15.278 -0.0615  0.1702  0.8593
19902TIP3    H181197   2.947   3.360  15.349 -2.2184  3.2743 -0.4712
19902TIP3    H281198   2.971   3.328  15.203 -0.9067  0.3370  0.2984
19903TIP3   OH281199   0.429   0.204   0.523 -0.2190 -0.4368 -0.1348
19903TIP3    H181200   0.412   0.231   0.433  0.9961 -2.5552 -1.0955
19903TIP3    H281201   0.342   0.189   0.561 -0.7234 -1.1471 -1.5211
19904TIP3   OH281202   3.166   6.327   4.903  0.9119  0.0871 -0.0890
19904TIP3    H181203   3.200   6.392   4.963  0.3330  0.7614 -0.4761
19904TIP3    H281204   3.090   6.369   4.862 -0.8630 -1.5961  1.2790
19905TIP3   OH281205   3.780   4.577   6.160 -0.1046 -0.8304  0.1036
19905TIP3    H181206   3.824   4.625   6.230 -0.4230 -1.3024  0.6361
19905TIP3    H281207   3.689   4.573   6.187 -0.3919 -0.3088 -0.7467
19906TIP3   OH281208   0.222   0.542  13.383  0.1012  0.1283  0.0221
19906TIP3    H181209   0.200   0.621  13.334 -1.6869 -0.4657 -0.2073
19906TIP3    H281210   0.209   0.471  13.320 -0.4930 -0.5147  0.8522
19907TIP3   OH281211   3.605   0.618   4.835  0.0494  0.2770 -0.1443
19907TIP3    H181212   3.569   0.595   4.750 -0.4132  1.3950 -0.2602
19907TIP3    H281213   3.562   0.557   4.896  0.0887 -0.2642 -0.6481
19908TIP3   OH281214   6.577   0.132   0.674 -0.3777 -0.2699  0.4770
19908TIP3    H181215   6.539   0.044   0.666 -0.9385  0.0027  0.1032
19908TIP3    H281216   6.639   0.124   0.746  0.3806 -1.2599 -0.2561
19909TIP3   OH281217   6.534   3.078   2.542  0.1218  0.0858  0.4850
19909TIP3    H181218   6.453   3.045   2.582 -1.8120  0.1098 -3.0377
19909TIP3    H281219   6.573   3.001   2.501  1.8425  0.1354  1.9116
19910TIP3   OH281220   6.511   6.382   2.551  0.9556 -0.0676 -0.4480
19910TIP3    H181221   6.432   6.363   2.500  0.5968  0.3849 -0.0694
19910TIP3    H281222   6.538   6.298   2.586 -0.3635  0.0136  0.8517
19911TIP3   OH281223   1.763   2.718  14.735 -0.3175  0.2949  0.4609
19911TIP3    H181224   1.669   2.716  14.756 -0.8183  1.7895 -1.3635
19911TIP3    H281225   1.776   2.802  14.691  1.9194  0.1593  0.7680
19912TIP3   OH281226   3.309   6.102  11.530  0.6649  0.3090  0.1078
19912TIP3    H181227   3.318   6.009  11.509 -2.5551  0.2633 -1.6239
19912TIP3    H281228   3.244   6.105  11.600  0.4650  1.2628 -0.1072
19913TIP3   OH281229   5.211   5.453  15.604 -0.2940  0.1156  0.3276
19913TIP3    H181230   5.299   5.414  15.598 -0.2414  0.2156  0.4548
19913TIP3    H281231   5.169   5.407  15.677 -0.6379 -0.5048 -0.2507
19914TIP3   OH281232   6.526   0.433  11.513  0.2335 -0.2971 -0.0427
19914TIP3    H181233   6.573   0.416  11.595  0.7616 -0.2866 -0.3378
19914TIP3    H281234   6.593   0.424  11.445 -0.2166 -0.3761 -0.4806
19915TIP3   OH281235   2.912   3.314  11.531  0.0395 -0.2609 -0.3892
19915TIP3    H181236   2.951   3.342  11.449 -0.9441  0.9922 -0.4510
19915TIP3    H281237   2.958   3.233  11.553  0.6307 -0.3675 -1.9264
19916TIP3   OH281238   2.929   2.630   4.192  0.0696  0.2626 -0.1301
19916TIP3    H181239   3.006   2.573   4.186 -0.3706 -0.1704 -2.4034
19916TIP3    H281240   2.928   2.678   4.109 -1.7656  0.7428  0.1349
19917TIP3   OH281241   3.533   0.671  12.409  0.1680 -0.2235 -0.4246
19917TIP3    H181242   3.540   0.740  12.475 -0.4792 -1.3449  0.8792
19917TIP3    H281243   3.555   0.591  12.457 -0.5394 -1.0906 -1.5260
19918TIP3   OH281244   2.131   3.148   0.961  0.1495 -0.0763  0.0284
19918TIP3    H181245   2.204   3.111   1.012  0.5737 -3.3559 -2.5860
19918TIP3    H281246   2.056   3.143   1.020  1.0959 -1.4318  1.1940
19919TIP3   OH281247   5.779   3.853   6.361  0.0231 -0.2044  0.1100
19919TIP3    H181248   5.739   3.939   6.352  0.3219  0.1706  1.9499
19919TIP3    H281249   5.742   3.817   6.442  0.3106 -1.5889 -0.3355
19920TIP3   OH281250   5.316   2.047   4.063  0.0547 -0.0285  0.4127
19920TIP3    H181251   5.377   2.019   4.132  0.3583 -0.6444 -0.0936
19920TIP3    H281252   5.274   2.125   4.099 -0.8372 -1.1436  1.8752
19921TIP3   OH281253   3.401   4.727  13.873  0.0168  0.4066 -0.0213
19921TIP3    H181254   3.333   4.791  13.895  0.3208  0.7804 -0.1473
19921TIP3    H281255   3.385   4.706  13.781 -1.5659 -1.5393  0.6353
19922TIP3   OH281256   0.827   3.077  17.482  0.7158  0.0550 -0.2689
19922TIP3    H181257   0.867   3.162  17.495 -0.6118  0.5166  1.0590
19922TIP3    H281258   0.861   3.023  17.553 -0.8992  0.4378  0.8408
19923TIP3   OH281259   1.399   1.264  12.535 -0.4497 -0.7794 -0.0030
19923TIP3    H181260   1.485   1.254  12.576  1.0600  1.3981 -2.2949
19923TIP3    H281261   1.351   1.323  12.592  0.3514 -0.4096  0.3005
19924TIP3   OH281262   0.277   6.151   0.414 -0.2762  0.4008  0.6298
19924TIP3    H181263   0.231   6.068   0.404  0.4477 -0.0714  1.0897
19924TIP3    H281264   0.361   6.137   0.370 -0.2962  1.0126  0.3906
19925TIP3   OH281265   4.029   3.466   0.266 -0.0065 -0.5093 -0.2493
19925TIP3    H181266   4.042   3.506   0.352  0.4127 -1.2507  0.0403
19925TIP3    H281267   4.068   3.379   0.273  2.1501  0.2422 -1.8850
19926TIP3   OH281268   4.756   3.122  16.678 -0.1386 -0.6062 -0.0295
19926TIP3    H181269   4.664   3.134  16.700  0.0837  0.0338  0.5730
19926TIP3    H281270   4.800   3.110  16.762  0.1920 -1.9705 -0.3789
19927TIP3   OH281271   2.788   3.934  12.670 -0.6811  0.7686  0.3818
19927TIP3    H181272   2.706   3.886  12.664  0.2058 -0.7815  0.1604
19927TIP3    H281273   2.778   3.990  12.747 -2.1292  1.0182  0.0322
19928TIP3   OH281274   1.161   3.561   2.162  0.3525  0.4262 -0.4457
19928TIP3    H181275   1.227   3.614   2.118  1.2639 -1.5784 -1.6471
19928TIP3    H281276   1.210   3.512   2.229 -0.3081  0.4764  0.0828
19929TIP3   OH281277   6.254   4.992   3.728  0.3103 -1.0521 -0.2155
19929TIP3    H181278   6.182   4.969   3.787 -0.4534  0.4115 -0.5127
19929TIP3    H281279   6.258   5.088   3.733  2.8867 -1.1227  0.5146
19930TIP3   OH281280   4.046   1.932  13.413 -0.5247 -0.1623 -0.3444
19930TIP3    H181281   4.131   1.969  13.391  0.3447 -1.3878  0.8430
19930TIP3    H281282   4.016   1.983  13.488 -0.7201  0.0806 -0.5840
19931TIP3   OH281283   6.753   2.220  12.443 -0.1400  0.2530  0.0719
19931TIP3    H181284   6.823   2.280  12.417  0.7952 -1.4688 -1.6343
19931TIP3    H281285   6.776   2.192  12.532 -1.3137  3.3150  1.4853
19932TIP3   OH281286   0.711   4.632  13.906 -0.3158  0.0048  0.5899
19932TIP3    H181287   0.653   4.633  13.830  0.2461 -0.6559  0.1470
19932TIP3    H281288   0.786   4.686  13.881 -0.8825  1.1662  1.2983
19933TIP3   OH281289   0.809   4.202  14.005 -0.5815 -0.6488  0.5779
19933TIP3    H181290   0.853   4.176  13.924 -0.1087 -0.8002  0.8786
19933TIP3    H281291   0.827   4.296  14.013 -0.7529 -0.6033  0.4330
19934TIP3   OH281292   5.638   1.476  10.667  0.0181  0.1250  0.4335
19934TIP3    H181293   5.606   1.563  10.644  0.2791  0.9700  2.9009
19934TIP3    H281294   5.731   1.490  10.685  0.1014 -0.7064  0.6641
19935TIP3   OH281295   1.857   3.595  16.153  0.7775  0.6630 -0.0465
19935TIP3    H181296   1.788   3.560  16.209  0.0637  1.8757 -0.1143
19935TIP3    H281297   1.911   3.647  16.212 -0.0030  1.9835 -0.4388
19936TIP3   OH281298   2.235   1.389   6.036  0.6384  0.2451 -0.1957
19936TIP3    H181299   2.247   1.460   6.098  1.2103  0.4102 -0.4880
19936TIP3    H281300   2.263   1.426   5.952  1.3174 -0.4452 -0.2795
19937TIP3   OH281301   0.621   2.451  15.699 -0.2045  0.1645  0.1485
19937TIP3    H181302   0.555   2.396  15.741 -1.4600  0.0269 -1.8777
19937TIP3    H281303   0.681   2.390  15.657 -0.1648  0.3134 -0.0124
19938TIP3   OH281304   5.040   6.497   5.416 -0.0162  0.3363 -0.6330
19938TIP3    H181305   4.989   6.554   5.358  1.3517  1.2108 -1.0076
19938TIP3    H281306   5.097   6.556   5.464  1.4888 -0.7014 -1.0807
19939TIP3   OH281307   6.754   4.072   4.355 -0.0800 -0.2413 -0.5751
19939TIP3    H181308   6.681   4.025   4.394  0.2370  0.0466  0.4023
19939TIP3    H281309   6.721   4.103   4.271 -0.1844 -2.5267 -1.4670
19940TIP3   OH281310   2.237   4.304  11.987 -0.2754  0.5489 -0.5678
19940TIP3    H181311   2.326   4.290  12.018 -0.8168 -0.3863  0.6952
19940TIP3    H281312   2.184   4.310  12.067 -1.7990 -2.3466 -1.1859
19941TIP3   OH281313   2.216   2.748   2.391  0.1017  0.0189 -0.1209
19941TIP3    H181314   2.205   2.828   2.442  1.3016 -0.6014  1.1912
19941TIP3    H281315   2.309   2.726   2.402 -0.2898 -1.7591 -0.1218
19942TIP3   OH281316   3.907   1.110  14.333  0.4629  0.2657 -0.0618
19942TIP3    H181317   3.842   1.044  14.356  0.6239 -0.6306 -2.0321
19942TIP3    H281318   3.876   1.149  14.252  1.8284  0.5946 -0.4572
19943TIP3   OH281319   2.816   1.531   3.678 -0.2472  0.5683  0.2660
19943TIP3    H181320   2.811   1.441   3.645 -2.6047  0.4456  0.7680
19943TIP3    H281321   2.905   1.540   3.711  0.1063 -1.5108  0.0212
19944TIP3   OH281322   1.010   2.513  16.619 -0.1413 -0.2245 -0.3939
19944TIP3    H181323   1.078   2.461  16.663  0.5907  1.4347  0.5430
19944TIP3    H281324   0.948   2.535  16.688  1.0096  2.3909 -0.0639
19945TIP3   OH281325   0.179   6.564  16.441 -0.4141 -0.0838 -0.0937
19945TIP3    H181326   0.273   6.547  16.453  0.2760 -0.2848 -4.0839
19945TIP3    H281327   0.176   6.651  16.400 -1.8138 -0.5213 -0.9944
19946TIP3   OH281328   3.507   3.160  12.634 -0.3071  0.4150 -0.1087
19946TIP3    H181329   3.482   3.072  12.606  1.9335 -0.6780  1.1200
19946TIP3    H281330   3.589   3.178  12.587  0.3988  0.9420  1.2794
19947TIP3   OH281331   0.239   0.384   2.901  0.3045 -0.0566 -0.5659
19947TIP3    H181332   0.262   0.474   2.880 -2.0533  0.4266 -1.3911
19947TIP3    H281333   0.306   0.331   2.859 -0.8555  1.1429 -4.3044
19948TIP3   OH281334   3.067   2.847  16.024  0.3037 -0.0012  0.3999
19948TIP3    H181335   3.026   2.928  15.994 -0.2161 -0.9136 -1.4549
19948TIP3    H281336   2.995   2.795  16.060  0.5872  0.2115  1.3018
19949TIP3   OH281337   2.504   2.829   0.810 -0.5588  0.3882 -0.1225
19949TIP3    H181338   2.559   2.891   0.858 -0.6209  0.7521 -0.5150
19949TIP3    H281339   2.557   2.750   0.803 -0.5555  0.3207  0.5597
19950TIP3   OH281340   0.607   5.247   4.928 -0.1238 -0.1874 -0.5269
19950TIP3    H181341   0.687   5.300   4.932  1.8708 -2.8345 -2.2886
19950TIP3    H281342   0.597   5.212   5.017  1.6915 -1.1559 -0.6726
19951TIP3   OH281343   5.460   3.473   0.821  0.3099  0.5858  0.3600
19951TIP3    H181344   5.552   3.474   0.850  0.0653  2.4308  1.2065
19951TIP3    H281345   5.418   3.410   0.879  1.3387 -1.7150 -1.2379
19952TIP3   OH281346   3.637   2.581  12.457  0.1276  0.1897  0.4727
19952TIP3    H181347   3.651   2.593  12.551 -0.9038  1.5123  0.4898
19952TIP3    H281348   3.720   2.610  12.418  0.9648 -1.3851  0.9872
19953TIP3   OH281349   4.135   3.002   3.636 -0.1733 -0.2552 -0.4773
19953TIP3    H181350   4.056   2.950   3.651 -0.7161  0.3063 -1.2992
19953TIP3    H281351   4.152   3.045   3.720 -0.2354 -1.0497 -0.0502
19954TIP3   OH281352   3.481   2.509  10.853  0.1338  0.1764 -0.4422
19954TIP3    H181353   3.388   2.531  10.856 -0.0348 -0.4548 -0.8565
19954TIP3    H281354   3.525   2.593  10.836 -0.1569  0.9044  2.0395
19955TIP3   OH281355   5.770   5.404  12.743 -0.1006  0.0564  0.2630
19955TIP3    H181356   5.805   5.492  12.732 -1.1081  0.4205 -0.2242
19955TIP3    H281357   5.685   5.407  12.699 -0.4977 -0.9326  0.9230
19956TIP3   OH281358   6.713   0.951   4.589  0.0990 -0.1018 -0.1974
19956TIP3    H181359   6.793   0.997   4.613 -0.2510  0.1233  0.5731
19956TIP3    H281360   6.674   0.926   4.673 -0.3016 -0.7859 -0.5821
19957TIP3   OH281361   6.529   0.653   1.426 -0.2894  0.7889 -0.1424
19957TIP3    H181362   6.567   0.584   1.481 -1.8947 -2.6621 -2.9615
19957TIP3    H281363   6.595   0.669   1.359 -0.9710 -0.1588 -1.0818
19958TIP3   OH281364   0.917   1.540  13.973 -0.2414  0.2564  0.4110
19958TIP3    H181365   0.937   1.471  13.910  1.8324  1.4703 -0.3432
19958TIP3    H281366   0.931   1.498  14.058  1.3606 -0.1888 -0.0349
19959TIP3   OH281367   6.761   0.750   2.691 -0.0295 -0.5002  0.0647
19959TIP3    H181368   6.764   0.665   2.736  0.1439 -0.3682  0.3101
19959TIP3    H281369   6.824   0.804   2.739  0.9315 -0.6572 -0.9765
19960TIP3   OH281370   0.816   3.188  16.364 -0.0037  0.1267  0.4182
19960TIP3    H181371   0.818   3.093  16.375 -1.4391 -0.0510 -0.5987
19960TIP3    H281372   0.874   3.205  16.290  1.2548  0.2111  1.3818
19961TIP3   OH281373   6.510   4.153  11.588  0.1604  0.2111 -0.0698
19961TIP3    H181374   6.437   4.110  11.543 -1.3691  1.5201  1.0737
19961TIP3    H281375   6.549   4.083  11.642  0.7872 -0.8787 -1.8442
19962TIP3   OH281376   4.447   1.340  16.769 -0.5566 -0.5935  0.2152
19962TIP3    H181377   4.383   1.296  16.714  0.0097 -1.1074 -0.0450
19962TIP3    H281378   4.431   1.433  16.755 -0.4298 -0.7130 -0.8213
19963TIP3   OH281379   3.674   2.439  14.246  0.1552 -0.1013 -0.2056
19963TIP3    H181380   3.599   2.494  14.225  1.1337  0.9693 -0.9921
19963TIP3    H281381   3.712   2.478  14.325 -1.6089 -2.2162  1.8592
19964TIP3   OH281382   5.269   5.874  17.256 -0.6917 -0.3971  0.1796
19964TIP3    H181383   5.196   5.935  17.250 -0.5520 -0.1859  0.6186
19964TIP3    H281384   5.234   5.792  17.218 -2.1045 -1.1590  2.8715
19965TIP3   OH281385   0.816   1.145   1.205  0.2347 -0.1755  0.3274
19965TIP3    H181386   0.802   1.116   1.295  0.4425  0.5240  0.5970
19965TIP3    H281387   0.906   1.178   1.204  0.0245  0.4083  0.0312
19966TIP3   OH281388   3.568   1.381   0.204 -0.0959  0.3176 -0.1673
19966TIP3    H181389   3.643   1.378   0.146  1.3064  1.0209  1.5085
19966TIP3    H281390   3.595   1.437   0.276 -1.9925  0.0516  0.8423
19967TIP3   OH281391   3.695   5.521  16.432 -0.3150 -0.0929  0.0729
19967TIP3    H181392   3.716   5.461  16.503 -0.3149 -3.2831 -2.4188
19967TIP3    H281393   3.602   5.540  16.442 -0.3161 -0.5199  0.8966
19968TIP3   OH281394   0.048   0.923   3.869  0.1271 -0.6561 -0.1825
19968TIP3    H181395   0.102   0.845   3.860 -0.5143 -1.3005  1.1826
19968TIP3    H281396   0.040   0.935   3.964 -0.2751  0.7239 -0.3749
19969TIP3   OH281397   0.094   0.537  12.812  0.2406 -0.1305  0.2177
19969TIP3    H181398   0.090   0.542  12.908  2.0850  1.1195  0.2646
19969TIP3    H281399   0.128   0.449  12.795 -2.5137 -1.3600  0.5556
19970TIP3   OH281400   2.911   5.096  12.207  0.2598 -0.0092  0.4854
19970TIP3    H181401   2.826   5.060  12.232 -0.1269  1.2144  0.9865
19970TIP3    H281402   2.901   5.121  12.115 -0.2304  0.9829  0.7986
19971TIP3   OH281403   4.622   4.699   3.011 -0.4017 -0.2367 -0.9403
19971TIP3    H181404   4.539   4.674   3.052 -0.2391  0.1623 -0.3500
19971TIP3    H281405   4.659   4.765   3.070  0.4703 -0.6193 -1.0407
19972TIP3   OH281406   2.292   0.838  11.987 -0.2836  0.4099 -0.1726
19972TIP3    H181407   2.241   0.872  11.913  0.4171  1.7687 -0.0685
19972TIP3    H281408   2.375   0.811  11.948  0.2966  1.6330  0.1565
19973TIP3   OH281409   5.347   1.798   0.676  0.0668 -0.0823 -0.1085
19973TIP3    H181410   5.310   1.872   0.726  1.4387  0.0849  0.7124
19973TIP3    H281411   5.271   1.753   0.640 -0.8029  1.9250 -0.9309
19974TIP3   OH281412   3.522   1.326  13.865 -0.8593 -0.3701  0.8591
19974TIP3    H181413   3.453   1.273  13.826  0.7367  1.0721 -4.8335
19974TIP3    H281414   3.478   1.407  13.891 -1.5608  0.9353 -3.5746
19975TIP3   OH281415   5.878   0.843  11.462 -0.1402 -0.1219 -0.1871
19975TIP3    H181416   5.966   0.877  11.478 -0.0655 -0.5506  0.3507
19975TIP3    H281417   5.840   0.833  11.550 -0.0337 -1.7428 -0.3035
19976TIP3   OH281418   2.451   5.807  16.083 -0.1883 -0.0134 -0.9075
19976TIP3    H181419   2.389   5.760  16.028 -0.8209 -1.6763  1.1169
19976TIP3    H281420   2.415   5.802  16.171  1.4752  1.3454 -0.0788
19977TIP3   OH281421   1.855   1.211   3.353 -0.8001  0.1394  0.0096
19977TIP3    H181422   1.925   1.171   3.301 -1.4867 -0.7114 -0.2871
19977TIP3    H281423   1.858   1.164   3.436 -1.5815 -0.5190 -0.3241
19978TIP3   OH281424   4.504   1.172  14.657  0.3465  0.3957  0.1077
19978TIP3    H181425   4.477   1.148  14.568  2.2217 -1.2863 -0.0926
19978TIP3    H281426   4.423   1.186  14.704 -0.7282  0.0049 -1.5305
19979TIP3   OH281427   2.942   5.538   0.630  0.2432 -0.4651 -0.0625
19979TIP3    H181428   2.992   5.587   0.696 -0.1571  1.5601 -1.1688
19979TIP3    H281429   2.855   5.530   0.667 -0.7020  2.8643 -1.2030
19980TIP3   OH281430   1.319   2.966  14.879 -0.0837 -0.6600 -0.2785
19980TIP3    H181431   1.319   3.028  14.806 -0.5316 -2.0218 -1.4746
19980TIP3    H281432   1.333   3.021  14.956  1.0082  0.7498 -1.4198
19981TIP3   OH281433   5.876   3.751  13.797 -0.4210 -0.0579 -0.4748
19981TIP3    H181434   5.823   3.828  13.776  0.3765  0.7031  0.2406
19981TIP3    H281435   5.812   3.685  13.823 -1.0180  1.0658  1.0439
19982TIP3   OH281436   4.636   1.925  12.515 -0.2782 -0.5489 -0.1845
19982TIP3    H181437   4.588   2.008  12.511 -1.4244 -1.1791  0.0721
19982TIP3    H281438   4.632   1.891  12.426  3.9509  1.6432 -1.4758
19983TIP3   OH281439   3.618   5.133  12.042  0.3865  0.2405 -0.0204
19983TIP3    H181440   3.553   5.114  12.110  0.6413  1.1605  0.5018
19983TIP3    H281441   3.699   5.097  12.076  0.5635  0.9094  0.2900
19984TIP3   OH281442   6.307   4.943   4.775  0.7664  0.6387  0.3241
19984TIP3    H181443   6.282   4.861   4.733 -2.1772  0.7579  1.5686
19984TIP3    H281444   6.382   4.920   4.830  0.4512 -1.0461  0.0886
19985TIP3   OH281445   6.443   5.397  12.552 -0.1795 -0.2096  0.4880
19985TIP3    H181446   6.418   5.419  12.462  2.1968 -0.5386 -0.3185
19985TIP3    H281447   6.391   5.457  12.607 -1.2121  0.4196 -1.1165
19986TIP3   OH281448   3.054   6.038   4.812  0.2998  0.6688 -0.0786
19986TIP3    H181449   3.016   6.124   4.794  0.6656  0.6679 -0.8677
19986TIP3    H281450   2.979   5.979   4.816 -0.0229  1.1273  1.1803
19987TIP3   OH281451   2.740   2.119   1.086 -0.2967  1.0670  0.0457
19987TIP3    H181452   2.650   2.095   1.063  0.7021 -0.2872 -3.0427
19987TIP3    H281453   2.766   2.055   1.152 -0.8327 -0.2327 -0.9420
19988TIP3   OH281454   3.729   1.352   4.851 -0.6923  0.6476 -0.1540
19988TIP3    H181455   3.688   1.395   4.926 -1.2543  0.4726 -0.3571
19988TIP3    H281456   3.793   1.416   4.819 -1.1224  1.1076 -0.1074
19989TIP3   OH281457   3.689   2.860   5.699  0.3888 -0.3651  0.2747
19989TIP3    H181458   3.733   2.942   5.722 -0.3235  0.0663  0.1215
19989TIP3    H281459   3.758   2.806   5.660  0.5524  0.7589 -1.0947
19990TIP3   OH281460   5.558   5.594   1.254 -0.3032 -0.2332  0.2980
19990TIP3    H181461   5.568   5.512   1.302 -1.0938 -0.6721 -0.2632
19990TIP3    H281462   5.645   5.634   1.256 -0.0188 -0.8542  0.9801
19991TIP3   OH281463   4.726   2.171   2.161  0.0346 -0.5826 -0.1407
19991TIP3    H181464   4.726   2.080   2.130 -0.1367 -0.4954 -0.4048
19991TIP3    H281465   4.730   2.164   2.257  1.7339 -0.8366 -0.2015
19992TIP3   OH281466   2.231   2.969   2.799 -0.5233 -0.4335 -0.3051
19992TIP3    H181467   2.156   2.978   2.858 -0.4624 -0.2224 -0.2599
19992TIP3    H281468   2.305   3.004   2.848 -0.0166 -2.2792  0.3573
19993TIP3   OH281469   1.156   3.769   2.488 -0.3616 -0.5829 -0.0831
19993TIP3    H181470   1.164   3.852   2.441  0.1296 -0.5114  0.1165
19993TIP3    H281471   1.235   3.720   2.464 -1.0436 -1.3364 -0.8517
19994TIP3   OH281472   1.321   1.335   4.626  0.5053 -0.4930  0.2875
19994TIP3    H181473   1.259   1.375   4.687 -0.2103 -0.8044 -0.2083
19994TIP3    H281474   1.335   1.247   4.659 -0.5613 -0.9591 -0.4467
19995TIP3   OH281475   1.114   2.331   0.122 -0.0369  0.0320  0.3575
19995TIP3    H181476   1.049   2.357   0.187  0.5056 -0.7105  1.2222
19995TIP3    H281477   1.069   2.341   0.038 -1.3589 -0.6730  0.9455
19996TIP3   OH281478   4.824   3.624   2.755  0.4421 -0.0799 -0.1982
19996TIP3    H181479   4.773   3.561   2.704  0.9700 -0.3904 -0.3566
19996TIP3    H281480   4.797   3.610   2.846  0.9205 -0.9036 -0.1707
19997TIP3   OH281481   4.460   4.740   5.497  0.2674  0.1859 -0.1316
19997TIP3    H181482   4.425   4.734   5.408  0.7684 -0.4323 -0.2922
19997TIP3    H281483   4.414   4.815   5.535 -0.4847  0.0175 -0.6701
19998TIP3   OH281484   3.947   0.485  14.335  0.7286  0.3179  0.5052
19998TIP3    H181485   3.885   0.500  14.264  0.8607 -0.0997  0.3020
19998TIP3    H281486   3.906   0.526  14.411  0.1504 -0.0517  0.4001
19999TIP3   OH281487   5.686   6.400  12.980 -0.1464  0.5426 -0.8755
19999TIP3    H181488   5.717   6.363  12.897  0.5019  1.2135 -0.9483
19999TIP3    H281489   5.764   6.405  13.034 -0.5530  0.2003 -0.2543
20000TIP3   OH281490   4.215   5.348   1.299 -0.1383  0.0194 -0.1533
20000TIP3    H181491   4.251   5.386   1.379 -1.8942  1.0434  0.1951
20000TIP3    H281492   4.121   5.364   1.304 -0.6683 -2.3377 -1.1407
20001TIP3   OH281493   2.763   1.191   1.777 -0.1609  0.6016  0.4006
20001TIP3    H181494   2.706   1.130   1.824 -0.8163  1.2715  0.4870
20001TIP3    H281495   2.801   1.139   1.706  1.0506 -0.5116  1.7759
20002TIP3   OH281496   4.278   1.237  16.158 -1.0884 -0.0655  0.2274
20002TIP3    H181497   4.212   1.282  16.211 -0.0484  0.3957  1.1688
20002TIP3    H281498   4.341   1.203  16.222  0.5577  1.0665 -0.7205
20003TIP3   OH281499   4.159   0.385   0.460 -0.1032  0.4736  0.1609
20003TIP3    H181500   4.082   0.394   0.516  0.8397 -0.2159  1.6447
20003TIP3    H281501   4.195   0.474   0.455 -0.6580  0.6917 -0.0740
20004TIP3   OH281502   0.386   5.928  16.787  0.2634 -0.0379  0.6964
20004TIP3    H181503   0.461   5.898  16.736  0.6536  1.2775  0.4480
20004TIP3    H281504   0.342   5.991  16.729  1.0111  1.8903  2.0888
20005TIP3   OH281505   1.867   2.346   0.185 -0.0283  0.2387 -0.6199
20005TIP3    H181506   1.779   2.334   0.147 -0.1176 -1.2798 -0.0100
20005TIP3    H281507   1.925   2.349   0.108 -0.4902  0.0215 -0.9863
20006TIP3   OH281508   5.015   4.796   0.219  0.2945 -0.1795  0.8334
20006TIP3    H181509   5.033   4.703   0.236  1.0210 -0.5012 -1.4091
20006TIP3    H281510   5.100   4.834   0.199 -0.1472  0.7358  0.6448
20007TIP3   OH281511   5.885   2.026   5.838 -0.2065 -0.4477 -0.4122
20007TIP3    H181512   5.958   2.052   5.782 -0.5174 -0.4549 -0.8215
20007TIP3    H281513   5.832   2.105   5.846  1.0053  0.2353  1.7330
20008TIP3   OH281514   3.888   5.839   1.359  0.0861 -0.0794 -0.1926
20008TIP3    H181515   3.853   5.782   1.291 -0.0780  0.0173 -0.1901
20008TIP3    H281516   3.897   5.782   1.435  0.4018 -0.2207 -0.3332
20009TIP3   OH281517   2.158   1.690  13.516 -0.3311  1.0711  0.0141
20009TIP3    H181518   2.086   1.743  13.550 -1.0966  0.1279 -0.0923
20009TIP3    H281519   2.203   1.748  13.454 -1.4010  1.4605 -0.4232
20010TIP3   OH281520   0.481   3.170   0.592  0.6121 -0.6061 -0.1700
20010TIP3    H181521   0.464   3.209   0.678 -1.0640  0.8959 -1.1174
20010TIP3    H281522   0.449   3.234   0.530 -2.0968 -3.3351 -1.8709
20011TIP3   OH281523   2.345   0.678  14.349 -0.1058  0.1454  0.1835
20011TIP3    H181524   2.355   0.727  14.268 -0.3654 -0.6619 -0.3451
20011TIP3    H281525   2.427   0.630  14.359 -0.8599 -1.4339 -0.7599
20012TIP3   OH281526   0.323   6.662  12.175  0.2552  0.2429 -0.3799
20012TIP3    H181527   0.378   6.691  12.247 -0.5921 -1.0683  0.8655
20012TIP3    H281528   0.234   6.684  12.202 -0.0265  0.3215 -1.3300
20013TIP3   OH281529   1.214   6.064  16.787  0.3785 -0.1070 -0.2369
20013TIP3    H181530   1.306   6.089  16.792  0.2136  0.3378  0.7610
20013TIP3    H281531   1.170   6.140  16.749  0.5183 -0.6275 -1.5133
20014TIP3   OH281532   3.428   4.078   4.178  0.3320  0.2277  0.0428
20014TIP3    H181533   3.396   3.988   4.174  0.1850  0.2362  0.8627
20014TIP3    H281534   3.350   4.132   4.165  0.3099  0.2379  0.2143
20015TIP3   OH281535   5.989   5.930   4.890  0.0960  0.3040  0.2521
20015TIP3    H181536   5.997   5.846   4.937  0.2973 -1.2219 -2.3298
20015TIP3    H281537   5.897   5.932   4.862  0.5150  0.0135 -1.2323
20016TIP3   OH281538   1.393   0.580  13.733  0.5606  0.3588  0.5312
20016TIP3    H181539   1.371   0.577  13.826 -1.9007  1.3245  0.0579
20016TIP3    H281540   1.428   0.667  13.718 -3.0094  1.8871 -0.0781
20017TIP3   OH281541   4.344   6.461  16.924  0.1189 -0.5985 -0.0504
20017TIP3    H181542   4.426   6.508  16.909 -0.5149  0.3670 -0.5760
20017TIP3    H281543   4.306   6.502  17.002 -0.4695 -0.1564 -0.5504
20018TIP3   OH281544   1.673   3.704  12.258  0.4619 -0.4469  0.1811
20018TIP3    H181545   1.605   3.762  12.293 -0.2691 -1.2061  0.0428
20018TIP3    H281546   1.711   3.663  12.335  0.1999 -0.6402  0.2086
20019TIP3   OH281547   3.332   2.003   3.757  0.6363 -0.4218  0.2586
20019TIP3    H181548   3.326   2.073   3.822  0.8167 -1.0052  0.9125
20019TIP3    H281549   3.416   2.020   3.713  0.3196  0.2134 -0.1076
20020TIP3   OH281550   3.719   0.456  14.760  0.5712  0.3160 -0.2345
20020TIP3    H181551   3.723   0.396  14.685  0.2437  0.7726 -0.6204
20020TIP3    H281552   3.676   0.405  14.828 -3.5206  1.3098 -1.7795
20021TIP3   OH281553   4.328   3.651   5.492  0.2731 -0.0136 -0.3293
20021TIP3    H181554   4.238   3.675   5.470  0.3527  1.5636  0.8209
20021TIP3    H281555   4.321   3.608   5.578  0.5241 -0.8304 -0.7112
20022TIP3   OH281556   4.082   0.622  14.931 -0.6503 -0.1154 -0.1494
20022TIP3    H181557   4.036   0.546  14.896 -0.6071 -0.1751 -0.0779
20022TIP3    H281558   4.174   0.595  14.932 -0.8039 -0.6683  1.3984
20023TIP3   OH281559   5.234   0.049  14.919  0.3004 -0.2227 -0.1343
20023TIP3    H181560   5.199   0.078  15.003 -1.6838 -0.4252 -0.8417
20023TIP3    H281561   5.297  -0.019  14.942 -1.8729 -1.9378  1.1683
20024TIP3   OH281562   2.548   3.058  14.724  0.2062 -0.3458 -0.0053
20024TIP3    H181563   2.617   3.060  14.658  0.3286  0.1806  0.1358
20024TIP3    H281564   2.586   3.011  14.798 -0.0096 -1.1456 -0.3885
20025TIP3   OH281565   5.343   0.649   6.199  0.3795 -0.2936 -0.9810
20025TIP3    H181566   5.375   0.736   6.222 -2.5285  0.5163  0.4764
20025TIP3    H281567   5.411   0.589   6.230  1.2070  1.3302  0.5104
20026TIP3   OH281568   4.685   5.317  15.214  0.5259  0.0433  0.4003
20026TIP3    H181569   4.716   5.241  15.165  0.9553  0.6795 -0.3419
20026TIP3    H281570   4.627   5.281  15.281  2.3576 -1.1324  1.4332
20027TIP3   OH281571   3.305   0.930   0.598 -0.1920 -0.2602  0.1809
20027TIP3    H181572   3.273   0.859   0.543 -0.7141 -1.6768  2.2249
20027TIP3    H281573   3.237   0.997   0.593 -0.0750 -0.2034 -1.1094
20028TIP3   OH281574   6.650   4.154   4.105 -0.4798 -0.2543  0.1412
20028TIP3    H181575   6.707   4.125   4.035  1.2872  3.7117 -0.3681
20028TIP3    H281576   6.561   4.132   4.076  0.2516  0.4987 -3.0082
20029TIP3   OH281577   2.702   3.425   0.077 -0.0693 -0.0594  0.4777
20029TIP3    H181578   2.670   3.432  -0.012  0.2583 -0.0824  0.3568
20029TIP3    H281579   2.638   3.369   0.122 -0.1603 -0.1605  0.2219
20030TIP3   OH281580   6.313   2.348  11.646  0.6127 -0.7730 -0.3086
20030TIP3    H181581   6.253   2.274  11.648  0.5834 -0.7784 -1.2426
20030TIP3    H281582   6.322   2.374  11.738 -0.5636 -0.9674 -0.1222
20031TIP3   OH281583   3.928   0.220  12.551  0.9706  0.0978 -0.5835
20031TIP3    H181584   3.854   0.280  12.544  0.8200 -0.1142 -0.8500
20031TIP3    H281585   3.888   0.136  12.575  1.2421  0.2505  0.4181
20032TIP3   OH281586   4.771   1.002   2.018  0.3722 -0.7982  0.7846
20032TIP3    H181587   4.747   0.956   1.938  0.8003  1.0744 -0.4868
20032TIP3    H281588   4.837   0.945   2.059 -0.3960 -2.1384  0.2096
20033TIP3   OH281589   0.136   1.924  16.883 -0.1613 -0.5914 -0.5702
20033TIP3    H181590   0.199   1.955  16.818  0.5198 -0.9081 -0.0666
20033TIP3    H281591   0.063   1.890  16.831  0.7115 -1.5541 -1.1976
20034TIP3   OH281592   2.982   5.617  12.631  0.1051  0.3496 -0.3216
20034TIP3    H181593   3.016   5.558  12.699 -0.7886  0.6102  0.3721
20034TIP3    H281594   2.899   5.577  12.605  0.3334  0.3773 -1.1131
20035TIP3   OH281595   1.034   1.841   1.082 -1.1109 -0.3580  0.4352
20035TIP3    H181596   1.016   1.754   1.047 -0.9678  0.1867 -1.0653
20035TIP3    H281597   0.961   1.895   1.051 -0.1487  0.4953 -0.4495
20036TIP3   OH281598   2.270   3.010  11.029  0.5622  0.4916  0.5604
20036TIP3    H181599   2.346   3.039  11.079 -0.0087  3.0298  0.0619
20036TIP3    H281600   2.203   3.075  11.046 -1.4950 -1.5636  0.8082
20037TIP3   OH281601   1.451   3.066  16.350 -0.2160  0.9199  0.3511
20037TIP3    H181602   1.393   3.003  16.306 -0.5813  1.5840 -0.1530
20037TIP3    H281603   1.412   3.151  16.330  1.0274  1.3948 -0.1210
20038TIP3   OH281604   5.452   5.371   6.500 -0.0603 -0.8439 -0.1883
20038TIP3    H181605   5.401   5.354   6.421  1.2761  0.7820 -1.4963
20038TIP3    H281606   5.522   5.306   6.498  0.1401 -0.6241 -0.5334
20039TIP3   OH281607   1.997   0.150   2.318  0.1536 -0.0319 -0.3406
20039TIP3    H181608   1.919   0.191   2.281  0.0137 -0.6101 -0.6969
20039TIP3    H281609   1.979   0.144   2.411  0.3927  1.1813 -0.1915
20040TIP3   OH281610   4.805   2.483   3.326 -0.2754 -0.2612  0.1439
20040TIP3    H181611   4.860   2.557   3.353 -0.4282 -0.3428  0.6950
20040TIP3    H281612   4.749   2.466   3.402 -1.4023  0.1223 -0.5832
20041TIP3   OH281613   3.772   6.625   4.015 -0.1345  0.6422 -0.5429
20041TIP3    H181614   3.761   6.625   3.920  0.8320 -1.5406 -0.7265
20041TIP3    H281615   3.823   6.703   4.034  0.2808  0.7319 -1.9210
20042TIP3   OH281616   2.906   3.901  15.918  0.4663  0.2489  0.6520
20042TIP3    H181617   2.921   3.929  15.827 -0.8246  2.1801  0.9807
20042TIP3    H281618   2.840   3.832  15.911  1.3597 -0.5718  0.0500
20043TIP3   OH281619   5.166   4.620  10.723  0.1882  0.1683  0.2597
20043TIP3    H181620   5.231   4.550  10.723  1.0074  0.8756  1.7066
20043TIP3    H281621   5.095   4.588  10.778  0.4056  0.3328  0.6369
20044TIP3   OH281622   0.900   4.231   6.065  0.0634  0.0319  0.3846
20044TIP3    H181623   0.839   4.205   5.997 -0.5294  1.0659  0.4949
20044TIP3    H281624   0.874   4.321   6.088  1.9705  0.7291  0.0129
20045TIP3   OH281625   3.170   5.199   4.829  0.1192  0.4758 -0.4654
20045TIP3    H181626   3.159   5.158   4.915  2.0687  0.8066 -0.0123
20045TIP3    H281627   3.252   5.248   4.836  0.5651  0.1437 -2.6528
20046TIP3   OH281628   2.934   5.413  17.166  0.1077  0.0582  0.0206
20046TIP3    H181629   3.022   5.445  17.186  0.7002 -1.5240  0.0602
20046TIP3    H281630   2.938   5.319  17.181 -1.7054 -0.0103  0.4059
20047TIP3   OH281631   1.763   1.629  16.503  1.2015  0.0968 -0.0571
20047TIP3    H181632   1.759   1.548  16.452  0.5865 -0.0422  0.2022
20047TIP3    H281633   1.778   1.599  16.593 -1.0896  0.1100  0.3999
20048TIP3   OH281634   3.056   3.347   1.525 -0.4207  0.2710  0.8277
20048TIP3    H181635   2.975   3.310   1.560 -0.6128  0.1948  0.3069
20048TIP3    H281636   3.125   3.290   1.558 -0.8388 -1.5962 -1.3032
20049TIP3   OH281637   1.244   0.366  10.651 -0.1718 -0.2277  0.2413
20049TIP3    H181638   1.148   0.370  10.643 -0.0664  1.1414 -0.7449
20049TIP3    H281639   1.263   0.273  10.664 -1.6982 -0.3839  1.5799
20050TIP3   OH281640   1.775   0.972  13.927 -0.4574  0.0745 -0.1331
20050TIP3    H181641   1.713   1.015  13.985  0.0449  1.4070 -0.5401
20050TIP3    H281642   1.774   1.025  13.847  1.5315  0.4379  0.0232
20051TIP3   OH281643   3.357   5.599   4.062 -0.2907 -0.3276  0.1634
20051TIP3    H181644   3.435   5.636   4.103 -1.2852  0.8083  1.1371
20051TIP3    H281645   3.294   5.672   4.060 -1.1988 -1.1022 -0.9368
20052TIP3   OH281646   5.285   0.362   2.952  0.0531 -0.0746 -0.0728
20052TIP3    H181647   5.294   0.381   3.045  1.8562 -0.7705 -0.0683
20052TIP3    H281648   5.193   0.382   2.932  0.1845  2.2614  1.3361
20053TIP3   OH281649   5.126   4.993  12.818  0.8995 -0.1823  0.4142
20053TIP3    H181650   5.064   5.063  12.797  0.2632 -1.0675 -0.7510
20053TIP3    H281651   5.211   5.029  12.793  0.7716  0.7481  1.2823
20054TIP3   OH281652   1.104   0.300   6.441 -0.2981 -0.7409  0.3888
20054TIP3    H181653   1.058   0.360   6.499 -0.6584  0.6752 -1.2693
20054TIP3    H281654   1.196   0.314   6.459 -0.3560  0.7120 -0.3005
20055TIP3   OH281655   3.552   3.828  15.192  0.0088  0.7073 -0.0956
20055TIP3    H181656   3.521   3.779  15.116 -1.8107  2.7867 -0.8157
20055TIP3    H281657   3.474   3.874  15.224  0.7709  0.1329  2.8937
20056TIP3   OH281658   1.880   2.161   4.996  0.2603 -0.0065  0.7929
20056TIP3    H181659   1.950   2.096   4.991 -2.1970 -2.8419 -0.7388
20056TIP3    H281660   1.849   2.156   5.086 -0.3650 -1.6316  0.5270
20057TIP3   OH281661   5.277   5.516   1.720 -0.7404 -0.7585  0.4489
20057TIP3    H181662   5.339   5.583   1.750  0.5583 -2.1428  1.0105
20057TIP3    H281663   5.300   5.503   1.627 -0.8750 -0.5394  0.3860
20058TIP3   OH281664   4.438   3.860   6.133 -0.0449 -0.2972 -0.9387
20058TIP3    H181665   4.414   3.785   6.078 -0.3668  0.7346 -2.2654
20058TIP3    H281666   4.481   3.921   6.073  1.8776 -0.1623  0.4919
20059TIP3   OH281667   5.422   3.173  13.262  0.7249  0.3989 -0.0796
20059TIP3    H181668   5.439   3.265  13.281 -1.5269  1.2080 -1.5863
20059TIP3    H281669   5.335   3.157  13.297  0.9659 -1.1235 -0.0938
20060TIP3   OH281670   0.637   0.236  13.771  0.1214 -0.5278  0.0369
20060TIP3    H181671   0.559   0.254  13.822  0.6314  0.3871  0.5362
20060TIP3    H281672   0.656   0.319  13.727  0.1198 -1.0845 -1.0588
20061TIP3   OH281673   4.840   2.739   5.670 -0.2478 -0.0991 -0.0998
20061TIP3    H181674   4.771   2.678   5.645 -0.6955  0.0449  0.7426
20061TIP3    H281675   4.904   2.684   5.715 -0.1149 -0.1230 -0.3144
20062TIP3   OH281676   2.315   4.523   2.516  0.2169 -0.7485 -0.5088
20062TIP3    H181677   2.331   4.433   2.488 -1.1979 -1.1776  0.0065
20062TIP3    H281678   2.343   4.525   2.608  1.0698 -0.4183 -0.7688
20063TIP3   OH281679   3.431   2.041  13.377 -0.3502  0.3808  0.4494
20063TIP3    H181680   3.502   1.988  13.413 -0.3109  0.4705  0.5065
20063TIP3    H281681   3.389   1.985  13.311 -1.5343 -0.4556  1.8511
20064TIP3   OH281682   1.695   3.023   4.527  0.2293 -0.1073  0.5293
20064TIP3    H181683   1.618   2.984   4.568  0.2263  0.0430  0.6654
20064TIP3    H281684   1.757   2.950   4.518  0.7729  0.1198  2.0614
20065TIP3   OH281685   4.057   1.811   4.187 -0.1777  0.0018 -0.6653
20065TIP3    H181686   4.013   1.727   4.200  1.3970 -0.6601  0.9319
20065TIP3    H281687   4.041   1.833   4.096 -3.1268 -0.5350 -0.3667
20066TIP3   OH281688   5.348   5.218   6.714  0.0501 -0.8670  0.0717
20066TIP3    H181689   5.259   5.250   6.729  0.7845  0.4349  2.0969
20066TIP3    H281690   5.390   5.288   6.663  0.6355 -0.2332  1.3916
20067TIP3   OH281691   1.623   5.691  12.624 -0.1722 -0.2050 -0.0957
20067TIP3    H181692   1.547   5.632  12.616  0.5220 -1.3511  1.2146
20067TIP3    H281693   1.690   5.637  12.666  0.6571  1.4018  0.7326
20068TIP3   OH281694   1.953   4.615  12.021 -0.1682 -0.3806  0.2941
20068TIP3    H181695   1.937   4.703  11.987 -0.4065 -0.1414  1.0120
20068TIP3    H281696   1.943   4.558  11.945 -1.6802  0.0426  0.1390
20069TIP3   OH281697   0.845   0.764   1.440 -0.0279  0.3812  0.3691
20069TIP3    H181698   0.838   0.798   1.529  3.2497  1.0303  0.5003
20069TIP3    H281699   0.862   0.841   1.386 -0.1127 -0.2242 -0.5480
20070TIP3   OH281700   0.915   2.716  12.896 -0.4862 -0.0322 -0.7089
20070TIP3    H181701   0.972   2.656  12.945 -0.8207 -0.8240 -1.2564
20070TIP3    H281702   0.943   2.803  12.922  0.7113 -0.4142 -0.6674
20071TIP3   OH281703   3.356   5.813   2.252 -0.0997  0.1546 -0.5446
20071TIP3    H181704   3.350   5.797   2.347  0.6675 -1.5926 -0.7607
20071TIP3    H281705   3.449   5.822   2.235 -0.2451  0.5932 -1.1361
20072TIP3   OH281706   4.526   6.371  11.224 -0.5764  0.1494 -0.1820
20072TIP3    H181707   4.478   6.294  11.258 -1.4378  0.7018 -0.1097
20072TIP3    H281708   4.618   6.350  11.239 -0.6583 -1.7041 -1.8894
20073TIP3   OH281709   0.416   5.391   1.470  0.3363  0.0620  0.2647
20073TIP3    H181710   0.451   5.350   1.549  0.1856  0.7951  0.7288
20073TIP3    H281711   0.321   5.377   1.475  0.3942 -0.4908 -0.1444
20074TIP3   OH281712   3.224   4.374  11.700  0.3123 -0.2847  0.2162
20074TIP3    H181713   3.236   4.403  11.790  0.5919 -0.2757  0.1797
20074TIP3    H281714   3.236   4.453  11.647 -0.2728 -0.2057  0.1932
20075TIP3   OH281715   3.314   1.568   2.606  0.4321 -0.4192 -0.1937
20075TIP3    H181716   3.396   1.565   2.655  0.1838 -2.1840  0.1837
20075TIP3    H281717   3.246   1.564   2.673  0.0619 -0.5648 -0.5737
20076TIP3   OH281718   0.831   1.062   2.758 -0.1532  0.2774  0.0770
20076TIP3    H181719   0.904   1.009   2.726  2.7300  3.3624  0.9389
20076TIP3    H281720   0.821   1.037   2.850 -1.8776 -1.7474 -0.5779
20077TIP3   OH281721   3.608   2.706  15.595  0.4440 -0.2161 -0.0224
20077TIP3    H181722   3.638   2.615  15.590  0.2903 -0.2994  0.4405
20077TIP3    H281723   3.688   2.758  15.597  0.5753 -0.4348  1.1951
20078TIP3   OH281724   4.635   0.083   5.470  0.6256 -0.0704 -0.1941
20078TIP3    H181725   4.659   0.119   5.556 -1.1490  0.0066  0.3256
20078TIP3    H281726   4.686   0.003   5.462  1.0879  0.1071  0.7952
20079TIP3   OH281727   2.586   0.410  14.006  0.0417 -0.2794  0.4147
20079TIP3    H181728   2.568   0.353  14.080  1.0095  0.4402  1.2363
20079TIP3    H281729   2.660   0.369  13.961  0.8405  0.3705  1.0959
20080TIP3   OH281730   4.149   2.143   0.941  0.7773  0.2915  0.0160
20080TIP3    H181731   4.140   2.102   1.026  0.1920 -1.3131 -0.7814
20080TIP3    H281732   4.103   2.227   0.949  1.1742  0.3887  1.4005
20081TIP3   OH281733   0.220   2.397   4.985  0.4486 -0.1809 -0.5743
20081TIP3    H181734   0.285   2.332   4.959  1.1791  0.0262  0.6380
20081TIP3    H281735   0.266   2.454   5.047  0.1098  2.0343 -2.2248
20082TIP3   OH281736   1.138   2.321  12.225  0.4022 -0.0315  0.1503
20082TIP3    H181737   1.149   2.400  12.172 -0.0724 -0.1863 -0.1914
20082TIP3    H281738   1.196   2.333  12.300 -0.8491  1.3742  0.9353
20083TIP3   OH281739   2.917   2.097  13.577  0.0955  0.3994 -0.3229
20083TIP3    H181740   2.881   2.140  13.499 -0.4085 -0.2767 -0.4712
20083TIP3    H281741   2.871   2.137  13.650 -0.6856 -0.1787 -0.4874
20084TIP3   OH281742   3.689   1.698   6.666 -0.4692  0.2675  0.5268
20084TIP3    H181743   3.733   1.773   6.705 -1.3760  0.1530  1.8318
20084TIP3    H281744   3.626   1.669   6.733 -0.3974 -1.4276 -0.0859
20085TIP3   OH281745   3.566   4.884  16.999  0.0184  0.1608 -0.2670
20085TIP3    H181746   3.511   4.822  17.049  1.0504 -0.0548  0.6519
20085TIP3    H281747   3.547   4.969  17.038  0.4203  0.0677  0.1414
20086TIP3   OH281748   2.436   1.652  14.335  0.0695  0.0481 -0.3087
20086TIP3    H181749   2.443   1.558  14.318  1.5276  0.1107 -0.1847
20086TIP3    H281750   2.480   1.664  14.420  0.2402  0.8865 -0.5111
20087TIP3   OH281751   4.179   0.330  11.387  0.2984  0.4550  0.4329
20087TIP3    H181752   4.160   0.338  11.480  1.0240 -1.6024  0.8109
20087TIP3    H281753   4.266   0.291  11.383  0.6905  1.3677 -1.1485
20088TIP3   OH281754   4.673   3.516   3.354 -0.0880 -0.3362 -0.1757
20088TIP3    H181755   4.654   3.437   3.404 -0.3739 -0.4738 -0.5018
20088TIP3    H281756   4.589   3.562   3.350 -0.0557 -0.3034 -0.4880
20089TIP3   OH281757   3.154   0.649  11.636 -0.8521  0.1262  0.7938
20089TIP3    H181758   3.222   0.589  11.668  0.2826  1.1781  0.4288
20089TIP3    H281759   3.101   0.668  11.713 -0.9859 -1.0287  0.9976
20090TIP3   OH281760   1.943   5.814   4.910 -0.3306  0.3501 -0.2741
20090TIP3    H181761   1.972   5.802   5.000 -0.0746 -0.1895 -0.4209
20090TIP3    H281762   1.920   5.906   4.903  2.2105  1.0367 -0.4041
20091TIP3   OH281763   4.899   5.233   2.623 -0.2750 -0.2296 -0.1545
20091TIP3    H181764   4.952   5.163   2.660  0.7747 -0.5153 -2.0553
20091TIP3    H281765   4.865   5.197   2.541 -1.5793  0.7344 -0.0681
20092TIP3   OH281766   6.629   5.816   2.297  0.2339  0.2038 -0.1563
20092TIP3    H181767   6.692   5.819   2.369 -0.8474 -1.9397  0.9999
20092TIP3    H281768   6.552   5.861   2.331  0.2406  0.5497 -0.5904
20093TIP3   OH281769   2.369   3.622  13.284  0.1519 -0.3590  0.1177
20093TIP3    H181770   2.324   3.706  13.277 -0.9197 -1.0464 -2.4419
20093TIP3    H281771   2.462   3.645  13.292 -0.2737  1.0412  1.4563
20094TIP3   OH281772   3.582   5.877  17.474  0.4580 -0.1449 -0.4945
20094TIP3    H181773   3.540   5.809  17.421 -2.9141  0.1948  1.4404
20094TIP3    H281774   3.582   5.955  17.419  3.2649 -1.2617 -2.2954
20095TIP3   OH281775   4.690   6.710   3.010 -0.3438  0.2235  0.2546
20095TIP3    H181776   4.739   6.755   3.078 -2.0143  2.5216  0.0199
20095TIP3    H281777   4.604   6.694   3.048 -0.7152 -0.1325 -0.7000
20096TIP3   OH281778   4.961   1.770  14.835 -0.7291 -0.0196  0.0526
20096TIP3    H181779   4.937   1.692  14.885  0.1609 -0.3334  0.0122
20096TIP3    H281780   5.012   1.823  14.897  0.5592 -0.5087 -0.5519
20097TIP3   OH281781   6.360   4.637   0.247  0.0248 -0.0700 -0.0724
20097TIP3    H181782   6.267   4.613   0.242 -1.0911  2.4346  3.8091
20097TIP3    H281783   6.370   4.709   0.185 -0.4082 -0.8686 -1.0862
20098TIP3   OH281784   6.436   2.510  17.458  0.4165  0.9345  0.2676
20098TIP3    H181785   6.526   2.519  17.489  0.4111  2.5935 -0.1044
20098TIP3    H281786   6.417   2.594  17.416 -0.6391 -0.1187 -1.4358
20099TIP3   OH281787   2.706   4.737   4.741 -0.2999  0.1950  0.8684
20099TIP3    H181788   2.735   4.669   4.681  1.1642  0.1122  1.6528
20099TIP3    H281789   2.624   4.704   4.778 -0.5633 -0.2971 -0.1256
20100TIP3   OH281790   5.572   5.654   3.077  0.5937 -0.5685  0.6825
20100TIP3    H181791   5.551   5.738   3.038  0.3548 -0.4909  0.9803
20100TIP3    H281792   5.605   5.675   3.164 -0.1956 -0.8271  1.0520
20101TIP3   OH281793   1.841   4.361  17.166  0.2304 -0.3128 -0.6517
20101TIP3    H181794   1.936   4.353  17.165  0.3192  0.4647 -2.2766
20101TIP3    H281795   1.811   4.296  17.102 -0.3256 -0.3943 -0.3176
20102TIP3   OH281796   0.955   4.126  17.151 -0.1602  0.6368  0.0877
20102TIP3    H181797   0.984   4.204  17.197 -0.9775  0.1786  1.4327
20102TIP3    H281798   1.018   4.058  17.176 -0.6339  0.3738  0.5841
20103TIP3   OH281799   5.385   3.126  16.188 -0.8623  0.1488  0.5996
20103TIP3    H181800   5.404   3.212  16.225  1.5577  0.0001 -0.1863
20103TIP3    H281801   5.328   3.085  16.254  0.0322  1.3780  2.2242
20104TIP3   OH281802   5.425   0.232   0.611 -0.1084  0.8561  0.0274
20104TIP3    H181803   5.430   0.182   0.530  0.8208 -0.7310  1.0177
20104TIP3    H281804   5.466   0.316   0.590 -0.7966  0.8607 -1.3986
20105TIP3   OH281805   5.972   5.985  13.479  0.2677 -0.4322 -0.9184
20105TIP3    H181806   5.967   5.898  13.518 -0.0295 -0.5255 -1.1686
20105TIP3    H281807   5.933   5.975  13.393 -0.2785  0.0794 -0.7334
20106TIP3   OH281808   2.158   4.365   1.938  0.5491 -0.4471  0.0267
20106TIP3    H181809   2.064   4.381   1.924  0.7346  1.7893  0.9438
20106TIP3    H281810   2.195   4.364   1.850 -0.1455  0.1450 -0.2828
20107TIP3   OH281811   1.158   0.141   3.095  0.3806  0.3288  0.1105
20107TIP3    H181812   1.182   0.207   3.029 -1.7498 -0.2609 -1.3795
20107TIP3    H281813   1.083   0.178   3.139  0.8511  0.0353  1.1826
20108TIP3   OH281814   4.359   2.509  15.789  0.4259 -0.0772 -0.2973
20108TIP3    H181815   4.351   2.427  15.838 -2.0088  0.0360 -0.4182
20108TIP3    H281816   4.269   2.535  15.769  1.2355  0.9548 -3.0789
20109TIP3   OH281817   3.223   4.293   5.493  0.7600  0.0741  0.4675
20109TIP3    H181818   3.287   4.245   5.440 -0.0219  0.3679 -0.7807
20109TIP3    H281819   3.148   4.233   5.498 -0.6488  1.4507 -1.9876
20110TIP3   OH281820   0.179   4.459  16.267 -0.3513  0.2393  0.6710
20110TIP3    H181821   0.111   4.411  16.313 -1.0296  0.4858 -0.0493
20110TIP3    H281822   0.148   4.550  16.267  0.3145  0.4747  0.9356
20111TIP3   OH281823   1.876   0.139  15.221 -0.6413 -0.7089 -0.1690
20111TIP3    H181824   1.958   0.157  15.266  0.4894  1.0444 -2.7236
20111TIP3    H281825   1.892   0.058  15.173  0.1231  0.3063 -1.6947
20112TIP3   OH281826   2.535   0.248   3.781  0.2869  0.0098  0.0722
20112TIP3    H181827   2.628   0.258   3.760  0.0058 -1.4688 -2.3471
20112TIP3    H281828   2.525   0.154   3.797 -0.6657  0.2855  1.2462
20113TIP3   OH281829   0.759   5.328  12.659 -0.0329 -0.0157 -0.3406
20113TIP3    H181830   0.674   5.352  12.695  1.2274  1.9613  1.5541
20113TIP3    H281831   0.770   5.384  12.583 -0.4866 -0.4202 -0.7104
20114TIP3   OH281832   1.501   3.642  10.992 -0.1903 -0.3778  0.0955
20114TIP3    H181833   1.407   3.658  10.994 -0.3239 -1.1071  0.0344
20114TIP3    H281834   1.509   3.546  10.990  0.5682 -0.3431  0.8197
20115TIP3   OH281835   1.928   3.993   3.781  0.3988  0.0816 -0.3780
20115TIP3    H181836   1.975   3.951   3.708  0.0953  1.5705 -1.4569
20115TIP3    H281837   1.864   3.928   3.808  0.7678 -0.6448 -1.1836
20116TIP3   OH281838   4.049   3.858  13.448 -0.1356  0.0251  0.0930
20116TIP3    H181839   4.123   3.908  13.482  0.8294  0.2674 -2.1585
20116TIP3    H281840   4.063   3.770  13.482  1.7762 -0.1669 -1.0006
20117TIP3   OH281841   4.613   5.727  14.960  0.0142 -0.6153  0.0550
20117TIP3    H181842   4.616   5.802  15.020  1.6510  0.6225 -1.4669
20117TIP3    H281843   4.673   5.664  14.998  1.6548  0.4858 -0.6048
20118TIP3   OH281844   5.220   6.630  12.191  0.5644 -0.3283 -0.4271
20118TIP3    H181845   5.174   6.667  12.116  0.3519  2.4918  0.9777
20118TIP3    H281846   5.177   6.667  12.267  0.2452 -3.7221  1.2588
20119TIP3   OH281847   4.629   0.511   6.036 -0.1799  0.2185 -0.7117
20119TIP3    H181848   4.546   0.514   5.989 -1.0079 -0.4041  0.6313
20119TIP3    H281849   4.628   0.591   6.089  0.1868  0.3235 -0.8650
20120TIP3   OH281850   2.911   1.168  11.036  0.1711  0.1917 -0.0175
20120TIP3    H181851   2.967   1.174  10.958  0.8888 -1.9215  0.2711
20120TIP3    H281852   2.834   1.219  11.014  0.7455  0.3638 -1.7718
20121TIP3   OH281853   2.843   6.716   1.226  0.7274  0.0767  0.0913
20121TIP3    H181854   2.802   6.682   1.306  1.1775 -0.3990  0.1236
20121TIP3    H281855   2.853   6.810   1.243 -1.6525  0.5194 -0.4780
20122TIP3   OH281856   4.232   4.424   0.207 -0.2982 -0.0795 -0.8705
20122TIP3    H181857   4.280   4.500   0.173 -0.9738 -0.2294 -2.2314
20122TIP3    H281858   4.144   4.432   0.169 -0.7731 -0.8319  0.0391
20123TIP3   OH281859   5.958   1.019   3.522  0.0310  0.2307  0.0982
20123TIP3    H181860   5.893   1.027   3.592  0.0527 -1.3611  0.3321
20123TIP3    H281861   6.042   1.012   3.568 -0.0055 -1.3636 -0.0298
20124TIP3   OH281862   0.915   6.381   0.640  0.4067  0.0946  0.2544
20124TIP3    H181863   0.856   6.435   0.692  1.1937  0.5672  0.6732
20124TIP3    H281864   0.863   6.355   0.563 -0.4453  0.1979  0.7893
20125TIP3   OH281865   1.217   3.161  13.070 -0.0282 -0.0951 -1.2021
20125TIP3    H181866   1.266   3.183  12.991  1.2059 -0.0480 -0.4572
20125TIP3    H281867   1.181   3.245  13.099  1.1007  0.2414 -0.7043
20126TIP3   OH281868   3.355   2.340   5.216 -0.4155 -0.0012 -0.3213
20126TIP3    H181869   3.333   2.391   5.138 -0.2030 -0.1011 -0.4474
20126TIP3    H281870   3.347   2.403   5.288  1.9095  0.8343 -0.6834
20127TIP3   OH281871   2.539   3.772  12.696  0.0420  0.5912  0.0489
20127TIP3    H181872   2.476   3.808  12.633  0.9521  0.0154 -1.2421
20127TIP3    H281873   2.486   3.731  12.764 -0.9695  1.0695 -0.4438
20128TIP3   OH281874   2.435   5.586   3.008  0.1955 -0.0218  0.2399
20128TIP3    H181875   2.402   5.676   3.016 -0.9215 -0.4312  0.3327
20128TIP3    H281876   2.523   5.597   2.971 -1.0522  0.9879 -2.7880
20129TIP3   OH281877   6.681   6.574  11.092  0.1051 -0.5351 -0.4936
20129TIP3    H181878   6.636   6.590  11.010  0.5842  0.1112 -0.6379
20129TIP3    H281879   6.723   6.657  11.113  0.9212 -1.0153 -0.1794
20130TIP3   OH281880   0.314   0.339   4.948 -0.5501 -0.2544 -0.1860
20130TIP3    H181881   0.387   0.307   4.895  0.1784 -0.5843  1.0003
20130TIP3    H281882   0.251   0.373   4.883  0.2158 -0.8438 -1.2685
20131TIP3   OH281883   6.177   6.311   2.651  0.4036  0.1092  0.1049
20131TIP3    H181884   6.248   6.280   2.708  0.2187  0.5803  0.6055
20131TIP3    H281885   6.163   6.240   2.589 -0.0772 -0.8462  1.2822
20132TIP3   OH281886   5.047   0.950  17.105 -0.0031 -0.0036 -0.1550
20132TIP3    H181887   5.121   0.898  17.138  0.5261  0.0370 -1.2007
20132TIP3    H281888   4.989   0.885  17.064 -1.2433 -0.2047  1.7966
20133TIP3   OH281889   0.749   3.001   1.611 -0.0272  0.7025 -0.2122
20133TIP3    H181890   0.719   2.910   1.614  0.0293  0.7163  0.8474
20133TIP3    H281891   0.679   3.048   1.567 -0.1222  0.1804 -0.6370
20134TIP3   OH281892   6.622   5.676  12.371  0.2822  0.0163  0.0791
20134TIP3    H181893   6.533   5.668  12.406  0.0981 -0.8300 -0.5431
20134TIP3    H281894   6.639   5.770  12.371 -0.4221  0.1545  0.6741
20135TIP3   OH281895   6.159   2.457   3.347  0.0874 -0.4786 -0.1619
20135TIP3    H181896   6.077   2.438   3.301 -1.1648  0.0614  1.7277
20135TIP3    H281897   6.189   2.372   3.380 -1.8651 -0.2596  2.4656
20136TIP3   OH281898   1.250   0.090  11.591  0.2934 -0.1527  0.7401
20136TIP3    H181899   1.203   0.013  11.559 -0.0778  0.0356  0.8201
20136TIP3    H281900   1.181   0.154  11.608  0.6786  0.5588 -0.3039
20137TIP3   OH281901   2.077   1.845   5.549  0.1938 -0.1811 -0.3531
20137TIP3    H181902   2.142   1.798   5.496  0.5093  1.4302 -1.4525
20137TIP3    H281903   2.068   1.792   5.628  1.5918 -1.3274 -0.9181
20138TIP3   OH281904   4.995   0.367   2.217 -0.2008 -0.0520  0.0236
20138TIP3    H181905   4.943   0.446   2.203 -0.2877 -0.0457  0.3720
20138TIP3    H281906   5.086   0.396   2.208 -0.2245  0.1272  0.3264
20139TIP3   OH281907   0.616   2.365  12.703  0.1783  0.6280 -0.2429
20139TIP3    H181908   0.642   2.315  12.781 -1.3770 -2.0365 -1.3010
20139TIP3    H281909   0.692   2.360  12.645  0.4257  0.4262  0.0944
20140TIP3   OH281910   4.827   0.665  11.357 -0.4677 -0.5402  0.0451
20140TIP3    H181911   4.860   0.663  11.267  1.1291 -1.0858  0.6051
20140TIP3    H281912   4.905   0.653  11.411 -1.2041  1.0705  1.5600
20141TIP3   OH281913   2.661   3.185   6.320  0.2635  0.0294  0.0209
20141TIP3    H181914   2.586   3.159   6.374 -0.6997 -0.1847 -1.3525
20141TIP3    H281915   2.720   3.110   6.321 -2.8563 -3.0050 -4.6087
20142TIP3   OH281916   2.318   2.473   1.634  0.1208 -0.1316 -0.2233
20142TIP3    H181917   2.260   2.422   1.690 -0.3950 -0.2494 -0.8487
20142TIP3    H281918   2.259   2.524   1.578  0.6121 -0.0691 -0.6973
20143TIP3   OH281919   5.281   1.056   1.553 -0.3335  0.5115 -0.3108
20143TIP3    H181920   5.300   1.148   1.571  0.0835 -0.1038  2.8976
20143TIP3    H281921   5.367   1.017   1.537 -0.3700  0.4055 -0.2448
20144TIP3   OH281922   6.034   5.846  12.302 -0.0329  0.4594  0.3098
20144TIP3    H181923   6.053   5.852  12.208  1.5845 -0.5907  0.5367
20144TIP3    H281924   5.954   5.898  12.313  1.1151  2.7574 -1.2288
20145TIP3   OH281925   2.614   5.023  12.359 -0.3167  0.2415  0.0190
20145TIP3    H181926   2.624   5.118  12.356 -0.1167  0.3189  1.7755
20145TIP3    H281927   2.526   5.009  12.394 -0.4100 -0.2261 -0.3903
20146TIP3   OH281928   2.632   3.543  17.292 -0.1938 -0.0142  0.2797
20146TIP3    H181929   2.616   3.598  17.216 -1.8452 -0.5590  0.2074
20146TIP3    H281930   2.555   3.554  17.347  0.5300 -0.4027  1.4157
20147TIP3   OH281931   5.320   3.114  14.415 -0.3353 -0.1679  0.3180
20147TIP3    H181932   5.319   3.023  14.447 -0.0004 -1.4810 -3.0417
20147TIP3    H281933   5.409   3.127  14.382 -1.4507 -0.1726 -3.0066
20148TIP3   OH281934   4.345   1.655   5.191  0.1192  0.1133 -0.8296
20148TIP3    H181935   4.407   1.727   5.189  0.3400 -0.0772 -2.9648
20148TIP3    H281936   4.396   1.580   5.224  0.7230  0.2269 -1.4887
20149TIP3   OH281937   6.644   5.059  14.521 -0.7318  0.3090 -0.2249
20149TIP3    H181938   6.581   5.089  14.587 -1.3411 -1.9747  0.3219
20149TIP3    H281939   6.591   5.013  14.456  0.1362  0.3884 -1.0075
20150TIP3   OH281940   3.553   5.475   2.944 -0.1317 -0.0876 -0.3160
20150TIP3    H181941   3.463   5.487   2.972  0.0870  2.3485 -0.4492
20150TIP3    H281942   3.563   5.380   2.936 -2.9935 -0.4033 -1.3683
20151TIP3   OH281943   4.078   5.588   5.248  0.3061 -0.0030  0.0459
20151TIP3    H181944   4.036   5.603   5.332  0.3196  0.1805  0.0217
20151TIP3    H281945   4.053   5.499   5.223  0.7362 -0.2569  0.4954
20152TIP3   OH281946   0.990   0.173  10.933  0.0677 -0.0023  0.2162
20152TIP3    H181947   0.998   0.213  10.846  1.9607  0.4494  0.5562
20152TIP3    H281948   1.066   0.205  10.981  0.9123 -2.8820  0.9952
20153TIP3   OH281949   3.608   1.058   6.231 -0.1215  0.8549 -0.1259
20153TIP3    H181950   3.662   1.081   6.155 -0.9417  1.7260 -0.4644
20153TIP3    H281951   3.544   0.995   6.197  0.6215 -0.1221  0.2574
20154TIP3   OH281952   4.976   4.613  12.529  0.4058  0.6425 -0.3051
20154TIP3    H181953   4.951   4.694  12.574 -0.5919  0.1618  0.0133
20154TIP3    H281954   4.893   4.574  12.501  0.9085 -0.0096 -0.9285
20155TIP3   OH281955   0.397   2.820  16.325 -0.1468  0.4874  0.3667
20155TIP3    H181956   0.471   2.863  16.367 -0.5792  1.1163  0.5032
20155TIP3    H281957   0.372   2.879  16.253 -0.6838  0.4226  0.4935
20156TIP3   OH281958   6.393   3.342   2.142 -0.1174 -0.2451  0.0989
20156TIP3    H181959   6.401   3.359   2.049  2.0787  0.5848  0.3746
20156TIP3    H281960   6.410   3.248   2.151  0.2664 -0.2148 -0.2881
20157TIP3   OH281961   2.998   3.388  11.790  0.0645  0.3809  0.0049
20157TIP3    H181962   2.902   3.389  11.795 -0.0022  3.0986 -0.2524
20157TIP3    H281963   3.017   3.397  11.696  0.6439 -1.3477 -0.0858
20158TIP3   OH281964   4.707   4.640  13.874  0.1660  0.5731 -0.2894
20158TIP3    H181965   4.782   4.624  13.931 -0.5103  2.1290  1.0974
20158TIP3    H281966   4.679   4.552  13.846  1.9432 -0.0759 -0.1498
20159TIP3   OH281967   6.145   1.098   0.531 -0.0198 -0.0015  0.3095
20159TIP3    H181968   6.220   1.081   0.475  0.5256  1.9900  0.3699
20159TIP3    H281969   6.082   1.142   0.474 -0.3616  0.0633  0.7309
20160TIP3   OH281970   3.343   0.177  14.143 -0.2955  0.1427  0.8016
20160TIP3    H181971   3.381   0.099  14.184  3.3863  2.1018  1.5526
20160TIP3    H281972   3.338   0.154  14.050  0.1219 -1.1859  1.0781
20161TIP3   OH281973   3.605   4.719   6.371 -0.7466 -0.0202  0.1289
20161TIP3    H181974   3.697   4.703   6.391 -0.8369 -0.8469 -0.0945
20161TIP3    H281975   3.603   4.809   6.338  0.2763 -0.5681 -1.5396
20162TIP3   OH281976   3.728   2.534   3.823  0.5073  0.0105  0.6094
20162TIP3    H181977   3.782   2.476   3.768  0.3395 -0.6865  1.1563
20162TIP3    H281978   3.696   2.601   3.763  2.0824  0.5160  0.2929
20163TIP3   OH281979   5.569   4.630  16.053 -0.0114  0.0803  0.0177
20163TIP3    H181980   5.489   4.612  16.003  0.2837  0.4468 -0.5934
20163TIP3    H281981   5.566   4.725  16.069 -0.4139 -0.1268  1.2394
20164TIP3   OH281982   4.142   3.622  16.527 -0.2297 -0.4028  0.7294
20164TIP3    H181983   4.048   3.634  16.514 -0.3246 -1.0354  0.7966
20164TIP3    H281984   4.153   3.528  16.537  0.5430 -0.4384 -0.3140
20165TIP3   OH281985   0.464   0.008  15.113 -0.3009  0.2069  0.0664
20165TIP3    H181986   0.406   0.002  15.037  0.9007  0.7913 -0.9271
20165TIP3    H281987   0.546  -0.032  15.085  0.1764  0.4519  1.0463
20166TIP3   OH281988   0.214   3.239  14.490  0.1160 -0.4628  0.4459
20166TIP3    H181989   0.138   3.268  14.541 -1.5813 -1.7958 -1.1601
20166TIP3    H281990   0.264   3.319  14.473 -0.9692  0.4754  1.4935
20167TIP3   OH281991   6.578   1.199   1.300 -0.2124  0.2874 -0.2590
20167TIP3    H181992   6.516   1.272   1.296  1.5919  1.8601 -3.6282
20167TIP3    H281993   6.534   1.127   1.256 -0.1526  1.0048 -1.5283
20168TIP3   OH281994   1.248   5.446  11.751  0.2138  0.6656 -0.1788
20168TIP3    H181995   1.323   5.386  11.752  0.3474  0.8226 -0.7628
20168TIP3    H281996   1.286   5.534  11.755  0.1331  0.8021 -1.9029
20169TIP3   OH281997   2.035   3.032  12.145  0.1224  0.4441 -0.3224
20169TIP3    H181998   1.975   2.987  12.204 -0.0816  0.0375 -0.8283
20169TIP3    H281999   2.102   3.070  12.202  0.2831 -0.4755  0.1146
20170TIP3   OH282000   1.126   5.761   1.214 -0.0226 -0.5915  0.0385
20170TIP3    H182001   1.111   5.727   1.302  1.3344 -1.2976  0.0367
20170TIP3    H282002   1.182   5.837   1.227 -0.1881 -0.4291 -0.1867
20171TIP3   OH282003   5.104   6.052  14.221 -0.2624 -0.3472 -0.0082
20171TIP3    H182004   5.046   6.118  14.183 -0.4960 -0.6798 -0.2372
20171TIP3    H282005   5.189   6.096  14.229 -0.5728  0.1939  0.4612
20172TIP3   OH282006   5.002   3.397  15.900 -0.1281  0.2588  0.1238
20172TIP3    H182007   5.095   3.401  15.877  0.3875 -0.8000  1.8276
20172TIP3    H282008   4.976   3.307  15.880 -0.4789  0.2305  0.6700
20173TIP3   OH282009   1.166   5.298   3.922 -0.2930  0.0208 -0.2604
20173TIP3    H182010   1.154   5.308   3.828 -0.6295  3.1539  0.0024
20173TIP3    H282011   1.234   5.361   3.944  1.5974 -2.3967  1.3251
20174TIP3   OH282012   3.638   3.726  14.424  0.2932  0.2912 -0.3777
20174TIP3    H182013   3.605   3.806  14.465  0.0326  1.0463 -1.9904
20174TIP3    H282014   3.713   3.701  14.478  0.8087  2.0157 -0.2364
20175TIP3   OH282015   2.430   6.191  10.528  0.5589 -0.2103 -0.3691
20175TIP3    H182016   2.464   6.269  10.484 -1.1198  0.4854 -0.5257
20175TIP3    H282017   2.358   6.224  10.582  0.4485 -1.5284  0.3302
20176TIP3   OH282018   2.115   5.316   2.014 -0.0844  0.3945 -0.8720
20176TIP3    H182019   2.063   5.237   2.000 -1.5009  0.8201  1.5370
20176TIP3    H282020   2.068   5.384   1.966 -0.4934  0.3379 -0.5561
20177TIP3   OH282021   6.158   3.507   0.656 -0.5671  0.6498 -0.5864
20177TIP3    H182022   6.112   3.476   0.734 -1.3587  0.7691 -0.9987
20177TIP3    H282023   6.248   3.522   0.686 -0.9733  1.1768  0.4284
20178TIP3   OH282024   5.341   6.347   6.912  0.0801  0.1346 -0.1666
20178TIP3    H182025   5.380   6.276   6.962 -0.4619 -1.1464 -1.4782
20178TIP3    H282026   5.252   6.354   6.946 -0.8063 -1.7766 -1.8434
20179TIP3   OH282027   4.223   3.974  12.783 -0.1096  0.0787  0.2945
20179TIP3    H182028   4.267   3.913  12.724  0.4572  1.2278 -0.5192
20179TIP3    H282029   4.225   3.931  12.869  0.8643 -0.7461 -0.1236
20180TIP3   OH282030   4.476   0.268  12.481  0.2472 -0.1682  0.2318
20180TIP3    H182031   4.491   0.206  12.410 -0.8702  1.5830 -1.6436
20180TIP3    H282032   4.397   0.315  12.456 -1.6900 -1.0950  3.8767
20181TIP3   OH282033   0.333   6.446  13.024  0.0730 -0.3488 -0.4866
20181TIP3    H182034   0.409   6.437  13.083 -0.1667 -0.7172 -0.2317
20181TIP3    H282035   0.354   6.392  12.949 -1.4129 -3.3258  1.0829
20182TIP3   OH282036   0.348   3.313  11.262  0.7746 -0.4607  0.9574
20182TIP3    H182037   0.342   3.406  11.243  0.6100 -0.8731 -1.3175
20182TIP3    H282038   0.441   3.292  11.251  0.4553 -0.9965 -1.1616
20183TIP3   OH282039   6.031   4.519   1.535 -0.5329 -0.0682  1.0429
20183TIP3    H182040   5.968   4.448   1.526  0.6555 -1.1914  1.3394
20183TIP3    H282041   6.085   4.513   1.456 -0.0339  0.1171  1.3695
20184TIP3   OH282042   1.278   0.866   2.619 -0.4716  0.2005  0.4349
20184TIP3    H182043   1.332   0.794   2.586  0.0472  0.1230  1.4408
20184TIP3    H282044   1.298   0.940   2.561  0.0825 -0.0638  0.2864
20185TIP3   OH282045   5.745   3.360   3.211  0.2133  0.5475  0.4127
20185TIP3    H182046   5.674   3.343   3.148 -0.5911 -1.1267  1.6942
20185TIP3    H282047   5.822   3.376   3.157 -0.8711  1.2452 -1.0080
20186TIP3   OH282048   3.705   5.992  11.270  0.1018  0.3407  1.2231
20186TIP3    H182049   3.747   6.029  11.347 -1.1807  2.8735  0.8261
20186TIP3    H282050   3.765   5.923  11.240  2.2272  1.4799  2.5989
20187TIP3   OH282051   5.942   4.041  14.918 -0.7196 -0.4986 -0.0838
20187TIP3    H182052   5.912   3.981  14.986 -0.5035 -0.0445  0.4199
20187TIP3    H282053   5.867   4.048  14.859 -1.3240 -0.0287  0.7106
20188TIP3   OH282054   4.935   2.633  12.284 -0.0135 -0.1252  0.0721
20188TIP3    H182055   4.885   2.618  12.204  0.2828 -1.7415  0.1481
20188TIP3    H282056   4.908   2.719  12.314 -2.4469 -0.7614 -0.0923
20189TIP3   OH282057   4.072   3.732   3.847  0.3207  0.0509 -0.1665
20189TIP3    H182058   4.104   3.780   3.771 -0.5739  1.2026  0.1492
20189TIP3    H282059   3.977   3.739   3.842 -0.0628 -3.6779 -1.3476
20190TIP3   OH282060   2.345   2.727  16.355 -0.6566 -0.2537 -0.0540
20190TIP3    H182061   2.278   2.761  16.295 -0.5952  0.3413  0.2021
20190TIP3    H282062   2.312   2.641  16.381 -0.9904 -0.2507 -0.4514
20191TIP3   OH282063   1.610   2.816   2.619 -0.4267  0.0706  0.4127
20191TIP3    H182064   1.529   2.817   2.567  0.8597  2.3344 -1.7617
20191TIP3    H282065   1.676   2.781   2.560  0.5832  0.1810  1.4527
20192TIP3   OH282066   3.051   6.479  14.807 -1.4733 -0.6330 -0.0203
20192TIP3    H182067   3.112   6.409  14.783 -1.8583 -0.0846 -3.0510
20192TIP3    H282068   3.107   6.546  14.846  0.0522 -0.1074 -2.7751
20193TIP3   OH282069   0.058   3.579  11.394 -0.6096 -0.2394  0.4099
20193TIP3    H182070   0.039   3.495  11.352  0.4307  0.1562 -0.9073
20193TIP3    H282071   0.005   3.578  11.474 -3.6866 -0.5154 -1.4715
20194TIP3   OH282072   1.812   5.903   5.512 -0.3918 -0.0410 -0.0117
20194TIP3    H182073   1.879   5.969   5.527  0.6458 -0.9063 -0.7125
20194TIP3    H282074   1.753   5.912   5.587  0.2668  1.0153  0.4023
20195TIP3   OH282075   6.198   0.230   1.997  0.4476  0.1916 -0.3440
20195TIP3    H182076   6.248   0.169   2.052  1.9556 -0.6772 -2.5618
20195TIP3    H282077   6.133   0.176   1.953 -0.7641  0.8914  0.5114
20196TIP3   OH282078   1.306   5.590  12.081  0.1741  0.7173 -0.0610
20196TIP3    H182079   1.361   5.548  12.016 -0.0086  0.1855  0.1240
20196TIP3    H282080   1.312   5.684  12.061  0.7172  0.6193 -0.3688
20197TIP3   OH282081   6.685   6.393  17.216 -0.7856 -0.0717 -0.3889
20197TIP3    H182082   6.624   6.430  17.152 -2.1789 -1.7225 -0.0776
20197TIP3    H282083   6.676   6.451  17.292 -0.8242  0.5758 -0.8745
20198TIP3   OH282084   2.785   0.253  11.505 -0.3714 -0.0156  0.2276
20198TIP3    H182085   2.784   0.230  11.598 -1.1413  2.3966  0.8926
20198TIP3    H282086   2.799   0.348  11.503 -0.7604  0.0750 -2.1062
20199TIP3   OH282087   6.688   5.427   2.350  0.2043  0.0993 -0.1585
20199TIP3    H182088   6.724   5.346   2.386  1.2552 -0.6319 -2.6209
20199TIP3    H282089   6.742   5.497   2.388 -1.6667 -0.0432  3.2037
20200TIP3   OH282090   3.859   6.029   0.328  0.4106 -0.5318  0.6468
20200TIP3    H182091   3.945   5.987   0.322  0.1037 -1.4799  2.1273
20200TIP3    H282092   3.803   5.961   0.367 -0.3876  0.8846  2.0845
20201TIP3   OH282093   3.836   1.095  12.047 -0.2728 -0.1849  0.3367
20201TIP3    H182094   3.849   1.186  12.022  2.1722 -1.2284 -2.9681
20201TIP3    H282095   3.918   1.069  12.088 -1.0888 -0.8262  1.6071
20202TIP3   OH282096   1.985   1.901   4.871 -0.1211 -0.4458 -0.4680
20202TIP3    H182097   2.023   1.819   4.903 -1.0528 -0.0532  1.8080
20202TIP3    H282098   2.016   1.907   4.781  0.4973 -2.9745 -0.5233
20203TIP3   OH282099   0.935   4.697   1.546 -0.3818 -0.1385 -0.5014
20203TIP3    H182100   0.924   4.750   1.626  0.5214  0.2727 -0.6405
20203TIP3    H282101   0.855   4.713   1.496  0.2842  1.9024 -0.9910
20204TIP3   OH282102   6.142   1.984  12.588 -0.2367  0.0725  0.1459
20204TIP3    H182103   6.199   1.914  12.617 -1.2720 -1.3821 -1.1392
20204TIP3    H282104   6.199   2.061  12.582  1.5417 -1.2353 -0.7975
20205TIP3   OH282105   1.470   6.041  16.337  0.2828  0.1634  0.3713
20205TIP3    H182106   1.449   6.108  16.271  0.7760  1.5916  1.6219
20205TIP3    H282107   1.397   5.979  16.332 -1.4282  2.0487  0.7714
20206TIP3   OH282108   6.648   2.302   2.277 -0.5204  0.3730 -0.4740
20206TIP3    H182109   6.595   2.246   2.335  0.4723  1.1452  1.2394
20206TIP3    H282110   6.735   2.262   2.278 -0.3525  0.7205 -1.0078
20207TIP3   OH282111   4.971   5.302  17.455  0.4059  0.0634  0.1844
20207TIP3    H182112   4.992   5.255  17.536 -0.5629 -1.2261 -0.2858
20207TIP3    H282113   5.000   5.392  17.472  2.3194 -0.6583  1.1078
20208TIP3   OH282114   4.157   0.580  15.907  0.2941 -0.5467 -0.4910
20208TIP3    H182115   4.196   0.506  15.953 -1.0291 -1.7314 -1.2158
20208TIP3    H282116   4.140   0.548  15.819  2.1749  1.4791 -1.7051
20209TIP3   OH282117   0.697   6.650  15.049 -0.4853  0.1657 -0.0300
20209TIP3    H182118   0.779   6.657  14.999 -1.1842  1.3074 -1.0595
20209TIP3    H282119   0.657   6.569  15.018 -0.5456  0.4747 -0.7777
20210TIP3   OH282120   5.743   5.991  12.989 -0.7069  0.2852 -0.5874
20210TIP3    H182121   5.710   5.903  12.970 -1.1076  0.1161  0.8044
20210TIP3    H282122   5.667   6.039  13.023 -0.0867  0.6179  0.3814
20211TIP3   OH282123   3.909   4.971  12.613  0.3093  0.2639 -0.5721
20211TIP3    H182124   3.860   4.973  12.531  0.6407  0.2046 -0.7729
20211TIP3    H282125   3.852   5.015  12.676 -1.0783 -1.9618 -0.1815
20212TIP3   OH282126   0.503   2.732   3.183  0.1831  0.1131  0.3953
20212TIP3    H182127   0.436   2.799   3.201 -0.3792 -0.1782 -0.5351
20212TIP3    H282128   0.586   2.774   3.207 -0.0934  1.3978 -0.8011
20213TIP3   OH282129   1.026   5.528   0.898 -0.2500 -0.1627  0.7654
20213TIP3    H182130   1.089   5.540   0.969  2.1730  1.8045 -1.4805
20213TIP3    H282131   0.951   5.582   0.922  0.2613 -0.0024  2.0592
20214TIP3   OH282132   1.549   6.705   1.061  0.1852 -0.3813 -0.2166
20214TIP3    H182133   1.571   6.798   1.050 -1.0528 -0.2924 -2.4210
20214TIP3    H282134   1.466   6.705   1.108  1.3819 -0.5236  2.0548
20215TIP3   OH282135   1.448   1.811  15.465  0.3010  0.1288  0.1974
20215TIP3    H182136   1.401   1.813  15.382 -0.7075 -0.4025  0.7477
20215TIP3    H282137   1.537   1.783  15.442  0.3018  0.9042 -0.8113
20216TIP3   OH282138   4.112   2.829   1.574 -0.0472 -0.1515  0.2364
20216TIP3    H182139   4.088   2.747   1.531 -0.4699  0.2487 -0.3131
20216TIP3    H282140   4.056   2.832   1.652 -0.0448 -0.3761  0.2476
20217TIP3   OH282141   1.842   5.242   3.071 -0.4889 -0.2633 -0.1099
20217TIP3    H182142   1.886   5.160   3.094  0.0901  0.6137  2.1136
20217TIP3    H282143   1.811   5.277   3.154  0.3963  2.4014 -0.8169
20218TIP3   OH282144   0.865   6.141   2.622  0.1097 -0.4296  0.0096
20218TIP3    H182145   0.797   6.100   2.676  1.8112 -2.1829  0.9876
20218TIP3    H282146   0.944   6.089   2.640  1.6227  1.2362 -1.3883
20219TIP3   OH282147   1.693   6.007  15.389  0.1343 -0.0970 -0.7878
20219TIP3    H182148   1.647   6.091  15.395  1.7197  0.7839 -0.3699
20219TIP3    H282149   1.692   5.985  15.296 -0.5126  0.2552 -0.8646
20220TIP3   OH282150   5.859   5.768   0.247  0.6167  0.4806  0.4810
20220TIP3    H182151   5.818   5.697   0.198 -0.5646  1.9736 -0.8452
20220TIP3    H282152   5.952   5.745   0.250  0.3135 -0.9498 -0.1829
20221TIP3   OH282153   2.916   1.303   6.245 -0.2292 -0.2910  0.0046
20221TIP3    H182154   2.903   1.375   6.307  0.2769 -0.7133  0.6114
20221TIP3    H282155   2.910   1.224   6.298 -0.8196 -0.7080 -0.6628
20222TIP3   OH282156   4.267   3.588   4.534 -0.6154 -0.0272  0.6198
20222TIP3    H182157   4.320   3.527   4.483 -1.3942  1.3560 -1.9870
20222TIP3    H282158   4.314   3.671   4.529 -1.3942  0.4512  1.0290
20223TIP3   OH282159   4.777   2.812  16.370 -0.2690 -0.0483  0.5940
20223TIP3    H182160   4.699   2.804  16.425 -0.7671  0.8998  0.0493
20223TIP3    H282161   4.838   2.863  16.422 -1.4547  2.5584 -0.4019
20224TIP3   OH282162   2.589   0.846   3.809 -0.3234  0.2305  0.3746
20224TIP3    H182163   2.496   0.831   3.822 -0.4146 -0.7916 -1.1898
20224TIP3    H282164   2.601   0.940   3.826 -1.5217  0.2602  1.1226
20225TIP3   OH282165   0.737   0.788  14.803  0.3314 -0.3163  0.2342
20225TIP3    H182166   0.751   0.840  14.882  1.5952 -0.5260  0.1681
20225TIP3    H282167   0.723   0.853  14.734  0.3439 -0.1018  0.4302
20226TIP3   OH282168   4.582   4.926  12.782  0.0655  0.2781  0.8726
20226TIP3    H182169   4.499   4.973  12.788 -0.0221 -0.0162  2.4485
20226TIP3    H282170   4.626   4.943  12.866  0.1760 -2.1364  1.3727
20227TIP3   OH282171   2.419   5.221  15.763  0.0267  0.0326  0.1748
20227TIP3    H182172   2.487   5.251  15.824 -0.2922  1.6690 -0.2190
20227TIP3    H282173   2.354   5.292  15.764 -0.1409 -0.0536 -1.8108
20228TIP3   OH282174   3.006   1.978  12.447  0.5689 -0.3066  0.0832
20228TIP3    H182175   3.012   2.073  12.433 -1.2394  0.2432  2.3961
20228TIP3    H282176   3.081   1.958  12.503  0.2311  0.0367  0.6729
20229TIP3   OH282177   1.204   3.878  14.822 -0.1909  0.9626  0.8114
20229TIP3    H182178   1.258   3.881  14.900 -1.2536  1.7151  1.5397
20229TIP3    H282179   1.229   3.955  14.772  1.9870 -0.5915 -0.6708
20230TIP3   OH282180   4.142   4.078  16.445 -0.1659 -0.0712  1.1752
20230TIP3    H182181   4.190   4.057  16.364  1.0126 -0.2761  1.9050
20230TIP3    H282182   4.061   4.119  16.415  0.3552  0.0585 -0.1098
20231TIP3   OH282183   5.980   2.553   6.111 -0.0718  0.4504  0.3742
20231TIP3    H182184   6.005   2.646   6.107  1.8737 -0.0559 -0.3603
20231TIP3    H282185   5.932   2.538   6.029  0.2245  0.6433  0.1636
20232TIP3   OH282186   3.655   2.588  17.278 -0.3191  0.7285  0.0455
20232TIP3    H182187   3.639   2.655  17.344  1.1211  0.8518  0.3187
20232TIP3    H282188   3.703   2.520  17.325 -1.0986 -0.1410 -0.4053
20233TIP3   OH282189   3.175   2.276   1.207 -0.3423 -0.0405 -0.1988
20233TIP3    H182190   3.125   2.355   1.228 -0.7812 -0.1405 -0.8335
20233TIP3    H282191   3.251   2.307   1.158  0.8900  0.2348  1.7408
20234TIP3   OH282192   2.059   4.073  12.779  0.2350 -0.1996  0.3762
20234TIP3    H182193   2.068   4.130  12.855 -0.0704  2.8223 -1.6808
20234TIP3    H282194   1.966   4.077  12.757  0.4469 -0.3983 -0.6047
20235TIP3   OH282195   3.477   5.860   0.208  0.3820  0.0910 -0.6207
20235TIP3    H182196   3.498   5.883   0.118 -0.8446  0.8780 -0.7305
20235TIP3    H282197   3.423   5.780   0.201  3.3135 -2.0774 -0.3290
20236TIP3   OH282198   3.000   2.030   0.868 -0.5128  0.1514 -0.1258
20236TIP3    H182199   2.920   2.037   0.922  0.1652  2.4316  0.7082
20236TIP3    H282200   3.055   2.102   0.898  1.8952 -1.3236 -0.7086
20237TIP3   OH282201   1.236   2.654   1.402  0.2742 -0.0334 -0.0726
20237TIP3    H182202   1.214   2.574   1.354 -2.1860  2.0650 -2.7769
20237TIP3    H282203   1.177   2.654   1.477 -1.7925  0.5565 -1.6369
20238TIP3   OH282204   1.711   6.446   3.871 -0.1821 -0.1455 -0.0009
20238TIP3    H182205   1.768   6.384   3.917  0.3265  0.9842  0.9586
20238TIP3    H282206   1.648   6.474   3.937 -1.4156 -0.7999 -0.8511
20239TIP3   OH282207   2.009   3.433  17.035  0.0863 -0.0175  0.1821
20239TIP3    H182208   1.973   3.453  16.949  1.4414 -0.3357 -0.4898
20239TIP3    H282209   1.995   3.339  17.046  0.3920 -0.0759  0.0742
20240TIP3   OH282210   6.390   4.893   0.115  0.2894 -0.0377 -0.6570
20240TIP3    H182211   6.381   4.980   0.154 -0.3493 -0.0929 -0.6698
20240TIP3    H282212   6.480   4.866   0.136  0.4790  0.6085 -0.6253
20241TIP3   OH282213   1.591   2.839   0.664 -0.1962 -0.5665  0.1661
20241TIP3    H182214   1.543   2.875   0.738 -0.7610 -2.7695  0.9512
20241TIP3    H282215   1.532   2.850   0.589 -0.9826 -1.2000  0.6818
20242TIP3   OH282216   3.770   4.955   0.051  0.4048  0.4039 -0.0671
20242TIP3    H182217   3.774   5.043   0.089 -1.2196  1.0154 -1.1992
20242TIP3    H282218   3.844   4.952  -0.011  0.8551  0.7137  0.4442
20243TIP3   OH282219   2.942   5.241   5.089 -0.4276 -0.0320 -0.0856
20243TIP3    H182220   2.866   5.221   5.034 -0.1576  0.0998 -0.5106
20243TIP3    H282221   2.995   5.161   5.086 -0.1111  0.1906 -0.5208
20244TIP3   OH282222   6.277   1.747   5.170 -0.4468  0.0087  0.1610
20244TIP3    H182223   6.307   1.830   5.133  0.8362  0.7042  2.5202
20244TIP3    H282224   6.358   1.697   5.185 -0.7482  0.1131  2.6183
20245TIP3   OH282225   4.460   2.210  12.837  0.1553  0.3937  0.6195
20245TIP3    H182226   4.544   2.166  12.851  0.3388  0.5939  0.1643
20245TIP3    H282227   4.439   2.249  12.921  0.0031 -0.5417  1.0271
20246TIP3   OH282228   0.508   3.259   5.023  0.3588  0.1503 -0.3839
20246TIP3    H182229   0.524   3.344   5.064  0.1467  0.5328 -1.0664
20246TIP3    H282230   0.470   3.281   4.938 -2.3571 -0.6413  0.5134
20247TIP3   OH282231   0.716   3.589   0.822  0.1650 -0.5937 -0.4622
20247TIP3    H182232   0.704   3.680   0.848 -1.0160 -0.9862  0.4962
20247TIP3    H282233   0.655   3.576   0.749  0.1523 -0.6778 -0.4372
20248TIP3   OH282234   0.654   5.369  12.000 -0.1381  0.1525 -0.5131
20248TIP3    H182235   0.658   5.438  11.934 -0.4995 -0.9478 -1.7339
20248TIP3    H282236   0.610   5.296  11.956 -1.1591 -0.3360  1.2206
20249TIP3   OH282237   6.528   1.193   5.468  0.1193  0.0642 -0.2355
20249TIP3    H182238   6.472   1.137   5.415  2.1257 -0.4234 -1.9984
20249TIP3    H282239   6.555   1.263   5.408  1.1294  0.4495  0.6317
20250TIP3   OH282240   2.770   5.794   5.981  0.6436 -0.1307 -0.5368
20250TIP3    H182241   2.702   5.731   5.956  0.1268  0.6371 -1.1298
20250TIP3    H282242   2.801   5.763   6.066 -0.5106 -0.4601 -0.2055
20251TIP3   OH282243   2.099   4.211  14.269  0.1355  0.4891  0.1082
20251TIP3    H182244   2.044   4.190  14.345 -0.1308  2.3285  0.4719
20251TIP3    H282245   2.145   4.291  14.295  1.5504  0.0498 -0.9371
20252TIP3   OH282246   5.616   0.073   4.421 -0.0932  0.4153 -0.2389
20252TIP3    H182247   5.605   0.158   4.465 -0.3973 -1.1964  3.1679
20252TIP3    H282248   5.710   0.063   4.412 -0.0332  0.8688 -0.1471
20253TIP3   OH282249   6.263   0.717   3.639 -0.1261 -0.6662 -0.5487
20253TIP3    H182250   6.354   0.723   3.670 -0.4270 -0.1896  0.2468
20253TIP3    H282251   6.270   0.669   3.556  0.9730  0.2362 -1.0144
20254TIP3   OH282252   5.530   5.313   1.659  0.2702  0.2279  0.2068
20254TIP3    H182253   5.514   5.253   1.733 -1.0669  0.0971 -0.1561
20254TIP3    H282254   5.567   5.391   1.700 -0.9783  0.3808  1.1241
20255TIP3   OH282255   2.725   3.030   4.099  0.1290  0.6777 -0.6696
20255TIP3    H182256   2.719   2.970   4.174  1.0762  0.7964 -0.4742
20255TIP3    H282257   2.767   3.108   4.135  0.4518  0.7959 -1.2880
20256TIP3   OH282258   2.877   6.062  14.139 -0.0211 -0.0008 -0.2174
20256TIP3    H182259   2.963   6.104  14.143  0.2832 -0.4949 -1.2308
20256TIP3    H282260   2.822   6.115  14.196  0.3717  1.7262 -1.3635
20257TIP3   OH282261   6.661   0.454   7.121  0.1157  0.1168  0.1526
20257TIP3    H182262   6.585   0.408   7.158 -0.2681 -0.9832 -1.8564
20257TIP3    H282263   6.625   0.534   7.084  0.2555  0.4855  0.7988
20258TIP3   OH282264   4.716   2.467   2.757 -0.2510  0.4242 -0.1111
20258TIP3    H182265   4.669   2.541   2.795  0.0331  0.4720  0.1518
20258TIP3    H282266   4.717   2.485   2.663 -1.2197  0.1560 -0.1862
20259TIP3   OH282267   1.793   4.582  16.497 -0.2386 -0.5852 -0.5230
20259TIP3    H182268   1.803   4.578  16.402 -0.1134  2.5411 -0.7545
20259TIP3    H282269   1.879   4.557  16.532  0.4105  0.3972 -1.3629
20260TIP3   OH282270   3.806   5.376  17.223  0.2139  0.1805 -0.3361
20260TIP3    H182271   3.870   5.442  17.194 -0.3559  0.7184 -0.3873
20260TIP3    H282272   3.860   5.304  17.257  0.8610  1.2246  0.9701
20261TIP3   OH282273   6.688   0.744   5.056  0.0325  0.4549 -1.1209
20261TIP3    H182274   6.643   0.737   5.141  1.0565 -2.2353 -0.7172
20261TIP3    H282275   6.758   0.807   5.071  0.4267 -0.2524  0.1736
20262TIP3   OH282276   3.595   1.112   3.028  0.3332  0.3824 -0.1481
20262TIP3    H182277   3.612   1.019   3.008 -0.7053  0.4099 -1.3239
20262TIP3    H282278   3.668   1.159   2.989 -0.8842  0.2956 -2.7865
20263TIP3   OH282279   4.701   2.225   4.667 -0.0133 -0.1430 -0.1415
20263TIP3    H182280   4.791   2.256   4.677 -0.2441  0.5409 -0.1189
20263TIP3    H282281   4.666   2.276   4.594 -0.8491  0.6941  0.8078
20264TIP3   OH282282   3.186   3.658   1.529  0.0627  0.0497  0.3590
20264TIP3    H182283   3.229   3.744   1.537 -0.2085  0.1123  1.1519
20264TIP3    H282284   3.257   3.599   1.502  0.3818  0.4048  0.4076
20265TIP3   OH282285   0.315   1.345   5.614 -0.0652 -0.2247 -0.5356
20265TIP3    H182286   0.245   1.325   5.676 -0.1708 -0.1826 -0.6418
20265TIP3    H282287   0.395   1.344   5.668 -0.2588  0.7504 -0.2129
20266TIP3   OH282288   1.477   3.270  12.430  0.2888  0.5211  0.2063
20266TIP3    H182289   1.468   3.276  12.335  0.5833  1.1775  0.2122
20266TIP3    H282290   1.541   3.201  12.444 -0.7135 -0.4807 -0.0176
20267TIP3   OH282291   3.220   0.128  16.897  0.6507 -0.4449 -0.1214
20267TIP3    H182292   3.270   0.136  16.978  2.6899 -2.2908 -1.0976
20267TIP3    H282293   3.259   0.193  16.839 -0.5399  0.5955  0.2024
20268TIP3   OH282294   4.118   2.504  14.175 -0.1073  0.8832  0.0100
20268TIP3    H182295   4.084   2.415  14.175  2.6737 -0.3123  0.6743
20268TIP3    H282296   4.153   2.517  14.263  0.7622  2.1100 -0.4781
20269TIP3   OH282297   1.945   5.378  16.704 -0.3306  0.0055  0.0934
20269TIP3    H182298   1.996   5.365  16.784 -1.3897  0.2326  0.8185
20269TIP3    H282299   1.861   5.336  16.721  0.1076 -1.7899 -1.6841
20270TIP3   OH282300   2.592   3.667  14.960 -0.3021  0.4369 -0.0069
20270TIP3    H182301   2.621   3.577  14.975  1.0028  0.3177 -2.7111
20270TIP3    H282302   2.657   3.703  14.900 -0.6939  3.2845  1.1435
20271TIP3   OH282303   6.727   1.094  12.090 -0.1503  0.2377 -0.7356
20271TIP3    H182304   6.632   1.104  12.101 -0.2362 -0.9874 -0.1758
20271TIP3    H282305   6.764   1.175  12.124 -0.8789 -0.2998  1.5257
20272TIP3   OH282306   2.144   0.342  11.768  0.6418 -0.2120  0.1712
20272TIP3    H182307   2.087   0.295  11.706 -0.4257 -0.4823  1.3115
20272TIP3    H282308   2.192   0.273  11.813 -0.6721 -0.2497  1.6042
20273TIP3   OH282309   2.892   6.242  15.795 -0.2758 -0.3103 -0.0078
20273TIP3    H182310   2.856   6.158  15.768 -1.2972 -0.4960  1.7745
20273TIP3    H282311   2.953   6.265  15.725 -1.0029 -1.8451 -1.2269
20274TIP3   OH282312   0.917   4.388  16.745 -0.1457 -0.2409  0.2267
20274TIP3    H182313   0.921   4.300  16.783 -3.1006  0.0976  1.6534
20274TIP3    H282314   0.890   4.373  16.654 -1.0858 -0.8539  0.5816
20275TIP3   OH282315   4.031   6.589   2.039 -0.6124  0.4857  0.0140
20275TIP3    H182316   4.066   6.671   2.004  0.0309 -0.1127 -0.7925
20275TIP3    H282317   4.091   6.521   2.007 -1.3656 -0.3481  0.3090
20276LIG     O182318   4.240   0.059  16.490  0.0241 -0.1475 -0.2527
20276LIG     O282319   4.078   0.080  16.922  0.2641  0.8280  0.7052
20276LIG     N182320   3.966   0.211  16.760 -0.4153  0.8054 -0.5163
20276LIG     N282321   3.989   0.235  16.410 -0.1239 -0.0249  0.3256
20276LIG     N382322   4.141   0.059  16.700 -0.0112 -0.4054  0.0031
20276LIG     N482323   3.861   0.321  16.571  0.1789  0.6302  0.0386
20276LIG     C182324   4.039   0.185  16.530  0.3580  0.4683 -0.5877
20276LIG     C282325   3.955   0.237  16.626 -0.1260 -0.2456  0.3441
20276LIG     C382326   4.155   0.108  16.569 -1.0463  0.1360  0.1500
20276LIG     C482327   4.062   0.112  16.801  0.2692  1.3304  0.1120
20276LIG     C582328   3.882   0.313  16.438 -0.4093 -0.0684 -1.0221
20276LIG     C682329   3.885   0.269  16.864 -0.7265  0.4024  0.3825
20276LIG     C782330   4.046   0.207  16.280 -0.5215  0.5365 -0.0067
20276LIG     C882331   4.250  -0.036  16.750 -1.0590  0.4932  0.1269
20276LIG     H182332   3.823   0.359  16.359 -0.9323 -0.0505 -0.6286
20276LIG     H282333   3.804   0.207  16.907  0.3239  0.7453  3.0699
20276LIG     H382334   3.831   0.359  16.826 -2.4806 -0.7749 -0.0077
20276LIG     H482335   3.959   0.301  16.940 -0.0068 -0.0198 -0.1373
20276LIG     H582336   4.142   0.262  16.263  1.8516 -2.7676  1.6690
20276LIG     H682337   3.980   0.242  16.198 -0.7783  0.1292  0.0268
20276LIG     H782338   4.045   0.096  16.278 -0.5163  0.4704  2.0480
20276LIG     H882339   4.322   0.019  16.815 -0.8965  0.1409  0.2520
20276LIG     H982340   4.316  -0.067  16.665 -1.6654  2.7051 -1.2222
20276LIG    H1082341   4.209  -0.123  16.806 -1.0691  1.2984  1.4041
   6.76886   6.76886  17.52555
